Title t= 401.00000 step= 200500
44434
    1GLY      N    1   4.000   3.395   5.473
    1GLY    HT1    2   3.937   3.379   5.554
    1GLY    HT2    3   3.978   3.481   5.418
    1GLY    HT3    4   4.100   3.387   5.502
    1GLY     CA    5   3.998   3.276   5.384
    1GLY    HA1    6   3.896   3.262   5.351
    1GLY    HA2    7   4.035   3.184   5.426
    1GLY      C    8   4.094   3.303   5.265
    1GLY      O    9   4.149   3.408   5.257
    2PRO      N   10   4.114   3.196   5.183
    2PRO     CD   11   4.078   3.061   5.216
    2PRO    HD1   12   3.967   3.051   5.224
    2PRO    HD2   13   4.121   3.023   5.311
    2PRO     CA   14   4.175   3.201   5.051
    2PRO     HA   15   4.281   3.213   5.072
    2PRO     CB   16   4.152   3.067   4.988
    2PRO    HB1   17   4.236   3.035   4.922
    2PRO    HB2   18   4.056   3.066   4.931
    2PRO     CG   19   4.133   2.972   5.111
    2PRO    HG1   20   4.063   2.893   5.079
    2PRO    HG2   21   4.233   2.928   5.132
    2PRO      C   22   4.130   3.314   4.958
    2PRO      O   23   4.018   3.368   4.972
    3GLY      N   24   4.202   3.341   4.850
    3GLY     HN   25   4.296   3.309   4.841
    3GLY     CA   26   4.155   3.420   4.743
    3GLY    HA1   27   4.115   3.508   4.790
    3GLY    HA2   28   4.092   3.361   4.679
    3GLY      C   29   4.273   3.458   4.656
    3GLY      O   30   4.383   3.466   4.706
    4ASP      N   31   4.254   3.477   4.525
    4ASP     HN   32   4.160   3.476   4.490
    4ASP     CA   33   4.369   3.486   4.435
    4ASP     HA   34   4.428   3.398   4.457
    4ASP     CB   35   4.312   3.475   4.289
    4ASP    HB1   36   4.398   3.477   4.219
    4ASP    HB2   37   4.252   3.566   4.264
    4ASP     CG   38   4.237   3.348   4.268
    4ASP    OD1   39   4.293   3.242   4.309
    4ASP    OD2   40   4.133   3.342   4.194
    4ASP      C   41   4.456   3.614   4.459
    4ASP      O   42   4.408   3.721   4.500
    5PRO      N   43   4.584   3.608   4.421
    5PRO     CD   44   4.661   3.482   4.413
    5PRO    HD1   45   4.622   3.424   4.327
    5PRO    HD2   46   4.657   3.418   4.503
    5PRO     CA   47   4.670   3.717   4.384
    5PRO     HA   48   4.705   3.757   4.477
    5PRO     CB   49   4.784   3.652   4.303
    5PRO    HB1   50   4.865   3.723   4.275
    5PRO    HB2   51   4.744   3.621   4.204
    5PRO     CG   52   4.811   3.526   4.387
    5PRO    HG1   53   4.867   3.448   4.332
    5PRO    HG2   54   4.859   3.553   4.483
    5PRO      C   55   4.607   3.823   4.303
    5PRO      O   56   4.553   3.797   4.195
    6GLY      N   57   4.622   3.953   4.344
    6GLY     HN   58   4.674   3.972   4.428
    6GLY     CA   59   4.569   4.062   4.270
    6GLY    HA1   60   4.552   4.143   4.340
    6GLY    HA2   61   4.476   4.035   4.222
    6GLY      C   62   4.660   4.107   4.159
    6GLY      O   63   4.751   4.034   4.116
    7SER      N   64   4.632   4.229   4.103
    7SER     HN   65   4.562   4.285   4.146
    7SER     CA   66   4.686   4.271   3.965
    7SER     HA   67   4.747   4.192   3.924
    7SER     CB   68   4.583   4.312   3.862
    7SER    HB1   69   4.634   4.358   3.775
    7SER    HB2   70   4.505   4.381   3.900
    7SER     OG   71   4.500   4.201   3.814
    7SER    HG1   72   4.460   4.165   3.893
    7SER      C   73   4.772   4.388   3.994
    7SER      O   74   4.723   4.493   4.033
    8GLY      N   75   4.910   4.369   3.971
    8GLY     HN   76   4.944   4.285   3.930
    8GLY     CA   77   5.008   4.477   3.994
    8GLY    HA1   78   5.106   4.437   3.975
    8GLY    HA2   79   5.000   4.501   4.099
    8GLY      C   80   4.986   4.608   3.917
    8GLY      O   81   4.912   4.622   3.819
    9ASN      N   82   5.061   4.709   3.961
    9ASN     HN   83   5.137   4.691   4.023
    9ASN     CA   84   5.048   4.847   3.913
    9ASN     HA   85   4.950   4.889   3.927
    9ASN     CB   86   5.139   4.926   4.020
    9ASN    HB1   87   5.229   4.862   4.033
    9ASN    HB2   88   5.093   4.916   4.120
    9ASN     CG   89   5.165   5.068   3.984
    9ASN    OD1   90   5.084   5.158   3.992
    9ASN    ND2   91   5.291   5.095   3.940
    9ASN   HD21   92   5.309   5.183   3.894
    9ASN   HD22   93   5.367   5.031   3.935
    9ASN      C   94   5.092   4.876   3.773
    9ASN      O   95   5.207   4.845   3.743
   10PRO      N   96   5.018   4.933   3.678
   10PRO     CD   97   4.870   4.955   3.697
   10PRO    HD1   98   4.863   5.057   3.739
   10PRO    HD2   99   4.820   4.880   3.762
   10PRO     CA  100   5.059   4.965   3.541
   10PRO     HA  101   5.090   4.876   3.489
   10PRO     CB  102   4.928   5.014   3.472
   10PRO    HB1  103   4.930   4.999   3.362
   10PRO    HB2  104   4.917   5.124   3.484
   10PRO     CG  105   4.816   4.945   3.553
   10PRO    HG1  106   4.722   5.003   3.546
   10PRO    HG2  107   4.812   4.838   3.522
   10PRO      C  108   5.174   5.066   3.521
   10PRO      O  109   5.158   5.173   3.571
   11GLY      N  110   5.277   5.031   3.441
   11GLY     HN  111   5.278   4.937   3.409
   11GLY     CA  112   5.380   5.121   3.403
   11GLY    HA1  113   5.458   5.054   3.368
   11GLY    HA2  114   5.411   5.186   3.484
   11GLY      C  115   5.357   5.198   3.281
   11GLY      O  116   5.244   5.188   3.226
   12SER      N  117   5.468   5.260   3.238
   12SER     HN  118   5.553   5.248   3.288
   12SER     CA  119   5.463   5.327   3.113
   12SER     HA  120   5.362   5.323   3.076
   12SER     CB  121   5.492   5.482   3.116
   12SER    HB1  122   5.486   5.530   3.016
   12SER    HB2  123   5.594   5.503   3.156
   12SER     OG  124   5.411   5.550   3.209
   12SER    HG1  125   5.430   5.522   3.299
   12SER      C  126   5.556   5.258   3.019
   12SER      O  127   5.638   5.172   3.060
   13GLY      N  128   5.551   5.303   2.892
   13GLY     HN  129   5.483   5.373   2.868
   13GLY     CA  130   5.627   5.242   2.786
   13GLY    HA1  131   5.589   5.273   2.690
   13GLY    HA2  132   5.620   5.136   2.806
   13GLY      C  133   5.772   5.270   2.788
   13GLY      O  134   5.827   5.354   2.855
   14ASP      N  135   5.845   5.185   2.710
   14ASP     HN  136   5.798   5.130   2.641
   14ASP     CA  137   5.987   5.192   2.696
   14ASP     HA  138   6.021   5.174   2.797
   14ASP     CB  139   6.050   5.077   2.607
   14ASP    HB1  140   6.160   5.091   2.595
   14ASP    HB2  141   6.009   5.084   2.504
   14ASP     CG  142   6.027   4.940   2.657
   14ASP    OD1  143   6.043   4.840   2.586
   14ASP    OD2  144   6.007   4.925   2.783
   14ASP      C  145   6.049   5.330   2.657
   14ASP      O  146   5.994   5.410   2.577
   15PRO      N  147   6.168   5.361   2.708
   15PRO     CD  148   6.204   5.329   2.848
   15PRO    HD1  149   6.255   5.230   2.851
   15PRO    HD2  150   6.116   5.326   2.915
   15PRO     CA  151   6.252   5.469   2.650
   15PRO     HA  152   6.203   5.566   2.650
   15PRO     CB  153   6.370   5.471   2.750
   15PRO    HB1  154   6.426   5.567   2.748
   15PRO    HB2  155   6.435   5.383   2.730
   15PRO     CG  156   6.306   5.435   2.886
   15PRO    HG1  157   6.383   5.399   2.957
   15PRO    HG2  158   6.265   5.525   2.938
   15PRO      C  159   6.301   5.448   2.504
   15PRO    OT1  160   6.387   5.357   2.475
   15PRO    OT2  161   6.262   5.526   2.413
   16LIT    LIT  162   4.200   3.149   4.180
   17LIT    LIT  163   5.860   3.294   3.666
   18LIT    LIT  164   6.229   1.915   0.702
   19LIT    LIT  165   2.540   4.770   4.560
   20LIT    LIT  166   5.799   3.470   4.252
   21LIT    LIT  167   2.992   6.145   0.372
   22LIT    LIT  168   2.310   2.641   6.541
   23LIT    LIT  169   5.651   1.022   1.746
   24LIT    LIT  170   6.302   5.915   3.479
   25LIT    LIT  171   8.201   1.080   4.221
   26LIT    LIT  172   2.284   2.929   4.146
   27LIT    LIT  173   7.517   7.046   4.830
   28LIT    LIT  174   6.594   3.074   2.610
   29LIT    LIT  175   7.875   2.343   2.463
   30LIT    LIT  176   0.137   0.459   5.583
   31LIT    LIT  177   1.698   0.110   1.174
   32LIT    LIT  178   1.878   2.955   5.248
   33LIT    LIT  179   1.459   7.239   1.442
   34LIT    LIT  180   7.793   6.113   0.948
   35LIT    LIT  181   4.899   4.699   0.008
   36LIT    LIT  182   4.188   6.158   2.165
   37LIT    LIT  183   1.080   5.094   3.187
   38LIT    LIT  184   2.726   0.390   0.356
   39LIT    LIT  185   1.839   0.779   5.711
   40LIT    LIT  186   6.264   5.432   3.276
   41LIT    LIT  187   6.368   5.491   2.267
   42LIT    LIT  188   3.920   1.531   6.552
   43LIT    LIT  189   8.281   0.539   1.679
   44LIT    LIT  190   6.558   6.038   1.906
   45LIT    LIT  191   0.974   2.408   2.132
   46LIT    LIT  192   3.098   3.511   0.071
   47LIT    LIT  193   3.025   1.955   0.290
   48LIT    LIT  194   6.981   4.966   5.052
   49LIT    LIT  195   5.973   4.736   2.752
   50LIT    LIT  196   5.798   2.272   2.315
   51LIT    LIT  197   0.004   7.661   0.329
   52LIT    LIT  198   8.221   2.387   5.424
   53LIT    LIT  199   2.854   5.090   3.640
   54LIT    LIT  200   0.041   6.977   3.496
   55LIT    LIT  201   1.335   0.151   4.872
   56LIT    LIT  202   3.368   0.169   1.488
   57LIT    LIT  203   6.109   0.756   2.095
   58LIT    LIT  204   7.647   4.665   0.255
   59LIT    LIT  205   4.291   5.160   1.954
   60CLA    CLA  206   1.605   0.470   5.066
   61CLA    CLA  207   6.515   4.482   5.456
   62CLA    CLA  208   6.190   5.926   1.862
   63CLA    CLA  209   1.087   3.611   1.572
   64CLA    CLA  210   6.485   7.228   5.441
   65CLA    CLA  211   4.966   0.263   1.767
   66CLA    CLA  212   3.804   1.824   5.328
   67CLA    CLA  213   2.142   6.736   1.676
   68CLA    CLA  214   8.044   1.475   3.671
   69CLA    CLA  215   7.780   2.457   4.263
   70CLA    CLA  216   5.959   5.222   0.546
   71CLA    CLA  217   1.645   1.527   6.508
   72CLA    CLA  218   6.150   2.877   3.937
   73CLA    CLA  219   3.520   3.832   4.625
   74CLA    CLA  220   4.041   5.476   2.090
   75CLA    CLA  221   2.941   7.588   5.184
   76CLA    CLA  222   1.979   4.878   3.959
   77CLA    CLA  223   2.854   2.208   5.013
   78CLA    CLA  224   3.170   6.438   6.273
   79CLA    CLA  225   1.278   0.483   2.152
   80CLA    CLA  226   7.635   5.641   6.403
   81CLA    CLA  227   6.200   0.844   1.903
   82CLA    CLA  228   8.209   0.403   6.000
   83CLA    CLA  229   8.165   3.365   4.596
   84CLA    CLA  230   5.677   2.170   5.244
   85CLA    CLA  231   6.045   0.081   0.450
   86CLA    CLA  232   6.271   3.227   1.869
   87CLA    CLA  233   7.284   7.057   2.229
   88CLA    CLA  234   8.037   4.438   3.634
   89CLA    CLA  235   2.780   0.277   0.861
   90CLA    CLA  236   7.499   7.692   2.825
   91CLA    CLA  237   1.959   3.778   5.811
   92CLA    CLA  238   1.227   0.669   0.740
   93CLA    CLA  239   3.949   0.633   2.615
   94CLA    CLA  240   5.126   6.193   6.578
   95CLA    CLA  241   7.632   4.826   0.427
   96CLA    CLA  242   8.206   0.967   4.422
   97CLA    CLA  243   5.449   5.515   3.551
   98CLA    CLA  244   2.492   2.358   5.260
   99CLA    CLA  245   6.651   7.537   6.448
  100CLA    CLA  246   2.879   3.871   2.805
  101CLA    CLA  247   0.180   0.387   0.784
  102TIP3   OH2  248   2.449   1.430   3.784
  102TIP3    H1  249   2.393   1.372   3.733
  102TIP3    H2  250   2.391   1.500   3.814
  103TIP3   OH2  251   4.624   6.486   6.316
  103TIP3    H1  252   4.706   6.451   6.351
  103TIP3    H2  253   4.622   6.577   6.346
  104TIP3   OH2  254   1.989   0.397   6.188
  104TIP3    H1  255   2.056   0.329   6.182
  104TIP3    H2  256   2.014   0.448   6.266
  105TIP3   OH2  257   4.714   6.757   0.720
  105TIP3    H1  258   4.627   6.779   0.687
  105TIP3    H2  259   4.730   6.820   0.791
  106TIP3   OH2  260   6.999   7.239   6.677
  106TIP3    H1  261   7.078   7.288   6.699
  106TIP3    H2  262   6.983   7.183   6.752
  107TIP3   OH2  263   2.125   1.235   6.778
  107TIP3    H1  264   2.079   1.196   6.704
  107TIP3    H2  265   2.165   1.315   6.743
  108TIP3   OH2  266   3.563   5.855   6.582
  108TIP3    H1  267   3.521   5.810   6.655
  108TIP3    H2  268   3.538   5.947   6.592
  109TIP3   OH2  269   5.440   1.471   1.453
  109TIP3    H1  270   5.371   1.406   1.468
  109TIP3    H2  271   5.410   1.550   1.498
  110TIP3   OH2  272   0.578   5.515   6.550
  110TIP3    H1  273   0.671   5.523   6.573
  110TIP3    H2  274   0.565   5.582   6.483
  111TIP3   OH2  275   2.714   6.674   0.172
  111TIP3    H1  276   2.727   6.766   0.193
  111TIP3    H2  277   2.701   6.673   0.077
  112TIP3   OH2  278   3.070   3.430   6.379
  112TIP3    H1  279   3.113   3.352   6.343
  112TIP3    H2  280   2.981   3.426   6.344
  113TIP3   OH2  281   3.349   0.798   6.326
  113TIP3    H1  282   3.409   0.725   6.308
  113TIP3    H2  283   3.403   0.864   6.368
  114TIP3   OH2  284   0.439   0.384   2.152
  114TIP3    H1  285   0.529   0.365   2.128
  114TIP3    H2  286   0.417   0.464   2.104
  115TIP3   OH2  287   7.663   2.431   0.971
  115TIP3    H1  288   7.585   2.476   0.939
  115TIP3    H2  289   7.723   2.431   0.897
  116TIP3   OH2  290   2.544   1.969   3.606
  116TIP3    H1  291   2.546   1.995   3.698
  116TIP3    H2  292   2.621   1.915   3.594
  117TIP3   OH2  293   1.156   5.749   4.070
  117TIP3    H1  294   1.073   5.756   4.023
  117TIP3    H2  295   1.215   5.811   4.026
  118TIP3   OH2  296   2.608   0.497   6.019
  118TIP3    H1  297   2.560   0.579   6.031
  118TIP3    H2  298   2.651   0.482   6.103
  119TIP3   OH2  299   1.513   4.938   1.430
  119TIP3    H1  300   1.444   4.873   1.419
  119TIP3    H2  301   1.519   4.981   1.345
  120TIP3   OH2  302   0.379   4.982   5.095
  120TIP3    H1  303   0.327   4.965   5.174
  120TIP3    H2  304   0.378   4.900   5.047
  121TIP3   OH2  305   0.170   2.259   0.579
  121TIP3    H1  306   0.157   2.309   0.499
  121TIP3    H2  307   0.087   2.266   0.626
  122TIP3   OH2  308   0.757   4.948   0.167
  122TIP3    H1  309   0.712   5.031   0.185
  122TIP3    H2  310   0.729   4.924   0.079
  123TIP3   OH2  311   5.424   5.955   1.156
  123TIP3    H1  312   5.501   5.934   1.103
  123TIP3    H2  313   5.459   6.001   1.232
  124TIP3   OH2  314   2.680   4.423   6.471
  124TIP3    H1  315   2.710   4.364   6.402
  124TIP3    H2  316   2.639   4.366   6.536
  125TIP3   OH2  317   0.489   0.642   2.591
  125TIP3    H1  318   0.424   0.606   2.531
  125TIP3    H2  319   0.455   0.728   2.614
  126TIP3   OH2  320   7.793   2.261   0.097
  126TIP3    H1  321   7.876   2.271   0.051
  126TIP3    H2  322   7.802   2.180   0.146
  127TIP3   OH2  323   7.018   1.195   4.246
  127TIP3    H1  324   7.000   1.273   4.194
  127TIP3    H2  325   7.049   1.131   4.182
  128TIP3   OH2  326   2.179   1.581   4.905
  128TIP3    H1  327   2.095   1.536   4.901
  128TIP3    H2  328   2.243   1.516   4.876
  129TIP3   OH2  329   5.094   2.214   6.755
  129TIP3    H1  330   5.185   2.190   6.739
  129TIP3    H2  331   5.045   2.170   6.685
  130TIP3   OH2  332   2.272   6.638   4.853
  130TIP3    H1  333   2.239   6.588   4.928
  130TIP3    H2  334   2.209   6.709   4.841
  131TIP3   OH2  335   6.068   0.594   5.151
  131TIP3    H1  336   6.148   0.626   5.108
  131TIP3    H2  337   6.003   0.593   5.082
  132TIP3   OH2  338   1.467   2.231   2.893
  132TIP3    H1  339   1.407   2.246   2.820
  132TIP3    H2  340   1.549   2.206   2.851
  133TIP3   OH2  341   0.348   1.839   6.423
  133TIP3    H1  342   0.290   1.863   6.351
  133TIP3    H2  343   0.292   1.842   6.501
  134TIP3   OH2  344   3.671   1.018   5.266
  134TIP3    H1  345   3.742   1.040   5.326
  134TIP3    H2  346   3.676   1.085   5.198
  135TIP3   OH2  347   4.366   6.059   0.799
  135TIP3    H1  348   4.293   6.079   0.858
  135TIP3    H2  349   4.338   5.980   0.753
  136TIP3   OH2  350   2.294   6.618   3.303
  136TIP3    H1  351   2.324   6.637   3.214
  136TIP3    H2  352   2.244   6.695   3.328
  137TIP3   OH2  353   0.351   3.518   5.501
  137TIP3    H1  354   0.312   3.437   5.468
  137TIP3    H2  355   0.292   3.547   5.570
  138TIP3   OH2  356   0.683   7.022   3.518
  138TIP3    H1  357   0.692   7.118   3.517
  138TIP3    H2  358   0.771   6.989   3.503
  139TIP3   OH2  359   5.914   3.308   4.722
  139TIP3    H1  360   5.999   3.274   4.696
  139TIP3    H2  361   5.914   3.399   4.693
  140TIP3   OH2  362   1.154   6.328   4.811
  140TIP3    H1  363   1.109   6.392   4.756
  140TIP3    H2  364   1.097   6.315   4.886
  141TIP3   OH2  365   4.507   5.790   3.919
  141TIP3    H1  366   4.497   5.775   4.013
  141TIP3    H2  367   4.537   5.706   3.884
  142TIP3   OH2  368   3.229   3.280   2.985
  142TIP3    H1  369   3.224   3.316   2.897
  142TIP3    H2  370   3.261   3.353   3.039
  143TIP3   OH2  371   2.119   6.730   0.672
  143TIP3    H1  372   2.113   6.717   0.578
  143TIP3    H2  373   2.107   6.824   0.684
  144TIP3   OH2  374   6.000   4.831   6.127
  144TIP3    H1  375   6.011   4.919   6.163
  144TIP3    H2  376   5.905   4.819   6.122
  145TIP3   OH2  377   1.005   1.843   6.787
  145TIP3    H1  378   0.929   1.870   6.735
  145TIP3    H2  379   1.032   1.760   6.748
  146TIP3   OH2  380   3.669   5.362   1.098
  146TIP3    H1  381   3.722   5.378   1.020
  146TIP3    H2  382   3.602   5.300   1.070
  147TIP3   OH2  383   3.768   1.512   4.205
  147TIP3    H1  384   3.708   1.495   4.133
  147TIP3    H2  385   3.743   1.599   4.237
  148TIP3   OH2  386   8.260   1.157   3.185
  148TIP3    H1  387   8.256   1.075   3.234
  148TIP3    H2  388   8.251   1.225   3.251
  149TIP3   OH2  389   5.289   4.965   2.906
  149TIP3    H1  390   5.327   4.885   2.868
  149TIP3    H2  391   5.261   4.939   2.994
  150TIP3   OH2  392   0.339   3.565   4.117
  150TIP3    H1  393   0.261   3.551   4.064
  150TIP3    H2  394   0.378   3.645   4.082
  151TIP3   OH2  395   3.606   4.409   6.500
  151TIP3    H1  396   3.528   4.391   6.553
  151TIP3    H2  397   3.635   4.322   6.470
  152TIP3   OH2  398   6.213   2.729   5.473
  152TIP3    H1  399   6.213   2.695   5.563
  152TIP3    H2  400   6.285   2.683   5.430
  153TIP3   OH2  401   4.952   0.935   2.470
  153TIP3    H1  402   4.896   1.013   2.460
  153TIP3    H2  403   4.957   0.898   2.382
  154TIP3   OH2  404   8.057   5.073   1.239
  154TIP3    H1  405   8.114   5.053   1.165
  154TIP3    H2  406   7.969   5.058   1.206
  155TIP3   OH2  407   3.910   5.244   4.477
  155TIP3    H1  408   3.821   5.280   4.476
  155TIP3    H2  409   3.963   5.314   4.515
  156TIP3   OH2  410   7.667   3.340   0.781
  156TIP3    H1  411   7.674   3.362   0.688
  156TIP3    H2  412   7.597   3.275   0.786
  157TIP3   OH2  413   1.423   1.060   4.213
  157TIP3    H1  414   1.337   1.094   4.237
  157TIP3    H2  415   1.405   0.974   4.175
  158TIP3   OH2  416   3.397   7.461   3.814
  158TIP3    H1  417   3.393   7.547   3.856
  158TIP3    H2  418   3.402   7.480   3.721
  159TIP3   OH2  419   0.523   0.466   1.262
  159TIP3    H1  420   0.479   0.430   1.186
  159TIP3    H2  421   0.605   0.502   1.228
  160TIP3   OH2  422   5.207   0.895   3.985
  160TIP3    H1  423   5.302   0.892   3.995
  160TIP3    H2  424   5.174   0.838   4.054
  161TIP3   OH2  425   3.458   2.948   5.411
  161TIP3    H1  426   3.422   3.004   5.480
  161TIP3    H2  427   3.537   2.994   5.382
  162TIP3   OH2  428   2.336   1.187   3.934
  162TIP3    H1  429   2.361   1.261   3.879
  162TIP3    H2  430   2.243   1.174   3.918
  163TIP3   OH2  431   2.122   4.409   2.280
  163TIP3    H1  432   2.120   4.503   2.259
  163TIP3    H2  433   2.124   4.407   2.376
  164TIP3   OH2  434   6.320   3.211   6.381
  164TIP3    H1  435   6.290   3.195   6.471
  164TIP3    H2  436   6.415   3.219   6.390
  165TIP3   OH2  437   1.092   1.952   0.560
  165TIP3    H1  438   1.142   1.878   0.595
  165TIP3    H2  439   1.152   1.993   0.498
  166TIP3   OH2  440   5.050   0.708   0.499
  166TIP3    H1  441   5.102   0.699   0.579
  166TIP3    H2  442   5.036   0.802   0.490
  167TIP3   OH2  443   0.218   0.110   1.528
  167TIP3    H1  444   0.139   0.165   1.529
  167TIP3    H2  445   0.256   0.124   1.442
  168TIP3   OH2  446   4.900   4.131   0.307
  168TIP3    H1  447   4.804   4.133   0.313
  168TIP3    H2  448   4.921   4.202   0.245
  169TIP3   OH2  449   6.099   1.213   6.731
  169TIP3    H1  450   6.133   1.252   6.651
  169TIP3    H2  451   6.155   1.246   6.800
  170TIP3   OH2  452   4.350   1.775   1.288
  170TIP3    H1  453   4.327   1.739   1.374
  170TIP3    H2  454   4.425   1.832   1.305
  171TIP3   OH2  455   3.786   0.346   5.338
  171TIP3    H1  456   3.787   0.323   5.431
  171TIP3    H2  457   3.839   0.279   5.296
  172TIP3   OH2  458   5.178   6.881   4.863
  172TIP3    H1  459   5.114   6.847   4.801
  172TIP3    H2  460   5.130   6.885   4.946
  173TIP3   OH2  461   4.702   0.835   1.744
  173TIP3    H1  462   4.740   0.749   1.722
  173TIP3    H2  463   4.626   0.843   1.687
  174TIP3   OH2  464   3.987   6.490   3.560
  174TIP3    H1  465   3.967   6.489   3.466
  174TIP3    H2  466   3.991   6.397   3.585
  175TIP3   OH2  467   5.046   5.592   2.246
  175TIP3    H1  468   5.054   5.610   2.340
  175TIP3    H2  469   4.968   5.537   2.239
  176TIP3   OH2  470   3.919   0.088   4.772
  176TIP3    H1  471   3.935   0.005   4.818
  176TIP3    H2  472   3.897   0.150   4.841
  177TIP3   OH2  473   0.404   4.426   1.474
  177TIP3    H1  474   0.345   4.379   1.416
  177TIP3    H2  475   0.459   4.479   1.415
  178TIP3   OH2  476   7.111   5.987   6.402
  178TIP3    H1  477   7.060   5.992   6.482
  178TIP3    H2  478   7.197   6.022   6.425
  179TIP3   OH2  479   5.559   7.328   1.898
  179TIP3    H1  480   5.598   7.410   1.928
  179TIP3    H2  481   5.615   7.260   1.936
  180TIP3   OH2  482   6.540   1.129   5.400
  180TIP3    H1  483   6.618   1.133   5.345
  180TIP3    H2  484   6.482   1.197   5.364
  181TIP3   OH2  485   5.962   0.314   3.102
  181TIP3    H1  486   5.918   0.238   3.140
  181TIP3    H2  487   5.924   0.389   3.148
  182TIP3   OH2  488   6.909   2.467   0.323
  182TIP3    H1  489   6.905   2.528   0.397
  182TIP3    H2  490   6.943   2.386   0.362
  183TIP3   OH2  491   3.403   1.860   2.314
  183TIP3    H1  492   3.387   1.948   2.348
  183TIP3    H2  493   3.339   1.805   2.359
  184TIP3   OH2  494   4.035   6.400   2.875
  184TIP3    H1  495   4.092   6.475   2.883
  184TIP3    H2  496   4.091   6.324   2.891
  185TIP3   OH2  497   1.659   7.459   4.292
  185TIP3    H1  498   1.721   7.435   4.361
  185TIP3    H2  499   1.621   7.542   4.322
  186TIP3   OH2  500   3.715   3.099   2.377
  186TIP3    H1  501   3.697   3.193   2.369
  186TIP3    H2  502   3.658   3.058   2.313
  187TIP3   OH2  503   1.120   6.720   5.598
  187TIP3    H1  504   1.191   6.663   5.567
  187TIP3    H2  505   1.068   6.737   5.520
  188TIP3   OH2  506   3.452   0.362   3.343
  188TIP3    H1  507   3.408   0.446   3.357
  188TIP3    H2  508   3.475   0.362   3.250
  189TIP3   OH2  509   5.693   4.727   6.145
  189TIP3    H1  510   5.688   4.823   6.147
  189TIP3    H2  511   5.645   4.699   6.223
  190TIP3   OH2  512   0.387   6.469   2.659
  190TIP3    H1  513   0.410   6.376   2.659
  190TIP3    H2  514   0.291   6.470   2.662
  191TIP3   OH2  515   0.567   4.182   0.725
  191TIP3    H1  516   0.573   4.265   0.678
  191TIP3    H2  517   0.657   4.148   0.725
  192TIP3   OH2  518   4.428   0.402   6.701
  192TIP3    H1  519   4.447   0.492   6.727
  192TIP3    H2  520   4.494   0.382   6.633
  193TIP3   OH2  521   0.410   6.338   1.607
  193TIP3    H1  522   0.494   6.293   1.600
  193TIP3    H2  523   0.414   6.407   1.540
  194TIP3   OH2  524   6.144   2.653   3.665
  194TIP3    H1  525   6.214   2.701   3.620
  194TIP3    H2  526   6.130   2.702   3.746
  195TIP3   OH2  527   0.801   2.759   5.695
  195TIP3    H1  528   0.706   2.764   5.684
  195TIP3    H2  529   0.827   2.850   5.714
  196TIP3   OH2  530   0.276   3.600   6.008
  196TIP3    H1  531   0.240   3.590   6.096
  196TIP3    H2  532   0.263   3.515   5.967
  197TIP3   OH2  533   2.870   2.301   6.359
  197TIP3    H1  534   2.826   2.220   6.384
  197TIP3    H2  535   2.894   2.287   6.267
  198TIP3   OH2  536   5.873   5.812   5.330
  198TIP3    H1  537   5.819   5.809   5.252
  198TIP3    H2  538   5.841   5.888   5.379
  199TIP3   OH2  539   6.169   7.042   5.613
  199TIP3    H1  540   6.173   6.960   5.564
  199TIP3    H2  541   6.143   7.016   5.701
  200TIP3   OH2  542   2.667   1.959   4.962
  200TIP3    H1  543   2.743   2.017   4.971
  200TIP3    H2  544   2.599   2.000   5.015
  201TIP3   OH2  545   4.264   7.068   3.727
  201TIP3    H1  546   4.199   7.005   3.758
  201TIP3    H2  547   4.254   7.068   3.632
  202TIP3   OH2  548   6.996   1.735   5.844
  202TIP3    H1  549   6.944   1.690   5.911
  202TIP3    H2  550   6.938   1.804   5.812
  203TIP3   OH2  551   5.018   3.175   1.215
  203TIP3    H1  552   5.028   3.219   1.131
  203TIP3    H2  553   4.923   3.174   1.231
  204TIP3   OH2  554   2.694   7.314   6.348
  204TIP3    H1  555   2.676   7.282   6.260
  204TIP3    H2  556   2.782   7.350   6.344
  205TIP3   OH2  557   1.019   7.411   3.518
  205TIP3    H1  558   1.073   7.338   3.488
  205TIP3    H2  559   1.075   7.488   3.505
  206TIP3   OH2  560   6.755   3.258   4.391
  206TIP3    H1  561   6.813   3.228   4.322
  206TIP3    H2  562   6.723   3.178   4.433
  207TIP3   OH2  563   7.302   1.419   6.043
  207TIP3    H1  564   7.245   1.449   6.114
  207TIP3    H2  565   7.253   1.437   5.963
  208TIP3   OH2  566   2.201   7.174   3.878
  208TIP3    H1  567   2.287   7.168   3.920
  208TIP3    H2  568   2.156   7.093   3.905
  209TIP3   OH2  569   4.062   1.796   3.679
  209TIP3    H1  570   4.146   1.803   3.725
  209TIP3    H2  571   4.005   1.749   3.740
  210TIP3   OH2  572   1.628   4.617   4.982
  210TIP3    H1  573   1.605   4.705   5.012
  210TIP3    H2  574   1.672   4.576   5.057
  211TIP3   OH2  575   3.456   1.672   6.737
  211TIP3    H1  576   3.366   1.665   6.706
  211TIP3    H2  577   3.488   1.753   6.698
  212TIP3   OH2  578   6.295   0.194   6.098
  212TIP3    H1  579   6.317   0.257   6.167
  212TIP3    H2  580   6.313   0.241   6.017
  213TIP3   OH2  581   7.315   4.070   2.921
  213TIP3    H1  582   7.262   4.138   2.962
  213TIP3    H2  583   7.300   3.992   2.974
  214TIP3   OH2  584   4.075   3.419   0.987
  214TIP3    H1  585   4.107   3.386   1.071
  214TIP3    H2  586   3.983   3.439   1.004
  215TIP3   OH2  587   8.094   4.895   1.692
  215TIP3    H1  588   8.072   4.960   1.626
  215TIP3    H2  589   8.181   4.921   1.722
  216TIP3   OH2  590   6.855   7.592   5.119
  216TIP3    H1  591   6.760   7.578   5.113
  216TIP3    H2  592   6.871   7.606   5.212
  217TIP3   OH2  593   6.065   4.575   6.596
  217TIP3    H1  594   6.101   4.594   6.509
  217TIP3    H2  595   6.138   4.536   6.644
  218TIP3   OH2  596   4.740   0.307   3.024
  218TIP3    H1  597   4.757   0.245   2.953
  218TIP3    H2  598   4.817   0.302   3.080
  219TIP3   OH2  599   7.280   4.462   6.717
  219TIP3    H1  600   7.225   4.528   6.759
  219TIP3    H2  601   7.227   4.429   6.645
  220TIP3   OH2  602   4.020   7.261   0.730
  220TIP3    H1  603   3.973   7.337   0.767
  220TIP3    H2  604   3.952   7.197   0.713
  221TIP3   OH2  605   5.363   0.411   3.944
  221TIP3    H1  606   5.305   0.371   3.880
  221TIP3    H2  607   5.440   0.355   3.945
  222TIP3   OH2  608   4.754   2.179   2.163
  222TIP3    H1  609   4.665   2.147   2.175
  222TIP3    H2  610   4.801   2.147   2.240
  223TIP3   OH2  611   5.117   6.749   3.892
  223TIP3    H1  612   5.074   6.729   3.809
  223TIP3    H2  613   5.181   6.678   3.905
  224TIP3   OH2  614   8.060   1.296   3.028
  224TIP3    H1  615   7.980   1.267   3.072
  224TIP3    H2  616   8.129   1.240   3.063
  225TIP3   OH2  617   1.995   3.509   1.574
  225TIP3    H1  618   1.994   3.475   1.485
  225TIP3    H2  619   1.909   3.486   1.609
  226TIP3   OH2  620   5.706   0.784   4.245
  226TIP3    H1  621   5.770   0.713   4.242
  226TIP3    H2  622   5.759   0.863   4.254
  227TIP3   OH2  623   6.122   5.874   1.056
  227TIP3    H1  624   6.195   5.858   1.116
  227TIP3    H2  625   6.164   5.892   0.972
  228TIP3   OH2  626   6.578   0.063   0.337
  228TIP3    H1  627   6.584   0.013   0.256
  228TIP3    H2  628   6.518   0.013   0.393
  229TIP3   OH2  629   3.934   2.972   2.800
  229TIP3    H1  630   3.876   3.038   2.762
  229TIP3    H2  631   3.899   2.889   2.769
  230TIP3   OH2  632   2.145   5.105   5.520
  230TIP3    H1  633   2.139   5.184   5.467
  230TIP3    H2  634   2.077   5.047   5.484
  231TIP3   OH2  635   1.351   7.030   6.054
  231TIP3    H1  636   1.433   7.074   6.075
  231TIP3    H2  637   1.376   6.956   5.999
  232TIP3   OH2  638   7.517   0.069   3.437
  232TIP3    H1  639   7.611   0.083   3.450
  232TIP3    H2  640   7.491   0.014   3.511
  233TIP3   OH2  641   0.255   4.843   4.823
  233TIP3    H1  642   0.232   4.773   4.762
  233TIP3    H2  643   0.198   4.829   4.899
  234TIP3   OH2  644   4.596   0.167   6.215
  234TIP3    H1  645   4.658   0.217   6.162
  234TIP3    H2  646   4.529   0.230   6.241
  235TIP3   OH2  647   6.583   5.039   2.983
  235TIP3    H1  648   6.592   5.133   2.966
  235TIP3    H2  649   6.499   5.015   2.943
  236TIP3   OH2  650   7.775   1.855   6.097
  236TIP3    H1  651   7.789   1.945   6.068
  236TIP3    H2  652   7.714   1.862   6.170
  237TIP3   OH2  653   3.203   3.391   5.551
  237TIP3    H1  654   3.122   3.358   5.590
  237TIP3    H2  655   3.175   3.464   5.496
  238TIP3   OH2  656   2.779   6.410   3.508
  238TIP3    H1  657   2.855   6.362   3.543
  238TIP3    H2  658   2.790   6.404   3.413
  239TIP3   OH2  659   7.293   1.519   4.396
  239TIP3    H1  660   7.332   1.560   4.319
  239TIP3    H2  661   7.222   1.577   4.423
  240TIP3   OH2  662   1.717   4.066   0.229
  240TIP3    H1  663   1.726   4.109   0.144
  240TIP3    H2  664   1.800   4.082   0.273
  241TIP3   OH2  665   5.250   4.294   2.241
  241TIP3    H1  666   5.274   4.233   2.311
  241TIP3    H2  667   5.155   4.304   2.249
  242TIP3   OH2  668   0.603   2.843   1.540
  242TIP3    H1  669   0.664   2.784   1.585
  242TIP3    H2  670   0.647   2.865   1.458
  243TIP3   OH2  671   4.005   2.281   0.933
  243TIP3    H1  672   4.059   2.287   1.012
  243TIP3    H2  673   4.015   2.190   0.904
  244TIP3   OH2  674   2.117   0.102   2.470
  244TIP3    H1  675   2.151   0.027   2.421
  244TIP3    H2  676   2.070   0.064   2.543
  245TIP3   OH2  677   5.024   6.691   4.687
  245TIP3    H1  678   4.981   6.767   4.648
  245TIP3    H2  679   4.983   6.615   4.646
  246TIP3   OH2  680   2.548   3.474   4.078
  246TIP3    H1  681   2.613   3.512   4.018
  246TIP3    H2  682   2.582   3.495   4.165
  247TIP3   OH2  683   7.256   6.985   5.228
  247TIP3    H1  684   7.281   7.074   5.203
  247TIP3    H2  685   7.261   6.934   5.147
  248TIP3   OH2  686   2.910   2.686   1.895
  248TIP3    H1  687   2.899   2.668   1.802
  248TIP3    H2  688   2.824   2.669   1.933
  249TIP3   OH2  689   1.783   5.985   1.480
  249TIP3    H1  690   1.708   5.994   1.538
  249TIP3    H2  691   1.848   6.046   1.515
  250TIP3   OH2  692   0.615   7.673   5.122
  250TIP3    H1  693   0.664   7.698   5.044
  250TIP3    H2  694   0.540   7.733   5.124
  251TIP3   OH2  695   6.113   3.450   1.213
  251TIP3    H1  696   6.150   3.538   1.214
  251TIP3    H2  697   6.126   3.419   1.123
  252TIP3   OH2  698   2.496   4.672   3.748
  252TIP3    H1  699   2.478   4.745   3.807
  252TIP3    H2  700   2.453   4.697   3.666
  253TIP3   OH2  701   3.809   1.792   4.239
  253TIP3    H1  702   3.900   1.761   4.231
  253TIP3    H2  703   3.818   1.883   4.268
  254TIP3   OH2  704   6.582   4.595   3.230
  254TIP3    H1  705   6.578   4.586   3.134
  254TIP3    H2  706   6.675   4.613   3.248
  255TIP3   OH2  707   1.638   6.109   4.656
  255TIP3    H1  708   1.680   6.029   4.624
  255TIP3    H2  709   1.654   6.173   4.587
  256TIP3   OH2  710   5.460   6.971   1.377
  256TIP3    H1  711   5.516   7.021   1.436
  256TIP3    H2  712   5.426   7.035   1.315
  257TIP3   OH2  713   3.212   0.458   5.935
  257TIP3    H1  714   3.244   0.446   5.845
  257TIP3    H2  715   3.279   0.514   5.976
  258TIP3   OH2  716   2.379   5.607   5.632
  258TIP3    H1  717   2.286   5.599   5.615
  258TIP3    H2  718   2.386   5.681   5.693
  259TIP3   OH2  719   7.169   4.701   0.941
  259TIP3    H1  720   7.210   4.754   1.009
  259TIP3    H2  721   7.199   4.612   0.960
  260TIP3   OH2  722   2.220   3.658   4.360
  260TIP3    H1  723   2.215   3.736   4.306
  260TIP3    H2  724   2.238   3.587   4.299
  261TIP3   OH2  725   5.842   2.379   0.360
  261TIP3    H1  726   5.910   2.446   0.364
  261TIP3    H2  727   5.779   2.405   0.427
  262TIP3   OH2  728   0.743   3.431   6.576
  262TIP3    H1  729   0.699   3.358   6.619
  262TIP3    H2  730   0.688   3.450   6.500
  263TIP3   OH2  731   4.364   3.111   4.537
  263TIP3    H1  732   4.289   3.058   4.565
  263TIP3    H2  733   4.333   3.158   4.459
  264TIP3   OH2  734   5.038   4.209   6.148
  264TIP3    H1  735   4.962   4.259   6.118
  264TIP3    H2  736   5.004   4.120   6.158
  265TIP3   OH2  737   3.801   5.916   3.959
  265TIP3    H1  738   3.730   5.864   3.996
  265TIP3    H2  739   3.851   5.948   4.035
  266TIP3   OH2  740   6.405   0.917   3.760
  266TIP3    H1  741   6.440   0.977   3.826
  266TIP3    H2  742   6.329   0.962   3.724
  267TIP3   OH2  743   7.436   4.596   5.148
  267TIP3    H1  744   7.477   4.591   5.062
  267TIP3    H2  745   7.506   4.573   5.209
  268TIP3   OH2  746   7.594   5.160   3.097
  268TIP3    H1  747   7.688   5.147   3.085
  268TIP3    H2  748   7.556   5.075   3.076
  269TIP3   OH2  749   6.857   6.309   0.336
  269TIP3    H1  750   6.773   6.275   0.304
  269TIP3    H2  751   6.916   6.298   0.262
  270TIP3   OH2  752   1.024   1.455   0.090
  270TIP3    H1  753   0.950   1.408   0.054
  270TIP3    H2  754   1.076   1.389   0.135
  271TIP3   OH2  755   6.661   3.352   5.522
  271TIP3    H1  756   6.720   3.347   5.446
  271TIP3    H2  757   6.656   3.261   5.553
  272TIP3   OH2  758   5.483   0.746   4.744
  272TIP3    H1  759   5.514   0.769   4.831
  272TIP3    H2  760   5.426   0.670   4.758
  273TIP3   OH2  761   7.573   3.854   2.335
  273TIP3    H1  762   7.653   3.836   2.385
  273TIP3    H2  763   7.549   3.943   2.359
  274TIP3   OH2  764   3.715   6.135   3.127
  274TIP3    H1  765   3.734   6.069   3.193
  274TIP3    H2  766   3.717   6.218   3.175
  275TIP3   OH2  767   4.066   1.772   5.947
  275TIP3    H1  768   4.154   1.781   5.910
  275TIP3    H2  769   4.048   1.857   5.988
  276TIP3   OH2  770   2.551   2.857   5.035
  276TIP3    H1  771   2.610   2.884   5.106
  276TIP3    H2  772   2.466   2.846   5.077
  277TIP3   OH2  773   8.206   0.135   3.577
  277TIP3    H1  774   8.134   0.073   3.583
  277TIP3    H2  775   8.251   0.114   3.495
  278TIP3   OH2  776   6.784   1.323   5.678
  278TIP3    H1  777   6.795   1.255   5.745
  278TIP3    H2  778   6.828   1.288   5.601
  279TIP3   OH2  779   5.053   2.270   1.715
  279TIP3    H1  780   5.032   2.194   1.770
  279TIP3    H2  781   5.058   2.343   1.776
  280TIP3   OH2  782   1.588   2.408   3.785
  280TIP3    H1  783   1.521   2.340   3.777
  280TIP3    H2  784   1.601   2.440   3.696
  281TIP3   OH2  785   0.585   6.348   6.205
  281TIP3    H1  786   0.646   6.361   6.278
  281TIP3    H2  787   0.621   6.401   6.134
  282TIP3   OH2  788   2.116   5.440   4.128
  282TIP3    H1  789   2.197   5.423   4.176
  282TIP3    H2  790   2.092   5.356   4.091
  283TIP3   OH2  791   7.986   3.508   1.061
  283TIP3    H1  792   7.976   3.599   1.090
  283TIP3    H2  793   8.074   3.504   1.023
  284TIP3   OH2  794   7.881   2.359   3.250
  284TIP3    H1  795   7.839   2.441   3.278
  284TIP3    H2  796   7.974   2.381   3.244
  285TIP3   OH2  797   3.319   4.152   0.518
  285TIP3    H1  798   3.282   4.210   0.451
  285TIP3    H2  799   3.367   4.210   0.577
  286TIP3   OH2  800   6.233   6.060   5.673
  286TIP3    H1  801   6.138   6.062   5.684
  286TIP3    H2  802   6.254   5.967   5.666
  287TIP3   OH2  803   2.155   7.369   6.470
  287TIP3    H1  804   2.225   7.318   6.430
  287TIP3    H2  805   2.133   7.321   6.550
  288TIP3   OH2  806   5.806   3.948   5.056
  288TIP3    H1  807   5.778   4.010   5.124
  288TIP3    H2  808   5.886   3.908   5.091
  289TIP3   OH2  809   3.207   3.206   6.352
  289TIP3    H1  810   3.239   3.222   6.263
  289TIP3    H2  811   3.172   3.117   6.349
  290TIP3   OH2  812   5.971   5.356   3.639
  290TIP3    H1  813   6.051   5.325   3.596
  290TIP3    H2  814   5.933   5.419   3.578
  291TIP3   OH2  815   3.607   1.133   6.709
  291TIP3    H1  816   3.548   1.208   6.708
  291TIP3    H2  817   3.567   1.072   6.772
  292TIP3   OH2  818   0.454   0.390   4.711
  292TIP3    H1  819   0.491   0.478   4.720
  292TIP3    H2  820   0.373   0.393   4.762
  293TIP3   OH2  821   0.126   5.305   2.205
  293TIP3    H1  822   0.211   5.269   2.181
  293TIP3    H2  823   0.110   5.374   2.140
  294TIP3   OH2  824   6.724   2.229   6.756
  294TIP3    H1  825   6.731   2.144   6.798
  294TIP3    H2  826   6.799   2.232   6.696
  295TIP3   OH2  827   4.558   0.495   4.340
  295TIP3    H1  828   4.599   0.442   4.271
  295TIP3    H2  829   4.627   0.553   4.370
  296TIP3   OH2  830   4.875   0.454   2.719
  296TIP3    H1  831   4.945   0.431   2.779
  296TIP3    H2  832   4.919   0.498   2.646
  297TIP3   OH2  833   4.912   0.568   2.248
  297TIP3    H1  834   4.872   0.571   2.161
  297TIP3    H2  835   4.960   0.485   2.249
  298TIP3   OH2  836   3.710   5.547   4.999
  298TIP3    H1  837   3.768   5.611   5.039
  298TIP3    H2  838   3.717   5.564   4.905
  299TIP3   OH2  839   4.856   4.612   2.669
  299TIP3    H1  840   4.785   4.648   2.722
  299TIP3    H2  841   4.814   4.545   2.615
  300TIP3   OH2  842   0.409   7.025   4.107
  300TIP3    H1  843   0.357   7.095   4.066
  300TIP3    H2  844   0.495   7.031   4.066
  301TIP3   OH2  845   5.526   4.937   5.821
  301TIP3    H1  846   5.475   4.945   5.902
  301TIP3    H2  847   5.540   4.843   5.811
  302TIP3   OH2  848   0.203   1.354   6.576
  302TIP3    H1  849   0.297   1.347   6.562
  302TIP3    H2  850   0.184   1.291   6.646
  303TIP3   OH2  851   4.280   5.806   5.968
  303TIP3    H1  852   4.219   5.783   6.037
  303TIP3    H2  853   4.367   5.799   6.009
  304TIP3   OH2  854   2.956   2.354   1.140
  304TIP3    H1  855   2.960   2.420   1.070
  304TIP3    H2  856   2.895   2.391   1.204
  305TIP3   OH2  857   2.547   0.562   1.561
  305TIP3    H1  858   2.479   0.629   1.571
  305TIP3    H2  859   2.607   0.577   1.634
  306TIP3   OH2  860   7.676   1.467   0.331
  306TIP3    H1  861   7.709   1.555   0.348
  306TIP3    H2  862   7.676   1.425   0.417
  307TIP3   OH2  863   1.959   4.357   6.360
  307TIP3    H1  864   1.997   4.344   6.273
  307TIP3    H2  865   1.937   4.451   6.362
  308TIP3   OH2  866   6.962   4.934   4.860
  308TIP3    H1  867   6.900   4.975   4.799
  308TIP3    H2  868   6.944   4.840   4.852
  309TIP3   OH2  869   2.128   7.393   1.487
  309TIP3    H1  870   2.127   7.381   1.581
  309TIP3    H2  871   2.073   7.470   1.472
  310TIP3   OH2  872   7.550   4.903   2.996
  310TIP3    H1  873   7.615   4.833   2.989
  310TIP3    H2  874   7.473   4.862   3.035
  311TIP3   OH2  875   1.479   5.005   1.777
  311TIP3    H1  876   1.520   5.091   1.786
  311TIP3    H2  877   1.546   4.951   1.734
  312TIP3   OH2  878   1.092   1.764   3.746
  312TIP3    H1  879   1.036   1.694   3.713
  312TIP3    H2  880   1.118   1.734   3.834
  313TIP3   OH2  881   2.601   5.240   2.301
  313TIP3    H1  882   2.683   5.205   2.264
  313TIP3    H2  883   2.629   5.283   2.382
  314TIP3   OH2  884   8.122   0.123   5.702
  314TIP3    H1  885   8.202   0.086   5.665
  314TIP3    H2  886   8.076   0.048   5.740
  315TIP3   OH2  887   3.835   3.614   0.728
  315TIP3    H1  888   3.763   3.677   0.724
  315TIP3    H2  889   3.897   3.644   0.661
  316TIP3   OH2  890   4.428   3.042   5.738
  316TIP3    H1  891   4.400   3.092   5.815
  316TIP3    H2  892   4.347   3.007   5.702
  317TIP3   OH2  893   3.106   4.536   5.913
  317TIP3    H1  894   3.168   4.497   5.850
  317TIP3    H2  895   3.118   4.630   5.903
  318TIP3   OH2  896   6.032   0.507   0.452
  318TIP3    H1  897   6.102   0.570   0.430
  318TIP3    H2  898   5.962   0.527   0.390
  319TIP3   OH2  899   4.933   5.865   6.055
  319TIP3    H1  900   4.916   5.950   6.095
  319TIP3    H2  901   4.942   5.884   5.961
  320TIP3   OH2  902   7.457   6.391   4.442
  320TIP3    H1  903   7.446   6.317   4.501
  320TIP3    H2  904   7.539   6.373   4.395
  321TIP3   OH2  905   8.132   0.484   2.059
  321TIP3    H1  906   8.210   0.503   2.112
  321TIP3    H2  907   8.127   0.388   2.057
  322TIP3   OH2  908   6.893   0.469   5.048
  322TIP3    H1  909   6.945   0.512   5.116
  322TIP3    H2  910   6.825   0.533   5.026
  323TIP3   OH2  911   3.468   5.356   3.429
  323TIP3    H1  912   3.485   5.353   3.335
  323TIP3    H2  913   3.509   5.277   3.464
  324TIP3   OH2  914   6.471   3.231   3.116
  324TIP3    H1  915   6.490   3.138   3.113
  324TIP3    H2  916   6.470   3.259   3.025
  325TIP3   OH2  917   3.462   3.302   0.621
  325TIP3    H1  918   3.491   3.383   0.661
  325TIP3    H2  919   3.461   3.239   0.693
  326TIP3   OH2  920   7.639   1.695   0.159
  326TIP3    H1  921   7.574   1.628   0.180
  326TIP3    H2  922   7.595   1.751   0.095
  327TIP3   OH2  923   1.518   0.328   2.921
  327TIP3    H1  924   1.557   0.256   2.871
  327TIP3    H2  925   1.490   0.287   3.003
  328TIP3   OH2  926   1.336   0.251   2.429
  328TIP3    H1  927   1.357   0.311   2.501
  328TIP3    H2  928   1.340   0.305   2.350
  329TIP3   OH2  929   3.558   0.612   0.211
  329TIP3    H1  930   3.500   0.536   0.203
  329TIP3    H2  931   3.635   0.589   0.158
  330TIP3   OH2  932   6.380   1.968   4.132
  330TIP3    H1  933   6.356   1.935   4.045
  330TIP3    H2  934   6.437   2.043   4.114
  331TIP3   OH2  935   8.155   7.319   6.471
  331TIP3    H1  936   8.168   7.228   6.497
  331TIP3    H2  937   8.169   7.369   6.551
  332TIP3   OH2  938   7.517   1.544   6.412
  332TIP3    H1  939   7.514   1.452   6.438
  332TIP3    H2  940   7.609   1.567   6.419
  333TIP3   OH2  941   6.328   5.791   2.475
  333TIP3    H1  942   6.313   5.700   2.448
  333TIP3    H2  943   6.318   5.842   2.394
  334TIP3   OH2  944   5.629   1.927   1.594
  334TIP3    H1  945   5.622   1.855   1.532
  334TIP3    H2  946   5.616   2.006   1.541
  335TIP3   OH2  947   2.640   4.752   5.510
  335TIP3    H1  948   2.735   4.744   5.499
  335TIP3    H2  949   2.623   4.846   5.502
  336TIP3   OH2  950   6.213   1.753   4.854
  336TIP3    H1  951   6.214   1.766   4.759
  336TIP3    H2  952   6.147   1.686   4.868
  337TIP3   OH2  953   0.853   6.502   1.587
  337TIP3    H1  954   0.815   6.590   1.582
  337TIP3    H2  955   0.922   6.502   1.520
  338TIP3   OH2  956   3.368   7.175   2.545
  338TIP3    H1  957   3.275   7.200   2.540
  338TIP3    H2  958   3.400   7.222   2.622
  339TIP3   OH2  959   7.902   7.533   2.130
  339TIP3    H1  960   7.991   7.502   2.115
  339TIP3    H2  961   7.913   7.612   2.183
  340TIP3   OH2  962   7.101   6.082   2.177
  340TIP3    H1  963   7.175   6.142   2.187
  340TIP3    H2  964   7.139   6.007   2.131
  341TIP3   OH2  965   0.118   5.887   6.594
  341TIP3    H1  966   0.045   5.857   6.647
  341TIP3    H2  967   0.119   5.828   6.519
  342TIP3   OH2  968   7.222   5.645   6.603
  342TIP3    H1  969   7.289   5.628   6.537
  342TIP3    H2  970   7.217   5.565   6.654
  343TIP3   OH2  971  -0.012   1.114   6.461
  343TIP3    H1  972   0.079   1.090   6.448
  343TIP3    H2  973  -0.011   1.210   6.463
  344TIP3   OH2  974   4.610   3.260   0.540
  344TIP3    H1  975   4.704   3.262   0.520
  344TIP3    H2  976   4.606   3.236   0.633
  345TIP3   OH2  977   6.972   2.663   1.858
  345TIP3    H1  978   6.908   2.723   1.819
  345TIP3    H2  979   6.940   2.649   1.947
  346TIP3   OH2  980   1.783   2.805   5.668
  346TIP3    H1  981   1.869   2.770   5.648
  346TIP3    H2  982   1.726   2.728   5.673
  347TIP3   OH2  983   4.884   3.121   2.306
  347TIP3    H1  984   4.801   3.166   2.291
  347TIP3    H2  985   4.877   3.040   2.256
  348TIP3   OH2  986   4.890   1.155   6.039
  348TIP3    H1  987   4.980   1.158   6.072
  348TIP3    H2  988   4.846   1.228   6.081
  349TIP3   OH2  989   0.140   3.240   1.514
  349TIP3    H1  990   0.171   3.292   1.589
  349TIP3    H2  991   0.210   3.177   1.498
  350TIP3   OH2  992   0.187   6.983   5.162
  350TIP3    H1  993   0.132   6.917   5.119
  350TIP3    H2  994   0.261   6.933   5.196
  351TIP3   OH2  995   6.731   7.637   4.326
  351TIP3    H1  996   6.659   7.606   4.382
  351TIP3    H2  997   6.806   7.642   4.385
  352TIP3   OH2  998   7.642   5.129   5.927
  352TIP3    H1  999   7.548   5.150   5.921
  352TIP3    H2 1000   7.669   5.161   6.013
  353TIP3   OH2 1001   1.699   5.680   6.667
  353TIP3    H1 1002   1.642   5.608   6.696
  353TIP3    H2 1003   1.644   5.731   6.608
  354TIP3   OH2 1004   1.099   6.186   2.476
  354TIP3    H1 1005   1.066   6.250   2.538
  354TIP3    H2 1006   1.153   6.236   2.415
  355TIP3   OH2 1007   7.017   1.468   2.126
  355TIP3    H1 1008   7.051   1.464   2.037
  355TIP3    H2 1009   6.922   1.475   2.115
  356TIP3   OH2 1010   8.071   2.281   2.442
  356TIP3    H1 1011   8.116   2.202   2.472
  356TIP3    H2 1012   8.140   2.333   2.400
  357TIP3   OH2 1013   6.869   7.426   4.893
  357TIP3    H1 1014   6.893   7.467   4.976
  357TIP3    H2 1015   6.798   7.366   4.916
  358TIP3   OH2 1016   3.161   4.731   2.574
  358TIP3    H1 1017   3.236   4.789   2.588
  358TIP3    H2 1018   3.099   4.756   2.642
  359TIP3   OH2 1019   2.730   1.028   2.055
  359TIP3    H1 1020   2.820   1.024   2.021
  359TIP3    H2 1021   2.723   1.114   2.096
  360TIP3   OH2 1022   1.267   2.517   4.663
  360TIP3    H1 1023   1.172   2.517   4.673
  360TIP3    H2 1024   1.284   2.587   4.600
  361TIP3   OH2 1025   5.728   2.428   0.635
  361TIP3    H1 1026   5.639   2.456   0.613
  361TIP3    H2 1027   5.716   2.359   0.700
  362TIP3   OH2 1028   5.060   3.369   5.081
  362TIP3    H1 1029   5.150   3.343   5.060
  362TIP3    H2 1030   5.006   3.296   5.049
  363TIP3   OH2 1031   3.822   3.248   4.798
  363TIP3    H1 1032   3.744   3.304   4.806
  363TIP3    H2 1033   3.887   3.290   4.854
  364TIP3   OH2 1034   4.927   5.412   1.954
  364TIP3    H1 1035   4.841   5.453   1.956
  364TIP3    H2 1036   4.912   5.321   1.980
  365TIP3   OH2 1037   2.572   5.982   0.330
  365TIP3    H1 1038   2.551   5.896   0.369
  365TIP3    H2 1039   2.492   6.033   0.343
  366TIP3   OH2 1040   2.029   0.327   1.121
  366TIP3    H1 1041   2.059   0.300   1.034
  366TIP3    H2 1042   2.106   0.319   1.177
  367TIP3   OH2 1043   1.507   6.303   2.910
  367TIP3    H1 1044   1.473   6.366   2.974
  367TIP3    H2 1045   1.532   6.357   2.834
  368TIP3   OH2 1046   8.088   3.930   5.088
  368TIP3    H1 1047   8.011   3.941   5.143
  368TIP3    H2 1048   8.156   3.980   5.132
  369TIP3   OH2 1049   4.212   5.999   2.047
  369TIP3    H1 1050   4.151   5.927   2.064
  369TIP3    H2 1051   4.275   5.962   1.985
  370TIP3   OH2 1052   6.524   2.890   5.311
  370TIP3    H1 1053   6.528   2.849   5.397
  370TIP3    H2 1054   6.452   2.846   5.266
  371TIP3   OH2 1055   3.381   0.399   1.675
  371TIP3    H1 1056   3.426   0.376   1.756
  371TIP3    H2 1057   3.290   0.413   1.702
  372TIP3   OH2 1058   6.885   0.203   4.004
  372TIP3    H1 1059   6.856   0.125   3.958
  372TIP3    H2 1060   6.981   0.200   3.998
  373TIP3   OH2 1061   2.210   1.220   6.319
  373TIP3    H1 1062   2.213   1.315   6.311
  373TIP3    H2 1063   2.172   1.189   6.237
  374TIP3   OH2 1064   2.218   0.870   5.208
  374TIP3    H1 1065   2.276   0.944   5.190
  374TIP3    H2 1066   2.253   0.831   5.288
  375TIP3   OH2 1067   1.834   4.666   1.452
  375TIP3    H1 1068   1.872   4.681   1.366
  375TIP3    H2 1069   1.838   4.571   1.464
  376TIP3   OH2 1070   7.051   7.560   3.832
  376TIP3    H1 1071   7.134   7.514   3.837
  376TIP3    H2 1072   7.005   7.537   3.913
  377TIP3   OH2 1073   1.110   2.080   3.736
  377TIP3    H1 1074   1.141   2.100   3.648
  377TIP3    H2 1075   1.112   1.984   3.741
  378TIP3   OH2 1076   7.719   7.343   1.857
  378TIP3    H1 1077   7.745   7.303   1.940
  378TIP3    H2 1078   7.652   7.407   1.881
  379TIP3   OH2 1079   5.865   0.907   6.491
  379TIP3    H1 1080   5.928   0.961   6.444
  379TIP3    H2 1081   5.894   0.817   6.476
  380TIP3   OH2 1082   6.871   3.509   1.401
  380TIP3    H1 1083   6.791   3.552   1.372
  380TIP3    H2 1084   6.939   3.542   1.343
  381TIP3   OH2 1085   4.261   3.937   4.440
  381TIP3    H1 1086   4.312   3.856   4.446
  381TIP3    H2 1087   4.170   3.909   4.449
  382TIP3   OH2 1088   1.703   4.744   1.990
  382TIP3    H1 1089   1.756   4.783   1.921
  382TIP3    H2 1090   1.684   4.655   1.959
  383TIP3   OH2 1091   7.129   1.880   2.735
  383TIP3    H1 1092   7.058   1.870   2.671
  383TIP3    H2 1093   7.209   1.874   2.682
  384TIP3   OH2 1094   4.602   3.570   1.312
  384TIP3    H1 1095   4.522   3.595   1.357
  384TIP3    H2 1096   4.636   3.496   1.362
  385TIP3   OH2 1097   7.676   7.470   4.916
  385TIP3    H1 1098   7.677   7.531   4.990
  385TIP3    H2 1099   7.598   7.495   4.866
  386TIP3   OH2 1100   3.531   4.510   6.203
  386TIP3    H1 1101   3.545   4.497   6.297
  386TIP3    H2 1102   3.608   4.560   6.174
  387TIP3   OH2 1103   3.994   3.719   0.544
  387TIP3    H1 1104   3.954   3.687   0.463
  387TIP3    H2 1105   4.084   3.685   0.541
  388TIP3   OH2 1106   7.176   0.022   1.840
  388TIP3    H1 1107   7.163   0.050   1.749
  388TIP3    H2 1108   7.201   0.101   1.887
  389TIP3   OH2 1109   4.773   4.848   0.035
  389TIP3    H1 1110   4.751   4.902   0.111
  389TIP3    H2 1111   4.759   4.905  -0.041
  390TIP3   OH2 1112   1.381   1.732   2.822
  390TIP3    H1 1113   1.456   1.695   2.868
  390TIP3    H2 1114   1.396   1.827   2.823
  391TIP3   OH2 1115   1.372   4.572   4.399
  391TIP3    H1 1116   1.440   4.629   4.362
  391TIP3    H2 1117   1.289   4.610   4.368
  392TIP3   OH2 1118   5.901   3.818   2.322
  392TIP3    H1 1119   5.905   3.808   2.417
  392TIP3    H2 1120   5.902   3.913   2.308
  393TIP3   OH2 1121   7.092   7.539   6.458
  393TIP3    H1 1122   7.185   7.559   6.465
  393TIP3    H2 1123   7.080   7.460   6.511
  394TIP3   OH2 1124   5.423   2.801   4.979
  394TIP3    H1 1125   5.477   2.751   5.040
  394TIP3    H2 1126   5.338   2.757   4.980
  395TIP3   OH2 1127   5.127   3.869   4.275
  395TIP3    H1 1128   5.171   3.816   4.341
  395TIP3    H2 1129   5.108   3.808   4.204
  396TIP3   OH2 1130   5.004   2.350   6.263
  396TIP3    H1 1131   4.978   2.351   6.171
  396TIP3    H2 1132   5.078   2.411   6.268
  397TIP3   OH2 1133   0.435   0.261   5.864
  397TIP3    H1 1134   0.530   0.253   5.855
  397TIP3    H2 1135   0.407   0.174   5.894
  398TIP3   OH2 1136   3.660   2.270   1.599
  398TIP3    H1 1137   3.671   2.221   1.518
  398TIP3    H2 1138   3.635   2.205   1.664
  399TIP3   OH2 1139   0.747   2.620   4.645
  399TIP3    H1 1140   0.733   2.656   4.557
  399TIP3    H2 1141   0.680   2.553   4.655
  400TIP3   OH2 1142   8.298   2.715   3.389
  400TIP3    H1 1143   8.299   2.792   3.333
  400TIP3    H2 1144   8.214   2.719   3.435
  401TIP3   OH2 1145   6.425   3.752   4.994
  401TIP3    H1 1146   6.346   3.747   4.939
  401TIP3    H2 1147   6.420   3.676   5.051
  402TIP3   OH2 1148   8.240   0.792   5.311
  402TIP3    H1 1149   8.266   0.702   5.293
  402TIP3    H2 1150   8.149   0.786   5.340
  403TIP3   OH2 1151   7.765   3.586   2.723
  403TIP3    H1 1152   7.810   3.502   2.728
  403TIP3    H2 1153   7.810   3.634   2.653
  404TIP3   OH2 1154   6.275   1.216   1.482
  404TIP3    H1 1155   6.194   1.178   1.515
  404TIP3    H2 1156   6.281   1.184   1.392
  405TIP3   OH2 1157   0.289   5.648   0.267
  405TIP3    H1 1158   0.200   5.621   0.290
  405TIP3    H2 1159   0.314   5.710   0.335
  406TIP3   OH2 1160   1.265   7.222   4.351
  406TIP3    H1 1161   1.285   7.218   4.444
  406TIP3    H2 1162   1.337   7.175   4.308
  407TIP3   OH2 1163   1.873   5.100   3.769
  407TIP3    H1 1164   1.780   5.092   3.790
  407TIP3    H2 1165   1.917   5.045   3.834
  408TIP3   OH2 1166   0.712   4.595   2.251
  408TIP3    H1 1167   0.728   4.609   2.158
  408TIP3    H2 1168   0.788   4.544   2.281
  409TIP3   OH2 1169   6.941   4.841   0.870
  409TIP3    H1 1170   7.013   4.780   0.887
  409TIP3    H2 1171   6.866   4.804   0.917
  410TIP3   OH2 1172   5.457   5.778   2.119
  410TIP3    H1 1173   5.425   5.748   2.034
  410TIP3    H2 1174   5.537   5.827   2.099
  411TIP3   OH2 1175   0.068   4.835   4.347
  411TIP3    H1 1176   0.071   4.928   4.370
  411TIP3    H2 1177   0.066   4.835   4.251
  412TIP3   OH2 1178   6.007   5.391   0.280
  412TIP3    H1 1179   5.944   5.457   0.312
  412TIP3    H2 1180   6.026   5.338   0.357
  413TIP3   OH2 1181   3.518   2.412  -0.013
  413TIP3    H1 1182   3.516   2.320  -0.041
  413TIP3    H2 1183   3.575   2.411   0.065
  414TIP3   OH2 1184   4.415   3.983   6.581
  414TIP3    H1 1185   4.496   4.031   6.561
  414TIP3    H2 1186   4.376   4.031   6.654
  415TIP3   OH2 1187   2.584   1.911   1.839
  415TIP3    H1 1188   2.599   1.905   1.933
  415TIP3    H2 1189   2.493   1.942   1.832
  416TIP3   OH2 1190   6.935   2.040   6.501
  416TIP3    H1 1191   6.930   2.120   6.553
  416TIP3    H2 1192   7.022   2.005   6.519
  417TIP3   OH2 1193   0.658   2.386   2.359
  417TIP3    H1 1194   0.618   2.456   2.409
  417TIP3    H2 1195   0.602   2.310   2.373
  418TIP3   OH2 1196   4.428   1.088   5.974
  418TIP3    H1 1197   4.483   1.137   5.913
  418TIP3    H2 1198   4.404   1.009   5.926
  419TIP3   OH2 1199   1.138   4.235   5.004
  419TIP3    H1 1200   1.121   4.144   5.031
  419TIP3    H2 1201   1.052   4.275   4.999
  420TIP3   OH2 1202   4.624   0.571   2.984
  420TIP3    H1 1203   4.675   0.491   2.973
  420TIP3    H2 1204   4.554   0.563   2.919
  421TIP3   OH2 1205   3.297   0.379   0.408
  421TIP3    H1 1206   3.228   0.339   0.461
  421TIP3    H2 1207   3.346   0.306   0.371
  422TIP3   OH2 1208   0.696   0.431   4.963
  422TIP3    H1 1209   0.698   0.516   4.919
  422TIP3    H2 1210   0.605   0.403   4.958
  423TIP3   OH2 1211   0.709   6.958   2.170
  423TIP3    H1 1212   0.698   7.030   2.231
  423TIP3    H2 1213   0.702   6.998   2.083
  424TIP3   OH2 1214   4.839   1.172   5.788
  424TIP3    H1 1215   4.867   1.179   5.879
  424TIP3    H2 1216   4.920   1.175   5.737
  425TIP3   OH2 1217   4.040   2.526   0.083
  425TIP3    H1 1218   3.998   2.590   0.026
  425TIP3    H2 1219   4.116   2.571   0.118
  426TIP3   OH2 1220   5.803   6.390   1.594
  426TIP3    H1 1221   5.798   6.304   1.636
  426TIP3    H2 1222   5.864   6.377   1.521
  427TIP3   OH2 1223   1.976   0.122   5.126
  427TIP3    H1 1224   1.887   0.106   5.160
  427TIP3    H2 1225   1.981   0.217   5.117
  428TIP3   OH2 1226   7.428   5.043   4.131
  428TIP3    H1 1227   7.428   5.124   4.181
  428TIP3    H2 1228   7.506   4.996   4.160
  429TIP3   OH2 1229   6.569   7.546   5.451
  429TIP3    H1 1230   6.544   7.454   5.447
  429TIP3    H2 1231   6.647   7.548   5.506
  430TIP3   OH2 1232   4.082   0.210   6.538
  430TIP3    H1 1233   4.022   0.178   6.470
  430TIP3    H2 1234   4.164   0.225   6.492
  431TIP3   OH2 1235   7.724   4.581   4.100
  431TIP3    H1 1236   7.709   4.497   4.143
  431TIP3    H2 1237   7.817   4.582   4.080
  432TIP3   OH2 1238   5.600   1.077   5.333
  432TIP3    H1 1239   5.663   1.042   5.395
  432TIP3    H2 1240   5.597   1.171   5.352
  433TIP3   OH2 1241   6.275   6.572   3.424
  433TIP3    H1 1242   6.283   6.553   3.517
  433TIP3    H2 1243   6.258   6.487   3.383
  434TIP3   OH2 1244   4.730   2.324   1.642
  434TIP3    H1 1245   4.642   2.290   1.624
  434TIP3    H2 1246   4.747   2.301   1.733
  435TIP3   OH2 1247   5.795   7.718   4.872
  435TIP3    H1 1248   5.731   7.770   4.823
  435TIP3    H2 1249   5.859   7.781   4.903
  436TIP3   OH2 1250   7.777   6.772   0.600
  436TIP3    H1 1251   7.809   6.714   0.531
  436TIP3    H2 1252   7.747   6.712   0.669
  437TIP3   OH2 1253   5.641   1.543   1.189
  437TIP3    H1 1254   5.713   1.542   1.125
  437TIP3    H2 1255   5.588   1.618   1.162
  438TIP3   OH2 1256   5.519   1.786   3.904
  438TIP3    H1 1257   5.530   1.790   3.999
  438TIP3    H2 1258   5.510   1.693   3.885
  439TIP3   OH2 1259   2.511   5.093   0.033
  439TIP3    H1 1260   2.546   5.072  -0.053
  439TIP3    H2 1261   2.499   5.008   0.076
  440TIP3   OH2 1262   3.813   7.674   1.240
  440TIP3    H1 1263   3.884   7.738   1.242
  440TIP3    H2 1264   3.856   7.590   1.250
  441TIP3   OH2 1265   3.893   0.824   2.841
  441TIP3    H1 1266   3.813   0.773   2.829
  441TIP3    H2 1267   3.951   0.792   2.771
  442TIP3   OH2 1268   7.095   3.841   0.905
  442TIP3    H1 1269   7.173   3.785   0.911
  442TIP3    H2 1270   7.072   3.840   0.812
  443TIP3   OH2 1271   2.943   1.945   3.759
  443TIP3    H1 1272   2.903   2.021   3.800
  443TIP3    H2 1273   2.955   1.882   3.830
  444TIP3   OH2 1274   6.601   7.143   3.094
  444TIP3    H1 1275   6.684   7.190   3.099
  444TIP3    H2 1276   6.600   7.105   3.006
  445TIP3   OH2 1277   5.516   6.336   1.930
  445TIP3    H1 1278   5.587   6.399   1.940
  445TIP3    H2 1279   5.438   6.390   1.914
  446TIP3   OH2 1280   2.875   0.712   6.476
  446TIP3    H1 1281   2.928   0.638   6.446
  446TIP3    H2 1282   2.875   0.773   6.402
  447TIP3   OH2 1283   5.577   7.250   2.974
  447TIP3    H1 1284   5.486   7.252   2.946
  447TIP3    H2 1285   5.573   7.257   3.069
  448TIP3   OH2 1286   2.481   0.694   3.935
  448TIP3    H1 1287   2.566   0.655   3.954
  448TIP3    H2 1288   2.490   0.786   3.960
  449TIP3   OH2 1289   6.161   6.199   5.362
  449TIP3    H1 1290   6.146   6.283   5.405
  449TIP3    H2 1291   6.076   6.174   5.327
  450TIP3   OH2 1292   8.305   5.855   6.350
  450TIP3    H1 1293   8.325   5.946   6.329
  450TIP3    H2 1294   8.211   5.854   6.366
  451TIP3   OH2 1295   4.304   5.737   4.797
  451TIP3    H1 1296   4.353   5.740   4.879
  451TIP3    H2 1297   4.230   5.679   4.814
  452TIP3   OH2 1298   5.741   4.269   1.814
  452TIP3    H1 1299   5.647   4.281   1.800
  452TIP3    H2 1300   5.763   4.189   1.765
  453TIP3   OH2 1301   2.988   1.897   1.877
  453TIP3    H1 1302   2.956   1.868   1.962
  453TIP3    H2 1303   2.934   1.972   1.855
  454TIP3   OH2 1304   2.871   1.292   6.610
  454TIP3    H1 1305   2.958   1.255   6.624
  454TIP3    H2 1306   2.876   1.333   6.524
  455TIP3   OH2 1307   1.387   5.669   2.858
  455TIP3    H1 1308   1.323   5.718   2.806
  455TIP3    H2 1309   1.422   5.733   2.919
  456TIP3   OH2 1310   2.885   7.230   0.628
  456TIP3    H1 1311   2.905   7.291   0.698
  456TIP3    H2 1312   2.883   7.284   0.549
  457TIP3   OH2 1313   5.887   6.969   4.847
  457TIP3    H1 1314   5.878   7.062   4.864
  457TIP3    H2 1315   5.925   6.964   4.759
  458TIP3   OH2 1316   0.850   5.322   1.022
  458TIP3    H1 1317   0.756   5.329   1.039
  458TIP3    H2 1318   0.888   5.305   1.107
  459TIP3   OH2 1319   6.784   6.886   1.551
  459TIP3    H1 1320   6.774   6.933   1.634
  459TIP3    H2 1321   6.826   6.949   1.492
  460TIP3   OH2 1322   7.853   0.140   1.953
  460TIP3    H1 1323   7.874   0.120   1.862
  460TIP3    H2 1324   7.776   0.086   1.973
  461TIP3   OH2 1325   2.882   4.035   3.703
  461TIP3    H1 1326   2.907   3.997   3.787
  461TIP3    H2 1327   2.965   4.058   3.661
  462TIP3   OH2 1328   2.811   2.211   5.586
  462TIP3    H1 1329   2.723   2.247   5.595
  462TIP3    H2 1330   2.815   2.181   5.495
  463TIP3   OH2 1331   3.892   4.447   6.215
  463TIP3    H1 1332   3.931   4.492   6.289
  463TIP3    H2 1333   3.839   4.514   6.171
  464TIP3   OH2 1334   7.109   5.765   2.235
  464TIP3    H1 1335   7.121   5.784   2.142
  464TIP3    H2 1336   7.198   5.755   2.269
  465TIP3   OH2 1337   3.789   1.428   2.631
  465TIP3    H1 1338   3.823   1.386   2.552
  465TIP3    H2 1339   3.705   1.386   2.647
  466TIP3   OH2 1340   6.827   2.783   0.288
  466TIP3    H1 1341   6.887   2.726   0.336
  466TIP3    H2 1342   6.805   2.853   0.350
  467TIP3   OH2 1343   7.235   6.129   0.826
  467TIP3    H1 1344   7.309   6.069   0.817
  467TIP3    H2 1345   7.188   6.121   0.742
  468TIP3   OH2 1346   0.532   4.646   4.422
  468TIP3    H1 1347   0.454   4.612   4.466
  468TIP3    H2 1348   0.536   4.737   4.448
  469TIP3   OH2 1349   3.200   3.165   4.959
  469TIP3    H1 1350   3.260   3.222   5.006
  469TIP3    H2 1351   3.215   3.078   4.997
  470TIP3   OH2 1352   1.653   3.641   2.977
  470TIP3    H1 1353   1.710   3.659   2.903
  470TIP3    H2 1354   1.584   3.707   2.971
  471TIP3   OH2 1355   4.261   3.468   5.825
  471TIP3    H1 1356   4.257   3.442   5.733
  471TIP3    H2 1357   4.287   3.389   5.871
  472TIP3   OH2 1358   4.638   4.478   5.605
  472TIP3    H1 1359   4.699   4.549   5.627
  472TIP3    H2 1360   4.671   4.402   5.653
  473TIP3   OH2 1361   3.003   2.660   3.080
  473TIP3    H1 1362   3.081   2.705   3.050
  473TIP3    H2 1363   3.005   2.575   3.036
  474TIP3   OH2 1364   5.916   7.540   1.601
  474TIP3    H1 1365   5.957   7.533   1.688
  474TIP3    H2 1366   5.951   7.465   1.553
  475TIP3   OH2 1367   2.477   4.067   4.332
  475TIP3    H1 1368   2.426   4.139   4.295
  475TIP3    H2 1369   2.433   4.048   4.415
  476TIP3   OH2 1370   5.589   6.514   1.047
  476TIP3    H1 1371   5.522   6.445   1.046
  476TIP3    H2 1372   5.669   6.468   1.073
  477TIP3   OH2 1373   8.163   2.265   4.750
  477TIP3    H1 1374   8.174   2.345   4.698
  477TIP3    H2 1375   8.089   2.220   4.710
  478TIP3   OH2 1376   6.993   4.018   2.079
  478TIP3    H1 1377   6.908   3.988   2.111
  478TIP3    H2 1378   7.036   3.940   2.045
  479TIP3   OH2 1379   1.286   0.365   2.768
  479TIP3    H1 1380   1.320   0.420   2.697
  479TIP3    H2 1381   1.360   0.353   2.827
  480TIP3   OH2 1382   2.361   0.602   2.550
  480TIP3    H1 1383   2.314   0.621   2.469
  480TIP3    H2 1384   2.442   0.561   2.522
  481TIP3   OH2 1385   1.544   4.977   3.239
  481TIP3    H1 1386   1.559   4.887   3.212
  481TIP3    H2 1387   1.549   4.975   3.334
  482TIP3   OH2 1388   5.565   4.839   3.227
  482TIP3    H1 1389   5.531   4.844   3.316
  482TIP3    H2 1390   5.573   4.746   3.209
  483TIP3   OH2 1391   4.393   6.497   0.152
  483TIP3    H1 1392   4.459   6.475   0.217
  483TIP3    H2 1393   4.340   6.418   0.143
  484TIP3   OH2 1394   3.434   0.831   3.751
  484TIP3    H1 1395   3.417   0.888   3.676
  484TIP3    H2 1396   3.410   0.743   3.721
  485TIP3   OH2 1397   4.195   4.110   5.985
  485TIP3    H1 1398   4.253   4.120   6.060
  485TIP3    H2 1399   4.249   4.132   5.909
  486TIP3   OH2 1400   3.931   1.086   6.786
  486TIP3    H1 1401   3.853   1.142   6.783
  486TIP3    H2 1402   3.917   1.024   6.714
  487TIP3   OH2 1403   6.301   5.523   0.870
  487TIP3    H1 1404   6.365   5.580   0.913
  487TIP3    H2 1405   6.273   5.572   0.793
  488TIP3   OH2 1406   7.522   2.637   1.123
  488TIP3    H1 1407   7.550   2.571   1.187
  488TIP3    H2 1408   7.603   2.681   1.096
  489TIP3   OH2 1409   1.742   5.892   2.887
  489TIP3    H1 1410   1.778   5.907   2.800
  489TIP3    H2 1411   1.817   5.867   2.940
  490TIP3   OH2 1412   1.982   3.473   4.921
  490TIP3    H1 1413   1.976   3.432   4.835
  490TIP3    H2 1414   1.948   3.562   4.908
  491TIP3   OH2 1415   2.429   3.780   0.678
  491TIP3    H1 1416   2.356   3.840   0.687
  491TIP3    H2 1417   2.395   3.708   0.625
  492TIP3   OH2 1418   4.442   2.356   2.417
  492TIP3    H1 1419   4.435   2.300   2.495
  492TIP3    H2 1420   4.428   2.296   2.344
  493TIP3   OH2 1421   5.810   6.943   3.692
  493TIP3    H1 1422   5.825   6.880   3.763
  493TIP3    H2 1423   5.722   6.923   3.661
  494TIP3   OH2 1424   4.623   0.060   2.749
  494TIP3    H1 1425   4.568   0.114   2.806
  494TIP3    H2 1426   4.707   0.106   2.746
  495TIP3   OH2 1427   1.334   0.957   1.725
  495TIP3    H1 1428   1.267   1.024   1.708
  495TIP3    H2 1429   1.397   1.002   1.782
  496TIP3   OH2 1430   2.087   5.125   4.823
  496TIP3    H1 1431   2.124   5.213   4.824
  496TIP3    H2 1432   2.073   5.106   4.730
  497TIP3   OH2 1433   3.472   1.053   0.583
  497TIP3    H1 1434   3.449   0.969   0.622
  497TIP3    H2 1435   3.436   1.049   0.495
  498TIP3   OH2 1436   5.778   2.526   4.451
  498TIP3    H1 1437   5.819   2.463   4.510
  498TIP3    H2 1438   5.734   2.588   4.509
  499TIP3   OH2 1439   5.315   4.389   0.871
  499TIP3    H1 1440   5.280   4.324   0.812
  499TIP3    H2 1441   5.239   4.437   0.903
  500TIP3   OH2 1442   1.228   6.516   3.117
  500TIP3    H1 1443   1.178   6.443   3.080
  500TIP3    H2 1444   1.319   6.489   3.107
  501TIP3   OH2 1445   3.189   4.115   4.084
  501TIP3    H1 1446   3.131   4.186   4.057
  501TIP3    H2 1447   3.195   4.058   4.006
  502TIP3   OH2 1448   2.776   4.718   4.368
  502TIP3    H1 1449   2.719   4.645   4.346
  502TIP3    H2 1450   2.858   4.678   4.397
  503TIP3   OH2 1451   5.355   6.601   2.598
  503TIP3    H1 1452   5.333   6.520   2.552
  503TIP3    H2 1453   5.451   6.603   2.598
  504TIP3   OH2 1454   1.776   1.786   2.256
  504TIP3    H1 1455   1.862   1.792   2.296
  504TIP3    H2 1456   1.772   1.697   2.220
  505TIP3   OH2 1457   2.966   5.041   5.603
  505TIP3    H1 1458   3.018   5.061   5.681
  505TIP3    H2 1459   2.964   4.945   5.600
  506TIP3   OH2 1460   7.151   0.803   3.148
  506TIP3    H1 1461   7.070   0.781   3.103
  506TIP3    H2 1462   7.135   0.890   3.185
  507TIP3   OH2 1463   0.863   4.325   4.121
  507TIP3    H1 1464   0.855   4.230   4.111
  507TIP3    H2 1465   0.827   4.344   4.207
  508TIP3   OH2 1466   7.927   6.390   0.619
  508TIP3    H1 1467   7.979   6.461   0.659
  508TIP3    H2 1468   7.899   6.427   0.535
  509TIP3   OH2 1469   5.523   6.312   6.075
  509TIP3    H1 1470   5.564   6.311   6.162
  509TIP3    H2 1471   5.436   6.349   6.090
  510TIP3   OH2 1472   6.062   6.124   6.446
  510TIP3    H1 1473   6.134   6.179   6.479
  510TIP3    H2 1474   5.983   6.169   6.475
  511TIP3   OH2 1475   4.838   3.150   4.052
  511TIP3    H1 1476   4.780   3.102   4.111
  511TIP3    H2 1477   4.807   3.240   4.056
  512TIP3   OH2 1478   2.032   3.418   0.056
  512TIP3    H1 1479   1.988   3.342   0.018
  512TIP3    H2 1480   2.122   3.412   0.025
  513TIP3   OH2 1481   7.496   5.271   1.274
  513TIP3    H1 1482   7.541   5.352   1.298
  513TIP3    H2 1483   7.491   5.222   1.357
  514TIP3   OH2 1484   0.701   5.272   1.750
  514TIP3    H1 1485   0.661   5.292   1.665
  514TIP3    H2 1486   0.766   5.205   1.731
  515TIP3   OH2 1487   2.323   3.681   0.075
  515TIP3    H1 1488   2.293   3.741   0.006
  515TIP3    H2 1489   2.403   3.643   0.040
  516TIP3   OH2 1490   4.827   4.695   5.628
  516TIP3    H1 1491   4.911   4.711   5.587
  516TIP3    H2 1492   4.845   4.701   5.722
  517TIP3   OH2 1493   3.600   4.185   3.305
  517TIP3    H1 1494   3.610   4.216   3.395
  517TIP3    H2 1495   3.647   4.250   3.252
  518TIP3   OH2 1496   4.626   5.566   4.852
  518TIP3    H1 1497   4.570   5.528   4.919
  518TIP3    H2 1498   4.658   5.648   4.891
  519TIP3   OH2 1499   0.838   1.326   6.665
  519TIP3    H1 1500   0.910   1.350   6.723
  519TIP3    H2 1501   0.879   1.274   6.596
  520TIP3   OH2 1502   2.692   7.308   4.174
  520TIP3    H1 1503   2.695   7.313   4.270
  520TIP3    H2 1504   2.606   7.343   4.151
  521TIP3   OH2 1505   2.596   3.824   3.413
  521TIP3    H1 1506   2.545   3.900   3.385
  521TIP3    H2 1507   2.555   3.749   3.370
  522TIP3   OH2 1508   2.184   0.986   2.954
  522TIP3    H1 1509   2.150   0.902   2.922
  522TIP3    H2 1510   2.159   1.049   2.886
  523TIP3   OH2 1511   7.760   6.970   3.372
  523TIP3    H1 1512   7.665   6.982   3.364
  523TIP3    H2 1513   7.783   7.015   3.454
  524TIP3   OH2 1514   4.769   4.620   1.718
  524TIP3    H1 1515   4.864   4.637   1.713
  524TIP3    H2 1516   4.762   4.534   1.760
  525TIP3   OH2 1517   4.203   1.987   3.302
  525TIP3    H1 1518   4.200   2.052   3.372
  525TIP3    H2 1519   4.192   2.038   3.221
  526TIP3   OH2 1520   2.212   7.020   6.699
  526TIP3    H1 1521   2.164   6.937   6.690
  526TIP3    H2 1522   2.146   7.087   6.682
  527TIP3   OH2 1523   3.391   5.324   0.820
  527TIP3    H1 1524   3.306   5.298   0.785
  527TIP3    H2 1525   3.438   5.360   0.745
  528TIP3   OH2 1526   1.437   1.349   6.019
  528TIP3    H1 1527   1.394   1.365   6.103
  528TIP3    H2 1528   1.530   1.359   6.037
  529TIP3   OH2 1529   5.262   1.977   2.757
  529TIP3    H1 1530   5.252   2.017   2.843
  529TIP3    H2 1531   5.177   1.935   2.740
  530TIP3   OH2 1532   1.229   0.621   4.763
  530TIP3    H1 1533   1.196   0.594   4.849
  530TIP3    H2 1534   1.218   0.544   4.708
  531TIP3   OH2 1535   2.779   2.905   0.967
  531TIP3    H1 1536   2.699   2.947   1.000
  531TIP3    H2 1537   2.849   2.944   1.020
  532TIP3   OH2 1538   4.951   5.486   3.933
  532TIP3    H1 1539   4.883   5.553   3.946
  532TIP3    H2 1540   4.979   5.499   3.842
  533TIP3   OH2 1541   2.015   4.979   2.887
  533TIP3    H1 1542   1.981   4.980   2.977
  533TIP3    H2 1543   1.948   5.024   2.835
  534TIP3   OH2 1544   1.729   3.418   4.715
  534TIP3    H1 1545   1.739   3.474   4.638
  534TIP3    H2 1546   1.801   3.356   4.708
  535TIP3   OH2 1547   1.431   1.649   4.158
  535TIP3    H1 1548   1.365   1.648   4.088
  535TIP3    H2 1549   1.393   1.594   4.227
  536TIP3   OH2 1550   8.236   4.133   0.307
  536TIP3    H1 1551   8.302   4.085   0.358
  536TIP3    H2 1552   8.159   4.077   0.307
  537TIP3   OH2 1553   4.924   3.484   1.227
  537TIP3    H1 1554   4.961   3.535   1.299
  537TIP3    H2 1555   4.846   3.533   1.201
  538TIP3   OH2 1556   0.966   2.139   1.916
  538TIP3    H1 1557   0.911   2.090   1.855
  538TIP3    H2 1558   1.026   2.188   1.858
  539TIP3   OH2 1559   1.752   2.945   3.220
  539TIP3    H1 1560   1.790   2.884   3.157
  539TIP3    H2 1561   1.786   3.030   3.194
  540TIP3   OH2 1562   2.095   6.970   4.047
  540TIP3    H1 1563   2.185   6.943   4.028
  540TIP3    H2 1564   2.075   6.930   4.131
  541TIP3   OH2 1565   3.736   0.964   4.389
  541TIP3    H1 1566   3.661   0.981   4.446
  541TIP3    H2 1567   3.753   1.048   4.346
  542TIP3   OH2 1568   3.147   3.585   4.982
  542TIP3    H1 1569   3.080   3.644   5.017
  542TIP3    H2 1570   3.206   3.642   4.933
  543TIP3   OH2 1571   3.400   1.125   6.470
  543TIP3    H1 1572   3.466   1.070   6.513
  543TIP3    H2 1573   3.414   1.111   6.377
  544TIP3   OH2 1574   4.531   1.314   3.174
  544TIP3    H1 1575   4.613   1.283   3.137
  544TIP3    H2 1576   4.550   1.401   3.209
  545TIP3   OH2 1577   1.326   0.351   3.249
  545TIP3    H1 1578   1.348   0.442   3.225
  545TIP3    H2 1579   1.405   0.302   3.229
  546TIP3   OH2 1580   4.973   7.088   2.848
  546TIP3    H1 1581   4.949   7.147   2.777
  546TIP3    H2 1582   4.933   7.125   2.926
  547TIP3   OH2 1583   4.841   3.426   5.771
  547TIP3    H1 1584   4.755   3.421   5.729
  547TIP3    H2 1585   4.867   3.518   5.762
  548TIP3   OH2 1586   8.050   5.268   0.090
  548TIP3    H1 1587   8.040   5.208   0.164
  548TIP3    H2 1588   8.063   5.212   0.014
  549TIP3   OH2 1589   4.193   3.049   2.880
  549TIP3    H1 1590   4.194   3.132   2.831
  549TIP3    H2 1591   4.103   3.018   2.873
  550TIP3   OH2 1592   7.343   4.796   6.547
  550TIP3    H1 1593   7.290   4.846   6.609
  550TIP3    H2 1594   7.281   4.737   6.505
  551TIP3   OH2 1595   1.271   4.398   3.185
  551TIP3    H1 1596   1.328   4.411   3.109
  551TIP3    H2 1597   1.198   4.347   3.152
  552TIP3   OH2 1598   3.250   3.926   0.276
  552TIP3    H1 1599   3.242   3.865   0.350
  552TIP3    H2 1600   3.317   3.886   0.220
  553TIP3   OH2 1601   2.599   0.057   2.040
  553TIP3    H1 1602   2.658   0.084   1.970
  553TIP3    H2 1603   2.512   0.065   2.002
  554TIP3   OH2 1604   5.438   0.155   0.321
  554TIP3    H1 1605   5.421   0.061   0.331
  554TIP3    H2 1606   5.521   0.170   0.365
  555TIP3   OH2 1607   5.256   4.648   4.164
  555TIP3    H1 1608   5.350   4.664   4.174
  555TIP3    H2 1609   5.217   4.682   4.245
  556TIP3   OH2 1610   1.587   4.075   6.475
  556TIP3    H1 1611   1.597   3.982   6.499
  556TIP3    H2 1612   1.615   4.079   6.384
  557TIP3   OH2 1613   7.763   2.776   1.071
  557TIP3    H1 1614   7.845   2.728   1.057
  557TIP3    H2 1615   7.775   2.857   1.021
  558TIP3   OH2 1616   6.806   6.456   5.133
  558TIP3    H1 1617   6.726   6.405   5.116
  558TIP3    H2 1618   6.795   6.489   5.222
  559TIP3   OH2 1619   4.539   3.026   1.055
  559TIP3    H1 1620   4.492   2.963   1.110
  559TIP3    H2 1621   4.631   2.998   1.061
  560TIP3   OH2 1622   4.082   6.367   1.688
  560TIP3    H1 1623   4.018   6.408   1.746
  560TIP3    H2 1624   4.069   6.409   1.603
  561TIP3   OH2 1625   0.176   2.601   2.301
  561TIP3    H1 1626   0.228   2.653   2.240
  561TIP3    H2 1627   0.225   2.520   2.311
  562TIP3   OH2 1628   3.057   7.542   1.657
  562TIP3    H1 1629   3.103   7.605   1.712
  562TIP3    H2 1630   3.056   7.462   1.708
  563TIP3   OH2 1631   5.832   0.782   0.612
  563TIP3    H1 1632   5.922   0.807   0.630
  563TIP3    H2 1633   5.836   0.737   0.528
  564TIP3   OH2 1634   4.214   5.002   4.774
  564TIP3    H1 1635   4.172   5.082   4.805
  564TIP3    H2 1636   4.154   4.967   4.709
  565TIP3   OH2 1637   7.805   2.625   5.468
  565TIP3    H1 1638   7.810   2.556   5.402
  565TIP3    H2 1639   7.879   2.683   5.447
  566TIP3   OH2 1640   8.209   4.012   4.246
  566TIP3    H1 1641   8.221   4.093   4.196
  566TIP3    H2 1642   8.148   4.035   4.315
  567TIP3   OH2 1643   1.370   2.303   0.566
  567TIP3    H1 1644   1.460   2.298   0.536
  567TIP3    H2 1645   1.373   2.268   0.655
  568TIP3   OH2 1646   0.499   3.008   3.900
  568TIP3    H1 1647   0.471   2.917   3.910
  568TIP3    H2 1648   0.571   3.019   3.962
  569TIP3   OH2 1649   2.918   3.777   6.447
  569TIP3    H1 1650   2.846   3.747   6.502
  569TIP3    H2 1651   2.884   3.773   6.357
  570TIP3   OH2 1652   2.569   2.355   4.956
  570TIP3    H1 1653   2.557   2.383   5.046
  570TIP3    H2 1654   2.618   2.273   4.962
  571TIP3   OH2 1655   6.716   2.287   1.609
  571TIP3    H1 1656   6.621   2.273   1.603
  571TIP3    H2 1657   6.727   2.380   1.592
  572TIP3   OH2 1658   0.325   6.426   6.180
  572TIP3    H1 1659   0.418   6.408   6.193
  572TIP3    H2 1660   0.324   6.495   6.113
  573TIP3   OH2 1661   3.463   2.716   6.014
  573TIP3    H1 1662   3.502   2.645   5.963
  573TIP3    H2 1663   3.437   2.782   5.949
  574TIP3   OH2 1664   5.235   1.712   2.566
  574TIP3    H1 1665   5.322   1.731   2.601
  574TIP3    H2 1666   5.177   1.720   2.642
  575TIP3   OH2 1667   2.037   3.529   6.765
  575TIP3    H1 1668   2.053   3.495   6.677
  575TIP3    H2 1669   2.032   3.624   6.753
  576TIP3   OH2 1670   1.837   2.513   5.946
  576TIP3    H1 1671   1.817   2.459   5.869
  576TIP3    H2 1672   1.754   2.558   5.966
  577TIP3   OH2 1673   5.372   2.214   2.194
  577TIP3    H1 1674   5.280   2.213   2.168
  577TIP3    H2 1675   5.418   2.243   2.115
  578TIP3   OH2 1676   2.414   1.692   4.350
  578TIP3    H1 1677   2.385   1.684   4.441
  578TIP3    H2 1678   2.357   1.759   4.311
  579TIP3   OH2 1679   4.902   3.881   1.315
  579TIP3    H1 1680   4.909   3.974   1.338
  579TIP3    H2 1681   4.874   3.839   1.397
  580TIP3   OH2 1682   3.437   6.846   3.217
  580TIP3    H1 1683   3.397   6.807   3.139
  580TIP3    H2 1684   3.372   6.832   3.286
  581TIP3   OH2 1685   6.059   2.611   1.394
  581TIP3    H1 1686   6.060   2.613   1.298
  581TIP3    H2 1687   6.022   2.695   1.419
  582TIP3   OH2 1688   6.969   3.768   1.969
  582TIP3    H1 1689   6.982   3.708   1.895
  582TIP3    H2 1690   6.875   3.786   1.969
  583TIP3   OH2 1691   2.394   6.979   6.520
  583TIP3    H1 1692   2.427   7.068   6.506
  583TIP3    H2 1693   2.343   6.985   6.601
  584TIP3   OH2 1694   3.949   5.956   4.710
  584TIP3    H1 1695   3.899   6.036   4.696
  584TIP3    H2 1696   4.040   5.981   4.694
  585TIP3   OH2 1697   5.975   6.650   1.326
  585TIP3    H1 1698   6.057   6.680   1.365
  585TIP3    H2 1699   5.974   6.555   1.342
  586TIP3   OH2 1700   3.327   4.045   5.594
  586TIP3    H1 1701   3.275   4.032   5.673
  586TIP3    H2 1702   3.341   3.957   5.560
  587TIP3   OH2 1703   1.012   6.477   0.920
  587TIP3    H1 1704   1.071   6.551   0.936
  587TIP3    H2 1705   0.926   6.517   0.912
  588TIP3   OH2 1706   3.319   4.759   0.233
  588TIP3    H1 1707   3.386   4.697   0.262
  588TIP3    H2 1708   3.325   4.832   0.295
  589TIP3   OH2 1709   5.362   3.060   1.795
  589TIP3    H1 1710   5.275   3.071   1.758
  589TIP3    H2 1711   5.347   3.041   1.888
  590TIP3   OH2 1712   7.303   5.330   5.620
  590TIP3    H1 1713   7.395   5.342   5.644
  590TIP3    H2 1714   7.303   5.327   5.525
  591TIP3   OH2 1715   3.920   5.598   1.833
  591TIP3    H1 1716   3.904   5.687   1.865
  591TIP3    H2 1717   3.937   5.547   1.912
  592TIP3   OH2 1718   7.505   2.373   4.784
  592TIP3    H1 1719   7.418   2.398   4.751
  592TIP3    H2 1720   7.555   2.352   4.706
  593TIP3   OH2 1721   6.473   4.847   5.080
  593TIP3    H1 1722   6.553   4.799   5.104
  593TIP3    H2 1723   6.448   4.893   5.160
  594TIP3   OH2 1724   4.171   6.094   4.646
  594TIP3    H1 1725   4.188   6.187   4.655
  594TIP3    H2 1726   4.195   6.074   4.555
  595TIP3   OH2 1727   7.756   6.157   0.223
  595TIP3    H1 1728   7.811   6.160   0.145
  595TIP3    H2 1729   7.676   6.201   0.197
  596TIP3   OH2 1730   0.305   3.148   0.136
  596TIP3    H1 1731   0.313   3.186   0.224
  596TIP3    H2 1732   0.364   3.072   0.137
  597TIP3   OH2 1733   8.164   0.466   3.766
  597TIP3    H1 1734   8.084   0.487   3.718
  597TIP3    H2 1735   8.142   0.388   3.816
  598TIP3   OH2 1736   3.699   2.899   0.418
  598TIP3    H1 1737   3.777   2.935   0.377
  598TIP3    H2 1738   3.635   2.893   0.347
  599TIP3   OH2 1739   3.072   0.986   2.092
  599TIP3    H1 1740   3.153   0.941   2.119
  599TIP3    H2 1741   3.010   0.916   2.075
  600TIP3   OH2 1742   5.535   4.073   4.406
  600TIP3    H1 1743   5.457   4.033   4.446
  600TIP3    H2 1744   5.500   4.142   4.350
  601TIP3   OH2 1745   6.479   5.712   5.278
  601TIP3    H1 1746   6.547   5.730   5.343
  601TIP3    H2 1747   6.452   5.798   5.247
  602TIP3   OH2 1748   2.316   7.718   1.500
  602TIP3    H1 1749   2.340   7.625   1.500
  602TIP3    H2 1750   2.222   7.719   1.486
  603TIP3   OH2 1751   1.224   7.018   4.127
  603TIP3    H1 1752   1.212   7.103   4.085
  603TIP3    H2 1753   1.316   7.017   4.153
  604TIP3   OH2 1754   3.305   5.873   4.526
  604TIP3    H1 1755   3.248   5.911   4.593
  604TIP3    H2 1756   3.246   5.846   4.456
  605TIP3   OH2 1757   7.124   1.092   3.167
  605TIP3    H1 1758   7.172   1.169   3.138
  605TIP3    H2 1759   7.040   1.097   3.122
  606TIP3   OH2 1760   0.175   5.207   4.805
  606TIP3    H1 1761   0.225   5.145   4.752
  606TIP3    H2 1762   0.158   5.281   4.747
  607TIP3   OH2 1763   1.330   7.274   4.840
  607TIP3    H1 1764   1.331   7.226   4.757
  607TIP3    H2 1765   1.383   7.352   4.824
  608TIP3   OH2 1766   3.528   6.080   1.178
  608TIP3    H1 1767   3.591   6.134   1.130
  608TIP3    H2 1768   3.582   6.023   1.233
  609TIP3   OH2 1769   5.607   1.970   4.996
  609TIP3    H1 1770   5.536   1.991   4.936
  609TIP3    H2 1771   5.606   2.040   5.061
  610TIP3   OH2 1772   6.970   5.039   6.171
  610TIP3    H1 1773   6.956   5.133   6.167
  610TIP3    H2 1774   7.052   5.025   6.125
  611TIP3   OH2 1775   4.948   5.753   6.318
  611TIP3    H1 1776   5.012   5.810   6.362
  611TIP3    H2 1777   4.957   5.776   6.225
  612TIP3   OH2 1778   5.363   7.748   5.989
  612TIP3    H1 1779   5.328   7.683   6.050
  612TIP3    H2 1780   5.331   7.720   5.903
  613TIP3   OH2 1781   6.074   2.617   0.149
  613TIP3    H1 1782   6.110   2.530   0.129
  613TIP3    H2 1783   6.080   2.625   0.244
  614TIP3   OH2 1784   3.259   6.031   6.397
  614TIP3    H1 1785   3.240   6.120   6.367
  614TIP3    H2 1786   3.243   5.975   6.321
  615TIP3   OH2 1787   1.702   2.103   1.479
  615TIP3    H1 1788   1.717   2.031   1.540
  615TIP3    H2 1789   1.777   2.161   1.491
  616TIP3   OH2 1790   6.608   5.709   3.388
  616TIP3    H1 1791   6.612   5.615   3.373
  616TIP3    H2 1792   6.700   5.736   3.392
  617TIP3   OH2 1793   7.057   7.837   1.513
  617TIP3    H1 1794   6.984   7.842   1.452
  617TIP3    H2 1795   7.030   7.770   1.576
  618TIP3   OH2 1796   3.501   0.084   0.678
  618TIP3    H1 1797   3.424   0.035   0.647
  618TIP3    H2 1798   3.499   0.166   0.629
  619TIP3   OH2 1799   1.547   5.367   1.653
  619TIP3    H1 1800   1.478   5.345   1.716
  619TIP3    H2 1801   1.626   5.377   1.706
  620TIP3   OH2 1802   0.308   0.973   4.924
  620TIP3    H1 1803   0.299   1.068   4.932
  620TIP3    H2 1804   0.399   0.956   4.945
  621TIP3   OH2 1805   0.037   3.214   5.439
  621TIP3    H1 1806  -0.002   3.299   5.457
  621TIP3    H2 1807   0.095   3.228   5.364
  622TIP3   OH2 1808   1.706   5.590   2.240
  622TIP3    H1 1809   1.706   5.663   2.302
  622TIP3    H2 1810   1.756   5.521   2.284
  623TIP3   OH2 1811   0.049   0.026   4.257
  623TIP3    H1 1812   0.008  -0.016   4.332
  623TIP3    H2 1813   0.098   0.100   4.294
  624TIP3   OH2 1814   2.359   5.849   5.782
  624TIP3    H1 1815   2.277   5.799   5.778
  624TIP3    H2 1816   2.338   5.932   5.741
  625TIP3   OH2 1817   6.056   2.976   4.303
  625TIP3    H1 1818   5.993   2.904   4.300
  625TIP3    H2 1819   6.131   2.944   4.254
  626TIP3   OH2 1820   6.271   4.535   0.857
  626TIP3    H1 1821   6.360   4.561   0.883
  626TIP3    H2 1822   6.218   4.547   0.936
  627TIP3   OH2 1823   0.354   4.879   0.768
  627TIP3    H1 1824   0.296   4.804   0.780
  627TIP3    H2 1825   0.429   4.860   0.824
  628TIP3   OH2 1826   2.065   2.330   6.688
  628TIP3    H1 1827   2.045   2.269   6.616
  628TIP3    H2 1828   2.107   2.275   6.754
  629TIP3   OH2 1829   1.550   2.517   2.346
  629TIP3    H1 1830   1.636   2.540   2.311
  629TIP3    H2 1831   1.551   2.422   2.352
  630TIP3   OH2 1832   6.151   0.053   1.854
  630TIP3    H1 1833   6.187   0.089   1.773
  630TIP3    H2 1834   6.227   0.023   1.904
  631TIP3   OH2 1835   3.519   6.628   0.660
  631TIP3    H1 1836   3.462   6.592   0.592
  631TIP3    H2 1837   3.470   6.613   0.742
  632TIP3   OH2 1838   7.849   0.682   6.344
  632TIP3    H1 1839   7.827   0.617   6.278
  632TIP3    H2 1840   7.815   0.647   6.426
  633TIP3   OH2 1841   2.752   3.317   6.644
  633TIP3    H1 1842   2.765   3.324   6.549
  633TIP3    H2 1843   2.785   3.230   6.667
  634TIP3   OH2 1844   4.567   4.987   3.958
  634TIP3    H1 1845   4.555   5.076   3.991
  634TIP3    H2 1846   4.511   4.984   3.880
  635TIP3   OH2 1847   0.490   6.628   2.857
  635TIP3    H1 1848   0.447   6.559   2.806
  635TIP3    H2 1849   0.563   6.585   2.901
  636TIP3   OH2 1850   2.361   2.768   5.204
  636TIP3    H1 1851   2.299   2.716   5.255
  636TIP3    H2 1852   2.310   2.844   5.175
  637TIP3   OH2 1853   6.599   5.781   2.323
  637TIP3    H1 1854   6.650   5.727   2.384
  637TIP3    H2 1855   6.663   5.836   2.279
  638TIP3   OH2 1856   1.140   6.703   0.937
  638TIP3    H1 1857   1.078   6.776   0.941
  638TIP3    H2 1858   1.223   6.743   0.914
  639TIP3   OH2 1859   1.241   0.909   2.010
  639TIP3    H1 1860   1.315   0.869   2.056
  639TIP3    H2 1861   1.264   0.904   1.917
  640TIP3   OH2 1862   3.298   0.188   6.386
  640TIP3    H1 1863   3.240   0.116   6.360
  640TIP3    H2 1864   3.385   0.149   6.389
  641TIP3   OH2 1865   1.081   5.199   5.790
  641TIP3    H1 1866   1.096   5.161   5.876
  641TIP3    H2 1867   1.018   5.269   5.804
  642TIP3   OH2 1868   0.563   0.500   6.009
  642TIP3    H1 1869   0.606   0.524   5.927
  642TIP3    H2 1870   0.507   0.426   5.986
  643TIP3   OH2 1871   6.015   7.009   2.569
  643TIP3    H1 1872   5.996   6.978   2.657
  643TIP3    H2 1873   5.932   7.047   2.539
  644TIP3   OH2 1874   1.896   1.941   0.121
  644TIP3    H1 1875   1.837   2.011   0.149
  644TIP3    H2 1876   1.851   1.900   0.046
  645TIP3   OH2 1877   5.926   1.105   3.041
  645TIP3    H1 1878   6.003   1.122   2.987
  645TIP3    H2 1879   5.854   1.145   2.992
  646TIP3   OH2 1880   2.087   2.079   2.384
  646TIP3    H1 1881   2.025   2.006   2.380
  646TIP3    H2 1882   2.032   2.156   2.400
  647TIP3   OH2 1883   7.293   6.171   1.807
  647TIP3    H1 1884   7.314   6.231   1.879
  647TIP3    H2 1885   7.305   6.084   1.844
  648TIP3   OH2 1886   3.594   2.787   3.952
  648TIP3    H1 1887   3.568   2.743   3.871
  648TIP3    H2 1888   3.542   2.746   4.020
  649TIP3   OH2 1889   6.683   5.193   3.203
  649TIP3    H1 1890   6.733   5.148   3.271
  649TIP3    H2 1891   6.625   5.126   3.167
  650TIP3   OH2 1892   2.870   2.438   0.759
  650TIP3    H1 1893   2.820   2.447   0.678
  650TIP3    H2 1894   2.804   2.414   0.825
  651TIP3   OH2 1895   5.947   4.233   5.412
  651TIP3    H1 1896   6.000   4.312   5.399
  651TIP3    H2 1897   5.890   4.228   5.335
  652TIP3   OH2 1898   4.258   6.322   0.436
  652TIP3    H1 1899   4.340   6.346   0.392
  652TIP3    H2 1900   4.221   6.406   0.463
  653TIP3   OH2 1901   0.465   3.105   5.047
  653TIP3    H1 1902   0.556   3.098   5.018
  653TIP3    H2 1903   0.423   3.160   4.982
  654TIP3   OH2 1904   3.448   1.870   1.381
  654TIP3    H1 1905   3.538   1.883   1.411
  654TIP3    H2 1906   3.421   1.957   1.350
  655TIP3   OH2 1907   7.789   1.195   2.117
  655TIP3    H1 1908   7.715   1.185   2.177
  655TIP3    H2 1909   7.825   1.281   2.138
  656TIP3   OH2 1910   0.458   2.923   0.124
  656TIP3    H1 1911   0.425   2.853   0.068
  656TIP3    H2 1912   0.458   2.885   0.212
  657TIP3   OH2 1913   3.726   4.761   5.400
  657TIP3    H1 1914   3.645   4.725   5.435
  657TIP3    H2 1915   3.699   4.809   5.321
  658TIP3   OH2 1916   4.849   7.760   4.094
  658TIP3    H1 1917   4.941   7.754   4.069
  658TIP3    H2 1918   4.831   7.854   4.097
  659TIP3   OH2 1919   4.335   1.885   5.944
  659TIP3    H1 1920   4.395   1.863   6.015
  659TIP3    H2 1921   4.318   1.978   5.955
  660TIP3   OH2 1922   4.244   4.856   5.424
  660TIP3    H1 1923   4.230   4.765   5.452
  660TIP3    H2 1924   4.185   4.867   5.349
  661TIP3   OH2 1925   6.445   4.604   2.579
  661TIP3    H1 1926   6.383   4.537   2.550
  661TIP3    H2 1927   6.401   4.687   2.562
  662TIP3   OH2 1928   3.600   5.345   5.596
  662TIP3    H1 1929   3.587   5.254   5.569
  662TIP3    H2 1930   3.690   5.365   5.570
  663TIP3   OH2 1931   4.359   1.254   0.842
  663TIP3    H1 1932   4.290   1.212   0.792
  663TIP3    H2 1933   4.409   1.303   0.777
  664TIP3   OH2 1934   2.703   2.354   2.129
  664TIP3    H1 1935   2.666   2.365   2.041
  664TIP3    H2 1936   2.789   2.316   2.114
  665TIP3   OH2 1937   4.546   1.715   1.059
  665TIP3    H1 1938   4.529   1.654   1.131
  665TIP3    H2 1939   4.464   1.763   1.048
  666TIP3   OH2 1940   0.630   4.850   4.139
  666TIP3    H1 1941   0.626   4.943   4.159
  666TIP3    H2 1942   0.539   4.824   4.126
  667TIP3   OH2 1943   0.101   2.705   0.244
  667TIP3    H1 1944   0.031   2.660   0.291
  667TIP3    H2 1945   0.144   2.759   0.309
  668TIP3   OH2 1946   4.658   0.290   6.523
  668TIP3    H1 1947   4.691   0.347   6.454
  668TIP3    H2 1948   4.733   0.274   6.580
  669TIP3   OH2 1949   6.988   3.540   2.819
  669TIP3    H1 1950   7.072   3.575   2.850
  669TIP3    H2 1951   6.948   3.612   2.771
  670TIP3   OH2 1952   3.773   0.397   4.435
  670TIP3    H1 1953   3.771   0.446   4.518
  670TIP3    H2 1954   3.866   0.383   4.418
  671TIP3   OH2 1955   5.399   0.436   2.094
  671TIP3    H1 1956   5.332   0.390   2.043
  671TIP3    H2 1957   5.457   0.367   2.125
  672TIP3   OH2 1958   0.942   6.901   2.436
  672TIP3    H1 1959   0.893   6.832   2.391
  672TIP3    H2 1960   1.030   6.864   2.447
  673TIP3   OH2 1961   6.293   4.788   6.621
  673TIP3    H1 1962   6.268   4.845   6.694
  673TIP3    H2 1963   6.217   4.790   6.563
  674TIP3   OH2 1964   0.588   7.591   4.743
  674TIP3    H1 1965   0.660   7.615   4.802
  674TIP3    H2 1966   0.609   7.636   4.661
  675TIP3   OH2 1967   5.590   2.981   2.340
  675TIP3    H1 1968   5.657   2.921   2.309
  675TIP3    H2 1969   5.570   3.037   2.264
  676TIP3   OH2 1970   2.398   5.614   4.001
  676TIP3    H1 1971   2.431   5.543   3.947
  676TIP3    H2 1972   2.442   5.604   4.085
  677TIP3   OH2 1973   1.942   4.203   0.286
  677TIP3    H1 1974   2.027   4.166   0.263
  677TIP3    H2 1975   1.959   4.259   0.361
  678TIP3   OH2 1976   1.668   2.887   6.532
  678TIP3    H1 1977   1.658   2.937   6.451
  678TIP3    H2 1978   1.609   2.813   6.521
  679TIP3   OH2 1979   0.561   2.758   2.252
  679TIP3    H1 1980   0.568   2.686   2.314
  679TIP3    H2 1981   0.652   2.780   2.230
  680TIP3   OH2 1982   0.411   4.639   4.162
  680TIP3    H1 1983   0.426   4.611   4.253
  680TIP3    H2 1984   0.342   4.581   4.130
  681TIP3   OH2 1985   1.287   5.622   3.777
  681TIP3    H1 1986   1.229   5.573   3.835
  681TIP3    H2 1987   1.363   5.644   3.831
  682TIP3   OH2 1988   6.997   0.840   4.347
  682TIP3    H1 1989   6.990   0.817   4.254
  682TIP3    H2 1990   6.923   0.898   4.363
  683TIP3   OH2 1991   3.635   3.327   2.238
  683TIP3    H1 1992   3.699   3.381   2.192
  683TIP3    H2 1993   3.608   3.380   2.313
  684TIP3   OH2 1994   2.946   7.068   5.832
  684TIP3    H1 1995   3.041   7.059   5.845
  684TIP3    H2 1996   2.938   7.108   5.745
  685TIP3   OH2 1997   3.749   3.417   4.529
  685TIP3    H1 1998   3.695   3.456   4.460
  685TIP3    H2 1999   3.803   3.352   4.485
  686TIP3   OH2 2000   7.102   0.984   0.047
  686TIP3    H1 2001   7.007   0.971   0.039
  686TIP3    H2 2002   7.138   0.942  -0.031
  687TIP3   OH2 2003   4.262   6.248   0.048
  687TIP3    H1 2004   4.167   6.260   0.050
  687TIP3    H2 2005   4.273   6.153   0.047
  688TIP3   OH2 2006   4.956   2.390   4.538
  688TIP3    H1 2007   4.889   2.400   4.606
  688TIP3    H2 2008   4.956   2.474   4.492
  689TIP3   OH2 2009   5.229   2.171   5.320
  689TIP3    H1 2010   5.282   2.196   5.244
  689TIP3    H2 2011   5.233   2.247   5.377
  690TIP3   OH2 2012   6.784   0.031   1.245
  690TIP3    H1 2013   6.846   0.078   1.189
  690TIP3    H2 2014   6.772   0.088   1.321
  691TIP3   OH2 2015   1.659   2.223   2.698
  691TIP3    H1 2016   1.688   2.312   2.679
  691TIP3    H2 2017   1.607   2.198   2.622
  692TIP3   OH2 2018   1.312   2.403   5.251
  692TIP3    H1 2019   1.235   2.395   5.308
  692TIP3    H2 2020   1.320   2.497   5.235
  693TIP3   OH2 2021   2.352   5.347   1.765
  693TIP3    H1 2022   2.280   5.306   1.813
  693TIP3    H2 2023   2.426   5.287   1.778
  694TIP3   OH2 2024   3.900   0.391   3.603
  694TIP3    H1 2025   3.990   0.363   3.619
  694TIP3    H2 2026   3.848   0.345   3.670
  695TIP3   OH2 2027   0.676   3.991   6.600
  695TIP3    H1 2028   0.657   4.043   6.522
  695TIP3    H2 2029   0.692   4.056   6.669
  696TIP3   OH2 2030   6.462   6.697   6.289
  696TIP3    H1 2031   6.458   6.663   6.378
  696TIP3    H2 2032   6.496   6.624   6.237
  697TIP3   OH2 2033   0.713   7.215   0.100
  697TIP3    H1 2034   0.683   7.188   0.013
  697TIP3    H2 2035   0.689   7.307   0.107
  698TIP3   OH2 2036   4.937   7.477   6.063
  698TIP3    H1 2037   4.969   7.397   6.105
  698TIP3    H2 2038   4.865   7.447   6.007
  699TIP3   OH2 2039   6.029   0.546   0.764
  699TIP3    H1 2040   5.995   0.548   0.675
  699TIP3    H2 2041   6.113   0.592   0.759
  700TIP3   OH2 2042   6.576   1.384   0.875
  700TIP3    H1 2043   6.663   1.385   0.914
  700TIP3    H2 2044   6.564   1.294   0.845
  701TIP3   OH2 2045   2.357   6.163   2.022
  701TIP3    H1 2046   2.267   6.181   2.045
  701TIP3    H2 2047   2.352   6.105   1.946
  702TIP3   OH2 2048   2.390   6.047   4.812
  702TIP3    H1 2049   2.310   5.999   4.834
  702TIP3    H2 2050   2.369   6.091   4.730
  703TIP3   OH2 2051   3.120   3.835   1.740
  703TIP3    H1 2052   3.167   3.912   1.710
  703TIP3    H2 2053   3.185   3.783   1.788
  704TIP3   OH2 2054   1.011   0.779   2.109
  704TIP3    H1 2055   1.079   0.824   2.059
  704TIP3    H2 2056   1.049   0.766   2.195
  705TIP3   OH2 2057   1.300   1.314   2.249
  705TIP3    H1 2058   1.234   1.308   2.318
  705TIP3    H2 2059   1.255   1.284   2.170
  706TIP3   OH2 2060   4.763   0.033   4.872
  706TIP3    H1 2061   4.797   0.116   4.906
  706TIP3    H2 2062   4.805  -0.034   4.926
  707TIP3   OH2 2063   5.378   0.481   4.218
  707TIP3    H1 2064   5.351   0.446   4.133
  707TIP3    H2 2065   5.440   0.416   4.252
  708TIP3   OH2 2066   1.822   4.980   1.339
  708TIP3    H1 2067   1.835   4.894   1.380
  708TIP3    H2 2068   1.809   4.961   1.246
  709TIP3   OH2 2069   3.804   2.333   3.220
  709TIP3    H1 2070   3.869   2.323   3.289
  709TIP3    H2 2071   3.721   2.345   3.267
  710TIP3   OH2 2072   2.711   3.385   2.157
  710TIP3    H1 2073   2.654   3.328   2.104
  710TIP3    H2 2074   2.711   3.468   2.110
  711TIP3   OH2 2075   3.302   2.698   0.707
  711TIP3    H1 2076   3.288   2.614   0.663
  711TIP3    H2 2077   3.382   2.733   0.667
  712TIP3   OH2 2078   6.203   0.796   2.606
  712TIP3    H1 2079   6.163   0.718   2.568
  712TIP3    H2 2080   6.202   0.861   2.535
  713TIP3   OH2 2081   2.525   1.108   5.962
  713TIP3    H1 2082   2.532   1.203   5.962
  713TIP3    H2 2083   2.433   1.091   5.982
  714TIP3   OH2 2084   8.000   6.631   0.877
  714TIP3    H1 2085   7.989   6.691   0.951
  714TIP3    H2 2086   7.911   6.617   0.844
  715TIP3   OH2 2087   3.008   4.294   6.570
  715TIP3    H1 2088   3.025   4.381   6.536
  715TIP3    H2 2089   2.937   4.306   6.633
  716TIP3   OH2 2090   3.136   0.165   1.145
  716TIP3    H1 2091   3.086   0.245   1.164
  716TIP3    H2 2092   3.137   0.118   1.229
  717TIP3   OH2 2093   0.853   2.255   2.128
  717TIP3    H1 2094   0.879   2.188   2.065
  717TIP3    H2 2095   0.768   2.226   2.161
  718TIP3   OH2 2096   4.436   1.365   6.079
  718TIP3    H1 2097   4.403   1.286   6.037
  718TIP3    H2 2098   4.524   1.341   6.109
  719TIP3   OH2 2099   4.026   4.036   4.783
  719TIP3    H1 2100   4.117   4.006   4.775
  719TIP3    H2 2101   3.994   3.992   4.862
  720TIP3   OH2 2102   2.190   1.775   0.481
  720TIP3    H1 2103   2.148   1.843   0.428
  720TIP3    H2 2104   2.284   1.786   0.465
  721TIP3   OH2 2105   5.414   6.008   4.801
  721TIP3    H1 2106   5.474   6.081   4.791
  721TIP3    H2 2107   5.380   6.017   4.890
  722TIP3   OH2 2108   7.810   5.257   4.652
  722TIP3    H1 2109   7.781   5.243   4.742
  722TIP3    H2 2110   7.874   5.328   4.659
  723TIP3   OH2 2111   5.232   0.899   0.064
  723TIP3    H1 2112   5.148   0.873   0.102
  723TIP3    H2 2113   5.212   0.918  -0.028
  724TIP3   OH2 2114   0.306   5.249   4.475
  724TIP3    H1 2115   0.401   5.240   4.463
  724TIP3    H2 2116   0.290   5.344   4.470
  725TIP3   OH2 2117   6.334   6.046   6.732
  725TIP3    H1 2118   6.300   5.962   6.761
  725TIP3    H2 2119   6.428   6.033   6.724
  726TIP3   OH2 2120   7.299   7.675   3.492
  726TIP3    H1 2121   7.254   7.695   3.574
  726TIP3    H2 2122   7.331   7.759   3.460
  727TIP3   OH2 2123   7.628   0.797   0.882
  727TIP3    H1 2124   7.542   0.755   0.874
  727TIP3    H2 2125   7.659   0.805   0.792
  728TIP3   OH2 2126   0.861   0.103   0.322
  728TIP3    H1 2127   0.919   0.059   0.259
  728TIP3    H2 2128   0.807   0.032   0.358
  729TIP3   OH2 2129   5.538   2.648   4.775
  729TIP3    H1 2130   5.631   2.671   4.785
  729TIP3    H2 2131   5.493   2.702   4.841
  730TIP3   OH2 2132   7.968   6.130   1.556
  730TIP3    H1 2133   7.919   6.208   1.581
  730TIP3    H2 2134   8.026   6.113   1.630
  731TIP3   OH2 2135   6.824   2.434   5.797
  731TIP3    H1 2136   6.841   2.343   5.821
  731TIP3    H2 2137   6.748   2.459   5.850
  732TIP3   OH2 2138   3.268   3.671   3.543
  732TIP3    H1 2139   3.245   3.581   3.520
  732TIP3    H2 2140   3.184   3.714   3.558
  733TIP3   OH2 2141   6.994   0.719   2.720
  733TIP3    H1 2142   7.077   0.671   2.729
  733TIP3    H2 2143   7.019   0.811   2.723
  734TIP3   OH2 2144   7.070   3.838   4.884
  734TIP3    H1 2145   7.036   3.755   4.917
  734TIP3    H2 2146   6.999   3.901   4.899
  735TIP3   OH2 2147   3.277   2.213   2.758
  735TIP3    H1 2148   3.365   2.247   2.742
  735TIP3    H2 2149   3.291   2.137   2.815
  736TIP3   OH2 2150   7.323   4.478   1.986
  736TIP3    H1 2151   7.235   4.467   2.022
  736TIP3    H2 2152   7.376   4.506   2.061
  737TIP3   OH2 2153   4.555   1.454   0.808
  737TIP3    H1 2154   4.484   1.502   0.767
  737TIP3    H2 2155   4.571   1.500   0.891
  738TIP3   OH2 2156   2.403   2.651   3.287
  738TIP3    H1 2157   2.475   2.700   3.326
  738TIP3    H2 2158   2.376   2.589   3.355
  739TIP3   OH2 2159   7.395   7.460   1.627
  739TIP3    H1 2160   7.308   7.461   1.589
  739TIP3    H2 2161   7.444   7.398   1.573
  740TIP3   OH2 2162   4.070   4.665   5.736
  740TIP3    H1 2163   4.038   4.744   5.693
  740TIP3    H2 2164   4.136   4.630   5.675
  741TIP3   OH2 2165   3.044   3.622   2.895
  741TIP3    H1 2166   2.998   3.590   2.973
  741TIP3    H2 2167   2.991   3.695   2.864
  742TIP3   OH2 2168   4.215   0.670   6.338
  742TIP3    H1 2169   4.262   0.725   6.401
  742TIP3    H2 2170   4.183   0.597   6.390
  743TIP3   OH2 2171   3.454   1.554   3.265
  743TIP3    H1 2172   3.472   1.564   3.358
  743TIP3    H2 2173   3.518   1.609   3.221
  744TIP3   OH2 2174   5.052   1.335   2.602
  744TIP3    H1 2175   5.007   1.391   2.539
  744TIP3    H2 2176   5.053   1.387   2.683
  745TIP3   OH2 2177   5.017   4.707   4.973
  745TIP3    H1 2178   5.013   4.716   4.878
  745TIP3    H2 2179   5.111   4.707   4.994
  746TIP3   OH2 2180   6.643   3.445   6.781
  746TIP3    H1 2181   6.603   3.454   6.695
  746TIP3    H2 2182   6.649   3.535   6.814
  747TIP3   OH2 2183   5.464   0.046   0.638
  747TIP3    H1 2184   5.389   0.016   0.689
  747TIP3    H2 2185   5.485  -0.027   0.580
  748TIP3   OH2 2186   0.882   3.421   1.419
  748TIP3    H1 2187   0.952   3.484   1.441
  748TIP3    H2 2188   0.819   3.430   1.491
  749TIP3   OH2 2189   4.506   5.354   3.923
  749TIP3    H1 2190   4.449   5.334   3.998
  749TIP3    H2 2191   4.463   5.426   3.879
  750TIP3   OH2 2192   1.156   4.320   2.373
  750TIP3    H1 2193   1.195   4.262   2.438
  750TIP3    H2 2194   1.062   4.302   2.378
  751TIP3   OH2 2195   5.813   2.149   4.442
  751TIP3    H1 2196   5.867   2.187   4.373
  751TIP3    H2 2197   5.872   2.090   4.489
  752TIP3   OH2 2198   3.537   0.511   4.816
  752TIP3    H1 2199   3.554   0.575   4.747
  752TIP3    H2 2200   3.452   0.535   4.851
  753TIP3   OH2 2201   5.442   2.572   5.424
  753TIP3    H1 2202   5.408   2.544   5.509
  753TIP3    H2 2203   5.446   2.667   5.430
  754TIP3   OH2 2204   5.000   3.858   6.323
  754TIP3    H1 2205   5.077   3.853   6.380
  754TIP3    H2 2206   4.957   3.940   6.348
  755TIP3   OH2 2207   1.512   1.404   1.647
  755TIP3    H1 2208   1.508   1.315   1.614
  755TIP3    H2 2209   1.590   1.442   1.606
  756TIP3   OH2 2210   1.108   2.246   6.479
  756TIP3    H1 2211   1.198   2.239   6.446
  756TIP3    H2 2212   1.065   2.167   6.446
  757TIP3   OH2 2213   4.624   7.248   1.279
  757TIP3    H1 2214   4.655   7.228   1.190
  757TIP3    H2 2215   4.612   7.162   1.320
  758TIP3   OH2 2216   2.525   7.401   3.796
  758TIP3    H1 2217   2.520   7.307   3.780
  758TIP3    H2 2218   2.460   7.439   3.736
  759TIP3   OH2 2219   2.853   5.179   4.522
  759TIP3    H1 2220   2.900   5.123   4.584
  759TIP3    H2 2221   2.895   5.163   4.438
  760TIP3   OH2 2222   7.065   4.661   6.397
  760TIP3    H1 2223   7.146   4.617   6.371
  760TIP3    H2 2224   7.014   4.592   6.439
  761TIP3   OH2 2225   4.785   7.323   4.432
  761TIP3    H1 2226   4.727   7.333   4.508
  761TIP3    H2 2227   4.823   7.410   4.420
  762TIP3   OH2 2228   7.622   0.467   1.036
  762TIP3    H1 2229   7.709   0.457   0.996
  762TIP3    H2 2230   7.609   0.385   1.084
  763TIP3   OH2 2231   6.766   7.777   2.962
  763TIP3    H1 2232   6.860   7.791   2.974
  763TIP3    H2 2233   6.725   7.837   3.024
  764TIP3   OH2 2234   2.994   6.566   4.892
  764TIP3    H1 2235   3.034   6.648   4.922
  764TIP3    H2 2236   2.904   6.570   4.925
  765TIP3   OH2 2237   0.885   2.412   1.721
  765TIP3    H1 2238   0.805   2.364   1.698
  765TIP3    H2 2239   0.956   2.354   1.697
  766TIP3   OH2 2240   3.561   0.647   1.903
  766TIP3    H1 2241   3.610   0.565   1.912
  766TIP3    H2 2242   3.569   0.670   1.811
  767TIP3   OH2 2243   5.667   2.160   6.387
  767TIP3    H1 2244   5.737   2.199   6.335
  767TIP3    H2 2245   5.590   2.214   6.368
  768TIP3   OH2 2246   2.776   0.682   0.540
  768TIP3    H1 2247   2.695   0.685   0.591
  768TIP3    H2 2248   2.752   0.637   0.459
  769TIP3   OH2 2249   0.403   5.494   1.881
  769TIP3    H1 2250   0.458   5.416   1.874
  769TIP3    H2 2251   0.388   5.504   1.974
  770TIP3   OH2 2252   6.016   2.665   1.781
  770TIP3    H1 2253   6.042   2.715   1.704
  770TIP3    H2 2254   5.964   2.593   1.745
  771TIP3   OH2 2255   5.931   5.225   4.419
  771TIP3    H1 2256   5.935   5.159   4.489
  771TIP3    H2 2257   5.845   5.266   4.430
  772TIP3   OH2 2258   2.391   1.439   6.182
  772TIP3    H1 2259   2.342   1.367   6.143
  772TIP3    H2 2260   2.478   1.433   6.142
  773TIP3   OH2 2261   4.579   2.951   1.465
  773TIP3    H1 2262   4.624   2.879   1.422
  773TIP3    H2 2263   4.522   2.909   1.530
  774TIP3   OH2 2264   0.070   5.319   3.510
  774TIP3    H1 2265  -0.006   5.366   3.544
  774TIP3    H2 2266   0.037   5.273   3.433
  775TIP3   OH2 2267   3.955   5.393   3.505
  775TIP3    H1 2268   4.037   5.441   3.517
  775TIP3    H2 2269   3.978   5.320   3.447
  776TIP3   OH2 2270   0.579   5.571   5.668
  776TIP3    H1 2271   0.509   5.575   5.733
  776TIP3    H2 2272   0.534   5.568   5.584
  777TIP3   OH2 2273   0.887   0.214   6.388
  777TIP3    H1 2274   0.808   0.177   6.349
  777TIP3    H2 2275   0.953   0.145   6.379
  778TIP3   OH2 2276   5.602   4.414   4.878
  778TIP3    H1 2277   5.690   4.377   4.880
  778TIP3    H2 2278   5.612   4.503   4.912
  779TIP3   OH2 2279   2.168   7.520   5.297
  779TIP3    H1 2280   2.183   7.440   5.348
  779TIP3    H2 2281   2.175   7.493   5.206
  780TIP3   OH2 2282   7.490   4.819   6.012
  780TIP3    H1 2283   7.493   4.776   6.098
  780TIP3    H2 2284   7.515   4.910   6.031
  781TIP3   OH2 2285   7.150   1.580   0.530
  781TIP3    H1 2286   7.074   1.612   0.578
  781TIP3    H2 2287   7.115   1.545   0.449
  782TIP3   OH2 2288   7.354   4.278   5.071
  782TIP3    H1 2289   7.283   4.251   5.130
  782TIP3    H2 2290   7.418   4.321   5.128
  783TIP3   OH2 2291   8.181   1.549   1.785
  783TIP3    H1 2292   8.243   1.622   1.777
  783TIP3    H2 2293   8.226   1.475   1.743
  784TIP3   OH2 2294   7.163   1.951   0.771
  784TIP3    H1 2295   7.197   1.917   0.688
  784TIP3    H2 2296   7.230   1.930   0.836
  785TIP3   OH2 2297   2.146   7.446   2.468
  785TIP3    H1 2298   2.119   7.365   2.426
  785TIP3    H2 2299   2.200   7.490   2.403
  786TIP3   OH2 2300   7.813   2.051   1.333
  786TIP3    H1 2301   7.867   2.127   1.308
  786TIP3    H2 2302   7.832   2.039   1.426
  787TIP3   OH2 2303   0.512   1.848   5.920
  787TIP3    H1 2304   0.425   1.876   5.891
  787TIP3    H2 2305   0.533   1.773   5.864
  788TIP3   OH2 2306   1.615   0.152   2.387
  788TIP3    H1 2307   1.583   0.075   2.433
  788TIP3    H2 2308   1.539   0.210   2.382
  789TIP3   OH2 2309   7.941   6.781   1.730
  789TIP3    H1 2310   7.939   6.872   1.701
  789TIP3    H2 2311   7.971   6.732   1.653
  790TIP3   OH2 2312   0.194   4.567   2.654
  790TIP3    H1 2313   0.121   4.532   2.704
  790TIP3    H2 2314   0.249   4.491   2.636
  791TIP3   OH2 2315   2.540   5.709   0.459
  791TIP3    H1 2316   2.554   5.716   0.553
  791TIP3    H2 2317   2.604   5.643   0.430
  792TIP3   OH2 2318   7.919   3.810   4.104
  792TIP3    H1 2319   7.909   3.727   4.151
  792TIP3    H2 2320   7.913   3.877   4.172
  793TIP3   OH2 2321   0.769   7.171   2.353
  793TIP3    H1 2322   0.758   7.265   2.341
  793TIP3    H2 2323   0.858   7.161   2.388
  794TIP3   OH2 2324   6.266   1.716   6.341
  794TIP3    H1 2325   6.235   1.639   6.293
  794TIP3    H2 2326   6.298   1.682   6.424
  795TIP3   OH2 2327   7.358   7.238   5.192
  795TIP3    H1 2328   7.391   7.302   5.256
  795TIP3    H2 2329   7.281   7.280   5.154
  796TIP3   OH2 2330   1.810   5.922   1.997
  796TIP3    H1 2331   1.826   6.009   1.961
  796TIP3    H2 2332   1.717   5.922   2.019
  797TIP3   OH2 2333   1.214   1.198   5.955
  797TIP3    H1 2334   1.139   1.255   5.973
  797TIP3    H2 2335   1.289   1.246   5.990
  798TIP3   OH2 2336   6.695   2.342   2.458
  798TIP3    H1 2337   6.732   2.281   2.395
  798TIP3    H2 2338   6.743   2.423   2.445
  799TIP3   OH2 2339   1.241   3.583   4.325
  799TIP3    H1 2340   1.169   3.642   4.303
  799TIP3    H2 2341   1.220   3.552   4.413
  800TIP3   OH2 2342   2.310   7.559   5.999
  800TIP3    H1 2343   2.282   7.509   5.923
  800TIP3    H2 2344   2.229   7.583   6.044
  801TIP3   OH2 2345   7.531   3.883   3.086
  801TIP3    H1 2346   7.534   3.979   3.087
  801TIP3    H2 2347   7.613   3.857   3.044
  802TIP3   OH2 2348   7.914   5.149   4.416
  802TIP3    H1 2349   7.957   5.078   4.464
  802TIP3    H2 2350   7.867   5.198   4.484
  803TIP3   OH2 2351   1.810   2.279   3.945
  803TIP3    H1 2352   1.886   2.261   3.890
  803TIP3    H2 2353   1.755   2.338   3.893
  804TIP3   OH2 2354   2.239   5.013   2.363
  804TIP3    H1 2355   2.332   4.992   2.375
  804TIP3    H2 2356   2.194   4.955   2.424
  805TIP3   OH2 2357   3.319   5.973   4.834
  805TIP3    H1 2358   3.310   6.039   4.902
  805TIP3    H2 2359   3.235   5.927   4.833
  806TIP3   OH2 2360   0.754   2.915   1.806
  806TIP3    H1 2361   0.662   2.933   1.786
  806TIP3    H2 2362   0.803   2.967   1.742
  807TIP3   OH2 2363   0.889   0.452   3.681
  807TIP3    H1 2364   0.837   0.412   3.612
  807TIP3    H2 2365   0.904   0.382   3.744
  808TIP3   OH2 2366   8.279   1.020   1.622
  808TIP3    H1 2367   8.199   0.969   1.608
  808TIP3    H2 2368   8.253   1.090   1.683
  809TIP3   OH2 2369   3.146   1.154   6.608
  809TIP3    H1 2370   3.230   1.138   6.563
  809TIP3    H2 2371   3.159   1.120   6.696
  810TIP3   OH2 2372   5.890   2.817   6.065
  810TIP3    H1 2373   5.842   2.896   6.091
  810TIP3    H2 2374   5.839   2.782   5.992
  811TIP3   OH2 2375   6.269   7.239   2.507
  811TIP3    H1 2376   6.307   7.173   2.449
  811TIP3    H2 2377   6.262   7.195   2.592
  812TIP3   OH2 2378   7.360   1.578   3.747
  812TIP3    H1 2379   7.404   1.493   3.754
  812TIP3    H2 2380   7.432   1.641   3.744
  813TIP3   OH2 2381   3.600   3.505   4.733
  813TIP3    H1 2382   3.645   3.472   4.655
  813TIP3    H2 2383   3.610   3.600   4.727
  814TIP3   OH2 2384   6.803   2.503   1.395
  814TIP3    H1 2385   6.711   2.491   1.418
  814TIP3    H2 2386   6.829   2.419   1.358
  815TIP3   OH2 2387   4.923   4.696   4.263
  815TIP3    H1 2388   4.862   4.734   4.199
  815TIP3    H2 2389   4.958   4.771   4.310
  816TIP3   OH2 2390   6.716   3.363   2.319
  816TIP3    H1 2391   6.631   3.377   2.277
  816TIP3    H2 2392   6.776   3.421   2.271
  817TIP3   OH2 2393   6.662   2.306   6.470
  817TIP3    H1 2394   6.598   2.350   6.527
  817TIP3    H2 2395   6.646   2.212   6.484
  818TIP3   OH2 2396   7.788   4.484   1.798
  818TIP3    H1 2397   7.879   4.503   1.776
  818TIP3    H2 2398   7.762   4.557   1.855
  819TIP3   OH2 2399   0.346   5.672   5.223
  819TIP3    H1 2400   0.308   5.752   5.259
  819TIP3    H2 2401   0.419   5.701   5.169
  820TIP3   OH2 2402   5.143   3.764   1.788
  820TIP3    H1 2403   5.190   3.713   1.854
  820TIP3    H2 2404   5.051   3.748   1.807
  821TIP3   OH2 2405   7.561   1.354   3.685
  821TIP3    H1 2406   7.589   1.305   3.762
  821TIP3    H2 2407   7.635   1.413   3.666
  822TIP3   OH2 2408   6.592   1.120   0.829
  822TIP3    H1 2409   6.559   1.083   0.910
  822TIP3    H2 2410   6.621   1.045   0.777
  823TIP3   OH2 2411   7.441   0.856   0.398
  823TIP3    H1 2412   7.416   0.807   0.477
  823TIP3    H2 2413   7.359   0.897   0.369
  824TIP3   OH2 2414   2.473   6.432   2.081
  824TIP3    H1 2415   2.473   6.348   2.035
  824TIP3    H2 2416   2.495   6.496   2.013
  825TIP3   OH2 2417   8.040   5.527   1.790
  825TIP3    H1 2418   8.115   5.470   1.776
  825TIP3    H2 2419   8.022   5.565   1.704
  826TIP3   OH2 2420   4.784   0.869   2.708
  826TIP3    H1 2421   4.762   0.959   2.733
  826TIP3    H2 2422   4.774   0.819   2.789
  827TIP3   OH2 2423   1.363   3.642   0.475
  827TIP3    H1 2424   1.269   3.629   0.467
  827TIP3    H2 2425   1.373   3.727   0.519
  828TIP3   OH2 2426   6.028   7.235   3.343
  828TIP3    H1 2427   5.959   7.269   3.401
  828TIP3    H2 2428   5.984   7.169   3.289
  829TIP3   OH2 2429   6.839   2.189   5.957
  829TIP3    H1 2430   6.789   2.189   6.039
  829TIP3    H2 2431   6.791   2.130   5.900
  830TIP3   OH2 2432   5.925   0.833   3.063
  830TIP3    H1 2433   5.931   0.927   3.047
  830TIP3    H2 2434   5.831   0.813   3.056
  831TIP3   OH2 2435   0.092   2.093   6.385
  831TIP3    H1 2436   0.048   2.031   6.327
  831TIP3    H2 2437   0.065   2.067   6.473
  832TIP3   OH2 2438   4.478   4.290   3.165
  832TIP3    H1 2439   4.426   4.274   3.244
  832TIP3    H2 2440   4.569   4.284   3.194
  833TIP3   OH2 2441   6.831   1.004   0.040
  833TIP3    H1 2442   6.794   0.919   0.017
  833TIP3    H2 2443   6.819   1.011   0.135
  834TIP3   OH2 2444   0.881   2.217   3.504
  834TIP3    H1 2445   0.861   2.308   3.480
  834TIP3    H2 2446   0.881   2.170   3.421
  835TIP3   OH2 2447   1.060   0.072   6.071
  835TIP3    H1 2448   1.086   0.023   6.149
  835TIP3    H2 2449   1.138   0.120   6.046
  836TIP3   OH2 2450   7.110   0.425   1.177
  836TIP3    H1 2451   7.077   0.515   1.172
  836TIP3    H2 2452   7.036   0.371   1.149
  837TIP3   OH2 2453   6.926   2.540   0.768
  837TIP3    H1 2454   6.937   2.591   0.848
  837TIP3    H2 2455   6.952   2.451   0.792
  838TIP3   OH2 2456   1.898   5.982   6.504
  838TIP3    H1 2457   1.851   6.000   6.585
  838TIP3    H2 2458   1.980   6.030   6.513
  839TIP3   OH2 2459   1.731   0.318   4.284
  839TIP3    H1 2460   1.649   0.360   4.308
  839TIP3    H2 2461   1.709   0.226   4.270
  840TIP3   OH2 2462   2.743   5.780   3.752
  840TIP3    H1 2463   2.760   5.871   3.775
  840TIP3    H2 2464   2.741   5.734   3.837
  841TIP3   OH2 2465   5.180   5.396   4.076
  841TIP3    H1 2466   5.159   5.303   4.073
  841TIP3    H2 2467   5.103   5.439   4.039
  842TIP3   OH2 2468   1.394   7.294   5.823
  842TIP3    H1 2469   1.316   7.241   5.835
  842TIP3    H2 2470   1.390   7.323   5.731
  843TIP3   OH2 2471   6.158   3.770   4.854
  843TIP3    H1 2472   6.106   3.706   4.807
  843TIP3    H2 2473   6.110   3.787   4.934
  844TIP3   OH2 2474   5.685   2.579   1.996
  844TIP3    H1 2475   5.744   2.654   2.008
  844TIP3    H2 2476   5.682   2.565   1.901
  845TIP3   OH2 2477   0.987   2.824   5.501
  845TIP3    H1 2478   1.069   2.845   5.546
  845TIP3    H2 2479   0.934   2.781   5.568
  846TIP3   OH2 2480   4.597   6.959   1.633
  846TIP3    H1 2481   4.614   6.945   1.540
  846TIP3    H2 2482   4.679   6.992   1.668
  847TIP3   OH2 2483   4.034   3.160   0.518
  847TIP3    H1 2484   4.040   3.208   0.600
  847TIP3    H2 2485   4.029   3.227   0.450
  848TIP3   OH2 2486   5.630   7.555   4.278
  848TIP3    H1 2487   5.676   7.636   4.258
  848TIP3    H2 2488   5.571   7.579   4.350
  849TIP3   OH2 2489   1.768   1.919   0.643
  849TIP3    H1 2490   1.739   1.851   0.582
  849TIP3    H2 2491   1.863   1.913   0.642
  850TIP3   OH2 2492   1.832   2.394   0.772
  850TIP3    H1 2493   1.907   2.344   0.802
  850TIP3    H2 2494   1.833   2.473   0.827
  851TIP3   OH2 2495   5.545   2.631   5.187
  851TIP3    H1 2496   5.636   2.640   5.214
  851TIP3    H2 2497   5.504   2.582   5.258
  852TIP3   OH2 2498   1.399   4.665   5.251
  852TIP3    H1 2499   1.336   4.724   5.208
  852TIP3    H2 2500   1.348   4.586   5.270
  853TIP3   OH2 2501   4.710   5.467   3.175
  853TIP3    H1 2502   4.769   5.430   3.241
  853TIP3    H2 2503   4.701   5.399   3.109
  854TIP3   OH2 2504   1.998   6.446   1.797
  854TIP3    H1 2505   2.062   6.506   1.760
  854TIP3    H2 2506   1.974   6.486   1.881
  855TIP3   OH2 2507   7.551   3.790   4.226
  855TIP3    H1 2508   7.570   3.802   4.133
  855TIP3    H2 2509   7.524   3.877   4.256
  856TIP3   OH2 2510   1.291   7.164   6.290
  856TIP3    H1 2511   1.309   7.108   6.214
  856TIP3    H2 2512   1.262   7.103   6.358
  857TIP3   OH2 2513   7.308   1.836   3.126
  857TIP3    H1 2514   7.399   1.826   3.098
  857TIP3    H2 2515   7.259   1.851   3.045
  858TIP3   OH2 2516   1.224   3.452   0.739
  858TIP3    H1 2517   1.137   3.418   0.761
  858TIP3    H2 2518   1.228   3.450   0.644
  859TIP3   OH2 2519   7.904   1.030   3.979
  859TIP3    H1 2520   7.878   1.122   3.980
  859TIP3    H2 2521   7.872   0.997   3.895
  860TIP3   OH2 2522   1.774   0.714   5.265
  860TIP3    H1 2523   1.769   0.620   5.279
  860TIP3    H2 2524   1.843   0.744   5.324
  861TIP3   OH2 2525   3.985   2.246   0.117
  861TIP3    H1 2526   4.023   2.331   0.095
  861TIP3    H2 2527   3.951   2.258   0.206
  862TIP3   OH2 2528   2.424   0.059   2.617
  862TIP3    H1 2529   2.335   0.073   2.650
  862TIP3    H2 2530   2.441  -0.034   2.632
  863TIP3   OH2 2531   7.063   0.428   0.581
  863TIP3    H1 2532   7.075   0.515   0.542
  863TIP3    H2 2533   7.029   0.444   0.668
  864TIP3   OH2 2534   5.355   2.046   6.376
  864TIP3    H1 2535   5.438   2.044   6.423
  864TIP3    H2 2536   5.316   2.130   6.400
  865TIP3   OH2 2537   1.181   4.840   5.583
  865TIP3    H1 2538   1.271   4.861   5.606
  865TIP3    H2 2539   1.168   4.750   5.614
  866TIP3   OH2 2540   5.683   5.033   2.505
  866TIP3    H1 2541   5.681   4.974   2.430
  866TIP3    H2 2542   5.614   5.001   2.563
  867TIP3   OH2 2543   2.322   3.923   1.879
  867TIP3    H1 2544   2.314   3.975   1.799
  867TIP3    H2 2545   2.255   3.960   1.938
  868TIP3   OH2 2546   7.074   2.366   2.490
  868TIP3    H1 2547   7.096   2.280   2.525
  868TIP3    H2 2548   7.117   2.428   2.549
  869TIP3   OH2 2549   4.004   2.253   3.016
  869TIP3    H1 2550   3.922   2.258   3.066
  869TIP3    H2 2551   4.037   2.165   3.033
  870TIP3   OH2 2552   5.334   3.341   0.963
  870TIP3    H1 2553   5.327   3.306   0.874
  870TIP3    H2 2554   5.245   3.370   0.983
  871TIP3   OH2 2555   2.638   5.532   5.673
  871TIP3    H1 2556   2.550   5.565   5.653
  871TIP3    H2 2557   2.685   5.536   5.590
  872TIP3   OH2 2558   4.779   1.251   3.005
  872TIP3    H1 2559   4.802   1.227   2.915
  872TIP3    H2 2560   4.746   1.340   2.998
  873TIP3   OH2 2561   3.300   2.936   5.132
  873TIP3    H1 2562   3.280   2.857   5.182
  873TIP3    H2 2563   3.351   2.990   5.192
  874TIP3   OH2 2564   4.948   6.913   4.557
  874TIP3    H1 2565   4.988   6.981   4.503
  874TIP3    H2 2566   4.903   6.961   4.627
  875TIP3   OH2 2567   1.199   1.519   4.727
  875TIP3    H1 2568   1.160   1.449   4.780
  875TIP3    H2 2569   1.244   1.575   4.790
  876TIP3   OH2 2570   6.425   0.019   5.725
  876TIP3    H1 2571   6.423  -0.047   5.656
  876TIP3    H2 2572   6.461   0.097   5.682
  877TIP3   OH2 2573   6.585   3.417   4.978
  877TIP3    H1 2574   6.525   3.433   5.051
  877TIP3    H2 2575   6.649   3.354   5.012
  878TIP3   OH2 2576   3.657   0.979   3.861
  878TIP3    H1 2577   3.635   1.072   3.857
  878TIP3    H2 2578   3.595   0.937   3.801
  879TIP3   OH2 2579   8.144   1.389   3.392
  879TIP3    H1 2580   8.142   1.397   3.487
  879TIP3    H2 2581   8.093   1.464   3.360
  880TIP3   OH2 2582   5.390   4.154   3.811
  880TIP3    H1 2583   5.424   4.079   3.861
  880TIP3    H2 2584   5.295   4.141   3.810
  881TIP3   OH2 2585   3.260   6.332   4.329
  881TIP3    H1 2586   3.229   6.242   4.324
  881TIP3    H2 2587   3.200   6.375   4.389
  882TIP3   OH2 2588   0.847   2.086   3.750
  882TIP3    H1 2589   0.847   2.096   3.654
  882TIP3    H2 2590   0.940   2.088   3.774
  883TIP3   OH2 2591   0.485   0.504   0.047
  883TIP3    H1 2592   0.390   0.503   0.054
  883TIP3    H2 2593   0.512   0.584   0.092
  884TIP3   OH2 2594   0.744   4.155   6.023
  884TIP3    H1 2595   0.799   4.205   6.084
  884TIP3    H2 2596   0.739   4.068   6.063
  885TIP3   OH2 2597   7.232   6.736   0.776
  885TIP3    H1 2598   7.216   6.819   0.732
  885TIP3    H2 2599   7.202   6.750   0.866
  886TIP3   OH2 2600   3.720   0.109   0.438
  886TIP3    H1 2601   3.792   0.069   0.390
  886TIP3    H2 2602   3.694   0.044   0.503
  887TIP3   OH2 2603   0.980   1.952   4.495
  887TIP3    H1 2604   1.023   1.867   4.493
  887TIP3    H2 2605   0.886   1.932   4.488
  888TIP3   OH2 2606   6.506   5.504   0.155
  888TIP3    H1 2607   6.437   5.510   0.221
  888TIP3    H2 2608   6.460   5.512   0.072
  889TIP3   OH2 2609   1.487   7.497   3.468
  889TIP3    H1 2610   1.478   7.402   3.475
  889TIP3    H2 2611   1.551   7.520   3.536
  890TIP3   OH2 2612   4.803   7.502   3.900
  890TIP3    H1 2613   4.799   7.436   3.969
  890TIP3    H2 2614   4.814   7.585   3.947
  891TIP3   OH2 2615   0.806   1.682   6.398
  891TIP3    H1 2616   0.748   1.646   6.331
  891TIP3    H2 2617   0.829   1.769   6.366
  892TIP3   OH2 2618   3.251   1.686   5.325
  892TIP3    H1 2619   3.310   1.682   5.400
  892TIP3    H2 2620   3.223   1.595   5.311
  893TIP3   OH2 2621   0.367   3.282   5.883
  893TIP3    H1 2622   0.286   3.288   5.833
  893TIP3    H2 2623   0.384   3.188   5.890
  894TIP3   OH2 2624   1.380   5.820   3.606
  894TIP3    H1 2625   1.379   5.915   3.607
  894TIP3    H2 2626   1.358   5.794   3.696
  895TIP3   OH2 2627   2.073   4.081   6.222
  895TIP3    H1 2628   2.126   4.021   6.169
  895TIP3    H2 2629   2.025   4.024   6.282
  896TIP3   OH2 2630   6.269   1.061   5.963
  896TIP3    H1 2631   6.309   0.978   5.990
  896TIP3    H2 2632   6.246   1.048   5.871
  897TIP3   OH2 2633   4.740   4.318   3.225
  897TIP3    H1 2634   4.788   4.392   3.186
  897TIP3    H2 2635   4.760   4.324   3.319
  898TIP3   OH2 2636   2.959   6.998   2.625
  898TIP3    H1 2637   3.015   7.074   2.609
  898TIP3    H2 2638   2.944   6.960   2.539
  899TIP3   OH2 2639   3.206   6.358   0.064
  899TIP3    H1 2640   3.269   6.382  -0.004
  899TIP3    H2 2641   3.258   6.314   0.131
  900TIP3   OH2 2642   6.932   2.708   1.532
  900TIP3    H1 2643   6.895   2.738   1.616
  900TIP3    H2 2644   6.863   2.655   1.494
  901TIP3   OH2 2645   1.581   6.697   6.329
  901TIP3    H1 2646   1.597   6.664   6.417
  901TIP3    H2 2647   1.665   6.684   6.283
  902TIP3   OH2 2648   4.505   0.144   1.425
  902TIP3    H1 2649   4.581   0.199   1.402
  902TIP3    H2 2650   4.544   0.064   1.460
  903TIP3   OH2 2651   7.776   5.012   2.585
  903TIP3    H1 2652   7.711   5.019   2.515
  903TIP3    H2 2653   7.857   5.044   2.546
  904TIP3   OH2 2654   0.094   7.195   3.081
  904TIP3    H1 2655   0.086   7.245   3.163
  904TIP3    H2 2656   0.004   7.174   3.057
  905TIP3   OH2 2657   1.922   2.251   0.273
  905TIP3    H1 2658   2.014   2.268   0.252
  905TIP3    H2 2659   1.896   2.323   0.330
  906TIP3   OH2 2660   3.523   7.191   0.554
  906TIP3    H1 2661   3.484   7.171   0.639
  906TIP3    H2 2662   3.484   7.274   0.528
  907TIP3   OH2 2663   1.658   5.692   5.371
  907TIP3    H1 2664   1.678   5.781   5.401
  907TIP3    H2 2665   1.575   5.671   5.414
  908TIP3   OH2 2666   2.661   1.130   2.321
  908TIP3    H1 2667   2.681   1.037   2.317
  908TIP3    H2 2668   2.738   1.173   2.286
  909TIP3   OH2 2669   2.356   0.917   0.242
  909TIP3    H1 2670   2.261   0.924   0.227
  909TIP3    H2 2671   2.395   0.974   0.176
  910TIP3   OH2 2672   7.277   7.602   1.060
  910TIP3    H1 2673   7.319   7.668   1.116
  910TIP3    H2 2674   7.184   7.607   1.083
  911TIP3   OH2 2675   0.192   2.335   6.646
  911TIP3    H1 2676   0.270   2.358   6.697
  911TIP3    H2 2677   0.210   2.369   6.558
  912TIP3   OH2 2678   2.247   6.612   2.722
  912TIP3    H1 2679   2.203   6.541   2.675
  912TIP3    H2 2680   2.329   6.624   2.674
  913TIP3   OH2 2681   5.458   3.708   3.714
  913TIP3    H1 2682   5.469   3.781   3.654
  913TIP3    H2 2683   5.459   3.630   3.658
  914TIP3   OH2 2684   6.823   0.167   0.446
  914TIP3    H1 2685   6.844   0.089   0.496
  914TIP3    H2 2686   6.735   0.150   0.411
  915TIP3   OH2 2687   2.092   6.514   4.622
  915TIP3    H1 2688   2.183   6.483   4.620
  915TIP3    H2 2689   2.074   6.539   4.531
  916TIP3   OH2 2690   7.453   1.028   2.426
  916TIP3    H1 2691   7.542   1.004   2.402
  916TIP3    H2 2692   7.454   1.031   2.522
  917TIP3   OH2 2693   2.012   6.273   4.367
  917TIP3    H1 2694   2.036   6.202   4.307
  917TIP3    H2 2695   2.025   6.353   4.315
  918TIP3   OH2 2696   0.741   5.959   1.699
  918TIP3    H1 2697   0.712   5.899   1.768
  918TIP3    H2 2698   0.832   5.977   1.719
  919TIP3   OH2 2699   6.579   6.426   1.401
  919TIP3    H1 2700   6.594   6.481   1.478
  919TIP3    H2 2701   6.499   6.460   1.362
  920TIP3   OH2 2702   5.856   4.789   3.888
  920TIP3    H1 2703   5.905   4.766   3.809
  920TIP3    H2 2704   5.786   4.723   3.893
  921TIP3   OH2 2705   0.854   3.942   0.444
  921TIP3    H1 2706   0.807   4.015   0.405
  921TIP3    H2 2707   0.829   3.943   0.537
  922TIP3   OH2 2708   8.115   1.742   0.508
  922TIP3    H1 2709   8.094   1.750   0.415
  922TIP3    H2 2710   8.209   1.756   0.513
  923TIP3   OH2 2711   0.858   6.170   0.985
  923TIP3    H1 2712   0.834   6.245   1.038
  923TIP3    H2 2713   0.919   6.120   1.039
  924TIP3   OH2 2714   5.110   7.162   3.733
  924TIP3    H1 2715   5.090   7.080   3.688
  924TIP3    H2 2716   5.040   7.172   3.798
  925TIP3   OH2 2717   8.226   0.945   3.406
  925TIP3    H1 2718   8.223   0.908   3.494
  925TIP3    H2 2719   8.203   0.872   3.349
  926TIP3   OH2 2720   5.621   5.075   6.621
  926TIP3    H1 2721   5.672   4.999   6.649
  926TIP3    H2 2722   5.668   5.110   6.545
  927TIP3   OH2 2723   8.265   2.663   5.759
  927TIP3    H1 2724   8.206   2.637   5.830
  927TIP3    H2 2725   8.235   2.750   5.734
  928TIP3   OH2 2726   3.222   5.571   0.473
  928TIP3    H1 2727   3.161   5.603   0.540
  928TIP3    H2 2728   3.308   5.577   0.515
  929TIP3   OH2 2729   2.398   5.879   1.410
  929TIP3    H1 2730   2.320   5.835   1.442
  929TIP3    H2 2731   2.406   5.957   1.466
  930TIP3   OH2 2732   5.315   6.020   2.138
  930TIP3    H1 2733   5.319   6.021   2.042
  930TIP3    H2 2734   5.353   5.935   2.162
  931TIP3   OH2 2735   2.609   7.373   0.104
  931TIP3    H1 2736   2.608   7.357   0.009
  931TIP3    H2 2737   2.571   7.293   0.142
  932TIP3   OH2 2738   5.619   4.183   4.658
  932TIP3    H1 2739   5.612   4.156   4.567
  932TIP3    H2 2740   5.655   4.106   4.703
  933TIP3   OH2 2741   2.146   5.580   6.236
  933TIP3    H1 2742   2.183   5.504   6.281
  933TIP3    H2 2743   2.076   5.610   6.293
  934TIP3   OH2 2744   6.358   7.168   6.754
  934TIP3    H1 2745   6.409   7.092   6.724
  934TIP3    H2 2746   6.282   7.170   6.696
  935TIP3   OH2 2747   2.662   2.839   0.137
  935TIP3    H1 2748   2.657   2.927   0.173
  935TIP3    H2 2749   2.587   2.792   0.173
  936TIP3   OH2 2750   2.083   1.704   5.489
  936TIP3    H1 2751   2.070   1.610   5.475
  936TIP3    H2 2752   2.175   1.712   5.513
  937TIP3   OH2 2753   6.354   3.534   0.839
  937TIP3    H1 2754   6.403   3.510   0.918
  937TIP3    H2 2755   6.414   3.518   0.767
  938TIP3   OH2 2756   7.224   0.832   3.857
  938TIP3    H1 2757   7.138   0.793   3.841
  938TIP3    H2 2758   7.248   0.872   3.773
  939TIP3   OH2 2759   1.210   1.055   4.847
  939TIP3    H1 2760   1.271   1.112   4.893
  939TIP3    H2 2761   1.249   1.042   4.761
  940TIP3   OH2 2762   7.244   5.004   5.338
  940TIP3    H1 2763   7.216   5.091   5.309
  940TIP3    H2 2764   7.228   5.004   5.432
  941TIP3   OH2 2765   1.689   3.971   4.619
  941TIP3    H1 2766   1.754   4.038   4.599
  941TIP3    H2 2767   1.611   4.020   4.646
  942TIP3   OH2 2768   6.578   7.240   1.751
  942TIP3    H1 2769   6.586   7.317   1.808
  942TIP3    H2 2770   6.664   7.199   1.753
  943TIP3   OH2 2771   5.181   0.707   1.901
  943TIP3    H1 2772   5.154   0.693   1.811
  943TIP3    H2 2773   5.099   0.713   1.950
  944TIP3   OH2 2774   0.866   3.654   6.339
  944TIP3    H1 2775   0.837   3.693   6.421
  944TIP3    H2 2776   0.960   3.670   6.336
  945TIP3   OH2 2777   0.876   6.634   1.865
  945TIP3    H1 2778   0.783   6.654   1.853
  945TIP3    H2 2779   0.909   6.624   1.776
  946TIP3   OH2 2780   2.870   2.425   2.985
  946TIP3    H1 2781   2.836   2.512   2.962
  946TIP3    H2 2782   2.924   2.399   2.911
  947TIP3   OH2 2783   0.881   6.930   1.357
  947TIP3    H1 2784   0.863   6.845   1.397
  947TIP3    H2 2785   0.969   6.920   1.320
  948TIP3   OH2 2786   0.591   4.781   2.397
  948TIP3    H1 2787   0.555   4.748   2.479
  948TIP3    H2 2788   0.620   4.703   2.350
  949TIP3   OH2 2789   1.601   6.245   4.040
  949TIP3    H1 2790   1.677   6.202   4.079
  949TIP3    H2 2791   1.547   6.269   4.115
  950TIP3   OH2 2792   1.186   4.219   1.483
  950TIP3    H1 2793   1.190   4.128   1.513
  950TIP3    H2 2794   1.268   4.232   1.435
  951TIP3   OH2 2795   2.965   7.172   2.027
  951TIP3    H1 2796   2.998   7.089   2.062
  951TIP3    H2 2797   2.907   7.205   2.095
  952TIP3   OH2 2798   4.077   3.518   1.772
  952TIP3    H1 2799   4.147   3.492   1.712
  952TIP3    H2 2800   4.102   3.606   1.802
  953TIP3   OH2 2801   3.972   2.620   3.342
  953TIP3    H1 2802   3.908   2.636   3.273
  953TIP3    H2 2803   4.045   2.577   3.298
  954TIP3   OH2 2804   0.830   1.724   2.458
  954TIP3    H1 2805   0.796   1.763   2.538
  954TIP3    H2 2806   0.924   1.744   2.460
  955TIP3   OH2 2807   2.920   1.518   0.090
  955TIP3    H1 2808   2.841   1.570   0.075
  955TIP3    H2 2809   2.991   1.574   0.059
  956TIP3   OH2 2810   5.929   6.872   2.816
  956TIP3    H1 2811   5.861   6.905   2.875
  956TIP3    H2 2812   6.010   6.882   2.865
  957TIP3   OH2 2813   7.959   7.751   1.272
  957TIP3    H1 2814   7.905   7.677   1.246
  957TIP3    H2 2815   8.048   7.727   1.245
  958TIP3   OH2 2816   7.703   1.739   1.289
  958TIP3    H1 2817   7.673   1.748   1.198
  958TIP3    H2 2818   7.743   1.824   1.309
  959TIP3   OH2 2819   6.558   0.638   3.378
  959TIP3    H1 2820   6.638   0.638   3.325
  959TIP3    H2 2821   6.575   0.703   3.446
  960TIP3   OH2 2822   7.956   4.699   4.033
  960TIP3    H1 2823   8.022   4.674   3.968
  960TIP3    H2 2824   7.957   4.795   4.032
  961TIP3   OH2 2825   1.477   4.646   2.750
  961TIP3    H1 2826   1.444   4.556   2.736
  961TIP3    H2 2827   1.546   4.656   2.685
  962TIP3   OH2 2828   0.147   1.570   5.927
  962TIP3    H1 2829   0.053   1.558   5.940
  962TIP3    H2 2830   0.169   1.508   5.857
  963TIP3   OH2 2831   6.015   5.131   5.971
  963TIP3    H1 2832   6.083   5.181   6.017
  963TIP3    H2 2833   5.943   5.193   5.960
  964TIP3   OH2 2834   4.939   6.076   4.243
  964TIP3    H1 2835   4.969   6.105   4.329
  964TIP3    H2 2836   5.020   6.053   4.196
  965TIP3   OH2 2837   2.087   3.935   6.492
  965TIP3    H1 2838   2.041   4.010   6.456
  965TIP3    H2 2839   2.052   3.860   6.443
  966TIP3   OH2 2840   5.627   0.728   5.760
  966TIP3    H1 2841   5.671   0.755   5.840
  966TIP3    H2 2842   5.551   0.677   5.790
  967TIP3   OH2 2843   4.169   0.537   3.197
  967TIP3    H1 2844   4.263   0.520   3.199
  967TIP3    H2 2845   4.162   0.631   3.180
  968TIP3   OH2 2846   7.959   7.409   0.208
  968TIP3    H1 2847   7.995   7.488   0.169
  968TIP3    H2 2848   7.917   7.363   0.135
  969TIP3   OH2 2849   7.674   6.634   6.278
  969TIP3    H1 2850   7.608   6.565   6.286
  969TIP3    H2 2851   7.641   6.705   6.332
  970TIP3   OH2 2852   0.746   4.062   1.481
  970TIP3    H1 2853   0.842   4.067   1.482
  970TIP3    H2 2854   0.719   4.094   1.567
  971TIP3   OH2 2855   3.157   1.133   5.292
  971TIP3    H1 2856   3.197   1.190   5.358
  971TIP3    H2 2857   3.116   1.192   5.230
  972TIP3   OH2 2858   4.805   0.645   4.423
  972TIP3    H1 2859   4.737   0.702   4.460
  972TIP3    H2 2860   4.854   0.702   4.364
  973TIP3   OH2 2861   8.234   5.741   2.514
  973TIP3    H1 2862   8.289   5.818   2.500
  973TIP3    H2 2863   8.282   5.669   2.473
  974TIP3   OH2 2864   2.065   2.617   1.190
  974TIP3    H1 2865   2.070   2.708   1.221
  974TIP3    H2 2866   1.989   2.580   1.236
  975TIP3   OH2 2867   7.910   0.611   3.726
  975TIP3    H1 2868   7.849   0.538   3.729
  975TIP3    H2 2869   7.858   0.684   3.692
  976TIP3   OH2 2870   5.625   5.973   1.362
  976TIP3    H1 2871   5.652   5.883   1.378
  976TIP3    H2 2872   5.703   6.025   1.378
  977TIP3   OH2 2873   7.087   3.610   1.263
  977TIP3    H1 2874   7.177   3.640   1.251
  977TIP3    H2 2875   7.039   3.652   1.192
  978TIP3   OH2 2876   5.705   0.057   4.985
  978TIP3    H1 2877   5.719  -0.037   4.997
  978TIP3    H2 2878   5.693   0.092   5.074
  979TIP3   OH2 2879   0.903   6.538   6.164
  979TIP3    H1 2880   0.841   6.567   6.231
  979TIP3    H2 2881   0.962   6.479   6.210
  980TIP3   OH2 2882   7.555   6.474   0.393
  980TIP3    H1 2883   7.555   6.385   0.427
  980TIP3    H2 2884   7.480   6.516   0.436
  981TIP3   OH2 2885   1.440   0.765   0.360
  981TIP3    H1 2886   1.351   0.747   0.390
  981TIP3    H2 2887   1.460   0.696   0.297
  982TIP3   OH2 2888   4.700   1.598   2.088
  982TIP3    H1 2889   4.768   1.541   2.053
  982TIP3    H2 2890   4.733   1.687   2.072
  983TIP3   OH2 2891   5.835   6.422   1.149
  983TIP3    H1 2892   5.813   6.452   1.237
  983TIP3    H2 2893   5.930   6.408   1.152
  984TIP3   OH2 2894   5.989   6.650   2.475
  984TIP3    H1 2895   6.041   6.670   2.553
  984TIP3    H2 2896   5.908   6.612   2.509
  985TIP3   OH2 2897   2.348   7.509   0.759
  985TIP3    H1 2898   2.403   7.432   0.748
  985TIP3    H2 2899   2.330   7.539   0.670
  986TIP3   OH2 2900   7.123   6.507   6.348
  986TIP3    H1 2901   7.064   6.487   6.420
  986TIP3    H2 2902   7.160   6.592   6.370
  987TIP3   OH2 2903   4.315   5.445   5.980
  987TIP3    H1 2904   4.381   5.459   6.049
  987TIP3    H2 2905   4.232   5.437   6.027
  988TIP3   OH2 2906   7.246   2.473   4.769
  988TIP3    H1 2907   7.285   2.546   4.722
  988TIP3    H2 2908   7.164   2.455   4.722
  989TIP3   OH2 2909   1.704   1.544   4.133
  989TIP3    H1 2910   1.616   1.581   4.138
  989TIP3    H2 2911   1.757   1.612   4.093
  990TIP3   OH2 2912   0.066   0.113   3.795
  990TIP3    H1 2913   0.022   0.126   3.712
  990TIP3    H2 2914   0.002   0.138   3.861
  991TIP3   OH2 2915   7.407   0.365   3.789
  991TIP3    H1 2916   7.449   0.411   3.862
  991TIP3    H2 2917   7.478   0.315   3.748
  992TIP3   OH2 2918   6.122   1.596   5.092
  992TIP3    H1 2919   6.091   1.685   5.080
  992TIP3    H2 2920   6.205   1.593   5.045
  993TIP3   OH2 2921   5.471   1.722   3.579
  993TIP3    H1 2922   5.425   1.718   3.495
  993TIP3    H2 2923   5.411   1.770   3.636
  994TIP3   OH2 2924   4.420   7.701   1.537
  994TIP3    H1 2925   4.408   7.794   1.519
  994TIP3    H2 2926   4.411   7.658   1.452
  995TIP3   OH2 2927   4.718   0.529   4.939
  995TIP3    H1 2928   4.785   0.477   4.983
  995TIP3    H2 2929   4.759   0.614   4.923
  996TIP3   OH2 2930   2.514   0.122   3.418
  996TIP3    H1 2931   2.454   0.173   3.364
  996TIP3    H2 2932   2.601   0.156   3.397
  997TIP3   OH2 2933   8.058   1.504   5.083
  997TIP3    H1 2934   8.006   1.428   5.108
  997TIP3    H2 2935   8.029   1.525   4.994
  998TIP3   OH2 2936   7.375   5.134   4.734
  998TIP3    H1 2937   7.387   5.039   4.733
  998TIP3    H2 2938   7.280   5.146   4.724
  999TIP3   OH2 2939   8.230   0.246   5.074
  999TIP3    H1 2940   8.198   0.177   5.016
  999TIP3    H2 2941   8.170   0.320   5.059
 1000TIP3   OH2 2942   1.138   0.033   3.393
 1000TIP3    H1 2943   1.062   0.033   3.451
 1000TIP3    H2 2944   1.212   0.014   3.450
 1001TIP3   OH2 2945   4.829   2.758   0.550
 1001TIP3    H1 2946   4.765   2.756   0.621
 1001TIP3    H2 2947   4.827   2.848   0.518
 1002TIP3   OH2 2948   3.611   3.093   4.503
 1002TIP3    H1 2949   3.700   3.082   4.534
 1002TIP3    H2 2950   3.557   3.048   4.568
 1003TIP3   OH2 2951   5.612   4.876   0.124
 1003TIP3    H1 2952   5.550   4.893   0.053
 1003TIP3    H2 2953   5.651   4.962   0.143
 1004TIP3   OH2 2954   6.909   6.691   6.057
 1004TIP3    H1 2955   6.966   6.636   6.112
 1004TIP3    H2 2956   6.843   6.724   6.118
 1005TIP3   OH2 2957   2.948   4.082   6.139
 1005TIP3    H1 2958   2.999   4.042   6.210
 1005TIP3    H2 2959   2.930   4.010   6.079
 1006TIP3   OH2 2960   5.497   6.480   3.317
 1006TIP3    H1 2961   5.466   6.565   3.287
 1006TIP3    H2 2962   5.569   6.459   3.258
 1007TIP3   OH2 2963   2.709   5.104   5.572
 1007TIP3    H1 2964   2.803   5.084   5.564
 1007TIP3    H2 2965   2.680   5.052   5.647
 1008TIP3   OH2 2966   8.202   2.600   0.395
 1008TIP3    H1 2967   8.121   2.549   0.386
 1008TIP3    H2 2968   8.271   2.535   0.399
 1009TIP3   OH2 2969   4.611   3.886   6.328
 1009TIP3    H1 2970   4.606   3.891   6.232
 1009TIP3    H2 2971   4.547   3.819   6.352
 1010TIP3   OH2 2972   5.981   4.011   2.891
 1010TIP3    H1 2973   5.935   4.035   2.972
 1010TIP3    H2 2974   5.957   3.920   2.876
 1011TIP3   OH2 2975   2.348   7.211   6.000
 1011TIP3    H1 2976   2.371   7.285   5.944
 1011TIP3    H2 2977   2.361   7.134   5.945
 1012TIP3   OH2 2978   4.942   2.333   4.094
 1012TIP3    H1 2979   4.976   2.351   4.007
 1012TIP3    H2 2980   4.888   2.255   4.083
 1013TIP3   OH2 2981   4.414   6.452   2.870
 1013TIP3    H1 2982   4.406   6.368   2.825
 1013TIP3    H2 2983   4.480   6.500   2.820
 1014TIP3   OH2 2984   7.594   5.118   3.777
 1014TIP3    H1 2985   7.648   5.102   3.854
 1014TIP3    H2 2986   7.567   5.209   3.786
 1015TIP3   OH2 2987   1.022   5.499   1.372
 1015TIP3    H1 2988   0.961   5.430   1.344
 1015TIP3    H2 2989   1.017   5.499   1.467
 1016TIP3   OH2 2990   5.478   6.093   0.873
 1016TIP3    H1 2991   5.525   6.053   0.946
 1016TIP3    H2 2992   5.406   6.033   0.855
 1017TIP3   OH2 2993   0.088   5.131   1.428
 1017TIP3    H1 2994   0.038   5.146   1.347
 1017TIP3    H2 2995   0.069   5.040   1.451
 1018TIP3   OH2 2996   7.389   5.835   3.591
 1018TIP3    H1 2997   7.323   5.901   3.571
 1018TIP3    H2 2998   7.471   5.873   3.558
 1019TIP3   OH2 2999   1.466   2.783   1.024
 1019TIP3    H1 3000   1.379   2.775   1.064
 1019TIP3    H2 3001   1.470   2.874   0.994
 1020TIP3   OH2 3002   0.750   6.766   0.115
 1020TIP3    H1 3003   0.800   6.742   0.037
 1020TIP3    H2 3004   0.795   6.843   0.149
 1021TIP3   OH2 3005   2.629   6.933   4.452
 1021TIP3    H1 3006   2.634   6.891   4.537
 1021TIP3    H2 3007   2.629   6.861   4.389
 1022TIP3   OH2 3008   1.878   1.355   2.368
 1022TIP3    H1 3009   1.945   1.380   2.431
 1022TIP3    H2 3010   1.915   1.280   2.322
 1023TIP3   OH2 3011   1.477   6.544   1.711
 1023TIP3    H1 3012   1.428   6.480   1.762
 1023TIP3    H2 3013   1.418   6.568   1.640
 1024TIP3   OH2 3014   7.405   3.002   5.109
 1024TIP3    H1 3015   7.389   2.931   5.047
 1024TIP3    H2 3016   7.328   3.058   5.102
 1025TIP3   OH2 3017   1.176   1.834   4.904
 1025TIP3    H1 3018   1.091   1.862   4.870
 1025TIP3    H2 3019   1.201   1.902   4.966
 1026TIP3   OH2 3020   3.843   7.105   3.656
 1026TIP3    H1 3021   3.866   7.063   3.574
 1026TIP3    H2 3022   3.767   7.159   3.635
 1027TIP3   OH2 3023   5.784   3.556   6.370
 1027TIP3    H1 3024   5.805   3.645   6.342
 1027TIP3    H2 3025   5.734   3.519   6.297
 1028TIP3   OH2 3026   5.182   6.702   0.092
 1028TIP3    H1 3027   5.090   6.682   0.073
 1028TIP3    H2 3028   5.187   6.704   0.187
 1029TIP3   OH2 3029   2.007   3.791   1.949
 1029TIP3    H1 3030   1.913   3.808   1.949
 1029TIP3    H2 3031   2.045   3.867   1.994
 1030TIP3   OH2 3032   0.100   3.709   6.758
 1030TIP3    H1 3033   0.011   3.742   6.743
 1030TIP3    H2 3034   0.154   3.788   6.758
 1031TIP3   OH2 3035   7.733   0.531   5.399
 1031TIP3    H1 3036   7.828   0.542   5.393
 1031TIP3    H2 3037   7.698   0.619   5.380
 1032TIP3   OH2 3038   0.561   3.745   5.570
 1032TIP3    H1 3039   0.545   3.650   5.566
 1032TIP3    H2 3040   0.655   3.753   5.587
 1033TIP3   OH2 3041   4.269   0.860   0.802
 1033TIP3    H1 3042   4.303   0.901   0.882
 1033TIP3    H2 3043   4.339   0.873   0.737
 1034TIP3   OH2 3044   8.264   2.207   2.134
 1034TIP3    H1 3045   8.324   2.170   2.199
 1034TIP3    H2 3046   8.182   2.161   2.148
 1035TIP3   OH2 3047   2.016   7.202   0.380
 1035TIP3    H1 3048   2.067   7.124   0.358
 1035TIP3    H2 3049   2.075   7.275   0.362
 1036TIP3   OH2 3050   4.316   2.531   3.318
 1036TIP3    H1 3051   4.240   2.512   3.263
 1036TIP3    H2 3052   4.293   2.497   3.404
 1037TIP3   OH2 3053   6.062   1.622   4.212
 1037TIP3    H1 3054   6.091   1.650   4.125
 1037TIP3    H2 3055   6.032   1.702   4.254
 1038TIP3   OH2 3056   5.133   3.177   4.809
 1038TIP3    H1 3057   5.215   3.128   4.807
 1038TIP3    H2 3058   5.092   3.152   4.891
 1039TIP3   OH2 3059   5.788   6.447   3.287
 1039TIP3    H1 3060   5.790   6.440   3.382
 1039TIP3    H2 3061   5.788   6.541   3.270
 1040TIP3   OH2 3062   7.064   0.904   4.796
 1040TIP3    H1 3063   7.061   0.952   4.879
 1040TIP3    H2 3064   7.000   0.948   4.741
 1041TIP3   OH2 3065   2.775   4.149   2.631
 1041TIP3    H1 3066   2.721   4.212   2.678
 1041TIP3    H2 3067   2.796   4.082   2.695
 1042TIP3   OH2 3068   6.924   0.276   4.867
 1042TIP3    H1 3069   6.954   0.316   4.786
 1042TIP3    H2 3070   6.919   0.348   4.930
 1043TIP3   OH2 3071   5.515   4.898   4.034
 1043TIP3    H1 3072   5.444   4.931   4.088
 1043TIP3    H2 3073   5.581   4.968   4.035
 1044TIP3   OH2 3074   5.572   5.310   5.038
 1044TIP3    H1 3075   5.477   5.314   5.028
 1044TIP3    H2 3076   5.589   5.223   5.074
 1045TIP3   OH2 3077   2.720   1.058   6.636
 1045TIP3    H1 3078   2.628   1.077   6.654
 1045TIP3    H2 3079   2.762   1.144   6.631
 1046TIP3   OH2 3080   6.636   5.239   5.281
 1046TIP3    H1 3081   6.635   5.233   5.185
 1046TIP3    H2 3082   6.682   5.160   5.310
 1047TIP3   OH2 3083   1.083   6.026   6.692
 1047TIP3    H1 3084   1.165   6.036   6.644
 1047TIP3    H2 3085   1.108   5.983   6.774
 1048TIP3   OH2 3086   2.862   3.762   6.177
 1048TIP3    H1 3087   2.952   3.732   6.186
 1048TIP3    H2 3088   2.859   3.808   6.094
 1049TIP3   OH2 3089   4.580   2.262   6.622
 1049TIP3    H1 3090   4.516   2.333   6.631
 1049TIP3    H2 3091   4.619   2.275   6.535
 1050TIP3   OH2 3092   0.089   3.050   0.591
 1050TIP3    H1 3093   0.062   3.068   0.501
 1050TIP3    H2 3094   0.043   3.115   0.643
 1051TIP3   OH2 3095   4.620   1.841   3.448
 1051TIP3    H1 3096   4.574   1.821   3.529
 1051TIP3    H2 3097   4.658   1.927   3.463
 1052TIP3   OH2 3098   7.203   4.721   4.830
 1052TIP3    H1 3099   7.218   4.778   4.905
 1052TIP3    H2 3100   7.188   4.780   4.756
 1053TIP3   OH2 3101   2.648   7.513   3.255
 1053TIP3    H1 3102   2.707   7.557   3.194
 1053TIP3    H2 3103   2.701   7.499   3.333
 1054TIP3   OH2 3104   6.541   6.218   3.668
 1054TIP3    H1 3105   6.576   6.283   3.608
 1054TIP3    H2 3106   6.539   6.263   3.753
 1055TIP3   OH2 3107   0.397   3.852   1.605
 1055TIP3    H1 3108   0.322   3.793   1.596
 1055TIP3    H2 3109   0.431   3.862   1.516
 1056TIP3   OH2 3110   5.689   7.478   4.957
 1056TIP3    H1 3111   5.733   7.558   4.927
 1056TIP3    H2 3112   5.691   7.484   5.052
 1057TIP3   OH2 3113   0.645   4.385   3.094
 1057TIP3    H1 3114   0.612   4.474   3.077
 1057TIP3    H2 3115   0.566   4.331   3.103
 1058TIP3   OH2 3116   1.315   6.050   6.539
 1058TIP3    H1 3117   1.398   6.084   6.571
 1058TIP3    H2 3118   1.292   6.107   6.465
 1059TIP3   OH2 3119   4.019   3.651   5.326
 1059TIP3    H1 3120   4.045   3.704   5.402
 1059TIP3    H2 3121   4.052   3.699   5.250
 1060TIP3   OH2 3122   1.706   7.358   0.839
 1060TIP3    H1 3123   1.757   7.339   0.760
 1060TIP3    H2 3124   1.629   7.405   0.807
 1061TIP3   OH2 3125   7.244   7.807   1.329
 1061TIP3    H1 3126   7.188   7.802   1.406
 1061TIP3    H2 3127   7.311   7.740   1.344
 1062TIP3   OH2 3128   0.572   1.211   5.649
 1062TIP3    H1 3129   0.589   1.304   5.638
 1062TIP3    H2 3130   0.543   1.202   5.740
 1063TIP3   OH2 3131   5.883   5.720   0.797
 1063TIP3    H1 3132   5.944   5.648   0.778
 1063TIP3    H2 3133   5.835   5.692   0.875
 1064TIP3   OH2 3134   1.797   7.664   1.837
 1064TIP3    H1 3135   1.842   7.599   1.891
 1064TIP3    H2 3136   1.816   7.747   1.880
 1065TIP3   OH2 3137   5.361   5.752   6.266
 1065TIP3    H1 3138   5.431   5.716   6.321
 1065TIP3    H2 3139   5.281   5.736   6.315
 1066TIP3   OH2 3140   4.195   6.555   0.551
 1066TIP3    H1 3141   4.149   6.630   0.512
 1066TIP3    H2 3142   4.157   6.547   0.639
 1067TIP3   OH2 3143   4.952   4.818   5.907
 1067TIP3    H1 3144   4.976   4.832   5.999
 1067TIP3    H2 3145   4.857   4.830   5.906
 1068TIP3   OH2 3146   3.605   7.601   2.090
 1068TIP3    H1 3147   3.578   7.692   2.077
 1068TIP3    H2 3148   3.629   7.570   2.003
 1069TIP3   OH2 3149   4.879   4.824   1.535
 1069TIP3    H1 3150   4.818   4.759   1.568
 1069TIP3    H2 3151   4.899   4.795   1.446
 1070TIP3   OH2 3152   0.053   5.975   0.260
 1070TIP3    H1 3153   0.140   5.978   0.302
 1070TIP3    H2 3154   0.014   6.060   0.279
 1071TIP3   OH2 3155   8.029   3.222   5.991
 1071TIP3    H1 3156   7.968   3.176   5.933
 1071TIP3    H2 3157   7.997   3.203   6.079
 1072TIP3   OH2 3158   4.714   4.845   1.201
 1072TIP3    H1 3159   4.718   4.872   1.110
 1072TIP3    H2 3160   4.741   4.922   1.250
 1073TIP3   OH2 3161   6.486   5.710   5.714
 1073TIP3    H1 3162   6.434   5.745   5.641
 1073TIP3    H2 3163   6.510   5.621   5.686
 1074TIP3   OH2 3164   5.806   2.659   4.870
 1074TIP3    H1 3165   5.825   2.747   4.901
 1074TIP3    H2 3166   5.890   2.613   4.878
 1075TIP3   OH2 3167   6.461   2.196   4.945
 1075TIP3    H1 3168   6.428   2.266   4.889
 1075TIP3    H2 3169   6.389   2.178   5.005
 1076TIP3   OH2 3170   8.118   5.873   3.488
 1076TIP3    H1 3171   8.209   5.890   3.462
 1076TIP3    H2 3172   8.110   5.915   3.574
 1077TIP3   OH2 3173   5.260   4.032   0.498
 1077TIP3    H1 3174   5.331   3.968   0.500
 1077TIP3    H2 3175   5.202   4.001   0.428
 1078TIP3   OH2 3176   4.054   5.425   6.106
 1078TIP3    H1 3177   4.076   5.427   6.199
 1078TIP3    H2 3178   4.056   5.517   6.079
 1079TIP3   OH2 3179   0.394   6.300   2.997
 1079TIP3    H1 3180   0.426   6.240   3.065
 1079TIP3    H2 3181   0.341   6.364   3.044
 1080TIP3   OH2 3182   4.345   7.035   4.176
 1080TIP3    H1 3183   4.408   7.040   4.247
 1080TIP3    H2 3184   4.308   6.947   4.183
 1081TIP3   OH2 3185   7.120   5.606   1.328
 1081TIP3    H1 3186   7.083   5.519   1.343
 1081TIP3    H2 3187   7.068   5.664   1.384
 1082TIP3   OH2 3188   1.365   6.432   3.939
 1082TIP3    H1 3189   1.439   6.400   3.991
 1082TIP3    H2 3190   1.297   6.366   3.950
 1083TIP3   OH2 3191   4.856   1.883   4.860
 1083TIP3    H1 3192   4.829   1.975   4.854
 1083TIP3    H2 3193   4.840   1.859   4.951
 1084TIP3   OH2 3194   4.480   1.935   5.168
 1084TIP3    H1 3195   4.457   1.939   5.260
 1084TIP3    H2 3196   4.409   1.980   5.123
 1085TIP3   OH2 3197   5.883   5.325   3.131
 1085TIP3    H1 3198   5.883   5.267   3.054
 1085TIP3    H2 3199   5.802   5.304   3.177
 1086TIP3   OH2 3200   0.632   4.038   5.207
 1086TIP3    H1 3201   0.575   4.047   5.131
 1086TIP3    H2 3202   0.625   4.121   5.254
 1087TIP3   OH2 3203   3.312   5.192   2.055
 1087TIP3    H1 3204   3.381   5.196   2.122
 1087TIP3    H2 3205   3.353   5.230   1.977
 1088TIP3   OH2 3206   6.777   5.557   1.410
 1088TIP3    H1 3207   6.800   5.506   1.332
 1088TIP3    H2 3208   6.748   5.492   1.474
 1089TIP3   OH2 3209   4.219   4.573   5.465
 1089TIP3    H1 3210   4.168   4.497   5.438
 1089TIP3    H2 3211   4.308   4.540   5.473
 1090TIP3   OH2 3212   0.156   6.782   1.974
 1090TIP3    H1 3213   0.109   6.784   2.057
 1090TIP3    H2 3214   0.095   6.820   1.911
 1091TIP3   OH2 3215   1.092   7.871   5.748
 1091TIP3    H1 3216   1.044   7.803   5.795
 1091TIP3    H2 3217   1.132   7.824   5.674
 1092TIP3   OH2 3218   7.310   6.592   2.008
 1092TIP3    H1 3219   7.223   6.595   2.049
 1092TIP3    H2 3220   7.371   6.602   2.081
 1093TIP3   OH2 3221   3.849   4.034   0.821
 1093TIP3    H1 3222   3.850   4.026   0.725
 1093TIP3    H2 3223   3.934   4.073   0.842
 1094TIP3   OH2 3224   0.733   7.133   4.800
 1094TIP3    H1 3225   0.698   7.163   4.717
 1094TIP3    H2 3226   0.791   7.204   4.828
 1095TIP3   OH2 3227   0.771   4.742   2.777
 1095TIP3    H1 3228   0.737   4.818   2.823
 1095TIP3    H2 3229   0.806   4.777   2.695
 1096TIP3   OH2 3230   0.780   6.070   0.603
 1096TIP3    H1 3231   0.750   6.069   0.512
 1096TIP3    H2 3232   0.826   6.154   0.613
 1097TIP3   OH2 3233   0.369   4.907   1.821
 1097TIP3    H1 3234   0.339   4.994   1.849
 1097TIP3    H2 3235   0.441   4.925   1.760
 1098TIP3   OH2 3236   1.679   1.648   1.963
 1098TIP3    H1 3237   1.745   1.615   2.024
 1098TIP3    H2 3238   1.597   1.608   1.992
 1099TIP3   OH2 3239   6.773   4.063   3.255
 1099TIP3    H1 3240   6.765   4.030   3.166
 1099TIP3    H2 3241   6.863   4.044   3.280
 1100TIP3   OH2 3242   0.215   1.407   3.640
 1100TIP3    H1 3243   0.197   1.332   3.583
 1100TIP3    H2 3244   0.158   1.477   3.606
 1101TIP3   OH2 3245   3.246   6.607   2.066
 1101TIP3    H1 3246   3.217   6.611   2.157
 1101TIP3    H2 3247   3.292   6.689   2.051
 1102TIP3   OH2 3248   0.390   0.803   0.211
 1102TIP3    H1 3249   0.413   0.875   0.269
 1102TIP3    H2 3250   0.474   0.761   0.190
 1103TIP3   OH2 3251   6.155   5.874   4.148
 1103TIP3    H1 3252   6.098   5.852   4.221
 1103TIP3    H2 3253   6.160   5.794   4.096
 1104TIP3   OH2 3254   2.638   3.823   5.011
 1104TIP3    H1 3255   2.551   3.863   5.013
 1104TIP3    H2 3256   2.684   3.863   5.085
 1105TIP3   OH2 3257   5.415   4.930   6.493
 1105TIP3    H1 3258   5.432   4.953   6.402
 1105TIP3    H2 3259   5.492   4.961   6.540
 1106TIP3   OH2 3260   7.007   5.650   0.183
 1106TIP3    H1 3261   6.925   5.633   0.136
 1106TIP3    H2 3262   7.068   5.584   0.150
 1107TIP3   OH2 3263   8.279   5.304   2.586
 1107TIP3    H1 3264   8.260   5.375   2.525
 1107TIP3    H2 3265   8.294   5.228   2.529
 1108TIP3   OH2 3266   7.024   7.775   5.658
 1108TIP3    H1 3267   7.015   7.680   5.660
 1108TIP3    H2 3268   7.072   7.797   5.738
 1109TIP3   OH2 3269   4.205   0.538   0.628
 1109TIP3    H1 3270   4.254   0.465   0.667
 1109TIP3    H2 3271   4.163   0.582   0.702
 1110TIP3   OH2 3272   5.413   3.760   5.586
 1110TIP3    H1 3273   5.318   3.755   5.576
 1110TIP3    H2 3274   5.444   3.807   5.508
 1111TIP3   OH2 3275   4.686   4.527   1.013
 1111TIP3    H1 3276   4.740   4.502   1.087
 1111TIP3    H2 3277   4.713   4.617   0.993
 1112TIP3   OH2 3278   6.200   0.988   3.578
 1112TIP3    H1 3279   6.219   0.927   3.506
 1112TIP3    H2 3280   6.107   0.974   3.596
 1113TIP3   OH2 3281   4.894   2.469   2.312
 1113TIP3    H1 3282   4.947   2.390   2.321
 1113TIP3    H2 3283   4.872   2.493   2.401
 1114TIP3   OH2 3284   4.819   5.286   6.626
 1114TIP3    H1 3285   4.769   5.367   6.620
 1114TIP3    H2 3286   4.760   5.219   6.590
 1115TIP3   OH2 3287   3.209   2.890   3.733
 1115TIP3    H1 3288   3.292   2.934   3.748
 1115TIP3    H2 3289   3.176   2.870   3.821
 1116TIP3   OH2 3290   5.330   7.047   5.739
 1116TIP3    H1 3291   5.343   6.990   5.814
 1116TIP3    H2 3292   5.396   7.018   5.675
 1117TIP3   OH2 3293   4.111   2.696   0.900
 1117TIP3    H1 3294   4.095   2.684   0.993
 1117TIP3    H2 3295   4.067   2.778   0.878
 1118TIP3   OH2 3296   6.819   5.869   2.943
 1118TIP3    H1 3297   6.801   5.893   2.852
 1118TIP3    H2 3298   6.829   5.953   2.988
 1119TIP3   OH2 3299   5.200   4.129   0.217
 1119TIP3    H1 3300   5.269   4.195   0.209
 1119TIP3    H2 3301   5.129   4.162   0.162
 1120TIP3   OH2 3302   4.988   2.773   4.986
 1120TIP3    H1 3303   4.922   2.704   4.994
 1120TIP3    H2 3304   4.985   2.819   5.070
 1121TIP3   OH2 3305   4.665   3.898   4.789
 1121TIP3    H1 3306   4.692   3.980   4.748
 1121TIP3    H2 3307   4.728   3.886   4.860
 1122TIP3   OH2 3308   0.947   5.256   4.102
 1122TIP3    H1 3309   0.869   5.260   4.048
 1122TIP3    H2 3310   0.914   5.242   4.191
 1123TIP3   OH2 3311   0.016   0.971   0.033
 1123TIP3    H1 3312  -0.041   1.039   0.070
 1123TIP3    H2 3313   0.068   1.017  -0.033
 1124TIP3   OH2 3314   6.427   5.408   4.900
 1124TIP3    H1 3315   6.472   5.462   4.965
 1124TIP3    H2 3316   6.346   5.381   4.942
 1125TIP3   OH2 3317   5.402   5.097   0.272
 1125TIP3    H1 3318   5.447   5.143   0.201
 1125TIP3    H2 3319   5.439   5.134   0.352
 1126TIP3   OH2 3320   3.879   0.496   2.335
 1126TIP3    H1 3321   3.885   0.556   2.409
 1126TIP3    H2 3322   3.970   0.473   2.316
 1127TIP3   OH2 3323   4.864   4.194   3.700
 1127TIP3    H1 3324   4.785   4.141   3.705
 1127TIP3    H2 3325   4.849   4.255   3.628
 1128TIP3   OH2 3326   7.461   3.294   4.274
 1128TIP3    H1 3327   7.528   3.242   4.230
 1128TIP3    H2 3328   7.505   3.375   4.299
 1129TIP3   OH2 3329   6.229   1.399   4.590
 1129TIP3    H1 3330   6.163   1.339   4.554
 1129TIP3    H2 3331   6.244   1.368   4.679
 1130TIP3   OH2 3332   4.136   5.958   2.588
 1130TIP3    H1 3333   4.128   6.052   2.605
 1130TIP3    H2 3334   4.216   5.950   2.536
 1131TIP3   OH2 3335   4.742   6.004   6.359
 1131TIP3    H1 3336   4.831   6.034   6.345
 1131TIP3    H2 3337   4.751   5.915   6.393
 1132TIP3   OH2 3338   2.716   1.550   2.135
 1132TIP3    H1 3339   2.684   1.475   2.186
 1132TIP3    H2 3340   2.742   1.512   2.051
 1133TIP3   OH2 3341   4.295   0.297   4.068
 1133TIP3    H1 3342   4.200   0.308   4.068
 1133TIP3    H2 3343   4.324   0.336   3.986
 1134TIP3   OH2 3344   4.541   6.093   0.344
 1134TIP3    H1 3345   4.611   6.042   0.303
 1134TIP3    H2 3346   4.562   6.091   0.437
 1135TIP3   OH2 3347   1.115   1.375   5.689
 1135TIP3    H1 3348   1.211   1.366   5.695
 1135TIP3    H2 3349   1.096   1.459   5.731
 1136TIP3   OH2 3350   4.569   4.655   0.186
 1136TIP3    H1 3351   4.532   4.655   0.097
 1136TIP3    H2 3352   4.571   4.748   0.210
 1137TIP3   OH2 3353   4.989   3.435   4.063
 1137TIP3    H1 3354   4.901   3.446   4.026
 1137TIP3    H2 3355   4.998   3.340   4.072
 1138TIP3   OH2 3356   8.064   1.687   2.451
 1138TIP3    H1 3357   8.119   1.640   2.388
 1138TIP3    H2 3358   8.001   1.621   2.481
 1139TIP3   OH2 3359   4.607   5.783   5.420
 1139TIP3    H1 3360   4.523   5.739   5.432
 1139TIP3    H2 3361   4.671   5.728   5.465
 1140TIP3   OH2 3362   5.986   1.603   0.579
 1140TIP3    H1 3363   5.937   1.526   0.550
 1140TIP3    H2 3364   5.937   1.678   0.545
 1141TIP3   OH2 3365   2.369   1.364   5.570
 1141TIP3    H1 3366   2.361   1.364   5.474
 1141TIP3    H2 3367   2.449   1.414   5.588
 1142TIP3   OH2 3368   4.403   0.559   1.310
 1142TIP3    H1 3369   4.314   0.524   1.308
 1142TIP3    H2 3370   4.392   0.653   1.319
 1143TIP3   OH2 3371   8.282   1.051   1.136
 1143TIP3    H1 3372   8.202   1.042   1.084
 1143TIP3    H2 3373   8.252   1.074   1.224
 1144TIP3   OH2 3374   5.470   0.096   3.757
 1144TIP3    H1 3375   5.470   0.187   3.726
 1144TIP3    H2 3376   5.560   0.081   3.786
 1145TIP3   OH2 3377   2.890   3.578   3.754
 1145TIP3    H1 3378   2.812   3.531   3.782
 1145TIP3    H2 3379   2.877   3.591   3.660
 1146TIP3   OH2 3380   6.494   1.249   5.995
 1146TIP3    H1 3381   6.433   1.175   5.999
 1146TIP3    H2 3382   6.531   1.245   5.907
 1147TIP3   OH2 3383   3.016   7.288   4.988
 1147TIP3    H1 3384   2.942   7.288   5.049
 1147TIP3    H2 3385   3.055   7.375   4.997
 1148TIP3   OH2 3386   2.210   3.890   3.024
 1148TIP3    H1 3387   2.292   3.927   3.055
 1148TIP3    H2 3388   2.158   3.876   3.103
 1149TIP3   OH2 3389   8.184   4.542   2.829
 1149TIP3    H1 3390   8.190   4.483   2.754
 1149TIP3    H2 3391   8.192   4.485   2.905
 1150TIP3   OH2 3392   3.180   7.484   2.442
 1150TIP3    H1 3393   3.135   7.516   2.364
 1150TIP3    H2 3394   3.264   7.531   2.442
 1151TIP3   OH2 3395   5.811   0.592   0.950
 1151TIP3    H1 3396   5.884   0.591   0.889
 1151TIP3    H2 3397   5.765   0.674   0.930
 1152TIP3   OH2 3398   5.311   2.297   6.478
 1152TIP3    H1 3399   5.387   2.299   6.536
 1152TIP3    H2 3400   5.280   2.388   6.475
 1153TIP3   OH2 3401   1.619   5.041   3.899
 1153TIP3    H1 3402   1.557   5.105   3.863
 1153TIP3    H2 3403   1.582   4.956   3.877
 1154TIP3   OH2 3404   2.662  -0.006   2.964
 1154TIP3    H1 3405   2.695   0.059   2.901
 1154TIP3    H2 3406   2.567  -0.001   2.955
 1155TIP3   OH2 3407   4.925   1.029   6.317
 1155TIP3    H1 3408   4.894   1.109   6.360
 1155TIP3    H2 3409   5.016   1.020   6.346
 1156TIP3   OH2 3410   0.055   7.021   5.833
 1156TIP3    H1 3411   0.053   7.100   5.779
 1156TIP3    H2 3412   0.094   7.050   5.916
 1157TIP3   OH2 3413   6.672   3.515   2.858
 1157TIP3    H1 3414   6.632   3.431   2.880
 1157TIP3    H2 3415   6.682   3.513   2.763
 1158TIP3   OH2 3416   4.244   2.104   1.502
 1158TIP3    H1 3417   4.182   2.032   1.490
 1158TIP3    H2 3418   4.197   2.166   1.557
 1159TIP3   OH2 3419   7.352   0.437   2.640
 1159TIP3    H1 3420   7.289   0.403   2.577
 1159TIP3    H2 3421   7.412   0.491   2.589
 1160TIP3   OH2 3422   5.807   7.785   5.387
 1160TIP3    H1 3423   5.823   7.851   5.320
 1160TIP3    H2 3424   5.879   7.723   5.377
 1161TIP3   OH2 3425   6.675   1.470   3.841
 1161TIP3    H1 3426   6.586   1.471   3.874
 1161TIP3    H2 3427   6.672   1.413   3.764
 1162TIP3   OH2 3428   7.242   0.014   5.643
 1162TIP3    H1 3429   7.279   0.023   5.555
 1162TIP3    H2 3430   7.250   0.102   5.682
 1163TIP3   OH2 3431   1.427   6.934   2.758
 1163TIP3    H1 3432   1.455   7.018   2.721
 1163TIP3    H2 3433   1.363   6.958   2.825
 1164TIP3   OH2 3434   5.799   0.098   1.659
 1164TIP3    H1 3435   5.750   0.163   1.709
 1164TIP3    H2 3436   5.842   0.044   1.726
 1165TIP3   OH2 3437   0.887   4.819   0.373
 1165TIP3    H1 3438   0.844   4.872   0.306
 1165TIP3    H2 3439   0.890   4.875   0.450
 1166TIP3   OH2 3440   5.179   3.944   3.489
 1166TIP3    H1 3441   5.149   3.868   3.539
 1166TIP3    H2 3442   5.202   3.908   3.403
 1167TIP3   OH2 3443   5.361   0.552   4.891
 1167TIP3    H1 3444   5.300   0.589   4.956
 1167TIP3    H2 3445   5.428   0.509   4.944
 1168TIP3   OH2 3446   7.292   6.367   0.921
 1168TIP3    H1 3447   7.284   6.275   0.899
 1168TIP3    H2 3448   7.216   6.408   0.881
 1169TIP3   OH2 3449   0.145   0.416   1.658
 1169TIP3    H1 3450   0.167   0.433   1.567
 1169TIP3    H2 3451   0.214   0.356   1.688
 1170TIP3   OH2 3452   7.788   1.067   6.252
 1170TIP3    H1 3453   7.866   1.024   6.217
 1170TIP3    H2 3454   7.732   1.081   6.176
 1171TIP3   OH2 3455   2.141   4.709   1.268
 1171TIP3    H1 3456   2.212   4.762   1.232
 1171TIP3    H2 3457   2.170   4.618   1.256
 1172TIP3   OH2 3458   5.270   3.164   1.327
 1172TIP3    H1 3459   5.345   3.165   1.268
 1172TIP3    H2 3460   5.194   3.154   1.270
 1173TIP3   OH2 3461   1.906   6.114   5.099
 1173TIP3    H1 3462   1.927   6.089   5.009
 1173TIP3    H2 3463   1.830   6.060   5.122
 1174TIP3   OH2 3464   7.918   1.595   1.956
 1174TIP3    H1 3465   7.897   1.505   1.932
 1174TIP3    H2 3466   8.002   1.612   1.912
 1175TIP3   OH2 3467   3.781   2.173   1.349
 1175TIP3    H1 3468   3.712   2.205   1.291
 1175TIP3    H2 3469   3.861   2.176   1.297
 1176TIP3   OH2 3470   6.036   5.851   0.108
 1176TIP3    H1 3471   6.044   5.772   0.055
 1176TIP3    H2 3472   6.125   5.869   0.139
 1177TIP3   OH2 3473   4.540   5.941   5.214
 1177TIP3    H1 3474   4.619   5.994   5.197
 1177TIP3    H2 3475   4.560   5.894   5.295
 1178TIP3   OH2 3476   3.042   1.225   4.933
 1178TIP3    H1 3477   3.127   1.263   4.956
 1178TIP3    H2 3478   2.979   1.273   4.987
 1179TIP3   OH2 3479   5.079   1.507   1.267
 1179TIP3    H1 3480   5.155   1.506   1.326
 1179TIP3    H2 3481   5.005   1.486   1.323
 1180TIP3   OH2 3482   2.350   0.224   0.543
 1180TIP3    H1 3483   2.400   0.298   0.579
 1180TIP3    H2 3484   2.261   0.237   0.578
 1181TIP3   OH2 3485   3.195   1.280   2.242
 1181TIP3    H1 3486   3.221   1.225   2.169
 1181TIP3    H2 3487   3.235   1.239   2.319
 1182TIP3   OH2 3488   8.037   5.587   4.026
 1182TIP3    H1 3489   8.112   5.644   4.008
 1182TIP3    H2 3490   8.046   5.562   4.118
 1183TIP3   OH2 3491   3.309   1.552   6.006
 1183TIP3    H1 3492   3.391   1.599   5.991
 1183TIP3    H2 3493   3.241   1.613   5.978
 1184TIP3   OH2 3494   4.385   4.118   1.004
 1184TIP3    H1 3495   4.475   4.114   1.035
 1184TIP3    H2 3496   4.354   4.205   1.032
 1185TIP3   OH2 3497   1.949   3.313   3.510
 1185TIP3    H1 3498   1.957   3.224   3.544
 1185TIP3    H2 3499   1.858   3.320   3.482
 1186TIP3   OH2 3500   2.113   1.376   0.111
 1186TIP3    H1 3501   2.026   1.411   0.129
 1186TIP3    H2 3502   2.117   1.372   0.015
 1187TIP3   OH2 3503   7.142   6.522   5.536
 1187TIP3    H1 3504   7.192   6.544   5.614
 1187TIP3    H2 3505   7.151   6.599   5.480
 1188TIP3   OH2 3506   0.915   2.573   3.122
 1188TIP3    H1 3507   0.973   2.521   3.178
 1188TIP3    H2 3508   0.969   2.595   3.046
 1189TIP3   OH2 3509   2.315   0.422   5.891
 1189TIP3    H1 3510   2.334   0.508   5.854
 1189TIP3    H2 3511   2.329   0.433   5.985
 1190TIP3   OH2 3512   0.332   3.680   2.063
 1190TIP3    H1 3513   0.319   3.599   2.014
 1190TIP3    H2 3514   0.341   3.652   2.154
 1191TIP3   OH2 3515   2.153   0.236   6.585
 1191TIP3    H1 3516   2.084   0.198   6.529
 1191TIP3    H2 3517   2.228   0.244   6.527
 1192TIP3   OH2 3518   4.268   1.694   4.500
 1192TIP3    H1 3519   4.322   1.667   4.575
 1192TIP3    H2 3520   4.332   1.711   4.430
 1193TIP3   OH2 3521   4.292   1.349   1.773
 1193TIP3    H1 3522   4.322   1.325   1.860
 1193TIP3    H2 3523   4.362   1.404   1.738
 1194TIP3   OH2 3524   4.746   3.940   0.025
 1194TIP3    H1 3525   4.692   3.867   0.054
 1194TIP3    H2 3526   4.712   4.016   0.073
 1195TIP3   OH2 3527   1.945   3.869   4.294
 1195TIP3    H1 3528   2.027   3.914   4.317
 1195TIP3    H2 3529   1.887   3.939   4.263
 1196TIP3   OH2 3530   2.018   0.461   2.442
 1196TIP3    H1 3531   1.976   0.382   2.409
 1196TIP3    H2 3532   1.946   0.515   2.474
 1197TIP3   OH2 3533   5.873   4.350   0.354
 1197TIP3    H1 3534   5.849   4.331   0.263
 1197TIP3    H2 3535   5.814   4.295   0.406
 1198TIP3   OH2 3536   6.774   5.992   6.350
 1198TIP3    H1 3537   6.785   5.905   6.313
 1198TIP3    H2 3538   6.750   5.976   6.442
 1199TIP3   OH2 3539   5.041   1.869   3.456
 1199TIP3    H1 3540   5.047   1.889   3.550
 1199TIP3    H2 3541   5.035   1.774   3.453
 1200TIP3   OH2 3542   7.536   1.183   2.880
 1200TIP3    H1 3543   7.591   1.247   2.925
 1200TIP3    H2 3544   7.449   1.195   2.918
 1201TIP3   OH2 3545   6.440   1.413   4.003
 1201TIP3    H1 3546   6.345   1.411   4.017
 1201TIP3    H2 3547   6.472   1.334   4.047
 1202TIP3   OH2 3548   0.455   5.533   5.430
 1202TIP3    H1 3549   0.452   5.440   5.405
 1202TIP3    H2 3550   0.405   5.577   5.362
 1203TIP3   OH2 3551   1.299   2.618   0.754
 1203TIP3    H1 3552   1.348   2.541   0.781
 1203TIP3    H2 3553   1.211   2.585   0.734
 1204TIP3   OH2 3554   0.339   7.731   0.603
 1204TIP3    H1 3555   0.301   7.643   0.604
 1204TIP3    H2 3556   0.392   7.735   0.683
 1205TIP3   OH2 3557   3.543   5.835   4.874
 1205TIP3    H1 3558   3.467   5.889   4.854
 1205TIP3    H2 3559   3.607   5.896   4.911
 1206TIP3   OH2 3560   5.597   2.334   4.018
 1206TIP3    H1 3561   5.615   2.369   4.105
 1206TIP3    H2 3562   5.572   2.243   4.035
 1207TIP3   OH2 3563   8.078   1.677   4.326
 1207TIP3    H1 3564   8.027   1.600   4.300
 1207TIP3    H2 3565   8.013   1.740   4.356
 1208TIP3   OH2 3566   5.133   3.761   1.211
 1208TIP3    H1 3567   5.062   3.814   1.246
 1208TIP3    H2 3568   5.114   3.754   1.117
 1209TIP3   OH2 3569   0.276   5.084   2.687
 1209TIP3    H1 3570   0.204   5.048   2.635
 1209TIP3    H2 3571   0.285   5.024   2.761
 1210TIP3   OH2 3572   4.269   6.841   2.418
 1210TIP3    H1 3573   4.359   6.821   2.394
 1210TIP3    H2 3574   4.274   6.922   2.468
 1211TIP3   OH2 3575   2.607   2.517   4.758
 1211TIP3    H1 3576   2.581   2.443   4.813
 1211TIP3    H2 3577   2.687   2.488   4.715
 1212TIP3   OH2 3578   3.423   4.249   0.181
 1212TIP3    H1 3579   3.422   4.320   0.245
 1212TIP3    H2 3580   3.417   4.169   0.233
 1213TIP3   OH2 3581   1.323   6.232   6.326
 1213TIP3    H1 3582   1.258   6.203   6.262
 1213TIP3    H2 3583   1.407   6.207   6.289
 1214TIP3   OH2 3584   1.461   1.558   2.120
 1214TIP3    H1 3585   1.413   1.548   2.202
 1214TIP3    H2 3586   1.429   1.487   2.065
 1215TIP3   OH2 3587   1.848   1.947   4.841
 1215TIP3    H1 3588   1.755   1.927   4.856
 1215TIP3    H2 3589   1.889   1.933   4.926
 1216TIP3   OH2 3590   3.027   5.092   4.809
 1216TIP3    H1 3591   2.933   5.082   4.825
 1216TIP3    H2 3592   3.068   5.073   4.893
 1217TIP3   OH2 3593   2.414   5.433   1.332
 1217TIP3    H1 3594   2.406   5.338   1.345
 1217TIP3    H2 3595   2.326   5.461   1.309
 1218TIP3   OH2 3596   6.098   0.614   3.283
 1218TIP3    H1 3597   6.155   0.592   3.209
 1218TIP3    H2 3598   6.013   0.630   3.244
 1219TIP3   OH2 3599   2.831   1.576   3.648
 1219TIP3    H1 3600   2.768   1.514   3.613
 1219TIP3    H2 3601   2.806   1.661   3.611
 1220TIP3   OH2 3602   6.369   5.666   2.186
 1220TIP3    H1 3603   6.454   5.697   2.216
 1220TIP3    H2 3604   6.335   5.737   2.131
 1221TIP3   OH2 3605   4.504   0.971   0.653
 1221TIP3    H1 3606   4.583   0.949   0.605
 1221TIP3    H2 3607   4.513   1.064   0.674
 1222TIP3   OH2 3608   5.166   0.660   4.550
 1222TIP3    H1 3609   5.097   0.598   4.527
 1222TIP3    H2 3610   5.234   0.607   4.591
 1223TIP3   OH2 3611   4.852   6.692   1.492
 1223TIP3    H1 3612   4.880   6.690   1.584
 1223TIP3    H2 3613   4.870   6.603   1.460
 1224TIP3   OH2 3614   6.206   7.032   4.812
 1224TIP3    H1 3615   6.166   7.098   4.868
 1224TIP3    H2 3616   6.135   7.000   4.757
 1225TIP3   OH2 3617   5.023   1.929   1.571
 1225TIP3    H1 3618   5.012   2.015   1.532
 1225TIP3    H2 3619   4.935   1.904   1.599
 1226TIP3   OH2 3620   3.845   7.637   4.378
 1226TIP3    H1 3621   3.925   7.593   4.350
 1226TIP3    H2 3622   3.789   7.638   4.300
 1227TIP3   OH2 3623   0.974   4.769   0.841
 1227TIP3    H1 3624   1.059   4.742   0.807
 1227TIP3    H2 3625   0.966   4.724   0.925
 1228TIP3   OH2 3626   5.573   2.755   6.276
 1228TIP3    H1 3627   5.523   2.702   6.214
 1228TIP3    H2 3628   5.591   2.697   6.349
 1229TIP3   OH2 3629   5.458   1.352   2.404
 1229TIP3    H1 3630   5.425   1.269   2.437
 1229TIP3    H2 3631   5.410   1.366   2.322
 1230TIP3   OH2 3632   3.341   5.725   1.389
 1230TIP3    H1 3633   3.260   5.773   1.374
 1230TIP3    H2 3634   3.387   5.727   1.304
 1231TIP3   OH2 3635   6.537   3.396   1.561
 1231TIP3    H1 3636   6.496   3.452   1.496
 1231TIP3    H2 3637   6.491   3.312   1.554
 1232TIP3   OH2 3638   4.298   5.767   3.287
 1232TIP3    H1 3639   4.250   5.685   3.280
 1232TIP3    H2 3640   4.381   5.750   3.242
 1233TIP3   OH2 3641   8.037   2.895   3.840
 1233TIP3    H1 3642   7.953   2.862   3.806
 1233TIP3    H2 3643   8.090   2.816   3.852
 1234TIP3   OH2 3644   3.986   5.003   2.245
 1234TIP3    H1 3645   4.005   5.090   2.279
 1234TIP3    H2 3646   3.936   5.020   2.165
 1235TIP3   OH2 3647   6.570   7.085   0.437
 1235TIP3    H1 3648   6.490   7.052   0.478
 1235TIP3    H2 3649   6.605   7.148   0.499
 1236TIP3   OH2 3650   6.962   3.713   6.265
 1236TIP3    H1 3651   7.036   3.668   6.224
 1236TIP3    H2 3652   7.001   3.771   6.330
 1237TIP3   OH2 3653   1.315   3.763   6.347
 1237TIP3    H1 3654   1.302   3.687   6.404
 1237TIP3    H2 3655   1.250   3.752   6.278
 1238TIP3   OH2 3656   3.292   6.895   1.775
 1238TIP3    H1 3657   3.316   6.942   1.855
 1238TIP3    H2 3658   3.338   6.943   1.705
 1239TIP3   OH2 3659   6.215   6.280   0.125
 1239TIP3    H1 3660   6.282   6.233   0.076
 1239TIP3    H2 3661   6.205   6.230   0.206
 1240TIP3   OH2 3662   0.708   4.146   3.863
 1240TIP3    H1 3663   0.686   4.113   3.950
 1240TIP3    H2 3664   0.718   4.240   3.875
 1241TIP3   OH2 3665   5.128   1.718   4.602
 1241TIP3    H1 3666   5.133   1.705   4.697
 1241TIP3    H2 3667   5.080   1.641   4.570
 1242TIP3   OH2 3668   2.540   0.950   3.941
 1242TIP3    H1 3669   2.476   1.011   3.979
 1242TIP3    H2 3670   2.568   0.993   3.861
 1243TIP3   OH2 3671   6.536  -0.028   5.982
 1243TIP3    H1 3672   6.626   0.002   5.998
 1243TIP3    H2 3673   6.518   0.002   5.892
 1244TIP3   OH2 3674   1.428   1.395   2.616
 1244TIP3    H1 3675   1.426   1.360   2.705
 1244TIP3    H2 3676   1.492   1.341   2.570
 1245TIP3   OH2 3677   3.688   2.892   2.562
 1245TIP3    H1 3678   3.599   2.867   2.588
 1245TIP3    H2 3679   3.678   2.976   2.518
 1246TIP3   OH2 3680   6.580   1.823   0.224
 1246TIP3    H1 3681   6.620   1.812   0.310
 1246TIP3    H2 3682   6.622   1.902   0.188
 1247TIP3   OH2 3683   0.949   3.406   1.973
 1247TIP3    H1 3684   0.862   3.444   1.959
 1247TIP3    H2 3685   1.010   3.470   1.936
 1248TIP3   OH2 3686   1.399   1.127   3.753
 1248TIP3    H1 3687   1.313   1.092   3.729
 1248TIP3    H2 3688   1.453   1.050   3.767
 1249TIP3   OH2 3689   2.055   6.665   1.986
 1249TIP3    H1 3690   2.123   6.638   2.047
 1249TIP3    H2 3691   2.103   6.686   1.905
 1250TIP3   OH2 3692   8.037   0.868   4.695
 1250TIP3    H1 3693   8.006   0.930   4.761
 1250TIP3    H2 3694   8.086   0.921   4.632
 1251TIP3   OH2 3695   1.662   4.812   1.609
 1251TIP3    H1 3696   1.605   4.857   1.547
 1251TIP3    H2 3697   1.722   4.762   1.554
 1252TIP3   OH2 3698   1.677   3.348   0.289
 1252TIP3    H1 3699   1.754   3.401   0.307
 1252TIP3    H2 3700   1.705   3.287   0.221
 1253TIP3   OH2 3701   6.701   3.160   0.645
 1253TIP3    H1 3702   6.729   3.250   0.658
 1253TIP3    H2 3703   6.607   3.161   0.663
 1254TIP3   OH2 3704   0.721   4.327   1.993
 1254TIP3    H1 3705   0.695   4.237   1.972
 1254TIP3    H2 3706   0.700   4.337   2.085
 1255TIP3   OH2 3707   3.041   1.378   1.490
 1255TIP3    H1 3708   2.969   1.406   1.434
 1255TIP3    H2 3709   3.116   1.373   1.431
 1256TIP3   OH2 3710   5.060   0.038   4.695
 1256TIP3    H1 3711   5.059   0.134   4.688
 1256TIP3    H2 3712   4.982   0.010   4.647
 1257TIP3   OH2 3713   7.928   2.919   0.547
 1257TIP3    H1 3714   7.948   2.953   0.635
 1257TIP3    H2 3715   8.008   2.874   0.521
 1258TIP3   OH2 3716   5.266   2.842   5.784
 1258TIP3    H1 3717   5.193   2.794   5.744
 1258TIP3    H2 3718   5.321   2.773   5.822
 1259TIP3   OH2 3719   4.063   7.246   0.181
 1259TIP3    H1 3720   4.085   7.319   0.123
 1259TIP3    H2 3721   4.099   7.273   0.266
 1260TIP3   OH2 3722   2.713   6.476   0.865
 1260TIP3    H1 3723   2.674   6.535   0.929
 1260TIP3    H2 3724   2.644   6.462   0.800
 1261TIP3   OH2 3725   4.184   0.319   1.016
 1261TIP3    H1 3726   4.109   0.298   0.961
 1261TIP3    H2 3727   4.167   0.273   1.098
 1262TIP3   OH2 3728   5.912   1.191   2.588
 1262TIP3    H1 3729   5.971   1.222   2.520
 1262TIP3    H2 3730   5.830   1.172   2.541
 1263TIP3   OH2 3731   7.559   7.503   3.427
 1263TIP3    H1 3732   7.470   7.537   3.428
 1263TIP3    H2 3733   7.567   7.459   3.342
 1264TIP3   OH2 3734   3.205   6.513   3.242
 1264TIP3    H1 3735   3.261   6.473   3.309
 1264TIP3    H2 3736   3.128   6.543   3.289
 1265TIP3   OH2 3737   5.426   3.822   0.503
 1265TIP3    H1 3738   5.432   3.770   0.583
 1265TIP3    H2 3739   5.502   3.796   0.451
 1266TIP3   OH2 3740   0.516   0.747   1.040
 1266TIP3    H1 3741   0.546   0.770   0.952
 1266TIP3    H2 3742   0.485   0.657   1.032
 1267TIP3   OH2 3743   7.584   4.895   0.869
 1267TIP3    H1 3744   7.675   4.890   0.897
 1267TIP3    H2 3745   7.574   4.822   0.808
 1268TIP3   OH2 3746   6.567   5.473   2.258
 1268TIP3    H1 3747   6.602   5.426   2.181
 1268TIP3    H2 3748   6.646   5.503   2.304
 1269TIP3   OH2 3749   7.396   4.426   4.730
 1269TIP3    H1 3750   7.308   4.437   4.766
 1269TIP3    H2 3751   7.451   4.480   4.787
 1270TIP3   OH2 3752   0.151   3.192   3.395
 1270TIP3    H1 3753   0.058   3.186   3.373
 1270TIP3    H2 3754   0.152   3.232   3.482
 1271TIP3   OH2 3755   1.160   4.608   2.879
 1271TIP3    H1 3756   1.215   4.684   2.861
 1271TIP3    H2 3757   1.112   4.632   2.959
 1272TIP3   OH2 3758   3.584   7.621   0.771
 1272TIP3    H1 3759   3.593   7.654   0.860
 1272TIP3    H2 3760   3.667   7.644   0.729
 1273TIP3   OH2 3761   8.276   4.555   3.119
 1273TIP3    H1 3762   8.220   4.632   3.102
 1273TIP3    H2 3763   8.231   4.508   3.189
 1274TIP3   OH2 3764   7.038   2.094   4.415
 1274TIP3    H1 3765   7.122   2.051   4.431
 1274TIP3    H2 3766   6.974   2.039   4.461
 1275TIP3   OH2 3767   6.089   2.847  -0.003
 1275TIP3    H1 3768   6.015   2.908  -0.003
 1275TIP3    H2 3769   6.074   2.792   0.073
 1276TIP3   OH2 3770   3.007   2.903   2.641
 1276TIP3    H1 3771   2.931   2.933   2.690
 1276TIP3    H2 3772   3.025   2.973   2.578
 1277TIP3   OH2 3773   7.586   2.636   3.171
 1277TIP3    H1 3774   7.513   2.680   3.127
 1277TIP3    H2 3775   7.551   2.610   3.256
 1278TIP3   OH2 3776   0.698   3.243   6.141
 1278TIP3    H1 3777   0.625   3.304   6.154
 1278TIP3    H2 3778   0.668   3.184   6.071
 1279TIP3   OH2 3779   2.173   2.822   2.902
 1279TIP3    H1 3780   2.246   2.856   2.954
 1279TIP3    H2 3781   2.215   2.774   2.831
 1280TIP3   OH2 3782   5.965   6.834   1.618
 1280TIP3    H1 3783   6.047   6.785   1.629
 1280TIP3    H2 3784   5.899   6.768   1.603
 1281TIP3   OH2 3785   1.216   6.973   6.469
 1281TIP3    H1 3786   1.149   6.964   6.536
 1281TIP3    H2 3787   1.242   6.884   6.448
 1282TIP3   OH2 3788   4.574   0.704   6.101
 1282TIP3    H1 3789   4.586   0.786   6.148
 1282TIP3    H2 3790   4.509   0.724   6.034
 1283TIP3   OH2 3791   0.840   5.212   2.329
 1283TIP3    H1 3792   0.904   5.267   2.373
 1283TIP3    H2 3793   0.883   5.183   2.249
 1284TIP3   OH2 3794   4.609   3.016   1.977
 1284TIP3    H1 3795   4.678   2.975   2.028
 1284TIP3    H2 3796   4.632   2.999   1.886
 1285TIP3   OH2 3797   4.694   3.582   6.532
 1285TIP3    H1 3798   4.611   3.605   6.490
 1285TIP3    H2 3799   4.736   3.667   6.550
 1286TIP3   OH2 3800   8.073   7.788   0.676
 1286TIP3    H1 3801   8.116   7.819   0.755
 1286TIP3    H2 3802   8.000   7.850   0.663
 1287TIP3   OH2 3803   1.075   2.980   3.606
 1287TIP3    H1 3804   1.162   2.987   3.566
 1287TIP3    H2 3805   1.080   2.901   3.660
 1288TIP3   OH2 3806   2.904   4.064   1.082
 1288TIP3    H1 3807   2.865   3.978   1.098
 1288TIP3    H2 3808   2.880   4.116   1.159
 1289TIP3   OH2 3809   7.029   5.300   3.499
 1289TIP3    H1 3810   6.985   5.319   3.416
 1289TIP3    H2 3811   7.011   5.377   3.553
 1290TIP3   OH2 3812   3.575   7.315   2.757
 1290TIP3    H1 3813   3.496   7.298   2.807
 1290TIP3    H2 3814   3.643   7.266   2.803
 1291TIP3   OH2 3815   4.092   0.821   0.595
 1291TIP3    H1 3816   4.143   0.740   0.607
 1291TIP3    H2 3817   4.111   0.873   0.673
 1292TIP3   OH2 3818   5.809   0.666   0.344
 1292TIP3    H1 3819   5.750   0.631   0.277
 1292TIP3    H2 3820   5.812   0.760   0.327
 1293TIP3   OH2 3821   6.108   7.585   0.597
 1293TIP3    H1 3822   6.019   7.619   0.588
 1293TIP3    H2 3823   6.161   7.663   0.615
 1294TIP3   OH2 3824   6.297   2.986   3.442
 1294TIP3    H1 3825   6.327   2.918   3.503
 1294TIP3    H2 3826   6.378   3.020   3.402
 1295TIP3   OH2 3827   3.733   5.437   3.340
 1295TIP3    H1 3828   3.757   5.410   3.428
 1295TIP3    H2 3829   3.784   5.381   3.282
 1296TIP3   OH2 3830   4.443   0.506   3.216
 1296TIP3    H1 3831   4.521   0.544   3.175
 1296TIP3    H2 3832   4.455   0.524   3.310
 1297TIP3   OH2 3833   1.646   4.823   2.945
 1297TIP3    H1 3834   1.704   4.899   2.940
 1297TIP3    H2 3835   1.690   4.755   2.895
 1298TIP3   OH2 3836   4.419   4.401   4.211
 1298TIP3    H1 3837   4.375   4.361   4.286
 1298TIP3    H2 3838   4.348   4.443   4.161
 1299TIP3   OH2 3839   5.510   4.132   5.225
 1299TIP3    H1 3840   5.425   4.175   5.215
 1299TIP3    H2 3841   5.531   4.099   5.138
 1300TIP3   OH2 3842   5.994   5.103   2.108
 1300TIP3    H1 3843   5.956   5.138   2.027
 1300TIP3    H2 3844   6.000   5.179   2.167
 1301TIP3   OH2 3845   7.405   0.186   2.774
 1301TIP3    H1 3846   7.409   0.281   2.782
 1301TIP3    H2 3847   7.351   0.170   2.697
 1302TIP3   OH2 3848   3.782   4.597   5.733
 1302TIP3    H1 3849   3.775   4.663   5.801
 1302TIP3    H2 3850   3.870   4.609   5.697
 1303TIP3   OH2 3851   2.097   6.533   0.012
 1303TIP3    H1 3852   2.091   6.620   0.052
 1303TIP3    H2 3853   2.191   6.515   0.008
 1304TIP3   OH2 3854   3.184   2.636   5.763
 1304TIP3    H1 3855   3.157   2.698   5.695
 1304TIP3    H2 3856   3.252   2.583   5.721
 1305TIP3   OH2 3857   3.088   4.276   3.680
 1305TIP3    H1 3858   3.159   4.317   3.729
 1305TIP3    H2 3859   3.131   4.212   3.623
 1306TIP3   OH2 3860   0.548   6.146   4.426
 1306TIP3    H1 3861   0.565   6.053   4.416
 1306TIP3    H2 3862   0.610   6.189   4.367
 1307TIP3   OH2 3863   2.025   0.983   4.238
 1307TIP3    H1 3864   1.978   1.050   4.188
 1307TIP3    H2 3865   2.048   0.916   4.174
 1308TIP3   OH2 3866   6.240   7.670   4.161
 1308TIP3    H1 3867   6.155   7.626   4.173
 1308TIP3    H2 3868   6.269   7.643   4.074
 1309TIP3   OH2 3869   7.543   7.379   6.352
 1309TIP3    H1 3870   7.512   7.304   6.403
 1309TIP3    H2 3871   7.578   7.341   6.272
 1310TIP3   OH2 3872   3.308   7.374   5.503
 1310TIP3    H1 3873   3.340   7.464   5.508
 1310TIP3    H2 3874   3.238   7.376   5.438
 1311TIP3   OH2 3875   3.767   2.054   4.558
 1311TIP3    H1 3876   3.849   2.101   4.566
 1311TIP3    H2 3877   3.768   1.990   4.629
 1312TIP3   OH2 3878   4.386   5.540   6.221
 1312TIP3    H1 3879   4.472   5.561   6.256
 1312TIP3    H2 3880   4.324   5.590   6.275
 1313TIP3   OH2 3881   4.729   7.438   3.401
 1313TIP3    H1 3882   4.672   7.386   3.458
 1313TIP3    H2 3883   4.809   7.450   3.452
 1314TIP3   OH2 3884   4.960   3.103   5.034
 1314TIP3    H1 3885   4.934   3.067   4.949
 1314TIP3    H2 3886   4.940   3.033   5.096
 1315TIP3   OH2 3887   3.976   0.642   5.764
 1315TIP3    H1 3888   3.921   0.710   5.803
 1315TIP3    H2 3889   4.065   0.669   5.786
 1316TIP3   OH2 3890   6.219   4.368   4.600
 1316TIP3    H1 3891   6.274   4.292   4.616
 1316TIP3    H2 3892   6.247   4.400   4.514
 1317TIP3   OH2 3893   0.498   3.024   0.777
 1317TIP3    H1 3894   0.487   3.011   0.683
 1317TIP3    H2 3895   0.566   2.962   0.802
 1318TIP3   OH2 3896   6.043   5.083   3.769
 1318TIP3    H1 3897   6.076   5.023   3.837
 1318TIP3    H2 3898   5.976   5.033   3.724
 1319TIP3   OH2 3899   1.781   4.843   4.464
 1319TIP3    H1 3900   1.698   4.799   4.451
 1319TIP3    H2 3901   1.806   4.823   4.554
 1320TIP3   OH2 3902   6.878   0.332   4.444
 1320TIP3    H1 3903   6.809   0.378   4.397
 1320TIP3    H2 3904   6.887   0.249   4.397
 1321TIP3   OH2 3905   2.232   2.255   5.403
 1321TIP3    H1 3906   2.278   2.171   5.404
 1321TIP3    H2 3907   2.301   2.319   5.385
 1322TIP3   OH2 3908   3.695   6.774   6.565
 1322TIP3    H1 3909   3.683   6.813   6.651
 1322TIP3    H2 3910   3.679   6.845   6.503
 1323TIP3   OH2 3911   1.713   1.516   1.419
 1323TIP3    H1 3912   1.706   1.465   1.339
 1323TIP3    H2 3913   1.795   1.486   1.460
 1324TIP3   OH2 3914   3.094   2.944   3.501
 1324TIP3    H1 3915   3.085   2.918   3.592
 1324TIP3    H2 3916   3.154   2.879   3.463
 1325TIP3   OH2 3917   2.707   5.419   2.934
 1325TIP3    H1 3918   2.628   5.399   2.883
 1325TIP3    H2 3919   2.718   5.514   2.924
 1326TIP3   OH2 3920   7.139   6.646   2.916
 1326TIP3    H1 3921   7.139   6.550   2.917
 1326TIP3    H2 3922   7.048   6.670   2.898
 1327TIP3   OH2 3923   7.014   6.207   1.667
 1327TIP3    H1 3924   6.991   6.299   1.679
 1327TIP3    H2 3925   7.074   6.188   1.739
 1328TIP3   OH2 3926   0.510   6.012   6.448
 1328TIP3    H1 3927   0.476   6.092   6.408
 1328TIP3    H2 3928   0.579   5.983   6.389
 1329TIP3   OH2 3929   5.903   3.454   4.420
 1329TIP3    H1 3930   5.897   3.362   4.445
 1329TIP3    H2 3931   5.979   3.487   4.467
 1330TIP3   OH2 3932   6.005   4.254   1.064
 1330TIP3    H1 3933   5.928   4.267   1.008
 1330TIP3    H2 3934   6.063   4.199   1.012
 1331TIP3   OH2 3935   3.583   4.876   0.778
 1331TIP3    H1 3936   3.513   4.908   0.721
 1331TIP3    H2 3937   3.570   4.923   0.861
 1332TIP3   OH2 3938   1.100   6.652   4.424
 1332TIP3    H1 3939   1.119   6.620   4.336
 1332TIP3    H2 3940   1.084   6.745   4.413
 1333TIP3   OH2 3941   2.895   4.597   1.049
 1333TIP3    H1 3942   2.931   4.623   1.134
 1333TIP3    H2 3943   2.958   4.533   1.015
 1334TIP3   OH2 3944   2.994   6.100   4.865
 1334TIP3    H1 3945   3.029   6.185   4.892
 1334TIP3    H2 3946   2.903   6.102   4.897
 1335TIP3   OH2 3947   6.736   3.583   1.860
 1335TIP3    H1 3948   6.654   3.534   1.862
 1335TIP3    H2 3949   6.728   3.639   1.783
 1336TIP3   OH2 3950   5.394   3.457   2.953
 1336TIP3    H1 3951   5.307   3.490   2.977
 1336TIP3    H2 3952   5.432   3.527   2.900
 1337TIP3   OH2 3953   4.116   7.106   5.880
 1337TIP3    H1 3954   4.142   7.074   5.966
 1337TIP3    H2 3955   4.058   7.180   5.899
 1338TIP3   OH2 3956   6.626   7.284   4.960
 1338TIP3    H1 3957   6.573   7.215   4.920
 1338TIP3    H2 3958   6.648   7.249   5.046
 1339TIP3   OH2 3959   3.867   1.977   0.429
 1339TIP3    H1 3960   3.802   1.953   0.495
 1339TIP3    H2 3961   3.822   2.042   0.375
 1340TIP3   OH2 3962   3.224   2.636   1.454
 1340TIP3    H1 3963   3.242   2.591   1.371
 1340TIP3    H2 3964   3.133   2.662   1.448
 1341TIP3   OH2 3965   5.062   5.981   3.429
 1341TIP3    H1 3966   5.148   6.023   3.425
 1341TIP3    H2 3967   5.082   5.888   3.441
 1342TIP3   OH2 3968   4.325   5.563   3.870
 1342TIP3    H1 3969   4.247   5.531   3.916
 1342TIP3    H2 3970   4.333   5.655   3.896
 1343TIP3   OH2 3971   7.077   3.975   0.262
 1343TIP3    H1 3972   7.049   3.964   0.172
 1343TIP3    H2 3973   7.071   4.070   0.278
 1344TIP3   OH2 3974   5.734   0.011   3.854
 1344TIP3    H1 3975   5.801   0.065   3.897
 1344TIP3    H2 3976   5.680  -0.023   3.926
 1345TIP3   OH2 3977   5.949   3.135   0.465
 1345TIP3    H1 3978   5.977   3.122   0.375
 1345TIP3    H2 3979   5.938   3.230   0.474
 1346TIP3   OH2 3980   5.877   0.493   5.982
 1346TIP3    H1 3981   5.873   0.434   5.907
 1346TIP3    H2 3982   5.822   0.568   5.956
 1347TIP3   OH2 3983   3.355   2.614   3.058
 1347TIP3    H1 3984   3.300   2.613   2.979
 1347TIP3    H2 3985   3.441   2.585   3.028
 1348TIP3   OH2 3986   6.296   2.301   3.916
 1348TIP3    H1 3987   6.354   2.350   3.859
 1348TIP3    H2 3988   6.231   2.262   3.857
 1349TIP3   OH2 3989   5.719   1.602   0.885
 1349TIP3    H1 3990   5.629   1.618   0.915
 1349TIP3    H2 3991   5.754   1.689   0.868
 1350TIP3   OH2 3992   4.271   2.548   3.609
 1350TIP3    H1 3993   4.197   2.491   3.629
 1350TIP3    H2 3994   4.291   2.591   3.692
 1351TIP3   OH2 3995   2.058   5.886   3.293
 1351TIP3    H1 3996   1.968   5.853   3.300
 1351TIP3    H2 3997   2.063   5.921   3.204
 1352TIP3   OH2 3998   2.184   7.565   0.982
 1352TIP3    H1 3999   2.221   7.532   0.900
 1352TIP3    H2 4000   2.133   7.642   0.956
 1353TIP3   OH2 4001   2.042   2.734   6.220
 1353TIP3    H1 4002   2.089   2.813   6.248
 1353TIP3    H2 4003   1.967   2.767   6.171
 1354TIP3   OH2 4004   1.888   2.595   2.365
 1354TIP3    H1 4005   1.854   2.587   2.276
 1354TIP3    H2 4006   1.982   2.604   2.354
 1355TIP3   OH2 4007   1.071   0.282   2.250
 1355TIP3    H1 4008   1.138   0.220   2.280
 1355TIP3    H2 4009   1.121   0.359   2.224
 1356TIP3   OH2 4010   6.612   4.109   2.239
 1356TIP3    H1 4011   6.677   4.038   2.239
 1356TIP3    H2 4012   6.556   4.091   2.164
 1357TIP3   OH2 4013   3.698   7.516   1.815
 1357TIP3    H1 4014   3.672   7.425   1.829
 1357TIP3    H2 4015   3.793   7.516   1.821
 1358TIP3   OH2 4016   4.691   5.509   5.952
 1358TIP3    H1 4017   4.629   5.478   6.018
 1358TIP3    H2 4018   4.765   5.543   6.002
 1359TIP3   OH2 4019   3.914   0.849   4.093
 1359TIP3    H1 4020   3.844   0.908   4.119
 1359TIP3    H2 4021   3.921   0.787   4.165
 1360TIP3   OH2 4022   3.257   6.717   5.733
 1360TIP3    H1 4023   3.312   6.661   5.679
 1360TIP3    H2 4024   3.198   6.656   5.779
 1361TIP3   OH2 4025   2.839   6.036   0.315
 1361TIP3    H1 4026   2.748   6.034   0.342
 1361TIP3    H2 4027   2.845   5.970   0.246
 1362TIP3   OH2 4028   3.149   2.842   2.944
 1362TIP3    H1 4029   3.200   2.905   2.996
 1362TIP3    H2 4030   3.144   2.882   2.857
 1363TIP3   OH2 4031   4.393   6.931   0.595
 1363TIP3    H1 4032   4.414   6.864   0.530
 1363TIP3    H2 4033   4.354   6.883   0.668
 1364TIP3   OH2 4034   6.489   5.730   3.926
 1364TIP3    H1 4035   6.559   5.665   3.937
 1364TIP3    H2 4036   6.480   5.771   4.012
 1365TIP3   OH2 4037   7.833   4.222   2.853
 1365TIP3    H1 4038   7.743   4.192   2.859
 1365TIP3    H2 4039   7.867   4.214   2.943
 1366TIP3   OH2 4040   7.673   0.436   5.036
 1366TIP3    H1 4041   7.580   0.416   5.021
 1366TIP3    H2 4042   7.692   0.400   5.123
 1367TIP3   OH2 4043   6.347   7.604   2.639
 1367TIP3    H1 4044   6.282   7.609   2.569
 1367TIP3    H2 4045   6.397   7.685   2.631
 1368TIP3   OH2 4046   4.132   6.979   6.152
 1368TIP3    H1 4047   4.191   7.048   6.181
 1368TIP3    H2 4048   4.171   6.898   6.187
 1369TIP3   OH2 4049   7.637   2.650   5.878
 1369TIP3    H1 4050   7.720   2.650   5.926
 1369TIP3    H2 4051   7.624   2.558   5.855
 1370TIP3   OH2 4052   2.124   1.225   4.644
 1370TIP3    H1 4053   2.116   1.195   4.735
 1370TIP3    H2 4054   2.189   1.295   4.647
 1371TIP3   OH2 4055   2.761   4.155   1.571
 1371TIP3    H1 4056   2.695   4.109   1.622
 1371TIP3    H2 4057   2.789   4.227   1.628
 1372TIP3   OH2 4058   2.359   1.572   0.832
 1372TIP3    H1 4059   2.295   1.638   0.806
 1372TIP3    H2 4060   2.385   1.530   0.750
 1373TIP3   OH2 4061   1.095   2.507   5.431
 1373TIP3    H1 4062   1.082   2.599   5.406
 1373TIP3    H2 4063   1.007   2.473   5.443
 1374TIP3   OH2 4064   2.597   4.182   5.308
 1374TIP3    H1 4065   2.549   4.148   5.233
 1374TIP3    H2 4066   2.581   4.277   5.305
 1375TIP3   OH2 4067   1.678   2.107   0.344
 1375TIP3    H1 4068   1.691   2.125   0.437
 1375TIP3    H2 4069   1.757   2.140   0.301
 1376TIP3   OH2 4070   6.346   4.761   6.223
 1376TIP3    H1 4071   6.440   4.744   6.222
 1376TIP3    H2 4072   6.332   4.822   6.150
 1377TIP3   OH2 4073   6.645   3.194   6.378
 1377TIP3    H1 4074   6.633   3.204   6.283
 1377TIP3    H2 4075   6.695   3.112   6.387
 1378TIP3   OH2 4076   7.873   1.374   4.527
 1378TIP3    H1 4077   7.829   1.289   4.522
 1378TIP3    H2 4078   7.966   1.353   4.534
 1379TIP3   OH2 4079   3.657   4.937   6.166
 1379TIP3    H1 4080   3.665   4.913   6.258
 1379TIP3    H2 4081   3.748   4.948   6.136
 1380TIP3   OH2 4082   4.983   6.561   0.838
 1380TIP3    H1 4083   4.904   6.601   0.801
 1380TIP3    H2 4084   4.950   6.503   0.907
 1381TIP3   OH2 4085   7.086   3.482   4.337
 1381TIP3    H1 4086   7.072   3.387   4.336
 1381TIP3    H2 4087   6.998   3.519   4.329
 1382TIP3   OH2 4088   0.314   0.431   5.698
 1382TIP3    H1 4089   0.272   0.473   5.773
 1382TIP3    H2 4090   0.372   0.365   5.737
 1383TIP3   OH2 4091   3.641   2.870   6.130
 1383TIP3    H1 4092   3.729   2.835   6.142
 1383TIP3    H2 4093   3.594   2.802   6.082
 1384TIP3   OH2 4094   3.895   0.043   3.487
 1384TIP3    H1 4095   3.838   0.083   3.422
 1384TIP3    H2 4096   3.944   0.116   3.524
 1385TIP3   OH2 4097   6.981   5.599   0.530
 1385TIP3    H1 4098   6.926   5.522   0.543
 1385TIP3    H2 4099   7.063   5.565   0.495
 1386TIP3   OH2 4100   5.647   0.249   2.695
 1386TIP3    H1 4101   5.685   0.323   2.648
 1386TIP3    H2 4102   5.565   0.283   2.732
 1387TIP3   OH2 4103   2.157   2.370   1.465
 1387TIP3    H1 4104   2.124   2.458   1.482
 1387TIP3    H2 4105   2.227   2.382   1.401
 1388TIP3   OH2 4106   0.512   1.847   1.691
 1388TIP3    H1 4107   0.479   1.893   1.614
 1388TIP3    H2 4108   0.573   1.782   1.655
 1389TIP3   OH2 4109   2.879   7.683   3.446
 1389TIP3    H1 4110   2.958   7.721   3.485
 1389TIP3    H2 4111   2.807   7.737   3.479
 1390TIP3   OH2 4112   0.341   5.726   0.017
 1390TIP3    H1 4113   0.330   5.713   0.111
 1390TIP3    H2 4114   0.255   5.707  -0.021
 1391TIP3   OH2 4115   7.860   0.301   0.722
 1391TIP3    H1 4116   7.905   0.335   0.799
 1391TIP3    H2 4117   7.797   0.369   0.700
 1392TIP3   OH2 4118   6.572   6.522   3.560
 1392TIP3    H1 4119   6.656   6.522   3.513
 1392TIP3    H2 4120   6.510   6.562   3.498
 1393TIP3   OH2 4121   6.793   1.959   4.140
 1393TIP3    H1 4122   6.828   2.041   4.174
 1393TIP3    H2 4123   6.863   1.923   4.086
 1394TIP3   OH2 4124   6.898   4.502   6.532
 1394TIP3    H1 4125   6.907   4.428   6.592
 1394TIP3    H2 4126   6.804   4.517   6.526
 1395TIP3   OH2 4127   3.383   7.802   4.870
 1395TIP3    H1 4128   3.462   7.830   4.824
 1395TIP3    H2 4129   3.371   7.711   4.844
 1396TIP3   OH2 4130   3.121   4.071   4.356
 1396TIP3    H1 4131   3.195   4.013   4.375
 1396TIP3    H2 4132   3.132   4.095   4.264
 1397TIP3   OH2 4133   1.744   0.125   0.202
 1397TIP3    H1 4134   1.667   0.179   0.218
 1397TIP3    H2 4135   1.748   0.066   0.277
 1398TIP3   OH2 4136   1.046   2.760   1.598
 1398TIP3    H1 4137   0.957   2.726   1.592
 1398TIP3    H2 4138   1.100   2.682   1.612
 1399TIP3   OH2 4139   2.277   4.009   3.909
 1399TIP3    H1 4140   2.196   4.055   3.930
 1399TIP3    H2 4141   2.284   3.942   3.977
 1400TIP3   OH2 4142   7.673   2.007   3.332
 1400TIP3    H1 4143   7.730   1.967   3.398
 1400TIP3    H2 4144   7.685   2.101   3.344
 1401TIP3   OH2 4145   3.604   3.869   0.718
 1401TIP3    H1 4146   3.537   3.912   0.771
 1401TIP3    H2 4147   3.680   3.927   0.723
 1402TIP3   OH2 4148   4.266   3.671   0.553
 1402TIP3    H1 4149   4.353   3.633   0.538
 1402TIP3    H2 4150   4.251   3.659   0.647
 1403TIP3   OH2 4151   0.427   6.421   5.444
 1403TIP3    H1 4152   0.385   6.507   5.441
 1403TIP3    H2 4153   0.507   6.435   5.495
 1404TIP3   OH2 4154   4.040   1.815   1.525
 1404TIP3    H1 4155   3.984   1.758   1.578
 1404TIP3    H2 4156   4.104   1.850   1.588
 1405TIP3   OH2 4157   0.281   3.579   3.714
 1405TIP3    H1 4158   0.351   3.567   3.779
 1405TIP3    H2 4159   0.321   3.554   3.631
 1406TIP3   OH2 4160   7.655   6.904   4.873
 1406TIP3    H1 4161   7.625   6.817   4.847
 1406TIP3    H2 4162   7.689   6.893   4.961
 1407TIP3   OH2 4163   1.461   2.705   6.581
 1407TIP3    H1 4164   1.497   2.616   6.572
 1407TIP3    H2 4165   1.382   2.694   6.634
 1408TIP3   OH2 4166   5.368   0.172   1.546
 1408TIP3    H1 4167   5.385   0.155   1.639
 1408TIP3    H2 4168   5.272   0.173   1.540
 1409TIP3   OH2 4169   3.096   4.834   5.830
 1409TIP3    H1 4170   3.185   4.869   5.839
 1409TIP3    H2 4171   3.046   4.876   5.899
 1410TIP3   OH2 4172   0.439   5.051   5.778
 1410TIP3    H1 4173   0.489   4.983   5.823
 1410TIP3    H2 4174   0.357   5.056   5.827
 1411TIP3   OH2 4175   6.238   3.177   0.397
 1411TIP3    H1 4176   6.157   3.137   0.427
 1411TIP3    H2 4177   6.270   3.118   0.329
 1412TIP3   OH2 4178   3.754   6.115   6.570
 1412TIP3    H1 4179   3.842   6.091   6.598
 1412TIP3    H2 4180   3.710   6.145   6.649
 1413TIP3   OH2 4181   6.295   6.661   5.950
 1413TIP3    H1 4182   6.261   6.663   5.860
 1413TIP3    H2 4183   6.383   6.698   5.942
 1414TIP3   OH2 4184   2.907   1.393   5.449
 1414TIP3    H1 4185   2.827   1.431   5.485
 1414TIP3    H2 4186   2.928   1.321   5.509
 1415TIP3   OH2 4187   0.262   1.533   0.431
 1415TIP3    H1 4188   0.353   1.519   0.404
 1415TIP3    H2 4189   0.216   1.457   0.398
 1416TIP3   OH2 4190   3.892   4.369   1.623
 1416TIP3    H1 4191   3.956   4.395   1.557
 1416TIP3    H2 4192   3.808   4.375   1.578
 1417TIP3   OH2 4193   2.999   6.804   1.755
 1417TIP3    H1 4194   2.997   6.805   1.851
 1417TIP3    H2 4195   3.068   6.866   1.732
 1418TIP3   OH2 4196   2.151   0.417   5.282
 1418TIP3    H1 4197   2.209   0.432   5.207
 1418TIP3    H2 4198   2.065   0.403   5.243
 1419TIP3   OH2 4199   4.405   4.070   0.082
 1419TIP3    H1 4200   4.494   4.041   0.102
 1419TIP3    H2 4201   4.350   4.029   0.149
 1420TIP3   OH2 4202   2.218   3.978   0.440
 1420TIP3    H1 4203   2.218   3.884   0.425
 1420TIP3    H2 4204   2.230   3.987   0.535
 1421TIP3   OH2 4205   1.760   0.406   2.138
 1421TIP3    H1 4206   1.762   0.489   2.187
 1421TIP3    H2 4207   1.830   0.354   2.178
 1422TIP3   OH2 4208   6.840   2.972   3.232
 1422TIP3    H1 4209   6.924   3.013   3.254
 1422TIP3    H2 4210   6.863   2.895   3.181
 1423TIP3   OH2 4211   5.564   2.076   5.555
 1423TIP3    H1 4212   5.564   2.105   5.463
 1423TIP3    H2 4213   5.653   2.096   5.586
 1424TIP3   OH2 4214   6.629   6.581   5.708
 1424TIP3    H1 4215   6.698   6.639   5.676
 1424TIP3    H2 4216   6.589   6.629   5.780
 1425TIP3   OH2 4217   6.900   7.169   0.878
 1425TIP3    H1 4218   6.909   7.173   0.783
 1425TIP3    H2 4219   6.975   7.118   0.908
 1426TIP3   OH2 4220   2.206   5.543   1.604
 1426TIP3    H1 4221   2.289   5.520   1.646
 1426TIP3    H2 4222   2.141   5.490   1.651
 1427TIP3   OH2 4223   6.059   0.832   1.631
 1427TIP3    H1 4224   6.103   0.821   1.716
 1427TIP3    H2 4225   6.093   0.760   1.577
 1428TIP3   OH2 4226   1.917   0.400   3.795
 1428TIP3    H1 4227   1.986   0.349   3.752
 1428TIP3    H2 4228   1.878   0.452   3.725
 1429TIP3   OH2 4229   5.495   6.398   6.670
 1429TIP3    H1 4230   5.466   6.318   6.626
 1429TIP3    H2 4231   5.444   6.468   6.630
 1430TIP3   OH2 4232   2.802   4.439   0.504
 1430TIP3    H1 4233   2.851   4.473   0.429
 1430TIP3    H2 4234   2.736   4.506   0.522
 1431TIP3   OH2 4235   4.022   1.627   2.004
 1431TIP3    H1 4236   3.994   1.717   1.984
 1431TIP3    H2 4237   3.977   1.573   1.939
 1432TIP3   OH2 4238   6.818   5.388   2.292
 1432TIP3    H1 4239   6.810   5.411   2.385
 1432TIP3    H2 4240   6.912   5.389   2.275
 1433TIP3   OH2 4241   1.036   7.281   2.879
 1433TIP3    H1 4242   1.011   7.358   2.930
 1433TIP3    H2 4243   1.130   7.271   2.894
 1434TIP3   OH2 4244   4.609   5.248   3.694
 1434TIP3    H1 4245   4.540   5.185   3.673
 1434TIP3    H2 4246   4.588   5.278   3.783
 1435TIP3   OH2 4247   7.581   6.066   3.240
 1435TIP3    H1 4248   7.636   6.118   3.181
 1435TIP3    H2 4249   7.523   6.130   3.281
 1436TIP3   OH2 4250   8.258   2.974   5.753
 1436TIP3    H1 4251   8.339   2.953   5.706
 1436TIP3    H2 4252   8.219   3.045   5.703
 1437TIP3   OH2 4253   5.127   0.370   3.764
 1437TIP3    H1 4254   5.088   0.283   3.772
 1437TIP3    H2 4255   5.060   0.430   3.795
 1438TIP3   OH2 4256   3.060   2.468   1.956
 1438TIP3    H1 4257   3.120   2.475   1.882
 1438TIP3    H2 4258   3.011   2.551   1.954
 1439TIP3   OH2 4259   4.960   4.472   4.688
 1439TIP3    H1 4260   4.923   4.448   4.602
 1439TIP3    H2 4261   5.054   4.475   4.673
 1440TIP3   OH2 4262   7.740   6.473   4.348
 1440TIP3    H1 4263   7.800   6.398   4.352
 1440TIP3    H2 4264   7.678   6.451   4.279
 1441TIP3   OH2 4265   7.569   1.790   1.901
 1441TIP3    H1 4266   7.531   1.725   1.960
 1441TIP3    H2 4267   7.600   1.860   1.960
 1442TIP3   OH2 4268   5.806   3.802   3.164
 1442TIP3    H1 4269   5.736   3.737   3.171
 1442TIP3    H2 4270   5.884   3.757   3.195
 1443TIP3   OH2 4271   0.384   6.605   5.786
 1443TIP3    H1 4272   0.431   6.621   5.867
 1443TIP3    H2 4273   0.307   6.555   5.812
 1444TIP3   OH2 4274   2.431   4.219   3.053
 1444TIP3    H1 4275   2.501   4.246   2.994
 1444TIP3    H2 4276   2.379   4.298   3.067
 1445TIP3   OH2 4277   0.688   1.023   2.947
 1445TIP3    H1 4278   0.771   1.047   2.988
 1445TIP3    H2 4279   0.684   0.927   2.955
 1446TIP3   OH2 4280   3.985   7.309   3.045
 1446TIP3    H1 4281   3.925   7.262   3.103
 1446TIP3    H2 4282   4.001   7.249   2.973
 1447TIP3   OH2 4283   2.161   6.462   3.473
 1447TIP3    H1 4284   2.227   6.493   3.411
 1447TIP3    H2 4285   2.118   6.541   3.504
 1448TIP3   OH2 4286   0.721   6.890   3.191
 1448TIP3    H1 4287   0.676   6.877   3.274
 1448TIP3    H2 4288   0.652   6.881   3.125
 1449TIP3   OH2 4289   7.727   7.780   4.559
 1449TIP3    H1 4290   7.764   7.865   4.585
 1449TIP3    H2 4291   7.751   7.721   4.630
 1450TIP3   OH2 4292   7.135   4.403   1.241
 1450TIP3    H1 4293   7.152   4.377   1.332
 1450TIP3    H2 4294   7.214   4.451   1.215
 1451TIP3   OH2 4295   3.780   6.131   3.781
 1451TIP3    H1 4296   3.790   6.056   3.840
 1451TIP3    H2 4297   3.733   6.196   3.833
 1452TIP3   OH2 4298   1.921   5.710   6.391
 1452TIP3    H1 4299   1.853   5.662   6.438
 1452TIP3    H2 4300   1.914   5.800   6.423
 1453TIP3   OH2 4301   7.865   4.267   3.836
 1453TIP3    H1 4302   7.927   4.297   3.769
 1453TIP3    H2 4303   7.917   4.266   3.917
 1454TIP3   OH2 4304   5.121   2.466   4.758
 1454TIP3    H1 4305   5.043   2.502   4.715
 1454TIP3    H2 4306   5.094   2.379   4.786
 1455TIP3   OH2 4307   6.807   1.030   4.649
 1455TIP3    H1 4308   6.749   0.970   4.601
 1455TIP3    H2 4309   6.790   1.116   4.610
 1456TIP3   OH2 4310   6.654   0.021   3.632
 1456TIP3    H1 4311   6.579   0.080   3.624
 1456TIP3    H2 4312   6.728   0.073   3.600
 1457TIP3   OH2 4313   7.525   5.039   2.729
 1457TIP3    H1 4314   7.554   5.024   2.819
 1457TIP3    H2 4315   7.605   5.058   2.680
 1458TIP3   OH2 4316   4.762   6.402   0.482
 1458TIP3    H1 4317   4.784   6.317   0.446
 1458TIP3    H2 4318   4.842   6.454   0.473
 1459TIP3   OH2 4319   6.871   6.456   1.668
 1459TIP3    H1 4320   6.836   6.420   1.750
 1459TIP3    H2 4321   6.794   6.487   1.621
 1460TIP3   OH2 4322   1.009   4.488   2.667
 1460TIP3    H1 4323   0.944   4.436   2.715
 1460TIP3    H2 4324   1.057   4.535   2.735
 1461TIP3   OH2 4325   4.849   7.113   4.688
 1461TIP3    H1 4326   4.767   7.162   4.697
 1461TIP3    H2 4327   4.917   7.174   4.718
 1462TIP3   OH2 4328   0.407   2.308   0.720
 1462TIP3    H1 4329   0.332   2.309   0.659
 1462TIP3    H2 4330   0.445   2.221   0.709
 1463TIP3   OH2 4331   4.409   4.889   5.910
 1463TIP3    H1 4332   4.381   4.890   6.001
 1463TIP3    H2 4333   4.329   4.874   5.859
 1464TIP3   OH2 4334   6.358   7.360   0.085
 1464TIP3    H1 4335   6.299   7.400   0.149
 1464TIP3    H2 4336   6.299   7.319   0.021
 1465TIP3   OH2 4337   1.159   4.877   3.797
 1465TIP3    H1 4338   1.064   4.876   3.780
 1465TIP3    H2 4339   1.172   4.956   3.851
 1466TIP3   OH2 4340   3.599   4.968   1.904
 1466TIP3    H1 4341   3.558   4.889   1.870
 1466TIP3    H2 4342   3.541   5.039   1.875
 1467TIP3   OH2 4343   3.738   0.288   3.826
 1467TIP3    H1 4344   3.645   0.284   3.804
 1467TIP3    H2 4345   3.748   0.373   3.869
 1468TIP3   OH2 4346   0.203   2.349   1.560
 1468TIP3    H1 4347   0.248   2.318   1.639
 1468TIP3    H2 4348   0.274   2.362   1.496
 1469TIP3   OH2 4349   0.636   0.970   5.491
 1469TIP3    H1 4350   0.616   1.053   5.534
 1469TIP3    H2 4351   0.551   0.934   5.466
 1470TIP3   OH2 4352   0.503   0.550   3.318
 1470TIP3    H1 4353   0.452   0.471   3.300
 1470TIP3    H2 4354   0.569   0.552   3.249
 1471TIP3   OH2 4355   3.924   0.610   3.414
 1471TIP3    H1 4356   4.005   0.655   3.392
 1471TIP3    H2 4357   3.951   0.539   3.473
 1472TIP3   OH2 4358   1.903   1.605   0.940
 1472TIP3    H1 4359   1.977   1.639   0.889
 1472TIP3    H2 4360   1.854   1.551   0.879
 1473TIP3   OH2 4361   7.508   3.495   0.983
 1473TIP3    H1 4362   7.551   3.441   0.917
 1473TIP3    H2 4363   7.576   3.558   1.010
 1474TIP3   OH2 4364   5.944   1.971   4.596
 1474TIP3    H1 4365   5.959   1.879   4.573
 1474TIP3    H2 4366   5.914   1.969   4.687
 1475TIP3   OH2 4367   1.031   0.908   2.503
 1475TIP3    H1 4368   0.992   0.949   2.425
 1475TIP3    H2 4369   1.098   0.849   2.468
 1476TIP3   OH2 4370   7.743   5.076   4.006
 1476TIP3    H1 4371   7.679   5.126   4.057
 1476TIP3    H2 4372   7.785   5.018   4.070
 1477TIP3   OH2 4373   6.321   1.900   5.043
 1477TIP3    H1 4374   6.416   1.896   5.032
 1477TIP3    H2 4375   6.286   1.853   4.967
 1478TIP3   OH2 4376   0.105   2.766   2.841
 1478TIP3    H1 4377   0.042   2.839   2.841
 1478TIP3    H2 4378   0.152   2.776   2.758
 1479TIP3   OH2 4379   1.334   4.671   0.506
 1479TIP3    H1 4380   1.360   4.580   0.494
 1479TIP3    H2 4381   1.330   4.683   0.601
 1480TIP3   OH2 4382   8.038   3.409   0.641
 1480TIP3    H1 4383   8.033   3.356   0.721
 1480TIP3    H2 4384   8.061   3.347   0.572
 1481TIP3   OH2 4385   7.411   6.485   3.414
 1481TIP3    H1 4386   7.328   6.515   3.377
 1481TIP3    H2 4387   7.414   6.525   3.501
 1482TIP3   OH2 4388   4.975   3.677   2.275
 1482TIP3    H1 4389   4.981   3.582   2.262
 1482TIP3    H2 4390   4.965   3.713   2.186
 1483TIP3   OH2 4391   2.243   1.458   1.772
 1483TIP3    H1 4392   2.330   1.494   1.791
 1483TIP3    H2 4393   2.184   1.534   1.774
 1484TIP3   OH2 4394   4.641   6.773   6.082
 1484TIP3    H1 4395   4.579   6.801   6.150
 1484TIP3    H2 4396   4.609   6.687   6.054
 1485TIP3   OH2 4397   3.037   1.411   5.822
 1485TIP3    H1 4398   3.029   1.387   5.730
 1485TIP3    H2 4399   3.083   1.337   5.862
 1486TIP3   OH2 4400   2.468   6.474   6.705
 1486TIP3    H1 4401   2.440   6.526   6.629
 1486TIP3    H2 4402   2.414   6.508   6.778
 1487TIP3   OH2 4403   2.095   2.220   3.412
 1487TIP3    H1 4404   2.035   2.294   3.414
 1487TIP3    H2 4405   2.182   2.259   3.406
 1488TIP3   OH2 4406   0.873   4.968   1.249
 1488TIP3    H1 4407   0.917   4.912   1.313
 1488TIP3    H2 4408   0.875   4.918   1.168
 1489TIP3   OH2 4409   4.376   4.035   5.130
 1489TIP3    H1 4410   4.463   3.997   5.147
 1489TIP3    H2 4411   4.391   4.129   5.127
 1490TIP3   OH2 4412   1.270   3.604   6.564
 1490TIP3    H1 4413   1.205   3.663   6.602
 1490TIP3    H2 4414   1.319   3.572   6.640
 1491TIP3   OH2 4415   5.166   1.528   1.018
 1491TIP3    H1 4416   5.175   1.543   1.113
 1491TIP3    H2 4417   5.075   1.548   0.999
 1492TIP3   OH2 4418   5.996   0.125   3.934
 1492TIP3    H1 4419   5.986   0.196   3.872
 1492TIP3    H2 4420   6.015   0.168   4.017
 1493TIP3   OH2 4421   2.658   1.723   3.875
 1493TIP3    H1 4422   2.674   1.691   3.786
 1493TIP3    H2 4423   2.616   1.650   3.920
 1494TIP3   OH2 4424   8.120   1.236   4.559
 1494TIP3    H1 4425   8.122   1.148   4.522
 1494TIP3    H2 4426   8.178   1.287   4.503
 1495TIP3   OH2 4427   3.379   0.972   3.523
 1495TIP3    H1 4428   3.440   0.936   3.458
 1495TIP3    H2 4429   3.404   1.064   3.531
 1496TIP3   OH2 4430   2.663   2.490   3.812
 1496TIP3    H1 4431   2.664   2.458   3.902
 1496TIP3    H2 4432   2.657   2.410   3.759
 1497TIP3   OH2 4433   3.766   5.259   4.851
 1497TIP3    H1 4434   3.676   5.254   4.882
 1497TIP3    H2 4435   3.813   5.303   4.922
 1498TIP3   OH2 4436   5.503   2.092   1.812
 1498TIP3    H1 4437   5.415   2.057   1.805
 1498TIP3    H2 4438   5.538   2.088   1.723
 1499TIP3   OH2 4439   4.089   1.725   5.231
 1499TIP3    H1 4440   4.090   1.675   5.313
 1499TIP3    H2 4441   4.000   1.762   5.227
 1500TIP3   OH2 4442   4.836   0.068   6.364
 1500TIP3    H1 4443   4.809  -0.020   6.390
 1500TIP3    H2 4444   4.754   0.115   6.351
 1501TIP3   OH2 4445   4.797   0.059   0.363
 1501TIP3    H1 4446   4.833   0.066   0.275
 1501TIP3    H2 4447   4.809   0.146   0.401
 1502TIP3   OH2 4448   6.684   0.681   1.953
 1502TIP3    H1 4449   6.729   0.665   2.036
 1502TIP3    H2 4450   6.616   0.745   1.974
 1503TIP3   OH2 4451   3.084   5.867   2.287
 1503TIP3    H1 4452   3.024   5.820   2.346
 1503TIP3    H2 4453   3.057   5.841   2.199
 1504TIP3   OH2 4454   5.343   0.832   1.233
 1504TIP3    H1 4455   5.288   0.892   1.183
 1504TIP3    H2 4456   5.416   0.812   1.174
 1505TIP3   OH2 4457   3.037   4.770   0.176
 1505TIP3    H1 4458   3.128   4.778   0.205
 1505TIP3    H2 4459   3.012   4.859   0.151
 1506TIP3   OH2 4460   1.933   3.836   5.426
 1506TIP3    H1 4461   1.989   3.893   5.479
 1506TIP3    H2 4462   1.986   3.758   5.410
 1507TIP3   OH2 4463   7.823   6.835   1.385
 1507TIP3    H1 4464   7.780   6.859   1.303
 1507TIP3    H2 4465   7.798   6.743   1.399
 1508TIP3   OH2 4466   3.794   3.219   1.257
 1508TIP3    H1 4467   3.750   3.290   1.210
 1508TIP3    H2 4468   3.861   3.188   1.197
 1509TIP3   OH2 4469   3.883   1.998   3.869
 1509TIP3    H1 4470   3.924   1.921   3.910
 1509TIP3    H2 4471   3.842   2.044   3.942
 1510TIP3   OH2 4472   0.956   5.591   2.607
 1510TIP3    H1 4473   0.927   5.548   2.687
 1510TIP3    H2 4474   0.906   5.672   2.603
 1511TIP3   OH2 4475   4.263   6.142   6.161
 1511TIP3    H1 4476   4.353   6.112   6.148
 1511TIP3    H2 4477   4.271   6.214   6.223
 1512TIP3   OH2 4478   7.960   2.416   1.548
 1512TIP3    H1 4479   7.896   2.487   1.554
 1512TIP3    H2 4480   8.016   2.428   1.625
 1513TIP3   OH2 4481   8.038   0.938   1.769
 1513TIP3    H1 4482   7.966   0.989   1.806
 1513TIP3    H2 4483   8.007   0.847   1.773
 1514TIP3   OH2 4484   4.031   5.995   3.053
 1514TIP3    H1 4485   4.090   6.069   3.040
 1514TIP3    H2 4486   3.946   6.027   3.022
 1515TIP3   OH2 4487   3.933   2.337   5.968
 1515TIP3    H1 4488   3.861   2.287   5.929
 1515TIP3    H2 4489   3.923   2.323   6.062
 1516TIP3   OH2 4490   1.843   6.493   1.176
 1516TIP3    H1 4491   1.809   6.466   1.261
 1516TIP3    H2 4492   1.938   6.480   1.183
 1517TIP3   OH2 4493   1.681   6.942   4.188
 1517TIP3    H1 4494   1.624   6.972   4.259
 1517TIP3    H2 4495   1.641   6.976   4.108
 1518TIP3   OH2 4496   3.983   5.908   0.104
 1518TIP3    H1 4497   3.991   5.887   0.197
 1518TIP3    H2 4498   3.915   5.849   0.071
 1519TIP3   OH2 4499   1.694   3.306   6.179
 1519TIP3    H1 4500   1.633   3.379   6.180
 1519TIP3    H2 4501   1.678   3.259   6.261
 1520TIP3   OH2 4502   2.675   3.408   2.469
 1520TIP3    H1 4503   2.739   3.473   2.499
 1520TIP3    H2 4504   2.609   3.459   2.422
 1521TIP3   OH2 4505   6.676   3.080   5.588
 1521TIP3    H1 4506   6.766   3.058   5.562
 1521TIP3    H2 4507   6.630   2.997   5.589
 1522TIP3   OH2 4508   3.202   2.484   2.223
 1522TIP3    H1 4509   3.172   2.512   2.137
 1522TIP3    H2 4510   3.135   2.517   2.283
 1523TIP3   OH2 4511   3.404   1.939   0.479
 1523TIP3    H1 4512   3.453   1.945   0.398
 1523TIP3    H2 4513   3.458   1.984   0.544
 1524TIP3   OH2 4514   7.210   4.229   1.450
 1524TIP3    H1 4515   7.305   4.231   1.442
 1524TIP3    H2 4516   7.194   4.215   1.543
 1525TIP3   OH2 4517   6.771   2.444   4.575
 1525TIP3    H1 4518   6.739   2.358   4.545
 1525TIP3    H2 4519   6.730   2.507   4.516
 1526TIP3   OH2 4520   4.459   7.475   0.050
 1526TIP3    H1 4521   4.420   7.520   0.125
 1526TIP3    H2 4522   4.518   7.541   0.012
 1527TIP3   OH2 4523   2.556   2.344   5.586
 1527TIP3    H1 4524   2.533   2.344   5.493
 1527TIP3    H2 4525   2.495   2.283   5.626
 1528TIP3   OH2 4526   0.857   6.467   0.381
 1528TIP3    H1 4527   0.870   6.425   0.465
 1528TIP3    H2 4528   0.942   6.463   0.338
 1529TIP3   OH2 4529   7.996   1.801   0.751
 1529TIP3    H1 4530   7.912   1.755   0.753
 1529TIP3    H2 4531   8.020   1.803   0.658
 1530TIP3   OH2 4532   2.263   2.833   1.875
 1530TIP3    H1 4533   2.277   2.745   1.839
 1530TIP3    H2 4534   2.311   2.891   1.816
 1531TIP3   OH2 4535   4.031   0.459   0.104
 1531TIP3    H1 4536   3.978   0.472   0.025
 1531TIP3    H2 4537   3.967   0.452   0.175
 1532TIP3   OH2 4538   4.493   2.832   4.738
 1532TIP3    H1 4539   4.485   2.922   4.770
 1532TIP3    H2 4540   4.464   2.836   4.647
 1533TIP3   OH2 4541   3.014   0.334   3.075
 1533TIP3    H1 4542   2.988   0.376   3.157
 1533TIP3    H2 4543   2.957   0.374   3.009
 1534TIP3   OH2 4544   1.955   6.027   1.746
 1534TIP3    H1 4545   1.928   5.935   1.750
 1534TIP3    H2 4546   2.042   6.027   1.786
 1535TIP3   OH2 4547   7.332   0.950   5.231
 1535TIP3    H1 4548   7.365   0.914   5.149
 1535TIP3    H2 4549   7.400   1.011   5.260
 1536TIP3   OH2 4550   7.232   5.001   6.054
 1536TIP3    H1 4551   7.179   4.940   6.003
 1536TIP3    H2 4552   7.299   5.032   5.993
 1537TIP3   OH2 4553   4.532   5.173   3.225
 1537TIP3    H1 4554   4.618   5.131   3.220
 1537TIP3    H2 4555   4.543   5.255   3.177
 1538TIP3   OH2 4556   0.552   4.815   1.020
 1538TIP3    H1 4557   0.629   4.846   0.971
 1538TIP3    H2 4558   0.564   4.720   1.023
 1539TIP3   OH2 4559   3.830   3.300   0.650
 1539TIP3    H1 4560   3.785   3.305   0.565
 1539TIP3    H2 4561   3.857   3.390   0.668
 1540TIP3   OH2 4562   5.755   2.609   1.519
 1540TIP3    H1 4563   5.739   2.651   1.603
 1540TIP3    H2 4564   5.813   2.670   1.472
 1541TIP3   OH2 4565   7.276   3.899   1.327
 1541TIP3    H1 4566   7.269   3.824   1.267
 1541TIP3    H2 4567   7.315   3.968   1.273
 1542TIP3   OH2 4568   3.183   1.522   3.272
 1542TIP3    H1 4569   3.278   1.518   3.260
 1542TIP3    H2 4570   3.168   1.604   3.319
 1543TIP3   OH2 4571   5.213   0.868   5.486
 1543TIP3    H1 4572   5.151   0.852   5.557
 1543TIP3    H2 4573   5.260   0.947   5.513
 1544TIP3   OH2 4574   0.131   4.717   2.435
 1544TIP3    H1 4575   0.156   4.666   2.512
 1544TIP3    H2 4576   0.162   4.806   2.454
 1545TIP3   OH2 4577   6.641   7.743   3.762
 1545TIP3    H1 4578   6.605   7.703   3.682
 1545TIP3    H2 4579   6.592   7.825   3.771
 1546TIP3   OH2 4580   4.762   2.210   3.796
 1546TIP3    H1 4581   4.744   2.120   3.767
 1546TIP3    H2 4582   4.775   2.259   3.715
 1547TIP3   OH2 4583   5.161   4.516   6.656
 1547TIP3    H1 4584   5.195   4.428   6.667
 1547TIP3    H2 4585   5.238   4.573   6.660
 1548TIP3   OH2 4586   1.108   5.192   6.595
 1548TIP3    H1 4587   1.089   5.103   6.626
 1548TIP3    H2 4588   1.116   5.183   6.500
 1549TIP3   OH2 4589   3.123   1.938   0.452
 1549TIP3    H1 4590   3.104   1.862   0.507
 1549TIP3    H2 4591   3.217   1.952   0.463
 1550TIP3   OH2 4592   6.353   0.051   2.123
 1550TIP3    H1 4593   6.424   0.112   2.139
 1550TIP3    H2 4594   6.293   0.064   2.197
 1551TIP3   OH2 4595   2.904   2.148   3.113
 1551TIP3    H1 4596   2.898   2.143   3.018
 1551TIP3    H2 4597   2.995   2.172   3.131
 1552TIP3   OH2 4598   0.594   5.171   5.026
 1552TIP3    H1 4599   0.569   5.261   5.008
 1552TIP3    H2 4600   0.512   5.125   5.040
 1553TIP3   OH2 4601   3.596   3.887   5.354
 1553TIP3    H1 4602   3.633   3.872   5.267
 1553TIP3    H2 4603   3.667   3.927   5.404
 1554TIP3   OH2 4604   2.329   6.052   3.246
 1554TIP3    H1 4605   2.337   6.023   3.155
 1554TIP3    H2 4606   2.266   5.991   3.284
 1555TIP3   OH2 4607   0.505   0.719   2.861
 1555TIP3    H1 4608   0.556   0.712   2.780
 1555TIP3    H2 4609   0.478   0.811   2.864
 1556TIP3   OH2 4610   5.950   5.345   0.011
 1556TIP3    H1 4611   5.974   5.252   0.002
 1556TIP3    H2 4612   5.976   5.368   0.100
 1557TIP3   OH2 4613   5.890   6.066   0.745
 1557TIP3    H1 4614   5.816   6.048   0.685
 1557TIP3    H2 4615   5.966   6.033   0.698
 1558TIP3   OH2 4616   4.187   6.182   2.830
 1558TIP3    H1 4617   4.236   6.109   2.868
 1558TIP3    H2 4618   4.249   6.223   2.769
 1559TIP3   OH2 4619   0.450   4.719   2.660
 1559TIP3    H1 4620   0.358   4.697   2.679
 1559TIP3    H2 4621   0.500   4.669   2.725
 1560TIP3   OH2 4622   4.312   5.036   4.166
 1560TIP3    H1 4623   4.379   5.074   4.110
 1560TIP3    H2 4624   4.305   5.099   4.239
 1561TIP3   OH2 4625   3.219   4.693   4.265
 1561TIP3    H1 4626   3.270   4.751   4.321
 1561TIP3    H2 4627   3.284   4.639   4.220
 1562TIP3   OH2 4628   7.360   3.023   3.730
 1562TIP3    H1 4629   7.339   3.021   3.636
 1562TIP3    H2 4630   7.276   3.024   3.774
 1563TIP3   OH2 4631   0.549   0.189   0.412
 1563TIP3    H1 4632   0.513   0.191   0.501
 1563TIP3    H2 4633   0.505   0.261   0.367
 1564TIP3   OH2 4634   7.030   2.692   3.338
 1564TIP3    H1 4635   7.063   2.612   3.378
 1564TIP3    H2 4636   6.936   2.693   3.359
 1565TIP3   OH2 4637   4.088   1.577   2.266
 1565TIP3    H1 4638   4.072   1.586   2.172
 1565TIP3    H2 4639   4.007   1.609   2.308
 1566TIP3   OH2 4640   4.647   4.670   4.647
 1566TIP3    H1 4641   4.670   4.648   4.738
 1566TIP3    H2 4642   4.629   4.764   4.649
 1567TIP3   OH2 4643   3.165   3.569   5.371
 1567TIP3    H1 4644   3.209   3.649   5.400
 1567TIP3    H2 4645   3.101   3.599   5.307
 1568TIP3   OH2 4646   8.184   7.026   0.905
 1568TIP3    H1 4647   8.143   7.097   0.855
 1568TIP3    H2 4648   8.222   6.969   0.838
 1569TIP3   OH2 4649   6.039   5.612   1.848
 1569TIP3    H1 4650   6.099   5.679   1.880
 1569TIP3    H2 4651   6.009   5.567   1.927
 1570TIP3   OH2 4652   5.691   3.897   4.138
 1570TIP3    H1 4653   5.750   3.959   4.096
 1570TIP3    H2 4654   5.604   3.920   4.104
 1571TIP3   OH2 4655   4.957   5.239   3.166
 1571TIP3    H1 4656   4.969   5.273   3.078
 1571TIP3    H2 4657   5.046   5.219   3.197
 1572TIP3   OH2 4658   2.800   3.713   0.938
 1572TIP3    H1 4659   2.725   3.657   0.917
 1572TIP3    H2 4660   2.863   3.696   0.868
 1573TIP3   OH2 4661   1.236   2.098   5.013
 1573TIP3    H1 4662   1.213   2.080   5.104
 1573TIP3    H2 4663   1.325   2.134   5.017
 1574TIP3   OH2 4664   3.167   5.222   0.696
 1574TIP3    H1 4665   3.111   5.179   0.631
 1574TIP3    H2 4666   3.123   5.305   0.714
 1575TIP3   OH2 4667   2.593   5.844   4.428
 1575TIP3    H1 4668   2.631   5.909   4.487
 1575TIP3    H2 4669   2.499   5.845   4.448
 1576TIP3   OH2 4670   2.005   6.609   2.537
 1576TIP3    H1 4671   1.923   6.565   2.515
 1576TIP3    H2 4672   2.069   6.571   2.477
 1577TIP3   OH2 4673   1.705   7.397   1.753
 1577TIP3    H1 4674   1.712   7.491   1.766
 1577TIP3    H2 4675   1.756   7.379   1.674
 1578TIP3   OH2 4676   4.402   0.933   3.975
 1578TIP3    H1 4677   4.317   0.931   4.018
 1578TIP3    H2 4678   4.465   0.917   4.045
 1579TIP3   OH2 4679   1.864   6.343   2.154
 1579TIP3    H1 4680   1.851   6.284   2.229
 1579TIP3    H2 4681   1.787   6.330   2.099
 1580TIP3   OH2 4682   4.745   2.833   6.237
 1580TIP3    H1 4683   4.736   2.928   6.244
 1580TIP3    H2 4684   4.667   2.799   6.281
 1581TIP3   OH2 4685   1.806   6.193   0.242
 1581TIP3    H1 4686   1.770   6.143   0.315
 1581TIP3    H2 4687   1.844   6.127   0.184
 1582TIP3   OH2 4688   3.555   6.951   6.192
 1582TIP3    H1 4689   3.486   7.018   6.195
 1582TIP3    H2 4690   3.539   6.903   6.111
 1583TIP3   OH2 4691   7.088   6.894   3.745
 1583TIP3    H1 4692   7.101   6.804   3.713
 1583TIP3    H2 4693   6.993   6.908   3.736
 1584TIP3   OH2 4694   8.225   6.576   0.733
 1584TIP3    H1 4695   8.309   6.623   0.738
 1584TIP3    H2 4696   8.168   6.623   0.794
 1585TIP3   OH2 4697   2.014   6.746   3.190
 1585TIP3    H1 4698   2.099   6.746   3.146
 1585TIP3    H2 4699   2.033   6.770   3.280
 1586TIP3   OH2 4700   3.512   0.281   2.716
 1586TIP3    H1 4701   3.603   0.299   2.738
 1586TIP3    H2 4702   3.505   0.305   2.624
 1587TIP3   OH2 4703   3.743   6.319   3.326
 1587TIP3    H1 4704   3.783   6.274   3.400
 1587TIP3    H2 4705   3.804   6.391   3.306
 1588TIP3   OH2 4706   3.944   7.512   0.284
 1588TIP3    H1 4707   3.958   7.429   0.331
 1588TIP3    H2 4708   3.849   7.519   0.276
 1589TIP3   OH2 4709   3.669   1.259   5.124
 1589TIP3    H1 4710   3.636   1.314   5.053
 1589TIP3    H2 4711   3.759   1.288   5.138
 1590TIP3   OH2 4712   3.211   0.383   2.156
 1590TIP3    H1 4713   3.121   0.361   2.131
 1590TIP3    H2 4714   3.264   0.352   2.082
 1591TIP3   OH2 4715   7.668   0.501   0.259
 1591TIP3    H1 4716   7.748   0.459   0.291
 1591TIP3    H2 4717   7.625   0.434   0.207
 1592TIP3   OH2 4718   1.484   3.155   5.555
 1592TIP3    H1 4719   1.444   3.235   5.520
 1592TIP3    H2 4720   1.426   3.128   5.626
 1593TIP3   OH2 4721   1.589   6.012   2.360
 1593TIP3    H1 4722   1.517   6.000   2.298
 1593TIP3    H2 4723   1.552   6.065   2.431
 1594TIP3   OH2 4724   6.246   0.709   4.974
 1594TIP3    H1 4725   6.322   0.655   4.949
 1594TIP3    H2 4726   6.175   0.677   4.918
 1595TIP3   OH2 4727   1.445   2.217   1.527
 1595TIP3    H1 4728   1.474   2.255   1.444
 1595TIP3    H2 4729   1.524   2.180   1.565
 1596TIP3   OH2 4730   5.652   4.751   1.764
 1596TIP3    H1 4731   5.672   4.841   1.739
 1596TIP3    H2 4732   5.579   4.759   1.824
 1597TIP3   OH2 4733   5.584   4.777   2.407
 1597TIP3    H1 4734   5.606   4.764   2.315
 1597TIP3    H2 4735   5.667   4.763   2.453
 1598TIP3   OH2 4736   7.787   4.403   2.196
 1598TIP3    H1 4737   7.788   4.446   2.282
 1598TIP3    H2 4738   7.704   4.429   2.157
 1599TIP3   OH2 4739   5.739   0.782   2.708
 1599TIP3    H1 4740   5.814   0.835   2.734
 1599TIP3    H2 4741   5.678   0.844   2.668
 1600TIP3   OH2 4742   0.170   1.944   3.360
 1600TIP3    H1 4743   0.179   1.914   3.269
 1600TIP3    H2 4744   0.146   1.866   3.409
 1601TIP3   OH2 4745   5.305   5.992   2.987
 1601TIP3    H1 4746   5.241   5.985   3.058
 1601TIP3    H2 4747   5.254   6.022   2.912
 1602TIP3   OH2 4748   6.088   2.251   5.331
 1602TIP3    H1 4749   6.077   2.157   5.318
 1602TIP3    H2 4750   6.148   2.259   5.405
 1603TIP3   OH2 4751   1.088   6.087   0.300
 1603TIP3    H1 4752   1.122   6.176   0.317
 1603TIP3    H2 4753   1.001   6.102   0.263
 1604TIP3   OH2 4754   2.846   3.692   2.273
 1604TIP3    H1 4755   2.920   3.703   2.214
 1604TIP3    H2 4756   2.786   3.634   2.227
 1605TIP3   OH2 4757   5.191   3.385   6.702
 1605TIP3    H1 4758   5.135   3.311   6.726
 1605TIP3    H2 4759   5.160   3.413   6.616
 1606TIP3   OH2 4760   3.072   5.313   2.000
 1606TIP3    H1 4761   3.081   5.288   1.908
 1606TIP3    H2 4762   3.145   5.271   2.044
 1607TIP3   OH2 4763   8.015   2.759   5.381
 1607TIP3    H1 4764   8.064   2.836   5.352
 1607TIP3    H2 4765   8.079   2.707   5.430
 1608TIP3   OH2 4766   2.214   2.234   0.344
 1608TIP3    H1 4767   2.226   2.323   0.379
 1608TIP3    H2 4768   2.244   2.240   0.253
 1609TIP3   OH2 4769   5.344   4.352   3.236
 1609TIP3    H1 4770   5.292   4.351   3.316
 1609TIP3    H2 4771   5.365   4.260   3.220
 1610TIP3   OH2 4772   2.793   0.166   3.382
 1610TIP3    H1 4773   2.810   0.106   3.454
 1610TIP3    H2 4774   2.818   0.118   3.303
 1611TIP3   OH2 4775   3.460   4.501   4.936
 1611TIP3    H1 4776   3.490   4.559   5.005
 1611TIP3    H2 4777   3.401   4.439   4.979
 1612TIP3   OH2 4778   2.053   3.045   3.447
 1612TIP3    H1 4779   1.984   3.030   3.511
 1612TIP3    H2 4780   2.131   3.065   3.499
 1613TIP3   OH2 4781   6.820   2.968   6.401
 1613TIP3    H1 4782   6.732   2.939   6.427
 1613TIP3    H2 4783   6.879   2.904   6.440
 1614TIP3   OH2 4784   0.332   2.993   5.919
 1614TIP3    H1 4785   0.250   3.024   5.958
 1614TIP3    H2 4786   0.309   2.912   5.875
 1615TIP3   OH2 4787   5.332   4.394   5.388
 1615TIP3    H1 4788   5.355   4.329   5.455
 1615TIP3    H2 4789   5.344   4.478   5.430
 1616TIP3   OH2 4790   5.457   4.840   5.033
 1616TIP3    H1 4791   5.506   4.768   5.073
 1616TIP3    H2 4792   5.473   4.831   4.939
 1617TIP3   OH2 4793   6.952   5.201   0.315
 1617TIP3    H1 4794   6.858   5.220   0.325
 1617TIP3    H2 4795   6.989   5.220   0.402
 1618TIP3   OH2 4796   5.528   2.798   0.523
 1618TIP3    H1 4797   5.483   2.739   0.463
 1618TIP3    H2 4798   5.461   2.823   0.587
 1619TIP3   OH2 4799   5.356   5.705   4.701
 1619TIP3    H1 4800   5.319   5.635   4.649
 1619TIP3    H2 4801   5.393   5.766   4.637
 1620TIP3   OH2 4802   4.231   1.172   0.599
 1620TIP3    H1 4803   4.176   1.228   0.545
 1620TIP3    H2 4804   4.170   1.125   0.656
 1621TIP3   OH2 4805   6.507   1.919   1.012
 1621TIP3    H1 4806   6.529   1.854   1.080
 1621TIP3    H2 4807   6.577   1.984   1.018
 1622TIP3   OH2 4808   7.603   5.451   3.498
 1622TIP3    H1 4809   7.556   5.415   3.423
 1622TIP3    H2 4810   7.669   5.508   3.460
 1623TIP3   OH2 4811   6.708   2.181   4.453
 1623TIP3    H1 4812   6.748   2.097   4.429
 1623TIP3    H2 4813   6.670   2.213   4.371
 1624TIP3   OH2 4814   7.649   2.749   4.478
 1624TIP3    H1 4815   7.677   2.740   4.569
 1624TIP3    H2 4816   7.678   2.668   4.435
 1625TIP3   OH2 4817   7.947   6.208   0.859
 1625TIP3    H1 4818   8.037   6.221   0.889
 1625TIP3    H2 4819   7.941   6.259   0.778
 1626TIP3   OH2 4820   2.076   6.497   5.272
 1626TIP3    H1 4821   2.118   6.581   5.291
 1626TIP3    H2 4822   2.028   6.512   5.191
 1627TIP3   OH2 4823   6.253   3.197   3.611
 1627TIP3    H1 4824   6.248   3.120   3.554
 1627TIP3    H2 4825   6.324   3.249   3.574
 1628TIP3   OH2 4826   6.971   6.444   4.747
 1628TIP3    H1 4827   6.880   6.467   4.764
 1628TIP3    H2 4828   6.993   6.380   4.814
 1629TIP3   OH2 4829   5.139   0.052   0.734
 1629TIP3    H1 4830   5.066   0.009   0.691
 1629TIP3    H2 4831   5.179   0.107   0.666
 1630TIP3   OH2 4832   4.716   0.713   3.481
 1630TIP3    H1 4833   4.636   0.672   3.515
 1630TIP3    H2 4834   4.743   0.657   3.408
 1631TIP3   OH2 4835   7.853   5.442   0.566
 1631TIP3    H1 4836   7.763   5.436   0.534
 1631TIP3    H2 4837   7.906   5.416   0.491
 1632TIP3   OH2 4838   5.631   2.479   1.728
 1632TIP3    H1 4839   5.566   2.431   1.780
 1632TIP3    H2 4840   5.579   2.532   1.668
 1633TIP3   OH2 4841   2.660   6.262   2.683
 1633TIP3    H1 4842   2.627   6.347   2.715
 1633TIP3    H2 4843   2.617   6.197   2.739
 1634TIP3   OH2 4844   2.332   0.535   1.372
 1634TIP3    H1 4845   2.415   0.507   1.410
 1634TIP3    H2 4846   2.356   0.609   1.315
 1635TIP3   OH2 4847   3.881   0.657   1.797
 1635TIP3    H1 4848   3.814   0.640   1.863
 1635TIP3    H2 4849   3.933   0.577   1.794
 1636TIP3   OH2 4850   5.026   2.735   0.922
 1636TIP3    H1 4851   4.994   2.688   0.999
 1636TIP3    H2 4852   5.119   2.748   0.939
 1637TIP3   OH2 4853   7.026   5.338   1.397
 1637TIP3    H1 4854   7.032   5.242   1.388
 1637TIP3    H2 4855   7.049   5.355   1.488
 1638TIP3   OH2 4856   6.320   0.702   4.484
 1638TIP3    H1 4857   6.227   0.680   4.485
 1638TIP3    H2 4858   6.363   0.629   4.529
 1639TIP3   OH2 4859   7.584   3.087   5.680
 1639TIP3    H1 4860   7.603   2.994   5.669
 1639TIP3    H2 4861   7.493   3.097   5.652
 1640TIP3   OH2 4862   5.214   2.244   0.238
 1640TIP3    H1 4863   5.249   2.181   0.176
 1640TIP3    H2 4864   5.183   2.317   0.184
 1641TIP3   OH2 4865   1.130   1.858   3.382
 1641TIP3    H1 4866   1.080   1.936   3.358
 1641TIP3    H2 4867   1.178   1.835   3.302
 1642TIP3   OH2 4868   6.640   1.886   6.115
 1642TIP3    H1 4869   6.662   1.978   6.099
 1642TIP3    H2 4870   6.587   1.889   6.195
 1643TIP3   OH2 4871   3.351   0.928   0.370
 1643TIP3    H1 4872   3.275   0.952   0.424
 1643TIP3    H2 4873   3.325   0.847   0.326
 1644TIP3   OH2 4874   1.335   1.196   0.108
 1644TIP3    H1 4875   1.381   1.134   0.164
 1644TIP3    H2 4876   1.253   1.152   0.086
 1645TIP3   OH2 4877   3.895   0.654   3.145
 1645TIP3    H1 4878   3.967   0.712   3.122
 1645TIP3    H2 4879   3.904   0.640   3.240
 1646TIP3   OH2 4880   2.254   1.288   3.664
 1646TIP3    H1 4881   2.228   1.292   3.572
 1646TIP3    H2 4882   2.270   1.195   3.681
 1647TIP3   OH2 4883   5.129   5.602   1.415
 1647TIP3    H1 4884   5.223   5.590   1.410
 1647TIP3    H2 4885   5.117   5.682   1.466
 1648TIP3   OH2 4886   7.619   5.106   5.569
 1648TIP3    H1 4887   7.636   5.140   5.481
 1648TIP3    H2 4888   7.561   5.171   5.609
 1649TIP3   OH2 4889   6.305   1.946   1.823
 1649TIP3    H1 4890   6.369   2.006   1.862
 1649TIP3    H2 4891   6.251   1.917   1.896
 1650TIP3   OH2 4892   4.942   1.011   0.582
 1650TIP3    H1 4893   4.919   1.102   0.602
 1650TIP3    H2 4894   4.887   0.988   0.508
 1651TIP3   OH2 4895   3.884   6.620   4.038
 1651TIP3    H1 4896   3.853   6.537   4.073
 1651TIP3    H2 4897   3.953   6.596   3.976
 1652TIP3   OH2 4898   1.181   1.166   4.285
 1652TIP3    H1 4899   1.156   1.214   4.365
 1652TIP3    H2 4900   1.104   1.114   4.264
 1653TIP3   OH2 4901   1.462   0.658   5.556
 1653TIP3    H1 4902   1.370   0.666   5.584
 1653TIP3    H2 4903   1.458   0.650   5.461
 1654TIP3   OH2 4904   3.264   3.790   4.829
 1654TIP3    H1 4905   3.234   3.878   4.805
 1654TIP3    H2 4906   3.335   3.771   4.767
 1655TIP3   OH2 4907   7.874   0.782   5.781
 1655TIP3    H1 4908   7.964   0.753   5.792
 1655TIP3    H2 4909   7.828   0.747   5.858
 1656TIP3   OH2 4910   2.327   4.986   6.450
 1656TIP3    H1 4911   2.346   5.013   6.361
 1656TIP3    H2 4912   2.301   4.894   6.442
 1657TIP3   OH2 4913   6.554   4.487   1.606
 1657TIP3    H1 4914   6.482   4.448   1.557
 1657TIP3    H2 4915   6.522   4.574   1.631
 1658TIP3   OH2 4916   2.802   3.930   0.021
 1658TIP3    H1 4917   2.876   3.914  -0.038
 1658TIP3    H2 4918   2.838   3.989   0.088
 1659TIP3   OH2 4919   0.213   1.755   5.380
 1659TIP3    H1 4920   0.125   1.724   5.360
 1659TIP3    H2 4921   0.241   1.801   5.300
 1660TIP3   OH2 4922   5.136   1.526   0.561
 1660TIP3    H1 4923   5.043   1.507   0.573
 1660TIP3    H2 4924   5.166   1.461   0.498
 1661TIP3   OH2 4925   7.223   5.358   4.876
 1661TIP3    H1 4926   7.285   5.406   4.821
 1661TIP3    H2 4927   7.154   5.421   4.896
 1662TIP3   OH2 4928   3.242   2.245   6.639
 1662TIP3    H1 4929   3.220   2.177   6.576
 1662TIP3    H2 4930   3.292   2.199   6.707
 1663TIP3   OH2 4931   3.434   4.409   1.180
 1663TIP3    H1 4932   3.433   4.503   1.198
 1663TIP3    H2 4933   3.384   4.371   1.252
 1664TIP3   OH2 4934   2.921   2.214   1.977
 1664TIP3    H1 4935   2.958   2.300   1.956
 1664TIP3    H2 4936   2.956   2.193   2.063
 1665TIP3   OH2 4937   1.844   0.732   2.803
 1665TIP3    H1 4938   1.801   0.790   2.866
 1665TIP3    H2 4939   1.932   0.718   2.840
 1666TIP3   OH2 4940   6.483   3.905   1.705
 1666TIP3    H1 4941   6.403   3.954   1.688
 1666TIP3    H2 4942   6.457   3.836   1.765
 1667TIP3   OH2 4943   2.495   7.381   6.715
 1667TIP3    H1 4944   2.451   7.355   6.633
 1667TIP3    H2 4945   2.582   7.408   6.687
 1668TIP3   OH2 4946   6.186   0.420   6.509
 1668TIP3    H1 4947   6.138   0.402   6.590
 1668TIP3    H2 4948   6.277   0.427   6.536
 1669TIP3   OH2 4949   0.877   3.541   0.712
 1669TIP3    H1 4950   0.920   3.619   0.747
 1669TIP3    H2 4951   0.820   3.574   0.642
 1670TIP3   OH2 4952   0.155   7.383   6.032
 1670TIP3    H1 4953   0.245   7.382   5.998
 1670TIP3    H2 4954   0.161   7.436   6.112
 1671TIP3   OH2 4955   4.392   6.586   4.959
 1671TIP3    H1 4956   4.297   6.598   4.963
 1671TIP3    H2 4957   4.405   6.494   4.979
 1672TIP3   OH2 4958   4.317   0.969   0.401
 1672TIP3    H1 4959   4.302   0.954   0.494
 1672TIP3    H2 4960   4.250   1.034   0.377
 1673TIP3   OH2 4961   0.419   1.615   3.414
 1673TIP3    H1 4962   0.472   1.548   3.458
 1673TIP3    H2 4963   0.467   1.697   3.430
 1674TIP3   OH2 4964   1.319   3.312   1.108
 1674TIP3    H1 4965   1.246   3.346   1.160
 1674TIP3    H2 4966   1.278   3.285   1.025
 1675TIP3   OH2 4967   4.176   6.298   2.039
 1675TIP3    H1 4968   4.191   6.391   2.022
 1675TIP3    H2 4969   4.082   6.286   2.025
 1676TIP3   OH2 4970   7.287   7.617   5.729
 1676TIP3    H1 4971   7.255   7.570   5.652
 1676TIP3    H2 4972   7.340   7.688   5.693
 1677TIP3   OH2 4973   1.744   1.410   5.128
 1677TIP3    H1 4974   1.801   1.390   5.053
 1677TIP3    H2 4975   1.684   1.477   5.094
 1678TIP3   OH2 4976   2.757   2.424   4.529
 1678TIP3    H1 4977   2.818   2.496   4.514
 1678TIP3    H2 4978   2.705   2.420   4.449
 1679TIP3   OH2 4979   7.244   6.251   6.662
 1679TIP3    H1 4980   7.318   6.304   6.631
 1679TIP3    H2 4981   7.283   6.193   6.728
 1680TIP3   OH2 4982   2.672   2.715   5.952
 1680TIP3    H1 4983   2.744   2.728   5.891
 1680TIP3    H2 4984   2.631   2.633   5.924
 1681TIP3   OH2 4985   2.793   3.345   1.836
 1681TIP3    H1 4986   2.817   3.435   1.857
 1681TIP3    H2 4987   2.700   3.338   1.860
 1682TIP3   OH2 4988   6.840   5.020   3.377
 1682TIP3    H1 4989   6.770   4.963   3.410
 1682TIP3    H2 4990   6.916   4.963   3.372
 1683TIP3   OH2 4991   0.754   4.170   4.864
 1683TIP3    H1 4992   0.743   4.192   4.956
 1683TIP3    H2 4993   0.829   4.111   4.862
 1684TIP3   OH2 4994   1.488   7.595   6.498
 1684TIP3    H1 4995   1.576   7.619   6.467
 1684TIP3    H2 4996   1.490   7.499   6.501
 1685TIP3   OH2 4997   2.016   3.658   2.634
 1685TIP3    H1 4998   2.057   3.571   2.634
 1685TIP3    H2 4999   1.922   3.640   2.630
 1686TIP3   OH2 5000   6.962   6.217   4.429
 1686TIP3    H1 5001   6.878   6.243   4.468
 1686TIP3    H2 5002   6.974   6.278   4.356
 1687TIP3   OH2 5003   7.896   0.230   3.880
 1687TIP3    H1 5004   7.875   0.302   3.939
 1687TIP3    H2 5005   7.813   0.211   3.835
 1688TIP3   OH2 5006   7.540   6.953   0.927
 1688TIP3    H1 5007   7.500   6.870   0.903
 1688TIP3    H2 5008   7.474   7.019   0.906
 1689TIP3   OH2 5009   5.795   5.160   5.414
 1689TIP3    H1 5010   5.750   5.134   5.495
 1689TIP3    H2 5011   5.807   5.078   5.366
 1690TIP3   OH2 5012   4.085   6.776   2.047
 1690TIP3    H1 5013   3.989   6.783   2.049
 1690TIP3    H2 5014   4.116   6.866   2.042
 1691TIP3   OH2 5015   5.071   2.631   5.722
 1691TIP3    H1 5016   5.047   2.651   5.812
 1691TIP3    H2 5017   5.018   2.690   5.669
 1692TIP3   OH2 5018   0.022   3.328   0.287
 1692TIP3    H1 5019   0.041   3.402   0.230
 1692TIP3    H2 5020  -0.031   3.269   0.233
 1693TIP3   OH2 5021   6.142   1.933   2.086
 1693TIP3    H1 5022   6.204   1.861   2.096
 1693TIP3    H2 5023   6.181   2.004   2.137
 1694TIP3   OH2 5024   4.517   3.413   6.731
 1694TIP3    H1 5025   4.528   3.427   6.637
 1694TIP3    H2 5026   4.606   3.410   6.766
 1695TIP3   OH2 5027   1.266   5.953   6.071
 1695TIP3    H1 5028   1.229   6.041   6.081
 1695TIP3    H2 5029   1.359   5.968   6.055
 1696TIP3   OH2 5030   2.891   3.273   2.380
 1696TIP3    H1 5031   2.885   3.300   2.288
 1696TIP3    H2 5032   2.807   3.297   2.418
 1697TIP3   OH2 5033   2.818   0.581   1.430
 1697TIP3    H1 5034   2.788   0.633   1.505
 1697TIP3    H2 5035   2.738   0.543   1.394
 1698TIP3   OH2 5036   0.827   5.257   3.681
 1698TIP3    H1 5037   0.751   5.312   3.697
 1698TIP3    H2 5038   0.795   5.186   3.624
 1699TIP3   OH2 5039   5.117   6.253   1.411
 1699TIP3    H1 5040   5.092   6.345   1.400
 1699TIP3    H2 5041   5.041   6.204   1.379
 1700TIP3   OH2 5042   2.739   4.240   0.679
 1700TIP3    H1 5043   2.745   4.294   0.600
 1700TIP3    H2 5044   2.810   4.177   0.671
 1701TIP3   OH2 5045   5.226   0.627   2.514
 1701TIP3    H1 5046   5.252   0.544   2.473
 1701TIP3    H2 5047   5.131   0.621   2.522
 1702TIP3   OH2 5048   0.627   4.727   5.372
 1702TIP3    H1 5049   0.722   4.732   5.384
 1702TIP3    H2 5050   0.602   4.814   5.340
 1703TIP3   OH2 5051   3.663   3.052   0.895
 1703TIP3    H1 5052   3.724   3.100   0.839
 1703TIP3    H2 5053   3.718   3.008   0.959
 1704TIP3   OH2 5054   2.361   4.966   5.582
 1704TIP3    H1 5055   2.314   4.885   5.601
 1704TIP3    H2 5056   2.292   5.030   5.564
 1705TIP3   OH2 5057   3.138   7.229   1.570
 1705TIP3    H1 5058   3.048   7.230   1.604
 1705TIP3    H2 5059   3.193   7.235   1.648
 1706TIP3   OH2 5060   7.988   3.355   3.761
 1706TIP3    H1 5061   7.927   3.286   3.785
 1706TIP3    H2 5062   7.932   3.428   3.734
 1707TIP3   OH2 5063   7.097   2.304   5.657
 1707TIP3    H1 5064   7.100   2.285   5.751
 1707TIP3    H2 5065   7.189   2.301   5.629
 1708TIP3   OH2 5066   7.759   0.553   1.821
 1708TIP3    H1 5067   7.745   0.484   1.886
 1708TIP3    H2 5068   7.711   0.525   1.744
 1709TIP3   OH2 5069   3.273   2.237  -0.022
 1709TIP3    H1 5070   3.340   2.304  -0.032
 1709TIP3    H2 5071   3.191   2.285  -0.013
 1710TIP3   OH2 5072   1.730   6.305   4.496
 1710TIP3    H1 5073   1.816   6.275   4.469
 1710TIP3    H2 5074   1.718   6.388   4.451
 1711TIP3   OH2 5075   0.799   2.371   4.944
 1711TIP3    H1 5076   0.804   2.312   4.868
 1711TIP3    H2 5077   0.801   2.313   5.020
 1712TIP3   OH2 5078   2.969   0.312   3.744
 1712TIP3    H1 5079   2.955   0.314   3.650
 1712TIP3    H2 5080   2.978   0.404   3.769
 1713TIP3   OH2 5081   4.320   0.809   1.240
 1713TIP3    H1 5082   4.373   0.887   1.223
 1713TIP3    H2 5083   4.294   0.777   1.153
 1714TIP3   OH2 5084   7.054   1.736   2.971
 1714TIP3    H1 5085   7.058   1.796   2.896
 1714TIP3    H2 5086   6.978   1.765   3.021
 1715TIP3   OH2 5087   3.535   2.600   3.716
 1715TIP3    H1 5088   3.527   2.508   3.742
 1715TIP3    H2 5089   3.462   2.614   3.656
 1716TIP3   OH2 5090   5.469   0.593   6.214
 1716TIP3    H1 5091   5.483   0.499   6.214
 1716TIP3    H2 5092   5.425   0.611   6.297
 1717TIP3   OH2 5093   2.642   2.271   3.160
 1717TIP3    H1 5094   2.718   2.224   3.125
 1717TIP3    H2 5095   2.679   2.328   3.228
 1718TIP3   OH2 5096   1.855   1.522   2.119
 1718TIP3    H1 5097   1.939   1.495   2.081
 1718TIP3    H2 5098   1.834   1.453   2.182
 1719TIP3   OH2 5099   2.091   6.599   6.500
 1719TIP3    H1 5100   2.123   6.509   6.491
 1719TIP3    H2 5101   2.000   6.589   6.530
 1720TIP3   OH2 5102   1.868   5.365   4.277
 1720TIP3    H1 5103   1.838   5.284   4.237
 1720TIP3    H2 5104   1.902   5.417   4.204
 1721TIP3   OH2 5105   2.891   6.003   3.668
 1721TIP3    H1 5106   2.911   6.076   3.609
 1721TIP3    H2 5107   2.943   6.020   3.747
 1722TIP3   OH2 5108   0.206   1.760   0.699
 1722TIP3    H1 5109   0.192   1.667   0.683
 1722TIP3    H2 5110   0.147   1.782   0.770
 1723TIP3   OH2 5111   1.770   2.817   2.477
 1723TIP3    H1 5112   1.814   2.744   2.432
 1723TIP3    H2 5113   1.832   2.845   2.544
 1724TIP3   OH2 5114   7.155   0.966   2.399
 1724TIP3    H1 5115   7.251   0.975   2.396
 1724TIP3    H2 5116   7.130   0.955   2.307
 1725TIP3   OH2 5117   6.473   3.435   2.567
 1725TIP3    H1 5118   6.415   3.403   2.497
 1725TIP3    H2 5119   6.440   3.523   2.586
 1726TIP3   OH2 5120   7.488   0.663   6.132
 1726TIP3    H1 5121   7.506   0.623   6.047
 1726TIP3    H2 5122   7.563   0.640   6.186
 1727TIP3   OH2 5123   1.735   2.490   2.861
 1727TIP3    H1 5124   1.782   2.406   2.862
 1727TIP3    H2 5125   1.705   2.499   2.770
 1728TIP3   OH2 5126   7.842   2.136   4.311
 1728TIP3    H1 5127   7.916   2.158   4.367
 1728TIP3    H2 5128   7.829   2.214   4.257
 1729TIP3   OH2 5129   4.297   1.433   1.058
 1729TIP3    H1 5130   4.311   1.376   0.982
 1729TIP3    H2 5131   4.382   1.439   1.101
 1730TIP3   OH2 5132   4.016   0.295   3.176
 1730TIP3    H1 5133   4.096   0.263   3.133
 1730TIP3    H2 5134   4.027   0.390   3.180
 1731TIP3   OH2 5135   2.247   1.908   6.422
 1731TIP3    H1 5136   2.163   1.880   6.386
 1731TIP3    H2 5137   2.225   1.984   6.477
 1732TIP3   OH2 5138   0.831   3.853   5.674
 1732TIP3    H1 5139   0.835   3.773   5.725
 1732TIP3    H2 5140   0.917   3.858   5.630
 1733TIP3   OH2 5141   2.565   6.963   0.744
 1733TIP3    H1 5142   2.632   7.020   0.784
 1733TIP3    H2 5143   2.514   6.931   0.819
 1734TIP3   OH2 5144   4.061   0.727   6.712
 1734TIP3    H1 5145   4.049   0.633   6.704
 1734TIP3    H2 5146   4.038   0.747   6.803
 1735TIP3   OH2 5147   5.267   5.440   1.747
 1735TIP3    H1 5148   5.200   5.396   1.696
 1735TIP3    H2 5149   5.295   5.375   1.812
 1736TIP3   OH2 5150   4.156   4.600   2.718
 1736TIP3    H1 5151   4.146   4.574   2.627
 1736TIP3    H2 5152   4.066   4.615   2.749
 1737TIP3   OH2 5153   3.793   6.594   0.104
 1737TIP3    H1 5154   3.815   6.525   0.167
 1737TIP3    H2 5155   3.769   6.669   0.158
 1738TIP3   OH2 5156   3.919   6.815   1.448
 1738TIP3    H1 5157   3.929   6.807   1.543
 1738TIP3    H2 5158   3.832   6.853   1.436
 1739TIP3   OH2 5159   2.638   7.850   2.196
 1739TIP3    H1 5160   2.713   7.805   2.159
 1739TIP3    H2 5161   2.601   7.787   2.259
 1740TIP3   OH2 5162   2.818   7.266   3.468
 1740TIP3    H1 5163   2.853   7.213   3.395
 1740TIP3    H2 5164   2.729   7.233   3.480
 1741TIP3   OH2 5165   5.023   5.960   3.774
 1741TIP3    H1 5166   5.088   5.890   3.766
 1741TIP3    H2 5167   4.964   5.947   3.700
 1742TIP3   OH2 5168   2.980   6.194   6.225
 1742TIP3    H1 5169   2.897   6.214   6.267
 1742TIP3    H2 5170   3.030   6.275   6.231
 1743TIP3   OH2 5171   0.497   7.387   3.416
 1743TIP3    H1 5172   0.518   7.389   3.510
 1743TIP3    H2 5173   0.472   7.477   3.395
 1744TIP3   OH2 5174   7.493   0.250   6.189
 1744TIP3    H1 5175   7.516   0.339   6.214
 1744TIP3    H2 5176   7.400   0.254   6.168
 1745TIP3   OH2 5177   5.060   1.742   2.754
 1745TIP3    H1 5178   5.083   1.691   2.832
 1745TIP3    H2 5179   4.977   1.705   2.725
 1746TIP3   OH2 5180   0.343   7.330   5.681
 1746TIP3    H1 5181   0.355   7.423   5.660
 1746TIP3    H2 5182   0.261   7.307   5.636
 1747TIP3   OH2 5183   2.214   6.444   5.034
 1747TIP3    H1 5184   2.264   6.398   5.102
 1747TIP3    H2 5185   2.122   6.423   5.054
 1748TIP3   OH2 5186   1.727   4.172   4.860
 1748TIP3    H1 5187   1.682   4.210   4.784
 1748TIP3    H2 5188   1.689   4.085   4.869
 1749TIP3   OH2 5189   1.909   5.742   4.579
 1749TIP3    H1 5190   1.914   5.710   4.669
 1749TIP3    H2 5191   1.958   5.678   4.528
 1750TIP3   OH2 5192   2.527   6.985   1.286
 1750TIP3    H1 5193   2.568   7.025   1.209
 1750TIP3    H2 5194   2.452   7.042   1.305
 1751TIP3   OH2 5195   2.707   6.880   5.041
 1751TIP3    H1 5196   2.726   6.927   4.960
 1751TIP3    H2 5197   2.614   6.859   5.035
 1752TIP3   OH2 5198   0.630   5.119   3.130
 1752TIP3    H1 5199   0.542   5.116   3.168
 1752TIP3    H2 5200   0.668   5.200   3.165
 1753TIP3   OH2 5201   6.296   5.154   2.318
 1753TIP3    H1 5202   6.332   5.207   2.389
 1753TIP3    H2 5203   6.292   5.213   2.243
 1754TIP3   OH2 5204   6.772   7.063   1.823
 1754TIP3    H1 5205   6.863   7.047   1.849
 1754TIP3    H2 5206   6.725   6.985   1.852
 1755TIP3   OH2 5207   4.532   3.449   2.761
 1755TIP3    H1 5208   4.452   3.451   2.709
 1755TIP3    H2 5209   4.519   3.516   2.828
 1756TIP3   OH2 5210   3.686   7.814   3.966
 1756TIP3    H1 5211   3.666   7.818   4.059
 1756TIP3    H2 5212   3.736   7.733   3.955
 1757TIP3   OH2 5213   1.924   6.291   0.821
 1757TIP3    H1 5214   1.985   6.240   0.874
 1757TIP3    H2 5215   1.844   6.294   0.873
 1758TIP3   OH2 5216   2.101   4.324   4.468
 1758TIP3    H1 5217   2.054   4.394   4.423
 1758TIP3    H2 5218   2.185   4.319   4.422
 1759TIP3   OH2 5219   1.204   7.732   0.382
 1759TIP3    H1 5220   1.209   7.636   0.375
 1759TIP3    H2 5221   1.295   7.760   0.394
 1760TIP3   OH2 5222   4.453   6.814   5.549
 1760TIP3    H1 5223   4.479   6.781   5.636
 1760TIP3    H2 5224   4.371   6.861   5.565
 1761TIP3   OH2 5225   0.983   0.314   6.629
 1761TIP3    H1 5226   1.078   0.328   6.621
 1761TIP3    H2 5227   0.961   0.257   6.555
 1762TIP3   OH2 5228   1.859   5.413   2.388
 1762TIP3    H1 5229   1.801   5.353   2.434
 1762TIP3    H2 5230   1.860   5.381   2.298
 1763TIP3   OH2 5231   5.880   6.522   2.133
 1763TIP3    H1 5232   5.827   6.513   2.054
 1763TIP3    H2 5233   5.835   6.469   2.199
 1764TIP3   OH2 5234   2.857   7.717   4.630
 1764TIP3    H1 5235   2.804   7.713   4.709
 1764TIP3    H2 5236   2.851   7.630   4.592
 1765TIP3   OH2 5237   4.950   3.851   3.820
 1765TIP3    H1 5238   4.879   3.906   3.787
 1765TIP3    H2 5239   4.920   3.823   3.906
 1766TIP3   OH2 5240   3.262   6.619   1.684
 1766TIP3    H1 5241   3.200   6.583   1.748
 1766TIP3    H2 5242   3.261   6.714   1.700
 1767TIP3   OH2 5243   5.207   3.131   4.438
 1767TIP3    H1 5244   5.148   3.205   4.445
 1767TIP3    H2 5245   5.163   3.060   4.486
 1768TIP3   OH2 5246   7.883   6.926   2.674
 1768TIP3    H1 5247   7.851   6.885   2.754
 1768TIP3    H2 5248   7.855   6.867   2.604
 1769TIP3   OH2 5249   3.974   0.892   1.070
 1769TIP3    H1 5250   3.881   0.901   1.095
 1769TIP3    H2 5251   3.999   0.979   1.040
 1770TIP3   OH2 5252   6.974   5.259   1.672
 1770TIP3    H1 5253   6.937   5.341   1.703
 1770TIP3    H2 5254   6.957   5.197   1.742
 1771TIP3   OH2 5255   3.515   0.116   4.957
 1771TIP3    H1 5256   3.527   0.177   5.030
 1771TIP3    H2 5257   3.576   0.148   4.890
 1772TIP3   OH2 5258   4.625   1.141   4.315
 1772TIP3    H1 5259   4.575   1.157   4.235
 1772TIP3    H2 5260   4.592   1.206   4.377
 1773TIP3   OH2 5261   3.004   4.655   3.706
 1773TIP3    H1 5262   3.002   4.565   3.673
 1773TIP3    H2 5263   3.082   4.694   3.665
 1774TIP3   OH2 5264   5.244   4.488   5.665
 1774TIP3    H1 5265   5.277   4.401   5.641
 1774TIP3    H2 5266   5.163   4.470   5.714
 1775TIP3   OH2 5267   6.252   3.105   5.950
 1775TIP3    H1 5268   6.198   3.065   6.017
 1775TIP3    H2 5269   6.262   3.196   5.977
 1776TIP3   OH2 5270   2.054   5.076   4.553
 1776TIP3    H1 5271   2.137   5.048   4.515
 1776TIP3    H2 5272   1.990   5.061   4.483
 1777TIP3   OH2 5273   5.258   7.384   6.383
 1777TIP3    H1 5274   5.323   7.452   6.367
 1777TIP3    H2 5275   5.249   7.380   6.478
 1778TIP3   OH2 5276   1.276   1.706   5.634
 1778TIP3    H1 5277   1.197   1.686   5.684
 1778TIP3    H2 5278   1.300   1.795   5.662
 1779TIP3   OH2 5279   1.086   2.214   1.677
 1779TIP3    H1 5280   1.093   2.229   1.583
 1779TIP3    H2 5281   1.157   2.151   1.696
 1780TIP3   OH2 5282   2.422   3.826   2.586
 1780TIP3    H1 5283   2.375   3.897   2.631
 1780TIP3    H2 5284   2.498   3.869   2.548
 1781TIP3   OH2 5285   0.967   3.615   5.021
 1781TIP3    H1 5286   0.903   3.676   5.059
 1781TIP3    H2 5287   1.052   3.656   5.039
 1782TIP3   OH2 5288   3.141   6.395   5.629
 1782TIP3    H1 5289   3.202   6.453   5.584
 1782TIP3    H2 5290   3.154   6.414   5.722
 1783TIP3   OH2 5291   8.202   2.803   0.028
 1783TIP3    H1 5292   8.247   2.719   0.034
 1783TIP3    H2 5293   8.151   2.796  -0.053
 1784TIP3   OH2 5294   2.931   5.582   1.704
 1784TIP3    H1 5295   2.951   5.491   1.724
 1784TIP3    H2 5296   2.948   5.591   1.610
 1785TIP3   OH2 5297   5.697   3.529   6.756
 1785TIP3    H1 5298   5.763   3.461   6.768
 1785TIP3    H2 5299   5.615   3.482   6.742
 1786TIP3   OH2 5300   3.981   2.731   4.264
 1786TIP3    H1 5301   3.956   2.822   4.250
 1786TIP3    H2 5302   3.982   2.721   4.359
 1787TIP3   OH2 5303   1.056   4.554   0.467
 1787TIP3    H1 5304   1.129   4.614   0.485
 1787TIP3    H2 5305   0.997   4.604   0.411
 1788TIP3   OH2 5306   0.773   2.777   4.934
 1788TIP3    H1 5307   0.825   2.737   5.003
 1788TIP3    H2 5308   0.789   2.723   4.857
 1789TIP3   OH2 5309   2.394   5.431   5.396
 1789TIP3    H1 5310   2.482   5.392   5.406
 1789TIP3    H2 5311   2.382   5.484   5.475
 1790TIP3   OH2 5312   2.477   2.297   0.601
 1790TIP3    H1 5313   2.533   2.333   0.670
 1790TIP3    H2 5314   2.537   2.248   0.545
 1791TIP3   OH2 5315   1.350   4.165   2.497
 1791TIP3    H1 5316   1.411   4.179   2.425
 1791TIP3    H2 5317   1.390   4.212   2.571
 1792TIP3   OH2 5318   0.742   4.452   2.765
 1792TIP3    H1 5319   0.753   4.541   2.731
 1792TIP3    H2 5320   0.740   4.462   2.860
 1793TIP3   OH2 5321   0.543   3.545   0.578
 1793TIP3    H1 5322   0.521   3.500   0.659
 1793TIP3    H2 5323   0.545   3.638   0.601
 1794TIP3   OH2 5324   1.331   4.084   5.294
 1794TIP3    H1 5325   1.363   3.995   5.306
 1794TIP3    H2 5326   1.254   4.075   5.238
 1795TIP3   OH2 5327   0.685   4.312   4.341
 1795TIP3    H1 5328   0.618   4.254   4.379
 1795TIP3    H2 5329   0.673   4.395   4.386
 1796TIP3   OH2 5330   3.269   0.697   4.017
 1796TIP3    H1 5331   3.329   0.767   4.045
 1796TIP3    H2 5332   3.320   0.617   4.024
 1797TIP3   OH2 5333   1.694   0.731   4.862
 1797TIP3    H1 5334   1.601   0.753   4.854
 1797TIP3    H2 5335   1.696   0.660   4.926
 1798TIP3   OH2 5336   5.329   3.267   0.333
 1798TIP3    H1 5337   5.279   3.209   0.389
 1798TIP3    H2 5338   5.282   3.350   0.336
 1799TIP3   OH2 5339   3.319   2.604   3.943
 1799TIP3    H1 5340   3.380   2.628   4.013
 1799TIP3    H2 5341   3.375   2.589   3.867
 1800TIP3   OH2 5342   3.437   0.399   0.645
 1800TIP3    H1 5343   3.354   0.402   0.693
 1800TIP3    H2 5344   3.414   0.427   0.557
 1801TIP3   OH2 5345   6.404   2.728   0.110
 1801TIP3    H1 5346   6.497   2.712   0.123
 1801TIP3    H2 5347   6.368   2.735   0.198
 1802TIP3   OH2 5348   3.983   6.866   0.688
 1802TIP3    H1 5349   3.912   6.921   0.654
 1802TIP3    H2 5350   4.023   6.828   0.610
 1803TIP3   OH2 5351   1.130   6.601   6.622
 1803TIP3    H1 5352   1.052   6.634   6.577
 1803TIP3    H2 5353   1.144   6.663   6.694
 1804TIP3   OH2 5354   0.047   5.163   3.284
 1804TIP3    H1 5355   0.031   5.158   3.190
 1804TIP3    H2 5356   0.142   5.164   3.293
 1805TIP3   OH2 5357   5.516   2.307   2.662
 1805TIP3    H1 5358   5.450   2.369   2.691
 1805TIP3    H2 5359   5.541   2.260   2.741
 1806TIP3   OH2 5360   7.758   5.527   0.796
 1806TIP3    H1 5361   7.672   5.490   0.776
 1806TIP3    H2 5362   7.815   5.493   0.728
 1807TIP3   OH2 5363   3.331  -0.033   5.776
 1807TIP3    H1 5364   3.267  -0.048   5.706
 1807TIP3    H2 5365   3.416  -0.034   5.732
 1808TIP3   OH2 5366   3.734   4.812   2.323
 1808TIP3    H1 5367   3.807   4.860   2.364
 1808TIP3    H2 5368   3.717   4.859   2.242
 1809TIP3   OH2 5369   8.089   6.082   4.195
 1809TIP3    H1 5370   8.067   6.033   4.116
 1809TIP3    H2 5371   8.168   6.131   4.172
 1810TIP3   OH2 5372   7.137   1.261   3.434
 1810TIP3    H1 5373   7.129   1.166   3.445
 1810TIP3    H2 5374   7.168   1.273   3.345
 1811TIP3   OH2 5375   6.815   7.634   2.741
 1811TIP3    H1 5376   6.755   7.661   2.672
 1811TIP3    H2 5377   6.800   7.697   2.812
 1812TIP3   OH2 5378   2.300   2.555   1.800
 1812TIP3    H1 5379   2.332   2.468   1.823
 1812TIP3    H2 5380   2.355   2.582   1.726
 1813TIP3   OH2 5381   1.596   4.523   2.360
 1813TIP3    H1 5382   1.626   4.456   2.422
 1813TIP3    H2 5383   1.666   4.529   2.296
 1814TIP3   OH2 5384   3.522   6.157   4.112
 1814TIP3    H1 5385   3.591   6.112   4.160
 1814TIP3    H2 5386   3.460   6.088   4.088
 1815TIP3   OH2 5387   0.173   0.510   3.828
 1815TIP3    H1 5388   0.236   0.439   3.838
 1815TIP3    H2 5389   0.091   0.466   3.804
 1816TIP3   OH2 5390   2.088   2.303   5.177
 1816TIP3    H1 5391   2.166   2.254   5.203
 1816TIP3    H2 5392   2.122   2.385   5.143
 1817TIP3   OH2 5393   2.387   2.180   4.048
 1817TIP3    H1 5394   2.303   2.135   4.036
 1817TIP3    H2 5395   2.411   2.160   4.138
 1818TIP3   OH2 5396   0.102   6.685   3.158
 1818TIP3    H1 5397   0.140   6.759   3.111
 1818TIP3    H2 5398   0.007   6.697   3.149
 1819TIP3   OH2 5399   2.095   5.776   5.089
 1819TIP3    H1 5400   2.108   5.681   5.092
 1819TIP3    H2 5401   2.034   5.790   5.016
 1820TIP3   OH2 5402   4.407   0.526   6.223
 1820TIP3    H1 5403   4.452   0.593   6.171
 1820TIP3    H2 5404   4.320   0.563   6.240
 1821TIP3   OH2 5405   1.749   2.168   3.557
 1821TIP3    H1 5406   1.728   2.226   3.485
 1821TIP3    H2 5407   1.688   2.095   3.549
 1822TIP3   OH2 5408   7.209   7.382   0.921
 1822TIP3    H1 5409   7.124   7.417   0.895
 1822TIP3    H2 5410   7.242   7.446   0.985
 1823TIP3   OH2 5411   6.347   7.453   3.685
 1823TIP3    H1 5412   6.293   7.383   3.649
 1823TIP3    H2 5413   6.393   7.413   3.759
 1824TIP3   OH2 5414   3.311   6.038   1.370
 1824TIP3    H1 5415   3.365   5.982   1.426
 1824TIP3    H2 5416   3.372   6.073   1.305
 1825TIP3   OH2 5417   0.841   6.867   6.254
 1825TIP3    H1 5418   0.797   6.933   6.200
 1825TIP3    H2 5419   0.774   6.800   6.267
 1826TIP3   OH2 5420   0.951   7.304   3.257
 1826TIP3    H1 5421   1.043   7.323   3.239
 1826TIP3    H2 5422   0.937   7.339   3.345
 1827TIP3   OH2 5423   3.508   5.789   5.229
 1827TIP3    H1 5424   3.511   5.758   5.139
 1827TIP3    H2 5425   3.500   5.710   5.282
 1828TIP3   OH2 5426   4.680   7.238   5.081
 1828TIP3    H1 5427   4.668   7.229   4.986
 1828TIP3    H2 5428   4.634   7.164   5.119
 1829TIP3   OH2 5429   6.889   7.511   5.393
 1829TIP3    H1 5430   6.923   7.514   5.482
 1829TIP3    H2 5431   6.899   7.419   5.367
 1830TIP3   OH2 5432   1.219   5.187   0.710
 1830TIP3    H1 5433   1.209   5.252   0.779
 1830TIP3    H2 5434   1.176   5.226   0.634
 1831TIP3   OH2 5435   6.152   1.038   2.859
 1831TIP3    H1 5436   6.106   0.966   2.817
 1831TIP3    H2 5437   6.189   1.000   2.939
 1832TIP3   OH2 5438   7.362   0.201   0.373
 1832TIP3    H1 5439   7.317   0.225   0.453
 1832TIP3    H2 5440   7.449   0.173   0.401
 1833TIP3   OH2 5441   1.547   7.333   6.511
 1833TIP3    H1 5442   1.494   7.263   6.473
 1833TIP3    H2 5443   1.635   7.319   6.475
 1834TIP3   OH2 5444   2.086   4.852   0.315
 1834TIP3    H1 5445   2.147   4.810   0.375
 1834TIP3    H2 5446   2.017   4.787   0.301
 1835TIP3   OH2 5447   3.784   2.750   1.968
 1835TIP3    H1 5448   3.834   2.675   1.935
 1835TIP3    H2 5449   3.846   2.798   2.023
 1836TIP3   OH2 5450   3.592   6.988   2.707
 1836TIP3    H1 5451   3.645   7.052   2.753
 1836TIP3    H2 5452   3.533   7.041   2.652
 1837TIP3   OH2 5453   3.659   1.138   1.293
 1837TIP3    H1 5454   3.708   1.092   1.361
 1837TIP3    H2 5455   3.696   1.226   1.293
 1838TIP3   OH2 5456   4.249   6.670   3.154
 1838TIP3    H1 5457   4.281   6.580   3.164
 1838TIP3    H2 5458   4.183   6.665   3.085
 1839TIP3   OH2 5459   6.219   5.121   0.255
 1839TIP3    H1 5460   6.309   5.099   0.280
 1839TIP3    H2 5461   6.178   5.148   0.338
 1840TIP3   OH2 5462   3.052   6.679   4.109
 1840TIP3    H1 5463   2.995   6.615   4.152
 1840TIP3    H2 5464   3.002   6.711   4.035
 1841TIP3   OH2 5465   7.619   3.284   6.533
 1841TIP3    H1 5466   7.642   3.277   6.625
 1841TIP3    H2 5467   7.532   3.244   6.527
 1842TIP3   OH2 5468   4.921   1.315   0.040
 1842TIP3    H1 5469   4.863   1.309   0.116
 1842TIP3    H2 5470   4.888   1.250  -0.022
 1843TIP3   OH2 5471   5.632   0.300   4.072
 1843TIP3    H1 5472   5.619   0.312   4.166
 1843TIP3    H2 5473   5.676   0.380   4.043
 1844TIP3   OH2 5474   0.483   5.219   1.906
 1844TIP3    H1 5475   0.561   5.195   1.856
 1844TIP3    H2 5476   0.411   5.213   1.842
 1845TIP3   OH2 5477   5.744   7.589   1.079
 1845TIP3    H1 5478   5.656   7.592   1.043
 1845TIP3    H2 5479   5.787   7.519   1.031
 1846TIP3   OH2 5480   6.279   3.537   5.158
 1846TIP3    H1 5481   6.307   3.459   5.205
 1846TIP3    H2 5482   6.197   3.563   5.201
 1847TIP3   OH2 5483   8.251   1.187   2.111
 1847TIP3    H1 5484   8.302   1.219   2.037
 1847TIP3    H2 5485   8.283   1.237   2.186
 1848TIP3   OH2 5486   0.703   6.052   3.015
 1848TIP3    H1 5487   0.638   6.084   3.076
 1848TIP3    H2 5488   0.747   5.981   3.062
 1849TIP3   OH2 5489   3.836   5.170   1.769
 1849TIP3    H1 5490   3.761   5.198   1.716
 1849TIP3    H2 5491   3.808   5.186   1.859
 1850TIP3   OH2 5492   4.643   5.268   2.946
 1850TIP3    H1 5493   4.608   5.180   2.961
 1850TIP3    H2 5494   4.612   5.291   2.858
 1851TIP3   OH2 5495   3.468   0.379   3.074
 1851TIP3    H1 5496   3.403   0.427   3.023
 1851TIP3    H2 5497   3.552   0.416   3.046
 1852TIP3   OH2 5498   0.702   4.823   3.225
 1852TIP3    H1 5499   0.670   4.806   3.136
 1852TIP3    H2 5500   0.680   4.744   3.274
 1853TIP3   OH2 5501   7.737   1.572   3.552
 1853TIP3    H1 5502   7.727   1.653   3.602
 1853TIP3    H2 5503   7.823   1.581   3.510
 1854TIP3   OH2 5504   6.425   6.960   1.553
 1854TIP3    H1 5505   6.463   6.925   1.633
 1854TIP3    H2 5506   6.378   7.038   1.581
 1855TIP3   OH2 5507   8.229   6.351   1.771
 1855TIP3    H1 5508   8.140   6.328   1.743
 1855TIP3    H2 5509   8.237   6.444   1.753
 1856TIP3   OH2 5510   0.768   7.792   2.798
 1856TIP3    H1 5511   0.707   7.818   2.867
 1856TIP3    H2 5512   0.845   7.846   2.812
 1857TIP3   OH2 5513   0.821   1.737   4.701
 1857TIP3    H1 5514   0.803   1.705   4.790
 1857TIP3    H2 5515   0.810   1.832   4.707
 1858TIP3   OH2 5516   6.031   0.598   5.441
 1858TIP3    H1 5517   6.069   0.624   5.358
 1858TIP3    H2 5518   5.999   0.509   5.426
 1859TIP3   OH2 5519   7.466   3.445   3.250
 1859TIP3    H1 5520   7.523   3.373   3.276
 1859TIP3    H2 5521   7.426   3.416   3.168
 1860TIP3   OH2 5522   0.027   0.560   1.059
 1860TIP3    H1 5523   0.089   0.497   1.023
 1860TIP3    H2 5524   0.033   0.636   1.000
 1861TIP3   OH2 5525   6.173   3.213   4.687
 1861TIP3    H1 5526   6.219   3.232   4.769
 1861TIP3    H2 5527   6.157   3.119   4.690
 1862TIP3   OH2 5528   5.560   2.193   1.534
 1862TIP3    H1 5529   5.479   2.234   1.565
 1862TIP3    H2 5530   5.609   2.264   1.493
 1863TIP3   OH2 5531   0.423   4.691   5.052
 1863TIP3    H1 5532   0.418   4.648   5.137
 1863TIP3    H2 5533   0.352   4.652   5.000
 1864TIP3   OH2 5534   3.579   5.875   2.547
 1864TIP3    H1 5535   3.549   5.842   2.631
 1864TIP3    H2 5536   3.504   5.923   2.511
 1865TIP3   OH2 5537   4.308   5.883   2.394
 1865TIP3    H1 5538   4.401   5.895   2.408
 1865TIP3    H2 5539   4.301   5.857   2.302
 1866TIP3   OH2 5540   6.257   4.835   0.102
 1866TIP3    H1 5541   6.186   4.836   0.166
 1866TIP3    H2 5542   6.337   4.824   0.153
 1867TIP3   OH2 5543   1.349   2.148   0.836
 1867TIP3    H1 5544   1.290   2.073   0.839
 1867TIP3    H2 5545   1.434   2.112   0.812
 1868TIP3   OH2 5546   5.815   0.146   0.243
 1868TIP3    H1 5547   5.884   0.108   0.298
 1868TIP3    H2 5548   5.759   0.072   0.220
 1869TIP3   OH2 5549   6.260   0.160   6.474
 1869TIP3    H1 5550   6.325   0.164   6.404
 1869TIP3    H2 5551   6.236   0.251   6.489
 1870TIP3   OH2 5552   6.673   0.693   0.377
 1870TIP3    H1 5553   6.630   0.608   0.367
 1870TIP3    H2 5554   6.766   0.673   0.366
 1871TIP3   OH2 5555   0.122   3.646   2.850
 1871TIP3    H1 5556   0.128   3.606   2.936
 1871TIP3    H2 5557   0.068   3.724   2.863
 1872TIP3   OH2 5558   4.003   3.355   3.262
 1872TIP3    H1 5559   3.986   3.432   3.316
 1872TIP3    H2 5560   4.076   3.381   3.205
 1873TIP3   OH2 5561   1.621   2.908   4.818
 1873TIP3    H1 5562   1.678   2.851   4.767
 1873TIP3    H2 5563   1.563   2.947   4.752
 1874TIP3   OH2 5564   4.943   3.815   5.375
 1874TIP3    H1 5565   4.893   3.763   5.313
 1874TIP3    H2 5566   4.915   3.906   5.360
 1875TIP3   OH2 5567   6.373   4.215   4.863
 1875TIP3    H1 5568   6.372   4.180   4.773
 1875TIP3    H2 5569   6.432   4.157   4.911
 1876TIP3   OH2 5570   6.041   4.213   1.705
 1876TIP3    H1 5571   6.103   4.273   1.661
 1876TIP3    H2 5572   5.961   4.264   1.715
 1877TIP3   OH2 5573   4.670   5.571   0.998
 1877TIP3    H1 5574   4.671   5.492   1.051
 1877TIP3    H2 5575   4.625   5.545   0.917
 1878TIP3   OH2 5576   0.957   7.679   5.050
 1878TIP3    H1 5577   1.049   7.685   5.024
 1878TIP3    H2 5578   0.909   7.668   4.968
 1879TIP3   OH2 5579   2.504   7.202   1.537
 1879TIP3    H1 5580   2.555   7.273   1.576
 1879TIP3    H2 5581   2.514   7.129   1.597
 1880TIP3   OH2 5582   2.587   2.019   0.686
 1880TIP3    H1 5583   2.592   2.013   0.591
 1880TIP3    H2 5584   2.579   1.929   0.716
 1881TIP3   OH2 5585   0.823   1.891   0.884
 1881TIP3    H1 5586   0.874   1.825   0.838
 1881TIP3    H2 5587   0.815   1.963   0.822
 1882TIP3   OH2 5588   7.945   5.413   2.956
 1882TIP3    H1 5589   7.854   5.439   2.942
 1882TIP3    H2 5590   7.950   5.393   3.049
 1883TIP3   OH2 5591   7.864   3.717   2.479
 1883TIP3    H1 5592   7.917   3.780   2.528
 1883TIP3    H2 5593   7.891   3.728   2.388
 1884TIP3   OH2 5594   7.027   6.259   2.476
 1884TIP3    H1 5595   6.933   6.259   2.456
 1884TIP3    H2 5596   7.066   6.210   2.403
 1885TIP3   OH2 5597   4.322   2.692   5.229
 1885TIP3    H1 5598   4.364   2.608   5.251
 1885TIP3    H2 5599   4.335   2.702   5.135
 1886TIP3   OH2 5600   2.126   1.383   2.901
 1886TIP3    H1 5601   2.155   1.429   2.980
 1886TIP3    H2 5602   2.098   1.453   2.841
 1887TIP3   OH2 5603   0.832   2.759   2.398
 1887TIP3    H1 5604   0.863   2.710   2.474
 1887TIP3    H2 5605   0.810   2.846   2.432
 1888TIP3   OH2 5606   6.942   3.107   5.853
 1888TIP3    H1 5607   6.865   3.132   5.903
 1888TIP3    H2 5608   6.918   3.026   5.809
 1889TIP3   OH2 5609   7.756   2.978   4.357
 1889TIP3    H1 5610   7.700   2.902   4.374
 1889TIP3    H2 5611   7.822   2.976   4.427
 1890TIP3   OH2 5612   4.266   3.446   5.547
 1890TIP3    H1 5613   4.328   3.391   5.499
 1890TIP3    H2 5614   4.300   3.534   5.538
 1891TIP3   OH2 5615   0.138   6.490   2.886
 1891TIP3    H1 5616   0.108   6.415   2.938
 1891TIP3    H2 5617   0.166   6.554   2.950
 1892TIP3   OH2 5618   7.247   1.519   2.298
 1892TIP3    H1 5619   7.217   1.584   2.361
 1892TIP3    H2 5620   7.167   1.484   2.258
 1893TIP3   OH2 5621   5.345   7.363   6.675
 1893TIP3    H1 5622   5.429   7.330   6.643
 1893TIP3    H2 5623   5.363   7.393   6.764
 1894TIP3   OH2 5624   3.324   2.078   1.255
 1894TIP3    H1 5625   3.262   2.138   1.296
 1894TIP3    H2 5626   3.274   2.037   1.184
 1895TIP3   OH2 5627   1.017   1.916   5.536
 1895TIP3    H1 5628   1.028   1.829   5.498
 1895TIP3    H2 5629   0.983   1.969   5.464
 1896TIP3   OH2 5630   6.153   6.816   3.523
 1896TIP3    H1 5631   6.216   6.886   3.539
 1896TIP3    H2 5632   6.203   6.749   3.477
 1897TIP3   OH2 5633   3.972   4.581   2.356
 1897TIP3    H1 5634   3.914   4.640   2.403
 1897TIP3    H2 5635   4.019   4.637   2.294
 1898TIP3   OH2 5636   6.532   1.329   0.313
 1898TIP3    H1 5637   6.610   1.333   0.257
 1898TIP3    H2 5638   6.536   1.410   0.365
 1899TIP3   OH2 5639   4.431   4.115   0.492
 1899TIP3    H1 5640   4.514   4.158   0.474
 1899TIP3    H2 5641   4.409   4.141   0.582
 1900TIP3   OH2 5642   4.480   6.447   5.670
 1900TIP3    H1 5643   4.423   6.426   5.596
 1900TIP3    H2 5644   4.438   6.522   5.713
 1901TIP3   OH2 5645   1.564   1.059   5.969
 1901TIP3    H1 5646   1.472   1.036   5.957
 1901TIP3    H2 5647   1.591   1.011   6.047
 1902TIP3   OH2 5648   3.269   5.545   2.357
 1902TIP3    H1 5649   3.351   5.504   2.382
 1902TIP3    H2 5650   3.229   5.574   2.439
 1903TIP3   OH2 5651   1.509   4.599   1.343
 1903TIP3    H1 5652   1.468   4.678   1.309
 1903TIP3    H2 5653   1.501   4.607   1.438
 1904TIP3   OH2 5654   6.326   5.113   5.177
 1904TIP3    H1 5655   6.318   5.203   5.145
 1904TIP3    H2 5656   6.394   5.118   5.244
 1905TIP3   OH2 5657   2.727   5.516   3.202
 1905TIP3    H1 5658   2.646   5.536   3.248
 1905TIP3    H2 5659   2.698   5.481   3.117
 1906TIP3   OH2 5660   6.418   6.712   0.478
 1906TIP3    H1 5661   6.383   6.765   0.550
 1906TIP3    H2 5662   6.360   6.635   0.476
 1907TIP3   OH2 5663   6.781   5.144   2.472
 1907TIP3    H1 5664   6.848   5.201   2.433
 1907TIP3    H2 5665   6.713   5.204   2.501
 1908TIP3   OH2 5666   2.219   0.188   2.128
 1908TIP3    H1 5667   2.270   0.113   2.097
 1908TIP3    H2 5668   2.155   0.203   2.059
 1909TIP3   OH2 5669   5.876   7.805   1.097
 1909TIP3    H1 5670   5.831   7.721   1.089
 1909TIP3    H2 5671   5.966   7.786   1.071
 1910TIP3   OH2 5672   4.475   1.857   6.353
 1910TIP3    H1 5673   4.502   1.899   6.272
 1910TIP3    H2 5674   4.553   1.859   6.408
 1911TIP3   OH2 5675   5.251   1.895   5.414
 1911TIP3    H1 5676   5.263   1.980   5.372
 1911TIP3    H2 5677   5.193   1.847   5.355
 1912TIP3   OH2 5678   1.718   4.488   1.868
 1912TIP3    H1 5679   1.774   4.453   1.937
 1912TIP3    H2 5680   1.629   4.484   1.904
 1913TIP3   OH2 5681   1.593   5.651   2.654
 1913TIP3    H1 5682   1.556   5.568   2.622
 1913TIP3    H2 5683   1.555   5.662   2.741
 1914TIP3   OH2 5684   4.132   2.862   6.100
 1914TIP3    H1 5685   4.215   2.849   6.055
 1914TIP3    H2 5686   4.139   2.811   6.181
 1915TIP3   OH2 5687   7.320   3.577   4.134
 1915TIP3    H1 5688   7.301   3.565   4.041
 1915TIP3    H2 5689   7.235   3.566   4.177
 1916TIP3   OH2 5690   0.067   4.827   5.029
 1916TIP3    H1 5691   0.040   4.752   5.083
 1916TIP3    H2 5692   0.036   4.903   5.077
 1917TIP3   OH2 5693   5.664   3.043   0.515
 1917TIP3    H1 5694   5.633   2.952   0.511
 1917TIP3    H2 5695   5.759   3.036   0.508
 1918TIP3   OH2 5696   3.200   2.420   5.299
 1918TIP3    H1 5697   3.166   2.432   5.211
 1918TIP3    H2 5698   3.122   2.411   5.354
 1919TIP3   OH2 5699   1.352   5.453   0.068
 1919TIP3    H1 5700   1.387   5.392   0.132
 1919TIP3    H2 5701   1.268   5.415   0.041
 1920TIP3   OH2 5702   2.529   0.788   5.093
 1920TIP3    H1 5703   2.460   0.744   5.143
 1920TIP3    H2 5704   2.599   0.804   5.157
 1921TIP3   OH2 5705   0.207   4.641   0.780
 1921TIP3    H1 5706   0.221   4.558   0.825
 1921TIP3    H2 5707   0.144   4.620   0.710
 1922TIP3   OH2 5708   1.747   0.294   1.149
 1922TIP3    H1 5709   1.836   0.303   1.115
 1922TIP3    H2 5710   1.703   0.376   1.123
 1923TIP3   OH2 5711   6.936   5.083   5.509
 1923TIP3    H1 5712   6.952   5.150   5.575
 1923TIP3    H2 5713   7.005   5.018   5.524
 1924TIP3   OH2 5714   8.229   5.566   0.280
 1924TIP3    H1 5715   8.187   5.557   0.194
 1924TIP3    H2 5716   8.195   5.493   0.331
 1925TIP3   OH2 5717   4.793   6.875   0.033
 1925TIP3    H1 5718   4.854   6.947   0.050
 1925TIP3    H2 5719   4.765   6.847   0.121
 1926TIP3   OH2 5720   6.319   5.880   0.150
 1926TIP3    H1 5721   6.410   5.852   0.139
 1926TIP3    H2 5722   6.317   5.969   0.115
 1927TIP3   OH2 5723   2.305   4.249   6.322
 1927TIP3    H1 5724   2.268   4.188   6.259
 1927TIP3    H2 5725   2.345   4.193   6.389
 1928TIP3   OH2 5726   5.652   1.055   6.193
 1928TIP3    H1 5727   5.674   0.965   6.217
 1928TIP3    H2 5728   5.616   1.093   6.273
 1929TIP3   OH2 5729   0.595   3.223   6.767
 1929TIP3    H1 5730   0.637   3.172   6.698
 1929TIP3    H2 5731   0.585   3.162   6.840
 1930TIP3   OH2 5732   7.350   1.477   0.081
 1930TIP3    H1 5733   7.297   1.445   0.008
 1930TIP3    H2 5734   7.342   1.409   0.148
 1931TIP3   OH2 5735   1.365   6.943   1.071
 1931TIP3    H1 5736   1.458   6.962   1.076
 1931TIP3    H2 5737   1.351   6.915   0.981
 1932TIP3   OH2 5738   2.097   4.348   2.559
 1932TIP3    H1 5739   2.163   4.280   2.571
 1932TIP3    H2 5740   2.034   4.333   2.630
 1933TIP3   OH2 5741   4.738   0.078   1.686
 1933TIP3    H1 5742   4.671   0.098   1.751
 1933TIP3    H2 5743   4.809   0.139   1.705
 1934TIP3   OH2 5744   7.903   7.406   0.980
 1934TIP3    H1 5745   7.823   7.359   0.955
 1934TIP3    H2 5746   7.914   7.471   0.910
 1935TIP3   OH2 5747   2.879   3.840   3.897
 1935TIP3    H1 5748   2.933   3.834   3.976
 1935TIP3    H2 5749   2.880   3.752   3.861
 1936TIP3   OH2 5750   2.972   2.667   0.459
 1936TIP3    H1 5751   3.026   2.734   0.416
 1936TIP3    H2 5752   3.034   2.617   0.512
 1937TIP3   OH2 5753   6.759   5.153   2.160
 1937TIP3    H1 5754   6.775   5.072   2.209
 1937TIP3    H2 5755   6.786   5.223   2.219
 1938TIP3   OH2 5756   7.172   4.647   1.543
 1938TIP3    H1 5757   7.164   4.594   1.622
 1938TIP3    H2 5758   7.087   4.689   1.533
 1939TIP3   OH2 5759   7.730   3.150   1.255
 1939TIP3    H1 5760   7.794   3.184   1.192
 1939TIP3    H2 5761   7.657   3.211   1.251
 1940TIP3   OH2 5762   7.828   3.414   3.425
 1940TIP3    H1 5763   7.776   3.475   3.373
 1940TIP3    H2 5764   7.918   3.425   3.392
 1941TIP3   OH2 5765   4.154   0.474   1.328
 1941TIP3    H1 5766   4.116   0.386   1.330
 1941TIP3    H2 5767   4.091   0.526   1.279
 1942TIP3   OH2 5768   3.822   6.725   2.104
 1942TIP3    H1 5769   3.763   6.680   2.165
 1942TIP3    H2 5770   3.764   6.767   2.041
 1943TIP3   OH2 5771   3.006   5.137   6.307
 1943TIP3    H1 5772   3.065   5.206   6.337
 1943TIP3    H2 5773   2.918   5.171   6.325
 1944TIP3   OH2 5774   1.457   1.561   4.586
 1944TIP3    H1 5775   1.423   1.636   4.635
 1944TIP3    H2 5776   1.390   1.542   4.520
 1945TIP3   OH2 5777   6.312   7.265   5.689
 1945TIP3    H1 5778   6.360   7.264   5.606
 1945TIP3    H2 5779   6.256   7.187   5.685
 1946TIP3   OH2 5780   2.502   7.376   5.825
 1946TIP3    H1 5781   2.582   7.346   5.782
 1946TIP3    H2 5782   2.503   7.471   5.814
 1947TIP3   OH2 5783   3.215   2.010   6.498
 1947TIP3    H1 5784   3.179   2.038   6.414
 1947TIP3    H2 5785   3.204   1.915   6.498
 1948TIP3   OH2 5786   5.361   7.613   3.801
 1948TIP3    H1 5787   5.406   7.550   3.857
 1948TIP3    H2 5788   5.309   7.559   3.741
 1949TIP3   OH2 5789   6.885   1.924   1.484
 1949TIP3    H1 5790   6.821   1.875   1.432
 1949TIP3    H2 5791   6.941   1.856   1.523
 1950TIP3   OH2 5792   0.829   4.656   1.436
 1950TIP3    H1 5793   0.898   4.721   1.445
 1950TIP3    H2 5794   0.873   4.572   1.448
 1951TIP3   OH2 5795   8.134   5.530   0.011
 1951TIP3    H1 5796   8.096   5.449   0.043
 1951TIP3    H2 5797   8.077   5.557  -0.061
 1952TIP3   OH2 5798   5.700   5.693   4.322
 1952TIP3    H1 5799   5.631   5.756   4.342
 1952TIP3    H2 5800   5.751   5.686   4.403
 1953TIP3   OH2 5801   4.376   5.842   5.721
 1953TIP3    H1 5802   4.341   5.838   5.810
 1953TIP3    H2 5803   4.333   5.917   5.681
 1954TIP3   OH2 5804   1.604   3.695   1.505
 1954TIP3    H1 5805   1.535   3.635   1.533
 1954TIP3    H2 5806   1.659   3.706   1.583
 1955TIP3   OH2 5807   7.613   3.193   5.084
 1955TIP3    H1 5808   7.531   3.161   5.049
 1955TIP3    H2 5809   7.668   3.210   5.007
 1956TIP3   OH2 5810   7.365   2.336   3.116
 1956TIP3    H1 5811   7.386   2.247   3.088
 1956TIP3    H2 5812   7.319   2.375   3.041
 1957TIP3   OH2 5813   7.233   4.716   5.286
 1957TIP3    H1 5814   7.293   4.787   5.308
 1957TIP3    H2 5815   7.289   4.645   5.255
 1958TIP3   OH2 5816   0.031   7.192   4.046
 1958TIP3    H1 5817   0.027   7.123   3.980
 1958TIP3    H2 5818   0.117   7.232   4.034
 1959TIP3   OH2 5819   6.532   6.337   0.969
 1959TIP3    H1 5820   6.467   6.269   0.956
 1959TIP3    H2 5821   6.484   6.419   0.962
 1960TIP3   OH2 5822   5.812   7.268   3.820
 1960TIP3    H1 5823   5.740   7.260   3.757
 1960TIP3    H2 5824   5.891   7.262   3.767
 1961TIP3   OH2 5825   4.082   4.936   0.627
 1961TIP3    H1 5826   4.094   4.909   0.717
 1961TIP3    H2 5827   3.988   4.931   0.612
 1962TIP3   OH2 5828   6.543   1.523   1.390
 1962TIP3    H1 5829   6.462   1.540   1.438
 1962TIP3    H2 5830   6.514   1.484   1.307
 1963TIP3   OH2 5831   3.231   0.562   1.239
 1963TIP3    H1 5832   3.239   0.525   1.150
 1963TIP3    H2 5833   3.206   0.653   1.225
 1964TIP3   OH2 5834   2.955   1.109   4.066
 1964TIP3    H1 5835   2.966   1.074   3.978
 1964TIP3    H2 5836   2.891   1.052   4.108
 1965TIP3   OH2 5837   8.182   2.871   3.206
 1965TIP3    H1 5838   8.203   2.947   3.152
 1965TIP3    H2 5839   8.103   2.895   3.253
 1966TIP3   OH2 5840   5.956   6.825   6.578
 1966TIP3    H1 5841   5.893   6.885   6.618
 1966TIP3    H2 5842   6.017   6.803   6.648
 1967TIP3   OH2 5843   3.455   0.120   1.060
 1967TIP3    H1 5844   3.488   0.208   1.077
 1967TIP3    H2 5845   3.406   0.128   0.978
 1968TIP3   OH2 5846   7.047   2.431   1.700
 1968TIP3    H1 5847   7.000   2.466   1.624
 1968TIP3    H2 5848   7.062   2.507   1.756
 1969TIP3   OH2 5849   6.275   0.918   6.334
 1969TIP3    H1 5850   6.314   0.948   6.417
 1969TIP3    H2 5851   6.248   0.828   6.352
 1970TIP3   OH2 5852   7.948   2.930   5.987
 1970TIP3    H1 5853   7.883   2.994   5.958
 1970TIP3    H2 5854   7.964   2.952   6.079
 1971TIP3   OH2 5855   1.141   1.593   3.222
 1971TIP3    H1 5856   1.229   1.574   3.254
 1971TIP3    H2 5857   1.152   1.670   3.165
 1972TIP3   OH2 5858   3.640   0.537   5.198
 1972TIP3    H1 5859   3.694   0.472   5.243
 1972TIP3    H2 5860   3.678   0.544   5.111
 1973TIP3   OH2 5861   0.732   6.403   4.547
 1973TIP3    H1 5862   0.725   6.473   4.612
 1973TIP3    H2 5863   0.671   6.428   4.478
 1974TIP3   OH2 5864   2.524   3.445   4.576
 1974TIP3    H1 5865   2.567   3.364   4.548
 1974TIP3    H2 5866   2.591   3.512   4.564
 1975TIP3   OH2 5867   5.116   5.982   1.134
 1975TIP3    H1 5868   5.089   5.891   1.147
 1975TIP3    H2 5869   5.208   5.984   1.163
 1976TIP3   OH2 5870   4.850   1.604   2.697
 1976TIP3    H1 5871   4.823   1.604   2.605
 1976TIP3    H2 5872   4.813   1.522   2.732
 1977TIP3   OH2 5873   7.889   5.564   6.240
 1977TIP3    H1 5874   7.808   5.573   6.290
 1977TIP3    H2 5875   7.899   5.648   6.195
 1978TIP3   OH2 5876   3.792   6.172   4.620
 1978TIP3    H1 5877   3.723   6.111   4.593
 1978TIP3    H2 5878   3.748   6.234   4.679
 1979TIP3   OH2 5879   3.458   1.222   2.008
 1979TIP3    H1 5880   3.403   1.180   1.942
 1979TIP3    H2 5881   3.461   1.314   1.982
 1980TIP3   OH2 5882   4.445   0.929   3.085
 1980TIP3    H1 5883   4.526   0.976   3.107
 1980TIP3    H2 5884   4.403   0.913   3.169
 1981TIP3   OH2 5885   7.962   1.730   6.234
 1981TIP3    H1 5886   7.911   1.762   6.160
 1981TIP3    H2 5887   7.953   1.635   6.231
 1982TIP3   OH2 5888   0.320   1.021   3.111
 1982TIP3    H1 5889   0.275   0.948   3.154
 1982TIP3    H2 5890   0.409   1.020   3.147
 1983TIP3   OH2 5891   1.918   6.447   5.055
 1983TIP3    H1 5892   1.861   6.401   5.117
 1983TIP3    H2 5893   1.875   6.530   5.039
 1984TIP3   OH2 5894   5.595   7.066   4.637
 1984TIP3    H1 5895   5.618   7.136   4.698
 1984TIP3    H2 5896   5.512   7.032   4.670
 1985TIP3   OH2 5897   0.291   1.107   5.394
 1985TIP3    H1 5898   0.303   1.014   5.414
 1985TIP3    H2 5899   0.379   1.140   5.376
 1986TIP3   OH2 5900   7.528   5.605   4.447
 1986TIP3    H1 5901   7.576   5.522   4.449
 1986TIP3    H2 5902   7.487   5.606   4.360
 1987TIP3   OH2 5903   1.079   0.408   3.352
 1987TIP3    H1 5904   1.002   0.375   3.306
 1987TIP3    H2 5905   1.153   0.365   3.310
 1988TIP3   OH2 5906   6.142   6.876   2.376
 1988TIP3    H1 5907   6.076   6.831   2.322
 1988TIP3    H2 5908   6.093   6.936   2.430
 1989TIP3   OH2 5909   4.595   7.740   6.687
 1989TIP3    H1 5910   4.537   7.736   6.763
 1989TIP3    H2 5911   4.659   7.808   6.710
 1990TIP3   OH2 5912   8.286   5.789   3.964
 1990TIP3    H1 5913   8.311   5.820   4.051
 1990TIP3    H2 5914   8.316   5.698   3.961
 1991TIP3   OH2 5915   5.550   2.901   5.467
 1991TIP3    H1 5916   5.588   2.901   5.379
 1991TIP3    H2 5917   5.625   2.905   5.525
 1992TIP3   OH2 5918   4.404   3.588   1.977
 1992TIP3    H1 5919   4.412   3.663   2.036
 1992TIP3    H2 5920   4.391   3.626   1.891
 1993TIP3   OH2 5921   6.104   2.724   4.602
 1993TIP3    H1 5922   6.049   2.709   4.526
 1993TIP3    H2 5923   6.072   2.806   4.639
 1994TIP3   OH2 5924   5.690   1.085   5.892
 1994TIP3    H1 5925   5.755   1.049   5.830
 1994TIP3    H2 5926   5.721   1.056   5.978
 1995TIP3   OH2 5927   6.988   3.255   2.375
 1995TIP3    H1 5928   6.893   3.265   2.374
 1995TIP3    H2 5929   7.019   3.326   2.432
 1996TIP3   OH2 5930   7.633   4.642   2.926
 1996TIP3    H1 5931   7.597   4.598   2.849
 1996TIP3    H2 5932   7.723   4.664   2.900
 1997TIP3   OH2 5933   1.298   2.548   2.490
 1997TIP3    H1 5934   1.384   2.525   2.454
 1997TIP3    H2 5935   1.246   2.576   2.415
 1998TIP3   OH2 5936   2.291   5.966   5.124
 1998TIP3    H1 5937   2.236   5.901   5.079
 1998TIP3    H2 5938   2.376   5.922   5.134
 1999TIP3   OH2 5939   3.051   6.323   5.020
 1999TIP3    H1 5940   3.008   6.348   5.102
 1999TIP3    H2 5941   3.041   6.400   4.964
 2000TIP3   OH2 5942   4.305   3.645   5.285
 2000TIP3    H1 5943   4.231   3.590   5.259
 2000TIP3    H2 5944   4.268   3.733   5.293
 2001TIP3   OH2 5945   5.214   1.522   1.989
 2001TIP3    H1 5946   5.283   1.484   1.935
 2001TIP3    H2 5947   5.256   1.544   2.072
 2002TIP3   OH2 5948   4.344   0.761   1.792
 2002TIP3    H1 5949   4.391   0.678   1.794
 2002TIP3    H2 5950   4.308   0.767   1.704
 2003TIP3   OH2 5951   3.448   5.623   2.166
 2003TIP3    H1 5952   3.369   5.608   2.218
 2003TIP3    H2 5953   3.519   5.618   2.229
 2004TIP3   OH2 5954   1.073   4.448   1.209
 2004TIP3    H1 5955   1.156   4.464   1.254
 2004TIP3    H2 5956   1.099   4.412   1.124
 2005TIP3   OH2 5957   4.416   1.725   4.257
 2005TIP3    H1 5958   4.506   1.746   4.235
 2005TIP3    H2 5959   4.379   1.690   4.176
 2006TIP3   OH2 5960   1.388   5.824   1.470
 2006TIP3    H1 5961   1.318   5.776   1.424
 2006TIP3    H2 5962   1.450   5.848   1.401
 2007TIP3   OH2 5963   1.738   7.280   1.086
 2007TIP3    H1 5964   1.739   7.316   0.997
 2007TIP3    H2 5965   1.694   7.195   1.077
 2008TIP3   OH2 5966   5.139   4.916   6.378
 2008TIP3    H1 5967   5.159   4.929   6.471
 2008TIP3    H2 5968   5.143   4.821   6.366
 2009TIP3   OH2 5969   5.993   1.366   1.552
 2009TIP3    H1 5970   6.023   1.276   1.566
 2009TIP3    H2 5971   5.938   1.362   1.473
 2010TIP3   OH2 5972   2.636   1.445   5.330
 2010TIP3    H1 5973   2.551   1.464   5.289
 2010TIP3    H2 5974   2.696   1.508   5.291
 2011TIP3   OH2 5975   4.315   1.040   1.019
 2011TIP3    H1 5976   4.349   1.047   1.107
 2011TIP3    H2 5977   4.361   1.108   0.970
 2012TIP3   OH2 5978   2.919   7.216   5.530
 2012TIP3    H1 5979   3.013   7.217   5.549
 2012TIP3    H2 5980   2.908   7.282   5.461
 2013TIP3   OH2 5981   8.106   4.901   6.116
 2013TIP3    H1 5982   8.116   4.970   6.182
 2013TIP3    H2 5983   8.103   4.948   6.032
 2014TIP3   OH2 5984   3.057   6.556   0.583
 2014TIP3    H1 5985   2.996   6.625   0.608
 2014TIP3    H2 5986   3.008   6.475   0.593
 2015TIP3   OH2 5987   5.325   1.725   1.531
 2015TIP3    H1 5988   5.284   1.757   1.450
 2015TIP3    H2 5989   5.411   1.767   1.533
 2016TIP3   OH2 5990   0.746   3.329   4.810
 2016TIP3    H1 5991   0.730   3.241   4.844
 2016TIP3    H2 5992   0.708   3.328   4.722
 2017TIP3   OH2 5993   0.952   4.971   5.635
 2017TIP3    H1 5994   1.040   4.935   5.649
 2017TIP3    H2 5995   0.927   5.006   5.720
 2018TIP3   OH2 5996   1.552   5.488   1.009
 2018TIP3    H1 5997   1.542   5.573   0.965
 2018TIP3    H2 5998   1.536   5.424   0.940
 2019TIP3   OH2 5999   4.017   7.238   4.012
 2019TIP3    H1 6000   4.109   7.212   4.007
 2019TIP3    H2 6001   4.005   7.297   3.937
 2020TIP3   OH2 6002   7.783   1.728   0.392
 2020TIP3    H1 6003   7.775   1.818   0.422
 2020TIP3    H2 6004   7.736   1.727   0.309
 2021TIP3   OH2 6005   1.921   0.814   3.264
 2021TIP3    H1 6006   1.933   0.719   3.258
 2021TIP3    H2 6007   2.009   0.850   3.265
 2022TIP3   OH2 6008   3.199   1.621   1.677
 2022TIP3    H1 6009   3.158   1.543   1.715
 2022TIP3    H2 6010   3.243   1.663   1.751
 2023TIP3   OH2 6011   1.230   7.152   0.476
 2023TIP3    H1 6012   1.216   7.120   0.387
 2023TIP3    H2 6013   1.222   7.247   0.469
 2024TIP3   OH2 6014   5.232   3.052   0.519
 2024TIP3    H1 6015   5.242   2.991   0.592
 2024TIP3    H2 6016   5.188   3.001   0.451
 2025TIP3   OH2 6017   0.452   1.540   2.809
 2025TIP3    H1 6018   0.449   1.457   2.761
 2025TIP3    H2 6019   0.529   1.533   2.865
 2026TIP3   OH2 6020   7.781   2.139   3.104
 2026TIP3    H1 6021   7.729   2.072   3.149
 2026TIP3    H2 6022   7.803   2.202   3.172
 2027TIP3   OH2 6023   6.181   7.484   2.390
 2027TIP3    H1 6024   6.088   7.473   2.407
 2027TIP3    H2 6025   6.222   7.405   2.427
 2028TIP3   OH2 6026   1.284   4.350   4.664
 2028TIP3    H1 6027   1.219   4.303   4.717
 2028TIP3    H2 6028   1.259   4.442   4.671
 2029TIP3   OH2 6029   3.001   0.637   5.405
 2029TIP3    H1 6030   2.975   0.726   5.429
 2029TIP3    H2 6031   2.932   0.607   5.345
 2030TIP3   OH2 6032   4.497   4.382   0.193
 2030TIP3    H1 6033   4.424   4.375   0.255
 2030TIP3    H2 6034   4.548   4.457   0.225
 2031TIP3   OH2 6035   0.915   1.606   3.391
 2031TIP3    H1 6036   0.994   1.637   3.346
 2031TIP3    H2 6037   0.897   1.675   3.456
 2032TIP3   OH2 6038   3.738   1.694   5.940
 2032TIP3    H1 6039   3.799   1.712   6.012
 2032TIP3    H2 6040   3.785   1.722   5.861
 2033TIP3   OH2 6041   3.612   5.161   2.934
 2033TIP3    H1 6042   3.609   5.074   2.974
 2033TIP3    H2 6043   3.694   5.163   2.885
 2034TIP3   OH2 6044   0.865   2.530   2.238
 2034TIP3    H1 6045   0.776   2.499   2.255
 2034TIP3    H2 6046   0.876   2.605   2.297
 2035TIP3   OH2 6047   1.120   5.820   5.865
 2035TIP3    H1 6048   1.176   5.868   5.803
 2035TIP3    H2 6049   1.155   5.843   5.951
 2036TIP3   OH2 6050   5.625   2.575   2.597
 2036TIP3    H1 6051   5.645   2.564   2.690
 2036TIP3    H2 6052   5.564   2.504   2.577
 2037TIP3   OH2 6053   6.129   4.454   5.353
 2037TIP3    H1 6054   6.222   4.474   5.349
 2037TIP3    H2 6055   6.091   4.505   5.281
 2038TIP3   OH2 6056   5.850   4.394   6.091
 2038TIP3    H1 6057   5.852   4.489   6.101
 2038TIP3    H2 6058   5.924   4.375   6.033
 2039TIP3   OH2 6059   3.397   2.069   6.156
 2039TIP3    H1 6060   3.327   2.094   6.216
 2039TIP3    H2 6061   3.354   2.064   6.070
 2040TIP3   OH2 6062   2.447   0.719   6.087
 2040TIP3    H1 6063   2.390   0.789   6.056
 2040TIP3    H2 6064   2.528   0.763   6.112
 2041TIP3   OH2 6065   1.089   2.740   4.885
 2041TIP3    H1 6066   1.076   2.715   4.977
 2041TIP3    H2 6067   1.087   2.657   4.837
 2042TIP3   OH2 6068   8.145   0.558   0.629
 2042TIP3    H1 6069   8.144   0.466   0.656
 2042TIP3    H2 6070   8.103   0.605   0.701
 2043TIP3   OH2 6071   1.229   4.201   6.727
 2043TIP3    H1 6072   1.265   4.152   6.653
 2043TIP3    H2 6073   1.305   4.241   6.769
 2044TIP3   OH2 6074   2.050   1.999   6.625
 2044TIP3    H1 6075   2.087   1.965   6.707
 2044TIP3    H2 6076   1.987   1.933   6.598
 2045TIP3   OH2 6077   0.302   4.087   1.752
 2045TIP3    H1 6078   0.330   4.005   1.712
 2045TIP3    H2 6079   0.378   4.145   1.745
 2046TIP3   OH2 6080   2.460   6.774   5.031
 2046TIP3    H1 6081   2.458   6.718   5.108
 2046TIP3    H2 6082   2.412   6.725   4.964
 2047TIP3   OH2 6083   7.834   6.545   0.403
 2047TIP3    H1 6084   7.742   6.519   0.395
 2047TIP3    H2 6085   7.872   6.529   0.316
 2048TIP3   OH2 6086   4.873   5.472   4.468
 2048TIP3    H1 6087   4.855   5.548   4.523
 2048TIP3    H2 6088   4.886   5.400   4.531
 2049TIP3   OH2 6089   1.644   6.090   3.266
 2049TIP3    H1 6090   1.556   6.126   3.278
 2049TIP3    H2 6091   1.683   6.146   3.198
 2050TIP3   OH2 6092   5.317   0.410   1.327
 2050TIP3    H1 6093   5.393   0.353   1.317
 2050TIP3    H2 6094   5.263   0.367   1.393
 2051TIP3   OH2 6095   0.740   0.484   5.256
 2051TIP3    H1 6096   0.714   0.522   5.172
 2051TIP3    H2 6097   0.781   0.400   5.232
 2052TIP3   OH2 6098   0.645   5.016   5.285
 2052TIP3    H1 6099   0.701   5.084   5.320
 2052TIP3    H2 6100   0.559   5.032   5.325
 2053TIP3   OH2 6101   4.853   6.152   0.441
 2053TIP3    H1 6102   4.943   6.150   0.410
 2053TIP3    H2 6103   4.809   6.081   0.393
 2054TIP3   OH2 6104   3.632   5.819   1.734
 2054TIP3    H1 6105   3.571   5.772   1.789
 2054TIP3    H2 6106   3.670   5.753   1.677
 2055TIP3   OH2 6107   8.056   4.938   6.520
 2055TIP3    H1 6108   8.025   5.016   6.565
 2055TIP3    H2 6109   8.114   4.973   6.451
 2056TIP3   OH2 6110   0.174   4.262   5.058
 2056TIP3    H1 6111   0.247   4.203   5.037
 2056TIP3    H2 6112   0.110   4.245   4.989
 2057TIP3   OH2 6113   6.694   2.974   4.222
 2057TIP3    H1 6114   6.755   2.901   4.227
 2057TIP3    H2 6115   6.713   3.016   4.137
 2058TIP3   OH2 6116   3.414   5.722   0.651
 2058TIP3    H1 6117   3.508   5.712   0.663
 2058TIP3    H2 6118   3.405   5.806   0.605
 2059TIP3   OH2 6119   0.836   5.916   5.290
 2059TIP3    H1 6120   0.891   5.980   5.335
 2059TIP3    H2 6121   0.783   5.876   5.359
 2060TIP3   OH2 6122   5.734   3.608   1.129
 2060TIP3    H1 6123   5.703   3.698   1.122
 2060TIP3    H2 6124   5.705   3.579   1.215
 2061TIP3   OH2 6125   2.323   2.816   3.995
 2061TIP3    H1 6126   2.260   2.773   3.937
 2061TIP3    H2 6127   2.406   2.812   3.948
 2062TIP3   OH2 6128   5.923   3.553   1.897
 2062TIP3    H1 6129   5.954   3.497   1.825
 2062TIP3    H2 6130   5.907   3.492   1.969
 2063TIP3   OH2 6131   7.566   1.409   6.111
 2063TIP3    H1 6132   7.476   1.412   6.080
 2063TIP3    H2 6133   7.572   1.480   6.176
 2064TIP3   OH2 6134   5.450   0.920   3.136
 2064TIP3    H1 6135   5.415   1.002   3.102
 2064TIP3    H2 6136   5.386   0.892   3.202
 2065TIP3   OH2 6137   7.386   5.362   3.920
 2065TIP3    H1 6138   7.467   5.343   3.967
 2065TIP3    H2 6139   7.382   5.457   3.917
 2066TIP3   OH2 6140   0.713   0.981   2.161
 2066TIP3    H1 6141   0.728   0.887   2.149
 2066TIP3    H2 6142   0.642   0.987   2.225
 2067TIP3   OH2 6143   7.895   3.170   6.560
 2067TIP3    H1 6144   7.805   3.179   6.528
 2067TIP3    H2 6145   7.892   3.096   6.620
 2068TIP3   OH2 6146   3.782   3.551   0.074
 2068TIP3    H1 6147   3.870   3.556   0.037
 2068TIP3    H2 6148   3.763   3.458   0.080
 2069TIP3   OH2 6149   2.731   6.738   1.144
 2069TIP3    H1 6150   2.775   6.670   1.194
 2069TIP3    H2 6151   2.674   6.691   1.083
 2070TIP3   OH2 6152   4.013   5.949   1.252
 2070TIP3    H1 6153   4.016   5.952   1.157
 2070TIP3    H2 6154   3.919   5.948   1.273
 2071TIP3   OH2 6155   4.259   0.583   1.037
 2071TIP3    H1 6156   4.197   0.612   0.971
 2071TIP3    H2 6157   4.272   0.490   1.019
 2072TIP3   OH2 6158   7.066   4.884   5.893
 2072TIP3    H1 6159   6.986   4.933   5.873
 2072TIP3    H2 6160   7.118   4.891   5.813
 2073TIP3   OH2 6161   3.124   3.659   3.287
 2073TIP3    H1 6162   3.165   3.577   3.259
 2073TIP3    H2 6163   3.197   3.710   3.323
 2074TIP3   OH2 6164   0.882   1.691   0.716
 2074TIP3    H1 6165   0.867   1.736   0.633
 2074TIP3    H2 6166   0.940   1.618   0.693
 2075TIP3   OH2 6167   4.653   0.723   1.988
 2075TIP3    H1 6168   4.687   0.804   2.026
 2075TIP3    H2 6169   4.658   0.736   1.894
 2076TIP3   OH2 6170   4.307   6.147   5.716
 2076TIP3    H1 6171   4.296   6.180   5.627
 2076TIP3    H2 6172   4.353   6.217   5.762
 2077TIP3   OH2 6173   0.680   2.008   4.767
 2077TIP3    H1 6174   0.595   1.969   4.787
 2077TIP3    H2 6175   0.661   2.102   4.755
 2078TIP3   OH2 6176   1.046   2.396   0.134
 2078TIP3    H1 6177   1.117   2.375   0.074
 2078TIP3    H2 6178   0.966   2.385   0.082
 2079TIP3   OH2 6179   7.677   1.375   3.010
 2079TIP3    H1 6180   7.651   1.373   3.102
 2079TIP3    H2 6181   7.617   1.438   2.970
 2080TIP3   OH2 6182   6.442   2.293   6.129
 2080TIP3    H1 6183   6.380   2.232   6.170
 2080TIP3    H2 6184   6.386   2.358   6.087
 2081TIP3   OH2 6185   2.162   5.979   2.611
 2081TIP3    H1 6186   2.226   5.926   2.658
 2081TIP3    H2 6187   2.203   5.997   2.527
 2082TIP3   OH2 6188   0.700   3.533   1.893
 2082TIP3    H1 6189   0.688   3.628   1.894
 2082TIP3    H2 6190   0.652   3.502   1.970
 2083TIP3   OH2 6191   6.919   1.853   2.553
 2083TIP3    H1 6192   6.918   1.855   2.457
 2083TIP3    H2 6193   6.882   1.767   2.575
 2084TIP3   OH2 6194   6.050   4.700   3.280
 2084TIP3    H1 6195   5.996   4.665   3.210
 2084TIP3    H2 6196   5.989   4.749   3.336
 2085TIP3   OH2 6197   7.814   4.296   5.570
 2085TIP3    H1 6198   7.817   4.299   5.474
 2085TIP3    H2 6199   7.882   4.234   5.594
 2086TIP3   OH2 6200   3.710   3.083   6.567
 2086TIP3    H1 6201   3.768   3.151   6.601
 2086TIP3    H2 6202   3.631   3.131   6.539
 2087TIP3   OH2 6203   3.440   6.657   6.615
 2087TIP3    H1 6204   3.462   6.750   6.620
 2087TIP3    H2 6205   3.378   6.651   6.542
 2088TIP3   OH2 6206   6.990   3.176   4.266
 2088TIP3    H1 6207   6.965   3.125   4.189
 2088TIP3    H2 6208   7.064   3.128   4.304
 2089TIP3   OH2 6209   6.038   4.313   5.908
 2089TIP3    H1 6210   6.051   4.384   5.845
 2089TIP3    H2 6211   6.100   4.245   5.881
 2090TIP3   OH2 6212   0.480   3.788   4.701
 2090TIP3    H1 6213   0.434   3.777   4.618
 2090TIP3    H2 6214   0.468   3.704   4.747
 2091TIP3   OH2 6215   2.556   7.026   0.487
 2091TIP3    H1 6216   2.548   7.019   0.582
 2091TIP3    H2 6217   2.648   7.006   0.469
 2092TIP3   OH2 6218   5.262   5.018   1.836
 2092TIP3    H1 6219   5.192   5.026   1.771
 2092TIP3    H2 6220   5.304   5.103   1.837
 2093TIP3   OH2 6221   5.532   4.928   2.734
 2093TIP3    H1 6222   5.450   4.879   2.731
 2093TIP3    H2 6223   5.562   4.919   2.825
 2094TIP3   OH2 6224   0.318   6.205   4.253
 2094TIP3    H1 6225   0.394   6.196   4.311
 2094TIP3    H2 6226   0.352   6.184   4.166
 2095TIP3   OH2 6227   0.781   6.717   2.266
 2095TIP3    H1 6228   0.751   6.789   2.210
 2095TIP3    H2 6229   0.707   6.700   2.324
 2096TIP3   OH2 6230   8.112   1.383   3.977
 2096TIP3    H1 6231   8.087   1.407   3.888
 2096TIP3    H2 6232   8.132   1.466   4.019
 2097TIP3   OH2 6233   3.757   0.239   1.110
 2097TIP3    H1 6234   3.689   0.305   1.097
 2097TIP3    H2 6235   3.746   0.210   1.200
 2098TIP3   OH2 6236   0.630   7.520   6.501
 2098TIP3    H1 6237   0.624   7.527   6.406
 2098TIP3    H2 6238   0.699   7.582   6.526
 2099TIP3   OH2 6239   1.016   7.573   0.563
 2099TIP3    H1 6240   1.026   7.506   0.631
 2099TIP3    H2 6241   1.028   7.656   0.610
 2100TIP3   OH2 6242   5.892   0.538   4.352
 2100TIP3    H1 6243   5.963   0.564   4.293
 2100TIP3    H2 6244   5.911   0.446   4.373
 2101TIP3   OH2 6245   0.890   3.287   5.433
 2101TIP3    H1 6246   0.910   3.356   5.497
 2101TIP3    H2 6247   0.925   3.321   5.351
 2102TIP3   OH2 6248   2.846   3.402   4.522
 2102TIP3    H1 6249   2.831   3.494   4.501
 2102TIP3    H2 6250   2.920   3.403   4.583
 2103TIP3   OH2 6251   3.464   1.657   3.760
 2103TIP3    H1 6252   3.419   1.667   3.844
 2103TIP3    H2 6253   3.393   1.641   3.698
 2104TIP3   OH2 6254   0.176   2.556   6.012
 2104TIP3    H1 6255   0.229   2.627   6.047
 2104TIP3    H2 6256   0.088   2.592   6.007
 2105TIP3   OH2 6257   7.836   3.275   1.027
 2105TIP3    H1 6258   7.801   3.318   0.949
 2105TIP3    H2 6259   7.911   3.329   1.052
 2106TIP3   OH2 6260   1.732   0.962   3.649
 2106TIP3    H1 6261   1.777   1.040   3.616
 2106TIP3    H2 6262   1.646   0.964   3.607
 2107TIP3   OH2 6263   8.252   3.488   4.222
 2107TIP3    H1 6264   8.282   3.486   4.313
 2107TIP3    H2 6265   8.324   3.531   4.175
 2108TIP3   OH2 6266   3.641   3.287   1.577
 2108TIP3    H1 6267   3.551   3.272   1.546
 2108TIP3    H2 6268   3.633   3.295   1.672
 2109TIP3   OH2 6269   4.705  -0.007   0.042
 2109TIP3    H1 6270   4.647   0.048   0.095
 2109TIP3    H2 6271   4.725   0.046  -0.035
 2110TIP3   OH2 6272   6.048   4.760   5.188
 2110TIP3    H1 6273   6.096   4.816   5.127
 2110TIP3    H2 6274   6.084   4.673   5.174
 2111TIP3   OH2 6275   0.686   2.606   0.461
 2111TIP3    H1 6276   0.751   2.566   0.403
 2111TIP3    H2 6277   0.674   2.543   0.531
 2112TIP3   OH2 6278   1.652   4.730   5.858
 2112TIP3    H1 6279   1.691   4.812   5.828
 2112TIP3    H2 6280   1.670   4.668   5.788
 2113TIP3   OH2 6281   6.295   5.702   1.507
 2113TIP3    H1 6282   6.350   5.634   1.469
 2113TIP3    H2 6283   6.225   5.653   1.551
 2114TIP3   OH2 6284   7.190   0.129   4.508
 2114TIP3    H1 6285   7.184   0.223   4.529
 2114TIP3    H2 6286   7.156   0.086   4.586
 2115TIP3   OH2 6287   7.249   2.765   3.657
 2115TIP3    H1 6288   7.292   2.785   3.740
 2115TIP3    H2 6289   7.286   2.681   3.630
 2116TIP3   OH2 6290   6.580   5.816   0.127
 2116TIP3    H1 6291   6.607   5.847   0.041
 2116TIP3    H2 6292   6.593   5.721   0.124
 2117TIP3   OH2 6293   3.493   2.709   0.504
 2117TIP3    H1 6294   3.565   2.769   0.485
 2117TIP3    H2 6295   3.512   2.631   0.452
 2118TIP3   OH2 6296   2.452   0.759   1.269
 2118TIP3    H1 6297   2.496   0.716   1.196
 2118TIP3    H2 6298   2.409   0.835   1.230
 2119TIP3   OH2 6299   3.000   0.396   4.823
 2119TIP3    H1 6300   3.059   0.447   4.768
 2119TIP3    H2 6301   3.010   0.306   4.792
 2120TIP3   OH2 6302   2.263   3.442   6.274
 2120TIP3    H1 6303   2.212   3.376   6.227
 2120TIP3    H2 6304   2.213   3.458   6.354
 2121TIP3   OH2 6305   0.078   5.347   5.819
 2121TIP3    H1 6306   0.123   5.388   5.892
 2121TIP3    H2 6307  -0.014   5.346   5.846
 2122TIP3   OH2 6308   0.451   7.151   3.071
 2122TIP3    H1 6309   0.537   7.181   3.044
 2122TIP3    H2 6310   0.404   7.135   2.989
 2123TIP3   OH2 6311   3.792   1.380   1.320
 2123TIP3    H1 6312   3.826   1.468   1.305
 2123TIP3    H2 6313   3.843   1.347   1.394
 2124TIP3   OH2 6314   7.386   5.370   5.128
 2124TIP3    H1 6315   7.304   5.413   5.103
 2124TIP3    H2 6316   7.454   5.417   5.080
 2125TIP3   OH2 6317   6.423   2.773   0.402
 2125TIP3    H1 6318   6.487   2.705   0.423
 2125TIP3    H2 6319   6.423   2.830   0.479
 2126TIP3   OH2 6320  -0.005   3.179   1.759
 2126TIP3    H1 6321   0.061   3.122   1.798
 2126TIP3    H2 6322   0.023   3.191   1.669
 2127TIP3   OH2 6323   5.721   5.035   0.683
 2127TIP3    H1 6324   5.739   4.952   0.726
 2127TIP3    H2 6325   5.807   5.076   0.673
 2128TIP3   OH2 6326   5.746   0.558   1.679
 2128TIP3    H1 6327   5.656   0.559   1.647
 2128TIP3    H2 6328   5.800   0.559   1.599
 2129TIP3   OH2 6329   6.104   3.542   3.936
 2129TIP3    H1 6330   6.106   3.556   4.031
 2129TIP3    H2 6331   6.178   3.592   3.903
 2130TIP3   OH2 6332   3.459   3.014   3.870
 2130TIP3    H1 6333   3.440   3.065   3.949
 2130TIP3    H2 6334   3.510   2.939   3.901
 2131TIP3   OH2 6335   7.810   5.727   3.119
 2131TIP3    H1 6336   7.808   5.695   3.210
 2131TIP3    H2 6337   7.723   5.708   3.085
 2132TIP3   OH2 6338   3.263   2.979   2.064
 2132TIP3    H1 6339   3.170   2.985   2.042
 2132TIP3    H2 6340   3.307   3.013   1.986
 2133TIP3   OH2 6341   6.293   0.423   6.256
 2133TIP3    H1 6342   6.234   0.422   6.331
 2133TIP3    H2 6343   6.379   0.439   6.293
 2134TIP3   OH2 6344   4.725   6.813   0.277
 2134TIP3    H1 6345   4.651   6.834   0.334
 2134TIP3    H2 6346   4.780   6.755   0.329
 2135TIP3   OH2 6347   1.457   0.142   6.642
 2135TIP3    H1 6348   1.435   0.049   6.643
 2135TIP3    H2 6349   1.511   0.155   6.719
 2136TIP3   OH2 6350   4.084   3.630   3.064
 2136TIP3    H1 6351   4.100   3.723   3.048
 2136TIP3    H2 6352   4.170   3.595   3.089
 2137TIP3   OH2 6353   1.382   3.162   0.666
 2137TIP3    H1 6354   1.439   3.183   0.592
 2137TIP3    H2 6355   1.317   3.102   0.630
 2138TIP3   OH2 6356   2.026   7.253   0.910
 2138TIP3    H1 6357   1.956   7.276   0.849
 2138TIP3    H2 6358   2.106   7.256   0.857
 2139TIP3   OH2 6359   5.097   1.332   5.896
 2139TIP3    H1 6360   5.180   1.379   5.887
 2139TIP3    H2 6361   5.098   1.267   5.826
 2140TIP3   OH2 6362   1.243   7.636   5.960
 2140TIP3    H1 6363   1.312   7.679   6.010
 2140TIP3    H2 6364   1.166   7.639   6.017
 2141TIP3   OH2 6365   1.620   6.971   2.478
 2141TIP3    H1 6366   1.694   6.924   2.440
 2141TIP3    H2 6367   1.660   7.043   2.527
 2142TIP3   OH2 6368   6.718   6.363   1.176
 2142TIP3    H1 6369   6.639   6.380   1.124
 2142TIP3    H2 6370   6.695   6.395   1.263
 2143TIP3   OH2 6371   3.105   4.812   4.960
 2143TIP3    H1 6372   3.017   4.789   4.930
 2143TIP3    H2 6373   3.098   4.811   5.056
 2144TIP3   OH2 6374   5.102   0.673   1.636
 2144TIP3    H1 6375   5.168   0.704   1.573
 2144TIP3    H2 6376   5.045   0.616   1.585
 2145TIP3   OH2 6377   5.730   1.329   6.427
 2145TIP3    H1 6378   5.686   1.245   6.411
 2145TIP3    H2 6379   5.681   1.392   6.373
 2146TIP3   OH2 6380   4.722   6.667   1.087
 2146TIP3    H1 6381   4.772   6.594   1.050
 2146TIP3    H2 6382   4.706   6.641   1.178
 2147TIP3   OH2 6383   4.784   0.548   6.036
 2147TIP3    H1 6384   4.715   0.611   6.058
 2147TIP3    H2 6385   4.858   0.575   6.090
 2148TIP3   OH2 6386   3.187   5.124   5.797
 2148TIP3    H1 6387   3.198   5.106   5.890
 2148TIP3    H2 6388   3.263   5.178   5.774
 2149TIP3   OH2 6389   3.296   1.534   1.404
 2149TIP3    H1 6390   3.326   1.445   1.421
 2149TIP3    H2 6391   3.259   1.563   1.487
 2150TIP3   OH2 6392   7.206   4.986   1.561
 2150TIP3    H1 6393   7.180   5.017   1.474
 2150TIP3    H2 6394   7.222   5.066   1.611
 2151TIP3   OH2 6395   4.925   0.681   4.829
 2151TIP3    H1 6396   4.988   0.667   4.900
 2151TIP3    H2 6397   4.928   0.600   4.778
 2152TIP3   OH2 6398   1.203   0.288   1.357
 2152TIP3    H1 6399   1.152   0.238   1.422
 2152TIP3    H2 6400   1.205   0.377   1.392
 2153TIP3   OH2 6401   4.693   3.875   3.050
 2153TIP3    H1 6402   4.612   3.870   3.102
 2153TIP3    H2 6403   4.757   3.915   3.109
 2154TIP3   OH2 6404   1.308   3.417   5.681
 2154TIP3    H1 6405   1.279   3.370   5.603
 2154TIP3    H2 6406   1.228   3.429   5.732
 2155TIP3   OH2 6407   7.130   1.869   3.407
 2155TIP3    H1 6408   7.165   1.780   3.401
 2155TIP3    H2 6409   7.195   1.923   3.362
 2156TIP3   OH2 6410   2.081   4.198   1.345
 2156TIP3    H1 6411   1.989   4.199   1.374
 2156TIP3    H2 6412   2.085   4.125   1.283
 2157TIP3   OH2 6413   0.810   2.014   1.159
 2157TIP3    H1 6414   0.798   1.998   1.066
 2157TIP3    H2 6415   0.862   1.940   1.190
 2158TIP3   OH2 6416   6.044   1.001   5.300
 2158TIP3    H1 6417   5.971   0.939   5.301
 2158TIP3    H2 6418   6.066   1.011   5.208
 2159TIP3   OH2 6419   6.253   3.818   2.246
 2159TIP3    H1 6420   6.214   3.851   2.165
 2159TIP3    H2 6421   6.201   3.857   2.316
 2160TIP3   OH2 6422   5.405   2.682   2.879
 2160TIP3    H1 6423   5.374   2.703   2.967
 2160TIP3    H2 6424   5.485   2.733   2.869
 2161TIP3   OH2 6425   3.744   1.859   0.678
 2161TIP3    H1 6426   3.708   1.771   0.690
 2161TIP3    H2 6427   3.668   1.917   0.685
 2162TIP3   OH2 6428   4.412   1.552   3.300
 2162TIP3    H1 6429   4.394   1.463   3.331
 2162TIP3    H2 6430   4.360   1.608   3.358
 2163TIP3   OH2 6431   2.087   0.039   3.293
 2163TIP3    H1 6432   2.115  -0.006   3.213
 2163TIP3    H2 6433   2.114  -0.020   3.364
 2164TIP3   OH2 6434   0.212   2.280   3.708
 2164TIP3    H1 6435   0.252   2.199   3.739
 2164TIP3    H2 6436   0.218   2.341   3.782
 2165TIP3   OH2 6437   3.772   4.313   5.215
 2165TIP3    H1 6438   3.816   4.393   5.242
 2165TIP3    H2 6439   3.713   4.293   5.288
 2166TIP3   OH2 6440   6.089   6.335   1.048
 2166TIP3    H1 6441   6.066   6.242   1.042
 2166TIP3    H2 6442   6.157   6.340   1.115
 2167TIP3   OH2 6443   7.542   2.848   4.077
 2167TIP3    H1 6444   7.578   2.934   4.056
 2167TIP3    H2 6445   7.493   2.861   4.157
 2168TIP3   OH2 6446   5.131   0.672   5.847
 2168TIP3    H1 6447   5.190   0.628   5.786
 2168TIP3    H2 6448   5.187   0.701   5.919
 2169TIP3   OH2 6449   1.497   7.092   1.860
 2169TIP3    H1 6450   1.561   7.122   1.925
 2169TIP3    H2 6451   1.518   7.000   1.846
 2170TIP3   OH2 6452   5.250   1.105   3.301
 2170TIP3    H1 6453   5.283   1.175   3.357
 2170TIP3    H2 6454   5.220   1.037   3.362
 2171TIP3   OH2 6455   2.738   7.323   1.788
 2171TIP3    H1 6456   2.683   7.372   1.727
 2171TIP3    H2 6457   2.782   7.257   1.734
 2172TIP3   OH2 6458   5.469   1.251   6.055
 2172TIP3    H1 6459   5.490   1.223   5.966
 2172TIP3    H2 6460   5.523   1.194   6.111
 2173TIP3   OH2 6461   4.360   5.980   2.911
 2173TIP3    H1 6462   4.432   5.961   2.970
 2173TIP3    H2 6463   4.389   5.947   2.826
 2174TIP3   OH2 6464   3.177   2.663   4.202
 2174TIP3    H1 6465   3.139   2.593   4.149
 2174TIP3    H2 6466   3.226   2.617   4.270
 2175TIP3   OH2 6467   4.486   4.899   4.683
 2175TIP3    H1 6468   4.492   4.873   4.591
 2175TIP3    H2 6469   4.401   4.944   4.689
 2176TIP3   OH2 6470   5.929   0.391   0.202
 2176TIP3    H1 6471   5.872   0.425   0.133
 2176TIP3    H2 6472   5.892   0.305   0.223
 2177TIP3   OH2 6473   2.364   3.060   5.900
 2177TIP3    H1 6474   2.371   3.126   5.831
 2177TIP3    H2 6475   2.289   3.006   5.875
 2178TIP3   OH2 6476   6.161   5.575   1.250
 2178TIP3    H1 6477   6.206   5.598   1.332
 2178TIP3    H2 6478   6.214   5.615   1.181
 2179TIP3   OH2 6479   6.540   6.820   1.772
 2179TIP3    H1 6480   6.459   6.840   1.819
 2179TIP3    H2 6481   6.602   6.795   1.840
 2180TIP3   OH2 6482   1.433   7.327   5.279
 2180TIP3    H1 6483   1.488   7.405   5.290
 2180TIP3    H2 6484   1.473   7.261   5.335
 2181TIP3   OH2 6485   2.970   7.659   3.001
 2181TIP3    H1 6486   2.997   7.729   2.942
 2181TIP3    H2 6487   2.879   7.679   3.022
 2182TIP3   OH2 6488   0.273   5.576   0.652
 2182TIP3    H1 6489   0.183   5.552   0.630
 2182TIP3    H2 6490   0.275   5.576   0.747
 2183TIP3   OH2 6491   2.322   4.907   3.296
 2183TIP3    H1 6492   2.382   4.942   3.230
 2183TIP3    H2 6493   2.296   4.983   3.348
 2184TIP3   OH2 6494   0.714   2.498   5.763
 2184TIP3    H1 6495   0.641   2.509   5.702
 2184TIP3    H2 6496   0.772   2.572   5.744
 2185TIP3   OH2 6497   2.879   5.960   4.060
 2185TIP3    H1 6498   2.873   5.867   4.037
 2185TIP3    H2 6499   2.967   5.970   4.097
 2186TIP3   OH2 6500   7.545   5.602   3.938
 2186TIP3    H1 6501   7.466   5.631   3.893
 2186TIP3    H2 6502   7.595   5.556   3.871
 2187TIP3   OH2 6503   0.323   5.419   4.061
 2187TIP3    H1 6504   0.290   5.342   4.014
 2187TIP3    H2 6505   0.399   5.386   4.109
 2188TIP3   OH2 6506   5.517   5.005   6.251
 2188TIP3    H1 6507   5.586   5.042   6.195
 2188TIP3    H2 6508   5.472   5.082   6.287
 2189TIP3   OH2 6509   1.485   6.792   3.111
 2189TIP3    H1 6510   1.535   6.735   3.053
 2189TIP3    H2 6511   1.460   6.737   3.184
 2190TIP3   OH2 6512   4.229   0.955   4.749
 2190TIP3    H1 6513   4.325   0.948   4.754
 2190TIP3    H2 6514   4.206   1.014   4.820
 2191TIP3   OH2 6515   5.328   6.434   0.200
 2191TIP3    H1 6516   5.248   6.480   0.222
 2191TIP3    H2 6517   5.355   6.391   0.282
 2192TIP3   OH2 6518   5.547   7.237   5.336
 2192TIP3    H1 6519   5.587   7.154   5.312
 2192TIP3    H2 6520   5.462   7.213   5.374
 2193TIP3   OH2 6521   7.147   7.228   1.155
 2193TIP3    H1 6522   7.141   7.286   1.080
 2193TIP3    H2 6523   7.081   7.160   1.138
 2194TIP3   OH2 6524   3.021   6.758   3.432
 2194TIP3    H1 6525   3.010   6.755   3.337
 2194TIP3    H2 6526   3.018   6.852   3.454
 2195TIP3   OH2 6527   4.988   0.001   3.107
 2195TIP3    H1 6528   4.900  -0.034   3.098
 2195TIP3    H2 6529   4.976   0.088   3.144
 2196TIP3   OH2 6530   0.645   6.243   1.579
 2196TIP3    H1 6531   0.694   6.189   1.517
 2196TIP3    H2 6532   0.710   6.267   1.645
 2197TIP3   OH2 6533   3.356   2.088   5.890
 2197TIP3    H1 6534   3.356   2.042   5.806
 2197TIP3    H2 6535   3.379   2.178   5.867
 2198TIP3   OH2 6536   6.931   7.836   4.041
 2198TIP3    H1 6537   6.870   7.905   4.014
 2198TIP3    H2 6538   6.880   7.782   4.101
 2199TIP3   OH2 6539   3.668   1.392   5.490
 2199TIP3    H1 6540   3.749   1.441   5.492
 2199TIP3    H2 6541   3.601   1.453   5.520
 2200TIP3   OH2 6542   7.249   0.781   2.586
 2200TIP3    H1 6543   7.180   0.811   2.526
 2200TIP3    H2 6544   7.269   0.858   2.639
 2201TIP3   OH2 6545   6.605   6.655   3.064
 2201TIP3    H1 6546   6.571   6.576   3.107
 2201TIP3    H2 6547   6.674   6.622   3.006
 2202TIP3   OH2 6548   0.835   7.697   5.851
 2202TIP3    H1 6549   0.880   7.626   5.896
 2202TIP3    H2 6550   0.842   7.675   5.758
 2203TIP3   OH2 6551   3.394   2.140   4.203
 2203TIP3    H1 6552   3.467   2.191   4.237
 2203TIP3    H2 6553   3.418   2.049   4.220
 2204TIP3   OH2 6554   0.314   1.220   5.061
 2204TIP3    H1 6555   0.363   1.145   5.094
 2204TIP3    H2 6556   0.267   1.253   5.137
 2205TIP3   OH2 6557   3.094   1.642   5.615
 2205TIP3    H1 6558   3.128   1.665   5.529
 2205TIP3    H2 6559   3.169   1.600   5.660
 2206TIP3   OH2 6560   4.040   3.505   1.288
 2206TIP3    H1 6561   4.055   3.463   1.373
 2206TIP3    H2 6562   3.953   3.544   1.296
 2207TIP3   OH2 6563   1.638   4.882   5.128
 2207TIP3    H1 6564   1.583   4.956   5.102
 2207TIP3    H2 6565   1.668   4.905   5.216
 2208TIP3   OH2 6566   6.728   5.411   1.108
 2208TIP3    H1 6567   6.768   5.497   1.091
 2208TIP3    H2 6568   6.722   5.370   1.022
 2209TIP3   OH2 6569   4.023   5.673   3.353
 2209TIP3    H1 6570   4.035   5.768   3.361
 2209TIP3    H2 6571   3.939   5.656   3.395
 2210TIP3   OH2 6572   2.832   4.996   1.685
 2210TIP3    H1 6573   2.755   4.942   1.705
 2210TIP3    H2 6574   2.889   4.938   1.634
 2211TIP3   OH2 6575   2.378   3.410   4.983
 2211TIP3    H1 6576   2.455   3.454   4.947
 2211TIP3    H2 6577   2.335   3.370   4.906
 2212TIP3   OH2 6578   0.151   6.437   1.301
 2212TIP3    H1 6579   0.217   6.377   1.334
 2212TIP3    H2 6580   0.138   6.500   1.373
 2213TIP3   OH2 6581   6.808   7.773   0.699
 2213TIP3    H1 6582   6.895   7.785   0.660
 2213TIP3    H2 6583   6.747   7.795   0.629
 2214TIP3   OH2 6584   7.818   5.566   5.238
 2214TIP3    H1 6585   7.905   5.527   5.235
 2214TIP3    H2 6586   7.779   5.544   5.154
 2215TIP3   OH2 6587   3.867   1.683   0.153
 2215TIP3    H1 6588   3.920   1.713   0.226
 2215TIP3    H2 6589   3.921   1.618   0.109
 2216TIP3   OH2 6590   0.269   4.307   6.075
 2216TIP3    H1 6591   0.290   4.268   6.160
 2216TIP3    H2 6592   0.217   4.385   6.097
 2217TIP3   OH2 6593   0.589   6.962   0.577
 2217TIP3    H1 6594   0.552   6.926   0.658
 2217TIP3    H2 6595   0.608   6.884   0.524
 2218TIP3   OH2 6596   4.433   0.634   4.932
 2218TIP3    H1 6597   4.379   0.649   5.010
 2218TIP3    H2 6598   4.498   0.570   4.959
 2219TIP3   OH2 6599   1.906   5.371   3.892
 2219TIP3    H1 6600   1.881   5.289   3.848
 2219TIP3    H2 6601   1.823   5.411   3.917
 2220TIP3   OH2 6602   0.761   4.515   6.282
 2220TIP3    H1 6603   0.791   4.605   6.295
 2220TIP3    H2 6604   0.791   4.493   6.194
 2221TIP3   OH2 6605   5.748   0.857   0.918
 2221TIP3    H1 6606   5.778   0.928   0.974
 2221TIP3    H2 6607   5.794   0.871   0.835
 2222TIP3   OH2 6608   0.713   2.565   1.356
 2222TIP3    H1 6609   0.796   2.590   1.315
 2222TIP3    H2 6610   0.650   2.567   1.285
 2223TIP3   OH2 6611   4.514   5.201   0.171
 2223TIP3    H1 6612   4.467   5.183   0.090
 2223TIP3    H2 6613   4.582   5.133   0.175
 2224TIP3   OH2 6614   4.001   2.811   5.822
 2224TIP3    H1 6615   4.076   2.850   5.866
 2224TIP3    H2 6616   3.946   2.778   5.893
 2225TIP3   OH2 6617   6.039   4.912   0.577
 2225TIP3    H1 6618   6.012   5.001   0.554
 2225TIP3    H2 6619   6.064   4.872   0.494
 2226TIP3   OH2 6620   0.065   6.253   0.303
 2226TIP3    H1 6621   0.047   6.280   0.392
 2226TIP3    H2 6622   0.154   6.282   0.286
 2227TIP3   OH2 6623   5.859   1.962   4.864
 2227TIP3    H1 6624   5.822   1.875   4.845
 2227TIP3    H2 6625   5.783   2.017   4.883
 2228TIP3   OH2 6626   6.142   4.698   2.158
 2228TIP3    H1 6627   6.160   4.660   2.072
 2228TIP3    H2 6628   6.182   4.785   2.155
 2229TIP3   OH2 6629   8.238   1.260   1.772
 2229TIP3    H1 6630   8.168   1.300   1.824
 2229TIP3    H2 6631   8.317   1.273   1.825
 2230TIP3   OH2 6632   4.914   1.923   2.319
 2230TIP3    H1 6633   4.995   1.933   2.368
 2230TIP3    H2 6634   4.865   2.003   2.338
 2231TIP3   OH2 6635   2.865   6.393   2.276
 2231TIP3    H1 6636   2.840   6.328   2.210
 2231TIP3    H2 6637   2.950   6.362   2.308
 2232TIP3   OH2 6638   3.856   2.364   5.680
 2232TIP3    H1 6639   3.837   2.307   5.754
 2232TIP3    H2 6640   3.779   2.358   5.624
 2233TIP3   OH2 6641   1.727   7.745   6.192
 2233TIP3    H1 6642   1.731   7.702   6.106
 2233TIP3    H2 6643   1.745   7.837   6.174
 2234TIP3   OH2 6644   4.441   2.174   2.220
 2234TIP3    H1 6645   4.355   2.191   2.183
 2234TIP3    H2 6646   4.463   2.086   2.191
 2235TIP3   OH2 6647   1.292   4.897   5.896
 2235TIP3    H1 6648   1.327   4.835   5.832
 2235TIP3    H2 6649   1.203   4.867   5.914
 2236TIP3   OH2 6650   6.483   5.330   1.220
 2236TIP3    H1 6651   6.404   5.326   1.167
 2236TIP3    H2 6652   6.553   5.350   1.158
 2237TIP3   OH2 6653   7.046   7.492   2.763
 2237TIP3    H1 6654   7.087   7.491   2.677
 2237TIP3    H2 6655   6.963   7.537   2.750
 2238TIP3   OH2 6656   6.715   6.510   4.730
 2238TIP3    H1 6657   6.712   6.601   4.757
 2238TIP3    H2 6658   6.627   6.477   4.748
 2239TIP3   OH2 6659   2.031   6.742   4.390
 2239TIP3    H1 6660   1.944   6.753   4.352
 2239TIP3    H2 6661   2.030   6.797   4.469
 2240TIP3   OH2 6662   2.378   2.778   0.163
 2240TIP3    H1 6663   2.313   2.791   0.094
 2240TIP3    H2 6664   2.420   2.695   0.141
 2241TIP3   OH2 6665   5.498   0.137   5.913
 2241TIP3    H1 6666   5.565   0.133   5.981
 2241TIP3    H2 6667   5.437   0.205   5.943
 2242TIP3   OH2 6668   2.643   5.726   1.401
 2242TIP3    H1 6669   2.553   5.757   1.389
 2242TIP3    H2 6670   2.666   5.752   1.490
 2243TIP3   OH2 6671   6.485   6.395   3.170
 2243TIP3    H1 6672   6.551   6.350   3.222
 2243TIP3    H2 6673   6.407   6.339   3.178
 2244TIP3   OH2 6674   1.894   4.082   0.588
 2244TIP3    H1 6675   1.898   4.073   0.683
 2244TIP3    H2 6676   1.976   4.126   0.565
 2245TIP3   OH2 6677   0.735   6.039   5.886
 2245TIP3    H1 6678   0.826   6.024   5.860
 2245TIP3    H2 6679   0.684   5.980   5.830
 2246TIP3   OH2 6680   3.479   7.401   1.112
 2246TIP3    H1 6681   3.430   7.452   1.048
 2246TIP3    H2 6682   3.571   7.420   1.091
 2247TIP3   OH2 6683   4.197   0.057   4.192
 2247TIP3    H1 6684   4.234   0.140   4.164
 2247TIP3    H2 6685   4.111   0.053   4.149
 2248TIP3   OH2 6686   7.926   6.444   3.189
 2248TIP3    H1 6687   7.958   6.457   3.100
 2248TIP3    H2 6688   7.904   6.532   3.220
 2249TIP3   OH2 6689   3.192   6.369   5.922
 2249TIP3    H1 6690   3.288   6.375   5.928
 2249TIP3    H2 6691   3.165   6.341   6.009
 2250TIP3   OH2 6692   7.335   2.848   4.752
 2250TIP3    H1 6693   7.381   2.774   4.712
 2250TIP3    H2 6694   7.315   2.818   4.841
 2251TIP3   OH2 6695   4.655   7.782   5.997
 2251TIP3    H1 6696   4.721   7.810   5.933
 2251TIP3    H2 6697   4.576   7.831   5.973
 2252TIP3   OH2 6698   4.541   1.044   5.027
 2252TIP3    H1 6699   4.592   1.125   5.024
 2252TIP3    H2 6700   4.491   1.044   4.945
 2253TIP3   OH2 6701   7.442   4.833   1.580
 2253TIP3    H1 6702   7.442   4.741   1.552
 2253TIP3    H2 6703   7.355   4.865   1.556
 2254TIP3   OH2 6704   3.127   4.337   6.297
 2254TIP3    H1 6705   3.146   4.430   6.313
 2254TIP3    H2 6706   3.032   4.334   6.283
 2255TIP3   OH2 6707   7.118   6.844   0.203
 2255TIP3    H1 6708   7.040   6.808   0.161
 2255TIP3    H2 6709   7.106   6.824   0.296
 2256TIP3   OH2 6710   1.951   5.866   4.151
 2256TIP3    H1 6711   1.983   5.792   4.100
 2256TIP3    H2 6712   2.019   5.882   4.217
 2257TIP3   OH2 6713   7.957   2.121   0.583
 2257TIP3    H1 6714   8.016   2.190   0.614
 2257TIP3    H2 6715   8.009   2.073   0.519
 2258TIP3   OH2 6716   8.095   2.024   0.376
 2258TIP3    H1 6717   8.053   2.027   0.290
 2258TIP3    H2 6718   8.188   2.018   0.356
 2259TIP3   OH2 6719   2.018   1.514   4.563
 2259TIP3    H1 6720   2.010   1.440   4.503
 2259TIP3    H2 6721   2.000   1.476   4.650
 2260TIP3   OH2 6722   1.143   6.063   3.665
 2260TIP3    H1 6723   1.142   5.993   3.600
 2260TIP3    H2 6724   1.172   6.140   3.616
 2261TIP3   OH2 6725   7.635   7.720   5.051
 2261TIP3    H1 6726   7.574   7.791   5.072
 2261TIP3    H2 6727   7.687   7.754   4.978
 2262TIP3   OH2 6728   2.694   3.880   3.049
 2262TIP3    H1 6729   2.736   3.886   2.963
 2262TIP3    H2 6730   2.754   3.827   3.102
 2263TIP3   OH2 6731   5.350   1.173   5.143
 2263TIP3    H1 6732   5.303   1.229   5.081
 2263TIP3    H2 6733   5.305   1.089   5.138
 2264TIP3   OH2 6734   3.155   7.223   2.244
 2264TIP3    H1 6735   3.109   7.187   2.319
 2264TIP3    H2 6736   3.176   7.147   2.189
 2265TIP3   OH2 6737   0.201   3.075   3.848
 2265TIP3    H1 6738   0.280   3.110   3.889
 2265TIP3    H2 6739   0.234   3.012   3.783
 2266TIP3   OH2 6740   0.693   6.401   5.455
 2266TIP3    H1 6741   0.743   6.361   5.526
 2266TIP3    H2 6742   0.759   6.430   5.392
 2267TIP3   OH2 6743   3.010   1.822   4.656
 2267TIP3    H1 6744   3.094   1.825   4.610
 2267TIP3    H2 6745   2.948   1.790   4.590
 2268TIP3   OH2 6746   0.129   6.907   4.387
 2268TIP3    H1 6747   0.136   6.997   4.355
 2268TIP3    H2 6748   0.048   6.906   4.438
 2269TIP3   OH2 6749   2.661   6.802   4.179
 2269TIP3    H1 6750   2.709   6.720   4.167
 2269TIP3    H2 6751   2.725   6.870   4.163
 2270TIP3   OH2 6752   6.570   1.795   3.863
 2270TIP3    H1 6753   6.561   1.777   3.957
 2270TIP3    H2 6754   6.646   1.744   3.836
 2271TIP3   OH2 6755   6.384   3.119   3.851
 2271TIP3    H1 6756   6.329   3.044   3.875
 2271TIP3    H2 6757   6.368   3.131   3.757
 2272TIP3   OH2 6758   2.087   7.761   5.815
 2272TIP3    H1 6759   2.065   7.678   5.858
 2272TIP3    H2 6760   2.141   7.807   5.878
 2273TIP3   OH2 6761   7.212   6.666   6.667
 2273TIP3    H1 6762   7.185   6.741   6.613
 2273TIP3    H2 6763   7.142   6.602   6.655
 2274TIP3   OH2 6764   1.863   6.993   5.077
 2274TIP3    H1 6765   1.801   7.046   5.027
 2274TIP3    H2 6766   1.923   7.057   5.116
 2275TIP3   OH2 6767   5.721   7.530   0.100
 2275TIP3    H1 6768   5.797   7.587   0.087
 2275TIP3    H2 6769   5.759   7.443   0.115
 2276TIP3   OH2 6770   7.931   4.821   4.714
 2276TIP3    H1 6771   7.952   4.875   4.638
 2276TIP3    H2 6772   8.014   4.811   4.761
 2277TIP3   OH2 6773   0.346   1.509   5.022
 2277TIP3    H1 6774   0.278   1.550   4.970
 2277TIP3    H2 6775   0.337   1.415   5.004
 2278TIP3   OH2 6776   7.857   1.472   0.832
 2278TIP3    H1 6777   7.914   1.496   0.905
 2278TIP3    H2 6778   7.798   1.548   0.822
 2279TIP3   OH2 6779   5.085   2.815   4.732
 2279TIP3    H1 6780   5.013   2.858   4.686
 2279TIP3    H2 6781   5.050   2.794   4.819
 2280TIP3   OH2 6782   0.889   0.454   3.063
 2280TIP3    H1 6783   0.795   0.458   3.082
 2280TIP3    H2 6784   0.894   0.427   2.972
 2281TIP3   OH2 6785   4.688   7.081   6.720
 2281TIP3    H1 6786   4.652   7.099   6.633
 2281TIP3    H2 6787   4.612   7.080   6.778
 2282TIP3   OH2 6788   7.941   4.337   2.639
 2282TIP3    H1 6789   7.898   4.310   2.720
 2282TIP3    H2 6790   7.883   4.403   2.601
 2283TIP3   OH2 6791   0.371   3.810   3.038
 2283TIP3    H1 6792   0.294   3.851   3.077
 2283TIP3    H2 6793   0.354   3.716   3.043
 2284TIP3   OH2 6794   8.082   2.116   5.310
 2284TIP3    H1 6795   7.995   2.144   5.283
 2284TIP3    H2 6796   8.123   2.082   5.231
 2285TIP3   OH2 6797   1.322   2.699   4.443
 2285TIP3    H1 6798   1.405   2.656   4.464
 2285TIP3    H2 6799   1.324   2.711   4.348
 2286TIP3   OH2 6800   2.990   0.122   6.105
 2286TIP3    H1 6801   2.930   0.063   6.150
 2286TIP3    H2 6802   2.973   0.107   6.012
 2287TIP3   OH2 6803   6.379   1.591   6.577
 2287TIP3    H1 6804   6.470   1.587   6.547
 2287TIP3    H2 6805   6.344   1.504   6.559
 2288TIP3   OH2 6806   6.493   4.159   5.169
 2288TIP3    H1 6807   6.576   4.123   5.200
 2288TIP3    H2 6808   6.483   4.124   5.080
 2289TIP3   OH2 6809   0.506   5.639   0.522
 2289TIP3    H1 6810   0.420   5.634   0.564
 2289TIP3    H2 6811   0.533   5.730   0.535
 2290TIP3   OH2 6812   2.591   1.203   5.458
 2290TIP3    H1 6813   2.669   1.151   5.440
 2290TIP3    H2 6814   2.613   1.291   5.428
 2291TIP3   OH2 6815   4.690   3.138   3.370
 2291TIP3    H1 6816   4.602   3.170   3.351
 2291TIP3    H2 6817   4.709   3.077   3.299
 2292TIP3   OH2 6818   5.392   4.289   1.199
 2292TIP3    H1 6819   5.340   4.363   1.230
 2292TIP3    H2 6820   5.460   4.277   1.265
 2293TIP3   OH2 6821   5.642   2.821   2.874
 2293TIP3    H1 6822   5.647   2.894   2.936
 2293TIP3    H2 6823   5.733   2.800   2.854
 2294TIP3   OH2 6824   7.298   0.571   1.759
 2294TIP3    H1 6825   7.239   0.583   1.833
 2294TIP3    H2 6826   7.285   0.648   1.704
 2295TIP3   OH2 6827   4.147   3.752   1.990
 2295TIP3    H1 6828   4.143   3.803   1.909
 2295TIP3    H2 6829   4.125   3.814   2.059
 2296TIP3   OH2 6830   0.972   3.245   1.139
 2296TIP3    H1 6831   1.004   3.257   1.050
 2296TIP3    H2 6832   0.887   3.289   1.141
 2297TIP3   OH2 6833   6.136   3.932   2.047
 2297TIP3    H1 6834   6.043   3.952   2.052
 2297TIP3    H2 6835   6.176   4.009   2.007
 2298TIP3   OH2 6836   2.639   3.034   2.135
 2298TIP3    H1 6837   2.710   2.979   2.168
 2298TIP3    H2 6838   2.664   3.123   2.161
 2299TIP3   OH2 6839   2.313   1.701   3.782
 2299TIP3    H1 6840   2.320   1.779   3.837
 2299TIP3    H2 6841   2.229   1.662   3.806
 2300TIP3   OH2 6842   5.028   0.387   3.400
 2300TIP3    H1 6843   4.987   0.340   3.473
 2300TIP3    H2 6844   5.065   0.466   3.441
 2301TIP3   OH2 6845   2.721   6.854   6.306
 2301TIP3    H1 6846   2.786   6.860   6.376
 2301TIP3    H2 6847   2.741   6.927   6.248
 2302TIP3   OH2 6848   5.408   5.831   3.215
 2302TIP3    H1 6849   5.392   5.739   3.191
 2302TIP3    H2 6850   5.409   5.877   3.131
 2303TIP3   OH2 6851   4.669   4.097   6.600
 2303TIP3    H1 6852   4.667   4.113   6.694
 2303TIP3    H2 6853   4.707   4.177   6.563
 2304TIP3   OH2 6854   3.954   1.277   1.549
 2304TIP3    H1 6855   3.995   1.192   1.538
 2304TIP3    H2 6856   4.013   1.326   1.605
 2305TIP3   OH2 6857   3.108   2.257   3.346
 2305TIP3    H1 6858   3.154   2.199   3.285
 2305TIP3    H2 6859   3.151   2.342   3.336
 2306TIP3   OH2 6860   6.784   5.932   4.119
 2306TIP3    H1 6861   6.758   5.840   4.123
 2306TIP3    H2 6862   6.755   5.961   4.033
 2307TIP3   OH2 6863   6.117   6.803   3.930
 2307TIP3    H1 6864   6.064   6.729   3.901
 2307TIP3    H2 6865   6.086   6.822   4.018
 2308TIP3   OH2 6866   0.299   4.494   4.431
 2308TIP3    H1 6867   0.264   4.443   4.358
 2308TIP3    H2 6868   0.334   4.428   4.491
 2309TIP3   OH2 6869   3.427   4.686   6.003
 2309TIP3    H1 6870   3.497   4.625   5.979
 2309TIP3    H2 6871   3.398   4.657   6.090
 2310TIP3   OH2 6872   0.907   7.777   3.133
 2310TIP3    H1 6873   0.937   7.839   3.199
 2310TIP3    H2 6874   0.827   7.816   3.098
 2311TIP3   OH2 6875   5.864   4.701   5.770
 2311TIP3    H1 6876   5.934   4.681   5.832
 2311TIP3    H2 6877   5.786   4.663   5.809
 2312TIP3   OH2 6878   5.279   5.373   1.156
 2312TIP3    H1 6879   5.305   5.306   1.093
 2312TIP3    H2 6880   5.184   5.378   1.149
 2313TIP3   OH2 6881   2.336   5.305   0.124
 2313TIP3    H1 6882   2.322   5.276   0.214
 2313TIP3    H2 6883   2.400   5.244   0.088
 2314TIP3   OH2 6884   1.428   5.176   6.603
 2314TIP3    H1 6885   1.500   5.188   6.540
 2314TIP3    H2 6886   1.349   5.184   6.550
 2315TIP3   OH2 6887   4.515   7.737   3.068
 2315TIP3    H1 6888   4.544   7.717   3.157
 2315TIP3    H2 6889   4.596   7.754   3.020
 2316TIP3   OH2 6890   3.374   1.168   4.567
 2316TIP3    H1 6891   3.406   1.154   4.478
 2316TIP3    H2 6892   3.288   1.127   4.568
 2317TIP3   OH2 6893   4.134   7.481   4.481
 2317TIP3    H1 6894   4.066   7.521   4.535
 2317TIP3    H2 6895   4.086   7.432   4.414
 2318TIP3   OH2 6896   8.128   5.620   2.179
 2318TIP3    H1 6897   8.115   5.713   2.162
 2318TIP3    H2 6898   8.191   5.592   2.112
 2319TIP3   OH2 6899  -0.028   2.816   4.143
 2319TIP3    H1 6900   0.045   2.838   4.202
 2319TIP3    H2 6901   0.013   2.808   4.057
 2320TIP3   OH2 6902   6.447   7.805   0.835
 2320TIP3    H1 6903   6.502   7.729   0.815
 2320TIP3    H2 6904   6.413   7.787   0.923
 2321TIP3   OH2 6905   2.542   1.150   0.411
 2321TIP3    H1 6906   2.494   1.174   0.332
 2321TIP3    H2 6907   2.625   1.197   0.403
 2322TIP3   OH2 6908   7.469   6.834   6.507
 2322TIP3    H1 6909   7.385   6.796   6.483
 2322TIP3    H2 6910   7.494   6.789   6.588
 2323TIP3   OH2 6911   3.873   0.282   5.611
 2323TIP3    H1 6912   3.850   0.196   5.645
 2323TIP3    H2 6913   3.969   0.282   5.608
 2324TIP3   OH2 6914   5.142   6.963   5.527
 2324TIP3    H1 6915   5.230   6.941   5.557
 2324TIP3    H2 6916   5.091   6.883   5.542
 2325TIP3   OH2 6917   4.341   5.471   0.043
 2325TIP3    H1 6918   4.388   5.508  -0.032
 2325TIP3    H2 6919   4.410   5.447   0.105
 2326TIP3   OH2 6920   7.776   0.561   4.777
 2326TIP3    H1 6921   7.739   0.645   4.803
 2326TIP3    H2 6922   7.729   0.497   4.831
 2327TIP3   OH2 6923   6.998   5.904   5.401
 2327TIP3    H1 6924   6.987   5.943   5.488
 2327TIP3    H2 6925   7.055   5.829   5.416
 2328TIP3   OH2 6926   1.006   6.504   3.940
 2328TIP3    H1 6927   0.992   6.538   3.852
 2328TIP3    H2 6928   1.018   6.410   3.927
 2329TIP3   OH2 6929   1.786   3.308   4.323
 2329TIP3    H1 6930   1.738   3.297   4.241
 2329TIP3    H2 6931   1.810   3.401   4.324
 2330TIP3   OH2 6932   5.217   3.741   6.450
 2330TIP3    H1 6933   5.300   3.742   6.401
 2330TIP3    H2 6934   5.188   3.650   6.446
 2331TIP3   OH2 6935   6.341   7.208   6.362
 2331TIP3    H1 6936   6.435   7.210   6.343
 2331TIP3    H2 6937   6.312   7.122   6.332
 2332TIP3   OH2 6938   3.663   5.380   4.473
 2332TIP3    H1 6939   3.604   5.324   4.525
 2332TIP3    H2 6940   3.608   5.413   4.402
 2333TIP3   OH2 6941   4.919   3.278   0.455
 2333TIP3    H1 6942   5.013   3.267   0.463
 2333TIP3    H2 6943   4.903   3.371   0.469
 2334TIP3   OH2 6944   7.328   1.607   4.086
 2334TIP3    H1 6945   7.423   1.608   4.077
 2334TIP3    H2 6946   7.303   1.516   4.070
 2335TIP3   OH2 6947   2.231   7.230   1.973
 2335TIP3    H1 6948   2.324   7.251   1.975
 2335TIP3    H2 6949   2.227   7.140   1.940
 2336TIP3   OH2 6950   0.406   3.179   0.408
 2336TIP3    H1 6951   0.351   3.248   0.445
 2336TIP3    H2 6952   0.495   3.201   0.436
 2337TIP3   OH2 6953   8.257   0.281   4.765
 2337TIP3    H1 6954   8.269   0.325   4.681
 2337TIP3    H2 6955   8.177   0.319   4.801
 2338TIP3   OH2 6956   2.879   5.903   0.636
 2338TIP3    H1 6957   2.841   5.863   0.559
 2338TIP3    H2 6958   2.962   5.941   0.605
 2339TIP3   OH2 6959   5.945   4.566   2.635
 2339TIP3    H1 6960   5.858   4.525   2.628
 2339TIP3    H2 6961   6.006   4.496   2.612
 2340TIP3   OH2 6962   7.813   2.744   4.113
 2340TIP3    H1 6963   7.815   2.661   4.159
 2340TIP3    H2 6964   7.721   2.770   4.113
 2341TIP3   OH2 6965   7.220   7.538   5.447
 2341TIP3    H1 6966   7.159   7.597   5.404
 2341TIP3    H2 6967   7.166   7.464   5.475
 2342TIP3   OH2 6968   0.193   2.344   3.979
 2342TIP3    H1 6969   0.100   2.368   3.973
 2342TIP3    H2 6970   0.199   2.290   4.058
 2343TIP3   OH2 6971   2.173   3.412   3.680
 2343TIP3    H1 6972   2.096   3.370   3.641
 2343TIP3    H2 6973   2.223   3.445   3.605
 2344TIP3   OH2 6974   4.056   3.822   2.770
 2344TIP3    H1 6975   4.085   3.825   2.679
 2344TIP3    H2 6976   4.060   3.913   2.799
 2345TIP3   OH2 6977   8.292   7.678   3.328
 2345TIP3    H1 6978   8.317   7.586   3.336
 2345TIP3    H2 6979   8.196   7.678   3.336
 2346TIP3   OH2 6980   7.693   2.616   2.653
 2346TIP3    H1 6981   7.665   2.592   2.741
 2346TIP3    H2 6982   7.621   2.589   2.596
 2347TIP3   OH2 6983   2.383   7.241   1.230
 2347TIP3    H1 6984   2.294   7.276   1.227
 2347TIP3    H2 6985   2.425   7.287   1.302
 2348TIP3   OH2 6986   5.597   4.080   5.498
 2348TIP3    H1 6987   5.573   4.117   5.583
 2348TIP3    H2 6988   5.549   4.134   5.435
 2349TIP3   OH2 6989   3.151   2.804   5.533
 2349TIP3    H1 6990   3.176   2.784   5.442
 2349TIP3    H2 6991   3.073   2.859   5.524
 2350TIP3   OH2 6992   6.485   0.114   6.317
 2350TIP3    H1 6993   6.478   0.108   6.222
 2350TIP3    H2 6994   6.574   0.146   6.333
 2351TIP3   OH2 6995   1.956   0.526   0.271
 2351TIP3    H1 6996   1.871   0.532   0.315
 2351TIP3    H2 6997   1.958   0.600   0.212
 2352TIP3   OH2 6998   2.935   5.011   1.927
 2352TIP3    H1 6999   2.894   5.034   1.843
 2352TIP3    H2 7000   2.918   4.917   1.937
 2353TIP3   OH2 7001   6.017   1.537   1.757
 2353TIP3    H1 7002   6.012   1.463   1.696
 2353TIP3    H2 7003   5.931   1.579   1.750
 2354TIP3   OH2 7004   0.796   4.025   4.401
 2354TIP3    H1 7005   0.757   4.002   4.486
 2354TIP3    H2 7006   0.851   4.101   4.420
 2355TIP3   OH2 7007   2.901   6.765   2.002
 2355TIP3    H1 7008   2.861   6.711   2.071
 2355TIP3    H2 7009   2.826   6.803   1.955
 2356TIP3   OH2 7010   0.024   7.569   6.635
 2356TIP3    H1 7011   0.099   7.594   6.580
 2356TIP3    H2 7012   0.029   7.629   6.710
 2357TIP3   OH2 7013   4.380   7.132   0.922
 2357TIP3    H1 7014   4.288   7.103   0.921
 2357TIP3    H2 7015   4.428   7.058   0.958
 2358TIP3   OH2 7016   7.566   3.362   4.695
 2358TIP3    H1 7017   7.604   3.312   4.623
 2358TIP3    H2 7018   7.641   3.394   4.745
 2359TIP3   OH2 7019   7.866   3.148   3.506
 2359TIP3    H1 7020   7.868   3.154   3.601
 2359TIP3    H2 7021   7.837   3.235   3.477
 2360TIP3   OH2 7022   0.824   2.312   0.875
 2360TIP3    H1 7023   0.864   2.298   0.961
 2360TIP3    H2 7024   0.782   2.229   0.855
 2361TIP3   OH2 7025   2.629   6.267   1.585
 2361TIP3    H1 7026   2.635   6.172   1.577
 2361TIP3    H2 7027   2.535   6.285   1.588
 2362TIP3   OH2 7028   7.488   4.352   3.536
 2362TIP3    H1 7029   7.476   4.435   3.490
 2362TIP3    H2 7030   7.560   4.370   3.598
 2363TIP3   OH2 7031   4.619   4.223   2.690
 2363TIP3    H1 7032   4.636   4.208   2.783
 2363TIP3    H2 7033   4.561   4.151   2.665
 2364TIP3   OH2 7034   7.861   7.184   2.345
 2364TIP3    H1 7035   7.781   7.135   2.359
 2364TIP3    H2 7036   7.853   7.216   2.255
 2365TIP3   OH2 7037   4.481   2.912   3.627
 2365TIP3    H1 7038   4.424   2.919   3.704
 2365TIP3    H2 7039   4.432   2.955   3.557
 2366TIP3   OH2 7040   8.270   1.419   0.693
 2366TIP3    H1 7041   8.265   1.337   0.643
 2366TIP3    H2 7042   8.250   1.393   0.783
 2367TIP3   OH2 7043   7.432   0.083   5.423
 2367TIP3    H1 7044   7.339   0.099   5.410
 2367TIP3    H2 7045   7.475   0.164   5.393
 2368TIP3   OH2 7046   0.069   2.365   0.357
 2368TIP3    H1 7047   0.009   2.291   0.367
 2368TIP3    H2 7048   0.081   2.374   0.262
 2369TIP3   OH2 7049   4.413   4.015   3.033
 2369TIP3    H1 7050   4.435   3.980   3.120
 2369TIP3    H2 7051   4.319   3.999   3.025
 2370TIP3   OH2 7052   5.264   4.055   4.478
 2370TIP3    H1 7053   5.269   4.025   4.569
 2370TIP3    H2 7054   5.171   4.051   4.457
 2371TIP3   OH2 7055   4.742   4.974   4.672
 2371TIP3    H1 7056   4.652   4.963   4.703
 2371TIP3    H2 7057   4.789   5.012   4.747
 2372TIP3   OH2 7058   6.793   0.658   6.027
 2372TIP3    H1 7059   6.711   0.656   5.976
 2372TIP3    H2 7060   6.827   0.746   6.014
 2373TIP3   OH2 7061   4.804   1.167   2.426
 2373TIP3    H1 7062   4.718   1.198   2.453
 2373TIP3    H2 7063   4.850   1.245   2.396
 2374TIP3   OH2 7064   0.801   1.241   5.227
 2374TIP3    H1 7065   0.793   1.196   5.143
 2374TIP3    H2 7066   0.857   1.317   5.208
 2375TIP3   OH2 7067   4.450   3.442  -0.016
 2375TIP3    H1 7068   4.454   3.416   0.076
 2375TIP3    H2 7069   4.539   3.468  -0.037
 2376TIP3   OH2 7070   0.570   3.517   3.712
 2376TIP3    H1 7071   0.652   3.567   3.713
 2376TIP3    H2 7072   0.597   3.427   3.694
 2377TIP3   OH2 7073   4.205   7.348   4.947
 2377TIP3    H1 7074   4.266   7.364   5.019
 2377TIP3    H2 7075   4.214   7.424   4.890
 2378TIP3   OH2 7076   3.827   1.086   2.521
 2378TIP3    H1 7077   3.783   1.001   2.515
 2378TIP3    H2 7078   3.903   1.078   2.462
 2379TIP3   OH2 7079   3.440   2.608   2.366
 2379TIP3    H1 7080   3.372   2.575   2.307
 2379TIP3    H2 7081   3.512   2.631   2.307
 2380TIP3   OH2 7082   0.309   0.855   4.668
 2380TIP3    H1 7083   0.224   0.815   4.650
 2380TIP3    H2 7084   0.288   0.945   4.694
 2381TIP3   OH2 7085   4.092   2.975   5.618
 2381TIP3    H1 7086   4.056   2.921   5.688
 2381TIP3    H2 7087   4.119   2.913   5.550
 2382TIP3   OH2 7088   4.790   5.689   1.488
 2382TIP3    H1 7089   4.862   5.750   1.504
 2382TIP3    H2 7090   4.832   5.605   1.472
 2383TIP3   OH2 7091   1.674   5.864   4.521
 2383TIP3    H1 7092   1.628   5.831   4.598
 2383TIP3    H2 7093   1.755   5.814   4.518
 2384TIP3   OH2 7094   4.239   7.258   5.235
 2384TIP3    H1 7095   4.285   7.322   5.289
 2384TIP3    H2 7096   4.228   7.182   5.291
 2385TIP3   OH2 7097   0.416   7.376   4.826
 2385TIP3    H1 7098   0.454   7.445   4.773
 2385TIP3    H2 7099   0.384   7.420   4.905
 2386TIP3   OH2 7100   3.594   1.000   4.633
 2386TIP3    H1 7101   3.522   1.063   4.625
 2386TIP3    H2 7102   3.673   1.052   4.622
 2387TIP3   OH2 7103   0.878   4.669   6.490
 2387TIP3    H1 7104   0.894   4.584   6.531
 2387TIP3    H2 7105   0.963   4.693   6.452
 2388TIP3   OH2 7106   0.516   3.181   4.694
 2388TIP3    H1 7107   0.551   3.243   4.630
 2388TIP3    H2 7108   0.437   3.223   4.727
 2389TIP3   OH2 7109   0.650   5.520   4.694
 2389TIP3    H1 7110   0.598   5.444   4.720
 2389TIP3    H2 7111   0.737   5.503   4.731
 2390TIP3   OH2 7112   5.592   2.158   3.389
 2390TIP3    H1 7113   5.516   2.101   3.399
 2390TIP3    H2 7114   5.631   2.131   3.306
 2391TIP3   OH2 7115   2.713   4.197   2.984
 2391TIP3    H1 7116   2.738   4.110   2.952
 2391TIP3    H2 7117   2.702   4.185   3.078
 2392TIP3   OH2 7118   0.711   7.139   3.937
 2392TIP3    H1 7119   0.657   7.216   3.951
 2392TIP3    H2 7120   0.750   7.121   4.023
 2393TIP3   OH2 7121   2.509   6.627   1.001
 2393TIP3    H1 7122   2.456   6.650   1.077
 2393TIP3    H2 7123   2.446   6.604   0.933
 2394TIP3   OH2 7124   6.942   0.396   3.363
 2394TIP3    H1 7125   6.867   0.355   3.321
 2394TIP3    H2 7126   7.018   0.364   3.314
 2395TIP3   OH2 7127   8.324   0.127   5.951
 2395TIP3    H1 7128   8.264   0.200   5.943
 2395TIP3    H2 7129   8.267   0.049   5.953
 2396TIP3   OH2 7130   4.376   3.526   3.008
 2396TIP3    H1 7131   4.455   3.518   3.062
 2396TIP3    H2 7132   4.383   3.613   2.968
 2397TIP3   OH2 7133   3.099   6.871   4.639
 2397TIP3    H1 7134   3.008   6.845   4.643
 2397TIP3    H2 7135   3.131   6.835   4.556
 2398TIP3   OH2 7136   1.565   3.160   5.983
 2398TIP3    H1 7137   1.625   3.225   6.018
 2398TIP3    H2 7138   1.506   3.140   6.056
 2399TIP3   OH2 7139   8.193   4.221   3.278
 2399TIP3    H1 7140   8.286   4.244   3.288
 2399TIP3    H2 7141   8.146   4.303   3.294
 2400TIP3   OH2 7142   2.880   3.056   6.369
 2400TIP3    H1 7143   2.859   3.092   6.283
 2400TIP3    H2 7144   2.975   3.044   6.367
 2401TIP3   OH2 7145   0.695   7.100   1.938
 2401TIP3    H1 7146   0.660   7.168   1.996
 2401TIP3    H2 7147   0.637   7.103   1.862
 2402TIP3   OH2 7148   0.671   1.086   2.670
 2402TIP3    H1 7149   0.651   1.067   2.762
 2402TIP3    H2 7150   0.736   1.156   2.674
 2403TIP3   OH2 7151   3.065   2.944   4.749
 2403TIP3    H1 7152   3.145   2.903   4.783
 2403TIP3    H2 7153   3.096   3.011   4.689
 2404TIP3   OH2 7154   3.712   2.823   6.545
 2404TIP3    H1 7155   3.701   2.918   6.557
 2404TIP3    H2 7156   3.797   2.804   6.584
 2405TIP3   OH2 7157   5.501   3.862   5.834
 2405TIP3    H1 7158   5.488   3.818   5.749
 2405TIP3    H2 7159   5.537   3.947   5.811
 2406TIP3   OH2 7160   5.815   2.105   1.039
 2406TIP3    H1 7161   5.778   2.157   0.968
 2406TIP3    H2 7162   5.741   2.085   1.097
 2407TIP3   OH2 7163   0.138   2.661   6.599
 2407TIP3    H1 7164   0.167   2.620   6.518
 2407TIP3    H2 7165   0.213   2.653   6.658
 2408TIP3   OH2 7166   7.652   2.058   3.700
 2408TIP3    H1 7167   7.666   1.971   3.661
 2408TIP3    H2 7168   7.601   2.106   3.634
 2409TIP3   OH2 7169   6.977   0.615   4.626
 2409TIP3    H1 7170   6.886   0.643   4.616
 2409TIP3    H2 7171   7.010   0.670   4.697
 2410TIP3   OH2 7172   7.877   2.221   0.952
 2410TIP3    H1 7173   7.801   2.179   0.993
 2410TIP3    H2 7174   7.907   2.284   1.017
 2411TIP3   OH2 7175   5.641   1.343   2.819
 2411TIP3    H1 7176   5.641   1.396   2.740
 2411TIP3    H2 7177   5.548   1.334   2.843
 2412TIP3   OH2 7178   0.402   4.609   6.085
 2412TIP3    H1 7179   0.314   4.585   6.059
 2412TIP3    H2 7180   0.458   4.544   6.044
 2413TIP3   OH2 7181   7.005   3.678   1.675
 2413TIP3    H1 7182   6.978   3.594   1.713
 2413TIP3    H2 7183   7.100   3.671   1.668
 2414TIP3   OH2 7184   6.491   2.388   3.709
 2414TIP3    H1 7185   6.468   2.295   3.716
 2414TIP3    H2 7186   6.559   2.401   3.775
 2415TIP3   OH2 7187   0.118   5.114   4.354
 2415TIP3    H1 7188   0.146   5.125   4.264
 2415TIP3    H2 7189   0.194   5.139   4.407
 2416TIP3   OH2 7190   7.429   2.426   6.131
 2416TIP3    H1 7191   7.336   2.413   6.147
 2416TIP3    H2 7192   7.433   2.474   6.048
 2417TIP3   OH2 7193   5.393   6.552   6.373
 2417TIP3    H1 7194   5.342   6.601   6.437
 2417TIP3    H2 7195   5.335   6.480   6.346
 2418TIP3   OH2 7196   5.828   6.349   0.867
 2418TIP3    H1 7197   5.837   6.358   0.962
 2418TIP3    H2 7198   5.845   6.257   0.849
 2419TIP3   OH2 7199   7.114   7.489   2.497
 2419TIP3    H1 7200   7.122   7.396   2.476
 2419TIP3    H2 7201   7.164   7.533   2.428
 2420TIP3   OH2 7202   3.992   7.650   2.382
 2420TIP3    H1 7203   4.023   7.614   2.300
 2420TIP3    H2 7204   3.945   7.730   2.357
 2421TIP3   OH2 7205   4.822   5.966   0.897
 2421TIP3    H1 7206   4.732   5.970   0.929
 2421TIP3    H2 7207   4.829   6.041   0.837
 2422TIP3   OH2 7208   1.534   3.542   6.072
 2422TIP3    H1 7209   1.575   3.526   5.987
 2422TIP3    H2 7210   1.460   3.481   6.075
 2423TIP3   OH2 7211   1.384   1.831   2.013
 2423TIP3    H1 7212   1.407   1.742   2.041
 2423TIP3    H2 7213   1.426   1.841   1.928
 2424TIP3   OH2 7214   4.859   3.482   3.152
 2424TIP3    H1 7215   4.918   3.421   3.196
 2424TIP3    H2 7216   4.831   3.542   3.221
 2425TIP3   OH2 7217   1.569   6.985   3.946
 2425TIP3    H1 7218   1.562   6.890   3.937
 2425TIP3    H2 7219   1.535   7.020   3.864
 2426TIP3   OH2 7220   1.826   5.691   1.112
 2426TIP3    H1 7221   1.829   5.778   1.072
 2426TIP3    H2 7222   1.897   5.643   1.069
 2427TIP3   OH2 7223   8.027   1.782   1.598
 2427TIP3    H1 7224   7.997   1.740   1.679
 2427TIP3    H2 7225   7.954   1.839   1.573
 2428TIP3   OH2 7226   1.477   0.451   3.669
 2428TIP3    H1 7227   1.385   0.431   3.653
 2428TIP3    H2 7228   1.511   0.373   3.713
 2429TIP3   OH2 7229   0.528   4.236  -0.022
 2429TIP3    H1 7230   0.572   4.151  -0.027
 2429TIP3    H2 7231   0.515   4.252   0.071
 2430TIP3   OH2 7232   0.015   5.667   0.941
 2430TIP3    H1 7233   0.075   5.597   0.966
 2430TIP3    H2 7234  -0.056   5.623   0.895
 2431TIP3   OH2 7235   3.902   6.400   5.806
 2431TIP3    H1 7236   3.951   6.388   5.724
 2431TIP3    H2 7237   3.817   6.361   5.789
 2432TIP3   OH2 7238   2.194   1.369   5.118
 2432TIP3    H1 7239   2.147   1.410   5.191
 2432TIP3    H2 7240   2.265   1.430   5.099
 2433TIP3   OH2 7241   6.662   7.171   5.708
 2433TIP3    H1 7242   6.656   7.242   5.772
 2433TIP3    H2 7243   6.618   7.205   5.630
 2434TIP3   OH2 7244   7.337   3.725   0.869
 2434TIP3    H1 7245   7.320   3.711   0.776
 2434TIP3    H2 7246   7.374   3.642   0.900
 2435TIP3   OH2 7247   7.232   3.165   6.710
 2435TIP3    H1 7248   7.287   3.213   6.771
 2435TIP3    H2 7249   7.291   3.105   6.666
 2436TIP3   OH2 7250   8.092   6.999   0.134
 2436TIP3    H1 7251   8.145   6.919   0.128
 2436TIP3    H2 7252   8.003   6.969   0.114
 2437TIP3   OH2 7253   1.530   2.402   5.431
 2437TIP3    H1 7254   1.482   2.395   5.349
 2437TIP3    H2 7255   1.574   2.317   5.440
 2438TIP3   OH2 7256   4.910   1.727   1.410
 2438TIP3    H1 7257   4.982   1.754   1.466
 2438TIP3    H2 7258   4.897   1.801   1.351
 2439TIP3   OH2 7259   0.331   7.053   2.830
 2439TIP3    H1 7260   0.392   7.008   2.771
 2439TIP3    H2 7261   0.251   7.001   2.826
 2440TIP3   OH2 7262   1.959   5.778   0.348
 2440TIP3    H1 7263   1.871   5.744   0.364
 2440TIP3    H2 7264   1.993   5.723   0.277
 2441TIP3   OH2 7265   4.170   1.649   2.849
 2441TIP3    H1 7266   4.117   1.583   2.806
 2441TIP3    H2 7267   4.133   1.656   2.937
 2442TIP3   OH2 7268   2.083   5.660   3.961
 2442TIP3    H1 7269   2.145   5.695   3.898
 2442TIP3    H2 7270   2.126   5.583   3.998
 2443TIP3   OH2 7271   7.780   0.080   3.530
 2443TIP3    H1 7272   7.852   0.062   3.590
 2443TIP3    H2 7273   7.821   0.127   3.457
 2444TIP3   OH2 7274   7.671   1.991   4.107
 2444TIP3    H1 7275   7.753   2.036   4.127
 2444TIP3    H2 7276   7.697   1.900   4.091
 2445TIP3   OH2 7277   4.010   7.448   3.354
 2445TIP3    H1 7278   3.951   7.375   3.365
 2445TIP3    H2 7279   4.042   7.439   3.264
 2446TIP3   OH2 7280   3.743   4.479   1.027
 2446TIP3    H1 7281   3.756   4.485   0.932
 2446TIP3    H2 7282   3.728   4.386   1.043
 2447TIP3   OH2 7283   0.647   7.605   1.311
 2447TIP3    H1 7284   0.742   7.612   1.299
 2447TIP3    H2 7285   0.637   7.563   1.397
 2448TIP3   OH2 7286   6.476   6.827   2.910
 2448TIP3    H1 7287   6.505   6.776   2.985
 2448TIP3    H2 7288   6.549   6.885   2.890
 2449TIP3   OH2 7289   0.785   5.638   1.255
 2449TIP3    H1 7290   0.818   5.595   1.176
 2449TIP3    H2 7291   0.828   5.592   1.327
 2450TIP3   OH2 7292   7.256   5.970   1.369
 2450TIP3    H1 7293   7.308   6.045   1.401
 2450TIP3    H2 7294   7.234   5.992   1.279
 2451TIP3   OH2 7295   5.727   5.121   0.224
 2451TIP3    H1 7296   5.674   5.187   0.178
 2451TIP3    H2 7297   5.790   5.172   0.274
 2452TIP3   OH2 7298   4.105   4.823   1.825
 2452TIP3    H1 7299   4.044   4.827   1.898
 2452TIP3    H2 7300   4.192   4.824   1.865
 2453TIP3   OH2 7301   1.878   6.899   1.941
 2453TIP3    H1 7302   1.817   6.908   2.015
 2453TIP3    H2 7303   1.902   6.806   1.943
 2454TIP3   OH2 7304   2.324   0.319   1.193
 2454TIP3    H1 7305   2.305   0.394   1.250
 2454TIP3    H2 7306   2.418   0.303   1.205
 2455TIP3   OH2 7307   6.836   1.084   1.711
 2455TIP3    H1 7308   6.924   1.053   1.730
 2455TIP3    H2 7309   6.815   1.047   1.626
 2456TIP3   OH2 7310   5.608   1.453   0.246
 2456TIP3    H1 7311   5.535   1.412   0.200
 2456TIP3    H2 7312   5.630   1.530   0.193
 2457TIP3   OH2 7313   5.939   7.514   4.722
 2457TIP3    H1 7314   5.870   7.494   4.659
 2457TIP3    H2 7315   5.897   7.568   4.789
 2458TIP3   OH2 7316   4.729   6.719   2.169
 2458TIP3    H1 7317   4.808   6.747   2.215
 2458TIP3    H2 7318   4.692   6.799   2.132
 2459TIP3   OH2 7319   5.625   6.902   4.220
 2459TIP3    H1 7320   5.604   6.939   4.134
 2459TIP3    H2 7321   5.657   6.977   4.270
 2460TIP3   OH2 7322   5.446   0.467   1.603
 2460TIP3    H1 7323   5.375   0.421   1.647
 2460TIP3    H2 7324   5.407   0.500   1.522
 2461TIP3   OH2 7325   4.589   0.277   3.347
 2461TIP3    H1 7326   4.570   0.184   3.332
 2461TIP3    H2 7327   4.617   0.309   3.261
 2462TIP3   OH2 7328   2.047   6.996   0.198
 2462TIP3    H1 7329   2.070   6.903   0.201
 2462TIP3    H2 7330   2.092   7.029   0.120
 2463TIP3   OH2 7331   0.007   5.143   3.016
 2463TIP3    H1 7332  -0.002   5.233   2.984
 2463TIP3    H2 7333  -0.013   5.089   2.939
 2464TIP3   OH2 7334   5.412   6.068   1.555
 2464TIP3    H1 7335   5.331   6.097   1.514
 2464TIP3    H2 7336   5.478   6.077   1.486
 2465TIP3   OH2 7337   0.210   2.855   0.012
 2465TIP3    H1 7338   0.131   2.849   0.067
 2465TIP3    H2 7339   0.212   2.947  -0.016
 2466TIP3   OH2 7340   2.405   2.725   6.117
 2466TIP3    H1 7341   2.498   2.746   6.117
 2466TIP3    H2 7342   2.364   2.802   6.157
 2467TIP3   OH2 7343   3.394   5.944   0.496
 2467TIP3    H1 7344   3.389   5.944   0.400
 2467TIP3    H2 7345   3.474   5.994   0.515
 2468TIP3   OH2 7346   7.408   1.581   5.702
 2468TIP3    H1 7347   7.373   1.669   5.689
 2468TIP3    H2 7348   7.332   1.530   5.731
 2469TIP3   OH2 7349   4.362   2.066   4.041
 2469TIP3    H1 7350   4.293   2.059   4.107
 2469TIP3    H2 7351   4.440   2.031   4.084
 2470TIP3   OH2 7352   6.427   4.281   1.438
 2470TIP3    H1 7353   6.450   4.303   1.348
 2470TIP3    H2 7354   6.463   4.193   1.451
 2471TIP3   OH2 7355   5.486   3.883   1.614
 2471TIP3    H1 7356   5.411   3.833   1.583
 2471TIP3    H2 7357   5.507   3.845   1.699
 2472TIP3   OH2 7358   7.810   4.819   2.235
 2472TIP3    H1 7359   7.806   4.752   2.304
 2472TIP3    H2 7360   7.887   4.796   2.184
 2473TIP3   OH2 7361   5.108   4.990   1.621
 2473TIP3    H1 7362   5.160   4.958   1.547
 2473TIP3    H2 7363   5.030   4.934   1.621
 2474TIP3   OH2 7364   8.100   7.217   2.000
 2474TIP3    H1 7365   8.053   7.135   2.011
 2474TIP3    H2 7366   8.035   7.278   1.964
 2475TIP3   OH2 7367   7.935   3.448   2.340
 2475TIP3    H1 7368   8.028   3.429   2.341
 2475TIP3    H2 7369   7.921   3.506   2.415
 2476TIP3   OH2 7370   0.032   5.232   1.168
 2476TIP3    H1 7371   0.061   5.293   1.100
 2476TIP3    H2 7372  -0.060   5.253   1.182
 2477TIP3   OH2 7373   5.227   5.661   6.539
 2477TIP3    H1 7374   5.171   5.583   6.536
 2477TIP3    H2 7375   5.175   5.726   6.586
 2478TIP3   OH2 7376   6.849   2.729   3.075
 2478TIP3    H1 7377   6.778   2.698   3.132
 2478TIP3    H2 7378   6.929   2.698   3.119
 2479TIP3   OH2 7379   3.598   0.137   6.530
 2479TIP3    H1 7380   3.679   0.110   6.573
 2479TIP3    H2 7381   3.612   0.114   6.438
 2480TIP3   OH2 7382   3.916   3.309   1.491
 2480TIP3    H1 7383   3.838   3.333   1.541
 2480TIP3    H2 7384   3.883   3.282   1.406
 2481TIP3   OH2 7385   4.333   7.455   5.794
 2481TIP3    H1 7386   4.297   7.485   5.710
 2481TIP3    H2 7387   4.259   7.458   5.854
 2482TIP3   OH2 7388   6.894   2.887   5.713
 2482TIP3    H1 7389   6.873   2.833   5.789
 2482TIP3    H2 7390   6.871   2.834   5.637
 2483TIP3   OH2 7391   5.260   2.482   0.773
 2483TIP3    H1 7392   5.302   2.397   0.786
 2483TIP3    H2 7393   5.174   2.461   0.738
 2484TIP3   OH2 7394   4.415   1.883   5.431
 2484TIP3    H1 7395   4.452   1.890   5.519
 2484TIP3    H2 7396   4.325   1.914   5.441
 2485TIP3   OH2 7397   7.036   5.108   3.156
 2485TIP3    H1 7398   7.036   5.097   3.251
 2485TIP3    H2 7399   7.007   5.024   3.122
 2486TIP3   OH2 7400   0.989   2.528   4.721
 2486TIP3    H1 7401   0.976   2.434   4.716
 2486TIP3    H2 7402   0.905   2.565   4.691
 2487TIP3   OH2 7403   7.222   5.477   0.802
 2487TIP3    H1 7404   7.308   5.486   0.843
 2487TIP3    H2 7405   7.239   5.484   0.708
 2488TIP3   OH2 7406   0.070   1.773   1.755
 2488TIP3    H1 7407   0.043   1.804   1.669
 2488TIP3    H2 7408   0.145   1.716   1.738
 2489TIP3   OH2 7409   3.506   0.346   4.338
 2489TIP3    H1 7410   3.588   0.342   4.387
 2489TIP3    H2 7411   3.513   0.275   4.275
 2490TIP3   OH2 7412   5.040   5.883   6.599
 2490TIP3    H1 7413   4.950   5.915   6.594
 2490TIP3    H2 7414   5.093   5.962   6.588
 2491TIP3   OH2 7415   5.961   0.359   4.965
 2491TIP3    H1 7416   5.956   0.294   4.895
 2491TIP3    H2 7417   5.909   0.433   4.933
 2492TIP3   OH2 7418   5.981   5.306   2.296
 2492TIP3    H1 7419   5.903   5.339   2.341
 2492TIP3    H2 7420   6.043   5.289   2.366
 2493TIP3   OH2 7421   4.439   6.353   3.427
 2493TIP3    H1 7422   4.522   6.339   3.472
 2493TIP3    H2 7423   4.427   6.273   3.375
 2494TIP3   OH2 7424   3.873   5.248   5.661
 2494TIP3    H1 7425   3.878   5.166   5.611
 2494TIP3    H2 7426   3.964   5.266   5.687
 2495TIP3   OH2 7427   3.523   5.221   4.626
 2495TIP3    H1 7428   3.442   5.174   4.606
 2495TIP3    H2 7429   3.522   5.231   4.721
 2496TIP3   OH2 7430   0.197   6.390   6.519
 2496TIP3    H1 7431   0.122   6.362   6.571
 2496TIP3    H2 7432   0.160   6.446   6.451
 2497TIP3   OH2 7433   7.621   1.566   5.548
 2497TIP3    H1 7434   7.548   1.546   5.607
 2497TIP3    H2 7435   7.583   1.626   5.484
 2498TIP3   OH2 7436   4.993   1.334   6.773
 2498TIP3    H1 7437   5.005   1.396   6.845
 2498TIP3    H2 7438   5.045   1.371   6.701
 2499TIP3   OH2 7439   7.285   0.286   0.691
 2499TIP3    H1 7440   7.349   0.350   0.722
 2499TIP3    H2 7441   7.211   0.338   0.661
 2500TIP3   OH2 7442   2.437   6.266   0.019
 2500TIP3    H1 7443   2.440   6.172   0.038
 2500TIP3    H2 7444   2.525   6.286  -0.013
 2501TIP3   OH2 7445   5.936   0.203   2.161
 2501TIP3    H1 7446   5.907   0.114   2.139
 2501TIP3    H2 7447   5.943   0.247   2.076
 2502TIP3   OH2 7448   3.523   2.920   0.690
 2502TIP3    H1 7449   3.585   2.966   0.746
 2502TIP3    H2 7450   3.570   2.843   0.659
 2503TIP3   OH2 7451   5.223   2.611   4.969
 2503TIP3    H1 7452   5.219   2.546   4.899
 2503TIP3    H2 7453   5.139   2.656   4.963
 2504TIP3   OH2 7454   7.211   5.746   1.100
 2504TIP3    H1 7455   7.176   5.694   1.173
 2504TIP3    H2 7456   7.179   5.835   1.117
 2505TIP3   OH2 7457   3.074   0.504   5.094
 2505TIP3    H1 7458   2.992   0.550   5.113
 2505TIP3    H2 7459   3.062   0.470   5.005
 2506TIP3   OH2 7460   5.550   0.358   4.608
 2506TIP3    H1 7461   5.620   0.406   4.651
 2506TIP3    H2 7462   5.541   0.277   4.658
 2507TIP3   OH2 7463   8.068   1.902   4.681
 2507TIP3    H1 7464   8.089   1.948   4.600
 2507TIP3    H2 7465   8.121   1.822   4.677
 2508TIP3   OH2 7466   6.402   0.715   5.793
 2508TIP3    H1 7467   6.492   0.731   5.824
 2508TIP3    H2 7468   6.359   0.672   5.867
 2509TIP3   OH2 7469   7.457   2.012   4.304
 2509TIP3    H1 7470   7.385   2.045   4.251
 2509TIP3    H2 7471   7.523   1.984   4.241
 2510TIP3   OH2 7472   6.571   6.706   0.175
 2510TIP3    H1 7473   6.584   6.794   0.140
 2510TIP3    H2 7474   6.551   6.720   0.267
 2511TIP3   OH2 7475   6.525   1.027   4.617
 2511TIP3    H1 7476   6.437   1.035   4.580
 2511TIP3    H2 7477   6.580   1.001   4.543
 2512TIP3   OH2 7478   4.576   5.180   4.177
 2512TIP3    H1 7479   4.660   5.189   4.131
 2512TIP3    H2 7480   4.601   5.160   4.267
 2513TIP3   OH2 7481   1.057   3.789   5.316
 2513TIP3    H1 7482   0.984   3.727   5.319
 2513TIP3    H2 7483   1.056   3.831   5.402
 2514TIP3   OH2 7484   5.492   4.481   3.589
 2514TIP3    H1 7485   5.532   4.397   3.612
 2514TIP3    H2 7486   5.559   4.546   3.611
 2515TIP3   OH2 7487   7.460   2.973   3.271
 2515TIP3    H1 7488   7.375   2.958   3.312
 2515TIP3    H2 7489   7.490   3.056   3.309
 2516TIP3   OH2 7490   0.153   4.050   0.789
 2516TIP3    H1 7491   0.214   4.099   0.733
 2516TIP3    H2 7492   0.067   4.069   0.751
 2517TIP3   OH2 7493   6.261   2.243   2.504
 2517TIP3    H1 7494   6.314   2.164   2.518
 2517TIP3    H2 7495   6.227   2.234   2.415
 2518TIP3   OH2 7496   7.253   4.561   0.027
 2518TIP3    H1 7497   7.202   4.637   0.055
 2518TIP3    H2 7498   7.285   4.584  -0.061
 2519TIP3   OH2 7499   5.616   5.492   5.952
 2519TIP3    H1 7500   5.551   5.557   5.980
 2519TIP3    H2 7501   5.646   5.524   5.867
 2520TIP3   OH2 7502   7.175   1.242   1.099
 2520TIP3    H1 7503   7.130   1.255   1.015
 2520TIP3    H2 7504   7.223   1.323   1.113
 2521TIP3   OH2 7505   2.804   4.703   4.980
 2521TIP3    H1 7506   2.792   4.610   4.998
 2521TIP3    H2 7507   2.721   4.744   5.007
 2522TIP3   OH2 7508   3.145   5.291   3.981
 2522TIP3    H1 7509   3.195   5.373   3.977
 2522TIP3    H2 7510   3.204   5.229   4.024
 2523TIP3   OH2 7511   1.952   3.258   5.112
 2523TIP3    H1 7512   1.894   3.212   5.051
 2523TIP3    H2 7513   1.979   3.336   5.064
 2524TIP3   OH2 7514   1.577   2.154   5.715
 2524TIP3    H1 7515   1.487   2.121   5.716
 2524TIP3    H2 7516   1.611   2.127   5.629
 2525TIP3   OH2 7517   8.240   2.238   3.587
 2525TIP3    H1 7518   8.301   2.235   3.513
 2525TIP3    H2 7519   8.296   2.247   3.664
 2526TIP3   OH2 7520   2.313   1.732   6.629
 2526TIP3    H1 7521   2.260   1.772   6.698
 2526TIP3    H2 7522   2.293   1.782   6.550
 2527TIP3   OH2 7523   6.130   6.671   6.366
 2527TIP3    H1 7524   6.218   6.660   6.400
 2527TIP3    H2 7525   6.084   6.720   6.434
 2528TIP3   OH2 7526   7.071   4.585   6.033
 2528TIP3    H1 7527   7.043   4.675   6.048
 2528TIP3    H2 7528   7.107   4.585   5.944
 2529TIP3   OH2 7529   0.121   5.481   6.383
 2529TIP3    H1 7530   0.138   5.461   6.475
 2529TIP3    H2 7531   0.027   5.465   6.373
 2530TIP3   OH2 7532   1.208   6.712   5.993
 2530TIP3    H1 7533   1.133   6.729   5.936
 2530TIP3    H2 7534   1.175   6.729   6.081
 2531TIP3   OH2 7535   2.078   1.157   1.527
 2531TIP3    H1 7536   2.054   1.116   1.443
 2531TIP3    H2 7537   2.055   1.249   1.516
 2532TIP3   OH2 7538   2.428   0.850   1.631
 2532TIP3    H1 7539   2.483   0.886   1.701
 2532TIP3    H2 7540   2.350   0.819   1.677
 2533TIP3   OH2 7541   2.712   5.915   2.479
 2533TIP3    H1 7542   2.634   5.959   2.512
 2533TIP3    H2 7543   2.685   5.823   2.470
 2534TIP3   OH2 7544   6.476   3.310   2.146
 2534TIP3    H1 7545   6.422   3.285   2.071
 2534TIP3    H2 7546   6.473   3.406   2.146
 2535TIP3   OH2 7547   5.739   2.363   1.386
 2535TIP3    H1 7548   5.830   2.338   1.403
 2535TIP3    H2 7549   5.726   2.441   1.440
 2536TIP3   OH2 7550   3.859   1.139   2.784
 2536TIP3    H1 7551   3.929   1.074   2.791
 2536TIP3    H2 7552   3.844   1.148   2.690
 2537TIP3   OH2 7553   0.064   7.673   0.872
 2537TIP3    H1 7554   0.013   7.691   0.951
 2537TIP3    H2 7555   0.140   7.623   0.903
 2538TIP3   OH2 7556   3.051   3.020   5.311
 2538TIP3    H1 7557   2.997   2.989   5.384
 2538TIP3    H2 7558   3.062   3.114   5.327
 2539TIP3   OH2 7559   3.079   5.742   2.849
 2539TIP3    H1 7560   3.111   5.658   2.882
 2539TIP3    H2 7561   3.124   5.808   2.902
 2540TIP3   OH2 7562   1.297   2.451   6.377
 2540TIP3    H1 7563   1.374   2.473   6.429
 2540TIP3    H2 7564   1.223   2.486   6.427
 2541TIP3   OH2 7565   1.260   0.864   6.076
 2541TIP3    H1 7566   1.214   0.782   6.098
 2541TIP3    H2 7567   1.277   0.857   5.982
 2542TIP3   OH2 7568   5.422   3.708   0.109
 2542TIP3    H1 7569   5.407   3.628   0.059
 2542TIP3    H2 7570   5.369   3.697   0.188
 2543TIP3   OH2 7571   5.966   5.574   3.796
 2543TIP3    H1 7572   6.002   5.496   3.754
 2543TIP3    H2 7573   5.901   5.607   3.734
 2544TIP3   OH2 7574   3.875   1.919   1.141
 2544TIP3    H1 7575   3.958   1.883   1.171
 2544TIP3    H2 7576   3.899   1.977   1.068
 2545TIP3   OH2 7577   4.701   7.118   6.168
 2545TIP3    H1 7578   4.731   7.200   6.209
 2545TIP3    H2 7579   4.682   7.143   6.078
 2546TIP3   OH2 7580   7.426   7.175   4.717
 2546TIP3    H1 7581   7.430   7.225   4.635
 2546TIP3    H2 7582   7.354   7.215   4.766
 2547TIP3   OH2 7583   7.646   2.082   2.772
 2547TIP3    H1 7584   7.615   2.127   2.693
 2547TIP3    H2 7585   7.677   2.152   2.830
 2548TIP3   OH2 7586   6.260   4.822   3.638
 2548TIP3    H1 7587   6.296   4.893   3.585
 2548TIP3    H2 7588   6.282   4.847   3.728
 2549TIP3   OH2 7589   6.390   4.198   5.556
 2549TIP3    H1 7590   6.475   4.153   5.556
 2549TIP3    H2 7591   6.405   4.277   5.503
 2550TIP3   OH2 7592   2.326   2.651   0.942
 2550TIP3    H1 7593   2.231   2.659   0.937
 2550TIP3    H2 7594   2.346   2.571   0.894
 2551TIP3   OH2 7595   1.318   4.567   2.352
 2551TIP3    H1 7596   1.406   4.531   2.355
 2551TIP3    H2 7597   1.261   4.492   2.371
 2552TIP3   OH2 7598   7.727   5.739   2.701
 2552TIP3    H1 7599   7.682   5.823   2.703
 2552TIP3    H2 7600   7.799   5.751   2.639
 2553TIP3   OH2 7601   2.708   1.274   5.704
 2553TIP3    H1 7602   2.649   1.250   5.633
 2553TIP3    H2 7603   2.742   1.191   5.737
 2554TIP3   OH2 7604   4.754   6.341   2.099
 2554TIP3    H1 7605   4.700   6.385   2.034
 2554TIP3    H2 7606   4.771   6.407   2.166
 2555TIP3   OH2 7607   6.723   6.684   1.334
 2555TIP3    H1 7608   6.650   6.746   1.325
 2555TIP3    H2 7609   6.755   6.697   1.423
 2556TIP3   OH2 7610   0.758   6.071   5.059
 2556TIP3    H1 7611   0.669   6.047   5.036
 2556TIP3    H2 7612   0.786   6.003   5.120
 2557TIP3   OH2 7613   1.135   0.476   3.807
 2557TIP3    H1 7614   1.041   0.477   3.788
 2557TIP3    H2 7615   1.169   0.556   3.768
 2558TIP3   OH2 7616   5.762   3.243   3.820
 2558TIP3    H1 7617   5.778   3.167   3.875
 2558TIP3    H2 7618   5.668   3.260   3.830
 2559TIP3   OH2 7619   7.151   7.212   4.871
 2559TIP3    H1 7620   7.113   7.137   4.916
 2559TIP3    H2 7621   7.112   7.209   4.783
 2560TIP3   OH2 7622   2.673   6.671   3.507
 2560TIP3    H1 7623   2.719   6.596   3.545
 2560TIP3    H2 7624   2.697   6.745   3.562
 2561TIP3   OH2 7625   2.224   6.879   6.334
 2561TIP3    H1 7626   2.139   6.923   6.328
 2561TIP3    H2 7627   2.259   6.906   6.419
 2562TIP3   OH2 7628   6.759   4.413   3.027
 2562TIP3    H1 7629   6.823   4.417   3.098
 2562TIP3    H2 7630   6.798   4.353   2.963
 2563TIP3   OH2 7631   1.270   3.189   5.159
 2563TIP3    H1 7632   1.340   3.156   5.215
 2563TIP3    H2 7633   1.275   3.136   5.079
 2564TIP3   OH2 7634   6.760   1.700   1.327
 2564TIP3    H1 7635   6.671   1.666   1.337
 2564TIP3    H2 7636   6.814   1.640   1.378
 2565TIP3   OH2 7637   4.438   2.687   3.794
 2565TIP3    H1 7638   4.397   2.712   3.877
 2565TIP3    H2 7639   4.500   2.758   3.776
 2566TIP3   OH2 7640   7.088   0.827   6.751
 2566TIP3    H1 7641   7.173   0.866   6.735
 2566TIP3    H2 7642   7.086   0.810   6.845
 2567TIP3   OH2 7643   4.387   2.302   4.329
 2567TIP3    H1 7644   4.430   2.300   4.243
 2567TIP3    H2 7645   4.369   2.394   4.345
 2568TIP3   OH2 7646   0.525   0.906   1.587
 2568TIP3    H1 7647   0.476   0.835   1.546
 2568TIP3    H2 7648   0.601   0.863   1.628
 2569TIP3   OH2 7649   0.057   1.989   5.891
 2569TIP3    H1 7650  -0.032   1.958   5.910
 2569TIP3    H2 7651   0.043   2.071   5.843
 2570TIP3   OH2 7652   5.222   4.731   5.298
 2570TIP3    H1 7653   5.220   4.804   5.236
 2570TIP3    H2 7654   5.315   4.710   5.309
 2571TIP3   OH2 7655   2.515   7.527   0.303
 2571TIP3    H1 7656   2.555   7.476   0.232
 2571TIP3    H2 7657   2.438   7.567   0.263
 2572TIP3   OH2 7658   4.277   4.454   1.844
 2572TIP3    H1 7659   4.254   4.486   1.931
 2572TIP3    H2 7660   4.362   4.493   1.826
 2573TIP3   OH2 7661   5.805   7.128   0.326
 2573TIP3    H1 7662   5.759   7.143   0.243
 2573TIP3    H2 7663   5.797   7.210   0.374
 2574TIP3   OH2 7664   0.597   7.220   2.725
 2574TIP3    H1 7665   0.566   7.306   2.699
 2574TIP3    H2 7666   0.631   7.232   2.814
 2575TIP3   OH2 7667   0.464   7.639   2.094
 2575TIP3    H1 7668   0.387   7.678   2.136
 2575TIP3    H2 7669   0.480   7.559   2.144
 2576TIP3   OH2 7670   2.321   5.359   3.422
 2576TIP3    H1 7671   2.290   5.435   3.372
 2576TIP3    H2 7672   2.404   5.389   3.460
 2577TIP3   OH2 7673   6.416   1.560   5.492
 2577TIP3    H1 7674   6.361   1.520   5.425
 2577TIP3    H2 7675   6.506   1.545   5.462
 2578TIP3   OH2 7676   1.638   7.807   2.167
 2578TIP3    H1 7677   1.545   7.806   2.146
 2578TIP3    H2 7678   1.655   7.719   2.201
 2579TIP3   OH2 7679   6.655   4.100   1.542
 2579TIP3    H1 7680   6.735   4.111   1.593
 2579TIP3    H2 7681   6.612   4.024   1.581
 2580TIP3   OH2 7682   1.636   0.547   0.972
 2580TIP3    H1 7683   1.671   0.514   0.889
 2580TIP3    H2 7684   1.541   0.546   0.960
 2581TIP3   OH2 7685   2.786   7.666   2.604
 2581TIP3    H1 7686   2.767   7.685   2.696
 2581TIP3    H2 7687   2.810   7.751   2.566
 2582TIP3   OH2 7688   4.621   3.105   4.440
 2582TIP3    H1 7689   4.671   3.158   4.502
 2582TIP3    H2 7690   4.529   3.118   4.466
 2583TIP3   OH2 7691   5.857   0.817   5.231
 2583TIP3    H1 7692   5.901   0.739   5.198
 2583TIP3    H2 7693   5.767   0.791   5.245
 2584TIP3   OH2 7694   2.246   4.884   5.994
 2584TIP3    H1 7695   2.152   4.895   5.984
 2584TIP3    H2 7696   2.284   4.950   5.935
 2585TIP3   OH2 7697   3.086   5.486   5.271
 2585TIP3    H1 7698   3.113   5.503   5.181
 2585TIP3    H2 7699   3.114   5.396   5.288
 2586TIP3   OH2 7700   0.717   5.260   3.352
 2586TIP3    H1 7701   0.773   5.304   3.416
 2586TIP3    H2 7702   0.686   5.182   3.397
 2587TIP3   OH2 7703   3.973   6.551   1.263
 2587TIP3    H1 7704   3.879   6.556   1.283
 2587TIP3    H2 7705   4.015   6.540   1.348
 2588TIP3   OH2 7706   0.515   4.638   3.066
 2588TIP3    H1 7707   0.499   4.689   2.987
 2588TIP3    H2 7708   0.429   4.605   3.092
 2589TIP3   OH2 7709   3.013   2.928   1.964
 2589TIP3    H1 7710   3.019   2.969   1.878
 2589TIP3    H2 7711   2.990   2.837   1.946
 2590TIP3   OH2 7712   8.151   0.667   5.779
 2590TIP3    H1 7713   8.116   0.645   5.866
 2590TIP3    H2 7714   8.185   0.755   5.789
 2591TIP3   OH2 7715   5.930   4.052   4.832
 2591TIP3    H1 7716   5.876   4.001   4.892
 2591TIP3    H2 7717   6.001   4.086   4.886
 2592TIP3   OH2 7718   6.138   1.265   3.649
 2592TIP3    H1 7719   6.124   1.178   3.611
 2592TIP3    H2 7720   6.228   1.264   3.681
 2593TIP3   OH2 7721   0.724   0.377   2.782
 2593TIP3    H1 7722   0.792   0.310   2.791
 2593TIP3    H2 7723   0.653   0.348   2.840
 2594TIP3   OH2 7724   2.886   4.837   0.437
 2594TIP3    H1 7725   2.860   4.782   0.511
 2594TIP3    H2 7726   2.972   4.803   0.410
 2595TIP3   OH2 7727   5.152   0.016   1.768
 2595TIP3    H1 7728   5.124  -0.022   1.685
 2595TIP3    H2 7729   5.122   0.107   1.763
 2596TIP3   OH2 7730   3.284   7.679   6.212
 2596TIP3    H1 7731   3.349   7.727   6.161
 2596TIP3    H2 7732   3.263   7.602   6.160
 2597TIP3   OH2 7733   3.117   3.427   3.683
 2597TIP3    H1 7734   3.035   3.449   3.727
 2597TIP3    H2 7735   3.092   3.366   3.614
 2598TIP3   OH2 7736   4.564   1.748   6.072
 2598TIP3    H1 7737   4.620   1.790   6.137
 2598TIP3    H2 7738   4.622   1.734   5.997
 2599TIP3   OH2 7739   0.389   1.094   5.903
 2599TIP3    H1 7740   0.382   1.169   5.962
 2599TIP3    H2 7741   0.309   1.097   5.851
 2600TIP3   OH2 7742   3.068   7.107   0.119
 2600TIP3    H1 7743   2.997   7.100   0.056
 2600TIP3    H2 7744   3.144   7.136   0.068
 2601TIP3   OH2 7745   0.091   7.739   4.380
 2601TIP3    H1 7746   0.176   7.721   4.420
 2601TIP3    H2 7747   0.034   7.667   4.409
 2602TIP3   OH2 7748   3.601   4.002   1.186
 2602TIP3    H1 7749   3.609   4.026   1.278
 2602TIP3    H2 7750   3.527   3.941   1.183
 2603TIP3   OH2 7751   6.339   6.756   2.529
 2603TIP3    H1 7752   6.268   6.792   2.476
 2603TIP3    H2 7753   6.416   6.804   2.501
 2604TIP3   OH2 7754   6.804   3.517   4.481
 2604TIP3    H1 7755   6.808   3.515   4.577
 2604TIP3    H2 7756   6.790   3.425   4.456
 2605TIP3   OH2 7757   0.325   6.620   1.119
 2605TIP3    H1 7758   0.277   6.558   1.174
 2605TIP3    H2 7759   0.318   6.704   1.165
 2606TIP3   OH2 7760   4.376   2.452   0.564
 2606TIP3    H1 7761   4.335   2.530   0.601
 2606TIP3    H2 7762   4.305   2.388   0.556
 2607TIP3   OH2 7763   1.033   1.489   1.628
 2607TIP3    H1 7764   1.099   1.490   1.558
 2607TIP3    H2 7765   0.970   1.556   1.602
 2608TIP3   OH2 7766   5.451   3.827   3.074
 2608TIP3    H1 7767   5.517   3.854   3.010
 2608TIP3    H2 7768   5.378   3.794   3.020
 2609TIP3   OH2 7769   1.800   6.172   2.363
 2609TIP3    H1 7770   1.878   6.116   2.366
 2609TIP3    H2 7771   1.727   6.110   2.358
 2610TIP3   OH2 7772   8.128   5.475   6.390
 2610TIP3    H1 7773   8.051   5.462   6.334
 2610TIP3    H2 7774   8.094   5.512   6.471
 2611TIP3   OH2 7775   4.015   4.875   5.261
 2611TIP3    H1 7776   3.986   4.784   5.262
 2611TIP3    H2 7777   4.007   4.902   5.169
 2612TIP3   OH2 7778   4.745   7.732   6.298
 2612TIP3    H1 7779   4.691   7.753   6.223
 2612TIP3    H2 7780   4.772   7.817   6.333
 2613TIP3   OH2 7781   2.487   3.141   3.727
 2613TIP3    H1 7782   2.504   3.139   3.821
 2613TIP3    H2 7783   2.484   3.234   3.705
 2614TIP3   OH2 7784   8.077   5.237   2.760
 2614TIP3    H1 7785   8.061   5.299   2.831
 2614TIP3    H2 7786   8.150   5.275   2.711
 2615TIP3   OH2 7787   2.782   0.183   1.890
 2615TIP3    H1 7788   2.728   0.224   1.823
 2615TIP3    H2 7789   2.860   0.153   1.842
 2616TIP3   OH2 7790   7.843   4.093   4.210
 2616TIP3    H1 7791   7.775   4.158   4.226
 2616TIP3    H2 7792   7.905   4.136   4.152
 2617TIP3   OH2 7793   4.056   7.446   6.777
 2617TIP3    H1 7794   4.015   7.465   6.692
 2617TIP3    H2 7795   4.025   7.514   6.835
 2618TIP3   OH2 7796   5.185   3.988   1.485
 2618TIP3    H1 7797   5.171   4.026   1.398
 2618TIP3    H2 7798   5.245   3.915   1.470
 2619TIP3   OH2 7799   0.813   0.614   1.591
 2619TIP3    H1 7800   0.897   0.649   1.619
 2619TIP3    H2 7801   0.751   0.645   1.657
 2620TIP3   OH2 7802   1.897   7.634   5.194
 2620TIP3    H1 7803   1.942   7.639   5.109
 2620TIP3    H2 7804   1.962   7.600   5.254
 2621TIP3   OH2 7805   4.338   7.191   2.252
 2621TIP3    H1 7806   4.422   7.178   2.209
 2621TIP3    H2 7807   4.357   7.249   2.325
 2622TIP3   OH2 7808   0.232   2.612   1.391
 2622TIP3    H1 7809   0.326   2.608   1.378
 2622TIP3    H2 7810   0.197   2.535   1.346
 2623TIP3   OH2 7811   5.900   2.248   3.313
 2623TIP3    H1 7812   5.946   2.328   3.288
 2623TIP3    H2 7813   5.812   2.276   3.336
 2624TIP3   OH2 7814   2.205   5.393   5.812
 2624TIP3    H1 7815   2.161   5.339   5.877
 2624TIP3    H2 7816   2.292   5.356   5.804
 2625TIP3   OH2 7817   3.474   1.180   6.198
 2625TIP3    H1 7818   3.558   1.225   6.205
 2625TIP3    H2 7819   3.408   1.250   6.200
 2626TIP3   OH2 7820   3.058   1.672   2.287
 2626TIP3    H1 7821   3.030   1.591   2.329
 2626TIP3    H2 7822   3.106   1.720   2.354
 2627TIP3   OH2 7823   7.315   0.298   6.744
 2627TIP3    H1 7824   7.320   0.394   6.737
 2627TIP3    H2 7825   7.406   0.269   6.748
 2628TIP3   OH2 7826   6.443   2.734   2.903
 2628TIP3    H1 7827   6.477   2.644   2.897
 2628TIP3    H2 7828   6.522   2.789   2.901
 2629TIP3   OH2 7829   0.725   3.255   2.808
 2629TIP3    H1 7830   0.750   3.343   2.837
 2629TIP3    H2 7831   0.780   3.238   2.732
 2630TIP3   OH2 7832   3.662   6.020   0.527
 2630TIP3    H1 7833   3.731   6.057   0.471
 2630TIP3    H2 7834   3.705   5.950   0.575
 2631TIP3   OH2 7835   4.421   4.682   2.436
 2631TIP3    H1 7836   4.396   4.613   2.497
 2631TIP3    H2 7837   4.457   4.751   2.491
 2632TIP3   OH2 7838   0.958   7.057   6.674
 2632TIP3    H1 7839   1.034   7.058   6.733
 2632TIP3    H2 7840   0.922   6.970   6.684
 2633TIP3   OH2 7841   1.555   6.032   1.685
 2633TIP3    H1 7842   1.466   5.998   1.693
 2633TIP3    H2 7843   1.596   6.013   1.769
 2634TIP3   OH2 7844   5.404   1.704   5.522
 2634TIP3    H1 7845   5.459   1.748   5.587
 2634TIP3    H2 7846   5.349   1.773   5.486
 2635TIP3   OH2 7847   2.312   4.739   0.035
 2635TIP3    H1 7848   2.225   4.758   0.001
 2635TIP3    H2 7849   2.296   4.708   0.125
 2636TIP3   OH2 7850   1.585   1.908   4.926
 2636TIP3    H1 7851   1.543   1.861   4.998
 2636TIP3    H2 7852   1.559   2.000   4.938
 2637TIP3   OH2 7853   3.949   6.827   4.275
 2637TIP3    H1 7854   3.904   6.895   4.324
 2637TIP3    H2 7855   3.894   6.749   4.285
 2638TIP3   OH2 7856   8.171   3.868   3.183
 2638TIP3    H1 7857   8.083   3.871   3.146
 2638TIP3    H2 7858   8.185   3.956   3.219
 2639TIP3   OH2 7859   3.383   0.281   6.096
 2639TIP3    H1 7860   3.343   0.260   6.180
 2639TIP3    H2 7861   3.311   0.315   6.043
 2640TIP3   OH2 7862   5.626   2.093   1.260
 2640TIP3    H1 7863   5.626   2.182   1.293
 2640TIP3    H2 7864   5.693   2.048   1.311
 2641TIP3   OH2 7865   2.884   2.903   3.293
 2641TIP3    H1 7866   2.885   2.935   3.203
 2641TIP3    H2 7867   2.962   2.942   3.334
 2642TIP3   OH2 7868   1.817   7.362   2.465
 2642TIP3    H1 7869   1.890   7.424   2.475
 2642TIP3    H2 7870   1.742   7.417   2.444
 2643TIP3   OH2 7871   6.143   2.356   0.123
 2643TIP3    H1 7872   6.059   2.312   0.107
 2643TIP3    H2 7873   6.189   2.351   0.040
 2644TIP3   OH2 7874   0.202   2.929   1.025
 2644TIP3    H1 7875   0.295   2.926   1.048
 2644TIP3    H2 7876   0.161   2.864   1.083
 2645TIP3   OH2 7877   7.242   6.968   0.602
 2645TIP3    H1 7878   7.206   7.056   0.590
 2645TIP3    H2 7879   7.329   6.973   0.562
 2646TIP3   OH2 7880   1.765   4.978   2.707
 2646TIP3    H1 7881   1.771   4.904   2.646
 2646TIP3    H2 7882   1.685   5.023   2.681
 2647TIP3   OH2 7883   0.732   0.345   0.235
 2647TIP3    H1 7884   0.780   0.265   0.256
 2647TIP3    H2 7885   0.655   0.343   0.292
 2648TIP3   OH2 7886   1.100   7.165   2.536
 2648TIP3    H1 7887   1.025   7.184   2.593
 2648TIP3    H2 7888   1.091   7.071   2.517
 2649TIP3   OH2 7889   5.574   0.782   3.485
 2649TIP3    H1 7890   5.667   0.762   3.495
 2649TIP3    H2 7891   5.546   0.729   3.410
 2650TIP3   OH2 7892   7.198   2.606   4.406
 2650TIP3    H1 7893   7.189   2.540   4.338
 2650TIP3    H2 7894   7.109   2.618   4.440
 2651TIP3   OH2 7895   0.298   1.884   5.137
 2651TIP3    H1 7896   0.377   1.833   5.117
 2651TIP3    H2 7897   0.248   1.884   5.056
 2652TIP3   OH2 7898   4.175   2.724   6.333
 2652TIP3    H1 7899   4.200   2.788   6.400
 2652TIP3    H2 7900   4.255   2.674   6.318
 2653TIP3   OH2 7901   0.017   3.783   4.988
 2653TIP3    H1 7902   0.073   3.859   5.004
 2653TIP3    H2 7903  -0.069   3.809   5.023
 2654TIP3   OH2 7904   4.532   1.752   2.427
 2654TIP3    H1 7905   4.466   1.698   2.470
 2654TIP3    H2 7906   4.561   1.813   2.495
 2655TIP3   OH2 7907   3.140   3.780   1.276
 2655TIP3    H1 7908   3.054   3.805   1.310
 2655TIP3    H2 7909   3.138   3.684   1.275
 2656TIP3   OH2 7910   2.221   0.240   3.721
 2656TIP3    H1 7911   2.299   0.248   3.667
 2656TIP3    H2 7912   2.246   0.278   3.805
 2657TIP3   OH2 7913   0.502   7.094   6.032
 2657TIP3    H1 7914   0.471   7.035   5.964
 2657TIP3    H2 7915   0.466   7.180   6.008
 2658TIP3   OH2 7916   2.375   0.805   2.222
 2658TIP3    H1 7917   2.360   0.867   2.150
 2658TIP3    H2 7918   2.287   0.774   2.245
 2659TIP3   OH2 7919   4.070   4.983   5.862
 2659TIP3    H1 7920   4.107   5.009   5.777
 2659TIP3    H2 7921   4.119   5.036   5.926
 2660TIP3   OH2 7922   3.166   5.546   6.139
 2660TIP3    H1 7923   3.118   5.483   6.085
 2660TIP3    H2 7924   3.258   5.523   6.125
 2661TIP3   OH2 7925   6.530   6.958   2.506
 2661TIP3    H1 7926   6.594   7.020   2.470
 2661TIP3    H2 7927   6.492   7.003   2.581
 2662TIP3   OH2 7928   3.437   6.284   5.437
 2662TIP3    H1 7929   3.362   6.315   5.385
 2662TIP3    H2 7930   3.399   6.222   5.499
 2663TIP3   OH2 7931   2.599   7.675   5.136
 2663TIP3    H1 7932   2.567   7.587   5.154
 2663TIP3    H2 7933   2.693   7.664   5.122
 2664TIP3   OH2 7934   7.032   2.002   3.133
 2664TIP3    H1 7935   6.938   1.985   3.130
 2664TIP3    H2 7936   7.054   1.998   3.226
 2665TIP3   OH2 7937   8.072   0.477   4.354
 2665TIP3    H1 7938   8.028   0.562   4.343
 2665TIP3    H2 7939   8.118   0.464   4.271
 2666TIP3   OH2 7940   1.568   5.900   0.085
 2666TIP3    H1 7941   1.575   5.908  -0.010
 2666TIP3    H2 7942   1.516   5.821   0.099
 2667TIP3   OH2 7943   6.286   4.631   1.518
 2667TIP3    H1 7944   6.330   4.687   1.583
 2667TIP3    H2 7945   6.236   4.692   1.464
 2668TIP3   OH2 7946   4.286   0.070   2.655
 2668TIP3    H1 7947   4.308   0.151   2.609
 2668TIP3    H2 7948   4.257   0.098   2.742
 2669TIP3   OH2 7949   6.247   3.516   2.036
 2669TIP3    H1 7950   6.229   3.447   1.972
 2669TIP3    H2 7951   6.243   3.597   1.986
 2670TIP3   OH2 7952   0.826   6.830   6.712
 2670TIP3    H1 7953   0.859   6.753   6.758
 2670TIP3    H2 7954   0.733   6.833   6.734
 2671TIP3   OH2 7955   1.564   6.956   6.266
 2671TIP3    H1 7956   1.562   6.869   6.306
 2671TIP3    H2 7957   1.603   6.942   6.180
 2672TIP3   OH2 7958   6.570   6.315   2.832
 2672TIP3    H1 7959   6.547   6.238   2.884
 2672TIP3    H2 7960   6.505   6.381   2.855
 2673TIP3   OH2 7961   4.057   1.412   2.724
 2673TIP3    H1 7962   3.966   1.439   2.712
 2673TIP3    H2 7963   4.094   1.410   2.636
 2674TIP3   OH2 7964   5.175   1.534   3.728
 2674TIP3    H1 7965   5.201   1.495   3.811
 2674TIP3    H2 7966   5.228   1.614   3.722
 2675TIP3   OH2 7967   2.843   6.782   4.573
 2675TIP3    H1 7968   2.751   6.771   4.598
 2675TIP3    H2 7969   2.870   6.695   4.544
 2676TIP3   OH2 7970   0.687   1.344   0.001
 2676TIP3    H1 7971   0.683   1.440   0.005
 2676TIP3    H2 7972   0.596   1.317  -0.009
 2677TIP3   OH2 7973   6.123   2.973   1.708
 2677TIP3    H1 7974   6.030   2.956   1.725
 2677TIP3    H2 7975   6.140   3.055   1.753
 2678TIP3   OH2 7976   1.772   6.820   0.572
 2678TIP3    H1 7977   1.786   6.863   0.656
 2678TIP3    H2 7978   1.750   6.891   0.512
 2679TIP3   OH2 7979   7.998   5.244   4.059
 2679TIP3    H1 7980   8.035   5.263   4.145
 2679TIP3    H2 7981   7.905   5.264   4.068
 2680TIP3   OH2 7982   3.691   0.396   0.769
 2680TIP3    H1 7983   3.737   0.474   0.739
 2680TIP3    H2 7984   3.608   0.397   0.723
 2681TIP3   OH2 7985   1.909   6.522   5.619
 2681TIP3    H1 7986   1.893   6.541   5.526
 2681TIP3    H2 7987   1.835   6.468   5.646
 2682TIP3   OH2 7988   3.085   0.425   5.576
 2682TIP3    H1 7989   3.173   0.448   5.605
 2682TIP3    H2 7990   3.065   0.489   5.507
 2683TIP3   OH2 7991   6.740   1.314   1.209
 2683TIP3    H1 7992   6.676   1.262   1.257
 2683TIP3    H2 7993   6.794   1.249   1.164
 2684TIP3   OH2 7994   2.216   1.064   4.455
 2684TIP3    H1 7995   2.149   1.052   4.387
 2684TIP3    H2 7996   2.170   1.111   4.525
 2685TIP3   OH2 7997   7.601   4.567   2.667
 2685TIP3    H1 7998   7.676   4.615   2.632
 2685TIP3    H2 7999   7.526   4.603   2.619
 2686TIP3   OH2 8000   1.372   5.449   4.076
 2686TIP3    H1 8001   1.432   5.430   4.148
 2686TIP3    H2 8002   1.411   5.524   4.031
 2687TIP3   OH2 8003   7.576   2.962   2.689
 2687TIP3    H1 8004   7.516   3.034   2.671
 2687TIP3    H2 8005   7.520   2.889   2.713
 2688TIP3   OH2 8006   7.058   5.403   2.732
 2688TIP3    H1 8007   7.003   5.332   2.764
 2688TIP3    H2 8008   7.126   5.359   2.681
 2689TIP3   OH2 8009   2.678   7.717   6.406
 2689TIP3    H1 8010   2.622   7.665   6.348
 2689TIP3    H2 8011   2.628   7.797   6.422
 2690TIP3   OH2 8012   5.864   3.810   2.590
 2690TIP3    H1 8013   5.770   3.796   2.582
 2690TIP3    H2 8014   5.886   3.777   2.677
 2691TIP3   OH2 8015   4.125   1.406   5.886
 2691TIP3    H1 8016   4.100   1.477   5.945
 2691TIP3    H2 8017   4.218   1.423   5.868
 2692TIP3   OH2 8018   1.691   4.265   1.064
 2692TIP3    H1 8019   1.736   4.275   0.980
 2692TIP3    H2 8020   1.734   4.327   1.123
 2693TIP3   OH2 8021   0.450   6.925   2.250
 2693TIP3    H1 8022   0.542   6.920   2.225
 2693TIP3    H2 8023   0.449   6.984   2.326
 2694TIP3   OH2 8024   2.261   1.218   3.367
 2694TIP3    H1 8025   2.266   1.220   3.271
 2694TIP3    H2 8026   2.169   1.199   3.386
 2695TIP3   OH2 8027   4.170   2.614   1.805
 2695TIP3    H1 8028   4.087   2.634   1.762
 2695TIP3    H2 8029   4.163   2.655   1.891
 2696TIP3   OH2 8030   2.986   6.224   3.500
 2696TIP3    H1 8031   3.077   6.244   3.521
 2696TIP3    H2 8032   2.988   6.190   3.411
 2697TIP3   OH2 8033   4.195   3.984   0.753
 2697TIP3    H1 8034   4.141   4.059   0.778
 2697TIP3    H2 8035   4.242   4.013   0.675
 2698TIP3   OH2 8036   7.535   5.680   1.978
 2698TIP3    H1 8037   7.581   5.689   1.895
 2698TIP3    H2 8038   7.599   5.706   2.045
 2699TIP3   OH2 8039   4.558   0.110   1.965
 2699TIP3    H1 8040   4.515   0.082   2.046
 2699TIP3    H2 8041   4.614   0.183   1.993
 2700TIP3   OH2 8042   0.835   4.212   0.770
 2700TIP3    H1 8043   0.819   4.255   0.854
 2700TIP3    H2 8044   0.825   4.281   0.705
 2701TIP3   OH2 8045   3.314   7.263   1.780
 2701TIP3    H1 8046   3.375   7.274   1.852
 2701TIP3    H2 8047   3.367   7.226   1.709
 2702TIP3   OH2 8048   0.333   7.561   3.271
 2702TIP3    H1 8049   0.400   7.540   3.206
 2702TIP3    H2 8050   0.255   7.513   3.242
 2703TIP3   OH2 8051   8.188   3.824   0.988
 2703TIP3    H1 8052   8.275   3.836   1.025
 2703TIP3    H2 8053   8.136   3.787   1.059
 2704TIP3   OH2 8054   0.428   3.221   5.464
 2704TIP3    H1 8055   0.520   3.196   5.458
 2704TIP3    H2 8056   0.385   3.147   5.508
 2705TIP3   OH2 8057   1.777   3.368   1.678
 2705TIP3    H1 8058   1.814   3.282   1.700
 2705TIP3    H2 8059   1.700   3.347   1.624
 2706TIP3   OH2 8060   4.094   6.102   5.897
 2706TIP3    H1 8061   4.146   6.123   5.974
 2706TIP3    H2 8062   4.155   6.114   5.824
 2707TIP3   OH2 8063   5.587   4.499   4.592
 2707TIP3    H1 8064   5.508   4.540   4.628
 2707TIP3    H2 8065   5.616   4.439   4.661
 2708TIP3   OH2 8066   4.139   5.260   6.640
 2708TIP3    H1 8067   4.102   5.207   6.710
 2708TIP3    H2 8068   4.069   5.320   6.615
 2709TIP3   OH2 8069   3.095   4.432   2.916
 2709TIP3    H1 8070   3.146   4.358   2.948
 2709TIP3    H2 8071   3.119   4.505   2.973
 2710TIP3   OH2 8072   1.399   2.939   3.309
 2710TIP3    H1 8073   1.423   2.921   3.219
 2710TIP3    H2 8074   1.480   2.931   3.358
 2711TIP3   OH2 8075   6.472   4.951   2.441
 2711TIP3    H1 8076   6.394   4.896   2.452
 2711TIP3    H2 8077   6.447   5.014   2.374
 2712TIP3   OH2 8078   2.065   0.798   4.676
 2712TIP3    H1 8079   2.090   0.812   4.584
 2712TIP3    H2 8080   2.003   0.869   4.695
 2713TIP3   OH2 8081   3.805   4.057   1.822
 2713TIP3    H1 8082   3.782   4.044   1.914
 2713TIP3    H2 8083   3.881   4.114   1.823
 2714TIP3   OH2 8084   2.272   6.540   3.934
 2714TIP3    H1 8085   2.281   6.449   3.962
 2714TIP3    H2 8086   2.255   6.588   4.016
 2715TIP3   OH2 8087   4.027   5.461   1.060
 2715TIP3    H1 8088   3.992   5.485   1.146
 2715TIP3    H2 8089   4.122   5.468   1.070
 2716TIP3   OH2 8090   7.800   2.430   5.272
 2716TIP3    H1 8091   7.759   2.359   5.222
 2716TIP3    H2 8092   7.852   2.478   5.207
 2717TIP3   OH2 8093   1.330   7.783   1.591
 2717TIP3    H1 8094   1.413   7.755   1.631
 2717TIP3    H2 8095   1.352   7.867   1.548
 2718TIP3   OH2 8096   5.686   7.755   0.300
 2718TIP3    H1 8097   5.710   7.841   0.267
 2718TIP3    H2 8098   5.643   7.712   0.226
 2719TIP3   OH2 8099   8.139   6.746   3.107
 2719TIP3    H1 8100   8.092   6.818   3.149
 2719TIP3    H2 8101   8.132   6.765   3.013
 2720TIP3   OH2 8102   2.019   5.023   0.903
 2720TIP3    H1 8103   1.944   5.039   0.961
 2720TIP3    H2 8104   2.080   5.094   0.922
 2721TIP3   OH2 8105   2.081   2.939   4.180
 2721TIP3    H1 8106   2.036   3.023   4.188
 2721TIP3    H2 8107   2.011   2.874   4.179
 2722TIP3   OH2 8108   2.372   7.665   0.510
 2722TIP3    H1 8109   2.438   7.645   0.444
 2722TIP3    H2 8110   2.360   7.760   0.505
 2723TIP3   OH2 8111   0.103   2.972   2.144
 2723TIP3    H1 8112   0.150   2.892   2.122
 2723TIP3    H2 8113   0.115   2.982   2.239
 2724TIP3   OH2 8114   4.986   2.706   5.950
 2724TIP3    H1 8115   4.907   2.663   5.984
 2724TIP3    H2 8116   4.992   2.788   5.999
 2725TIP3   OH2 8117   7.739   6.569   0.852
 2725TIP3    H1 8118   7.756   6.541   0.942
 2725TIP3    H2 8119   7.708   6.490   0.808
 2726TIP3   OH2 8120   7.944   1.966   2.474
 2726TIP3    H1 8121   7.941   1.871   2.480
 2726TIP3    H2 8122   8.022   1.991   2.524
 2727TIP3   OH2 8123   7.477   0.697   5.503
 2727TIP3    H1 8124   7.520   0.711   5.419
 2727TIP3    H2 8125   7.440   0.782   5.526
 2728TIP3   OH2 8126   2.138   5.175   6.172
 2728TIP3    H1 8127   2.124   5.158   6.265
 2728TIP3    H2 8128   2.230   5.203   6.166
 2729TIP3   OH2 8129   4.410   2.812   1.630
 2729TIP3    H1 8130   4.432   2.730   1.674
 2729TIP3    H2 8131   4.330   2.841   1.672
 2730TIP3   OH2 8132   8.038   2.648   4.812
 2730TIP3    H1 8133   8.052   2.596   4.733
 2730TIP3    H2 8134   8.123   2.687   4.830
 2731TIP3   OH2 8135   5.260   6.539   2.049
 2731TIP3    H1 8136   5.221   6.601   2.110
 2731TIP3    H2 8137   5.187   6.483   2.021
 2732TIP3   OH2 8138   0.718   2.911   0.477
 2732TIP3    H1 8139   0.664   2.840   0.512
 2732TIP3    H2 8140   0.744   2.881   0.391
 2733TIP3   OH2 8141   5.657   3.716   4.648
 2733TIP3    H1 8142   5.676   3.743   4.558
 2733TIP3    H2 8143   5.724   3.760   4.700
 2734TIP3   OH2 8144   6.979   3.654   0.165
 2734TIP3    H1 8145   7.006   3.725   0.106
 2734TIP3    H2 8146   6.926   3.698   0.232
 2735TIP3   OH2 8147   6.144   2.168   3.728
 2735TIP3    H1 8148   6.050   2.166   3.712
 2735TIP3    H2 8149   6.183   2.152   3.642
 2736TIP3   OH2 8150   7.733   3.365   0.527
 2736TIP3    H1 8151   7.822   3.390   0.551
 2736TIP3    H2 8152   7.706   3.432   0.463
 2737TIP3   OH2 8153   3.933   5.964   0.966
 2737TIP3    H1 8154   3.851   6.006   0.992
 2737TIP3    H2 8155   3.984   6.034   0.925
 2738TIP3   OH2 8156   6.575   1.942   5.379
 2738TIP3    H1 8157   6.558   2.026   5.336
 2738TIP3    H2 8158   6.560   1.877   5.310
 2739TIP3   OH2 8159   4.704   7.287   1.588
 2739TIP3    H1 8160   4.654   7.315   1.511
 2739TIP3    H2 8161   4.794   7.312   1.569
 2740TIP3   OH2 8162   4.948   1.941   4.148
 2740TIP3    H1 8163   5.034   1.921   4.111
 2740TIP3    H2 8164   4.895   1.968   4.073
 2741TIP3   OH2 8165   5.983   1.747   5.984
 2741TIP3    H1 8166   6.029   1.823   5.950
 2741TIP3    H2 8167   6.008   1.675   5.925
 2742TIP3   OH2 8168   5.296   2.101   5.662
 2742TIP3    H1 8169   5.266   2.164   5.595
 2742TIP3    H2 8170   5.389   2.090   5.644
 2743TIP3   OH2 8171   0.906   2.542   3.730
 2743TIP3    H1 8172   0.927   2.516   3.640
 2743TIP3    H2 8173   0.841   2.478   3.759
 2744TIP3   OH2 8174   5.403   2.887   2.504
 2744TIP3    H1 8175   5.468   2.909   2.437
 2744TIP3    H2 8176   5.326   2.938   2.481
 2745TIP3   OH2 8177   2.437   3.417   0.781
 2745TIP3    H1 8178   2.461   3.506   0.758
 2745TIP3    H2 8179   2.410   3.422   0.873
 2746TIP3   OH2 8180   6.296   4.377   2.493
 2746TIP3    H1 8181   6.249   4.365   2.575
 2746TIP3    H2 8182   6.317   4.287   2.465
 2747TIP3   OH2 8183   7.203   4.408   0.933
 2747TIP3    H1 8184   7.155   4.407   0.850
 2747TIP3    H2 8185   7.155   4.348   0.989
 2748TIP3   OH2 8186   6.213   1.532   0.724
 2748TIP3    H1 8187   6.131   1.558   0.682
 2748TIP3    H2 8188   6.227   1.441   0.695
 2749TIP3   OH2 8189   3.026   0.732   5.758
 2749TIP3    H1 8190   3.117   0.706   5.747
 2749TIP3    H2 8191   2.975   0.660   5.720
 2750TIP3   OH2 8192   8.162   0.972   4.057
 2750TIP3    H1 8193   8.071   0.984   4.030
 2750TIP3    H2 8194   8.204   0.928   3.983
 2751TIP3   OH2 8195   4.225   4.238   2.997
 2751TIP3    H1 8196   4.251   4.329   3.012
 2751TIP3    H2 8197   4.307   4.192   2.984
 2752TIP3   OH2 8198   2.599   5.554   6.247
 2752TIP3    H1 8199   2.611   5.599   6.331
 2752TIP3    H2 8200   2.611   5.623   6.182
 2753TIP3   OH2 8201   7.838   1.067   4.849
 2753TIP3    H1 8202   7.923   1.040   4.885
 2753TIP3    H2 8203   7.785   1.086   4.926
 2754TIP3   OH2 8204   4.116   5.715   2.435
 2754TIP3    H1 8205   4.064   5.720   2.515
 2754TIP3    H2 8206   4.159   5.800   2.429
 2755TIP3   OH2 8207   6.040   6.876   4.214
 2755TIP3    H1 8208   6.034   6.966   4.247
 2755TIP3    H2 8209   6.002   6.823   4.284
 2756TIP3   OH2 8210   4.152   5.163   0.840
 2756TIP3    H1 8211   4.116   5.075   0.838
 2756TIP3    H2 8212   4.092   5.214   0.785
 2757TIP3   OH2 8213   2.559   1.429   6.689
 2757TIP3    H1 8214   2.577   1.488   6.616
 2757TIP3    H2 8215   2.532   1.487   6.760
 2758TIP3   OH2 8216   0.620   3.062   1.099
 2758TIP3    H1 8217   0.667   3.121   1.158
 2758TIP3    H2 8218   0.627   3.104   1.013
 2759TIP3   OH2 8219   6.204   1.764   5.514
 2759TIP3    H1 8220   6.285   1.715   5.500
 2759TIP3    H2 8221   6.138   1.697   5.533
 2760TIP3   OH2 8222   3.262   7.525   1.469
 2760TIP3    H1 8223   3.351   7.490   1.477
 2760TIP3    H2 8224   3.218   7.498   1.549
 2761TIP3   OH2 8225   5.273   0.733   2.758
 2761TIP3    H1 8226   5.218   0.803   2.723
 2761TIP3    H2 8227   5.276   0.668   2.688
 2762TIP3   OH2 8228   7.277   3.108   4.207
 2762TIP3    H1 8229   7.327   3.185   4.235
 2762TIP3    H2 8230   7.316   3.035   4.256
 2763TIP3   OH2 8231   5.694   0.630   6.507
 2763TIP3    H1 8232   5.601   0.613   6.492
 2763TIP3    H2 8233   5.739   0.551   6.476
 2764TIP3   OH2 8234   0.598   1.157   1.758
 2764TIP3    H1 8235   0.660   1.128   1.824
 2764TIP3    H2 8236   0.581   1.079   1.704
 2765TIP3   OH2 8237   8.162   4.511   0.999
 2765TIP3    H1 8238   8.159   4.546   0.910
 2765TIP3    H2 8239   8.217   4.433   0.991
 2766TIP3   OH2 8240   1.114   1.061   6.243
 2766TIP3    H1 8241   1.104   1.135   6.184
 2766TIP3    H2 8242   1.171   1.000   6.196
 2767TIP3   OH2 8243   4.793   0.268   1.298
 2767TIP3    H1 8244   4.874   0.223   1.276
 2767TIP3    H2 8245   4.736   0.255   1.222
 2768TIP3   OH2 8246   3.447   3.218   6.192
 2768TIP3    H1 8247   3.535   3.214   6.154
 2768TIP3    H2 8248   3.391   3.176   6.127
 2769TIP3   OH2 8249   3.354   1.623   0.789
 2769TIP3    H1 8250   3.448   1.637   0.800
 2769TIP3    H2 8251   3.338   1.537   0.827
 2770TIP3   OH2 8252   6.967   6.123   5.878
 2770TIP3    H1 8253   6.981   6.073   5.959
 2770TIP3    H2 8254   7.035   6.190   5.879
 2771TIP3   OH2 8255   5.822   5.541   3.506
 2771TIP3    H1 8256   5.836   5.612   3.444
 2771TIP3    H2 8257   5.727   5.526   3.506
 2772TIP3   OH2 8258   7.858   6.193   1.932
 2772TIP3    H1 8259   7.904   6.229   1.856
 2772TIP3    H2 8260   7.776   6.242   1.936
 2773TIP3   OH2 8261   0.454   2.945   6.279
 2773TIP3    H1 8262   0.456   3.010   6.349
 2773TIP3    H2 8263   0.376   2.893   6.296
 2774TIP3   OH2 8264   7.292   3.920   3.752
 2774TIP3    H1 8265   7.213   3.954   3.794
 2774TIP3    H2 8266   7.309   3.980   3.681
 2775TIP3   OH2 8267   1.223   1.999   2.866
 2775TIP3    H1 8268   1.273   1.970   2.791
 2775TIP3    H2 8269   1.239   2.094   2.870
 2776TIP3   OH2 8270   6.587   7.684   2.025
 2776TIP3    H1 8271   6.596   7.593   1.995
 2776TIP3    H2 8272   6.541   7.728   1.954
 2777TIP3   OH2 8273   5.690   3.477   0.486
 2777TIP3    H1 8274   5.776   3.447   0.455
 2777TIP3    H2 8275   5.710   3.538   0.556
 2778TIP3   OH2 8276   1.413   0.945   5.310
 2778TIP3    H1 8277   1.333   0.967   5.262
 2778TIP3    H2 8278   1.413   0.850   5.315
 2779TIP3   OH2 8279   7.910   0.365   2.495
 2779TIP3    H1 8280   7.910   0.314   2.576
 2779TIP3    H2 8281   8.003   0.376   2.474
 2780TIP3   OH2 8282   7.275   0.895   2.003
 2780TIP3    H1 8283   7.324   0.833   2.056
 2780TIP3    H2 8284   7.184   0.887   2.034
 2781TIP3   OH2 8285   3.886   5.029   5.051
 2781TIP3    H1 8286   3.962   5.026   4.994
 2781TIP3    H2 8287   3.875   5.121   5.074
 2782TIP3   OH2 8288   6.844   4.493   5.457
 2782TIP3    H1 8289   6.815   4.489   5.365
 2782TIP3    H2 8290   6.771   4.532   5.504
 2783TIP3   OH2 8291   8.217   3.060   4.793
 2783TIP3    H1 8292   8.175   3.141   4.766
 2783TIP3    H2 8293   8.311   3.076   4.782
 2784TIP3   OH2 8294   6.273   0.109   2.982
 2784TIP3    H1 8295   6.359   0.142   3.010
 2784TIP3    H2 8296   6.238   0.064   3.059
 2785TIP3   OH2 8297   2.893   0.331   0.453
 2785TIP3    H1 8298   2.963   0.359   0.511
 2785TIP3    H2 8299   2.933   0.262   0.399
 2786TIP3   OH2 8300   0.116   0.902   0.582
 2786TIP3    H1 8301   0.190   0.867   0.632
 2786TIP3    H2 8302   0.085   0.828   0.531
 2787TIP3   OH2 8303   4.413   4.549   4.549
 2787TIP3    H1 8304   4.375   4.637   4.555
 2787TIP3    H2 8305   4.501   4.563   4.514
 2788TIP3   OH2 8306   1.308   1.394   6.759
 2788TIP3    H1 8307   1.387   1.366   6.804
 2788TIP3    H2 8308   1.281   1.473   6.806
 2789TIP3   OH2 8309   3.825   4.049   2.912
 2789TIP3    H1 8310   3.791   3.981   2.970
 2789TIP3    H2 8311   3.748   4.100   2.887
 2790TIP3   OH2 8312   3.760   0.368   2.629
 2790TIP3    H1 8313   3.833   0.310   2.611
 2790TIP3    H2 8314   3.800   0.455   2.637
 2791TIP3   OH2 8315   6.268   7.002   4.124
 2791TIP3    H1 8316   6.263   7.097   4.123
 2791TIP3    H2 8317   6.183   6.974   4.159
 2792TIP3   OH2 8318   2.127   7.013   0.660
 2792TIP3    H1 8319   2.152   7.037   0.570
 2792TIP3    H2 8320   2.153   7.089   0.713
 2793TIP3   OH2 8321   3.329   3.674   1.853
 2793TIP3    H1 8322   3.385   3.598   1.839
 2793TIP3    H2 8323   3.296   3.664   1.942
 2794TIP3   OH2 8324   3.524   7.460   1.574
 2794TIP3    H1 8325   3.576   7.525   1.526
 2794TIP3    H2 8326   3.555   7.467   1.664
 2795TIP3   OH2 8327   3.365   4.736   6.738
 2795TIP3    H1 8328   3.299   4.806   6.746
 2795TIP3    H2 8329   3.390   4.737   6.646
 2796TIP3   OH2 8330   3.559   0.673   0.502
 2796TIP3    H1 8331   3.554   0.642   0.412
 2796TIP3    H2 8332   3.496   0.745   0.506
 2797TIP3   OH2 8333   4.865   3.359   0.057
 2797TIP3    H1 8334   4.847   3.365  -0.037
 2797TIP3    H2 8335   4.780   3.374   0.098
 2798TIP3   OH2 8336   2.580   5.463   1.577
 2798TIP3    H1 8337   2.553   5.457   1.486
 2798TIP3    H2 8338   2.506   5.429   1.627
 2799TIP3   OH2 8339   1.552   5.401   6.650
 2799TIP3    H1 8340   1.629   5.354   6.618
 2799TIP3    H2 8341   1.485   5.334   6.658
 2800TIP3   OH2 8342   6.497   3.802   2.374
 2800TIP3    H1 8343   6.415   3.810   2.324
 2800TIP3    H2 8344   6.555   3.867   2.335
 2801TIP3   OH2 8345   7.036   5.238   2.421
 2801TIP3    H1 8346   7.069   5.170   2.480
 2801TIP3    H2 8347   7.106   5.304   2.419
 2802TIP3   OH2 8348   3.989   5.533   0.635
 2802TIP3    H1 8349   4.008   5.611   0.688
 2802TIP3    H2 8350   3.912   5.558   0.583
 2803TIP3   OH2 8351   1.469   0.963   2.958
 2803TIP3    H1 8352   1.427   0.966   3.044
 2803TIP3    H2 8353   1.561   0.942   2.977
 2804TIP3   OH2 8354   2.043   4.698   3.505
 2804TIP3    H1 8355   2.015   4.772   3.452
 2804TIP3    H2 8356   1.972   4.685   3.568
 2805TIP3   OH2 8357   0.428   4.647   3.668
 2805TIP3    H1 8358   0.466   4.564   3.696
 2805TIP3    H2 8359   0.453   4.709   3.736
 2806TIP3   OH2 8360   6.845   0.570   5.443
 2806TIP3    H1 8361   6.801   0.654   5.427
 2806TIP3    H2 8362   6.905   0.560   5.370
 2807TIP3   OH2 8363   1.893   3.105   4.023
 2807TIP3    H1 8364   1.808   3.063   4.027
 2807TIP3    H2 8365   1.874   3.199   4.019
 2808TIP3   OH2 8366   5.318   1.979   5.929
 2808TIP3    H1 8367   5.288   1.993   5.839
 2808TIP3    H2 8368   5.368   2.058   5.950
 2809TIP3   OH2 8369   4.074   5.965   5.506
 2809TIP3    H1 8370   4.133   5.972   5.430
 2809TIP3    H2 8371   3.987   5.982   5.470
 2810TIP3   OH2 8372   6.442   4.978   3.218
 2810TIP3    H1 8373   6.380   4.916   3.178
 2810TIP3    H2 8374   6.518   4.976   3.160
 2811TIP3   OH2 8375   6.246   2.091   3.466
 2811TIP3    H1 8376   6.341   2.080   3.462
 2811TIP3    H2 8377   6.211   2.003   3.455
 2812TIP3   OH2 8378   4.321   7.769   1.058
 2812TIP3    H1 8379   4.340   7.722   0.977
 2812TIP3    H2 8380   4.245   7.724   1.095
 2813TIP3   OH2 8381   1.213   2.798   5.661
 2813TIP3    H1 8382   1.220   2.707   5.691
 2813TIP3    H2 8383   1.286   2.809   5.600
 2814TIP3   OH2 8384   7.748   7.301   2.132
 2814TIP3    H1 8385   7.779   7.391   2.140
 2814TIP3    H2 8386   7.663   7.302   2.175
 2815TIP3   OH2 8387   1.745   7.723   6.479
 2815TIP3    H1 8388   1.740   7.797   6.539
 2815TIP3    H2 8389   1.713   7.758   6.395
 2816TIP3   OH2 8390   3.820   0.491   4.001
 2816TIP3    H1 8391   3.763   0.512   4.075
 2816TIP3    H2 8392   3.821   0.572   3.949
 2817TIP3   OH2 8393   5.444   1.682   0.619
 2817TIP3    H1 8394   5.378   1.652   0.557
 2817TIP3    H2 8395   5.400   1.681   0.704
 2818TIP3   OH2 8396   1.617   0.834   0.832
 2818TIP3    H1 8397   1.542   0.868   0.880
 2818TIP3    H2 8398   1.580   0.805   0.748
 2819TIP3   OH2 8399   3.330   4.256   0.979
 2819TIP3    H1 8400   3.376   4.314   1.039
 2819TIP3    H2 8401   3.284   4.195   1.037
 2820TIP3   OH2 8402   7.147   0.945   5.940
 2820TIP3    H1 8403   7.145   0.858   5.980
 2820TIP3    H2 8404   7.176   0.929   5.850
 2821TIP3   OH2 8405   3.987   0.530   0.479
 2821TIP3    H1 8406   3.930   0.563   0.549
 2821TIP3    H2 8407   4.075   0.535   0.516
 2822TIP3   OH2 8408   6.170   3.990   0.889
 2822TIP3    H1 8409   6.151   3.946   0.807
 2822TIP3    H2 8410   6.252   3.950   0.919
 2823TIP3   OH2 8411   4.167   1.954   4.546
 2823TIP3    H1 8412   4.196   1.865   4.568
 2823TIP3    H2 8413   4.238   2.010   4.577
 2824TIP3   OH2 8414   7.799   4.739   2.618
 2824TIP3    H1 8415   7.804   4.833   2.606
 2824TIP3    H2 8416   7.852   4.722   2.696
 2825TIP3   OH2 8417   7.343   4.485   5.598
 2825TIP3    H1 8418   7.285   4.516   5.668
 2825TIP3    H2 8419   7.418   4.446   5.644
 2826TIP3   OH2 8420   2.650   1.313   3.280
 2826TIP3    H1 8421   2.626   1.221   3.288
 2826TIP3    H2 8422   2.681   1.322   3.190
 2827TIP3   OH2 8423   7.393   5.088   2.354
 2827TIP3    H1 8424   7.359   5.013   2.305
 2827TIP3    H2 8425   7.488   5.081   2.347
 2828TIP3   OH2 8426   6.747   7.206   1.282
 2828TIP3    H1 8427   6.805   7.166   1.348
 2828TIP3    H2 8428   6.707   7.280   1.327
 2829TIP3   OH2 8429   2.208   1.806   5.075
 2829TIP3    H1 8430   2.192   1.878   5.014
 2829TIP3    H2 8431   2.199   1.727   5.023
 2830TIP3   OH2 8432   2.442   7.169   4.368
 2830TIP3    H1 8433   2.479   7.086   4.397
 2830TIP3    H2 8434   2.493   7.235   4.416
 2831TIP3   OH2 8435   5.929   3.743   2.854
 2831TIP3    H1 8436   5.949   3.688   2.929
 2831TIP3    H2 8437   5.843   3.713   2.824
 2832TIP3   OH2 8438   5.543   3.704   1.815
 2832TIP3    H1 8439   5.564   3.649   1.739
 2832TIP3    H2 8440   5.459   3.671   1.846
 2833TIP3   OH2 8441   1.218   5.204   2.571
 2833TIP3    H1 8442   1.182   5.175   2.655
 2833TIP3    H2 8443   1.311   5.219   2.588
 2834TIP3   OH2 8444   6.288   1.754   6.773
 2834TIP3    H1 8445   6.199   1.755   6.739
 2834TIP3    H2 8446   6.339   1.709   6.705
 2835TIP3   OH2 8447   0.941   2.216   0.344
 2835TIP3    H1 8448   0.996   2.232   0.267
 2835TIP3    H2 8449   0.984   2.264   0.415
 2836TIP3   OH2 8450   0.592   6.630   1.853
 2836TIP3    H1 8451   0.535   6.701   1.882
 2836TIP3    H2 8452   0.596   6.570   1.928
 2837TIP3   OH2 8453   1.074   1.696   4.555
 2837TIP3    H1 8454   0.996   1.693   4.611
 2837TIP3    H2 8455   1.140   1.646   4.604
 2838TIP3   OH2 8456   6.587   6.333   5.387
 2838TIP3    H1 8457   6.659   6.273   5.409
 2838TIP3    H2 8458   6.524   6.322   5.459
 2839TIP3   OH2 8459   0.498   5.723   2.610
 2839TIP3    H1 8460   0.469   5.668   2.537
 2839TIP3    H2 8461   0.517   5.808   2.569
 2840TIP3   OH2 8462   7.696   4.628   1.503
 2840TIP3    H1 8463   7.748   4.556   1.467
 2840TIP3    H2 8464   7.618   4.585   1.539
 2841TIP3   OH2 8465   4.405   5.747   0.391
 2841TIP3    H1 8466   4.328   5.691   0.403
 2841TIP3    H2 8467   4.369   5.832   0.367
 2842TIP3   OH2 8468   7.422   5.758   5.640
 2842TIP3    H1 8469   7.512   5.733   5.620
 2842TIP3    H2 8470   7.383   5.678   5.676
 2843TIP3   OH2 8471   0.592   5.051   3.854
 2843TIP3    H1 8472   0.575   4.968   3.899
 2843TIP3    H2 8473   0.683   5.044   3.826
 2844TIP3   OH2 8474   6.677   0.025   4.806
 2844TIP3    H1 8475   6.663   0.032   4.901
 2844TIP3    H2 8476   6.666   0.114   4.774
 2845TIP3   OH2 8477   6.785   2.209   0.587
 2845TIP3    H1 8478   6.693   2.187   0.605
 2845TIP3    H2 8479   6.817   2.246   0.669
 2846TIP3   OH2 8480   0.367   0.109   5.179
 2846TIP3    H1 8481   0.392   0.077   5.093
 2846TIP3    H2 8482   0.377   0.204   5.173
 2847TIP3   OH2 8483   1.669   5.519   4.454
 2847TIP3    H1 8484   1.755   5.497   4.491
 2847TIP3    H2 8485   1.687   5.589   4.391
 2848TIP3   OH2 8486   7.707   3.531   0.294
 2848TIP3    H1 8487   7.779   3.587   0.265
 2848TIP3    H2 8488   7.633   3.555   0.238
 2849TIP3   OH2 8489   8.196   2.311   1.055
 2849TIP3    H1 8490   8.267   2.291   1.117
 2849TIP3    H2 8491   8.135   2.364   1.105
 2850TIP3   OH2 8492   8.216   6.846   1.836
 2850TIP3    H1 8493   8.175   6.885   1.759
 2850TIP3    H2 8494   8.147   6.795   1.877
 2851TIP3   OH2 8495   7.919   6.268   4.334
 2851TIP3    H1 8496   7.976   6.193   4.317
 2851TIP3    H2 8497   7.979   6.341   4.349
 2852TIP3   OH2 8498   4.836   7.670   2.360
 2852TIP3    H1 8499   4.918   7.707   2.328
 2852TIP3    H2 8500   4.772   7.741   2.348
 2853TIP3   OH2 8501   3.271   6.036   6.672
 2853TIP3    H1 8502   3.246   6.048   6.580
 2853TIP3    H2 8503   3.280   6.125   6.706
 2854TIP3   OH2 8504   1.199   2.956   4.513
 2854TIP3    H1 8505   1.221   2.863   4.510
 2854TIP3    H2 8506   1.135   2.963   4.585
 2855TIP3   OH2 8507   6.084   4.811   4.034
 2855TIP3    H1 8508   6.051   4.862   4.109
 2855TIP3    H2 8509   6.007   4.797   3.979
 2856TIP3   OH2 8510   0.709   7.205   2.965
 2856TIP3    H1 8511   0.762   7.131   2.994
 2856TIP3    H2 8512   0.725   7.273   3.030
 2857TIP3   OH2 8513   5.446   1.994   4.784
 2857TIP3    H1 8514   5.481   2.039   4.707
 2857TIP3    H2 8515   5.353   1.981   4.763
 2858TIP3   OH2 8516   2.388   1.409   0.607
 2858TIP3    H1 8517   2.307   1.377   0.565
 2858TIP3    H2 8518   2.449   1.336   0.599
 2859TIP3   OH2 8519   4.796   4.595   3.601
 2859TIP3    H1 8520   4.714   4.644   3.594
 2859TIP3    H2 8521   4.830   4.617   3.687
 2860TIP3   OH2 8522   6.170   0.636   1.451
 2860TIP3    H1 8523   6.190   0.631   1.357
 2860TIP3    H2 8524   6.243   0.591   1.494
 2861TIP3   OH2 8525   2.685   3.909   2.485
 2861TIP3    H1 8526   2.718   3.899   2.395
 2861TIP3    H2 8527   2.730   3.986   2.518
 2862TIP3   OH2 8528   2.510   7.243   1.940
 2862TIP3    H1 8529   2.595   7.273   1.908
 2862TIP3    H2 8530   2.505   7.277   2.029
 2863TIP3   OH2 8531   0.254   0.660   2.119
 2863TIP3    H1 8532   0.235   0.742   2.074
 2863TIP3    H2 8533   0.283   0.601   2.049
 2864TIP3   OH2 8534   6.201   7.515   5.784
 2864TIP3    H1 8535   6.118   7.529   5.738
 2864TIP3    H2 8536   6.232   7.430   5.753
 2865TIP3   OH2 8537   7.538   7.774   3.983
 2865TIP3    H1 8538   7.632   7.785   3.975
 2865TIP3    H2 8539   7.503   7.808   3.900
 2866TIP3   OH2 8540   0.241   1.033   0.274
 2866TIP3    H1 8541   0.222   1.126   0.260
 2866TIP3    H2 8542   0.156   0.994   0.295
 2867TIP3   OH2 8543   5.306   1.849   0.319
 2867TIP3    H1 8544   5.275   1.852   0.228
 2867TIP3    H2 8545   5.399   1.869   0.313
 2868TIP3   OH2 8546   8.217   6.561   2.327
 2868TIP3    H1 8547   8.135   6.609   2.318
 2868TIP3    H2 8548   8.281   6.614   2.280
 2869TIP3   OH2 8549   5.548   4.032   2.541
 2869TIP3    H1 8550   5.637   4.065   2.527
 2869TIP3    H2 8551   5.523   4.067   2.627
 2870TIP3   OH2 8552   1.970   0.414   5.080
 2870TIP3    H1 8553   1.875   0.424   5.090
 2870TIP3    H2 8554   1.987   0.435   4.988
 2871TIP3   OH2 8555   3.897   4.855   5.600
 2871TIP3    H1 8556   3.913   4.931   5.544
 2871TIP3    H2 8557   3.835   4.802   5.550
 2872TIP3   OH2 8558   2.951   3.276   0.339
 2872TIP3    H1 8559   2.880   3.224   0.376
 2872TIP3    H2 8560   3.001   3.306   0.415
 2873TIP3   OH2 8561   3.391   7.218   5.961
 2873TIP3    H1 8562   3.346   7.299   5.984
 2873TIP3    H2 8563   3.484   7.241   5.965
 2874TIP3   OH2 8564   3.141   6.632   2.832
 2874TIP3    H1 8565   3.193   6.654   2.909
 2874TIP3    H2 8566   3.204   6.600   2.768
 2875TIP3   OH2 8567   0.577   3.789   3.239
 2875TIP3    H1 8568   0.512   3.782   3.170
 2875TIP3    H2 8569   0.650   3.836   3.198
 2876TIP3   OH2 8570   8.198   6.789   5.728
 2876TIP3    H1 8571   8.246   6.804   5.646
 2876TIP3    H2 8572   8.248   6.837   5.794
 2877TIP3   OH2 8573   3.646   7.458   3.165
 2877TIP3    H1 8574   3.576   7.493   3.220
 2877TIP3    H2 8575   3.668   7.530   3.106
 2878TIP3   OH2 8576   5.882   2.369   4.641
 2878TIP3    H1 8577   5.867   2.299   4.578
 2878TIP3    H2 8578   5.959   2.341   4.691
 2879TIP3   OH2 8579   3.103   5.451   5.620
 2879TIP3    H1 8580   3.124   5.440   5.713
 2879TIP3    H2 8581   3.102   5.546   5.607
 2880TIP3   OH2 8582   2.198   3.140   0.456
 2880TIP3    H1 8583   2.220   3.175   0.370
 2880TIP3    H2 8584   2.230   3.050   0.455
 2881TIP3   OH2 8585   1.035   2.051   2.478
 2881TIP3    H1 8586   0.971   2.122   2.466
 2881TIP3    H2 8587   1.014   2.014   2.563
 2882TIP3   OH2 8588   6.149   2.624   2.698
 2882TIP3    H1 8589   6.224   2.605   2.755
 2882TIP3    H2 8590   6.108   2.539   2.682
 2883TIP3   OH2 8591   3.056   4.327   0.139
 2883TIP3    H1 8592   3.025   4.241   0.109
 2883TIP3    H2 8593   3.151   4.321   0.133
 2884TIP3   OH2 8594   3.701   0.958   5.583
 2884TIP3    H1 8595   3.620   1.007   5.593
 2884TIP3    H2 8596   3.678   0.888   5.522
 2885TIP3   OH2 8597   6.964   0.243   5.340
 2885TIP3    H1 8598   6.954   0.253   5.434
 2885TIP3    H2 8599   6.878   0.265   5.304
 2886TIP3   OH2 8600   5.012   2.874   1.953
 2886TIP3    H1 8601   5.001   2.820   1.876
 2886TIP3    H2 8602   5.034   2.812   2.023
 2887TIP3   OH2 8603   8.070   7.799   5.419
 2887TIP3    H1 8604   8.114   7.849   5.351
 2887TIP3    H2 8605   7.980   7.791   5.388
 2888TIP3   OH2 8606   5.829   3.032   0.896
 2888TIP3    H1 8607   5.826   3.105   0.834
 2888TIP3    H2 8608   5.841   2.954   0.841
 2889TIP3   OH2 8609   7.699   2.257   1.564
 2889TIP3    H1 8610   7.655   2.341   1.575
 2889TIP3    H2 8611   7.791   2.275   1.582
 2890TIP3   OH2 8612   6.825   7.395   2.124
 2890TIP3    H1 8613   6.910   7.439   2.112
 2890TIP3    H2 8614   6.847   7.301   2.127
 2891TIP3   OH2 8615   6.842   1.798   4.792
 2891TIP3    H1 8616   6.826   1.707   4.769
 2891TIP3    H2 8617   6.924   1.796   4.842
 2892TIP3   OH2 8618   6.350   2.813   5.068
 2892TIP3    H1 8619   6.343   2.728   5.025
 2892TIP3    H2 8620   6.351   2.876   4.996
 2893TIP3   OH2 8621   1.349   5.163   2.314
 2893TIP3    H1 8622   1.367   5.072   2.337
 2893TIP3    H2 8623   1.292   5.195   2.383
 2894TIP3   OH2 8624   1.835   0.757   1.767
 2894TIP3    H1 8625   1.778   0.724   1.836
 2894TIP3    H2 8626   1.845   0.850   1.786
 2895TIP3   OH2 8627   1.563   7.621   5.684
 2895TIP3    H1 8628   1.606   7.557   5.742
 2895TIP3    H2 8629   1.564   7.579   5.598
 2896TIP3   OH2 8630   3.089   2.223   2.214
 2896TIP3    H1 8631   3.142   2.303   2.210
 2896TIP3    H2 8632   3.091   2.197   2.305
 2897TIP3   OH2 8633   6.582   7.415   5.840
 2897TIP3    H1 8634   6.490   7.390   5.851
 2897TIP3    H2 8635   6.584   7.510   5.853
 2898TIP3   OH2 8636   1.471   1.559   3.304
 2898TIP3    H1 8637   1.460   1.513   3.388
 2898TIP3    H2 8638   1.495   1.490   3.242
 2899TIP3   OH2 8639   0.833   2.211   1.361
 2899TIP3    H1 8640   0.824   2.153   1.285
 2899TIP3    H2 8641   0.889   2.282   1.330
 2900TIP3   OH2 8642   5.387   5.285   6.308
 2900TIP3    H1 8643   5.306   5.319   6.270
 2900TIP3    H2 8644   5.394   5.330   6.392
 2901TIP3   OH2 8645   6.810   6.229   0.029
 2901TIP3    H1 8646   6.852   6.155  -0.014
 2901TIP3    H2 8647   6.771   6.192   0.108
 2902TIP3   OH2 8648   1.161   7.297   6.755
 2902TIP3    H1 8649   1.136   7.316   6.665
 2902TIP3    H2 8650   1.253   7.270   6.749
 2903TIP3   OH2 8651   1.473   6.644   3.367
 2903TIP3    H1 8652   1.538   6.633   3.436
 2903TIP3    H2 8653   1.390   6.655   3.413
 2904TIP3   OH2 8654   1.206   0.692   3.007
 2904TIP3    H1 8655   1.234   0.679   2.917
 2904TIP3    H2 8656   1.112   0.676   3.007
 2905TIP3   OH2 8657   4.586   4.585   5.988
 2905TIP3    H1 8658   4.589   4.593   5.892
 2905TIP3    H2 8659   4.528   4.511   6.004
 2906TIP3   OH2 8660   4.741   3.592   0.790
 2906TIP3    H1 8661   4.724   3.684   0.768
 2906TIP3    H2 8662   4.662   3.563   0.835
 2907TIP3   OH2 8663   7.542   4.150   0.255
 2907TIP3    H1 8664   7.541   4.054   0.257
 2907TIP3    H2 8665   7.590   4.175   0.334
 2908TIP3   OH2 8666   7.314   0.800   4.803
 2908TIP3    H1 8667   7.338   0.797   4.710
 2908TIP3    H2 8668   7.218   0.806   4.802
 2909TIP3   OH2 8669   7.570   5.533   0.132
 2909TIP3    H1 8670   7.527   5.589   0.197
 2909TIP3    H2 8671   7.652   5.505   0.173
 2910TIP3   OH2 8672   6.025   7.127   4.360
 2910TIP3    H1 8673   6.109   7.155   4.397
 2910TIP3    H2 8674   5.969   7.204   4.367
 2911TIP3   OH2 8675   2.249   7.131   1.457
 2911TIP3    H1 8676   2.210   7.213   1.487
 2911TIP3    H2 8677   2.343   7.142   1.471
 2912TIP3   OH2 8678   1.266   7.061   4.599
 2912TIP3    H1 8679   1.240   6.997   4.666
 2912TIP3    H2 8680   1.352   7.031   4.569
 2913TIP3   OH2 8681   4.411   7.215   1.539
 2913TIP3    H1 8682   4.376   7.259   1.617
 2913TIP3    H2 8683   4.452   7.135   1.573
 2914TIP3   OH2 8684   0.723   4.317   3.372
 2914TIP3    H1 8685   0.710   4.298   3.279
 2914TIP3    H2 8686   0.805   4.273   3.395
 2915TIP3   OH2 8687   1.352   1.383   0.643
 2915TIP3    H1 8688   1.406   1.335   0.580
 2915TIP3    H2 8689   1.293   1.435   0.589
 2916TIP3   OH2 8690   2.505   3.108   0.821
 2916TIP3    H1 8691   2.485   3.202   0.823
 2916TIP3    H2 8692   2.559   3.093   0.899
 2917TIP3   OH2 8693   2.969   7.419   0.840
 2917TIP3    H1 8694   3.016   7.501   0.859
 2917TIP3    H2 8695   2.982   7.366   0.918
 2918TIP3   OH2 8696   7.581   7.280   6.115
 2918TIP3    H1 8697   7.612   7.317   6.033
 2918TIP3    H2 8698   7.644   7.210   6.135
 2919TIP3   OH2 8699   7.516   3.062   0.163
 2919TIP3    H1 8700   7.575   3.129   0.128
 2919TIP3    H2 8701   7.500   3.088   0.254
 2920TIP3   OH2 8702   7.420   4.315   3.219
 2920TIP3    H1 8703   7.446   4.264   3.296
 2920TIP3    H2 8704   7.473   4.394   3.223
 2921TIP3   OH2 8705   1.569   6.819   2.041
 2921TIP3    H1 8706   1.574   6.836   1.947
 2921TIP3    H2 8707   1.478   6.796   2.057
 2922TIP3   OH2 8708   2.373   4.497   2.689
 2922TIP3    H1 8709   2.314   4.505   2.614
 2922TIP3    H2 8710   2.407   4.585   2.702
 2923TIP3   OH2 8711   5.120   5.076   6.157
 2923TIP3    H1 8712   5.203   5.058   6.112
 2923TIP3    H2 8713   5.120   5.015   6.232
 2924TIP3   OH2 8714   2.738   3.158   5.322
 2924TIP3    H1 8715   2.834   3.162   5.330
 2924TIP3    H2 8716   2.721   3.078   5.273
 2925TIP3   OH2 8717   4.045   0.746   4.813
 2925TIP3    H1 8718   4.119   0.797   4.846
 2925TIP3    H2 8719   4.025   0.785   4.728
 2926TIP3   OH2 8720   2.064   1.674   1.749
 2926TIP3    H1 8721   2.101   1.738   1.689
 2926TIP3    H2 8722   2.040   1.725   1.826
 2927TIP3   OH2 8723   2.835   4.606   5.862
 2927TIP3    H1 8724   2.914   4.561   5.891
 2927TIP3    H2 8725   2.802   4.649   5.940
 2928TIP3   OH2 8726   4.168   2.047   4.248
 2928TIP3    H1 8727   4.170   1.978   4.314
 2928TIP3    H2 8728   4.201   2.125   4.294
 2929TIP3   OH2 8729   5.498   3.650   6.346
 2929TIP3    H1 8730   5.536   3.663   6.259
 2929TIP3    H2 8731   5.571   3.620   6.400
 2930TIP3   OH2 8732   6.084   6.764   0.573
 2930TIP3    H1 8733   6.010   6.792   0.627
 2930TIP3    H2 8734   6.133   6.703   0.628
 2931TIP3   OH2 8735   1.425   3.829   3.784
 2931TIP3    H1 8736   1.484   3.757   3.803
 2931TIP3    H2 8737   1.419   3.831   3.688
 2932TIP3   OH2 8738   7.460   6.659   4.804
 2932TIP3    H1 8739   7.452   6.567   4.779
 2932TIP3    H2 8740   7.425   6.707   4.728
 2933TIP3   OH2 8741   6.927   5.916   5.133
 2933TIP3    H1 8742   6.914   5.901   5.227
 2933TIP3    H2 8743   6.893   6.004   5.117
 2934TIP3   OH2 8744   7.815   0.931   4.221
 2934TIP3    H1 8745   7.882   0.870   4.251
 2934TIP3    H2 8746   7.855   0.974   4.145
 2935TIP3   OH2 8747   4.153   3.899   3.138
 2935TIP3    H1 8748   4.093   3.970   3.162
 2935TIP3    H2 8749   4.171   3.855   3.221
 2936TIP3   OH2 8750   0.391   7.831   3.325
 2936TIP3    H1 8751   0.352   7.744   3.321
 2936TIP3    H2 8752   0.366   7.872   3.242
 2937TIP3   OH2 8753   2.261   7.317   5.045
 2937TIP3    H1 8754   2.303   7.311   4.960
 2937TIP3    H2 8755   2.168   7.298   5.028
 2938TIP3   OH2 8756   7.814   5.012   1.137
 2938TIP3    H1 8757   7.835   4.930   1.093
 2938TIP3    H2 8758   7.748   4.988   1.203
 2939TIP3   OH2 8759   3.765   5.189   0.836
 2939TIP3    H1 8760   3.835   5.207   0.774
 2939TIP3    H2 8761   3.809   5.178   0.920
 2940TIP3   OH2 8762   3.090   1.245   5.576
 2940TIP3    H1 8763   3.040   1.164   5.590
 2940TIP3    H2 8764   3.178   1.224   5.606
 2941TIP3   OH2 8765   6.381   1.988   6.290
 2941TIP3    H1 8766   6.336   1.905   6.309
 2941TIP3    H2 8767   6.450   1.993   6.356
 2942TIP3   OH2 8768   0.175   2.711   3.641
 2942TIP3    H1 8769   0.096   2.705   3.586
 2942TIP3    H2 8770   0.208   2.799   3.626
 2943TIP3   OH2 8771   4.339   4.621   1.097
 2943TIP3    H1 8772   4.270   4.651   1.156
 2943TIP3    H2 8773   4.351   4.694   1.036
 2944TIP3   OH2 8774   2.751   0.591   3.410
 2944TIP3    H1 8775   2.687   0.543   3.463
 2944TIP3    H2 8776   2.726   0.683   3.420
 2945TIP3   OH2 8777   5.636   5.995   4.304
 2945TIP3    H1 8778   5.630   6.082   4.343
 2945TIP3    H2 8779   5.572   5.996   4.233
 2946TIP3   OH2 8780   3.240   5.280   4.764
 2946TIP3    H1 8781   3.191   5.201   4.742
 2946TIP3    H2 8782   3.311   5.249   4.820
 2947TIP3   OH2 8783   4.825   6.308   2.614
 2947TIP3    H1 8784   4.771   6.232   2.593
 2947TIP3    H2 8785   4.836   6.305   2.709
 2948TIP3   OH2 8786   6.346   4.388   1.143
 2948TIP3    H1 8787   6.261   4.428   1.161
 2948TIP3    H2 8788   6.410   4.455   1.169
 2949TIP3   OH2 8789   3.079   2.788   0.837
 2949TIP3    H1 8790   3.157   2.753   0.795
 2949TIP3    H2 8791   3.109   2.816   0.924
 2950TIP3   OH2 8792   7.564   6.303   5.950
 2950TIP3    H1 8793   7.510   6.302   5.870
 2950TIP3    H2 8794   7.573   6.396   5.972
 2951TIP3   OH2 8795   7.309   2.547   0.641
 2951TIP3    H1 8796   7.246   2.620   0.638
 2951TIP3    H2 8797   7.374   2.575   0.706
 2952TIP3   OH2 8798   3.130   0.450   2.599
 2952TIP3    H1 8799   3.056   0.481   2.547
 2952TIP3    H2 8800   3.205   0.455   2.540
 2953TIP3   OH2 8801   2.420   5.942   3.008
 2953TIP3    H1 8802   2.388   5.890   2.934
 2953TIP3    H2 8803   2.513   5.953   2.991
 2954TIP3   OH2 8804   5.091   0.226   4.064
 2954TIP3    H1 8805   5.095   0.205   4.157
 2954TIP3    H2 8806   5.149   0.162   4.022
 2955TIP3   OH2 8807   4.936   6.153   4.500
 2955TIP3    H1 8808   4.945   6.077   4.558
 2955TIP3    H2 8809   4.848   6.186   4.519
 2956TIP3   OH2 8810   0.902   4.562   3.277
 2956TIP3    H1 8811   0.903   4.526   3.366
 2956TIP3    H2 8812   0.817   4.605   3.269
 2957TIP3   OH2 8813   7.553   6.721   2.579
 2957TIP3    H1 8814   7.525   6.812   2.594
 2957TIP3    H2 8815   7.479   6.668   2.609
 2958TIP3   OH2 8816   6.341   4.990   1.620
 2958TIP3    H1 8817   6.386   4.954   1.544
 2958TIP3    H2 8818   6.256   5.018   1.587
 2959TIP3   OH2 8819   6.359   7.018   5.197
 2959TIP3    H1 8820   6.287   7.069   5.161
 2959TIP3    H2 8821   6.395   7.072   5.267
 2960TIP3   OH2 8822   4.456   0.487   3.513
 2960TIP3    H1 8823   4.484   0.402   3.481
 2960TIP3    H2 8824   4.489   0.490   3.603
 2961TIP3   OH2 8825   4.403   1.687   0.750
 2961TIP3    H1 8826   4.332   1.649   0.698
 2961TIP3    H2 8827   4.364   1.701   0.837
 2962TIP3   OH2 8828   2.719   6.313   5.743
 2962TIP3    H1 8829   2.690   6.383   5.800
 2962TIP3    H2 8830   2.672   6.235   5.772
 2963TIP3   OH2 8831   8.006   3.702   6.009
 2963TIP3    H1 8832   7.941   3.632   6.008
 2963TIP3    H2 8833   7.955   3.783   6.008
 2964TIP3   OH2 8834   7.176   6.145   4.634
 2964TIP3    H1 8835   7.177   6.124   4.727
 2964TIP3    H2 8836   7.085   6.171   4.616
 2965TIP3   OH2 8837   5.555   6.951   6.105
 2965TIP3    H1 8838   5.469   6.929   6.069
 2965TIP3    H2 8839   5.583   6.871   6.149
 2966TIP3   OH2 8840   0.828   1.629   1.027
 2966TIP3    H1 8841   0.821   1.700   0.964
 2966TIP3    H2 8842   0.841   1.672   1.111
 2967TIP3   OH2 8843   1.002   0.964   5.197
 2967TIP3    H1 8844   0.965   0.941   5.112
 2967TIP3    H2 8845   1.083   1.011   5.176
 2968TIP3   OH2 8846   4.960   5.287   5.668
 2968TIP3    H1 8847   5.002   5.325   5.745
 2968TIP3    H2 8848   4.890   5.232   5.703
 2969TIP3   OH2 8849   2.285   3.507   4.142
 2969TIP3    H1 8850   2.378   3.513   4.123
 2969TIP3    H2 8851   2.249   3.454   4.071
 2970TIP3   OH2 8852   5.682   1.199   2.359
 2970TIP3    H1 8853   5.646   1.202   2.270
 2970TIP3    H2 8854   5.627   1.258   2.409
 2971TIP3   OH2 8855   7.350   0.872   2.977
 2971TIP3    H1 8856   7.280   0.827   3.023
 2971TIP3    H2 8857   7.332   0.965   2.991
 2972TIP3   OH2 8858   6.857   4.223   1.675
 2972TIP3    H1 8859   6.939   4.174   1.669
 2972TIP3    H2 8860   6.883   4.315   1.671
 2973TIP3   OH2 8861   0.151   2.339   2.701
 2973TIP3    H1 8862   0.152   2.251   2.737
 2973TIP3    H2 8863   0.114   2.393   2.771
 2974TIP3   OH2 8864   7.297   4.737   0.634
 2974TIP3    H1 8865   7.240   4.744   0.711
 2974TIP3    H2 8866   7.381   4.708   0.668
 2975TIP3   OH2 8867   5.599   1.054   3.915
 2975TIP3    H1 8868   5.530   1.016   3.969
 2975TIP3    H2 8869   5.654   1.103   3.977
 2976TIP3   OH2 8870   2.918   3.926   5.922
 2976TIP3    H1 8871   2.832   3.944   5.884
 2976TIP3    H2 8872   2.977   3.928   5.847
 2977TIP3   OH2 8873   0.879   7.051   5.510
 2977TIP3    H1 8874   0.927   7.081   5.433
 2977TIP3    H2 8875   0.941   7.063   5.582
 2978TIP3   OH2 8876   6.466   7.128   2.734
 2978TIP3    H1 8877   6.379   7.144   2.770
 2978TIP3    H2 8878   6.499   7.215   2.712
 2979TIP3   OH2 8879   3.395   7.040   1.978
 2979TIP3    H1 8880   3.470   7.097   1.997
 2979TIP3    H2 8881   3.361   7.015   2.064
 2980TIP3   OH2 8882   4.200   6.673   1.698
 2980TIP3    H1 8883   4.262   6.702   1.765
 2980TIP3    H2 8884   4.135   6.622   1.746
 2981TIP3   OH2 8885   3.871   5.317   6.565
 2981TIP3    H1 8886   3.816   5.363   6.502
 2981TIP3    H2 8887   3.822   5.237   6.586
 2982TIP3   OH2 8888   5.853   3.897   0.133
 2982TIP3    H1 8889   5.836   3.981   0.176
 2982TIP3    H2 8890   5.843   3.832   0.203
 2983TIP3   OH2 8891   1.820   2.801   4.159
 2983TIP3    H1 8892   1.774   2.823   4.240
 2983TIP3    H2 8893   1.750   2.791   4.094
 2984TIP3   OH2 8894   4.944   5.201   4.319
 2984TIP3    H1 8895   4.871   5.195   4.381
 2984TIP3    H2 8896   4.981   5.288   4.334
 2985TIP3   OH2 8897   4.545   5.778   6.039
 2985TIP3    H1 8898   4.580   5.759   6.126
 2985TIP3    H2 8899   4.606   5.735   5.979
 2986TIP3   OH2 8900   3.254   7.366   4.592
 2986TIP3    H1 8901   3.328   7.337   4.645
 2986TIP3    H2 8902   3.267   7.324   4.507
 2987TIP3   OH2 8903   4.758   3.807   2.106
 2987TIP3    H1 8904   4.675   3.825   2.149
 2987TIP3    H2 8905   4.786   3.892   2.071
 2988TIP3   OH2 8906   4.340   5.502   1.046
 2988TIP3    H1 8907   4.332   5.515   0.951
 2988TIP3    H2 8908   4.346   5.590   1.082
 2989TIP3   OH2 8909   4.549   1.374   2.220
 2989TIP3    H1 8910   4.481   1.417   2.272
 2989TIP3    H2 8911   4.605   1.446   2.190
 2990TIP3   OH2 8912   2.595   1.556   3.418
 2990TIP3    H1 8913   2.669   1.601   3.378
 2990TIP3    H2 8914   2.607   1.464   3.396
 2991TIP3   OH2 8915   1.715   2.478   6.225
 2991TIP3    H1 8916   1.728   2.546   6.159
 2991TIP3    H2 8917   1.783   2.493   6.290
 2992TIP3   OH2 8918   6.958   4.119   5.029
 2992TIP3    H1 8919   6.942   4.204   5.071
 2992TIP3    H2 8920   7.015   4.072   5.091
 2993TIP3   OH2 8921   4.264   3.905   1.416
 2993TIP3    H1 8922   4.210   3.974   1.455
 2993TIP3    H2 8923   4.215   3.877   1.339
 2994TIP3   OH2 8924   6.429   1.242   4.954
 2994TIP3    H1 8925   6.386   1.205   5.031
 2994TIP3    H2 8926   6.484   1.313   4.988
 2995TIP3   OH2 8927   0.233   3.874   5.831
 2995TIP3    H1 8928   0.157   3.843   5.782
 2995TIP3    H2 8929   0.255   3.801   5.890
 2996TIP3   OH2 8930   5.836   1.639   5.385
 2996TIP3    H1 8931   5.897   1.682   5.444
 2996TIP3    H2 8932   5.777   1.709   5.356
 2997TIP3   OH2 8933   7.899   1.367   0.161
 2997TIP3    H1 8934   7.822   1.361   0.218
 2997TIP3    H2 8935   7.954   1.293   0.187
 2998TIP3   OH2 8936   2.841   5.090   5.887
 2998TIP3    H1 8937   2.925   5.118   5.923
 2998TIP3    H2 8938   2.803   5.170   5.850
 2999TIP3   OH2 8939   6.497   6.530   1.868
 2999TIP3    H1 8940   6.416   6.482   1.850
 2999TIP3    H2 8941   6.472   6.595   1.933
 3000TIP3   OH2 8942   8.069   6.730   6.775
 3000TIP3    H1 8943   7.994   6.750   6.720
 3000TIP3    H2 8944   8.082   6.809   6.827
 3001TIP3   OH2 8945   8.025   6.062   3.302
 3001TIP3    H1 8946   8.056   5.998   3.366
 3001TIP3    H2 8947   8.084   6.052   3.227
 3002TIP3   OH2 8948   3.646   2.736   2.204
 3002TIP3    H1 8949   3.634   2.831   2.203
 3002TIP3    H2 8950   3.675   2.715   2.115
 3003TIP3   OH2 8951   1.498   5.655   1.702
 3003TIP3    H1 8952   1.460   5.698   1.625
 3003TIP3    H2 8953   1.498   5.562   1.680
 3004TIP3   OH2 8954   6.121   4.177   0.674
 3004TIP3    H1 8955   6.111   4.100   0.731
 3004TIP3    H2 8956   6.034   4.218   0.675
 3005TIP3   OH2 8957   1.505   2.178   5.016
 3005TIP3    H1 8958   1.533   2.208   5.103
 3005TIP3    H2 8959   1.498   2.258   4.965
 3006TIP3   OH2 8960   8.209   7.205   1.765
 3006TIP3    H1 8961   8.179   7.192   1.855
 3006TIP3    H2 8962   8.204   7.299   1.751
 3007TIP3   OH2 8963   0.157   1.259   1.929
 3007TIP3    H1 8964   0.240   1.304   1.946
 3007TIP3    H2 8965   0.181   1.187   1.870
 3008TIP3   OH2 8966   3.740   0.322   4.827
 3008TIP3    H1 8967   3.655   0.365   4.829
 3008TIP3    H2 8968   3.795   0.380   4.775
 3009TIP3   OH2 8969   7.849   4.573   2.405
 3009TIP3    H1 8970   7.945   4.575   2.410
 3009TIP3    H2 8971   7.820   4.636   2.471
 3010TIP3   OH2 8972   1.374   2.119   6.428
 3010TIP3    H1 8973   1.339   2.092   6.343
 3010TIP3    H2 8974   1.469   2.114   6.417
 3011TIP3   OH2 8975   3.820   4.541   4.057
 3011TIP3    H1 8976   3.800   4.483   4.130
 3011TIP3    H2 8977   3.858   4.484   3.990
 3012TIP3   OH2 8978   7.181   3.424   6.371
 3012TIP3    H1 8979   7.189   3.497   6.309
 3012TIP3    H2 8980   7.094   3.387   6.353
 3013TIP3   OH2 8981   4.923   7.336   5.204
 3013TIP3    H1 8982   4.945   7.260   5.257
 3013TIP3    H2 8983   4.835   7.317   5.170
 3014TIP3   OH2 8984   5.347   5.010   1.398
 3014TIP3    H1 8985   5.414   4.971   1.342
 3014TIP3    H2 8986   5.373   5.102   1.406
 3015TIP3   OH2 8987   4.026   0.232   1.281
 3015TIP3    H1 8988   4.082   0.173   1.332
 3015TIP3    H2 8989   4.013   0.187   1.197
 3016TIP3   OH2 8990   2.376   2.451   3.485
 3016TIP3    H1 8991   2.348   2.455   3.576
 3016TIP3    H2 8992   2.471   2.438   3.490
 3017TIP3   OH2 8993   4.486   0.814   3.759
 3017TIP3    H1 8994   4.491   0.864   3.678
 3017TIP3    H2 8995   4.460   0.878   3.825
 3018TIP3   OH2 8996   0.818   0.746   5.939
 3018TIP3    H1 8997   0.801   0.777   6.028
 3018TIP3    H2 8998   0.745   0.779   5.887
 3019TIP3   OH2 8999   6.092   2.269   2.077
 3019TIP3    H1 9000   6.077   2.243   1.986
 3019TIP3    H2 9001   6.006   2.299   2.108
 3020TIP3   OH2 9002   2.613   6.690   1.935
 3020TIP3    H1 9003   2.559   6.725   1.864
 3020TIP3    H2 9004   2.664   6.620   1.894
 3021TIP3   OH2 9005   3.614   1.819   0.100
 3021TIP3    H1 9006   3.691   1.766   0.083
 3021TIP3    H2 9007   3.540   1.761   0.083
 3022TIP3   OH2 9008   2.487   4.576   5.659
 3022TIP3    H1 9009   2.547   4.508   5.691
 3022TIP3    H2 9010   2.545   4.644   5.624
 3023TIP3   OH2 9011   2.711   2.174   6.699
 3023TIP3    H1 9012   2.739   2.138   6.783
 3023TIP3    H2 9013   2.784   2.230   6.672
 3024TIP3   OH2 9014   1.954   3.970   3.197
 3024TIP3    H1 9015   2.024   4.012   3.249
 3024TIP3    H2 9016   1.898   3.927   3.263
 3025TIP3   OH2 9017   4.251   6.570   1.986
 3025TIP3    H1 9018   4.200   6.651   1.995
 3025TIP3    H2 9019   4.314   6.572   2.058
 3026TIP3   OH2 9020   4.555   5.723   3.634
 3026TIP3    H1 9021   4.465   5.691   3.628
 3026TIP3    H2 9022   4.594   5.702   3.549
 3027TIP3   OH2 9023   0.144   3.221   5.730
 3027TIP3    H1 9024   0.087   3.188   5.661
 3027TIP3    H2 9025   0.085   3.260   5.793
 3028TIP3   OH2 9026   2.331   7.649   0.151
 3028TIP3    H1 9027   2.387   7.720   0.121
 3028TIP3    H2 9028   2.276   7.628   0.075
 3029TIP3   OH2 9029   8.191   7.044   5.548
 3029TIP3    H1 9030   8.107   7.029   5.505
 3029TIP3    H2 9031   8.246   6.970   5.519
 3030TIP3   OH2 9032   5.323   7.080   0.152
 3030TIP3    H1 9033   5.331   6.986   0.163
 3030TIP3    H2 9034   5.229   7.097   0.159
 3031TIP3   OH2 9035   3.634   1.366   4.534
 3031TIP3    H1 9036   3.710   1.339   4.584
 3031TIP3    H2 9037   3.572   1.398   4.600
 3032TIP3   OH2 9038   5.272   2.699   1.483
 3032TIP3    H1 9039   5.267   2.756   1.406
 3032TIP3    H2 9040   5.239   2.752   1.555
 3033TIP3   OH2 9041   0.452   2.666   3.665
 3033TIP3    H1 9042   0.455   2.708   3.751
 3033TIP3    H2 9043   0.359   2.670   3.640
 3034TIP3   OH2 9044   0.272   1.718   4.597
 3034TIP3    H1 9045   0.198   1.726   4.537
 3034TIP3    H2 9046   0.325   1.796   4.581
 3035TIP3   OH2 9047   7.817   5.356   1.302
 3035TIP3    H1 9048   7.801   5.297   1.375
 3035TIP3    H2 9049   7.744   5.418   1.305
 3036TIP3   OH2 9050   3.932   5.239   2.948
 3036TIP3    H1 9051   3.903   5.213   2.860
 3036TIP3    H2 9052   4.010   5.292   2.933
 3037TIP3   OH2 9053   2.500   7.305   3.114
 3037TIP3    H1 9054   2.424   7.292   3.171
 3037TIP3    H2 9055   2.564   7.349   3.169
 3038TIP3   OH2 9056   2.979   3.299   5.698
 3038TIP3    H1 9057   2.936   3.218   5.724
 3038TIP3    H2 9058   2.950   3.363   5.763
 3039TIP3   OH2 9059   2.048   2.668   5.894
 3039TIP3    H1 9060   1.989   2.599   5.926
 3039TIP3    H2 9061   2.134   2.626   5.893
 3040TIP3   OH2 9062   1.575   7.171   6.002
 3040TIP3    H1 9063   1.515   7.196   5.933
 3040TIP3    H2 9064   1.589   7.077   5.989
 3041TIP3   OH2 9065   1.932   0.704   3.548
 3041TIP3    H1 9066   1.921   0.780   3.491
 3041TIP3    H2 9067   1.847   0.695   3.592
 3042TIP3   OH2 9068   2.203   1.464   6.648
 3042TIP3    H1 9069   2.172   1.460   6.557
 3042TIP3    H2 9070   2.277   1.526   6.646
 3043TIP3   OH2 9071   3.462   5.496   6.105
 3043TIP3    H1 9072   3.504   5.574   6.139
 3043TIP3    H2 9073   3.514   5.471   6.030
 3044TIP3   OH2 9074   7.873   3.941   5.258
 3044TIP3    H1 9075   7.841   4.031   5.243
 3044TIP3    H2 9076   7.794   3.887   5.256
 3045TIP3   OH2 9077   4.758   2.554   5.961
 3045TIP3    H1 9078   4.700   2.553   5.885
 3045TIP3    H2 9079   4.789   2.464   5.968
 3046TIP3   OH2 9080   0.768   3.787   0.886
 3046TIP3    H1 9081   0.699   3.725   0.909
 3046TIP3    H2 9082   0.776   3.844   0.963
 3047TIP3   OH2 9083   3.785   3.995   4.525
 3047TIP3    H1 9084   3.708   3.960   4.570
 3047TIP3    H2 9085   3.799   4.081   4.566
 3048TIP3   OH2 9086   6.052   5.821   5.098
 3048TIP3    H1 9087   5.957   5.811   5.099
 3048TIP3    H2 9088   6.082   5.776   5.177
 3049TIP3   OH2 9089   2.121   6.149   4.128
 3049TIP3    H1 9090   2.200   6.200   4.144
 3049TIP3    H2 9091   2.152   6.059   4.116
 3050TIP3   OH2 9092   7.939   5.017   0.581
 3050TIP3    H1 9093   7.847   5.039   0.594
 3050TIP3    H2 9094   7.937   4.933   0.534
 3051TIP3   OH2 9095   0.346   3.977   2.787
 3051TIP3    H1 9096   0.347   3.909   2.854
 3051TIP3    H2 9097   0.256   3.980   2.756
 3052TIP3   OH2 9098   7.076   1.004   2.826
 3052TIP3    H1 9099   7.028   1.062   2.767
 3052TIP3    H2 9100   7.031   1.012   2.910
 3053TIP3   OH2 9101   5.680   7.124   4.374
 3053TIP3    H1 9102   5.646   7.092   4.458
 3053TIP3    H2 9103   5.766   7.160   4.396
 3054TIP3   OH2 9104   4.577   5.510   1.565
 3054TIP3    H1 9105   4.498   5.517   1.512
 3054TIP3    H2 9106   4.626   5.590   1.545
 3055TIP3   OH2 9107   7.264   6.530   1.755
 3055TIP3    H1 9108   7.281   6.539   1.849
 3055TIP3    H2 9109   7.203   6.602   1.735
 3056TIP3   OH2 9110   2.500   7.417   5.423
 3056TIP3    H1 9111   2.551   7.456   5.494
 3056TIP3    H2 9112   2.410   7.421   5.455
 3057TIP3   OH2 9113   3.449   5.734   1.920
 3057TIP3    H1 9114   3.436   5.828   1.931
 3057TIP3    H2 9115   3.449   5.699   2.009
 3058TIP3   OH2 9116   0.435   7.806   5.445
 3058TIP3    H1 9117   0.496   7.880   5.439
 3058TIP3    H2 9118   0.348   7.845   5.432
 3059TIP3   OH2 9119   6.940   0.950   5.685
 3059TIP3    H1 9120   6.863   0.920   5.733
 3059TIP3    H2 9121   7.011   0.946   5.750
 3060TIP3   OH2 9122   5.935   6.722   0.063
 3060TIP3    H1 9123   5.971   6.633   0.057
 3060TIP3    H2 9124   5.972   6.758   0.143
 3061TIP3   OH2 9125   3.021   1.281   0.177
 3061TIP3    H1 9126   2.982   1.366   0.158
 3061TIP3    H2 9127   3.104   1.301   0.220
 3062TIP3   OH2 9128   4.491   3.949   1.287
 3062TIP3    H1 9129   4.427   3.934   1.356
 3062TIP3    H2 9130   4.463   3.892   1.215
 3063TIP3   OH2 9131   7.253   5.883   2.041
 3063TIP3    H1 9132   7.298   5.882   1.956
 3063TIP3    H2 9133   7.324   5.873   2.105
 3064TIP3   OH2 9134   5.111   5.205   0.325
 3064TIP3    H1 9135   5.195   5.225   0.284
 3064TIP3    H2 9136   5.083   5.123   0.286
 3065TIP3   OH2 9137   6.662   7.213   1.023
 3065TIP3    H1 9138   6.693   7.198   1.112
 3065TIP3    H2 9139   6.738   7.195   0.968
 3066TIP3   OH2 9140   7.181   1.438   2.875
 3066TIP3    H1 9141   7.173   1.528   2.907
 3066TIP3    H2 9142   7.091   1.408   2.864
 3067TIP3   OH2 9143   4.929   6.735   6.751
 3067TIP3    H1 9144   4.962   6.741   6.661
 3067TIP3    H2 9145   4.858   6.670   6.746
 3068TIP3   OH2 9146   7.298   3.535   4.816
 3068TIP3    H1 9147   7.271   3.551   4.906
 3068TIP3    H2 9148   7.337   3.447   4.818
 3069TIP3   OH2 9149   8.029   3.742   1.248
 3069TIP3    H1 9150   7.968   3.794   1.299
 3069TIP3    H2 9151   8.091   3.707   1.312
 3070TIP3   OH2 9152   7.644   6.272   1.636
 3070TIP3    H1 9153   7.633   6.289   1.729
 3070TIP3    H2 9154   7.711   6.335   1.608
 3071TIP3   OH2 9155   4.780   1.726   3.896
 3071TIP3    H1 9156   4.842   1.655   3.909
 3071TIP3    H2 9157   4.757   1.756   3.984
 3072TIP3   OH2 9158   1.672   5.183   3.053
 3072TIP3    H1 9159   1.641   5.103   3.097
 3072TIP3    H2 9160   1.603   5.204   2.990
 3073TIP3   OH2 9161   6.969   2.522   2.158
 3073TIP3    H1 9162   6.914   2.444   2.153
 3073TIP3    H2 9163   6.965   2.548   2.250
 3074TIP3   OH2 9164   3.090   7.436   5.894
 3074TIP3    H1 9165   3.020   7.423   5.957
 3074TIP3    H2 9166   3.089   7.357   5.840
 3075TIP3   OH2 9167   5.420   6.292   0.681
 3075TIP3    H1 9168   5.349   6.323   0.737
 3075TIP3    H2 9169   5.452   6.213   0.724
 3076TIP3   OH2 9170   8.029   7.640   2.679
 3076TIP3    H1 9171   7.998   7.641   2.769
 3076TIP3    H2 9172   7.991   7.561   2.641
 3077TIP3   OH2 9173   3.944   0.120   4.506
 3077TIP3    H1 9174   3.883   0.057   4.469
 3077TIP3    H2 9175   3.931   0.114   4.601
 3078TIP3   OH2 9176   7.350   2.301   5.016
 3078TIP3    H1 9177   7.415   2.338   4.957
 3078TIP3    H2 9178   7.361   2.349   5.098
 3079TIP3   OH2 9179   3.413   5.574   0.967
 3079TIP3    H1 9180   3.393   5.502   0.907
 3079TIP3    H2 9181   3.420   5.532   1.053
 3080TIP3   OH2 9182   6.813   5.080   3.851
 3080TIP3    H1 9183   6.887   5.103   3.795
 3080TIP3    H2 9184   6.826   5.131   3.930
 3081TIP3   OH2 9185   5.502   7.471   3.539
 3081TIP3    H1 9186   5.441   7.545   3.536
 3081TIP3    H2 9187   5.589   7.512   3.536
 3082TIP3   OH2 9188   0.374   0.737   5.703
 3082TIP3    H1 9189   0.280   0.727   5.717
 3082TIP3    H2 9190   0.405   0.650   5.680
 3083TIP3   OH2 9191   6.331   5.356   2.129
 3083TIP3    H1 9192   6.392   5.287   2.104
 3083TIP3    H2 9193   6.257   5.345   2.069
 3084TIP3   OH2 9194   5.264   5.928   0.852
 3084TIP3    H1 9195   5.219   5.955   0.932
 3084TIP3    H2 9196   5.196   5.884   0.801
 3085TIP3   OH2 9197   7.087   3.401   0.653
 3085TIP3    H1 9198   7.009   3.434   0.698
 3085TIP3    H2 9199   7.058   3.321   0.609
 3086TIP3   OH2 9200   2.938   6.969   4.363
 3086TIP3    H1 9201   2.863   6.945   4.418
 3086TIP3    H2 9202   2.988   6.888   4.354
 3087TIP3   OH2 9203   3.972   0.486   1.567
 3087TIP3    H1 9204   3.889   0.441   1.550
 3087TIP3    H2 9205   4.023   0.423   1.617
 3088TIP3   OH2 9206   3.888   5.600   2.352
 3088TIP3    H1 9207   3.972   5.634   2.382
 3088TIP3    H2 9208   3.911   5.532   2.289
 3089TIP3   OH2 9209   1.320   0.025   1.326
 3089TIP3    H1 9210   1.234  -0.017   1.332
 3089TIP3    H2 9211   1.302   0.109   1.285
 3090TIP3   OH2 9212   1.585   2.541   0.588
 3090TIP3    H1 9213   1.535   2.483   0.645
 3090TIP3    H2 9214   1.554   2.629   0.611
 3091TIP3   OH2 9215   2.034   2.591   1.513
 3091TIP3    H1 9216   2.035   2.676   1.556
 3091TIP3    H2 9217   1.941   2.573   1.498
 3092TIP3   OH2 9218   1.541   7.032   5.649
 3092TIP3    H1 9219   1.598   6.955   5.644
 3092TIP3    H2 9220   1.462   7.000   5.693
 3093TIP3   OH2 9221   1.470   2.823   5.510
 3093TIP3    H1 9222   1.515   2.751   5.554
 3093TIP3    H2 9223   1.445   2.788   5.425
 3094TIP3   OH2 9224   2.334   0.954   3.541
 3094TIP3    H1 9225   2.354   0.886   3.476
 3094TIP3    H2 9226   2.333   1.036   3.491
 3095TIP3   OH2 9227   1.804   4.288   3.487
 3095TIP3    H1 9228   1.733   4.352   3.488
 3095TIP3    H2 9229   1.855   4.308   3.566
 3096TIP3   OH2 9230   6.934   7.154   5.944
 3096TIP3    H1 9231   6.943   7.094   6.018
 3096TIP3    H2 9232   6.926   7.241   5.985
 3097TIP3   OH2 9233   5.143   1.203   1.173
 3097TIP3    H1 9234   5.198   1.167   1.102
 3097TIP3    H2 9235   5.160   1.297   1.171
 3098TIP3   OH2 9236   4.975   5.808   0.724
 3098TIP3    H1 9237   4.930   5.875   0.776
 3098TIP3    H2 9238   5.017   5.856   0.653
 3099TIP3   OH2 9239   5.530   3.198   4.753
 3099TIP3    H1 9240   5.521   3.151   4.835
 3099TIP3    H2 9241   5.467   3.157   4.694
 3100TIP3   OH2 9242   4.632   6.277   5.821
 3100TIP3    H1 9243   4.599   6.332   5.750
 3100TIP3    H2 9244   4.620   6.329   5.900
 3101TIP3   OH2 9245   3.737   2.140   4.054
 3101TIP3    H1 9246   3.651   2.106   4.032
 3101TIP3    H2 9247   3.755   2.106   4.142
 3102TIP3   OH2 9248   3.884   1.474   0.511
 3102TIP3    H1 9249   3.947   1.543   0.532
 3102TIP3    H2 9250   3.811   1.520   0.469
 3103TIP3   OH2 9251   1.947   4.864   2.312
 3103TIP3    H1 9252   1.985   4.942   2.272
 3103TIP3    H2 9253   1.862   4.892   2.345
 3104TIP3   OH2 9254   5.782   4.418   4.109
 3104TIP3    H1 9255   5.751   4.490   4.055
 3104TIP3    H2 9256   5.722   4.346   4.089
 3105TIP3   OH2 9257   0.572   1.882  -0.032
 3105TIP3    H1 9258   0.560   1.891   0.063
 3105TIP3    H2 9259   0.536   1.962  -0.069
 3106TIP3   OH2 9260   1.304   0.793   6.498
 3106TIP3    H1 9261   1.332   0.702   6.487
 3106TIP3    H2 9262   1.212   0.793   6.471
 3107TIP3   OH2 9263   1.164   2.396   2.209
 3107TIP3    H1 9264   1.237   2.392   2.147
 3107TIP3    H2 9265   1.195   2.347   2.285
 3108TIP3   OH2 9266   3.870   6.623   2.818
 3108TIP3    H1 9267   3.786   6.576   2.812
 3108TIP3    H2 9268   3.930   6.571   2.766
 3109TIP3   OH2 9269   4.192   1.077   5.009
 3109TIP3    H1 9270   4.178   1.131   5.086
 3109TIP3    H2 9271   4.233   0.998   5.042
 3110TIP3   OH2 9272   0.780   3.452   0.949
 3110TIP3    H1 9273   0.818   3.483   0.867
 3110TIP3    H2 9274   0.844   3.475   1.016
 3111TIP3   OH2 9275   1.039   3.862   2.913
 3111TIP3    H1 9276   1.051   3.936   2.973
 3111TIP3    H2 9277   1.032   3.785   2.970
 3112TIP3   OH2 9278   1.619   1.073   0.689
 3112TIP3    H1 9279   1.597   1.019   0.765
 3112TIP3    H2 9280   1.548   1.137   0.684
 3113TIP3   OH2 9281   4.185   7.129   2.522
 3113TIP3    H1 9282   4.145   7.196   2.467
 3113TIP3    H2 9283   4.274   7.160   2.537
 3114TIP3   OH2 9284   3.668   0.808   0.848
 3114TIP3    H1 9285   3.656   0.852   0.933
 3114TIP3    H2 9286   3.666   0.878   0.784
 3115TIP3   OH2 9287   4.207   5.975   3.850
 3115TIP3    H1 9288   4.233   5.894   3.895
 3115TIP3    H2 9289   4.195   5.948   3.759
 3116TIP3   OH2 9290   0.431   7.818   1.858
 3116TIP3    H1 9291   0.468   7.759   1.923
 3116TIP3    H2 9292   0.339   7.793   1.852
 3117TIP3   OH2 9293   4.961   0.403   5.010
 3117TIP3    H1 9294   4.929   0.381   5.098
 3117TIP3    H2 9295   4.975   0.319   4.968
 3118TIP3   OH2 9296   0.844   1.212   4.511
 3118TIP3    H1 9297   0.817   1.280   4.573
 3118TIP3    H2 9298   0.822   1.248   4.425
 3119TIP3   OH2 9299   0.137   1.064   5.778
 3119TIP3    H1 9300   0.137   1.036   5.687
 3119TIP3    H2 9301   0.053   1.034   5.813
 3120TIP3   OH2 9302   4.704   4.795   3.241
 3120TIP3    H1 9303   4.704   4.811   3.336
 3120TIP3    H2 9304   4.737   4.877   3.203
 3121TIP3   OH2 9305   4.516   7.483   2.005
 3121TIP3    H1 9306   4.495   7.490   2.098
 3121TIP3    H2 9307   4.434   7.506   1.960
 3122TIP3   OH2 9308   7.935   5.817   5.118
 3122TIP3    H1 9309   8.031   5.823   5.115
 3122TIP3    H2 9310   7.907   5.903   5.148
 3123TIP3   OH2 9311   0.549   5.451   1.266
 3123TIP3    H1 9312   0.460   5.466   1.233
 3123TIP3    H2 9313   0.605   5.456   1.188
 3124TIP3   OH2 9314   7.300   5.575   5.814
 3124TIP3    H1 9315   7.213   5.605   5.839
 3124TIP3    H2 9316   7.309   5.489   5.853
 3125TIP3   OH2 9317   4.424   3.950   1.861
 3125TIP3    H1 9318   4.390   4.028   1.817
 3125TIP3    H2 9319   4.388   3.954   1.949
 3126TIP3   OH2 9320   3.263   0.232   1.923
 3126TIP3    H1 9321   3.209   0.283   1.863
 3126TIP3    H2 9322   3.257   0.142   1.891
 3127TIP3   OH2 9323   7.251   4.408   3.017
 3127TIP3    H1 9324   7.172   4.449   3.053
 3127TIP3    H2 9325   7.308   4.396   3.093
 3128TIP3   OH2 9326   0.524   0.832   3.411
 3128TIP3    H1 9327   0.515   0.743   3.378
 3128TIP3    H2 9328   0.510   0.888   3.335
 3129TIP3   OH2 9329   1.215   4.917   0.597
 3129TIP3    H1 9330   1.235   5.001   0.639
 3129TIP3    H2 9331   1.234   4.851   0.663
 3130TIP3   OH2 9332   3.467   4.425   0.555
 3130TIP3    H1 9333   3.543   4.371   0.535
 3130TIP3    H2 9334   3.478   4.502   0.499
 3131TIP3   OH2 9335   5.860   7.000   0.968
 3131TIP3    H1 9336   5.829   7.005   0.877
 3131TIP3    H2 9337   5.779   7.001   1.020
 3132TIP3   OH2 9338   0.969   3.009   3.344
 3132TIP3    H1 9339   1.051   3.058   3.347
 3132TIP3    H2 9340   0.959   2.974   3.432
 3133TIP3   OH2 9341   1.285   3.345   6.128
 3133TIP3    H1 9342   1.232   3.316   6.054
 3133TIP3    H2 9343   1.281   3.272   6.190
 3134TIP3   OH2 9344   2.474   7.568   2.915
 3134TIP3    H1 9345   2.440   7.525   2.836
 3134TIP3    H2 9346   2.516   7.497   2.965
 3135TIP3   OH2 9347   5.821   6.333   5.446
 3135TIP3    H1 9348   5.815   6.369   5.357
 3135TIP3    H2 9349   5.915   6.328   5.463
 3136TIP3   OH2 9350   5.831   4.482   1.972
 3136TIP3    H1 9351   5.916   4.523   1.953
 3136TIP3    H2 9352   5.825   4.411   1.908
 3137TIP3   OH2 9353   7.674   3.138   2.881
 3137TIP3    H1 9354   7.651   3.074   2.814
 3137TIP3    H2 9355   7.749   3.099   2.926
 3138TIP3   OH2 9356   6.148   0.839   5.721
 3138TIP3    H1 9357   6.128   0.873   5.634
 3138TIP3    H2 9358   6.242   0.822   5.719
 3139TIP3   OH2 9359   3.819   3.565   0.991
 3139TIP3    H1 9360   3.836   3.564   0.896
 3139TIP3    H2 9361   3.809   3.657   1.012
 3140TIP3   OH2 9362   0.996   3.920   1.532
 3140TIP3    H1 9363   1.054   3.928   1.457
 3140TIP3    H2 9364   1.004   3.829   1.559
 3141TIP3   OH2 9365   6.067   2.042   4.089
 3141TIP3    H1 9366   6.099   2.132   4.095
 3141TIP3    H2 9367   6.145   1.988   4.084
 3142TIP3   OH2 9368   5.649   5.354   1.951
 3142TIP3    H1 9369   5.736   5.314   1.960
 3142TIP3    H2 9370   5.660   5.423   1.886
 3143TIP3   OH2 9371   6.289   2.398   1.792
 3143TIP3    H1 9372   6.361   2.341   1.768
 3143TIP3    H2 9373   6.214   2.339   1.801
 3144TIP3   OH2 9374   2.126   3.612   1.797
 3144TIP3    H1 9375   2.067   3.649   1.863
 3144TIP3    H2 9376   2.068   3.575   1.731
 3145TIP3   OH2 9377   6.901   1.761   5.521
 3145TIP3    H1 9378   6.912   1.802   5.606
 3145TIP3    H2 9379   6.850   1.682   5.538
 3146TIP3   OH2 9380   2.709   6.452   5.973
 3146TIP3    H1 9381   2.785   6.499   6.007
 3146TIP3    H2 9382   2.662   6.423   6.052
 3147TIP3   OH2 9383   0.051   5.403   4.386
 3147TIP3    H1 9384  -0.026   5.375   4.336
 3147TIP3    H2 9385   0.118   5.338   4.365
 3148TIP3   OH2 9386   5.673   0.581   2.047
 3148TIP3    H1 9387   5.585   0.542   2.052
 3148TIP3    H2 9388   5.712   0.542   1.969
 3149TIP3   OH2 9389   6.611   3.742   4.496
 3149TIP3    H1 9390   6.692   3.690   4.496
 3149TIP3    H2 9391   6.600   3.770   4.405
 3150TIP3   OH2 9392   1.717   3.731   5.642
 3150TIP3    H1 9393   1.769   3.782   5.579
 3150TIP3    H2 9394   1.781   3.699   5.705
 3151TIP3   OH2 9395   0.577   1.121   1.288
 3151TIP3    H1 9396   0.661   1.152   1.320
 3151TIP3    H2 9397   0.568   1.160   1.201
 3152TIP3   OH2 9398   1.108   1.956   2.238
 3152TIP3    H1 9399   1.201   1.973   2.225
 3152TIP3    H2 9400   1.090   1.987   2.326
 3153TIP3   OH2 9401   7.310   6.062   2.747
 3153TIP3    H1 9402   7.403   6.039   2.752
 3153TIP3    H2 9403   7.267   5.996   2.802
 3154TIP3   OH2 9404   3.107   0.855   5.165
 3154TIP3    H1 9405   3.139   0.943   5.185
 3154TIP3    H2 9406   3.024   0.870   5.119
 3155TIP3   OH2 9407   2.778   1.814   0.557
 3155TIP3    H1 9408   2.793   1.903   0.589
 3155TIP3    H2 9409   2.741   1.767   0.632
 3156TIP3   OH2 9410   3.402   3.803   1.239
 3156TIP3    H1 9411   3.309   3.804   1.260
 3156TIP3    H2 9412   3.445   3.821   1.323
 3157TIP3   OH2 9413   7.107   6.371   5.861
 3157TIP3    H1 9414   7.156   6.289   5.861
 3157TIP3    H2 9415   7.137   6.416   5.941
 3158TIP3   OH2 9416   6.021   3.537   2.295
 3158TIP3    H1 9417   5.987   3.474   2.231
 3158TIP3    H2 9418   5.969   3.616   2.281
 3159TIP3   OH2 9419   1.413   0.790   4.805
 3159TIP3    H1 9420   1.440   0.840   4.728
 3159TIP3    H2 9421   1.352   0.724   4.772
 3160TIP3   OH2 9422   1.255   3.851   4.583
 3160TIP3    H1 9423   1.179   3.815   4.537
 3160TIP3    H2 9424   1.269   3.937   4.544
 3161TIP3   OH2 9425   7.070   3.206   0.267
 3161TIP3    H1 9426   7.084   3.112   0.262
 3161TIP3    H2 9427   7.156   3.243   0.285
 3162TIP3   OH2 9428   5.740   3.996   1.186
 3162TIP3    H1 9429   5.707   3.959   1.267
 3162TIP3    H2 9430   5.686   3.956   1.118
 3163TIP3   OH2 9431   3.798   1.901   4.783
 3163TIP3    H1 9432   3.851   1.912   4.862
 3163TIP3    H2 9433   3.837   1.826   4.738
 3164TIP3   OH2 9434   1.736   3.689   3.248
 3164TIP3    H1 9435   1.787   3.620   3.291
 3164TIP3    H2 9436   1.692   3.645   3.175
 3165TIP3   OH2 9437   2.604   7.440   1.569
 3165TIP3    H1 9438   2.516   7.427   1.532
 3165TIP3    H2 9439   2.663   7.425   1.496
 3166TIP3   OH2 9440   4.972   2.520   5.280
 3166TIP3    H1 9441   5.062   2.533   5.249
 3166TIP3    H2 9442   4.918   2.532   5.202
 3167TIP3   OH2 9443   6.040   2.943   4.759
 3167TIP3    H1 9444   5.960   2.987   4.731
 3167TIP3    H2 9445   6.020   2.911   4.847
 3168TIP3   OH2 9446   3.438   3.663   6.025
 3168TIP3    H1 9447   3.396   3.685   5.942
 3168TIP3    H2 9448   3.400   3.725   6.087
 3169TIP3   OH2 9449   4.291   3.729   5.898
 3169TIP3    H1 9450   4.354   3.777   5.845
 3169TIP3    H2 9451   4.284   3.644   5.855
 3170TIP3   OH2 9452   4.286   1.892   0.282
 3170TIP3    H1 9453   4.339   1.906   0.360
 3170TIP3    H2 9454   4.340   1.927   0.210
 3171TIP3   OH2 9455   1.461   4.613   6.552
 3171TIP3    H1 9456   1.475   4.708   6.555
 3171TIP3    H2 9457   1.398   4.600   6.481
 3172TIP3   OH2 9458   6.686   2.519   5.322
 3172TIP3    H1 9459   6.735   2.477   5.251
 3172TIP3    H2 9460   6.673   2.609   5.293
 3173TIP3   OH2 9461   1.066   3.953   0.252
 3173TIP3    H1 9462   1.013   3.934   0.329
 3173TIP3    H2 9463   1.002   3.958   0.180
 3174TIP3   OH2 9464   6.412   4.843   0.740
 3174TIP3    H1 9465   6.452   4.925   0.769
 3174TIP3    H2 9466   6.320   4.849   0.768
 3175TIP3   OH2 9467   2.627   2.292   1.311
 3175TIP3    H1 9468   2.622   2.242   1.229
 3175TIP3    H2 9469   2.591   2.232   1.377
 3176TIP3   OH2 9470   5.781   4.376   3.339
 3176TIP3    H1 9471   5.792   4.281   3.342
 3176TIP3    H2 9472   5.870   4.410   3.344
 3177TIP3   OH2 9473   3.787   0.724   3.849
 3177TIP3    H1 9474   3.768   0.788   3.917
 3177TIP3    H2 9475   3.770   0.769   3.767
 3178TIP3   OH2 9476   0.881   5.064   4.564
 3178TIP3    H1 9477   0.872   4.970   4.581
 3178TIP3    H2 9478   0.863   5.106   4.648
 3179TIP3   OH2 9479   0.174   7.294   3.760
 3179TIP3    H1 9480   0.158   7.384   3.788
 3179TIP3    H2 9481   0.254   7.299   3.709
 3180TIP3   OH2 9482   1.742   7.172   2.656
 3180TIP3    H1 9483   1.787   7.230   2.595
 3180TIP3    H2 9484   1.811   7.118   2.693
 3181TIP3   OH2 9485   4.964   3.823   3.247
 3181TIP3    H1 9486   4.885   3.874   3.263
 3181TIP3    H2 9487   4.948   3.739   3.292
 3182TIP3   OH2 9488   6.226   3.128   1.385
 3182TIP3    H1 9489   6.143   3.148   1.342
 3182TIP3    H2 9490   6.200   3.094   1.471
 3183TIP3   OH2 9491   1.070   7.009   2.883
 3183TIP3    H1 9492   1.033   7.015   2.971
 3183TIP3    H2 9493   1.052   7.094   2.844
 3184TIP3   OH2 9494   2.367   6.464   1.596
 3184TIP3    H1 9495   2.316   6.538   1.629
 3184TIP3    H2 9496   2.364   6.473   1.501
 3185TIP3   OH2 9497   1.584   4.143   2.347
 3185TIP3    H1 9498   1.603   4.074   2.410
 3185TIP3    H2 9499   1.662   4.147   2.292
 3186TIP3   OH2 9500   5.693   3.006   1.526
 3186TIP3    H1 9501   5.654   2.943   1.586
 3186TIP3    H2 9502   5.633   3.081   1.527
 3187TIP3   OH2 9503   5.218   4.065   1.212
 3187TIP3    H1 9504   5.146   4.061   1.150
 3187TIP3    H2 9505   5.267   4.144   1.188
 3188TIP3   OH2 9506   5.461   0.942   2.814
 3188TIP3    H1 9507   5.409   0.866   2.786
 3188TIP3    H2 9508   5.398   0.997   2.860
 3189TIP3   OH2 9509   8.045   5.427   5.082
 3189TIP3    H1 9510   8.017   5.336   5.077
 3189TIP3    H2 9511   8.134   5.427   5.047
 3190TIP3   OH2 9512   0.893   0.147   4.753
 3190TIP3    H1 9513   0.900   0.073   4.692
 3190TIP3    H2 9514   0.919   0.111   4.838
 3191TIP3   OH2 9515   6.334   6.945   6.313
 3191TIP3    H1 9516   6.369   6.857   6.312
 3191TIP3    H2 9517   6.247   6.937   6.273
 3192TIP3   OH2 9518   6.621   1.914   3.558
 3192TIP3    H1 9519   6.599   1.821   3.563
 3192TIP3    H2 9520   6.716   1.916   3.565
 3193TIP3   OH2 9521   1.539   1.696   0.203
 3193TIP3    H1 9522   1.497   1.622   0.248
 3193TIP3    H2 9523   1.499   1.773   0.242
 3194TIP3   OH2 9524   3.818   3.448   2.061
 3194TIP3    H1 9525   3.858   3.409   1.983
 3194TIP3    H2 9526   3.763   3.518   2.027
 3195TIP3   OH2 9527   3.769   3.362   6.389
 3195TIP3    H1 9528   3.688   3.393   6.429
 3195TIP3    H2 9529   3.742   3.301   6.322
 3196TIP3   OH2 9530   2.004   2.587   0.916
 3196TIP3    H1 9531   2.029   2.573   1.007
 3196TIP3    H2 9532   1.982   2.680   0.911
 3197TIP3   OH2 9533   8.040   3.162   5.114
 3197TIP3    H1 9534   7.945   3.168   5.105
 3197TIP3    H2 9535   8.072   3.250   5.091
 3198TIP3   OH2 9536   1.164   5.960   3.418
 3198TIP3    H1 9537   1.227   5.952   3.346
 3198TIP3    H2 9538   1.121   6.044   3.403
 3199TIP3   OH2 9539   1.393   2.719   3.893
 3199TIP3    H1 9540   1.389   2.637   3.941
 3199TIP3    H2 9541   1.379   2.693   3.801
 3200TIP3   OH2 9542   0.849   3.088   1.426
 3200TIP3    H1 9543   0.785   3.139   1.375
 3200TIP3    H2 9544   0.852   3.003   1.383
 3201TIP3   OH2 9545   0.424   6.108   0.705
 3201TIP3    H1 9546   0.333   6.135   0.697
 3201TIP3    H2 9547   0.473   6.173   0.655
 3202TIP3   OH2 9548   4.154   2.944   0.171
 3202TIP3    H1 9549   4.146   2.930   0.076
 3202TIP3    H2 9550   4.183   3.035   0.179
 3203TIP3   OH2 9551   2.068   3.083   0.950
 3203TIP3    H1 9552   2.154   3.102   0.988
 3203TIP3    H2 9553   2.059   3.145   0.878
 3204TIP3   OH2 9554   5.278   3.796   5.235
 3204TIP3    H1 9555   5.360   3.804   5.283
 3204TIP3    H2 9556   5.248   3.707   5.252
 3205TIP3   OH2 9557   6.339   2.712   6.046
 3205TIP3    H1 9558   6.272   2.733   5.980
 3205TIP3    H2 9559   6.417   2.692   5.995
 3206TIP3   OH2 9560   7.569   3.203   1.803
 3206TIP3    H1 9561   7.568   3.220   1.897
 3206TIP3    H2 9562   7.610   3.280   1.765
 3207TIP3   OH2 9563   7.982   5.234   1.903
 3207TIP3    H1 9564   7.942   5.318   1.927
 3207TIP3    H2 9565   7.928   5.203   1.831
 3208TIP3   OH2 9566   3.033   0.950   6.422
 3208TIP3    H1 9567   3.079   1.013   6.477
 3208TIP3    H2 9568   3.014   0.877   6.480
 3209TIP3   OH2 9569   7.621   0.565   1.535
 3209TIP3    H1 9570   7.553   0.624   1.568
 3209TIP3    H2 9571   7.611   0.569   1.440
 3210TIP3   OH2 9572   4.838   3.488   2.579
 3210TIP3    H1 9573   4.775   3.416   2.575
 3210TIP3    H2 9574   4.795   3.556   2.631
 3211TIP3   OH2 9575   0.871   1.680   0.209
 3211TIP3    H1 9576   0.822   1.648   0.133
 3211TIP3    H2 9577   0.949   1.625   0.213
 3212TIP3   OH2 9578   0.771   0.107   2.650
 3212TIP3    H1 9579   0.831   0.164   2.602
 3212TIP3    H2 9580   0.725   0.057   2.583
 3213TIP3   OH2 9581   1.811   1.859   5.895
 3213TIP3    H1 9582   1.807   1.950   5.926
 3213TIP3    H2 9583   1.898   1.852   5.855
 3214TIP3   OH2 9584   0.533   6.474   1.020
 3214TIP3    H1 9585   0.546   6.419   1.097
 3214TIP3    H2 9586   0.458   6.530   1.043
 3215TIP3   OH2 9587   7.003   6.179   6.704
 3215TIP3    H1 9588   7.095   6.182   6.677
 3215TIP3    H2 9589   7.005   6.156   6.796
 3216TIP3   OH2 9590   7.681   7.238   5.275
 3216TIP3    H1 9591   7.709   7.278   5.357
 3216TIP3    H2 9592   7.632   7.161   5.301
 3217TIP3   OH2 9593   1.731   4.648   6.665
 3217TIP3    H1 9594   1.640   4.629   6.641
 3217TIP3    H2 9595   1.761   4.568   6.708
 3218TIP3   OH2 9596   0.175   7.569   2.422
 3218TIP3    H1 9597   0.122   7.648   2.431
 3218TIP3    H2 9598   0.265   7.601   2.416
 3219TIP3   OH2 9599   1.831   0.416   2.991
 3219TIP3    H1 9600   1.828   0.386   2.900
 3219TIP3    H2 9601   1.820   0.336   3.043
 3220TIP3   OH2 9602   3.264   1.069   2.426
 3220TIP3    H1 9603   3.313   1.021   2.359
 3220TIP3    H2 9604   3.316   1.059   2.505
 3221TIP3   OH2 9605   1.146   1.941   0.833
 3221TIP3    H1 9606   1.175   1.851   0.847
 3221TIP3    H2 9607   1.091   1.937   0.755
 3222TIP3   OH2 9608   3.498   0.641   1.019
 3222TIP3    H1 9609   3.536   0.672   0.937
 3222TIP3    H2 9610   3.446   0.715   1.051
 3223TIP3   OH2 9611   0.286   2.152   1.194
 3223TIP3    H1 9612   0.293   2.132   1.101
 3223TIP3    H2 9613   0.377   2.162   1.223
 3224TIP3   OH2 9614   5.176   0.134   2.743
 3224TIP3    H1 9615   5.168   0.064   2.677
 3224TIP3    H2 9616   5.239   0.195   2.705
 3225TIP3   OH2 9617   7.838   4.200   1.668
 3225TIP3    H1 9618   7.804   4.265   1.729
 3225TIP3    H2 9619   7.905   4.152   1.717
 3226TIP3   OH2 9620   4.751   1.899   0.903
 3226TIP3    H1 9621   4.788   1.824   0.950
 3226TIP3    H2 9622   4.827   1.940   0.861
 3227TIP3   OH2 9623   0.954   1.060   2.289
 3227TIP3    H1 9624   1.013   1.072   2.215
 3227TIP3    H2 9625   0.870   1.036   2.249
 3228TIP3   OH2 9626   0.152   1.182   2.614
 3228TIP3    H1 9627   0.109   1.099   2.592
 3228TIP3    H2 9628   0.121   1.202   2.702
 3229TIP3   OH2 9629   5.299   7.223   1.393
 3229TIP3    H1 9630   5.205   7.215   1.377
 3229TIP3    H2 9631   5.306   7.257   1.482
 3230TIP3   OH2 9632   1.201   5.901   2.455
 3230TIP3    H1 9633   1.175   5.993   2.469
 3230TIP3    H2 9634   1.221   5.896   2.362
 3231TIP3   OH2 9635   2.399   7.458   2.656
 3231TIP3    H1 9636   2.333   7.422   2.596
 3231TIP3    H2 9637   2.483   7.433   2.618
 3232TIP3   OH2 9638   2.956   5.426   3.111
 3232TIP3    H1 9639   2.883   5.483   3.136
 3232TIP3    H2 9640   2.915   5.340   3.095
 3233TIP3   OH2 9641   3.565   6.330   4.382
 3233TIP3    H1 9642   3.598   6.367   4.464
 3233TIP3    H2 9643   3.477   6.366   4.373
 3234TIP3   OH2 9644   3.335   4.274   4.996
 3234TIP3    H1 9645   3.374   4.203   5.048
 3234TIP3    H2 9646   3.256   4.235   4.958
 3235TIP3   OH2 9647   5.982   4.696   3.663
 3235TIP3    H1 9648   6.048   4.752   3.622
 3235TIP3    H2 9649   6.032   4.623   3.699
 3236TIP3   OH2 9650   3.825   1.037   3.622
 3236TIP3    H1 9651   3.762   1.059   3.691
 3236TIP3    H2 9652   3.833   1.117   3.571
 3237TIP3   OH2 9653   1.772   3.103   0.709
 3237TIP3    H1 9654   1.710   3.164   0.669
 3237TIP3    H2 9655   1.858   3.135   0.681
 3238TIP3   OH2 9656   2.733   5.686   2.241
 3238TIP3    H1 9657   2.669   5.662   2.174
 3238TIP3    H2 9658   2.775   5.765   2.207
 3239TIP3   OH2 9659   6.954   4.682   4.575
 3239TIP3    H1 9660   6.894   4.694   4.650
 3239TIP3    H2 9661   7.017   4.754   4.584
 3240TIP3   OH2 9662   1.631   2.168   0.640
 3240TIP3    H1 9663   1.646   2.074   0.654
 3240TIP3    H2 9664   1.704   2.211   0.684
 3241TIP3   OH2 9665   3.108   7.125   0.767
 3241TIP3    H1 9666   3.132   7.032   0.760
 3241TIP3    H2 9667   3.085   7.151   0.678
 3242TIP3   OH2 9668   0.520   3.430   6.418
 3242TIP3    H1 9669   0.512   3.404   6.326
 3242TIP3    H2 9670   0.477   3.515   6.423
 3243TIP3   OH2 9671   1.356   1.090   6.392
 3243TIP3    H1 9672   1.299   1.029   6.345
 3243TIP3    H2 9673   1.363   1.053   6.480
 3244TIP3   OH2 9674   5.470   0.911   5.149
 3244TIP3    H1 9675   5.381   0.930   5.119
 3244TIP3    H2 9676   5.489   0.980   5.213
 3245TIP3   OH2 9677   0.542   0.868   4.807
 3245TIP3    H1 9678   0.585   0.790   4.773
 3245TIP3    H2 9679   0.454   0.867   4.769
 3246TIP3   OH2 9680   5.974   0.833   1.300
 3246TIP3    H1 9681   5.979   0.759   1.239
 3246TIP3    H2 9682   5.901   0.811   1.358
 3247TIP3   OH2 9683   4.408   7.463   5.361
 3247TIP3    H1 9684   4.500   7.488   5.374
 3247TIP3    H2 9685   4.359   7.519   5.421
 3248TIP3   OH2 9686   3.007   4.571   6.511
 3248TIP3    H1 9687   2.973   4.634   6.448
 3248TIP3    H2 9688   2.958   4.590   6.592
 3249TIP3   OH2 9689   7.468   0.795   1.598
 3249TIP3    H1 9690   7.549   0.846   1.585
 3249TIP3    H2 9691   7.398   0.853   1.569
 3250TIP3   OH2 9692   1.264   5.886   5.108
 3250TIP3    H1 9693   1.200   5.824   5.143
 3250TIP3    H2 9694   1.344   5.834   5.099
 3251TIP3   OH2 9695   1.455   3.681   5.758
 3251TIP3    H1 9696   1.482   3.599   5.799
 3251TIP3    H2 9697   1.533   3.711   5.711
 3252TIP3   OH2 9698   7.536   1.125   5.331
 3252TIP3    H1 9699   7.617   1.118   5.380
 3252TIP3    H2 9700   7.508   1.216   5.342
 3253TIP3   OH2 9701   1.193   2.110   5.869
 3253TIP3    H1 9702   1.147   2.188   5.840
 3253TIP3    H2 9703   1.201   2.056   5.790
 3254TIP3   OH2 9704   7.676   0.981   6.469
 3254TIP3    H1 9705   7.601   0.978   6.410
 3254TIP3    H2 9706   7.746   1.020   6.417
 3255TIP3   OH2 9707   6.795   5.649   5.108
 3255TIP3    H1 9708   6.707   5.652   5.071
 3255TIP3    H2 9709   6.829   5.737   5.096
 3256TIP3   OH2 9710   7.808   3.213   4.875
 3256TIP3    H1 9711   7.877   3.278   4.889
 3256TIP3    H2 9712   7.847   3.150   4.814
 3257TIP3   OH2 9713   5.436   1.048   0.187
 3257TIP3    H1 9714   5.501   0.979   0.168
 3257TIP3    H2 9715   5.361   1.025   0.133
 3258TIP3   OH2 9716   6.589   2.452   0.687
 3258TIP3    H1 9717   6.612   2.370   0.730
 3258TIP3    H2 9718   6.519   2.489   0.741
 3259TIP3   OH2 9719   7.571   1.791   3.618
 3259TIP3    H1 9720   7.576   1.761   3.527
 3259TIP3    H2 9721   7.487   1.838   3.623
 3260TIP3   OH2 9722   6.632   0.085   2.837
 3260TIP3    H1 9723   6.642   0.037   2.919
 3260TIP3    H2 9724   6.641   0.019   2.769
 3261TIP3   OH2 9725   4.590   1.464   5.615
 3261TIP3    H1 9726   4.656   1.510   5.564
 3261TIP3    H2 9727   4.517   1.451   5.555
 3262TIP3   OH2 9728   0.756   0.082   3.814
 3262TIP3    H1 9729   0.742  -0.013   3.813
 3262TIP3    H2 9730   0.673   0.119   3.784
 3263TIP3   OH2 9731   2.690   7.443   1.037
 3263TIP3    H1 9732   2.745   7.380   1.084
 3263TIP3    H2 9733   2.619   7.391   1.001
 3264TIP3   OH2 9734   1.388   0.341   4.879
 3264TIP3    H1 9735   1.314   0.399   4.895
 3264TIP3    H2 9736   1.457   0.374   4.936
 3265TIP3   OH2 9737   0.484   1.156   1.002
 3265TIP3    H1 9738   0.412   1.211   1.032
 3265TIP3    H2 9739   0.444   1.097   0.938
 3266TIP3   OH2 9740   7.290   6.602   0.537
 3266TIP3    H1 9741   7.238   6.658   0.480
 3266TIP3    H2 9742   7.295   6.650   0.620
 3267TIP3   OH2 9743   1.810   6.910   1.666
 3267TIP3    H1 9744   1.888   6.903   1.611
 3267TIP3    H2 9745   1.843   6.906   1.755
 3268TIP3   OH2 9746   4.323   5.599   1.962
 3268TIP3    H1 9747   4.305   5.675   1.906
 3268TIP3    H2 9748   4.239   5.580   2.005
 3269TIP3   OH2 9749   3.330   3.609   4.206
 3269TIP3    H1 9750   3.353   3.536   4.147
 3269TIP3    H2 9751   3.239   3.591   4.231
 3270TIP3   OH2 9752   2.609   4.686   0.451
 3270TIP3    H1 9753   2.644   4.730   0.528
 3270TIP3    H2 9754   2.611   4.752   0.382
 3271TIP3   OH2 9755   6.240   4.412   2.069
 3271TIP3    H1 9756   6.305   4.450   2.127
 3271TIP3    H2 9757   6.226   4.478   2.001
 3272TIP3   OH2 9758   6.965   6.078   3.159
 3272TIP3    H1 9759   7.037   6.016   3.147
 3272TIP3    H2 9760   6.984   6.148   3.097
 3273TIP3   OH2 9761   3.235   5.497   3.530
 3273TIP3    H1 9762   3.314   5.463   3.487
 3273TIP3    H2 9763   3.243   5.592   3.522
 3274TIP3   OH2 9764   6.672   5.399   6.122
 3274TIP3    H1 9765   6.666   5.482   6.075
 3274TIP3    H2 9766   6.596   5.399   6.180
 3275TIP3   OH2 9767   5.317   7.291   3.359
 3275TIP3    H1 9768   5.358   7.331   3.435
 3275TIP3    H2 9769   5.337   7.198   3.367
 3276TIP3   OH2 9770   7.252   7.359   2.234
 3276TIP3    H1 9771   7.253   7.273   2.194
 3276TIP3    H2 9772   7.196   7.412   2.176
 3277TIP3   OH2 9773   7.442   2.814   3.067
 3277TIP3    H1 9774   7.428   2.840   2.976
 3277TIP3    H2 9775   7.456   2.896   3.113
 3278TIP3   OH2 9776   5.538   4.653   5.668
 3278TIP3    H1 9777   5.576   4.605   5.742
 3278TIP3    H2 9778   5.448   4.621   5.663
 3279TIP3   OH2 9779   5.670   1.833   4.720
 3279TIP3    H1 9780   5.664   1.881   4.637
 3279TIP3    H2 9781   5.601   1.871   4.774
 3280TIP3   OH2 9782   2.275   3.084   5.246
 3280TIP3    H1 9783   2.276   3.045   5.159
 3280TIP3    H2 9784   2.358   3.131   5.252
 3281TIP3   OH2 9785   4.279   5.074   5.576
 3281TIP3    H1 9786   4.274   4.990   5.531
 3281TIP3    H2 9787   4.371   5.083   5.601
 3282TIP3   OH2 9788   4.648   1.448   4.150
 3282TIP3    H1 9789   4.609   1.423   4.234
 3282TIP3    H2 9790   4.630   1.373   4.093
 3283TIP3   OH2 9791   0.159   7.421   2.652
 3283TIP3    H1 9792   0.179   7.458   2.566
 3283TIP3    H2 9793   0.109   7.490   2.696
 3284TIP3   OH2 9794   4.354   6.875   0.016
 3284TIP3    H1 9795   4.359   6.869  -0.079
 3284TIP3    H2 9796   4.270   6.834   0.038
 3285TIP3   OH2 9797   0.960   5.329   5.003
 3285TIP3    H1 9798   0.935   5.262   4.940
 3285TIP3    H2 9799   0.911   5.306   5.082
 3286TIP3   OH2 9800   8.070   1.101   5.520
 3286TIP3    H1 9801   8.018   1.039   5.469
 3286TIP3    H2 9802   8.012   1.127   5.592
 3287TIP3   OH2 9803   1.463   1.706   3.845
 3287TIP3    H1 9804   1.433   1.684   3.757
 3287TIP3    H2 9805   1.383   1.720   3.895
 3288TIP3   OH2 9806   1.525   0.928   4.499
 3288TIP3    H1 9807   1.582   0.991   4.453
 3288TIP3    H2 9808   1.552   0.843   4.464
 3289TIP3   OH2 9809   4.426   6.802   0.328
 3289TIP3    H1 9810   4.430   6.789   0.233
 3289TIP3    H2 9811   4.400   6.716   0.363
 3290TIP3   OH2 9812   0.084   6.811   2.260
 3290TIP3    H1 9813   0.106   6.894   2.220
 3290TIP3    H2 9814   0.091   6.827   2.354
 3291TIP3   OH2 9815   0.360   4.230   5.434
 3291TIP3    H1 9816   0.372   4.139   5.459
 3291TIP3    H2 9817   0.437   4.251   5.381
 3292TIP3   OH2 9818   7.005   4.272   3.115
 3292TIP3    H1 9819   7.005   4.367   3.125
 3292TIP3    H2 9820   6.945   4.240   3.183
 3293TIP3   OH2 9821   1.853   0.933   5.828
 3293TIP3    H1 9822   1.864   0.933   5.923
 3293TIP3    H2 9823   1.813   1.018   5.809
 3294TIP3   OH2 9824   7.867   7.288   4.665
 3294TIP3    H1 9825   7.921   7.225   4.713
 3294TIP3    H2 9826   7.830   7.344   4.733
 3295TIP3   OH2 9827   5.265   1.827   1.287
 3295TIP3    H1 9828   5.202   1.838   1.215
 3295TIP3    H2 9829   5.345   1.796   1.245
 3296TIP3   OH2 9830   3.819   7.657   2.988
 3296TIP3    H1 9831   3.812   7.609   2.906
 3296TIP3    H2 9832   3.895   7.619   3.032
 3297TIP3   OH2 9833   7.712   2.834   3.352
 3297TIP3    H1 9834   7.656   2.785   3.412
 3297TIP3    H2 9835   7.651   2.873   3.289
 3298TIP3   OH2 9836   7.115   0.705   3.493
 3298TIP3    H1 9837   7.075   0.645   3.555
 3298TIP3    H2 9838   7.209   0.693   3.505
 3299TIP3   OH2 9839   5.168   0.729   4.215
 3299TIP3    H1 9840   5.238   0.734   4.280
 3299TIP3    H2 9841   5.154   0.635   4.203
 3300TIP3   OH2 9842   3.813   1.174   4.619
 3300TIP3    H1 9843   3.885   1.144   4.563
 3300TIP3    H2 9844   3.854   1.229   4.685
 3301TIP3   OH2 9845   0.066   7.582   3.737
 3301TIP3    H1 9846  -0.008   7.619   3.689
 3301TIP3    H2 9847   0.063   7.624   3.823
 3302TIP3   OH2 9848   7.065   5.141   5.042
 3302TIP3    H1 9849   7.039   5.194   5.118
 3302TIP3    H2 9850   7.124   5.197   4.992
 3303TIP3   OH2 9851   5.957   2.939   5.757
 3303TIP3    H1 9852   5.940   2.996   5.832
 3303TIP3    H2 9853   5.876   2.940   5.707
 3304TIP3   OH2 9854   2.599   3.299   6.008
 3304TIP3    H1 9855   2.564   3.356   5.940
 3304TIP3    H2 9856   2.590   3.350   6.089
 3305TIP3   OH2 9857   6.530   7.481   3.185
 3305TIP3    H1 9858   6.435   7.469   3.185
 3305TIP3    H2 9859   6.550   7.519   3.100
 3306TIP3   OH2 9860   1.989   0.892   5.445
 3306TIP3    H1 9861   2.045   0.901   5.368
 3306TIP3    H2 9862   2.001   0.974   5.493
 3307TIP3   OH2 9863   4.696   1.267   6.235
 3307TIP3    H1 9864   4.755   1.300   6.303
 3307TIP3    H2 9865   4.626   1.222   6.283
 3308TIP3   OH2 9866   5.550   6.542   0.048
 3308TIP3    H1 9867   5.466   6.526   0.091
 3308TIP3    H2 9868   5.564   6.636   0.059
 3309TIP3   OH2 9869   7.389   0.697   2.144
 3309TIP3    H1 9870   7.471   0.739   2.171
 3309TIP3    H2 9871   7.380   0.622   2.202
 3310TIP3   OH2 9872   8.292   0.681   4.960
 3310TIP3    H1 9873   8.309   0.772   4.937
 3310TIP3    H2 9874   8.219   0.655   4.903
 3311TIP3   OH2 9875   3.102   1.150   2.903
 3311TIP3    H1 9876   3.019   1.177   2.863
 3311TIP3    H2 9877   3.120   1.217   2.968
 3312TIP3   OH2 9878   8.034   2.077   2.197
 3312TIP3    H1 9879   8.017   1.988   2.165
 3312TIP3    H2 9880   8.029   2.070   2.292
 3313TIP3   OH2 9881   1.248   2.541   1.703
 3313TIP3    H1 9882   1.166   2.492   1.713
 3313TIP3    H2 9883   1.317   2.476   1.713
 3314TIP3   OH2 9884  -0.001   3.533   3.621
 3314TIP3    H1 9885  -0.035   3.453   3.660
 3314TIP3    H2 9886   0.086   3.544   3.660
 3315TIP3   OH2 9887   7.726   4.250   3.312
 3315TIP3    H1 9888   7.717   4.343   3.289
 3315TIP3    H2 9889   7.801   4.247   3.370
 3316TIP3   OH2 9890   7.197   6.256   5.528
 3316TIP3    H1 9891   7.175   6.349   5.535
 3316TIP3    H2 9892   7.151   6.215   5.601
 3317TIP3   OH2 9893   2.916   7.700   1.497
 3317TIP3    H1 9894   2.961   7.650   1.566
 3317TIP3    H2 9895   2.916   7.790   1.528
 3318TIP3   OH2 9896   2.920   0.952   2.984
 3318TIP3    H1 9897   2.925   1.021   3.050
 3318TIP3    H2 9898   3.005   0.955   2.941
 3319TIP3   OH2 9899   3.675   4.105   1.472
 3319TIP3    H1 9900   3.743   4.047   1.505
 3319TIP3    H2 9901   3.722   4.175   1.426
 3320TIP3   OH2 9902   2.331   0.088   5.959
 3320TIP3    H1 9903   2.342   0.074   5.864
 3320TIP3    H2 9904   2.419   0.110   5.990
 3321TIP3   OH2 9905   6.466   4.406   6.451
 3321TIP3    H1 9906   6.436   4.494   6.426
 3321TIP3    H2 9907   6.441   4.351   6.377
 3322TIP3   OH2 9908   2.357   0.615   0.368
 3322TIP3    H1 9909   2.315   0.690   0.325
 3322TIP3    H2 9910   2.294   0.544   0.360
 3323TIP3   OH2 9911   0.818   6.395   0.113
 3323TIP3    H1 9912   0.815   6.438   0.199
 3323TIP3    H2 9913   0.799   6.303   0.133
 3324TIP3   OH2 9914   0.668   5.402   6.181
 3324TIP3    H1 9915   0.703   5.489   6.200
 3324TIP3    H2 9916   0.577   5.406   6.212
 3325TIP3   OH2 9917   8.016   5.817   0.005
 3325TIP3    H1 9918   7.987   5.783   0.090
 3325TIP3    H2 9919   7.956   5.778  -0.058
 3326TIP3   OH2 9920   2.905   5.452   4.027
 3326TIP3    H1 9921   2.994   5.422   4.006
 3326TIP3    H2 9922   2.868   5.382   4.080
 3327TIP3   OH2 9923   5.149   5.939   0.472
 3327TIP3    H1 9924   5.241   5.929   0.495
 3327TIP3    H2 9925   5.146   6.020   0.421
 3328TIP3   OH2 9926   1.894   0.570   4.732
 3328TIP3    H1 9927   1.936   0.652   4.710
 3328TIP3    H2 9928   1.815   0.595   4.781
 3329TIP3   OH2 9929   5.201   2.375   5.543
 3329TIP3    H1 9930   5.253   2.441   5.591
 3329TIP3    H2 9931   5.110   2.402   5.557
 3330TIP3   OH2 9932   3.063   7.221   3.218
 3330TIP3    H1 9933   3.043   7.314   3.207
 3330TIP3    H2 9934   3.146   7.209   3.172
 3331TIP3   OH2 9935   3.739   4.789   6.421
 3331TIP3    H1 9936   3.800   4.863   6.422
 3331TIP3    H2 9937   3.763   4.737   6.498
 3332TIP3   OH2 9938   4.964   6.511   3.880
 3332TIP3    H1 9939   4.938   6.420   3.895
 3332TIP3    H2 9940   5.041   6.523   3.935
 3333TIP3   OH2 9941   7.534   2.547   5.011
 3333TIP3    H1 9942   7.607   2.609   5.011
 3333TIP3    H2 9943   7.554   2.488   4.938
 3334TIP3   OH2 9944   6.598   2.455   2.039
 3334TIP3    H1 9945   6.582   2.550   2.040
 3334TIP3    H2 9946   6.622   2.436   1.948
 3335TIP3   OH2 9947   2.594   2.205   2.788
 3335TIP3    H1 9948   2.504   2.192   2.819
 3335TIP3    H2 9949   2.584   2.249   2.704
 3336TIP3   OH2 9950   3.728   5.938   3.327
 3336TIP3    H1 9951   3.721   5.957   3.421
 3336TIP3    H2 9952   3.762   5.849   3.323
 3337TIP3   OH2 9953   3.982   1.285   5.693
 3337TIP3    H1 9954   4.020   1.349   5.754
 3337TIP3    H2 9955   3.996   1.200   5.736
 3338TIP3   OH2 9956   4.036   7.816   0.787
 3338TIP3    H1 9957   4.112   7.802   0.731
 3338TIP3    H2 9958   4.068   7.800   0.876
 3339TIP3   OH2 9959   4.369   0.634   4.658
 3339TIP3    H1 9960   4.404   0.648   4.746
 3339TIP3    H2 9961   4.369   0.539   4.647
 3340TIP3   OH2 9962   8.234   7.301   5.889
 3340TIP3    H1 9963   8.295   7.324   5.959
 3340TIP3    H2 9964   8.212   7.209   5.906
 3341TIP3   OH2 9965   2.033   4.067   4.877
 3341TIP3    H1 9966   2.013   4.008   4.950
 3341TIP3    H2 9967   1.960   4.129   4.876
 3342TIP3   OH2 9968   4.495   0.367   5.063
 3342TIP3    H1 9969   4.499   0.434   5.131
 3342TIP3    H2 9970   4.586   0.350   5.040
 3343TIP3   OH2 9971   5.129   4.954   1.260
 3343TIP3    H1 9972   5.165   4.988   1.178
 3343TIP3    H2 9973   5.190   4.984   1.327
 3344TIP3   OH2 9974   2.205   4.754   6.515
 3344TIP3    H1 9975   2.157   4.724   6.593
 3344TIP3    H2 9976   2.190   4.685   6.450
 3345TIP3   OH2 9977   1.701   6.096   1.243
 3345TIP3    H1 9978   1.634   6.158   1.270
 3345TIP3    H2 9979   1.741   6.066   1.325
 3346TIP3   OH2 9980   7.062   5.979   4.121
 3346TIP3    H1 9981   6.966   5.974   4.118
 3346TIP3    H2 9982   7.082   6.069   4.097
 3347TIP3   OH2 9983   1.765   0.421   5.334
 3347TIP3    H1 9984   1.712   0.426   5.255
 3347TIP3    H2 9985   1.727   0.349   5.384
 3348TIP3   OH2 9986   5.657   4.390   5.292
 3348TIP3    H1 9987   5.579   4.342   5.264
 3348TIP3    H2 9988   5.644   4.403   5.386
 3349TIP3   OH2 9989   5.174   0.394   0.743
 3349TIP3    H1 9990   5.245   0.421   0.685
 3349TIP3    H2 9991   5.204   0.419   0.831
 3350TIP3   OH2 9992   0.559   2.597   3.324
 3350TIP3    H1 9993   0.574   2.648   3.244
 3350TIP3    H2 9994   0.481   2.635   3.363
 3351TIP3   OH2 9995   5.785   1.033   5.505
 3351TIP3    H1 9996   5.826   0.951   5.477
 3351TIP3    H2 9997   5.837   1.062   5.580
 3352TIP3   OH2 9998   2.522   4.228   4.974
 3352TIP3    H1 9999   2.486   4.142   4.996
 3352TIP3    H210000   2.450   4.274   4.931
 3353TIP3   OH210001   5.516   6.303   4.792
 3353TIP3    H110002   5.467   6.385   4.794
 3353TIP3    H210003   5.564   6.302   4.875
 3354TIP3   OH210004   0.230   5.202   0.760
 3354TIP3    H110005   0.214   5.147   0.837
 3354TIP3    H210006   0.178   5.280   0.775
 3355TIP3   OH210007   6.904   2.275   0.811
 3355TIP3    H110008   6.960   2.220   0.865
 3355TIP3    H210009   6.839   2.311   0.872
 3356TIP3   OH210010   3.532   0.641   2.514
 3356TIP3    H110011   3.503   0.628   2.604
 3356TIP3    H210012   3.564   0.555   2.487
 3357TIP3   OH210013   4.372   0.097   5.625
 3357TIP3    H110014   4.464   0.098   5.652
 3357TIP3    H210015   4.340   0.010   5.651
 3358TIP3   OH210016   1.546   5.869   1.212
 3358TIP3    H110017   1.579   5.958   1.200
 3358TIP3    H210018   1.554   5.829   1.125
 3359TIP3   OH210019   6.413   4.130   1.019
 3359TIP3    H110020   6.390   4.139   0.927
 3359TIP3    H210021   6.387   4.214   1.058
 3360TIP3   OH210022   6.654   0.759   5.338
 3360TIP3    H110023   6.583   0.727   5.282
 3360TIP3    H210024   6.712   0.806   5.278
 3361TIP3   OH210025   0.504   6.136   3.205
 3361TIP3    H110026   0.537   6.192   3.275
 3361TIP3    H210027   0.422   6.099   3.239
 3362TIP3   OH210028   1.199   1.136   0.649
 3362TIP3    H110029   1.234   1.225   0.655
 3362TIP3    H210030   1.140   1.129   0.725
 3363TIP3   OH210031   3.672   3.905   5.903
 3363TIP3    H110032   3.674   3.921   5.997
 3363TIP3    H210033   3.658   3.991   5.864
 3364TIP3   OH210034   0.656   6.392   2.918
 3364TIP3    H110035   0.567   6.361   2.935
 3364TIP3    H210036   0.688   6.337   2.846
 3365TIP3   OH210037   4.227   1.852   3.876
 3365TIP3    H110038   4.249   1.937   3.913
 3365TIP3    H210039   4.217   1.794   3.951
 3366TIP3   OH210040   2.328   2.229   0.100
 3366TIP3    H110041   2.340   2.265   0.012
 3366TIP3    H210042   2.417   2.223   0.136
 3367TIP3   OH210043   7.213   6.046   5.279
 3367TIP3    H110044   7.130   6.006   5.305
 3367TIP3    H210045   7.256   6.068   5.361
 3368TIP3   OH210046   4.146   5.172   5.093
 3368TIP3    H110047   4.077   5.194   5.155
 3368TIP3    H210048   4.122   5.219   5.013
 3369TIP3   OH210049   3.466   5.809   3.371
 3369TIP3    H110050   3.431   5.781   3.455
 3369TIP3    H210051   3.432   5.898   3.360
 3370TIP3   OH210052   1.898   5.896   2.661
 3370TIP3    H110053   1.980   5.944   2.661
 3370TIP3    H210054   1.887   5.867   2.570
 3371TIP3   OH210055   7.852   5.175   3.525
 3371TIP3    H110056   7.925   5.225   3.489
 3371TIP3    H210057   7.808   5.237   3.583
 3372TIP3   OH210058   2.820   4.436   2.902
 3372TIP3    H110059   2.797   4.357   2.951
 3372TIP3    H210060   2.916   4.434   2.897
 3373TIP3   OH210061   1.353   4.871   2.309
 3373TIP3    H110062   1.393   4.872   2.222
 3373TIP3    H210063   1.373   4.784   2.343
 3374TIP3   OH210064   2.414   3.124   2.797
 3374TIP3    H110065   2.330   3.161   2.824
 3374TIP3    H210066   2.407   3.114   2.702
 3375TIP3   OH210067   7.991   5.961   6.339
 3375TIP3    H110068   8.058   6.029   6.328
 3375TIP3    H210069   7.966   5.938   6.250
 3376TIP3   OH210070   8.051   4.738   2.130
 3376TIP3    H110071   8.005   4.773   2.054
 3376TIP3    H210072   8.076   4.650   2.104
 3377TIP3   OH210073   0.135   1.337   0.314
 3377TIP3    H110074   0.053   1.361   0.356
 3377TIP3    H210075   0.118   1.347   0.220
 3378TIP3   OH210076   1.316   0.038   4.698
 3378TIP3    H110077   1.306  -0.056   4.687
 3378TIP3    H210078   1.360   0.067   4.618
 3379TIP3   OH210079   3.641   0.583   3.044
 3379TIP3    H110080   3.712   0.611   3.102
 3379TIP3    H210081   3.594   0.664   3.024
 3380TIP3   OH210082   4.735   1.421   6.699
 3380TIP3    H110083   4.715   1.506   6.739
 3380TIP3    H210084   4.824   1.401   6.729
 3381TIP3   OH210085   6.786   3.497   4.755
 3381TIP3    H110086   6.703   3.466   4.790
 3381TIP3    H210087   6.835   3.526   4.832
 3382TIP3   OH210088   3.844   4.276   3.863
 3382TIP3    H110089   3.927   4.293   3.908
 3382TIP3    H210090   3.847   4.183   3.842
 3383TIP3   OH210091   2.750   3.179   0.084
 3383TIP3    H110092   2.728   3.270   0.065
 3383TIP3    H210093   2.681   3.150   0.143
 3384TIP3   OH210094   8.063   1.624   1.003
 3384TIP3    H110095   8.140   1.634   1.059
 3384TIP3    H210096   8.094   1.647   0.916
 3385TIP3   OH210097   4.114   2.265   5.643
 3385TIP3    H110098   4.097   2.184   5.596
 3385TIP3    H210099   4.028   2.296   5.671
 3386TIP3   OH210100   4.013   0.628   4.247
 3386TIP3    H110101   4.068   0.687   4.298
 3386TIP3    H210102   4.036   0.541   4.278
 3387TIP3   OH210103   6.251   0.697   2.204
 3387TIP3    H110104   6.264   0.602   2.205
 3387TIP3    H210105   6.310   0.730   2.272
 3388TIP3   OH210106   2.325   3.581   3.494
 3388TIP3    H110107   2.328   3.625   3.409
 3388TIP3    H210108   2.399   3.618   3.542
 3389TIP3   OH210109   4.797   2.136   2.441
 3389TIP3    H110110   4.852   2.205   2.478
 3389TIP3    H210111   4.710   2.152   2.480
 3390TIP3   OH210112   0.485   2.042   2.901
 3390TIP3    H110113   0.571   2.056   2.861
 3390TIP3    H210114   0.475   1.947   2.903
 3391TIP3   OH210115   7.233   0.329   6.258
 3391TIP3    H110116   7.283   0.406   6.286
 3391TIP3    H210117   7.215   0.281   6.339
 3392TIP3   OH210118   7.364   5.927   0.210
 3392TIP3    H110119   7.344   5.849   0.263
 3392TIP3    H210120   7.409   5.986   0.270
 3393TIP3   OH210121   5.558   1.838   1.196
 3393TIP3    H110122   5.527   1.845   1.106
 3393TIP3    H210123   5.545   1.926   1.232
 3394TIP3   OH210124   5.275   7.691   5.725
 3394TIP3    H110125   5.313   7.642   5.653
 3394TIP3    H210126   5.189   7.651   5.739
 3395TIP3   OH210127   5.402   3.636   2.739
 3395TIP3    H110128   5.339   3.691   2.786
 3395TIP3    H210129   5.443   3.695   2.676
 3396TIP3   OH210130   0.407   4.000   4.919
 3396TIP3    H110131   0.437   3.915   4.886
 3396TIP3    H210132   0.356   3.978   4.998
 3397TIP3   OH210133   0.783   6.112   1.380
 3397TIP3    H110134   0.823   6.027   1.400
 3397TIP3    H210135   0.727   6.096   1.305
 3398TIP3   OH210136   4.381   7.564   2.242
 3398TIP3    H110137   4.358   7.642   2.191
 3398TIP3    H210138   4.362   7.589   2.333
 3399TIP3   OH210139   2.127   5.943   4.813
 3399TIP3    H110140   2.047   5.892   4.825
 3399TIP3    H210141   2.102   6.013   4.752
 3400TIP3   OH210142   8.105   3.639   5.432
 3400TIP3    H110143   8.020   3.594   5.425
 3400TIP3    H210144   8.168   3.574   5.401
 3401TIP3   OH210145   7.132   3.155   4.957
 3401TIP3    H110146   7.069   3.117   4.896
 3401TIP3    H210147   7.207   3.180   4.902
 3402TIP3   OH210148   4.168   0.189   1.932
 3402TIP3    H110149   4.111   0.123   1.972
 3402TIP3    H210150   4.237   0.204   1.996
 3403TIP3   OH210151   1.318   1.585   4.971
 3403TIP3    H110152   1.287   1.675   4.980
 3403TIP3    H210153   1.308   1.548   5.059
 3404TIP3   OH210154   7.841   6.262   2.696
 3404TIP3    H110155   7.928   6.297   2.673
 3404TIP3    H210156   7.817   6.207   2.621
 3405TIP3   OH210157   6.730   5.743   5.439
 3405TIP3    H110158   6.749   5.657   5.476
 3405TIP3    H210159   6.813   5.790   5.445
 3406TIP3   OH210160   1.502   6.772   5.396
 3406TIP3    H110161   1.468   6.716   5.327
 3406TIP3    H210162   1.572   6.822   5.354
 3407TIP3   OH210163   4.416   2.693   4.966
 3407TIP3    H110164   4.402   2.751   4.891
 3407TIP3    H210165   4.405   2.605   4.931
 3408TIP3   OH210166   1.121   6.379   0.233
 3408TIP3    H110167   1.170   6.389   0.315
 3408TIP3    H210168   1.188   6.369   0.166
 3409TIP3   OH210169   6.170   6.259   2.326
 3409TIP3    H110170   6.131   6.191   2.273
 3409TIP3    H210171   6.175   6.335   2.268
 3410TIP3   OH210172   6.786   1.646   1.653
 3410TIP3    H110173   6.769   1.557   1.685
 3410TIP3    H210174   6.881   1.656   1.661
 3411TIP3   OH210175   5.223   4.280   2.898
 3411TIP3    H110176   5.183   4.262   2.983
 3411TIP3    H210177   5.186   4.364   2.872
 3412TIP3   OH210178   5.883   3.293   6.494
 3412TIP3    H110179   5.833   3.368   6.463
 3412TIP3    H210180   5.939   3.269   6.420
 3413TIP3   OH210181   3.121   7.086   3.700
 3413TIP3    H110182   3.137   7.170   3.742
 3413TIP3    H210183   3.025   7.076   3.702
 3414TIP3   OH210184   4.203   0.245   2.873
 3414TIP3    H110185   4.168   0.333   2.864
 3414TIP3    H210186   4.250   0.246   2.956
 3415TIP3   OH210187   5.096   5.281   1.595
 3415TIP3    H110188   5.175   5.276   1.541
 3415TIP3    H210189   5.073   5.190   1.611
 3416TIP3   OH210190   0.449   6.042   2.237
 3416TIP3    H110191   0.449   6.137   2.253
 3416TIP3    H210192   0.484   6.033   2.149
 3417TIP3   OH210193   2.378   0.406   4.765
 3417TIP3    H110194   2.458   0.454   4.788
 3417TIP3    H210195   2.307   0.467   4.785
 3418TIP3   OH210196   4.507   5.459   5.768
 3418TIP3    H110197   4.445   5.491   5.833
 3418TIP3    H210198   4.593   5.481   5.803
 3419TIP3   OH210199   7.172   4.117   5.502
 3419TIP3    H110200   7.185   4.032   5.546
 3419TIP3    H210201   7.107   4.161   5.556
 3420TIP3   OH210202   4.028   7.033   0.019
 3420TIP3    H110203   4.043   7.109   0.075
 3420TIP3    H210204   3.935   7.039  -0.004
 3421TIP3   OH210205   8.207   6.524   4.787
 3421TIP3    H110206   8.266   6.550   4.716
 3421TIP3    H210207   8.146   6.597   4.795
 3422TIP3   OH210208   6.234   1.354   6.516
 3422TIP3    H110209   6.285   1.301   6.455
 3422TIP3    H210210   6.156   1.379   6.468
 3423TIP3   OH210211   3.738   1.058   0.668
 3423TIP3    H110212   3.649   1.062   0.634
 3423TIP3    H210213   3.750   1.140   0.715
 3424TIP3   OH210214   8.189   4.860   3.616
 3424TIP3    H110215   8.231   4.812   3.544
 3424TIP3    H210216   8.137   4.928   3.573
 3425TIP3   OH210217   8.064   7.735   4.489
 3425TIP3    H110218   7.993   7.721   4.427
 3425TIP3    H210219   8.039   7.814   4.537
 3426TIP3   OH210220   6.321   6.561   0.180
 3426TIP3    H110221   6.296   6.489   0.122
 3426TIP3    H210222   6.410   6.583   0.153
 3427TIP3   OH210223   3.664   1.159   3.300
 3427TIP3    H110224   3.710   1.130   3.222
 3427TIP3    H210225   3.614   1.082   3.328
 3428TIP3   OH210226   8.052   0.436   1.163
 3428TIP3    H110227   8.128   0.490   1.139
 3428TIP3    H210228   8.090   0.356   1.198
 3429TIP3   OH210229   0.968   2.970   3.064
 3429TIP3    H110230   0.886   2.999   3.025
 3429TIP3    H210231   0.947   2.951   3.155
 3430TIP3   OH210232   4.330   4.192   4.484
 3430TIP3    H110233   4.352   4.204   4.576
 3430TIP3    H210234   4.328   4.097   4.472
 3431TIP3   OH210235   2.894   2.714   5.799
 3431TIP3    H110236   2.974   2.661   5.803
 3431TIP3    H210237   2.841   2.672   5.730
 3432TIP3   OH210238   1.797   3.531   5.198
 3432TIP3    H110239   1.850   3.453   5.178
 3432TIP3    H210240   1.778   3.523   5.291
 3433TIP3   OH210241   7.040   2.916   5.339
 3433TIP3    H110242   7.113   2.877   5.388
 3433TIP3    H210243   7.081   2.983   5.285
 3434TIP3   OH210244   5.807   3.080   6.203
 3434TIP3    H110245   5.814   3.146   6.135
 3434TIP3    H210246   5.893   3.078   6.245
 3435TIP3   OH210247   1.328   6.316   5.703
 3435TIP3    H110248   1.342   6.260   5.779
 3435TIP3    H210249   1.251   6.368   5.725
 3436TIP3   OH210250   5.052   5.701   3.512
 3436TIP3    H110251   5.099   5.617   3.520
 3436TIP3    H210252   4.988   5.698   3.583
 3437TIP3   OH210253   5.263   6.931   0.397
 3437TIP3    H110254   5.296   7.004   0.450
 3437TIP3    H210255   5.335   6.868   0.395
 3438TIP3   OH210256   2.228   2.159   0.623
 3438TIP3    H110257   2.317   2.183   0.645
 3438TIP3    H210258   2.217   2.184   0.531
 3439TIP3   OH210259   0.965   6.996   3.465
 3439TIP3    H110260   1.048   6.995   3.417
 3439TIP3    H210261   0.989   7.024   3.553
 3440TIP3   OH210262   1.471   0.309   1.533
 3440TIP3    H110263   1.532   0.322   1.460
 3440TIP3    H210264   1.453   0.215   1.533
 3441TIP3   OH210265   4.192   6.743   4.763
 3441TIP3    H110266   4.206   6.837   4.771
 3441TIP3    H210267   4.158   6.731   4.674
 3442TIP3   OH210268   0.920   7.099   5.856
 3442TIP3    H110269   0.854   7.124   5.791
 3442TIP3    H210270   0.888   7.136   5.938
 3443TIP3   OH210271   5.471   1.183   6.375
 3443TIP3    H110272   5.419   1.256   6.409
 3443TIP3    H210273   5.420   1.105   6.397
 3444TIP3   OH210274   2.076   1.158   2.763
 3444TIP3    H110275   2.108   1.142   2.675
 3444TIP3    H210276   2.124   1.235   2.793
 3445TIP3   OH210277   0.408   0.387   3.924
 3445TIP3    H110278   0.388   0.294   3.933
 3445TIP3    H210279   0.472   0.391   3.853
 3446TIP3   OH210280   5.902   0.801   5.578
 3446TIP3    H110281   5.820   0.755   5.592
 3446TIP3    H210282   5.960   0.736   5.538
 3447TIP3   OH210283   3.851   7.035   2.153
 3447TIP3    H110284   3.826   7.040   2.246
 3447TIP3    H210285   3.946   7.045   2.154
 3448TIP3   OH210286   5.142   0.787   6.412
 3448TIP3    H110287   5.111   0.724   6.347
 3448TIP3    H210288   5.205   0.738   6.465
 3449TIP3   OH210289   3.238   7.129   4.038
 3449TIP3    H110290   3.182   7.160   4.109
 3449TIP3    H210291   3.224   7.190   3.967
 3450TIP3   OH210292   0.327   1.605   1.751
 3450TIP3    H110293   0.382   1.531   1.727
 3450TIP3    H210294   0.386   1.680   1.751
 3451TIP3   OH210295   4.598   0.063   1.026
 3451TIP3    H110296   4.596   0.158   1.015
 3451TIP3    H210297   4.682   0.036   0.991
 3452TIP3   OH210298   3.550   1.628   4.417
 3452TIP3    H110299   3.571   1.540   4.447
 3452TIP3    H210300   3.607   1.686   4.468
 3453TIP3   OH210301   3.648   5.305   1.628
 3453TIP3    H110302   3.614   5.323   1.540
 3453TIP3    H210303   3.597   5.230   1.659
 3454TIP3   OH210304   2.612   7.640   4.781
 3454TIP3    H110305   2.679   7.604   4.839
 3454TIP3    H210306   2.583   7.565   4.729
 3455TIP3   OH210307   2.832   1.437   1.928
 3455TIP3    H110308   2.910   1.481   1.894
 3455TIP3    H210309   2.802   1.381   1.856
 3456TIP3   OH210310   1.748   3.096   5.310
 3456TIP3    H110311   1.721   3.183   5.281
 3456TIP3    H210312   1.728   3.094   5.403
 3457TIP3   OH210313   6.180   2.519   6.322
 3457TIP3    H110314   6.249   2.552   6.379
 3457TIP3    H210315   6.186   2.424   6.330
 3458TIP3   OH210316   4.164   1.141   0.213
 3458TIP3    H110317   4.230   1.210   0.223
 3458TIP3    H210318   4.083   1.181   0.243
 3459TIP3   OH210319   7.039   1.235   4.518
 3459TIP3    H110320   6.951   1.271   4.532
 3459TIP3    H210321   7.042   1.214   4.424
 3460TIP3   OH210322   6.223   5.114   1.224
 3460TIP3    H110323   6.209   5.201   1.185
 3460TIP3    H210324   6.201   5.053   1.154
 3461TIP3   OH210325   4.149   3.740   4.011
 3461TIP3    H110326   4.091   3.767   4.083
 3461TIP3    H210327   4.216   3.809   4.008
 3462TIP3   OH210328   5.934   2.329   5.633
 3462TIP3    H110329   5.908   2.380   5.556
 3462TIP3    H210330   5.912   2.239   5.610
 3463TIP3   OH210331   1.033   2.961   2.131
 3463TIP3    H110332   1.077   2.893   2.079
 3463TIP3    H210333   1.013   3.030   2.067
 3464TIP3   OH210334   5.073   1.287   0.854
 3464TIP3    H110335   5.107   1.252   0.771
 3464TIP3    H210336   5.129   1.363   0.871
 3465TIP3   OH210337   5.057   1.209   3.101
 3465TIP3    H110338   5.102   1.192   3.183
 3465TIP3    H210339   5.001   1.133   3.087
 3466TIP3   OH210340   0.385   5.883   3.599
 3466TIP3    H110341   0.363   5.972   3.571
 3466TIP3    H210342   0.338   5.827   3.537
 3467TIP3   OH210343   1.059   2.966   1.167
 3467TIP3    H110344   1.061   2.926   1.080
 3467TIP3    H210345   1.046   3.059   1.150
 3468TIP3   OH210346   6.865   4.538   2.606
 3468TIP3    H110347   6.824   4.461   2.566
 3468TIP3    H210348   6.935   4.561   2.545
 3469TIP3   OH210349   7.896   1.110   3.207
 3469TIP3    H110350   7.902   1.036   3.147
 3469TIP3    H210351   7.936   1.079   3.288
 3470TIP3   OH210352   0.778   0.678   1.325
 3470TIP3    H110353   0.783   0.638   1.412
 3470TIP3    H210354   0.707   0.742   1.332
 3471TIP3   OH210355   0.693   0.697   3.589
 3471TIP3    H110356   0.788   0.709   3.577
 3471TIP3    H210357   0.654   0.768   3.538
 3472TIP3   OH210358   7.666   1.798   4.545
 3472TIP3    H110359   7.726   1.825   4.615
 3472TIP3    H210360   7.619   1.722   4.582
 3473TIP3   OH210361   3.036   1.903   3.219
 3473TIP3    H110362   3.101   1.965   3.186
 3473TIP3    H210363   2.958   1.921   3.167
 3474TIP3   OH210364   1.806   0.790   1.294
 3474TIP3    H110365   1.844   0.727   1.233
 3474TIP3    H210366   1.801   0.743   1.377
 3475TIP3   OH210367   0.076   2.789   0.704
 3475TIP3    H110368   0.073   2.882   0.680
 3475TIP3    H210369  -0.012   2.757   0.683
 3476TIP3   OH210370   1.664   3.181   6.421
 3476TIP3    H110371   1.730   3.231   6.470
 3476TIP3    H210372   1.582   3.199   6.467
 3477TIP3   OH210373   1.353   2.327   0.235
 3477TIP3    H110374   1.434   2.378   0.240
 3477TIP3    H210375   1.330   2.328   0.142
 3478TIP3   OH210376   6.586   0.812   6.422
 3478TIP3    H110377   6.624   0.737   6.376
 3478TIP3    H210378   6.576   0.879   6.354
 3479TIP3   OH210379   3.586   5.079   6.428
 3479TIP3    H110380   3.605   5.137   6.501
 3479TIP3    H210381   3.541   5.135   6.364
 3480TIP3   OH210382   2.776   0.714   2.934
 3480TIP3    H110383   2.798   0.638   2.988
 3480TIP3    H210384   2.814   0.789   2.981
 3481TIP3   OH210385   7.061   7.228   4.602
 3481TIP3    H110386   7.112   7.240   4.521
 3481TIP3    H210387   6.970   7.243   4.575
 3482TIP3   OH210388   1.437   7.028   5.140
 3482TIP3    H110389   1.479   7.109   5.169
 3482TIP3    H210390   1.374   7.008   5.210
 3483TIP3   OH210391   4.743   2.374   3.561
 3483TIP3    H110392   4.662   2.421   3.538
 3483TIP3    H210393   4.813   2.430   3.527
 3484TIP3   OH210394   2.185   5.821   0.023
 3484TIP3    H110395   2.247   5.749   0.025
 3484TIP3    H210396   2.104   5.785   0.061
 3485TIP3   OH210397   6.261   1.942   3.866
 3485TIP3    H110398   6.221   2.018   3.824
 3485TIP3    H210399   6.274   1.879   3.796
 3486TIP3   OH210400   6.607   7.331   4.622
 3486TIP3    H110401   6.683   7.272   4.624
 3486TIP3    H210402   6.550   7.298   4.692
 3487TIP3   OH210403   6.817   1.703   3.780
 3487TIP3    H110404   6.876   1.714   3.854
 3487TIP3    H210405   6.789   1.611   3.785
 3488TIP3   OH210406   0.109   4.056   6.319
 3488TIP3    H110407   0.169   4.130   6.309
 3488TIP3    H210408   0.087   4.056   6.413
 3489TIP3   OH210409   1.120   7.557   2.767
 3489TIP3    H110410   1.184   7.571   2.837
 3489TIP3    H210411   1.039   7.536   2.813
 3490TIP3   OH210412   4.751   5.078   0.241
 3490TIP3    H110413   4.834   5.086   0.288
 3490TIP3    H210414   4.760   5.137   0.166
 3491TIP3   OH210415   2.180   2.628   5.379
 3491TIP3    H110416   2.188   2.561   5.446
 3491TIP3    H210417   2.133   2.699   5.422
 3492TIP3   OH210418   6.777   0.918   6.608
 3492TIP3    H110419   6.829   0.840   6.627
 3492TIP3    H210420   6.709   0.886   6.548
 3493TIP3   OH210421   3.678   5.772   1.081
 3493TIP3    H110422   3.733   5.748   1.005
 3493TIP3    H210423   3.696   5.704   1.145
 3494TIP3   OH210424   4.210   2.198   0.619
 3494TIP3    H110425   4.196   2.104   0.633
 3494TIP3    H210426   4.177   2.214   0.531
 3495TIP3   OH210427   7.652   7.456   4.149
 3495TIP3    H110428   7.658   7.494   4.237
 3495TIP3    H210429   7.560   7.463   4.125
 3496TIP3   OH210430   1.293   4.639   4.634
 3496TIP3    H110431   1.309   4.733   4.642
 3496TIP3    H210432   1.348   4.611   4.561
 3497TIP3   OH210433   8.171   6.268   3.776
 3497TIP3    H110434   8.135   6.304   3.858
 3497TIP3    H210435   8.190   6.345   3.723
 3498TIP3   OH210436   6.934   1.524   4.074
 3498TIP3    H110437   6.883   1.486   4.004
 3498TIP3    H210438   7.025   1.508   4.049
 3499TIP3   OH210439   2.845   4.378   3.736
 3499TIP3    H110440   2.772   4.324   3.707
 3499TIP3    H210441   2.921   4.343   3.688
 3500TIP3   OH210442   3.355   3.009   6.715
 3500TIP3    H110443   3.375   2.947   6.645
 3500TIP3    H210444   3.341   2.955   6.793
 3501TIP3   OH210445   4.699   5.762   4.351
 3501TIP3    H110446   4.781   5.785   4.308
 3501TIP3    H210447   4.698   5.666   4.350
 3502TIP3   OH210448   2.677   6.946   2.694
 3502TIP3    H110449   2.770   6.967   2.687
 3502TIP3    H210450   2.637   6.983   2.616
 3503TIP3   OH210451   1.492   0.237   3.846
 3503TIP3    H110452   1.412   0.235   3.898
 3503TIP3    H210453   1.520   0.146   3.841
 3504TIP3   OH210454   0.827   0.159   3.076
 3504TIP3    H110455   0.767   0.202   3.137
 3504TIP3    H210456   0.901   0.220   3.069
 3505TIP3   OH210457   6.859   6.453   3.990
 3505TIP3    H110458   6.932   6.391   3.989
 3505TIP3    H210459   6.797   6.418   3.926
 3506TIP3   OH210460   7.087   5.656   2.838
 3506TIP3    H110461   7.115   5.568   2.813
 3506TIP3    H210462   7.005   5.642   2.886
 3507TIP3   OH210463   1.697   5.616   1.340
 3507TIP3    H110464   1.760   5.628   1.269
 3507TIP3    H210465   1.662   5.704   1.356
 3508TIP3   OH210466   3.063   1.559   4.994
 3508TIP3    H110467   3.054   1.637   5.050
 3508TIP3    H210468   3.150   1.567   4.956
 3509TIP3   OH210469   1.643   6.640   2.938
 3509TIP3    H110470   1.634   6.667   2.847
 3509TIP3    H210471   1.734   6.661   2.960
 3510TIP3   OH210472   5.558   2.069   4.133
 3510TIP3    H110473   5.572   1.991   4.080
 3510TIP3    H210474   5.502   2.040   4.205
 3511TIP3   OH210475   1.614   3.504   2.403
 3511TIP3    H110476   1.660   3.521   2.321
 3511TIP3    H210477   1.542   3.446   2.379
 3512TIP3   OH210478   1.659   2.587   0.941
 3512TIP3    H110479   1.581   2.632   0.973
 3512TIP3    H210480   1.729   2.653   0.945
 3513TIP3   OH210481   5.327   5.780   5.847
 3513TIP3    H110482   5.282   5.725   5.912
 3513TIP3    H210483   5.419   5.773   5.870
 3514TIP3   OH210484   6.225   7.214   1.791
 3514TIP3    H110485   6.280   7.293   1.796
 3514TIP3    H210486   6.140   7.247   1.763
 3515TIP3   OH210487   4.579   1.988   6.693
 3515TIP3    H110488   4.511   1.990   6.761
 3515TIP3    H210489   4.578   2.076   6.656
 3516TIP3   OH210490   3.899   6.403   6.331
 3516TIP3    H110491   3.840   6.447   6.391
 3516TIP3    H210492   3.967   6.366   6.387
 3517TIP3   OH210493   0.055   3.963   4.515
 3517TIP3    H110494   0.045   3.889   4.575
 3517TIP3    H210495  -0.020   3.957   4.456
 3518TIP3   OH210496   5.604   5.808   5.858
 3518TIP3    H110497   5.603   5.882   5.919
 3518TIP3    H210498   5.681   5.758   5.882
 3519TIP3   OH210499   3.997   3.409   5.948
 3519TIP3    H110500   4.085   3.438   5.925
 3519TIP3    H210501   3.973   3.460   6.025
 3520TIP3   OH210502   2.895   0.379   6.669
 3520TIP3    H110503   2.822   0.418   6.620
 3520TIP3    H210504   2.934   0.317   6.607
 3521TIP3   OH210505   2.221   2.387   0.833
 3521TIP3    H110506   2.200   2.452   0.766
 3521TIP3    H210507   2.138   2.371   0.878
 3522TIP3   OH210508   7.882   7.432   6.769
 3522TIP3    H110509   7.866   7.504   6.707
 3522TIP3    H210510   7.795   7.405   6.797
 3523TIP3   OH210511   6.734   2.734   2.830
 3523TIP3    H110512   6.789   2.754   2.905
 3523TIP3    H210513   6.761   2.647   2.802
 3524TIP3   OH210514   3.493   7.490   2.327
 3524TIP3    H110515   3.488   7.566   2.384
 3524TIP3    H210516   3.525   7.525   2.243
 3525TIP3   OH210517   6.187   2.424   6.643
 3525TIP3    H110518   6.224   2.436   6.730
 3525TIP3    H210519   6.246   2.472   6.585
 3526TIP3   OH210520   7.804   1.634   2.679
 3526TIP3    H110521   7.830   1.579   2.753
 3526TIP3    H210522   7.828   1.723   2.706
 3527TIP3   OH210523   4.175   0.548   2.258
 3527TIP3    H110524   4.227   0.471   2.235
 3527TIP3    H210525   4.176   0.602   2.179
 3528TIP3   OH210526   0.725   3.817   2.452
 3528TIP3    H110527   0.631   3.813   2.469
 3528TIP3    H210528   0.741   3.745   2.391
 3529TIP3   OH210529   3.174   0.482   4.221
 3529TIP3    H110530   3.092   0.529   4.209
 3529TIP3    H210531   3.241   0.542   4.189
 3530TIP3   OH210532   2.269   1.074   1.714
 3530TIP3    H110533   2.226   1.148   1.672
 3530TIP3    H210534   2.226   0.997   1.678
 3531TIP3   OH210535   1.283   6.295   1.327
 3531TIP3    H110536   1.304   6.247   1.247
 3531TIP3    H210537   1.229   6.234   1.378
 3532TIP3   OH210538   7.674   0.507   3.211
 3532TIP3    H110539   7.680   0.602   3.197
 3532TIP3    H210540   7.715   0.493   3.297
 3533TIP3   OH210541   4.396   6.133   1.777
 3533TIP3    H110542   4.357   6.200   1.833
 3533TIP3    H210543   4.429   6.181   1.701
 3534TIP3   OH210544   0.952   4.312   0.309
 3534TIP3    H110545   1.040   4.277   0.299
 3534TIP3    H210546   0.964   4.398   0.348
 3535TIP3   OH210547   0.035   0.072   3.368
 3535TIP3    H110548   0.114   0.028   3.336
 3535TIP3    H210549  -0.036   0.033   3.318
 3536TIP3   OH210550   1.531   0.067   1.086
 3536TIP3    H110551   1.453   0.020   1.115
 3536TIP3    H210552   1.497   0.137   1.030
 3537TIP3   OH210553   7.528   6.958   3.590
 3537TIP3    H110554   7.446   6.959   3.639
 3537TIP3    H210555   7.590   7.006   3.646
 3538TIP3   OH210556   2.551   4.803   5.119
 3538TIP3    H110557   2.539   4.865   5.191
 3538TIP3    H210558   2.486   4.734   5.136
 3539TIP3   OH210559   5.556   6.126   2.601
 3539TIP3    H110560   5.639   6.080   2.588
 3539TIP3    H210561   5.489   6.059   2.591
 3540TIP3   OH210562   8.083   3.493   6.348
 3540TIP3    H110563   8.117   3.576   6.381
 3540TIP3    H210564   8.116   3.486   6.259
 3541TIP3   OH210565   6.796   4.234   0.034
 3541TIP3    H110566   6.887   4.238   0.063
 3541TIP3    H210567   6.800   4.196  -0.054
 3542TIP3   OH210568   1.203   5.122   6.306
 3542TIP3    H110569   1.242   5.038   6.280
 3542TIP3    H210570   1.241   5.186   6.246
 3543TIP3   OH210571   3.534   7.225   2.326
 3543TIP3    H110572   3.514   7.318   2.323
 3543TIP3    H210573   3.477   7.190   2.395
 3544TIP3   OH210574   5.352   0.507   5.337
 3544TIP3    H110575   5.305   0.567   5.279
 3544TIP3    H210576   5.376   0.560   5.413
 3545TIP3   OH210577   1.005   2.207   3.968
 3545TIP3    H110578   1.071   2.172   3.908
 3545TIP3    H210579   0.940   2.137   3.975
 3546TIP3   OH210580   3.787   3.821   1.018
 3546TIP3    H110581   3.751   3.877   1.087
 3546TIP3    H210582   3.805   3.881   0.946
 3547TIP3   OH210583   7.270   0.252   5.734
 3547TIP3    H110584   7.344   0.312   5.745
 3547TIP3    H210585   7.193   0.308   5.745
 3548TIP3   OH210586   6.385   0.087   1.266
 3548TIP3    H110587   6.449   0.134   1.211
 3548TIP3    H210588   6.405  -0.005   1.251
 3549TIP3   OH210589   5.780   0.397   6.411
 3549TIP3    H110590   5.722   0.355   6.348
 3549TIP3    H210591   5.861   0.413   6.362
 3550TIP3   OH210592   0.372   0.582   5.383
 3550TIP3    H110593   0.312   0.544   5.319
 3550TIP3    H210594   0.420   0.507   5.419
 3551TIP3   OH210595   8.207   5.069   5.151
 3551TIP3    H110596   8.202   5.148   5.204
 3551TIP3    H210597   8.123   5.065   5.105
 3552TIP3   OH210598   5.406   2.829   4.279
 3552TIP3    H110599   5.331   2.811   4.336
 3552TIP3    H210600   5.396   2.921   4.255
 3553TIP3   OH210601   2.019   2.173   3.143
 3553TIP3    H110602   2.102   2.196   3.185
 3553TIP3    H210603   1.994   2.252   3.094
 3554TIP3   OH210604   7.193   2.346   0.780
 3554TIP3    H110605   7.197   2.396   0.862
 3554TIP3    H210606   7.199   2.413   0.711
 3555TIP3   OH210607   0.441   6.057   2.815
 3555TIP3    H110608   0.511   5.999   2.844
 3555TIP3    H210609   0.431   6.121   2.885
 3556TIP3   OH210610   5.044   7.014   0.251
 3556TIP3    H110611   5.004   7.070   0.318
 3556TIP3    H210612   5.112   6.966   0.298
 3557TIP3   OH210613   3.762   3.938   0.283
 3557TIP3    H110614   3.732   3.912   0.196
 3557TIP3    H210615   3.713   3.882   0.343
 3558TIP3   OH210616   5.034   1.558   5.068
 3558TIP3    H110617   4.952   1.518   5.095
 3558TIP3    H210618   5.022   1.576   4.974
 3559TIP3   OH210619   2.061   3.943   1.699
 3559TIP3    H110620   2.116   3.879   1.744
 3559TIP3    H210621   1.972   3.922   1.727
 3560TIP3   OH210622   5.001   6.380   1.940
 3560TIP3    H110623   5.068   6.320   1.906
 3560TIP3    H210624   4.948   6.326   1.998
 3561TIP3   OH210625   7.758   2.008   0.426
 3561TIP3    H110626   7.752   2.042   0.336
 3561TIP3    H210627   7.815   2.069   0.471
 3562TIP3   OH210628   0.096   4.025   1.928
 3562TIP3    H110629   0.163   4.058   1.868
 3562TIP3    H210630   0.017   4.020   1.875
 3563TIP3   OH210631   0.213   4.082   4.718
 3563TIP3    H110632   0.304   4.055   4.732
 3563TIP3    H210633   0.182   4.027   4.646
 3564TIP3   OH210634   5.415   4.350   6.197
 3564TIP3    H110635   5.355   4.335   6.270
 3564TIP3    H210636   5.498   4.311   6.225
 3565TIP3   OH210637   1.016   6.829   5.838
 3565TIP3    H110638   1.046   6.810   5.749
 3565TIP3    H210639   0.991   6.921   5.836
 3566TIP3   OH210640   2.589   1.548   5.596
 3566TIP3    H110641   2.663   1.549   5.657
 3566TIP3    H210642   2.630   1.541   5.509
 3567TIP3   OH210643   4.564   3.357   1.945
 3567TIP3    H110644   4.518   3.424   1.996
 3567TIP3    H210645   4.498   3.289   1.930
 3568TIP3   OH210646   5.219   4.628   1.109
 3568TIP3    H110647   5.152   4.643   1.175
 3568TIP3    H210648   5.179   4.565   1.048
 3569TIP3   OH210649   7.020   0.022   4.980
 3569TIP3    H110650   6.992   0.000   5.069
 3569TIP3    H210651   6.975   0.104   4.961
 3570TIP3   OH210652   2.011   7.170   4.609
 3570TIP3    H110653   1.982   7.104   4.546
 3570TIP3    H210654   2.080   7.126   4.659
 3571TIP3   OH210655   1.013   6.154   5.421
 3571TIP3    H110656   1.097   6.120   5.449
 3571TIP3    H210657   1.033   6.237   5.377
 3572TIP3   OH210658   6.768   2.154   4.843
 3572TIP3    H110659   6.742   2.137   4.933
 3572TIP3    H210660   6.690   2.191   4.802
 3573TIP3   OH210661   4.805   0.556   3.266
 3573TIP3    H110662   4.840   0.591   3.184
 3573TIP3    H210663   4.866   0.486   3.290
 3574TIP3   OH210664   2.261   4.704   5.712
 3574TIP3    H110665   2.354   4.681   5.703
 3574TIP3    H210666   2.253   4.731   5.804
 3575TIP3   OH210667   4.536   0.426   1.996
 3575TIP3    H110668   4.524   0.445   1.903
 3575TIP3    H210669   4.556   0.512   2.035
 3576TIP3   OH210670   5.886   5.442   6.589
 3576TIP3    H110671   5.818   5.377   6.569
 3576TIP3    H210672   5.958   5.421   6.529
 3577TIP3   OH210673   8.085   5.997   1.760
 3577TIP3    H110674   8.147   5.929   1.733
 3577TIP3    H210675   8.136   6.053   1.819
 3578TIP3   OH210676  -0.042   4.502   4.646
 3578TIP3    H110677   0.029   4.442   4.665
 3578TIP3    H210678  -0.003   4.589   4.653
 3579TIP3   OH210679   2.134   2.482   5.605
 3579TIP3    H110680   2.131   2.418   5.535
 3579TIP3    H210681   2.127   2.431   5.685
 3580TIP3   OH210682   3.721   1.774   1.937
 3580TIP3    H110683   3.628   1.765   1.961
 3580TIP3    H210684   3.761   1.815   2.013
 3581TIP3   OH210685   3.570   1.346   3.080
 3581TIP3    H110686   3.633   1.281   3.110
 3581TIP3    H210687   3.516   1.364   3.157
 3582TIP3   OH210688   5.718   1.113   1.580
 3582TIP3    H110689   5.807   1.095   1.549
 3582TIP3    H210690   5.665   1.113   1.500
 3583TIP3   OH210691   1.491   7.316   2.223
 3583TIP3    H110692   1.521   7.241   2.172
 3583TIP3    H210693   1.448   7.277   2.300
 3584TIP3   OH210694   0.911   6.438   4.245
 3584TIP3    H110695   1.003   6.463   4.237
 3584TIP3    H210696   0.908   6.384   4.324
 3585TIP3   OH210697   0.897   2.266   4.727
 3585TIP3    H110698   0.863   2.250   4.638
 3585TIP3    H210699   0.987   2.234   4.724
 3586TIP3   OH210700   3.545   2.062   0.672
 3586TIP3    H110701   3.590   2.146   0.681
 3586TIP3    H210702   3.474   2.065   0.736
 3587TIP3   OH210703   1.531   1.787   1.268
 3587TIP3    H110704   1.492   1.860   1.220
 3587TIP3    H210705   1.586   1.743   1.203
 3588TIP3   OH210706   5.775   5.769   5.073
 3588TIP3    H110707   5.711   5.793   5.006
 3588TIP3    H210708   5.764   5.675   5.084
 3589TIP3   OH210709   2.439   1.965   5.780
 3589TIP3    H110710   2.395   1.907   5.842
 3589TIP3    H210711   2.428   2.053   5.817
 3590TIP3   OH210712   4.486   6.207   1.541
 3590TIP3    H110713   4.509   6.127   1.494
 3590TIP3    H210714   4.499   6.277   1.477
 3591TIP3   OH210715   0.429   5.850   1.263
 3591TIP3    H110716   0.404   5.759   1.272
 3591TIP3    H210717   0.456   5.877   1.351
 3592TIP3   OH210718   0.817   0.428   2.253
 3592TIP3    H110719   0.901   0.387   2.271
 3592TIP3    H210720   0.768   0.420   2.335
 3593TIP3   OH210721   5.105   3.094   4.038
 3593TIP3    H110722   5.116   3.011   3.992
 3593TIP3    H210723   5.010   3.103   4.047
 3594TIP3   OH210724   6.845   4.629   5.753
 3594TIP3    H110725   6.936   4.622   5.782
 3594TIP3    H210726   6.820   4.719   5.777
 3595TIP3   OH210727   2.703   7.535   0.738
 3595TIP3    H110728   2.796   7.517   0.750
 3595TIP3    H210729   2.669   7.545   0.827
 3596TIP3   OH210730   2.533   4.139   5.578
 3596TIP3    H110731   2.474   4.203   5.618
 3596TIP3    H210732   2.548   4.172   5.490
 3597TIP3   OH210733   1.686   2.688   3.945
 3597TIP3    H110734   1.647   2.754   3.888
 3597TIP3    H210735   1.666   2.604   3.904
 3598TIP3   OH210736   8.133   3.744   6.421
 3598TIP3    H110737   8.040   3.763   6.408
 3598TIP3    H210738   8.173   3.767   6.337
 3599TIP3   OH210739   6.484   2.109   3.750
 3599TIP3    H110740   6.468   2.111   3.844
 3599TIP3    H210741   6.563   2.056   3.740
 3600TIP3   OH210742   5.287   5.454   2.814
 3600TIP3    H110743   5.285   5.453   2.718
 3600TIP3    H210744   5.271   5.546   2.837
 3601TIP3   OH210745   8.023   0.685   0.828
 3601TIP3    H110746   8.102   0.725   0.866
 3601TIP3    H210747   7.967   0.759   0.806
 3602TIP3   OH210748   6.635   3.899   4.036
 3602TIP3    H110749   6.566   3.855   4.084
 3602TIP3    H210750   6.660   3.973   4.092
 3603TIP3   OH210751   6.016   0.657   6.664
 3603TIP3    H110752   6.021   0.564   6.688
 3603TIP3    H210753   5.938   0.690   6.707
 3604TIP3   OH210754   3.720   5.602   0.535
 3604TIP3    H110755   3.636   5.576   0.572
 3604TIP3    H210756   3.704   5.610   0.441
 3605TIP3   OH210757   3.765   1.186   6.503
 3605TIP3    H110758   3.709   1.185   6.580
 3605TIP3    H210759   3.813   1.103   6.507
 3606TIP3   OH210760   1.135   0.575   1.442
 3606TIP3    H110761   1.144   0.660   1.484
 3606TIP3    H210762   1.131   0.594   1.349
 3607TIP3   OH210763   2.054   5.467   0.745
 3607TIP3    H110764   1.990   5.459   0.674
 3607TIP3    H210765   2.133   5.500   0.702
 3608TIP3   OH210766   6.385   5.752   3.521
 3608TIP3    H110767   6.478   5.737   3.505
 3608TIP3    H210768   6.365   5.699   3.598
 3609TIP3   OH210769   0.493   2.026   3.205
 3609TIP3    H110770   0.464   2.111   3.238
 3609TIP3    H210771   0.457   2.021   3.116
 3610TIP3   OH210772   2.170   2.150   5.771
 3610TIP3    H110773   2.114   2.123   5.844
 3610TIP3    H210774   2.139   2.099   5.696
 3611TIP3   OH210775   5.747   2.620   5.553
 3611TIP3    H110776   5.680   2.558   5.582
 3611TIP3    H210777   5.793   2.574   5.483
 3612TIP3   OH210778   1.809   7.206   6.161
 3612TIP3    H110779   1.735   7.163   6.118
 3612TIP3    H210780   1.770   7.277   6.211
 3613TIP3   OH210781   8.259   2.156   4.069
 3613TIP3    H110782   8.198   2.091   4.104
 3613TIP3    H210783   8.204   2.228   4.040
 3614TIP3   OH210784   5.816   6.642   2.703
 3614TIP3    H110785   5.834   6.559   2.748
 3614TIP3    H210786   5.863   6.708   2.755
 3615TIP3   OH210787   3.470   3.586   5.289
 3615TIP3    H110788   3.433   3.621   5.208
 3615TIP3    H210789   3.455   3.655   5.354
 3616TIP3   OH210790   1.223   7.328   5.105
 3616TIP3    H110791   1.251   7.285   5.024
 3616TIP3    H210792   1.302   7.335   5.158
 3617TIP3   OH210793   3.460   2.322   3.404
 3617TIP3    H110794   3.528   2.380   3.437
 3617TIP3    H210795   3.471   2.241   3.455
 3618TIP3   OH210796   7.661   1.172   3.871
 3618TIP3    H110797   7.626   1.092   3.910
 3618TIP3    H210798   7.708   1.141   3.793
 3619TIP3   OH210799   8.208  -0.022   0.430
 3619TIP3    H110800   8.209   0.066   0.466
 3619TIP3    H210801   8.293  -0.033   0.388
 3620TIP3   OH210802   6.184   3.734   1.862
 3620TIP3    H110803   6.101   3.690   1.879
 3620TIP3    H210804   6.194   3.796   1.934
 3621TIP3   OH210805   5.894   3.077   5.310
 3621TIP3    H110806   5.900   3.127   5.391
 3621TIP3    H210807   5.983   3.045   5.296
 3622TIP3   OH210808   0.120   6.903   2.992
 3622TIP3    H110809   0.144   6.995   3.002
 3622TIP3    H210810   0.027   6.905   2.971
 3623TIP3   OH210811   1.730   3.346   3.343
 3623TIP3    H110812   1.795   3.302   3.288
 3623TIP3    H210813   1.664   3.377   3.281
 3624TIP3   OH210814   3.402   6.385   2.764
 3624TIP3    H110815   3.477   6.364   2.708
 3624TIP3    H210816   3.383   6.303   2.810
 3625TIP3   OH210817   7.499   7.373   4.495
 3625TIP3    H110818   7.548   7.445   4.454
 3625TIP3    H210819   7.421   7.415   4.532
 3626TIP3   OH210820   4.523   1.432   1.234
 3626TIP3    H110821   4.469   1.379   1.292
 3626TIP3    H210822   4.573   1.489   1.292
 3627TIP3   OH210823   5.242   2.949   2.195
 3627TIP3    H110824   5.320   2.917   2.150
 3627TIP3    H210825   5.182   2.874   2.194
 3628TIP3   OH210826   1.265   1.447   1.491
 3628TIP3    H110827   1.245   1.386   1.420
 3628TIP3    H210828   1.335   1.405   1.540
 3629TIP3   OH210829   3.700   3.245   1.841
 3629TIP3    H110830   3.790   3.274   1.825
 3629TIP3    H210831   3.710   3.155   1.872
 3630TIP3   OH210832   1.522   4.786   4.326
 3630TIP3    H110833   1.464   4.861   4.339
 3630TIP3    H210834   1.581   4.814   4.255
 3631TIP3   OH210835   3.793   7.686   0.636
 3631TIP3    H110836   3.742   7.756   0.593
 3631TIP3    H210837   3.880   7.724   0.646
 3632TIP3   OH210838   0.579   1.045   3.205
 3632TIP3    H110839   0.582   1.126   3.153
 3632TIP3    H210840   0.623   0.980   3.150
 3633TIP3   OH210841   0.590   7.795   2.583
 3633TIP3    H110842   0.611   7.801   2.676
 3633TIP3    H210843   0.675   7.801   2.539
 3634TIP3   OH210844   6.656   4.665   2.751
 3634TIP3    H110845   6.707   4.611   2.691
 3634TIP3    H210846   6.570   4.672   2.711
 3635TIP3   OH210847   4.514   6.362   0.350
 3635TIP3    H110848   4.591   6.404   0.387
 3635TIP3    H210849   4.535   6.269   0.351
 3636TIP3   OH210850   1.244   3.271   2.030
 3636TIP3    H110851   1.236   3.177   2.011
 3636TIP3    H210852   1.226   3.313   1.945
 3637TIP3   OH210853   7.222   2.651   0.247
 3637TIP3    H110854   7.194   2.586   0.184
 3637TIP3    H210855   7.202   2.736   0.206
 3638TIP3   OH210856   4.764   1.523   5.184
 3638TIP3    H110857   4.694   1.560   5.238
 3638TIP3    H210858   4.760   1.429   5.202
 3639TIP3   OH210859   5.259   2.617   1.124
 3639TIP3    H110860   5.228   2.539   1.078
 3639TIP3    H210861   5.300   2.670   1.055
 3640TIP3   OH210862   7.094   2.104   1.205
 3640TIP3    H110863   7.167   2.164   1.187
 3640TIP3    H210864   7.129   2.044   1.270
 3641TIP3   OH210865   2.401   4.339   1.674
 3641TIP3    H110866   2.481   4.385   1.649
 3641TIP3    H210867   2.331   4.401   1.655
 3642TIP3   OH210868   6.696   2.317   5.497
 3642TIP3    H110869   6.683   2.391   5.438
 3642TIP3    H210870   6.657   2.242   5.451
 3643TIP3   OH210871   2.322   6.466   1.301
 3643TIP3    H110872   2.316   6.559   1.281
 3643TIP3    H210873   2.242   6.428   1.263
 3644TIP3   OH210874   4.574   1.093   1.563
 3644TIP3    H110875   4.640   1.107   1.495
 3644TIP3    H210876   4.548   1.002   1.553
 3645TIP3   OH210877   6.693   6.786   4.781
 3645TIP3    H110878   6.771   6.825   4.741
 3645TIP3    H210879   6.718   6.768   4.871
 3646TIP3   OH210880   7.632   4.551   6.460
 3646TIP3    H110881   7.710   4.542   6.405
 3646TIP3    H210882   7.590   4.632   6.430
 3647TIP3   OH210883   8.021   7.124   6.135
 3647TIP3    H110884   7.990   7.146   6.047
 3647TIP3    H210885   8.030   7.208   6.179
 3648TIP3   OH210886   0.410   2.018   3.466
 3648TIP3    H110887   0.327   1.971   3.457
 3648TIP3    H210888   0.450   2.012   3.380
 3649TIP3   OH210889   7.337   3.470   1.463
 3649TIP3    H110890   7.345   3.380   1.431
 3649TIP3    H210891   7.249   3.497   1.435
 3650TIP3   OH210892   5.622   7.374   2.601
 3650TIP3    H110893   5.551   7.367   2.665
 3650TIP3    H210894   5.640   7.468   2.595
 3651TIP3   OH210895   6.208   2.121   5.856
 3651TIP3    H110896   6.246   2.065   5.924
 3651TIP3    H210897   6.223   2.073   5.775
 3652TIP3   OH210898   5.017   7.065   6.515
 3652TIP3    H110899   5.083   7.042   6.450
 3652TIP3    H210900   4.936   7.024   6.483
 3653TIP3   OH210901   7.103   4.077   1.045
 3653TIP3    H110902   7.115   3.992   1.001
 3653TIP3    H210903   7.017   4.070   1.086
 3654TIP3   OH210904   7.021   7.010   4.993
 3654TIP3    H110905   7.020   7.038   5.084
 3654TIP3    H210906   6.979   6.923   4.994
 3655TIP3   OH210907   3.970   7.341   5.479
 3655TIP3    H110908   4.009   7.255   5.496
 3655TIP3    H210909   3.984   7.356   5.386
 3656TIP3   OH210910   0.539   7.794   0.422
 3656TIP3    H110911   0.475   7.822   0.488
 3656TIP3    H210912   0.516   7.703   0.403
 3657TIP3   OH210913   4.687   6.138   4.375
 3657TIP3    H110914   4.640   6.085   4.310
 3657TIP3    H210915   4.776   6.146   4.340
 3658TIP3   OH210916   1.287   4.104   4.497
 3658TIP3    H110917   1.234   4.159   4.555
 3658TIP3    H210918   1.321   4.166   4.432
 3659TIP3   OH210919   5.903   5.610   5.495
 3659TIP3    H110920   5.938   5.535   5.448
 3659TIP3    H210921   5.928   5.685   5.441
 3660TIP3   OH210922   5.268   1.979   3.337
 3660TIP3    H110923   5.332   1.908   3.339
 3660TIP3    H210924   5.192   1.944   3.382
 3661TIP3   OH210925   7.145   6.023   1.113
 3661TIP3    H110926   7.081   6.088   1.140
 3661TIP3    H210927   7.180   6.057   1.030
 3662TIP3   OH210928   1.781   6.632   0.193
 3662TIP3    H110929   1.787   6.540   0.168
 3662TIP3    H210930   1.847   6.642   0.262
 3663TIP3   OH210931   6.514   7.423   2.345
 3663TIP3    H110932   6.496   7.403   2.437
 3663TIP3    H210933   6.601   7.463   2.346
 3664TIP3   OH210934   7.702   4.848   1.671
 3664TIP3    H110935   7.608   4.866   1.666
 3664TIP3    H210936   7.715   4.768   1.620
 3665TIP3   OH210937   4.462   5.483   0.472
 3665TIP3    H110938   4.553   5.485   0.501
 3665TIP3    H210939   4.447   5.570   0.436
 3666TIP3   OH210940   0.931   4.147   5.361
 3666TIP3    H110941   0.971   4.188   5.438
 3666TIP3    H210942   0.838   4.143   5.381
 3667TIP3   OH210943   0.518   4.176   2.902
 3667TIP3    H110944   0.481   4.168   2.990
 3667TIP3    H210945   0.468   4.113   2.850
 3668TIP3   OH210946   0.662   3.020   3.004
 3668TIP3    H110947   0.567   3.005   3.007
 3668TIP3    H210948   0.673   3.090   2.940
 3669TIP3   OH210949   0.935   3.583   2.306
 3669TIP3    H110950   1.003   3.610   2.368
 3669TIP3    H210951   0.966   3.499   2.272
 3670TIP3   OH210952   7.070   4.257   0.163
 3670TIP3    H110953   7.153   4.268   0.210
 3670TIP3    H210954   7.095   4.259   0.071
 3671TIP3   OH210955   7.190   3.352   6.037
 3671TIP3    H110956   7.142   3.272   6.060
 3671TIP3    H210957   7.271   3.347   6.088
 3672TIP3   OH210958   5.669   0.070   6.119
 3672TIP3    H110959   5.732   0.071   6.191
 3672TIP3    H210960   5.715   0.027   6.047
 3673TIP3   OH210961   5.557   4.904   4.775
 3673TIP3    H110962   5.594   4.982   4.734
 3673TIP3    H210963   5.631   4.844   4.784
 3674TIP3   OH210964   1.462   7.338   1.607
 3674TIP3    H110965   1.512   7.345   1.688
 3674TIP3    H210966   1.370   7.345   1.634
 3675TIP3   OH210967   6.067   4.629   5.956
 3675TIP3    H110968   6.156   4.611   5.927
 3675TIP3    H210969   6.076   4.699   6.021
 3676TIP3   OH210970   5.081   1.180   4.662
 3676TIP3    H110971   5.080   1.135   4.578
 3676TIP3    H210972   5.171   1.171   4.693
 3677TIP3   OH210973   7.195   3.075   1.934
 3677TIP3    H110974   7.204   3.166   1.962
 3677TIP3    H210975   7.123   3.077   1.871
 3678TIP3   OH210976   2.540   7.045   1.758
 3678TIP3    H110977   2.481   7.090   1.818
 3678TIP3    H210978   2.619   7.031   1.809
 3679TIP3   OH210979   3.435   6.925   4.888
 3679TIP3    H110980   3.517   6.891   4.852
 3679TIP3    H210981   3.439   7.019   4.870
 3680TIP3   OH210982   7.466   2.037   0.433
 3680TIP3    H110983   7.445   2.130   0.423
 3680TIP3    H210984   7.553   2.036   0.473
 3681TIP3   OH210985   5.915   2.183   3.575
 3681TIP3    H110986   5.926   2.202   3.482
 3681TIP3    H210987   5.894   2.090   3.578
 3682TIP3   OH210988   2.531   2.126   1.508
 3682TIP3    H110989   2.458   2.145   1.567
 3682TIP3    H210990   2.522   2.033   1.487
 3683TIP3   OH210991   6.526   0.259   3.997
 3683TIP3    H110992   6.507   0.166   3.984
 3683TIP3    H210993   6.485   0.280   4.081
 3684TIP3   OH210994   2.270   5.776   2.805
 3684TIP3    H110995   2.318   5.698   2.777
 3684TIP3    H210996   2.178   5.752   2.794
 3685TIP3   OH210997   7.384   2.263   1.967
 3685TIP3    H110998   7.349   2.316   2.038
 3685TIP3    H210999   7.468   2.305   1.944
 3686TIP3   OH211000   5.377   3.862   2.196
 3686TIP3    H111001   5.367   3.808   2.275
 3686TIP3    H211002   5.472   3.863   2.180
 3687TIP3   OH211003   5.539   3.488   2.205
 3687TIP3    H111004   5.476   3.468   2.135
 3687TIP3    H211005   5.526   3.419   2.270
 3688TIP3   OH211006   0.743   5.009   6.406
 3688TIP3    H111007   0.723   5.082   6.465
 3688TIP3    H211008   0.754   5.050   6.320
 3689TIP3   OH211009   8.311   7.620   2.739
 3689TIP3    H111010   8.369   7.696   2.737
 3689TIP3    H211011   8.223   7.657   2.745
 3690TIP3   OH211012   2.407   5.841   2.116
 3690TIP3    H111013   2.345   5.913   2.130
 3690TIP3    H211014   2.401   5.788   2.196
 3691TIP3   OH211015   4.998   1.966   0.483
 3691TIP3    H111016   4.982   1.872   0.476
 3691TIP3    H211017   4.944   2.005   0.414
 3692TIP3   OH211018   0.952   1.852   2.052
 3692TIP3    H111019   1.017   1.906   2.097
 3692TIP3    H211020   0.992   1.833   1.967
 3693TIP3   OH211021   2.160   3.576   5.968
 3693TIP3    H111022   2.092   3.530   6.018
 3693TIP3    H211023   2.112   3.640   5.915
 3694TIP3   OH211024   1.846   5.420   0.043
 3694TIP3    H111025   1.918   5.393  -0.016
 3694TIP3    H211026   1.886   5.486   0.100
 3695TIP3   OH211027   0.086   5.539   2.070
 3695TIP3    H111028   0.115   5.623   2.106
 3695TIP3    H211029   0.113   5.542   1.978
 3696TIP3   OH211030   3.587   5.503   2.717
 3696TIP3    H111031   3.561   5.533   2.804
 3696TIP3    H211032   3.505   5.475   2.676
 3697TIP3   OH211033   4.422   4.324   5.120
 3697TIP3    H111034   4.432   4.365   5.206
 3697TIP3    H211035   4.481   4.374   5.063
 3698TIP3   OH211036   4.194   5.212   2.673
 3698TIP3    H111037   4.109   5.183   2.639
 3698TIP3    H211038   4.189   5.307   2.672
 3699TIP3   OH211039   2.461   2.501   1.382
 3699TIP3    H111040   2.518   2.426   1.366
 3699TIP3    H211041   2.400   2.501   1.309
 3700TIP3   OH211042   4.343   6.390   1.787
 3700TIP3    H111043   4.313   6.454   1.852
 3700TIP3    H211044   4.272   6.387   1.723
 3701TIP3   OH211045   5.955   1.252   5.937
 3701TIP3    H111046   5.909   1.170   5.956
 3701TIP3    H211047   6.048   1.229   5.940
 3702TIP3   OH211048   1.881   5.884   5.280
 3702TIP3    H111049   1.927   5.846   5.205
 3702TIP3    H211050   1.943   5.877   5.352
 3703TIP3   OH211051   7.505   3.422   3.909
 3703TIP3    H111052   7.589   3.406   3.952
 3703TIP3    H211053   7.492   3.517   3.915
 3704TIP3   OH211054   2.989   0.783   6.751
 3704TIP3    H111055   2.948   0.857   6.796
 3704TIP3    H211056   2.929   0.764   6.678
 3705TIP3   OH211057   7.738   7.437   5.710
 3705TIP3    H111058   7.745   7.371   5.642
 3705TIP3    H211059   7.652   7.421   5.750
 3706TIP3   OH211060   0.786   2.279   5.604
 3706TIP3    H111061   0.697   2.251   5.624
 3706TIP3    H211062   0.812   2.334   5.678
 3707TIP3   OH211063   2.949   4.731   1.290
 3707TIP3    H111064   2.903   4.805   1.328
 3707TIP3    H211065   3.034   4.730   1.334
 3708TIP3   OH211066   0.179   7.732   5.284
 3708TIP3    H111067   0.187   7.642   5.316
 3708TIP3    H211068   0.133   7.779   5.354
 3709TIP3   OH211069   3.083   3.130   3.785
 3709TIP3    H111070   3.078   3.149   3.878
 3709TIP3    H211071   3.115   3.040   3.780
 3710TIP3   OH211072   6.528   1.999   6.516
 3710TIP3    H111073   6.592   1.939   6.555
 3710TIP3    H211074   6.483   2.038   6.590
 3711TIP3   OH211075   5.124   6.795   0.570
 3711TIP3    H111076   5.156   6.847   0.496
 3711TIP3    H211077   5.202   6.752   0.605
 3712TIP3   OH211078   6.183   0.289   1.352
 3712TIP3    H111079   6.093   0.297   1.321
 3712TIP3    H211080   6.219   0.215   1.302
 3713TIP3   OH211081   1.570   1.960   3.561
 3713TIP3    H111082   1.479   1.941   3.537
 3713TIP3    H211083   1.575   1.937   3.654
 3714TIP3   OH211084   0.225   1.290   4.782
 3714TIP3    H111085   0.223   1.209   4.731
 3714TIP3    H211086   0.317   1.299   4.808
 3715TIP3   OH211087   6.280   1.577   3.168
 3715TIP3    H111088   6.216   1.585   3.239
 3715TIP3    H211089   6.252   1.500   3.119
 3716TIP3   OH211090   6.293   2.174   1.443
 3716TIP3    H111091   6.338   2.108   1.390
 3716TIP3    H211092   6.242   2.123   1.506
 3717TIP3   OH211093   1.597   4.545   4.695
 3717TIP3    H111094   1.609   4.564   4.788
 3717TIP3    H211095   1.519   4.595   4.671
 3718TIP3   OH211096   0.515  -0.026   4.550
 3718TIP3    H111097   0.590  -0.082   4.530
 3718TIP3    H211098   0.549   0.040   4.609
 3719TIP3   OH211099   3.495   7.198   4.715
 3719TIP3    H111100   3.572   7.205   4.771
 3719TIP3    H211101   3.530   7.198   4.626
 3720TIP3   OH211102   2.290   2.494   6.677
 3720TIP3    H111103   2.208   2.449   6.695
 3720TIP3    H211104   2.358   2.432   6.703
 3721TIP3   OH211105   0.451   7.531   3.651
 3721TIP3    H111106   0.412   7.616   3.629
 3721TIP3    H211107   0.543   7.551   3.670
 3722TIP3   OH211108   5.350   6.669   1.797
 3722TIP3    H111109   5.398   6.751   1.791
 3722TIP3    H211110   5.335   6.656   1.891
 3723TIP3   OH211111   3.249   3.388   0.460
 3723TIP3    H111112   3.334   3.348   0.443
 3723TIP3    H211113   3.235   3.377   0.554
 3724TIP3   OH211114   6.650   3.749   5.514
 3724TIP3    H111115   6.563   3.718   5.537
 3724TIP3    H211116   6.636   3.811   5.443
 3725TIP3   OH211117   0.214   2.334   5.141
 3725TIP3    H111118   0.127   2.340   5.102
 3725TIP3    H211119   0.274   2.343   5.067
 3726TIP3   OH211120   5.409   6.217   0.417
 3726TIP3    H111121   5.418   6.256   0.504
 3726TIP3    H211122   5.498   6.193   0.391
 3727TIP3   OH211123   2.200   6.623   6.226
 3727TIP3    H111124   2.200   6.602   6.320
 3727TIP3    H211125   2.202   6.719   6.224
 3728TIP3   OH211126   0.877   5.556   3.245
 3728TIP3    H111127   0.921   5.634   3.277
 3728TIP3    H211128   0.904   5.486   3.305
 3729TIP3   OH211129   6.771   2.831   5.210
 3729TIP3    H111130   6.839   2.830   5.278
 3729TIP3    H211131   6.689   2.838   5.258
 3730TIP3   OH211132   5.627   3.969   4.849
 3730TIP3    H111133   5.567   4.033   4.887
 3730TIP3    H211134   5.701   3.966   4.911
 3731TIP3   OH211135   0.858   5.702   0.963
 3731TIP3    H111136   0.849   5.783   0.913
 3731TIP3    H211137   0.873   5.634   0.897
 3732TIP3   OH211138   5.466   3.405   1.975
 3732TIP3    H111139   5.534   3.462   1.936
 3732TIP3    H211140   5.387   3.425   1.924
 3733TIP3   OH211141   1.438   2.997   4.638
 3733TIP3    H111142   1.366   2.995   4.575
 3733TIP3    H211143   1.507   3.046   4.593
 3734TIP3   OH211144   0.766   0.684   2.445
 3734TIP3    H111145   0.678   0.716   2.462
 3734TIP3    H211146   0.792   0.725   2.363
 3735TIP3   OH211147   0.284   4.730   0.410
 3735TIP3    H111148   0.326   4.787   0.345
 3735TIP3    H211149   0.215   4.785   0.448
 3736TIP3   OH211150   1.778   7.826   3.378
 3736TIP3    H111151   1.695   7.841   3.423
 3736TIP3    H211152   1.793   7.732   3.387
 3737TIP3   OH211153   7.837   0.628   2.473
 3737TIP3    H111154   7.813   0.544   2.511
 3737TIP3    H211155   7.844   0.612   2.379
 3738TIP3   OH211156   6.858   7.402   6.076
 3738TIP3    H111157   6.922   7.465   6.109
 3738TIP3    H211158   6.829   7.438   5.992
 3739TIP3   OH211159   2.457   4.094   6.491
 3739TIP3    H111160   2.453   4.050   6.406
 3739TIP3    H211161   2.517   4.041   6.543
 3740TIP3   OH211162   3.526   1.471   4.028
 3740TIP3    H111163   3.499   1.415   3.955
 3740TIP3    H211164   3.460   1.541   4.029
 3741TIP3   OH211165   3.423   1.067   5.947
 3741TIP3    H111166   3.443   1.123   6.022
 3741TIP3    H211167   3.465   1.110   5.873
 3742TIP3   OH211168   5.328   6.012   3.406
 3742TIP3    H111169   5.363   5.939   3.355
 3742TIP3    H211170   5.334   6.087   3.348
 3743TIP3   OH211171   3.206   6.657   3.875
 3743TIP3    H111172   3.158   6.661   3.958
 3743TIP3    H211173   3.252   6.741   3.871
 3744TIP3   OH211174   7.635   5.699   1.719
 3744TIP3    H111175   7.629   5.603   1.719
 3744TIP3    H211176   7.669   5.720   1.632
 3745TIP3   OH211177   7.651   3.683   6.241
 3745TIP3    H111178   7.627   3.627   6.315
 3745TIP3    H211179   7.729   3.729   6.271
 3746TIP3   OH211180   6.355   4.157   4.587
 3746TIP3    H111181   6.328   4.066   4.579
 3746TIP3    H211182   6.438   4.162   4.540
 3747TIP3   OH211183   3.417   5.575   2.962
 3747TIP3    H111184   3.328   5.546   2.979
 3747TIP3    H211185   3.457   5.583   3.048
 3748TIP3   OH211186   1.121   1.454   0.996
 3748TIP3    H111187   1.050   1.503   1.038
 3748TIP3    H211188   1.142   1.385   1.059
 3749TIP3   OH211189   0.952   4.393   1.510
 3749TIP3    H111190   1.040   4.357   1.522
 3749TIP3    H211191   0.895   4.335   1.559
 3750TIP3   OH211192   4.652   4.274   0.508
 3750TIP3    H111193   4.653   4.369   0.494
 3750TIP3    H211194   4.706   4.261   0.586
 3751TIP3   OH211195   7.198   6.782   5.430
 3751TIP3    H111196   7.182   6.846   5.361
 3751TIP3    H211197   7.158   6.821   5.508
 3752TIP3   OH211198   2.884   6.183   4.495
 3752TIP3    H111199   2.821   6.240   4.539
 3752TIP3    H211200   2.864   6.191   4.402
 3753TIP3   OH211201   6.040   6.727   4.841
 3753TIP3    H111202   6.020   6.659   4.777
 3753TIP3    H211203   5.965   6.786   4.837
 3754TIP3   OH211204   3.795   5.169   2.730
 3754TIP3    H111205   3.827   5.079   2.721
 3754TIP3    H211206   3.772   5.195   2.641
 3755TIP3   OH211207   6.688   0.595   0.776
 3755TIP3    H111208   6.728   0.531   0.718
 3755TIP3    H211209   6.640   0.654   0.718
 3756TIP3   OH211210   2.591   4.705   2.713
 3756TIP3    H111211   2.681   4.673   2.698
 3756TIP3    H211212   2.565   4.743   2.629
 3757TIP3   OH211213   1.432   4.140   3.482
 3757TIP3    H111214   1.466   4.219   3.440
 3757TIP3    H211215   1.473   4.139   3.568
 3758TIP3   OH211216   5.428   1.127   1.674
 3758TIP3    H111217   5.364   1.087   1.733
 3758TIP3    H211218   5.377   1.155   1.598
 3759TIP3   OH211219   5.977   5.998   1.623
 3759TIP3    H111220   5.980   6.029   1.533
 3759TIP3    H211221   6.068   5.991   1.650
 3760TIP3   OH211222   7.977   2.958   4.557
 3760TIP3    H111223   7.962   3.052   4.559
 3760TIP3    H211224   8.034   2.943   4.482
 3761TIP3   OH211225   6.598   5.350   6.436
 3761TIP3    H111226   6.530   5.402   6.392
 3761TIP3    H211227   6.646   5.413   6.489
 3762TIP3   OH211228   1.983   6.992   6.291
 3762TIP3    H111229   2.026   6.984   6.205
 3762TIP3    H211230   1.963   7.086   6.298
 3763TIP3   OH211231   8.188   0.691   1.242
 3763TIP3    H111232   8.244   0.655   1.173
 3763TIP3    H211233   8.126   0.747   1.196
 3764TIP3   OH211234   8.281   6.259   3.022
 3764TIP3    H111235   8.199   6.246   2.974
 3764TIP3    H211236   8.253   6.288   3.109
 3765TIP3   OH211237   5.245   2.270   2.988
 3765TIP3    H111238   5.187   2.240   3.058
 3765TIP3    H211239   5.326   2.221   3.001
 3766TIP3   OH211240   2.401   3.117   6.195
 3766TIP3    H111241   2.409   3.075   6.109
 3766TIP3    H211242   2.327   3.177   6.185
 3767TIP3   OH211243   3.150   2.532   4.783
 3767TIP3    H111244   3.153   2.450   4.833
 3767TIP3    H211245   3.083   2.584   4.827
 3768TIP3   OH211246   3.897   1.412   3.350
 3768TIP3    H111247   3.924   1.499   3.319
 3768TIP3    H211248   3.938   1.351   3.290
 3769TIP3   OH211249   7.922   2.574   6.508
 3769TIP3    H111250   7.846   2.517   6.515
 3769TIP3    H211251   7.943   2.597   6.599
 3770TIP3   OH211252   0.401   6.909   5.870
 3770TIP3    H111253   0.353   6.842   5.919
 3770TIP3    H211254   0.339   6.937   5.803
 3771TIP3   OH211255   7.295   0.622   5.833
 3771TIP3    H111256   7.391   0.621   5.831
 3771TIP3    H211257   7.269   0.546   5.783
 3772TIP3   OH211258   4.173   2.466   5.483
 3772TIP3    H111259   4.101   2.518   5.518
 3772TIP3    H211260   4.199   2.409   5.555
 3773TIP3   OH211261   7.904   5.025   2.836
 3773TIP3    H111262   7.838   5.025   2.767
 3773TIP3    H211263   7.967   5.092   2.808
 3774TIP3   OH211264   4.717   1.514   3.051
 3774TIP3    H111265   4.733   1.553   3.136
 3774TIP3    H211266   4.725   1.586   2.989
 3775TIP3   OH211267   7.498   6.397   6.348
 3775TIP3    H111268   7.459   6.413   6.435
 3775TIP3    H211269   7.446   6.326   6.311
 3776TIP3   OH211270   0.589   4.207   3.604
 3776TIP3    H111271   0.582   4.118   3.570
 3776TIP3    H211272   0.673   4.239   3.570
 3777TIP3   OH211273   0.250   1.828   5.804
 3777TIP3    H111274   0.238   1.738   5.832
 3777TIP3    H211275   0.171   1.874   5.833
 3778TIP3   OH211276   0.459   3.655   6.594
 3778TIP3    H111277   0.384   3.712   6.613
 3778TIP3    H211278   0.424   3.566   6.597
 3779TIP3   OH211279   1.105   4.968   2.412
 3779TIP3    H111280   1.140   5.040   2.464
 3779TIP3    H211281   1.182   4.926   2.375
 3780TIP3   OH211282   2.517   0.370   0.708
 3780TIP3    H111283   2.602   0.329   0.728
 3780TIP3    H211284   2.463   0.353   0.785
 3781TIP3   OH211285   4.970   4.030   1.652
 3781TIP3    H111286   5.057   4.012   1.616
 3781TIP3    H211287   4.926   3.946   1.650
 3782TIP3   OH211288   2.301   6.821   5.740
 3782TIP3    H111289   2.250   6.893   5.777
 3782TIP3    H211290   2.383   6.823   5.789
 3783TIP3   OH211291   1.083   0.484   5.553
 3783TIP3    H111292   1.104   0.530   5.634
 3783TIP3    H211293   0.987   0.484   5.550
 3784TIP3   OH211294   1.612   7.409   4.979
 3784TIP3    H111295   1.609   7.384   5.071
 3784TIP3    H211296   1.614   7.326   4.931
 3785TIP3   OH211297   4.569   0.618   2.232
 3785TIP3    H111298   4.644   0.595   2.287
 3785TIP3    H211299   4.604   0.679   2.167
 3786TIP3   OH211300   5.395   1.307   4.344
 3786TIP3    H111301   5.430   1.291   4.432
 3786TIP3    H211302   5.353   1.225   4.320
 3787TIP3   OH211303   1.005   0.257   5.126
 3787TIP3    H111304   1.018   0.328   5.189
 3787TIP3    H211305   0.912   0.238   5.130
 3788TIP3   OH211306   2.823   6.972   0.573
 3788TIP3    H111307   2.824   7.060   0.609
 3788TIP3    H211308   2.913   6.956   0.545
 3789TIP3   OH211309   4.169   5.634   0.457
 3789TIP3    H111310   4.088   5.624   0.507
 3789TIP3    H211311   4.149   5.594   0.372
 3790TIP3   OH211312   6.353   2.629   1.379
 3790TIP3    H111313   6.339   2.542   1.342
 3790TIP3    H211314   6.267   2.670   1.376
 3791TIP3   OH211315   6.140   2.750   3.341
 3791TIP3    H111316   6.214   2.737   3.282
 3791TIP3    H211317   6.156   2.836   3.381
 3792TIP3   OH211318   1.754   2.164   4.653
 3792TIP3    H111319   1.747   2.109   4.576
 3792TIP3    H211320   1.754   2.103   4.727
 3793TIP3   OH211321   6.410   2.012   3.169
 3793TIP3    H111322   6.401   2.064   3.249
 3793TIP3    H211323   6.419   2.077   3.099
 3794TIP3   OH211324   7.651   2.354   5.857
 3794TIP3    H111325   7.734   2.363   5.905
 3794TIP3    H211326   7.603   2.287   5.905
 3795TIP3   OH211327   1.184   1.312   3.777
 3795TIP3    H111328   1.127   1.277   3.846
 3795TIP3    H211329   1.271   1.314   3.817
 3796TIP3   OH211330   5.250   3.638   0.909
 3796TIP3    H111331   5.263   3.733   0.903
 3796TIP3    H211332   5.275   3.605   0.822
 3797TIP3   OH211333   1.288   1.045   4.580
 3797TIP3    H111334   1.308   1.138   4.587
 3797TIP3    H211335   1.363   1.008   4.534
 3798TIP3   OH211336   0.326   4.924   2.912
 3798TIP3    H111337   0.320   4.990   2.981
 3798TIP3    H211338   0.260   4.859   2.935
 3799TIP3   OH211339   1.708   4.300   3.915
 3799TIP3    H111340   1.623   4.336   3.940
 3799TIP3    H211341   1.750   4.277   3.997
 3800TIP3   OH211342   7.854   5.326   3.225
 3800TIP3    H111343   7.859   5.243   3.176
 3800TIP3    H211344   7.764   5.331   3.254
 3801TIP3   OH211345   6.332   6.158   3.159
 3801TIP3    H111346   6.275   6.128   3.088
 3801TIP3    H211347   6.417   6.118   3.139
 3802TIP3   OH211348   7.020   1.345   0.875
 3802TIP3    H111349   7.042   1.433   0.903
 3802TIP3    H211350   7.005   1.353   0.780
 3803TIP3   OH211351   3.396   5.996   1.945
 3803TIP3    H111352   3.406   6.017   2.038
 3803TIP3    H211353   3.403   6.081   1.900
 3804TIP3   OH211354   1.928   2.139   4.200
 3804TIP3    H111355   1.949   2.212   4.259
 3804TIP3    H211356   1.872   2.179   4.133
 3805TIP3   OH211357   4.451   1.105   2.251
 3805TIP3    H111358   4.454   1.193   2.288
 3805TIP3    H211359   4.386   1.059   2.303
 3806TIP3   OH211360   6.746   3.400   0.539
 3806TIP3    H111361   6.766   3.378   0.448
 3806TIP3    H211362   6.783   3.487   0.551
 3807TIP3   OH211363   4.511   7.618   2.716
 3807TIP3    H111364   4.533   7.541   2.769
 3807TIP3    H211365   4.415   7.622   2.719
 3808TIP3   OH211366   1.532   0.393   5.947
 3808TIP3    H111367   1.535   0.368   5.855
 3808TIP3    H211368   1.473   0.468   5.949
 3809TIP3   OH211369   2.796   0.232   2.839
 3809TIP3    H111370   2.855   0.307   2.830
 3809TIP3    H211371   2.720   0.254   2.787
 3810TIP3   OH211372   0.833   3.615   5.304
 3810TIP3    H111373   0.886   3.537   5.292
 3810TIP3    H211374   0.744   3.582   5.316
 3811TIP3   OH211375   0.116   4.055   6.590
 3811TIP3    H111376   0.048   4.006   6.636
 3811TIP3    H211377   0.094   4.147   6.605
 3812TIP3   OH211378   5.752   6.719   1.129
 3812TIP3    H111379   5.698   6.649   1.091
 3812TIP3    H211380   5.828   6.672   1.165
 3813TIP3   OH211381   5.730   0.690   1.363
 3813TIP3    H111382   5.675   0.656   1.293
 3813TIP3    H211383   5.791   0.619   1.383
 3814TIP3   OH211384   3.119   6.003   0.356
 3814TIP3    H111385   3.108   5.934   0.290
 3814TIP3    H211386   3.214   6.009   0.367
 3815TIP3   OH211387   3.382   0.930   0.983
 3815TIP3    H111388   3.424   0.938   0.898
 3815TIP3    H211389   3.288   0.932   0.964
 3816TIP3   OH211390   1.195   3.801   1.372
 3816TIP3    H111391   1.153   3.818   1.288
 3816TIP3    H211392   1.143   3.732   1.412
 3817TIP3   OH211393   1.464   4.435   3.933
 3817TIP3    H111394   1.397   4.430   3.865
 3817TIP3    H211395   1.424   4.487   4.003
 3818TIP3   OH211396   5.807   5.210   6.429
 3818TIP3    H111397   5.759   5.202   6.346
 3818TIP3    H211398   5.899   5.196   6.405
 3819TIP3   OH211399   6.497   5.466   5.386
 3819TIP3    H111400   6.483   5.550   5.342
 3819TIP3    H211401   6.550   5.415   5.324
 3820TIP3   OH211402   1.077   7.611   0.098
 3820TIP3    H111403   1.111   7.677   0.037
 3820TIP3    H211404   1.117   7.635   0.182
 3821TIP3   OH211405   7.745   3.721   2.954
 3821TIP3    H111406   7.737   3.635   2.996
 3821TIP3    H211407   7.778   3.702   2.866
 3822TIP3   OH211408   6.550   0.479   5.995
 3822TIP3    H111409   6.613   0.446   5.930
 3822TIP3    H211410   6.471   0.428   5.978
 3823TIP3   OH211411   4.748   7.299   4.120
 3823TIP3    H111412   4.668   7.348   4.141
 3823TIP3    H211413   4.774   7.260   4.203
 3824TIP3   OH211414   2.537   4.191   1.992
 3824TIP3    H111415   2.547   4.276   1.949
 3824TIP3    H211416   2.445   4.189   2.018
 3825TIP3   OH211417   4.096   1.813   1.240
 3825TIP3    H111418   4.079   1.844   1.329
 3825TIP3    H211419   4.192   1.808   1.235
 3826TIP3   OH211420   5.805   2.763   0.502
 3826TIP3    H111421   5.711   2.761   0.522
 3826TIP3    H211422   5.809   2.801   0.414
 3827TIP3   OH211423   1.408   3.749   2.047
 3827TIP3    H111424   1.325   3.757   2.000
 3827TIP3    H211425   1.407   3.661   2.084
 3828TIP3   OH211426   2.644   7.238   6.062
 3828TIP3    H111427   2.555   7.236   6.027
 3828TIP3    H211428   2.676   7.149   6.050
 3829TIP3   OH211429   2.587   6.396   3.726
 3829TIP3    H111430   2.632   6.391   3.641
 3829TIP3    H211431   2.498   6.366   3.707
 3830TIP3   OH211432   2.230   1.774   5.928
 3830TIP3    H111433   2.159   1.799   5.870
 3830TIP3    H211434   2.242   1.850   5.985
 3831TIP3   OH211435   0.612   5.916   5.673
 3831TIP3    H111436   0.640   5.883   5.588
 3831TIP3    H211437   0.557   5.992   5.653
 3832TIP3   OH211438   4.172   3.391   1.531
 3832TIP3    H111439   4.085   3.352   1.542
 3832TIP3    H211440   4.233   3.326   1.566
 3833TIP3   OH211441   5.796   1.370   3.299
 3833TIP3    H111442   5.726   1.320   3.259
 3833TIP3    H211443   5.760   1.401   3.382
 3834TIP3   OH211444   6.254   5.974   1.535
 3834TIP3    H111445   6.273   5.881   1.524
 3834TIP3    H211446   6.291   5.997   1.620
 3835TIP3   OH211447   4.338   0.328   2.167
 3835TIP3    H111448   4.391   0.293   2.239
 3835TIP3    H211449   4.398   0.333   2.093
 3836TIP3   OH211450   1.254   3.630   4.946
 3836TIP3    H111451   1.268   3.542   4.909
 3836TIP3    H211452   1.335   3.649   4.993
 3837TIP3   OH211453   4.305   7.592   1.762
 3837TIP3    H111454   4.320   7.679   1.801
 3837TIP3    H211455   4.330   7.602   1.671
 3838TIP3   OH211456   5.263   4.533   4.712
 3838TIP3    H111457   5.313   4.455   4.689
 3838TIP3    H211458   5.271   4.539   4.807
 3839TIP3   OH211459   7.420   6.189   1.118
 3839TIP3    H111460   7.368   6.255   1.073
 3839TIP3    H211461   7.392   6.195   1.209
 3840TIP3   OH211462   7.745   6.582   1.663
 3840TIP3    H111463   7.810   6.652   1.672
 3840TIP3    H211464   7.698   6.582   1.747
 3841TIP3   OH211465   0.463   2.558   4.546
 3841TIP3    H111466   0.419   2.612   4.480
 3841TIP3    H211467   0.465   2.613   4.624
 3842TIP3   OH211468   6.809   7.057   3.854
 3842TIP3    H111469   6.736   7.066   3.793
 3842TIP3    H211470   6.767   7.043   3.939
 3843TIP3   OH211471   0.777   5.543   3.667
 3843TIP3    H111472   0.697   5.513   3.710
 3843TIP3    H211473   0.838   5.562   3.738
 3844TIP3   OH211474   5.748   7.088   4.016
 3844TIP3    H111475   5.739   7.152   4.088
 3844TIP3    H211476   5.764   7.142   3.939
 3845TIP3   OH211477   5.188   5.159   0.569
 3845TIP3    H111478   5.154   5.164   0.480
 3845TIP3    H211479   5.268   5.212   0.568
 3846TIP3   OH211480   2.041   6.911   6.039
 3846TIP3    H111481   2.014   6.828   6.000
 3846TIP3    H211482   2.083   6.959   5.968
 3847TIP3   OH211483   1.824   6.289   6.486
 3847TIP3    H111484   1.799   6.270   6.576
 3847TIP3    H211485   1.861   6.377   6.490
 3848TIP3   OH211486   1.858   1.741   2.872
 3848TIP3    H111487   1.895   1.800   2.938
 3848TIP3    H211488   1.813   1.799   2.810
 3849TIP3   OH211489   7.134   4.362   6.204
 3849TIP3    H111490   7.109   4.294   6.141
 3849TIP3    H211491   7.120   4.444   6.157
 3850TIP3   OH211492   7.916   2.928   4.839
 3850TIP3    H111493   7.932   2.932   4.745
 3850TIP3    H211494   7.947   2.842   4.865
 3851TIP3   OH211495   7.050   4.049   3.343
 3851TIP3    H111496   7.064   4.138   3.376
 3851TIP3    H211497   7.131   4.029   3.295
 3852TIP3   OH211498   5.911   5.921   3.861
 3852TIP3    H111499   5.838   5.923   3.799
 3852TIP3    H211500   5.888   5.851   3.922
 3853TIP3   OH211501   6.513   7.649   3.528
 3853TIP3    H111502   6.521   7.554   3.530
 3853TIP3    H211503   6.496   7.670   3.437
 3854TIP3   OH211504   2.026   7.244   6.672
 3854TIP3    H111505   1.967   7.235   6.598
 3854TIP3    H211506   1.969   7.250   6.749
 3855TIP3   OH211507   7.346   7.006   3.769
 3855TIP3    H111508   7.268   6.959   3.795
 3855TIP3    H211509   7.350   7.082   3.827
 3856TIP3   OH211510   2.699   0.849   5.296
 3856TIP3    H111511   2.678   0.796   5.373
 3856TIP3    H211512   2.755   0.919   5.329
 3857TIP3   OH211513   4.097   0.881   3.388
 3857TIP3    H111514   4.154   0.942   3.341
 3857TIP3    H211515   4.156   0.835   3.448
 3858TIP3   OH211516   5.122   5.089   2.722
 3858TIP3    H111517   5.082   5.004   2.703
 3858TIP3    H211518   5.193   5.068   2.782
 3859TIP3   OH211519   3.146   5.360   2.724
 3859TIP3    H111520   3.069   5.311   2.752
 3859TIP3    H211521   3.115   5.414   2.652
 3860TIP3   OH211522   2.572   1.369   5.924
 3860TIP3    H111523   2.534   1.451   5.891
 3860TIP3    H211524   2.643   1.349   5.862
 3861TIP3   OH211525   7.346   2.735   3.929
 3861TIP3    H111526   7.384   2.647   3.929
 3861TIP3    H211527   7.414   2.791   3.966
 3862TIP3   OH211528   1.885   5.091   0.151
 3862TIP3    H111529   1.847   5.030   0.214
 3862TIP3    H211530   1.824   5.090   0.077
 3863TIP3   OH211531   1.884   5.882   0.898
 3863TIP3    H111532   1.974   5.893   0.928
 3863TIP3    H211533   1.893   5.856   0.806
 3864TIP3   OH211534   1.115   1.110   3.990
 3864TIP3    H111535   1.125   1.015   3.993
 3864TIP3    H211536   1.199   1.144   4.021
 3865TIP3   OH211537   1.445   5.102   5.345
 3865TIP3    H111538   1.366   5.091   5.398
 3865TIP3    H211539   1.426   5.059   5.263
 3866TIP3   OH211540   7.165   7.063   0.347
 3866TIP3    H111541   7.084   7.113   0.344
 3866TIP3    H211542   7.152   6.991   0.286
 3867TIP3   OH211543   1.451   0.391   1.227
 3867TIP3    H111544   1.371   0.363   1.272
 3867TIP3    H211545   1.450   0.487   1.234
 3868TIP3   OH211546   4.558   0.451   5.820
 3868TIP3    H111547   4.639   0.492   5.848
 3868TIP3    H211548   4.525   0.507   5.751
 3869TIP3   OH211549   7.886   3.884   6.334
 3869TIP3    H111550   7.926   3.970   6.321
 3869TIP3    H211551   7.795   3.902   6.357
 3870TIP3   OH211552   5.912   5.923   2.048
 3870TIP3    H111553   5.983   5.925   1.984
 3870TIP3    H211554   5.945   5.973   2.122
 3871TIP3   OH211555   4.679   0.328   4.109
 3871TIP3    H111556   4.732   0.320   4.029
 3871TIP3    H211557   4.677   0.240   4.146
 3872TIP3   OH211558   1.583   5.375   1.240
 3872TIP3    H111559   1.617   5.450   1.288
 3872TIP3    H211560   1.580   5.404   1.149
 3873TIP3   OH211561   4.530   4.867   1.637
 3873TIP3    H111562   4.543   4.811   1.560
 3873TIP3    H211563   4.496   4.949   1.601
 3874TIP3   OH211564   6.718   5.151   5.676
 3874TIP3    H111565   6.740   5.147   5.770
 3874TIP3    H211566   6.760   5.073   5.639
 3875TIP3   OH211567   2.272   3.287   4.370
 3875TIP3    H111568   2.339   3.281   4.439
 3875TIP3    H211569   2.271   3.380   4.347
 3876TIP3   OH211570   3.328   3.260   3.778
 3876TIP3    H111571   3.354   3.184   3.726
 3876TIP3    H211572   3.234   3.271   3.761
 3877TIP3   OH211573   2.354   2.178   2.922
 3877TIP3    H111574   2.309   2.166   2.838
 3877TIP3    H211575   2.310   2.254   2.962
 3878TIP3   OH211576   4.072   4.898   0.896
 3878TIP3    H111577   4.147   4.883   0.954
 3878TIP3    H211578   4.000   4.850   0.936
 3879TIP3   OH211579   4.393   5.095   5.133
 3879TIP3    H111580   4.315   5.136   5.094
 3879TIP3    H211581   4.425   5.161   5.196
 3880TIP3   OH211582   0.787   5.070   2.772
 3880TIP3    H111583   0.696   5.057   2.799
 3880TIP3    H211584   0.794   5.026   2.687
 3881TIP3   OH211585   0.552   5.767   5.065
 3881TIP3    H111586   0.549   5.856   5.100
 3881TIP3    H211587   0.613   5.772   4.992
 3882TIP3   OH211588   3.696   6.319   3.972
 3882TIP3    H111589   3.739   6.347   4.053
 3882TIP3    H211590   3.617   6.274   4.002
 3883TIP3   OH211591   3.390   1.788   4.641
 3883TIP3    H111592   3.357   1.865   4.594
 3883TIP3    H211593   3.314   1.756   4.689
 3884TIP3   OH211594   0.117   5.081   5.708
 3884TIP3    H111595   0.135   5.037   5.790
 3884TIP3    H211596   0.121   5.174   5.729
 3885TIP3   OH211597   6.924   1.999   5.359
 3885TIP3    H111598   6.935   2.035   5.447
 3885TIP3    H211599   6.909   1.906   5.373
 3886TIP3   OH211600   7.161   3.118   5.230
 3886TIP3    H111601   7.183   3.212   5.231
 3886TIP3    H211602   7.140   3.100   5.138
 3887TIP3   OH211603   1.688   1.136   5.739
 3887TIP3    H111604   1.639   1.106   5.662
 3887TIP3    H211605   1.628   1.123   5.812
 3888TIP3   OH211606   1.295   5.340   4.778
 3888TIP3    H111607   1.329   5.250   4.773
 3888TIP3    H211608   1.339   5.386   4.707
 3889TIP3   OH211609   3.444   4.251   2.333
 3889TIP3    H111610   3.356   4.231   2.301
 3889TIP3    H211611   3.432   4.326   2.392
 3890TIP3   OH211612   2.093   5.405   4.851
 3890TIP3    H111613   2.060   5.448   4.930
 3890TIP3    H211614   2.015   5.389   4.798
 3891TIP3   OH211615   2.032   6.064   6.003
 3891TIP3    H111616   2.000   6.040   6.089
 3891TIP3    H211617   1.971   6.131   5.972
 3892TIP3   OH211618   3.357   5.151   2.369
 3892TIP3    H111619   3.425   5.084   2.360
 3892TIP3    H211620   3.402   5.227   2.407
 3893TIP3   OH211621   0.065   4.512   5.720
 3893TIP3    H111622   0.147   4.562   5.720
 3893TIP3    H211623   0.061   4.475   5.808
 3894TIP3   OH211624   1.415   0.724   1.539
 3894TIP3    H111625   1.371   0.692   1.617
 3894TIP3    H211626   1.508   0.716   1.558
 3895TIP3   OH211627   6.185   2.280   4.162
 3895TIP3    H111628   6.198   2.324   4.078
 3895TIP3    H211629   6.243   2.326   4.223
 3896TIP3   OH211630   6.224   0.380   4.978
 3896TIP3    H111631   6.212   0.350   5.068
 3896TIP3    H211632   6.135   0.395   4.945
 3897TIP3   OH211633   2.881   2.413   3.251
 3897TIP3    H111634   2.952   2.353   3.274
 3897TIP3    H211635   2.886   2.420   3.155
 3898TIP3   OH211636   6.753   0.927   1.019
 3898TIP3    H111637   6.705   0.932   1.102
 3898TIP3    H211638   6.804   1.009   1.016
 3899TIP3   OH211639   6.211   6.896   2.816
 3899TIP3    H111640   6.292   6.877   2.863
 3899TIP3    H211641   6.236   6.963   2.752
 3900TIP3   OH211642   7.697   3.960   3.325
 3900TIP3    H111643   7.632   3.926   3.387
 3900TIP3    H211644   7.719   4.046   3.360
 3901TIP3   OH211645   2.044   2.659   4.703
 3901TIP3    H111646   2.077   2.713   4.631
 3901TIP3    H211647   2.025   2.574   4.661
 3902TIP3   OH211648   4.823   5.421   2.273
 3902TIP3    H111649   4.742   5.443   2.228
 3902TIP3    H211650   4.835   5.328   2.258
 3903TIP3   OH211651   0.794   0.905   4.115
 3903TIP3    H111652   0.725   0.844   4.142
 3903TIP3    H211653   0.778   0.919   4.021
 3904TIP3   OH211654   2.778   5.927   6.713
 3904TIP3    H111655   2.869   5.939   6.742
 3904TIP3    H211656   2.755   5.839   6.743
 3905TIP3   OH211657   5.145   3.920   5.827
 3905TIP3    H111658   5.188   3.991   5.875
 3905TIP3    H211659   5.091   3.965   5.762
 3906TIP3   OH211660   7.735   4.508   0.300
 3906TIP3    H111661   7.811   4.474   0.346
 3906TIP3    H211662   7.718   4.444   0.231
 3907TIP3   OH211663   0.957   5.561   4.844
 3907TIP3    H111664   0.932   5.482   4.891
 3907TIP3    H211665   0.966   5.628   4.912
 3908TIP3   OH211666   2.314   1.789   5.574
 3908TIP3    H111667   2.389   1.729   5.566
 3908TIP3    H211668   2.346   1.858   5.632
 3909TIP3   OH211669   3.250   3.781   2.343
 3909TIP3    H111670   3.205   3.777   2.427
 3909TIP3    H211671   3.276   3.872   2.333
 3910TIP3   OH211672   6.563   7.593   2.956
 3910TIP3    H111673   6.496   7.661   2.960
 3910TIP3    H211674   6.645   7.641   2.945
 3911TIP3   OH211675   1.563   1.306   3.578
 3911TIP3    H111676   1.498   1.318   3.508
 3911TIP3    H211677   1.515   1.260   3.647
 3912TIP3   OH211678   2.644   4.930   4.620
 3912TIP3    H111679   2.610   5.020   4.619
 3912TIP3    H211680   2.706   4.929   4.693
 3913TIP3   OH211681   6.016   5.171   5.689
 3913TIP3    H111682   6.010   5.084   5.650
 3913TIP3    H211683   6.052   5.156   5.776
 3914TIP3   OH211684   4.287   1.005   4.471
 3914TIP3    H111685   4.229   1.002   4.547
 3914TIP3    H211686   4.287   0.916   4.437
 3915TIP3   OH211687   3.072   2.643   6.376
 3915TIP3    H111688   3.085   2.568   6.434
 3915TIP3    H211689   3.019   2.704   6.428
 3916TIP3   OH211690   2.526   3.078   0.229
 3916TIP3    H111691   2.539   3.032   0.312
 3916TIP3    H211692   2.442   3.123   0.239
 3917TIP3   OH211693   2.714   3.326   2.995
 3917TIP3    H111694   2.786   3.266   2.974
 3917TIP3    H211695   2.673   3.345   2.910
 3918TIP3   OH211696   3.273   1.649   3.958
 3918TIP3    H111697   3.260   1.569   4.009
 3918TIP3    H211698   3.185   1.684   3.945
 3919TIP3   OH211699   2.706   7.699   3.068
 3919TIP3    H111700   2.641   7.734   3.129
 3919TIP3    H211701   2.661   7.701   2.983
 3920TIP3   OH211702   4.769   6.725   3.801
 3920TIP3    H111703   4.680   6.708   3.830
 3920TIP3    H211704   4.824   6.678   3.864
 3921TIP3   OH211705   1.470   7.116   4.161
 3921TIP3    H111706   1.476   7.103   4.067
 3921TIP3    H211707   1.556   7.150   4.187
 3922TIP3   OH211708   3.602   2.047   5.373
 3922TIP3    H111709   3.662   1.979   5.344
 3922TIP3    H211710   3.515   2.017   5.345
 3923TIP3   OH211711   7.810   6.672   2.923
 3923TIP3    H111712   7.760   6.647   2.845
 3923TIP3    H211713   7.866   6.597   2.941
 3924TIP3   OH211714   3.547   3.814   2.615
 3924TIP3    H111715   3.475   3.819   2.677
 3924TIP3    H211716   3.620   3.778   2.666
 3925TIP3   OH211717   5.464   0.180   2.425
 3925TIP3    H111718   5.543   0.127   2.429
 3925TIP3    H211719   5.419   0.149   2.346
 3926TIP3   OH211720   3.569   5.762   3.748
 3926TIP3    H111721   3.474   5.756   3.757
 3926TIP3    H211722   3.593   5.683   3.700
 3927TIP3   OH211723   5.245   5.684   3.751
 3927TIP3    H111724   5.281   5.648   3.670
 3927TIP3    H211725   5.239   5.609   3.810
 3928TIP3   OH211726   1.990   7.115   1.313
 3928TIP3    H111727   2.065   7.077   1.358
 3928TIP3    H211728   2.027   7.189   1.264
 3929TIP3   OH211729   5.819   3.519   0.111
 3929TIP3    H111730   5.854   3.521   0.022
 3929TIP3    H211731   5.853   3.598   0.152
 3930TIP3   OH211732   2.327   2.811   3.577
 3930TIP3    H111733   2.418   2.820   3.604
 3930TIP3    H211734   2.290   2.899   3.590
 3931TIP3   OH211735   2.476   4.177   0.605
 3931TIP3    H111736   2.559   4.225   0.609
 3931TIP3    H211737   2.499   4.094   0.563
 3932TIP3   OH211738   2.884   7.229   3.754
 3932TIP3    H111739   2.898   7.287   3.679
 3932TIP3    H211740   2.822   7.276   3.810
 3933TIP3   OH211741   7.912   5.678   0.253
 3933TIP3    H111742   7.987   5.720   0.295
 3933TIP3    H211743   7.840   5.740   0.262
 3934TIP3   OH211744   6.718   6.932   1.112
 3934TIP3    H111745   6.641   6.904   1.162
 3934TIP3    H211746   6.719   7.027   1.120
 3935TIP3   OH211747   2.801   3.085   4.614
 3935TIP3    H111748   2.793   3.096   4.709
 3935TIP3    H211749   2.791   3.173   4.578
 3936TIP3   OH211750   6.985   2.491   0.053
 3936TIP3    H111751   6.911   2.454   0.005
 3936TIP3    H211752   6.963   2.477   0.145
 3937TIP3   OH211753   6.316   3.708   3.898
 3937TIP3    H111754   6.336   3.793   3.938
 3937TIP3    H211755   6.382   3.649   3.932
 3938TIP3   OH211756   5.015   4.630   3.433
 3938TIP3    H111757   4.969   4.645   3.350
 3938TIP3    H211758   4.946   4.619   3.497
 3939TIP3   OH211759   7.813   7.393   1.317
 3939TIP3    H111760   7.840   7.318   1.263
 3939TIP3    H211761   7.792   7.354   1.402
 3940TIP3   OH211762   1.981   2.448   3.045
 3940TIP3    H111763   2.074   2.440   3.066
 3940TIP3    H211764   1.956   2.535   3.079
 3941TIP3   OH211765   1.234   0.162   6.369
 3941TIP3    H111766   1.281   0.083   6.342
 3941TIP3    H211767   1.230   0.215   6.289
 3942TIP3   OH211768   0.157   4.189   3.435
 3942TIP3    H111769   0.243   4.225   3.454
 3942TIP3    H211770   0.101   4.219   3.506
 3943TIP3   OH211771   0.266   5.237   5.067
 3943TIP3    H111772   0.232   5.238   4.978
 3943TIP3    H211773   0.273   5.144   5.088
 3944TIP3   OH211774   0.594   4.856   5.894
 3944TIP3    H111775   0.604   4.762   5.875
 3944TIP3    H211776   0.585   4.860   5.989
 3945TIP3   OH211777   2.539   0.561   2.972
 3945TIP3    H111778   2.628   0.580   2.941
 3945TIP3    H211779   2.488   0.637   2.943
 3946TIP3   OH211780   0.857   1.309   5.727
 3946TIP3    H111781   0.857   1.214   5.723
 3946TIP3    H211782   0.949   1.333   5.738
 3947TIP3   OH211783   6.145   6.087   0.303
 3947TIP3    H111784   6.088   6.118   0.374
 3947TIP3    H211785   6.100   6.008   0.271
 3948TIP3   OH211786   7.437   2.420   5.236
 3948TIP3    H111787   7.495   2.477   5.185
 3948TIP3    H211788   7.398   2.478   5.301
 3949TIP3   OH211789   1.383   5.233   2.814
 3949TIP3    H111790   1.358   5.143   2.835
 3949TIP3    H211791   1.300   5.282   2.814
 3950TIP3   OH211792   0.245   7.743   3.927
 3950TIP3    H111793   0.276   7.824   3.886
 3950TIP3    H211794   0.170   7.771   3.980
 3951TIP3   OH211795   0.942   4.669   1.116
 3951TIP3    H111796   0.860   4.634   1.082
 3951TIP3    H211797   0.981   4.596   1.165
 3952TIP3   OH211798   2.748   1.527   2.580
 3952TIP3    H111799   2.661   1.522   2.620
 3952TIP3    H211800   2.744   1.604   2.523
 3953TIP3   OH211801   4.747   3.118   1.616
 3953TIP3    H111802   4.696   3.062   1.557
 3953TIP3    H211803   4.817   3.061   1.648
 3954TIP3   OH211804   3.484   3.480   6.465
 3954TIP3    H111805   3.481   3.385   6.456
 3954TIP3    H211806   3.415   3.501   6.528
 3955TIP3   OH211807   0.900   6.219   3.127
 3955TIP3    H111808   0.833   6.174   3.075
 3955TIP3    H211809   0.879   6.312   3.116
 3956TIP3   OH211810   6.502   0.254   2.693
 3956TIP3    H111811   6.543   0.191   2.752
 3956TIP3    H211812   6.430   0.291   2.744
 3957TIP3   OH211813   5.541   4.547   1.610
 3957TIP3    H111814   5.572   4.495   1.536
 3957TIP3    H211815   5.610   4.611   1.626
 3958TIP3   OH211816   4.847   6.175   0.714
 3958TIP3    H111817   4.859   6.183   0.620
 3958TIP3    H211818   4.781   6.240   0.736
 3959TIP3   OH211819   4.260   7.029   3.463
 3959TIP3    H111820   4.211   6.947   3.471
 3959TIP3    H211821   4.194   7.093   3.436
 3960TIP3   OH211822   1.901   2.784   6.643
 3960TIP3    H111823   1.931   2.864   6.686
 3960TIP3    H211824   1.816   2.807   6.605
 3961TIP3   OH211825   3.673   5.145   6.686
 3961TIP3    H111826   3.678   5.050   6.697
 3961TIP3    H211827   3.594   5.170   6.735
 3962TIP3   OH211828   0.924   7.677   1.249
 3962TIP3    H111829   0.931   7.720   1.164
 3962TIP3    H211830   0.937   7.748   1.312
 3963TIP3   OH211831   3.320   2.886   4.866
 3963TIP3    H111832   3.360   2.967   4.832
 3963TIP3    H211833   3.308   2.903   4.960
 3964TIP3   OH211834   5.643   4.739   0.577
 3964TIP3    H111835   5.707   4.706   0.640
 3964TIP3    H211836   5.696   4.784   0.511
 3965TIP3   OH211837   4.940   5.721   1.853
 3965TIP3    H111838   4.980   5.773   1.923
 3965TIP3    H211839   4.936   5.632   1.889
 3966TIP3   OH211840   1.929   4.162   6.554
 3966TIP3    H111841   1.844   4.139   6.593
 3966TIP3    H211842   1.907   4.222   6.483
 3967TIP3   OH211843   5.142   6.280   4.734
 3967TIP3    H111844   5.078   6.266   4.804
 3967TIP3    H211845   5.208   6.338   4.773
 3968TIP3   OH211846   1.617   2.954   3.470
 3968TIP3    H111847   1.671   2.898   3.525
 3968TIP3    H211848   1.660   2.952   3.385
 3969TIP3   OH211849   7.887   3.021   3.019
 3969TIP3    H111850   7.979   3.035   3.042
 3969TIP3    H211851   7.868   2.932   3.047
 3970TIP3   OH211852   0.538   2.230   5.676
 3970TIP3    H111853   0.498   2.293   5.737
 3970TIP3    H211854   0.566   2.158   5.732
 3971TIP3   OH211855   4.449   0.106   6.649
 3971TIP3    H111856   4.515   0.095   6.717
 3971TIP3    H211857   4.447   0.200   6.632
 3972TIP3   OH211858   7.803   2.452   3.950
 3972TIP3    H111859   7.804   2.361   3.917
 3972TIP3    H211860   7.800   2.443   4.045
 3973TIP3   OH211861   6.650   2.812   3.723
 3973TIP3    H111862   6.711   2.761   3.776
 3973TIP3    H211863   6.671   2.903   3.744
 3974TIP3   OH211864   3.163   4.272   1.672
 3974TIP3    H111865   3.210   4.192   1.697
 3974TIP3    H211866   3.167   4.273   1.576
 3975TIP3   OH211867   5.635   1.205   5.044
 3975TIP3    H111868   5.684   1.148   5.103
 3975TIP3    H211869   5.544   1.197   5.074
 3976TIP3   OH211870   3.025   3.324   2.041
 3976TIP3    H111871   2.934   3.348   2.024
 3976TIP3    H211872   3.037   3.343   2.134
 3977TIP3   OH211873   2.371   7.837   5.891
 3977TIP3    H111874   2.391   7.808   5.801
 3977TIP3    H211875   2.365   7.756   5.941
 3978TIP3   OH211876   3.900   1.215   0.368
 3978TIP3    H111877   3.874   1.242   0.456
 3978TIP3    H211878   3.881   1.121   0.365
 3979TIP3   OH211879   4.469   3.425   5.186
 3979TIP3    H111880   4.398   3.462   5.240
 3979TIP3    H211881   4.495   3.498   5.129
 3980TIP3   OH211882   5.983   0.237   2.838
 3980TIP3    H111883   5.982   0.254   2.932
 3980TIP3    H211884   5.944   0.315   2.798
 3981TIP3   OH211885   6.271   7.645   1.497
 3981TIP3    H111886   6.214   7.578   1.535
 3981TIP3    H211887   6.238   7.727   1.533
 3982TIP3   OH211888   7.130   6.899   4.387
 3982TIP3    H111889   7.067   6.961   4.349
 3982TIP3    H211890   7.116   6.818   4.338
 3983TIP3   OH211891   1.858   7.553   3.498
 3983TIP3    H111892   1.807   7.567   3.578
 3983TIP3    H211893   1.946   7.582   3.521
 3984TIP3   OH211894   1.990   3.332   4.665
 3984TIP3    H111895   2.080   3.360   4.685
 3984TIP3    H211896   2.000   3.267   4.595
 3985TIP3   OH211897   6.509   4.283   4.001
 3985TIP3    H111898   6.580   4.254   3.944
 3985TIP3    H211899   6.435   4.225   3.979
 3986TIP3   OH211900   5.426   5.179   2.360
 3986TIP3    H111901   5.365   5.113   2.328
 3986TIP3    H211902   5.454   5.226   2.282
 3987TIP3   OH211903   3.594   4.788   0.188
 3987TIP3    H111904   3.598   4.874   0.146
 3987TIP3    H211905   3.564   4.729   0.119
 3988TIP3   OH211906   6.538   3.577   2.181
 3988TIP3    H111907   6.633   3.586   2.183
 3988TIP3    H211908   6.507   3.632   2.253
 3989TIP3   OH211909   0.061   7.768   4.111
 3989TIP3    H111910   0.063   7.761   4.207
 3989TIP3    H211911  -0.030   7.788   4.091
 3990TIP3   OH211912   7.863   3.358   6.237
 3990TIP3    H111913   7.831   3.420   6.172
 3990TIP3    H211914   7.935   3.404   6.281
 3991TIP3   OH211915   4.032   0.325   4.067
 3991TIP3    H111916   3.995   0.236   4.072
 3991TIP3    H211917   3.960   0.379   4.035
 3992TIP3   OH211918   2.837   2.604   0.126
 3992TIP3    H111919   2.832   2.549   0.048
 3992TIP3    H211920   2.786   2.682   0.104
 3993TIP3   OH211921   7.112   7.440   1.621
 3993TIP3    H111922   7.132   7.354   1.658
 3993TIP3    H211923   7.029   7.465   1.663
 3994TIP3   OH211924   8.206   0.265   0.439
 3994TIP3    H111925   8.239   0.332   0.379
 3994TIP3    H211926   8.200   0.310   0.524
 3995TIP3   OH211927   6.760   4.289   3.924
 3995TIP3    H111928   6.759   4.240   4.007
 3995TIP3    H211929   6.853   4.294   3.901
 3996TIP3   OH211930   3.498   3.852   3.861
 3996TIP3    H111931   3.409   3.873   3.889
 3996TIP3    H211932   3.539   3.813   3.938
 3997TIP3   OH211933   3.141   0.840   0.812
 3997TIP3    H111934   3.112   0.803   0.729
 3997TIP3    H211935   3.077   0.812   0.876
 3998TIP3   OH211936   4.728   6.005   2.769
 3998TIP3    H111937   4.819   5.981   2.750
 3998TIP3    H211938   4.736   6.079   2.829
 3999TIP3   OH211939   2.644   0.523   4.611
 3999TIP3    H111940   2.641   0.618   4.622
 3999TIP3    H211941   2.695   0.510   4.532
 4000TIP3   OH211942   7.366   2.418   0.138
 4000TIP3    H111943   7.446   2.447   0.093
 4000TIP3    H211944   7.347   2.488   0.201
 4001TIP3   OH211945   3.076   4.467   0.613
 4001TIP3    H111946   3.136   4.464   0.687
 4001TIP3    H211947   3.000   4.416   0.640
 4002TIP3   OH211948   1.077   3.751   4.762
 4002TIP3    H111949   1.137   3.808   4.714
 4002TIP3    H211950   1.132   3.702   4.823
 4003TIP3   OH211951   3.627   0.023   5.244
 4003TIP3    H111952   3.537   0.051   5.224
 4003TIP3    H211953   3.645  -0.045   5.179
 4004TIP3   OH211954   1.614   3.294   0.563
 4004TIP3    H111955   1.597   3.371   0.618
 4004TIP3    H211956   1.611   3.328   0.473
 4005TIP3   OH211957   3.841   3.932   5.481
 4005TIP3    H111958   3.843   4.002   5.546
 4005TIP3    H211959   3.855   3.852   5.532
 4006TIP3   OH211960   2.309   3.348   1.565
 4006TIP3    H111961   2.257   3.427   1.574
 4006TIP3    H211962   2.246   3.281   1.537
 4007TIP3   OH211963   4.157   1.924   1.747
 4007TIP3    H111964   4.082   1.919   1.806
 4007TIP3    H211965   4.223   1.869   1.789
 4008TIP3   OH211966   8.112   4.031   3.659
 4008TIP3    H111967   8.076   3.963   3.603
 4008TIP3    H211968   8.091   4.003   3.748
 4009TIP3   OH211969   0.325   4.960   6.561
 4009TIP3    H111970   0.312   4.871   6.528
 4009TIP3    H211971   0.341   5.013   6.483
 4010TIP3   OH211972   3.130   6.767   2.350
 4010TIP3    H111973   3.084   6.693   2.391
 4010TIP3    H211974   3.205   6.783   2.407
 4011TIP3   OH211975   4.765   3.320   1.456
 4011TIP3    H111976   4.769   3.290   1.366
 4011TIP3    H211977   4.763   3.240   1.508
 4012TIP3   OH211978   0.179   6.579   4.676
 4012TIP3    H111979   0.206   6.626   4.597
 4012TIP3    H211980   0.187   6.644   4.746
 4013TIP3   OH211981   7.233   7.456   1.331
 4013TIP3    H111982   7.182   7.444   1.412
 4013TIP3    H211983   7.195   7.394   1.269
 4014TIP3   OH211984   1.243   0.233   3.980
 4014TIP3    H111985   1.178   0.290   3.938
 4014TIP3    H211986   1.203   0.209   4.063
 4015TIP3   OH211987   7.349   4.101   1.146
 4015TIP3    H111988   7.255   4.107   1.131
 4015TIP3    H211989   7.387   4.085   1.060
 4016TIP3   OH211990   3.614   1.614   4.685
 4016TIP3    H111991   3.616   1.635   4.778
 4016TIP3    H211992   3.523   1.628   4.659
 4017TIP3   OH211993   6.517   5.612   1.889
 4017TIP3    H111994   6.578   5.567   1.947
 4017TIP3    H211995   6.432   5.572   1.906
 4018TIP3   OH211996   7.205   2.047   6.575
 4018TIP3    H111997   7.223   2.125   6.627
 4018TIP3    H211998   7.287   2.028   6.530
 4019TIP3   OH211999   7.275   1.966   5.375
 4019TIP3    H112000   7.314   1.949   5.289
 4019TIP3    H212001   7.241   2.055   5.369
 4020TIP3   OH212002   6.690   6.273   4.189
 4020TIP3    H112003   6.643   6.327   4.251
 4020TIP3    H212004   6.782   6.279   4.215
 4021TIP3   OH212005   1.350   1.308   3.413
 4021TIP3    H112006   1.290   1.375   3.446
 4021TIP3    H212007   1.294   1.241   3.374
 4022TIP3   OH212008   7.297   7.636   2.323
 4022TIP3    H112009   7.381   7.670   2.353
 4022TIP3    H212010   7.294   7.657   2.230
 4023TIP3   OH212011   7.209   0.060   3.741
 4023TIP3    H112012   7.192   0.151   3.715
 4023TIP3    H212013   7.126   0.029   3.777
 4024TIP3   OH212014   6.474   3.426   6.210
 4024TIP3    H112015   6.415   3.372   6.262
 4024TIP3    H212016   6.537   3.365   6.173
 4025TIP3   OH212017   7.622   2.884   6.294
 4025TIP3    H112018   7.612   2.865   6.201
 4025TIP3    H212019   7.545   2.844   6.335
 4026TIP3   OH212020   5.592   5.277   3.920
 4026TIP3    H112021   5.511   5.243   3.881
 4026TIP3    H212022   5.627   5.203   3.969
 4027TIP3   OH212023   3.493   3.488   0.812
 4027TIP3    H112024   3.510   3.414   0.870
 4027TIP3    H212025   3.474   3.561   0.871
 4028TIP3   OH212026   7.953   6.408   4.906
 4028TIP3    H112027   7.907   6.417   4.823
 4028TIP3    H212028   8.039   6.372   4.882
 4029TIP3   OH212029   1.558   0.154   3.414
 4029TIP3    H112030   1.466   0.148   3.439
 4029TIP3    H212031   1.598   0.209   3.481
 4030TIP3   OH212032   5.107   7.595   0.078
 4030TIP3    H112033   5.015   7.623   0.079
 4030TIP3    H212034   5.156   7.676   0.094
 4031TIP3   OH212035   4.168   3.084   1.452
 4031TIP3    H112036   4.151   3.112   1.542
 4031TIP3    H212037   4.250   3.129   1.429
 4032TIP3   OH212038   6.864   0.779   2.401
 4032TIP3    H112039   6.886   0.782   2.494
 4032TIP3    H212040   6.842   0.870   2.379
 4033TIP3   OH212041   7.618   0.093   2.606
 4033TIP3    H112042   7.701   0.050   2.584
 4033TIP3    H212043   7.640   0.152   2.678
 4034TIP3   OH212044   7.532   5.846   4.575
 4034TIP3    H112045   7.627   5.858   4.567
 4034TIP3    H212046   7.515   5.763   4.531
 4035TIP3   OH212047   2.910   3.926   1.473
 4035TIP3    H112048   2.859   3.986   1.527
 4035TIP3    H212049   2.993   3.971   1.457
 4036TIP3   OH212050   4.761   7.735   2.915
 4036TIP3    H112051   4.754   7.730   2.820
 4036TIP3    H212052   4.804   7.652   2.940
 4037TIP3   OH212053   4.097   7.543   2.148
 4037TIP3    H112054   4.076   7.504   2.063
 4037TIP3    H212055   4.159   7.613   2.128
 4038TIP3   OH212056   4.048   1.531   6.122
 4038TIP3    H112057   4.122   1.506   6.177
 4038TIP3    H212058   4.069   1.619   6.091
 4039TIP3   OH212059   7.569   1.848   1.579
 4039TIP3    H112060   7.486   1.832   1.624
 4039TIP3    H212061   7.575   1.776   1.516
 4040TIP3   OH212062   1.489   3.837   6.044
 4040TIP3    H112063   1.554   3.857   5.977
 4040TIP3    H212064   1.512   3.748   6.073
 4041TIP3   OH212065   6.717   4.876   1.646
 4041TIP3    H112066   6.709   4.970   1.630
 4041TIP3    H212067   6.810   4.863   1.662
 4042TIP3   OH212068   0.501   3.484   0.860
 4042TIP3    H112069   0.580   3.466   0.912
 4042TIP3    H212070   0.454   3.550   0.910
 4043TIP3   OH212071   2.555   5.216   4.588
 4043TIP3    H112072   2.532   5.309   4.593
 4043TIP3    H212073   2.646   5.216   4.557
 4044TIP3   OH212074   3.461   6.531   3.097
 4044TIP3    H112075   3.465   6.477   3.177
 4044TIP3    H212076   3.367   6.543   3.082
 4045TIP3   OH212077   6.111   7.457   2.721
 4045TIP3    H112078   6.105   7.515   2.797
 4045TIP3    H212079   6.203   7.462   2.695
 4046TIP3   OH212080   3.149   6.629   1.394
 4046TIP3    H112081   3.083   6.631   1.464
 4046TIP3    H212082   3.144   6.539   1.360
 4047TIP3   OH212083   1.818   0.149   5.685
 4047TIP3    H112084   1.792   0.231   5.643
 4047TIP3    H212085   1.819   0.085   5.613
 4048TIP3   OH212086   1.945   3.023   6.415
 4048TIP3    H112087   1.934   3.053   6.325
 4048TIP3    H212088   1.892   2.944   6.421
 4049TIP3   OH212089   2.402   0.087   2.964
 4049TIP3    H112090   2.317   0.045   2.975
 4049TIP3    H212091   2.381   0.176   2.937
 4050TIP3   OH212092   4.565   2.059   0.734
 4050TIP3    H112093   4.641   2.020   0.777
 4050TIP3    H212094   4.586   2.153   0.731
 4051TIP3   OH212095   4.056   4.824   6.519
 4051TIP3    H112096   4.006   4.869   6.586
 4051TIP3    H212097   4.103   4.893   6.472
 4052TIP3   OH212098   6.445   2.638   1.752
 4052TIP3    H112099   6.481   2.662   1.838
 4052TIP3    H212100   6.364   2.591   1.773
 4053TIP3   OH212101   3.597   6.618   6.077
 4053TIP3    H112102   3.587   6.543   6.018
 4053TIP3    H212103   3.549   6.594   6.156
 4054TIP3   OH212104   0.966   0.769   5.385
 4054TIP3    H112105   1.001   0.836   5.326
 4054TIP3    H212106   0.926   0.818   5.456
 4055TIP3   OH212107   7.157   5.507   4.290
 4055TIP3    H112108   7.235   5.533   4.240
 4055TIP3    H212109   7.106   5.587   4.298
 4056TIP3   OH212110   3.646   2.503   1.211
 4056TIP3    H112111   3.607   2.565   1.150
 4056TIP3    H212112   3.617   2.417   1.180
 4057TIP3   OH212113   0.923   3.477   5.650
 4057TIP3    H112114   0.835   3.472   5.689
 4057TIP3    H212115   0.974   3.528   5.713
 4058TIP3   OH212116   8.196   0.184   1.190
 4058TIP3    H112117   8.281   0.147   1.164
 4058TIP3    H212118   8.132   0.120   1.158
 4059TIP3   OH212119   1.204   1.667   0.458
 4059TIP3    H112120   1.204   1.723   0.381
 4059TIP3    H212121   1.187   1.579   0.423
 4060TIP3   OH212122   5.528   6.535   0.556
 4060TIP3    H112123   5.608   6.554   0.508
 4060TIP3    H212124   5.542   6.446   0.591
 4061TIP3   OH212125   0.389   1.573   5.511
 4061TIP3    H112126   0.330   1.497   5.517
 4061TIP3    H212127   0.336   1.641   5.468
 4062TIP3   OH212128   6.990   2.433   5.422
 4062TIP3    H112129   6.989   2.416   5.516
 4062TIP3    H212130   6.898   2.451   5.400
 4063TIP3   OH212131   7.082   1.079   4.995
 4063TIP3    H112132   7.076   1.144   4.925
 4063TIP3    H212133   7.154   1.109   5.051
 4064TIP3   OH212134   0.791   5.648   6.157
 4064TIP3    H112135   0.708   5.694   6.142
 4064TIP3    H212136   0.834   5.698   6.227
 4065TIP3   OH212137   1.452   6.094   3.621
 4065TIP3    H112138   1.398   6.166   3.589
 4065TIP3    H212139   1.542   6.121   3.600
 4066TIP3   OH212140   8.210   0.761   3.864
 4066TIP3    H112141   8.146   0.720   3.921
 4066TIP3    H212142   8.240   0.691   3.806
 4067TIP3   OH212143   2.569   4.834   0.192
 4067TIP3    H112144   2.614   4.792   0.118
 4067TIP3    H212145   2.484   4.790   0.195
 4068TIP3   OH212146   0.133   5.487   1.548
 4068TIP3    H112147   0.123   5.397   1.577
 4068TIP3    H212148   0.187   5.481   1.469
 4069TIP3   OH212149   1.350   3.165   5.782
 4069TIP3    H112150   1.402   3.151   5.861
 4069TIP3    H212151   1.365   3.256   5.759
 4070TIP3   OH212152   1.726   2.490   2.590
 4070TIP3    H112153   1.773   2.516   2.511
 4070TIP3    H212154   1.653   2.551   2.596
 4071TIP3   OH212155   5.023   5.724   1.162
 4071TIP3    H112156   5.080   5.678   1.224
 4071TIP3    H212157   5.013   5.663   1.089
 4072TIP3   OH212158   4.223   6.083   1.525
 4072TIP3    H112159   4.164   6.072   1.601
 4072TIP3    H212160   4.306   6.110   1.564
 4073TIP3   OH212161   1.027   0.305   2.826
 4073TIP3    H112162   1.104   0.356   2.802
 4073TIP3    H212163   1.062   0.219   2.852
 4074TIP3   OH212164   2.631   5.319   5.390
 4074TIP3    H112165   2.691   5.390   5.413
 4074TIP3    H212166   2.654   5.248   5.450
 4075TIP3   OH212167   5.933   0.071   4.436
 4075TIP3    H112168   5.873  -0.003   4.444
 4075TIP3    H212169   6.019   0.031   4.428
 4076TIP3   OH212170   5.468   1.723   0.963
 4076TIP3    H112171   5.468   1.815   0.934
 4076TIP3    H212172   5.401   1.681   0.909
 4077TIP3   OH212173   4.154   7.049   2.083
 4077TIP3    H112174   4.224   7.085   2.138
 4077TIP3    H212175   4.176   7.079   1.995
 4078TIP3   OH212176   0.164   6.013   2.295
 4078TIP3    H112177   0.259   6.024   2.292
 4078TIP3    H212178   0.131   6.081   2.237
 4079TIP3   OH212179   7.419   3.532   4.525
 4079TIP3    H112180   7.482   3.570   4.464
 4079TIP3    H212181   7.473   3.480   4.585
 4080TIP3   OH212182   4.240   1.286   4.533
 4080TIP3    H112183   4.202   1.322   4.613
 4080TIP3    H212184   4.299   1.217   4.563
 4081TIP3   OH212185   1.846   4.798   4.718
 4081TIP3    H112186   1.863   4.799   4.812
 4081TIP3    H212187   1.825   4.707   4.698
 4082TIP3   OH212188   3.273   7.122   5.031
 4082TIP3    H112189   3.222   7.090   5.106
 4082TIP3    H212190   3.208   7.160   4.972
 4083TIP3   OH212191   0.463   3.888   2.536
 4083TIP3    H112192   0.377   3.849   2.520
 4083TIP3    H212193   0.456   3.925   2.624
 4084TIP3   OH212194   2.073   3.553   2.099
 4084TIP3    H112195   2.053   3.639   2.062
 4084TIP3    H212196   2.166   3.539   2.079
 4085TIP3   OH212197   1.836   3.377   6.587
 4085TIP3    H112198   1.850   3.411   6.675
 4085TIP3    H212199   1.881   3.439   6.529
 4086TIP3   OH212200   3.700   3.462   5.215
 4086TIP3    H112201   3.630   3.523   5.236
 4086TIP3    H212202   3.692   3.392   5.279
 4087TIP3   OH212203   6.792   7.133   4.573
 4087TIP3    H112204   6.839   7.073   4.631
 4087TIP3    H212205   6.820   7.108   4.485
 4088TIP3   OH212206   5.437   1.118   2.153
 4088TIP3    H112207   5.467   1.034   2.187
 4088TIP3    H212208   5.344   1.104   2.133
 4089TIP3   OH212209   6.763   6.899   3.482
 4089TIP3    H112210   6.857   6.913   3.490
 4089TIP3    H212211   6.741   6.928   3.394
 4090TIP3   OH212212   1.934   4.823   0.743
 4090TIP3    H112213   1.963   4.906   0.780
 4090TIP3    H212214   1.865   4.847   0.681
 4091TIP3   OH212215   7.283   1.182   6.227
 4091TIP3    H112216   7.236   1.204   6.307
 4091TIP3    H212217   7.335   1.260   6.208
 4092TIP3   OH212218   8.181   2.237   1.577
 4092TIP3    H112219   8.234   2.242   1.497
 4092TIP3    H212220   8.220   2.165   1.627
 4093TIP3   OH212221   7.434   5.588   2.300
 4093TIP3    H112222   7.467   5.535   2.373
 4093TIP3    H212223   7.513   5.628   2.262
 4094TIP3   OH212224   4.524   1.224   4.066
 4094TIP3    H112225   4.452   1.184   4.116
 4094TIP3    H212226   4.535   1.166   3.991
 4095TIP3   OH212227   7.917   7.482   4.080
 4095TIP3    H112228   7.949   7.448   4.163
 4095TIP3    H212229   7.822   7.474   4.086
 4096TIP3   OH212230   2.399   2.287   1.929
 4096TIP3    H112231   2.407   2.219   1.995
 4096TIP3    H212232   2.487   2.296   1.893
 4097TIP3   OH212233   1.420   0.681   5.276
 4097TIP3    H112234   1.484   0.621   5.238
 4097TIP3    H212235   1.349   0.686   5.212
 4098TIP3   OH212236   7.492   7.138   3.270
 4098TIP3    H112237   7.436   7.214   3.287
 4098TIP3    H212238   7.567   7.174   3.223
 4099TIP3   OH212239   3.323   4.096   6.560
 4099TIP3    H112240   3.292   4.050   6.638
 4099TIP3    H212241   3.317   4.189   6.582
 4100TIP3   OH212242   2.306   4.115   4.587
 4100TIP3    H112243   2.301   4.197   4.635
 4100TIP3    H212244   2.302   4.047   4.654
 4101TIP3   OH212245   1.186   7.129   5.865
 4101TIP3    H112246   1.210   7.073   5.939
 4101TIP3    H212247   1.090   7.126   5.863
 4102TIP3   OH212248   7.730   7.054   6.102
 4102TIP3    H112249   7.750   6.980   6.044
 4102TIP3    H212250   7.808   7.064   6.156
 4103TIP3   OH212251   5.673   2.514   2.834
 4103TIP3    H112252   5.663   2.589   2.893
 4103TIP3    H212253   5.706   2.444   2.890
 4104TIP3   OH212254   7.459   5.264   0.372
 4104TIP3    H112255   7.533   5.233   0.320
 4104TIP3    H212256   7.383   5.221   0.334
 4105TIP3   OH212257   7.134   4.142   1.706
 4105TIP3    H112258   7.160   4.059   1.665
 4105TIP3    H212259   7.178   4.142   1.791
 4106TIP3   OH212260   5.825   4.111   6.474
 4106TIP3    H112261   5.903   4.117   6.419
 4106TIP3    H212262   5.856   4.127   6.563
 4107TIP3   OH212263   2.546   1.797   5.372
 4107TIP3    H112264   2.631   1.782   5.330
 4107TIP3    H212265   2.567   1.848   5.450
 4108TIP3   OH212266   0.961   3.296   0.667
 4108TIP3    H112267   0.882   3.248   0.642
 4108TIP3    H212268   0.930   3.385   0.686
 4109TIP3   OH212269   4.911   6.046   3.083
 4109TIP3    H112270   4.850   6.012   3.149
 4109TIP3    H212271   4.997   6.015   3.111
 4110TIP3   OH212272   7.387   4.357   4.121
 4110TIP3    H112273   7.323   4.288   4.140
 4110TIP3    H212274   7.382   4.371   4.027
 4111TIP3   OH212275   1.850   4.590   6.426
 4111TIP3    H112276   1.823   4.632   6.508
 4111TIP3    H212277   1.821   4.650   6.358
 4112TIP3   OH212278   3.746   5.282   5.908
 4112TIP3    H112279   3.799   5.310   5.834
 4112TIP3    H212280   3.774   5.338   5.980
 4113TIP3   OH212281   4.724   0.848   1.014
 4113TIP3    H112282   4.813   0.813   1.004
 4113TIP3    H212283   4.673   0.803   0.948
 4114TIP3   OH212284   3.959   3.292   1.849
 4114TIP3    H112285   4.013   3.371   1.841
 4114TIP3    H212286   4.009   3.224   1.802
 4115TIP3   OH212287   1.615   1.980   2.908
 4115TIP3    H112288   1.606   1.998   2.815
 4115TIP3    H212289   1.663   2.056   2.942
 4116TIP3   OH212290   5.683   1.056   3.481
 4116TIP3    H112291   5.618   1.126   3.490
 4116TIP3    H212292   5.631   0.977   3.466
 4117TIP3   OH212293   2.153   3.328   5.579
 4117TIP3    H112294   2.145   3.420   5.601
 4117TIP3    H212295   2.161   3.326   5.484
 4118TIP3   OH212296   5.180   4.061   5.241
 4118TIP3    H112297   5.215   3.973   5.250
 4118TIP3    H212298   5.142   4.080   5.327
 4119TIP3   OH212299   2.720   6.578   6.389
 4119TIP3    H112300   2.735   6.671   6.376
 4119TIP3    H212301   2.665   6.552   6.315
 4120TIP3   OH212302   5.679   4.734   6.652
 4120TIP3    H112303   5.757   4.736   6.597
 4120TIP3    H212304   5.702   4.786   6.729
 4121TIP3   OH212305   4.819   0.724   5.149
 4121TIP3    H112306   4.789   0.723   5.240
 4121TIP3    H212307   4.739   0.733   5.097
 4122TIP3   OH212308   3.669   4.607   6.681
 4122TIP3    H112309   3.679   4.553   6.759
 4122TIP3    H212310   3.654   4.545   6.610
 4123TIP3   OH212311   2.886   0.563   2.456
 4123TIP3    H112312   2.795   0.561   2.425
 4123TIP3    H212313   2.908   0.656   2.456
 4124TIP3   OH212314   3.430   1.350   1.744
 4124TIP3    H112315   3.432   1.411   1.670
 4124TIP3    H212316   3.500   1.288   1.725
 4125TIP3   OH212317   7.316   6.458   1.497
 4125TIP3    H112318   7.316   6.463   1.593
 4125TIP3    H212319   7.348   6.544   1.469
 4126TIP3   OH212320   0.030   0.728   1.633
 4126TIP3    H112321   0.042   0.768   1.547
 4126TIP3    H212322  -0.004   0.799   1.688
 4127TIP3   OH212323   2.295   7.545   2.254
 4127TIP3    H112324   2.346   7.624   2.234
 4127TIP3    H212325   2.212   7.558   2.207
 4128TIP3   OH212326   4.108   1.542   1.672
 4128TIP3    H112327   4.160   1.498   1.739
 4128TIP3    H212328   4.021   1.551   1.711
 4129TIP3   OH212329   5.264   2.785   6.137
 4129TIP3    H112330   5.190   2.784   6.198
 4129TIP3    H212331   5.263   2.698   6.097
 4130TIP3   OH212332   2.423   1.849   3.272
 4130TIP3    H112333   2.327   1.842   3.265
 4130TIP3    H212334   2.442   1.826   3.363
 4131TIP3   OH212335   2.397   5.217   0.999
 4131TIP3    H112336   2.338   5.190   0.929
 4131TIP3    H212337   2.459   5.276   0.956
 4132TIP3   OH212338   3.959   5.076   5.436
 4132TIP3    H112339   4.027   5.141   5.422
 4132TIP3    H212340   3.972   5.012   5.365
 4133TIP3   OH212341   3.086   2.272   5.744
 4133TIP3    H112342   3.010   2.253   5.800
 4133TIP3    H212343   3.048   2.302   5.662
 4134TIP3   OH212344   1.709   4.402   3.191
 4134TIP3    H112345   1.750   4.319   3.166
 4134TIP3    H212346   1.630   4.376   3.237
 4135TIP3   OH212347   5.770   7.719   1.736
 4135TIP3    H112348   5.753   7.783   1.666
 4135TIP3    H212349   5.811   7.646   1.691
 4136TIP3   OH212350   7.562   4.587   4.915
 4136TIP3    H112351   7.571   4.680   4.894
 4136TIP3    H212352   7.651   4.552   4.906
 4137TIP3   OH212353   0.683   5.233   0.196
 4137TIP3    H112354   0.704   5.192   0.280
 4137TIP3    H212355   0.629   5.308   0.219
 4138TIP3   OH212356   5.840   7.061   6.122
 4138TIP3    H112357   5.803   7.128   6.064
 4138TIP3    H212358   5.766   7.006   6.146
 4139TIP3   OH212359   5.802   0.451   5.314
 4139TIP3    H112360   5.761   0.459   5.400
 4139TIP3    H212361   5.748   0.504   5.256
 4140TIP3   OH212362   3.089   3.095   2.439
 4140TIP3    H112363   3.010   3.148   2.434
 4140TIP3    H212364   3.152   3.141   2.384
 4141TIP3   OH212365   7.476   6.222   0.095
 4141TIP3    H112366   7.405   6.239   0.157
 4141TIP3    H212367   7.433   6.216   0.010
 4142TIP3   OH212368   3.504   3.364   5.465
 4142TIP3    H112369   3.469   3.434   5.410
 4142TIP3    H212370   3.437   3.349   5.531
 4143TIP3   OH212371   2.568   2.467   4.297
 4143TIP3    H112372   2.515   2.465   4.218
 4143TIP3    H212373   2.574   2.560   4.320
 4144TIP3   OH212374   0.950   6.273   4.483
 4144TIP3    H112375   0.912   6.226   4.408
 4144TIP3    H212376   0.875   6.317   4.523
 4145TIP3   OH212377   0.835   0.254   0.566
 4145TIP3    H112378   0.851   0.259   0.472
 4145TIP3    H212379   0.792   0.169   0.578
 4146TIP3   OH212380   3.424   3.749   0.088
 4146TIP3    H112381   3.517   3.768   0.095
 4146TIP3    H212382   3.404   3.754  -0.005
 4147TIP3   OH212383   3.586   4.641   2.883
 4147TIP3    H112384   3.626   4.554   2.880
 4147TIP3    H212385   3.504   4.631   2.835
 4148TIP3   OH212386   4.958   2.134   1.014
 4148TIP3    H112387   4.961   2.097   0.926
 4148TIP3    H212388   4.871   2.172   1.021
 4149TIP3   OH212389   6.095   6.794   1.025
 4149TIP3    H112390   6.032   6.856   0.989
 4149TIP3    H212391   6.071   6.710   0.986
 4150TIP3   OH212392   4.046   6.177   0.538
 4150TIP3    H112393   4.016   6.234   0.609
 4150TIP3    H212394   4.112   6.230   0.491
 4151TIP3   OH212395   4.897   2.360   2.581
 4151TIP3    H112396   4.972   2.342   2.639
 4151TIP3    H212397   4.821   2.360   2.639
 4152TIP3   OH212398   2.629   6.712   3.252
 4152TIP3    H112399   2.604   6.803   3.234
 4152TIP3    H212400   2.638   6.709   3.347
 4153TIP3   OH212401   6.295   6.567   4.048
 4153TIP3    H112402   6.216   6.602   4.007
 4153TIP3    H212403   6.322   6.495   3.991
 4154TIP3   OH212404   1.380   6.776   0.860
 4154TIP3    H112405   1.453   6.716   0.842
 4154TIP3    H212406   1.357   6.811   0.774
 4155TIP3   OH212407   2.336   4.548   4.393
 4155TIP3    H112408   2.393   4.475   4.416
 4155TIP3    H212409   2.355   4.565   4.301
 4156TIP3   OH212410   0.952   7.337   4.835
 4156TIP3    H112411   0.952   7.361   4.928
 4156TIP3    H212412   1.014   7.397   4.795
 4157TIP3   OH212413   7.782   6.202   3.517
 4157TIP3    H112414   7.865   6.156   3.504
 4157TIP3    H212415   7.715   6.134   3.517
 4158TIP3   OH212416   1.732   6.567   3.844
 4158TIP3    H112417   1.804   6.613   3.801
 4158TIP3    H212418   1.725   6.483   3.798
 4159TIP3   OH212419   6.922   4.684   0.640
 4159TIP3    H112420   6.927   4.759   0.699
 4159TIP3    H212421   6.840   4.695   0.593
 4160TIP3   OH212422   6.854   2.939   4.978
 4160TIP3    H112423   6.809   2.913   5.058
 4160TIP3    H212424   6.925   2.875   4.968
 4161TIP3   OH212425   5.052   3.719   3.606
 4161TIP3    H112426   5.021   3.634   3.637
 4161TIP3    H212427   5.029   3.779   3.677
 4162TIP3   OH212428   3.802   2.911   1.097
 4162TIP3    H112429   3.867   2.957   1.150
 4162TIP3    H212430   3.827   2.819   1.103
 4163TIP3   OH212431   8.307   5.497   0.621
 4163TIP3    H112432   8.279   5.406   0.631
 4163TIP3    H212433   8.250   5.546   0.681
 4164TIP3   OH212434   8.169   6.916   5.137
 4164TIP3    H112435   8.185   6.826   5.166
 4164TIP3    H212436   8.146   6.909   5.045
 4165TIP3   OH212437   1.013   1.432   2.918
 4165TIP3    H112438   1.052   1.435   3.005
 4165TIP3    H212439   1.078   1.388   2.863
 4166TIP3   OH212440   5.544   3.266   0.592
 4166TIP3    H112441   5.568   3.187   0.542
 4166TIP3    H212442   5.603   3.334   0.560
 4167TIP3   OH212443   0.462   2.836   1.113
 4167TIP3    H112444   0.519   2.913   1.106
 4167TIP3    H212445   0.449   2.809   1.022
 4168TIP3   OH212446   7.691   6.922   4.112
 4168TIP3    H112447   7.756   6.866   4.154
 4168TIP3    H212448   7.722   7.011   4.130
 4169TIP3   OH212449   5.396   4.616   2.538
 4169TIP3    H112450   5.411   4.549   2.472
 4169TIP3    H212451   5.459   4.685   2.516
 4170TIP3   OH212452   6.842   5.044   0.743
 4170TIP3    H112453   6.884   4.972   0.789
 4170TIP3    H212454   6.891   5.053   0.662
 4171TIP3   OH212455   4.268   4.665   0.058
 4171TIP3    H112456   4.227   4.579   0.054
 4171TIP3    H212457   4.305   4.670   0.147
 4172TIP3   OH212458   4.054   6.644   3.769
 4172TIP3    H112459   4.149   6.633   3.777
 4172TIP3    H212460   4.030   6.591   3.693
 4173TIP3   OH212461   4.253   6.058   4.359
 4173TIP3    H112462   4.336   6.078   4.317
 4173TIP3    H212463   4.187   6.097   4.302
 4174TIP3   OH212464   5.232   1.018   1.828
 4174TIP3    H112465   5.141   1.000   1.803
 4174TIP3    H212466   5.260   0.939   1.874
 4175TIP3   OH212467   1.573   6.961   4.714
 4175TIP3    H112468   1.590   6.871   4.687
 4175TIP3    H212469   1.485   6.958   4.752
 4176TIP3   OH212470   7.589   5.162   1.870
 4176TIP3    H112471   7.651   5.125   1.934
 4176TIP3    H212472   7.511   5.182   1.922
 4177TIP3   OH212473   2.278   3.094   1.216
 4177TIP3    H112474   2.277   3.003   1.187
 4177TIP3    H212475   2.252   3.090   1.307
 4178TIP3   OH212476   6.142   4.528   5.086
 4178TIP3    H112477   6.123   4.517   4.993
 4178TIP3    H212478   6.236   4.514   5.093
 4179TIP3   OH212479   1.921   5.769   1.624
 4179TIP3    H112480   1.862   5.826   1.574
 4179TIP3    H212481   2.007   5.784   1.584
 4180TIP3   OH212482   3.635   5.664   2.359
 4180TIP3    H112483   3.728   5.646   2.368
 4180TIP3    H212484   3.614   5.724   2.431
 4181TIP3   OH212485   4.249   5.972   0.128
 4181TIP3    H112486   4.158   5.943   0.119
 4181TIP3    H212487   4.269   5.959   0.221
 4182TIP3   OH212488   1.501   3.881   2.913
 4182TIP3    H112489   1.492   3.917   3.001
 4182TIP3    H212490   1.487   3.956   2.855
 4183TIP3   OH212491   7.513   7.109   6.480
 4183TIP3    H112492   7.497   7.018   6.504
 4183TIP3    H212493   7.601   7.128   6.515
 4184TIP3   OH212494   7.024   2.884   0.791
 4184TIP3    H112495   7.022   2.950   0.722
 4184TIP3    H212496   6.950   2.906   0.848
 4185TIP3   OH212497   3.001   1.643   6.488
 4185TIP3    H112498   3.019   1.694   6.408
 4185TIP3    H212499   2.949   1.568   6.457
 4186TIP3   OH212500   4.125   0.205   2.419
 4186TIP3    H112501   4.071   0.208   2.498
 4186TIP3    H212502   4.212   0.232   2.448
 4187TIP3   OH212503   1.197   4.942   1.954
 4187TIP3    H112504   1.141   5.011   1.990
 4187TIP3    H212505   1.262   4.925   2.022
 4188TIP3   OH212506   4.034   2.011   0.922
 4188TIP3    H112507   4.035   1.936   0.862
 4188TIP3    H212508   4.118   2.006   0.968
 4189TIP3   OH212509   7.499   0.197   4.195
 4189TIP3    H112510   7.500   0.188   4.291
 4189TIP3    H212511   7.570   0.258   4.176
 4190TIP3   OH212512   8.201   0.936   5.871
 4190TIP3    H112513   8.146   1.005   5.908
 4190TIP3    H212514   8.277   0.932   5.930
 4191TIP3   OH212515   1.998   5.852   1.343
 4191TIP3    H112516   1.918   5.897   1.372
 4191TIP3    H212517   1.969   5.791   1.276
 4192TIP3   OH212518   2.009   0.909   2.524
 4192TIP3    H112519   2.068   0.889   2.597
 4192TIP3    H212520   2.043   0.991   2.487
 4193TIP3   OH212521   0.031   4.524   0.601
 4193TIP3    H112522  -0.052   4.555   0.637
 4193TIP3    H212523   0.005   4.462   0.533
 4194TIP3   OH212524   6.500   5.871   1.818
 4194TIP3    H112525   6.520   5.781   1.842
 4194TIP3    H212526   6.405   5.875   1.816
 4195TIP3   OH212527   1.872   7.235   1.516
 4195TIP3    H112528   1.942   7.203   1.572
 4195TIP3    H212529   1.904   7.219   1.427
 4196TIP3   OH212530   2.543   4.317   1.299
 4196TIP3    H112531   2.561   4.223   1.307
 4196TIP3    H212532   2.453   4.321   1.265
 4197TIP3   OH212533   5.081   4.220   3.426
 4197TIP3    H112534   5.105   4.134   3.460
 4197TIP3    H212535   5.132   4.281   3.479
 4198TIP3   OH212536   6.370   4.344   5.911
 4198TIP3    H112537   6.409   4.429   5.889
 4198TIP3    H212538   6.309   4.327   5.840
 4199TIP3   OH212539   1.140   1.447   4.150
 4199TIP3    H112540   1.147   1.354   4.170
 4199TIP3    H212541   1.070   1.479   4.207
 4200TIP3   OH212542   6.487   2.732   4.235
 4200TIP3    H112543   6.396   2.757   4.226
 4200TIP3    H212544   6.537   2.802   4.194
 4201TIP3   OH212545   1.345   6.147   5.448
 4201TIP3    H112546   1.438   6.132   5.429
 4201TIP3    H212547   1.345   6.219   5.511
 4202TIP3   OH212548   7.313   1.297   4.530
 4202TIP3    H112549   7.226   1.258   4.523
 4202TIP3    H212550   7.309   1.375   4.475
 4203TIP3   OH212551   5.689   6.805   4.541
 4203TIP3    H112552   5.637   6.877   4.577
 4203TIP3    H212553   5.735   6.844   4.467
 4204TIP3   OH212554   0.659   0.586   3.843
 4204TIP3    H112555   0.750   0.563   3.861
 4204TIP3    H212556   0.659   0.608   3.750
 4205TIP3   OH212557   8.022   3.127   1.766
 4205TIP3    H112558   7.989   3.141   1.678
 4205TIP3    H212559   8.116   3.145   1.759
 4206TIP3   OH212560   8.199   4.836   4.802
 4206TIP3    H112561   8.253   4.908   4.766
 4206TIP3    H212562   8.237   4.819   4.888
 4207TIP3   OH212563   4.387   7.261   0.247
 4207TIP3    H112564   4.390   7.339   0.192
 4207TIP3    H212565   4.426   7.192   0.194
 4208TIP3   OH212566   6.532   7.784   4.577
 4208TIP3    H112567   6.478   7.720   4.530
 4208TIP3    H212568   6.581   7.731   4.641
 4209TIP3   OH212569   4.968   4.770   6.169
 4209TIP3    H112570   4.879   4.802   6.185
 4209TIP3    H212571   5.001   4.745   6.256
 4210TIP3   OH212572   1.592   3.632   6.343
 4210TIP3    H112573   1.554   3.545   6.356
 4210TIP3    H212574   1.558   3.661   6.259
 4211TIP3   OH212575   7.068   5.834   4.813
 4211TIP3    H112576   6.996   5.890   4.785
 4211TIP3    H212577   7.139   5.894   4.834
 4212TIP3   OH212578   3.601   2.221   4.352
 4212TIP3    H112579   3.661   2.151   4.379
 4212TIP3    H212580   3.590   2.274   4.431
 4213TIP3   OH212581   5.335   4.495   3.856
 4213TIP3    H112582   5.339   4.421   3.795
 4213TIP3    H212583   5.375   4.568   3.808
 4214TIP3   OH212584   2.062   5.102   6.440
 4214TIP3    H112585   2.125   5.030   6.451
 4214TIP3    H212586   2.055   5.141   6.527
 4215TIP3   OH212587   2.820   0.016   4.947
 4215TIP3    H112588   2.760   0.077   4.990
 4215TIP3    H212589   2.789  -0.070   4.974
 4216TIP3   OH212590   7.798   1.334   5.648
 4216TIP3    H112591   7.725   1.396   5.651
 4216TIP3    H212592   7.818   1.317   5.740
 4217TIP3   OH212593   1.780   2.357   5.263
 4217TIP3    H112594   1.714   2.409   5.217
 4217TIP3    H212595   1.859   2.366   5.210
 4218TIP3   OH212596   7.894   0.304   0.264
 4218TIP3    H112597   7.891   0.254   0.345
 4218TIP3    H212598   7.903   0.237   0.196
 4219TIP3   OH212599   6.366   7.286   5.969
 4219TIP3    H112600   6.276   7.275   6.000
 4219TIP3    H212601   6.357   7.288   5.874
 4220TIP3   OH212602   2.359   0.054   1.898
 4220TIP3    H112603   2.307   0.130   1.874
 4220TIP3    H212604   2.313  -0.020   1.858
 4221TIP3   OH212605   1.952   4.996   4.294
 4221TIP3    H112606   1.902   4.935   4.349
 4221TIP3    H212607   2.019   4.942   4.253
 4222TIP3   OH212608   1.164   3.287   0.447
 4222TIP3    H112609   1.139   3.221   0.512
 4222TIP3    H212610   1.123   3.257   0.366
 4223TIP3   OH212611   6.135   7.406   4.424
 4223TIP3    H112612   6.200   7.338   4.443
 4223TIP3    H212613   6.172   7.486   4.460
 4224TIP3   OH212614   6.985   7.244   2.921
 4224TIP3    H112615   6.984   7.323   2.867
 4224TIP3    H212616   6.942   7.271   3.002
 4225TIP3   OH212617   7.617   6.007   5.779
 4225TIP3    H112618   7.570   6.067   5.722
 4225TIP3    H212619   7.563   6.002   5.859
 4226TIP3   OH212620   2.513   1.189   3.507
 4226TIP3    H112621   2.527   1.138   3.427
 4226TIP3    H212622   2.431   1.235   3.492
 4227TIP3   OH212623   7.066   4.206   5.968
 4227TIP3    H112624   6.999   4.264   5.930
 4227TIP3    H212625   7.044   4.119   5.934
 4228TIP3   OH212626   2.236   6.471   6.005
 4228TIP3    H112627   2.329   6.492   5.995
 4228TIP3    H212628   2.212   6.511   6.089
 4229TIP3   OH212629   1.578   7.067   1.563
 4229TIP3    H112630   1.657   7.017   1.582
 4229TIP3    H212631   1.531   7.071   1.646
 4230TIP3   OH212632   8.064   4.930   5.830
 4230TIP3    H112633   7.975   4.963   5.817
 4230TIP3    H212634   8.057   4.836   5.814
 4231TIP3   OH212635   8.241   4.711   5.967
 4231TIP3    H112636   8.177   4.765   6.011
 4231TIP3    H212637   8.195   4.677   5.889
 4232TIP3   OH212638   7.074   6.774   0.461
 4232TIP3    H112639   7.090   6.810   0.548
 4232TIP3    H212640   7.017   6.699   0.476
 4233TIP3   OH212641   4.012   1.104   2.289
 4233TIP3    H112642   4.044   1.059   2.211
 4233TIP3    H212643   3.949   1.168   2.256
 4234TIP3   OH212644   2.919   6.542   6.138
 4234TIP3    H112645   2.996   6.493   6.168
 4234TIP3    H212646   2.885   6.583   6.218
 4235TIP3   OH212647   6.386   6.459   2.321
 4235TIP3    H112648   6.377   6.368   2.293
 4235TIP3    H212649   6.301   6.498   2.304
 4236TIP3   OH212650   3.406   3.730   5.059
 4236TIP3    H112651   3.461   3.805   5.079
 4236TIP3    H212652   3.360   3.754   4.979
 4237TIP3   OH212653   0.392   5.386   3.222
 4237TIP3    H112654   0.467   5.438   3.252
 4237TIP3    H212655   0.371   5.421   3.136
 4238TIP3   OH212656   7.787   7.683   1.495
 4238TIP3    H112657   7.873   7.643   1.476
 4238TIP3    H212658   7.732   7.609   1.521
 4239TIP3   OH212659   2.747   0.549   5.766
 4239TIP3    H112660   2.732   0.543   5.860
 4239TIP3    H212661   2.705   0.631   5.740
 4240TIP3   OH212662   3.773   3.058   3.514
 4240TIP3    H112663   3.855   3.064   3.465
 4240TIP3    H212664   3.740   2.970   3.496
 4241TIP3   OH212665   2.431   5.175   3.222
 4241TIP3    H112666   2.392   5.173   3.134
 4241TIP3    H212667   2.380   5.242   3.269
 4242TIP3   OH212668   6.752   1.367   1.671
 4242TIP3    H112669   6.796   1.287   1.699
 4242TIP3    H212670   6.660   1.341   1.658
 4243TIP3   OH212671   3.612   7.675   3.400
 4243TIP3    H112672   3.630   7.652   3.491
 4243TIP3    H212673   3.699   7.690   3.362
 4244TIP3   OH212674   5.300   3.329   6.116
 4244TIP3    H112675   5.286   3.420   6.139
 4244TIP3    H212676   5.214   3.298   6.086
 4245TIP3   OH212677   0.188   6.802   4.826
 4245TIP3    H112678   0.156   6.790   4.915
 4245TIP3    H212679   0.126   6.862   4.785
 4246TIP3   OH212680   7.836   6.398   6.257
 4246TIP3    H112681   7.778   6.474   6.260
 4246TIP3    H212682   7.782   6.327   6.294
 4247TIP3   OH212683   2.180   3.148   4.800
 4247TIP3    H112684   2.170   3.226   4.747
 4247TIP3    H212685   2.273   3.143   4.820
 4248TIP3   OH212686   6.372   6.996   0.108
 4248TIP3    H112687   6.343   7.006   0.018
 4248TIP3    H212688   6.307   6.938   0.148
 4249TIP3   OH212689   1.673   5.412   6.126
 4249TIP3    H112690   1.644   5.324   6.148
 4249TIP3    H212691   1.760   5.401   6.088
 4250TIP3   OH212692   2.396   1.547   2.219
 4250TIP3    H112693   2.485   1.561   2.185
 4250TIP3    H212694   2.381   1.453   2.208
 4251TIP3   OH212695   0.142   6.073   0.694
 4251TIP3    H112696   0.067   6.132   0.686
 4251TIP3    H212697   0.104   5.992   0.729
 4252TIP3   OH212698   7.757   0.391   2.026
 4252TIP3    H112699   7.785   0.302   2.007
 4252TIP3    H212700   7.712   0.384   2.111
 4253TIP3   OH212701   6.633   7.269   3.986
 4253TIP3    H112702   6.597   7.194   4.034
 4253TIP3    H212703   6.645   7.236   3.897
 4254TIP3   OH212704   6.229   4.951   2.129
 4254TIP3    H112705   6.143   4.988   2.112
 4254TIP3    H212706   6.269   5.011   2.191
 4255TIP3   OH212707   6.684   6.841   6.188
 4255TIP3    H112708   6.657   6.911   6.129
 4255TIP3    H212709   6.609   6.782   6.193
 4256TIP3   OH212710   2.634   5.797   0.883
 4256TIP3    H112711   2.563   5.738   0.909
 4256TIP3    H212712   2.683   5.747   0.817
 4257TIP3   OH212713   0.140   5.366   0.271
 4257TIP3    H112714   0.089   5.445   0.255
 4257TIP3    H212715   0.202   5.362   0.198
 4258TIP3   OH212716   3.281   0.367   6.568
 4258TIP3    H112717   3.209   0.430   6.571
 4258TIP3    H212718   3.260   0.311   6.492
 4259TIP3   OH212719   6.766   0.432   0.546
 4259TIP3    H112720   6.728   0.395   0.466
 4259TIP3    H212721   6.850   0.385   0.555
 4260TIP3   OH212722   5.547   6.118   3.007
 4260TIP3    H112723   5.498   6.166   3.073
 4260TIP3    H212724   5.481   6.070   2.957
 4261TIP3   OH212725   0.819   7.547   5.292
 4261TIP3    H112726   0.852   7.488   5.224
 4261TIP3    H212727   0.747   7.595   5.249
 4262TIP3   OH212728   6.338   7.160   3.158
 4262TIP3    H112729   6.432   7.160   3.143
 4262TIP3    H212730   6.310   7.072   3.135
 4263TIP3   OH212731   3.218   7.494   0.561
 4263TIP3    H112732   3.237   7.573   0.612
 4263TIP3    H212733   3.123   7.495   0.549
 4264TIP3   OH212734   5.780   1.084   1.903
 4264TIP3    H112735   5.851   1.147   1.917
 4264TIP3    H212736   5.807   1.007   1.953
 4265TIP3   OH212737   6.067   5.561   1.568
 4265TIP3    H112738   6.005   5.526   1.504
 4265TIP3    H212739   6.016   5.569   1.649
 4266TIP3   OH212740   3.355   6.006   5.314
 4266TIP3    H112741   3.391   6.038   5.397
 4266TIP3    H212742   3.408   5.929   5.293
 4267TIP3   OH212743   6.279   5.801   5.530
 4267TIP3    H112744   6.184   5.809   5.521
 4267TIP3    H212745   6.315   5.855   5.461
 4268TIP3   OH212746   0.645   0.152   3.311
 4268TIP3    H112747   0.554   0.163   3.282
 4268TIP3    H212748   0.663   0.059   3.300
 4269TIP3   OH212749   3.596   1.246   5.741
 4269TIP3    H112750   3.659   1.203   5.799
 4269TIP3    H212751   3.648   1.306   5.689
 4270TIP3   OH212752   3.592   2.470   6.365
 4270TIP3    H112753   3.526   2.535   6.342
 4270TIP3    H212754   3.542   2.390   6.380
 4271TIP3   OH212755   7.125   5.251   0.924
 4271TIP3    H112756   7.197   5.230   0.984
 4271TIP3    H212757   7.159   5.323   0.871
 4272TIP3   OH212758   3.342   0.485   4.483
 4272TIP3    H112759   3.341   0.576   4.451
 4272TIP3    H212760   3.399   0.439   4.422
 4273TIP3   OH212761   4.881   5.779   4.093
 4273TIP3    H112762   4.932   5.848   4.052
 4273TIP3    H212763   4.799   5.776   4.042
 4274TIP3   OH212764   8.128   7.689   3.626
 4274TIP3    H112765   8.073   7.630   3.678
 4274TIP3    H212766   8.077   7.707   3.547
 4275TIP3   OH212767   6.082   3.634   5.308
 4275TIP3    H112768   6.153   3.697   5.318
 4275TIP3    H212769   6.008   3.673   5.354
 4276TIP3   OH212770   4.321   2.190   0.199
 4276TIP3    H112771   4.403   2.226   0.233
 4276TIP3    H212772   4.269   2.172   0.278
 4277TIP3   OH212773   6.707   5.281   2.869
 4277TIP3    H112774   6.740   5.279   2.959
 4277TIP3    H212775   6.776   5.240   2.818
 4278TIP3   OH212776   5.434   4.022   6.130
 4278TIP3    H112777   5.460   3.932   6.108
 4278TIP3    H212778   5.487   4.044   6.206
 4279TIP3   OH212779   0.459   0.115   5.575
 4279TIP3    H112780   0.460   0.052   5.503
 4279TIP3    H212781   0.381   0.094   5.625
 4280TIP3   OH212782   8.311   4.295   1.078
 4280TIP3    H112783   8.367   4.218   1.080
 4280TIP3    H212784   8.223   4.260   1.097
 4281TIP3   OH212785   5.108   3.648   5.513
 4281TIP3    H112786   5.043   3.685   5.453
 4281TIP3    H212787   5.147   3.575   5.466
 4282TIP3   OH212788   2.593   5.039   1.079
 4282TIP3    H112789   2.665   5.086   1.122
 4282TIP3    H212790   2.528   5.106   1.060
 4283TIP3   OH212791   7.585   0.561   5.878
 4283TIP3    H112792   7.574   0.474   5.839
 4283TIP3    H212793   7.663   0.596   5.835
 4284TIP3   OH212794   3.797   1.330   0.737
 4284TIP3    H112795   3.834   1.389   0.671
 4284TIP3    H212796   3.838   1.356   0.819
 4285TIP3   OH212797   6.697   3.899   6.322
 4285TIP3    H112798   6.672   3.985   6.358
 4285TIP3    H212799   6.704   3.842   6.398
 4286TIP3   OH212800   7.696   7.582   6.600
 4286TIP3    H112801   7.719   7.651   6.661
 4286TIP3    H212802   7.755   7.594   6.526
 4287TIP3   OH212803   7.015   4.967   4.187
 4287TIP3    H112804   7.058   4.933   4.266
 4287TIP3    H212805   7.062   4.926   4.114
 4288TIP3   OH212806   3.871   0.391   5.869
 4288TIP3    H112807   3.833   0.335   5.800
 4288TIP3    H212808   3.903   0.468   5.822
 4289TIP3   OH212809   4.769   1.672   4.444
 4289TIP3    H112810   4.765   1.584   4.480
 4289TIP3    H212811   4.758   1.730   4.519
 4290TIP3   OH212812   2.576   7.090   2.441
 4290TIP3    H112813   2.598   7.000   2.417
 4290TIP3    H212814   2.551   7.131   2.358
 4291TIP3   OH212815   2.858   0.592   3.170
 4291TIP3    H112816   2.785   0.611   3.228
 4291TIP3    H212817   2.935   0.619   3.218
 4292TIP3   OH212818   3.368   0.051   1.317
 4292TIP3    H112819   3.396   0.071   1.228
 4292TIP3    H212820   3.372  -0.044   1.323
 4293TIP3   OH212821   3.297   3.435   3.404
 4293TIP3    H112822   3.306   3.439   3.309
 4293TIP3    H212823   3.367   3.378   3.433
 4294TIP3   OH212824   3.594   4.922   3.038
 4294TIP3    H112825   3.503   4.952   3.029
 4294TIP3    H212826   3.590   4.828   3.018
 4295TIP3   OH212827   3.762   0.630   4.963
 4295TIP3    H112828   3.739   0.723   4.958
 4295TIP3    H212829   3.721   0.591   4.885
 4296TIP3   OH212830   0.345   2.368   5.896
 4296TIP3    H112831   0.416   2.371   5.959
 4296TIP3    H212832   0.294   2.447   5.913
 4297TIP3   OH212833   3.671   6.713   5.671
 4297TIP3    H112834   3.718   6.786   5.711
 4297TIP3    H212835   3.657   6.740   5.580
 4298TIP3   OH212836   0.830   4.805   6.208
 4298TIP3    H112837   0.834   4.862   6.285
 4298TIP3    H212838   0.737   4.805   6.183
 4299TIP3   OH212839   5.246   6.637   6.576
 4299TIP3    H112840   5.219   6.723   6.608
 4299TIP3    H212841   5.232   6.578   6.650
 4300TIP3   OH212842   3.921   4.964   6.136
 4300TIP3    H112843   3.959   5.027   6.075
 4300TIP3    H212844   3.964   4.881   6.115
 4301TIP3   OH212845   6.894   5.185   4.088
 4301TIP3    H112846   6.956   5.258   4.084
 4301TIP3    H212847   6.950   5.107   4.089
 4302TIP3   OH212848   5.570   1.100   0.818
 4302TIP3    H112849   5.557   1.179   0.765
 4302TIP3    H212850   5.552   1.027   0.758
 4303TIP3   OH212851   7.281   5.182  -0.007
 4303TIP3    H112852   7.354   5.238  -0.030
 4303TIP3    H212853   7.297   5.160   0.085
 4304TIP3   OH212854   4.586   5.397   5.187
 4304TIP3    H112855   4.502   5.382   5.231
 4304TIP3    H212856   4.632   5.458   5.245
 4305TIP3   OH212857   2.733   1.281   3.032
 4305TIP3    H112858   2.672   1.231   2.978
 4305TIP3    H212859   2.800   1.311   2.970
 4306TIP3   OH212860   3.676   2.263   4.852
 4306TIP3    H112861   3.697   2.278   4.760
 4306TIP3    H212862   3.746   2.308   4.901
 4307TIP3   OH212863   3.205   1.424   5.349
 4307TIP3    H112864   3.281   1.369   5.364
 4307TIP3    H212865   3.135   1.385   5.402
 4308TIP3   OH212866   7.998   6.461   2.908
 4308TIP3    H112867   8.087   6.490   2.886
 4308TIP3    H212868   7.955   6.449   2.824
 4309TIP3   OH212869   7.869   0.724   1.600
 4309TIP3    H112870   7.833   0.656   1.656
 4309TIP3    H212871   7.798   0.748   1.540
 4310TIP3   OH212872   5.589   2.883   5.975
 4310TIP3    H112873   5.576   2.904   6.068
 4310TIP3    H212874   5.612   2.967   5.935
 4311TIP3   OH212875   2.628   0.648   2.092
 4311TIP3    H112876   2.556   0.694   2.135
 4311TIP3    H212877   2.624   0.559   2.127
 4312TIP3   OH212878   6.208   3.248   4.974
 4312TIP3    H112879   6.112   3.243   4.975
 4312TIP3    H212880   6.229   3.309   5.045
 4313TIP3   OH212881   3.940   0.254   0.882
 4313TIP3    H112882   3.883   0.278   0.809
 4313TIP3    H212883   3.884   0.262   0.960
 4314TIP3   OH212884   7.360   2.997   5.904
 4314TIP3    H112885   7.312   2.973   5.825
 4314TIP3    H212886   7.442   3.034   5.872
 4315TIP3   OH212887   1.035   1.455   0.640
 4315TIP3    H112888   0.991   1.379   0.679
 4315TIP3    H212889   1.056   1.428   0.551
 4316TIP3   OH212890   3.516   5.401   2.434
 4316TIP3    H112891   3.565   5.453   2.370
 4316TIP3    H212892   3.581   5.340   2.469
 4317TIP3   OH212893   3.455   0.584   6.732
 4317TIP3    H112894   3.456   0.549   6.643
 4317TIP3    H212895   3.366   0.568   6.763
 4318TIP3   OH212896   8.182   4.381   0.427
 4318TIP3    H112897   8.181   4.438   0.351
 4318TIP3    H212898   8.188   4.292   0.391
 4319TIP3   OH212899   6.985   2.183   4.177
 4319TIP3    H112900   6.986   2.149   4.267
 4319TIP3    H212901   7.060   2.141   4.135
 4320TIP3   OH212902   4.122   1.820   4.944
 4320TIP3    H112903   4.190   1.761   4.912
 4320TIP3    H212904   4.102   1.788   5.032
 4321TIP3   OH212905   3.951   0.854   4.540
 4321TIP3    H112906   3.866   0.876   4.502
 4321TIP3    H212907   3.999   0.936   4.541
 4322TIP3   OH212908   1.247   2.096   0.385
 4322TIP3    H112909   1.300   2.150   0.444
 4322TIP3    H212910   1.225   2.155   0.313
 4323TIP3   OH212911   6.402   0.150   5.073
 4323TIP3    H112912   6.320   0.145   5.122
 4323TIP3    H212913   6.443   0.231   5.103
 4324TIP3   OH212914   2.413   2.802   3.034
 4324TIP3    H112915   2.470   2.873   3.063
 4324TIP3    H212916   2.407   2.744   3.111
 4325TIP3   OH212917   2.513   4.896   6.153
 4325TIP3    H112918   2.426   4.911   6.115
 4325TIP3    H212919   2.527   4.970   6.211
 4326TIP3   OH212920   4.590   4.935   0.604
 4326TIP3    H112921   4.531   5.002   0.639
 4326TIP3    H212922   4.667   4.939   0.661
 4327TIP3   OH212923   0.983   7.123   1.588
 4327TIP3    H112924   0.990   7.126   1.493
 4327TIP3    H212925   1.068   7.091   1.618
 4328TIP3   OH212926   2.533   5.744   6.511
 4328TIP3    H112927   2.469   5.795   6.561
 4328TIP3    H212928   2.592   5.810   6.475
 4329TIP3   OH212929   6.353   2.902   1.551
 4329TIP3    H112930   6.284   2.892   1.616
 4329TIP3    H212931   6.391   2.814   1.542
 4330TIP3   OH212932   1.588   0.234   5.475
 4330TIP3    H112933   1.529   0.227   5.400
 4330TIP3    H212934   1.532   0.228   5.552
 4331TIP3   OH212935   3.412   1.793   6.340
 4331TIP3    H112936   3.421   1.721   6.279
 4331TIP3    H212937   3.425   1.872   6.287
 4332TIP3   OH212938   0.249   3.934   5.145
 4332TIP3    H112939   0.193   3.921   5.222
 4332TIP3    H212940   0.332   3.893   5.169
 4333TIP3   OH212941   2.489   6.448   3.366
 4333TIP3    H112942   2.412   6.481   3.320
 4333TIP3    H212943   2.526   6.525   3.410
 4334TIP3   OH212944   0.931   6.753   3.055
 4334TIP3    H112945   0.863   6.814   3.083
 4334TIP3    H212946   0.982   6.801   2.990
 4335TIP3   OH212947   0.358   3.780   5.382
 4335TIP3    H112948   0.307   3.700   5.380
 4335TIP3    H212949   0.418   3.768   5.456
 4336TIP3   OH212950   2.232   7.238   4.757
 4336TIP3    H112951   2.210   7.266   4.668
 4336TIP3    H212952   2.225   7.143   4.755
 4337TIP3   OH212953   3.937   5.998   2.784
 4337TIP3    H112954   3.963   5.915   2.743
 4337TIP3    H212955   4.010   6.058   2.765
 4338TIP3   OH212956   0.091   1.750   4.072
 4338TIP3    H112957   0.090   1.845   4.071
 4338TIP3    H212958   0.082   1.724   3.981
 4339TIP3   OH212959   0.996   3.078   2.381
 4339TIP3    H112960   0.916   3.124   2.358
 4339TIP3    H212961   1.012   3.018   2.308
 4340TIP3   OH212962   6.558   7.800   2.583
 4340TIP3    H112963   6.547   7.895   2.581
 4340TIP3    H212964   6.559   7.774   2.491
 4341TIP3   OH212965   7.226   2.718   1.362
 4341TIP3    H112966   7.254   2.626   1.364
 4341TIP3    H212967   7.233   2.747   1.453
 4342TIP3   OH212968   2.461   4.205   3.858
 4342TIP3    H112969   2.411   4.269   3.910
 4342TIP3    H212970   2.399   4.134   3.841
 4343TIP3   OH212971   6.227   3.448   5.586
 4343TIP3    H112972   6.209   3.399   5.506
 4343TIP3    H212973   6.274   3.387   5.642
 4344TIP3   OH212974   2.875   3.741   3.220
 4344TIP3    H112975   2.870   3.823   3.269
 4344TIP3    H212976   2.947   3.693   3.262
 4345TIP3   OH212977   1.759   7.370   3.329
 4345TIP3    H112978   1.774   7.444   3.388
 4345TIP3    H212979   1.701   7.312   3.379
 4346TIP3   OH212980   2.101   6.027   3.539
 4346TIP3    H112981   2.095   6.107   3.486
 4346TIP3    H212982   2.090   5.956   3.475
 4347TIP3   OH212983   7.524   2.823   6.062
 4347TIP3    H112984   7.453   2.883   6.037
 4347TIP3    H212985   7.552   2.784   5.979
 4348TIP3   OH212986   5.624   4.559   3.916
 4348TIP3    H112987   5.646   4.479   3.868
 4348TIP3    H212988   5.566   4.608   3.857
 4349TIP3   OH212989   0.838   2.825   0.222
 4349TIP3    H112990   0.860   2.883   0.149
 4349TIP3    H212991   0.784   2.757   0.182
 4350TIP3   OH212992   2.763   4.508   0.793
 4350TIP3    H112993   2.754   4.496   0.888
 4350TIP3    H212994   2.790   4.422   0.761
 4351TIP3   OH212995   7.913   0.993   3.497
 4351TIP3    H112996   7.998   0.975   3.538
 4351TIP3    H212997   7.894   1.084   3.520
 4352TIP3   OH212998   6.242   5.366   0.585
 4352TIP3    H112999   6.254   5.302   0.655
 4352TIP3    H213000   6.158   5.343   0.546
 4353TIP3   OH213001   6.981   4.226   2.253
 4353TIP3    H113002   6.993   4.148   2.199
 4353TIP3    H213003   7.070   4.259   2.267
 4354TIP3   OH213004   3.629   5.151   3.514
 4354TIP3    H113005   3.629   5.085   3.444
 4354TIP3    H213006   3.718   5.147   3.550
 4355TIP3   OH213007   5.121   5.913   3.174
 4355TIP3    H113008   5.111   5.818   3.182
 4355TIP3    H213009   5.104   5.946   3.262
 4356TIP3   OH213010   1.226   2.373   6.764
 4356TIP3    H113011   1.137   2.407   6.773
 4356TIP3    H213012   1.222   2.315   6.688
 4357TIP3   OH213013   6.602   6.145   4.809
 4357TIP3    H113014   6.602   6.237   4.833
 4357TIP3    H213015   6.598   6.145   4.713
 4358TIP3   OH213016   5.183   6.993   6.297
 4358TIP3    H113017   5.273   7.023   6.289
 4358TIP3    H213018   5.173   6.929   6.227
 4359TIP3   OH213019   3.796   6.203   6.206
 4359TIP3    H113020   3.815   6.286   6.251
 4359TIP3    H213021   3.835   6.136   6.262
 4360TIP3   OH213022   3.552   5.386   2.050
 4360TIP3    H113023   3.521   5.473   2.075
 4360TIP3    H213024   3.489   5.357   1.984
 4361TIP3   OH213025   4.396   2.922   2.170
 4361TIP3    H113026   4.423   2.958   2.254
 4361TIP3    H213027   4.472   2.936   2.113
 4362TIP3   OH213028   0.117   0.151   2.542
 4362TIP3    H113029   0.152   0.238   2.559
 4362TIP3    H213030   0.074   0.158   2.457
 4363TIP3   OH213031   1.925   0.931   6.085
 4363TIP3    H113032   2.005   0.885   6.109
 4363TIP3    H213033   1.880   0.944   6.169
 4364TIP3   OH213034   6.279   7.647   4.448
 4364TIP3    H113035   6.266   7.677   4.358
 4364TIP3    H213036   6.354   7.587   4.443
 4365TIP3   OH213037   2.669   0.881   4.878
 4365TIP3    H113038   2.629   0.849   4.959
 4365TIP3    H213039   2.762   0.891   4.899
 4366TIP3   OH213040   4.400   6.235   2.680
 4366TIP3    H113041   4.445   6.269   2.603
 4366TIP3    H213042   4.446   6.153   2.701
 4367TIP3   OH213043   2.424   0.848   0.511
 4367TIP3    H113044   2.412   0.879   0.421
 4367TIP3    H213045   2.463   0.761   0.502
 4368TIP3   OH213046   3.141   5.887   6.199
 4368TIP3    H113047   3.082   5.933   6.139
 4368TIP3    H213048   3.151   5.800   6.161
 4369TIP3   OH213049   7.627   6.648   3.788
 4369TIP3    H113050   7.620   6.668   3.695
 4369TIP3    H213051   7.706   6.594   3.795
 4370TIP3   OH213052   0.324   7.662   1.557
 4370TIP3    H113053   0.313   7.678   1.651
 4370TIP3    H213054   0.281   7.578   1.542
 4371TIP3   OH213055   1.458   3.053   5.294
 4371TIP3    H113056   1.473   3.065   5.388
 4371TIP3    H213057   1.525   2.990   5.267
 4372TIP3   OH213058   7.917   0.055   0.064
 4372TIP3    H113059   7.833   0.080   0.024
 4372TIP3    H213060   7.979   0.056  -0.008
 4373TIP3   OH213061   7.620   5.292   6.213
 4373TIP3    H113062   7.672   5.340   6.279
 4373TIP3    H213063   7.574   5.226   6.264
 4374TIP3   OH213064   2.640   4.924   4.138
 4374TIP3    H113065   2.630   4.844   4.086
 4374TIP3    H213066   2.611   4.994   4.079
 4375TIP3   OH213067   4.264   5.520   6.575
 4375TIP3    H113068   4.258   5.465   6.653
 4375TIP3    H213069   4.357   5.521   6.553
 4376TIP3   OH213070   6.017   6.583   2.937
 4376TIP3    H113071   6.047   6.494   2.956
 4376TIP3    H213072   6.071   6.612   2.863
 4377TIP3   OH213073   5.723   4.052   0.619
 4377TIP3    H113074   5.643   4.095   0.588
 4377TIP3    H213075   5.780   4.049   0.542
 4378TIP3   OH213076   1.730   6.380   5.910
 4378TIP3    H113077   1.809   6.331   5.888
 4378TIP3    H213078   1.669   6.360   5.839
 4379TIP3   OH213079   6.599   2.889   4.812
 4379TIP3    H113080   6.672   2.892   4.873
 4379TIP3    H213081   6.539   2.957   4.842
 4380TIP3   OH213082   4.661   1.648   5.818
 4380TIP3    H113083   4.641   1.594   5.742
 4380TIP3    H213084   4.728   1.599   5.865
 4381TIP3   OH213085   4.948   6.225   3.874
 4381TIP3    H113086   4.861   6.192   3.851
 4381TIP3    H213087   5.001   6.146   3.887
 4382TIP3   OH213088   4.703   2.580   0.153
 4382TIP3    H113089   4.702   2.490   0.120
 4382TIP3    H213090   4.701   2.571   0.249
 4383TIP3   OH213091   0.940   2.985   6.510
 4383TIP3    H113092   0.922   2.963   6.418
 4383TIP3    H213093   0.996   3.063   6.505
 4384TIP3   OH213094   4.003   0.115   0.138
 4384TIP3    H113095   4.045   0.188   0.185
 4384TIP3    H213096   4.008   0.041   0.200
 4385TIP3   OH213097   1.331   4.786   1.256
 4385TIP3    H113098   1.236   4.781   1.260
 4385TIP3    H213099   1.350   4.818   1.167
 4386TIP3   OH213100   8.262   0.233   1.448
 4386TIP3    H113101   8.232   0.209   1.361
 4386TIP3    H213102   8.200   0.191   1.507
 4387TIP3   OH213103   6.711   3.269   1.810
 4387TIP3    H113104   6.634   3.310   1.851
 4387TIP3    H213105   6.684   3.254   1.719
 4388TIP3   OH213106   7.382   3.166   2.940
 4388TIP3    H113107   7.365   3.256   2.968
 4388TIP3    H213108   7.476   3.164   2.923
 4389TIP3   OH213109   5.677   2.918   3.867
 4389TIP3    H113110   5.633   2.899   3.784
 4389TIP3    H213111   5.750   2.857   3.870
 4390TIP3   OH213112   4.430   2.943   0.338
 4390TIP3    H113113   4.467   2.905   0.258
 4390TIP3    H213114   4.474   2.896   0.409
 4391TIP3   OH213115   4.173   0.701   2.022
 4391TIP3    H113116   4.164   0.794   2.044
 4391TIP3    H213117   4.237   0.699   1.951
 4392TIP3   OH213118   7.635   6.127   6.570
 4392TIP3    H113119   7.696   6.076   6.624
 4392TIP3    H213120   7.674   6.126   6.483
 4393TIP3   OH213121   5.464   7.037   3.349
 4393TIP3    H113122   5.428   7.052   3.262
 4393TIP3    H213123   5.510   6.953   3.342
 4394TIP3   OH213124   0.556   1.527   4.329
 4394TIP3    H113125   0.590   1.461   4.267
 4394TIP3    H213126   0.634   1.558   4.375
 4395TIP3   OH213127   6.409   3.801   3.381
 4395TIP3    H113128   6.356   3.784   3.460
 4395TIP3    H213129   6.452   3.884   3.399
 4396TIP3   OH213130   0.500   2.383   6.138
 4396TIP3    H113131   0.424   2.346   6.184
 4396TIP3    H213132   0.576   2.347   6.184
 4397TIP3   OH213133   2.589   1.319   1.020
 4397TIP3    H113134   2.580   1.314   1.115
 4397TIP3    H213135   2.680   1.291   1.003
 4398TIP3   OH213136   6.316   7.765   2.916
 4398TIP3    H113137   6.290   7.807   2.834
 4398TIP3    H213138   6.323   7.836   2.979
 4399TIP3   OH213139   2.074   7.426   1.915
 4399TIP3    H113140   2.077   7.507   1.966
 4399TIP3    H213141   2.152   7.377   1.940
 4400TIP3   OH213142   0.870   6.177   6.096
 4400TIP3    H113143   0.854   6.269   6.072
 4400TIP3    H213144   0.813   6.127   6.038
 4401TIP3   OH213145   3.956   1.677   1.002
 4401TIP3    H113146   3.885   1.725   1.044
 4401TIP3    H213147   3.928   1.585   1.004
 4402TIP3   OH213148   5.017   7.208   0.468
 4402TIP3    H113149   5.010   7.303   0.463
 4402TIP3    H213150   4.928   7.178   0.485
 4403TIP3   OH213151   6.352   6.576   5.613
 4403TIP3    H113152   6.328   6.516   5.543
 4403TIP3    H213153   6.439   6.548   5.640
 4404TIP3   OH213154   2.277   3.016   5.562
 4404TIP3    H113155   2.352   3.040   5.509
 4404TIP3    H213156   2.284   3.071   5.640
 4405TIP3   OH213157   5.914   4.927   1.295
 4405TIP3    H113158   5.835   4.888   1.333
 4405TIP3    H213159   5.893   4.938   1.202
 4406TIP3   OH213160   1.592   4.002   1.182
 4406TIP3    H113161   1.667   3.968   1.230
 4406TIP3    H213162   1.620   4.089   1.152
 4407TIP3   OH213163   6.420   5.807   4.751
 4407TIP3    H113164   6.495   5.797   4.692
 4407TIP3    H213165   6.398   5.900   4.746
 4408TIP3   OH213166   3.781   3.712   3.657
 4408TIP3    H113167   3.784   3.649   3.729
 4408TIP3    H213168   3.689   3.715   3.631
 4409TIP3   OH213169   6.021   1.567   5.593
 4409TIP3    H113170   5.989   1.489   5.549
 4409TIP3    H213171   6.020   1.545   5.686
 4410TIP3   OH213172   6.936   1.674   0.656
 4410TIP3    H113173   6.941   1.761   0.616
 4410TIP3    H213174   6.863   1.680   0.718
 4411TIP3   OH213175   7.242   3.056   4.465
 4411TIP3    H113176   7.180   3.015   4.525
 4411TIP3    H213177   7.264   3.140   4.506
 4412TIP3   OH213178   4.841   2.802   6.590
 4412TIP3    H113179   4.896   2.736   6.549
 4412TIP3    H213180   4.831   2.870   6.524
 4413TIP3   OH213181   7.832   2.212   3.828
 4413TIP3    H113182   7.884   2.213   3.748
 4413TIP3    H213183   7.755   2.159   3.807
 4414TIP3   OH213184   1.937   1.444   4.840
 4414TIP3    H113185   1.862   1.480   4.794
 4414TIP3    H213186   1.925   1.349   4.837
 4415TIP3   OH213187   1.622   1.321   3.946
 4415TIP3    H113188   1.646   1.402   3.990
 4415TIP3    H213189   1.646   1.335   3.855
 4416TIP3   OH213190   2.309   7.097   3.629
 4416TIP3    H113191   2.219   7.081   3.600
 4416TIP3    H213192   2.300   7.150   3.708
 4417TIP3   OH213193   2.503   7.384   5.136
 4417TIP3    H113194   2.413   7.357   5.115
 4417TIP3    H213195   2.511   7.369   5.230
 4418TIP3   OH213196   3.103   2.758   6.104
 4418TIP3    H113197   3.102   2.685   6.043
 4418TIP3    H213198   3.085   2.718   6.190
 4419TIP3   OH213199   1.391   4.439   0.678
 4419TIP3    H113200   1.321   4.388   0.638
 4419TIP3    H213201   1.447   4.375   0.721
 4420TIP3   OH213202   1.281   5.020   3.590
 4420TIP3    H113203   1.221   4.974   3.649
 4420TIP3    H213204   1.282   5.110   3.624
 4421TIP3   OH213205   4.197   2.782   2.283
 4421TIP3    H113206   4.171   2.851   2.345
 4421TIP3    H213207   4.277   2.815   2.243
 4422TIP3   OH213208   5.347   1.334   1.859
 4422TIP3    H113209   5.423   1.309   1.806
 4422TIP3    H213210   5.310   1.251   1.889
 4423TIP3   OH213211   0.339   5.307   0.463
 4423TIP3    H113212   0.326   5.373   0.531
 4423TIP3    H213213   0.274   5.328   0.396
 4424TIP3   OH213214   8.252   1.625   5.257
 4424TIP3    H113215   8.288   1.558   5.199
 4424TIP3    H213216   8.160   1.601   5.266
 4425TIP3   OH213217   1.767   0.712   6.691
 4425TIP3    H113218   1.698   0.777   6.677
 4425TIP3    H213219   1.723   0.628   6.684
 4426TIP3   OH213220   5.780   6.979   0.720
 4426TIP3    H113221   5.775   6.884   0.705
 4426TIP3    H213222   5.715   7.016   0.661
 4427TIP3   OH213223   1.457   0.899   2.177
 4427TIP3    H113224   1.457   0.991   2.202
 4427TIP3    H213225   1.426   0.853   2.256
 4428TIP3   OH213226   4.930   6.473   1.653
 4428TIP3    H113227   4.955   6.455   1.744
 4428TIP3    H213228   4.836   6.491   1.658
 4429TIP3   OH213229   0.682   0.605   4.693
 4429TIP3    H113230   0.746   0.644   4.752
 4429TIP3    H213231   0.723   0.607   4.607
 4430TIP3   OH213232   7.595   7.606   4.389
 4430TIP3    H113233   7.614   7.666   4.461
 4430TIP3    H213234   7.521   7.646   4.344
 4431TIP3   OH213235   4.599   1.774   2.907
 4431TIP3    H113236   4.672   1.824   2.944
 4431TIP3    H213237   4.557   1.735   2.984
 4432TIP3   OH213238   0.882   1.442   4.687
 4432TIP3    H113239   0.969   1.417   4.718
 4432TIP3    H213240   0.836   1.473   4.766
 4433TIP3   OH213241   2.589   3.769   6.272
 4433TIP3    H113242   2.672   3.747   6.228
 4433TIP3    H213243   2.590   3.717   6.352
 4434TIP3   OH213244   3.156   1.289   0.606
 4434TIP3    H113245   3.139   1.200   0.576
 4434TIP3    H213246   3.185   1.335   0.527
 4435TIP3   OH213247   3.424   7.768   4.458
 4435TIP3    H113248   3.450   7.750   4.548
 4435TIP3    H213249   3.444   7.687   4.411
 4436TIP3   OH213250   3.936   1.768   3.428
 4436TIP3    H113251   4.004   1.713   3.390
 4436TIP3    H213252   3.951   1.764   3.522
 4437TIP3   OH213253   5.197   7.772   2.592
 4437TIP3    H113254   5.255   7.750   2.519
 4437TIP3    H213255   5.123   7.712   2.583
 4438TIP3   OH213256   1.949   2.179   6.445
 4438TIP3    H113257   2.015   2.151   6.381
 4438TIP3    H213258   1.958   2.117   6.517
 4439TIP3   OH213259   0.229   1.266   0.703
 4439TIP3    H113260   0.183   1.219   0.772
 4439TIP3    H213261   0.159   1.303   0.649
 4440TIP3   OH213262   4.479   6.072   6.706
 4440TIP3    H113263   4.487   6.030   6.621
 4440TIP3    H213264   4.418   6.017   6.755
 4441TIP3   OH213265   2.913   4.754   5.604
 4441TIP3    H113266   2.909   4.661   5.581
 4441TIP3    H213267   2.954   4.757   5.690
 4442TIP3   OH213268   3.057   1.890   4.290
 4442TIP3    H113269   3.118   1.818   4.309
 4442TIP3    H213270   2.971   1.848   4.287
 4443TIP3   OH213271   6.637   1.641   2.023
 4443TIP3    H113272   6.649   1.550   2.052
 4443TIP3    H213273   6.717   1.661   1.975
 4444TIP3   OH213274   1.502   1.848   3.119
 4444TIP3    H113275   1.553   1.772   3.090
 4444TIP3    H213276   1.532   1.919   3.063
 4445TIP3   OH213277   0.761   4.949   0.869
 4445TIP3    H113278   0.831   4.888   0.893
 4445TIP3    H213279   0.734   4.921   0.781
 4446TIP3   OH213280   5.825   1.473   6.066
 4446TIP3    H113281   5.889   1.541   6.046
 4446TIP3    H213282   5.865   1.393   6.032
 4447TIP3   OH213283   2.793   7.160   5.106
 4447TIP3    H113284   2.788   7.192   5.196
 4447TIP3    H213285   2.821   7.069   5.114
 4448TIP3   OH213286   6.452   7.816   4.992
 4448TIP3    H113287   6.519   7.768   5.040
 4448TIP3    H213288   6.369   7.784   5.028
 4449TIP3   OH213289   5.398   4.844   0.487
 4449TIP3    H113290   5.471   4.815   0.542
 4449TIP3    H213291   5.434   4.847   0.399
 4450TIP3   OH213292   4.187   2.768   5.461
 4450TIP3    H113293   4.241   2.770   5.382
 4450TIP3    H213294   4.222   2.695   5.512
 4451TIP3   OH213295   4.287   1.136   4.221
 4451TIP3    H113296   4.257   1.115   4.310
 4451TIP3    H213297   4.226   1.088   4.164
 4452TIP3   OH213298   5.776   2.067   2.266
 4452TIP3    H113299   5.788   1.981   2.306
 4452TIP3    H213300   5.729   2.049   2.185
 4453TIP3   OH213301   5.466   5.875   2.521
 4453TIP3    H113302   5.374   5.853   2.507
 4453TIP3    H213303   5.492   5.821   2.596
 4454TIP3   OH213304   2.091   6.217   3.355
 4454TIP3    H113305   2.140   6.297   3.372
 4454TIP3    H213306   2.122   6.187   3.270
 4455TIP3   OH213307   0.197   2.541   3.323
 4455TIP3    H113308   0.247   2.521   3.402
 4455TIP3    H213309   0.135   2.609   3.351
 4456TIP3   OH213310   3.931   5.706   5.133
 4456TIP3    H113311   3.918   5.638   5.199
 4456TIP3    H213312   3.934   5.788   5.183
 4457TIP3   OH213313   0.006   1.711   6.538
 4457TIP3    H113314   0.087   1.731   6.585
 4457TIP3    H213315   0.028   1.726   6.446
 4458TIP3   OH213316   2.097   3.246   5.837
 4458TIP3    H113317   2.093   3.153   5.857
 4458TIP3    H213318   2.140   3.251   5.752
 4459TIP3   OH213319   6.799   2.837   4.636
 4459TIP3    H113320   6.723   2.843   4.693
 4459TIP3    H213321   6.775   2.886   4.558
 4460TIP3   OH213322   3.773   4.822   5.900
 4460TIP3    H113323   3.708   4.892   5.907
 4460TIP3    H213324   3.853   4.866   5.871
 4461TIP3   OH213325   3.099   3.045   1.678
 4461TIP3    H113326   3.151   3.085   1.748
 4461TIP3    H213327   3.150   3.061   1.598
 4462TIP3   OH213328   2.937   0.853   5.995
 4462TIP3    H113329   3.020   0.864   6.041
 4462TIP3    H213330   2.959   0.801   5.917
 4463TIP3   OH213331   4.293   7.079   1.864
 4463TIP3    H113332   4.308   6.989   1.837
 4463TIP3    H213333   4.379   7.121   1.857
 4464TIP3   OH213334   5.635   5.333   4.527
 4464TIP3    H113335   5.639   5.363   4.436
 4464TIP3    H213336   5.625   5.413   4.579
 4465TIP3   OH213337  -0.032   4.501   1.696
 4465TIP3    H113338   0.020   4.421   1.701
 4465TIP3    H213339   0.017   4.566   1.746
 4466TIP3   OH213340   3.356   3.996   1.945
 4466TIP3    H113341   3.372   3.902   1.946
 4466TIP3    H213342   3.438   4.035   1.915
 4467TIP3   OH213343   6.303   5.944   5.295
 4467TIP3    H113344   6.261   5.910   5.216
 4467TIP3    H213345   6.251   6.021   5.319
 4468TIP3   OH213346   5.732   1.742   4.351
 4468TIP3    H113347   5.714   1.771   4.440
 4468TIP3    H213348   5.819   1.778   4.331
 4469TIP3   OH213349   5.841   6.232   6.230
 4469TIP3    H113350   5.846   6.224   6.326
 4469TIP3    H213351   5.845   6.142   6.199
 4470TIP3   OH213352   4.387   1.568   5.827
 4470TIP3    H113353   4.365   1.635   5.892
 4470TIP3    H213354   4.481   1.555   5.837
 4471TIP3   OH213355   2.850   4.637   2.646
 4471TIP3    H113356   2.914   4.577   2.607
 4471TIP3    H213357   2.901   4.691   2.706
 4472TIP3   OH213358   8.182   3.287   0.874
 4472TIP3    H113359   8.207   3.379   0.884
 4472TIP3    H213360   8.255   3.238   0.914
 4473TIP3   OH213361   6.747   2.655   1.076
 4473TIP3    H113362   6.710   2.743   1.077
 4473TIP3    H213363   6.820   2.659   1.137
 4474TIP3   OH213364   8.210   7.531   3.044
 4474TIP3    H113365   8.220   7.626   3.047
 4474TIP3    H213366   8.264   7.504   2.970
 4475TIP3   OH213367   4.885   2.317   6.014
 4475TIP3    H113368   4.945   2.291   5.944
 4475TIP3    H213369   4.834   2.239   6.033
 4476TIP3   OH213370   7.921   2.427   1.122
 4476TIP3    H113371   7.832   2.460   1.123
 4476TIP3    H213372   7.975   2.502   1.097
 4477TIP3   OH213373   1.793   1.322   4.267
 4477TIP3    H113374   1.870   1.363   4.306
 4477TIP3    H213375   1.748   1.393   4.221
 4478TIP3   OH213376   6.337   7.290   0.760
 4478TIP3    H113377   6.349   7.383   0.740
 4478TIP3    H213378   6.275   7.259   0.694
 4479TIP3   OH213379   1.997   4.399   0.447
 4479TIP3    H113380   1.941   4.469   0.482
 4479TIP3    H213381   2.085   4.421   0.477
 4480TIP3   OH213382   2.374   2.197   3.266
 4480TIP3    H113383   2.379   2.157   3.352
 4480TIP3    H213384   2.465   2.199   3.235
 4481TIP3   OH213385   5.032   3.106   1.800
 4481TIP3    H113386   5.017   3.026   1.850
 4481TIP3    H213387   4.963   3.166   1.828
 4482TIP3   OH213388   3.161   7.632   5.701
 4482TIP3    H113389   3.230   7.643   5.636
 4482TIP3    H213390   3.181   7.548   5.743
 4483TIP3   OH213391   5.018   3.234   3.171
 4483TIP3    H113392   4.982   3.163   3.225
 4483TIP3    H213393   5.109   3.208   3.155
 4484TIP3   OH213394   6.931   1.860   2.258
 4484TIP3    H113395   6.901   1.894   2.174
 4484TIP3    H213396   6.976   1.778   2.236
 4485TIP3   OH213397   5.170   5.265   5.502
 4485TIP3    H113398   5.106   5.267   5.574
 4485TIP3    H213399   5.151   5.184   5.455
 4486TIP3   OH213400   2.359   3.601   6.571
 4486TIP3    H113401   2.388   3.603   6.662
 4486TIP3    H213402   2.436   3.570   6.523
 4487TIP3   OH213403   6.756   6.472   5.987
 4487TIP3    H113404   6.784   6.447   5.899
 4487TIP3    H213405   6.823   6.532   6.018
 4488TIP3   OH213406   2.820   6.483   4.520
 4488TIP3    H113407   2.732   6.475   4.484
 4488TIP3    H213408   2.807   6.477   4.615
 4489TIP3   OH213409   5.380   6.233   1.333
 4489TIP3    H113410   5.289   6.255   1.352
 4489TIP3    H213411   5.431   6.283   1.396
 4490TIP3   OH213412   0.971   3.598   5.874
 4490TIP3    H113413   0.927   3.526   5.920
 4490TIP3    H213414   1.033   3.632   5.938
 4491TIP3   OH213415   0.355   1.154   2.232
 4491TIP3    H113416   0.382   1.158   2.140
 4491TIP3    H213417   0.437   1.161   2.281
 4492TIP3   OH213418   0.837   6.562   5.906
 4492TIP3    H113419   0.878   6.561   5.992
 4492TIP3    H213420   0.777   6.637   5.909
 4493TIP3   OH213421   7.139   1.756   4.183
 4493TIP3    H113422   7.120   1.726   4.272
 4493TIP3    H213423   7.209   1.699   4.153
 4494TIP3   OH213424   6.021   1.414   2.399
 4494TIP3    H113425   5.960   1.488   2.406
 4494TIP3    H213426   6.101   1.452   2.362
 4495TIP3   OH213427   6.968   6.223   3.385
 4495TIP3    H113428   7.013   6.305   3.363
 4495TIP3    H213429   6.983   6.166   3.310
 4496TIP3   OH213430   8.123   4.382   5.004
 4496TIP3    H113431   8.189   4.337   4.952
 4496TIP3    H213432   8.172   4.425   5.074
 4497TIP3   OH213433   2.812   7.513   1.988
 4497TIP3    H113434   2.718   7.528   1.997
 4497TIP3    H213435   2.822   7.467   1.905
 4498TIP3   OH213436   2.412   4.042   1.181
 4498TIP3    H113437   2.505   4.049   1.202
 4498TIP3    H213438   2.380   3.972   1.238
 4499TIP3   OH213439   0.848   2.350   5.976
 4499TIP3    H113440   0.796   2.323   6.052
 4499TIP3    H213441   0.784   2.380   5.912
 4500TIP3   OH213442   7.271   7.476   4.594
 4500TIP3    H113443   7.226   7.430   4.523
 4500TIP3    H213444   7.201   7.500   4.655
 4501TIP3   OH213445   7.557   5.302   4.581
 4501TIP3    H113446   7.509   5.234   4.628
 4501TIP3    H213447   7.649   5.286   4.603
 4502TIP3   OH213448   1.376   3.929   0.031
 4502TIP3    H113449   1.454   3.893   0.072
 4502TIP3    H213450   1.303   3.883   0.074
 4503TIP3   OH213451   2.696   4.557   3.916
 4503TIP3    H113452   2.745   4.500   3.857
 4503TIP3    H213453   2.636   4.604   3.859
 4504TIP3   OH213454   7.951   2.208   1.753
 4504TIP3    H113455   7.931   2.292   1.795
 4504TIP3    H213456   8.030   2.226   1.701
 4505TIP3   OH213457   8.124   4.425   1.423
 4505TIP3    H113458   8.168   4.510   1.422
 4505TIP3    H213459   8.181   4.369   1.474
 4506TIP3   OH213460   5.649   3.944   3.816
 4506TIP3    H113461   5.579   3.936   3.881
 4506TIP3    H213462   5.603   3.965   3.735
 4507TIP3   OH213463   7.835   7.495   0.468
 4507TIP3    H113464   7.896   7.433   0.428
 4507TIP3    H213465   7.858   7.493   0.561
 4508TIP3   OH213466   0.182   1.142   6.752
 4508TIP3    H113467   0.152   1.123   6.841
 4508TIP3    H213468   0.179   1.058   6.708
 4509TIP3   OH213469   7.896   3.249   4.486
 4509TIP3    H113470   7.844   3.329   4.484
 4509TIP3    H213471   7.977   3.274   4.531
 4510TIP3   OH213472   5.721   2.582   6.454
 4510TIP3    H113473   5.789   2.582   6.387
 4510TIP3    H213474   5.769   2.575   6.537
 4511TIP3   OH213475   5.602   6.721   2.534
 4511TIP3    H113476   5.581   6.807   2.571
 4511TIP3    H213477   5.676   6.690   2.586
 4512TIP3   OH213478   3.533   3.527   2.922
 4512TIP3    H113479   3.609   3.519   2.980
 4512TIP3    H213480   3.550   3.465   2.851
 4513TIP3   OH213481   1.041   6.194   2.084
 4513TIP3    H113482   0.964   6.175   2.138
 4513TIP3    H213483   1.042   6.289   2.076
 4514TIP3   OH213484   5.380   7.726   2.393
 4514TIP3    H113485   5.384   7.790   2.323
 4514TIP3    H213486   5.403   7.643   2.351
 4515TIP3   OH213487   3.926   3.860   4.974
 4515TIP3    H113488   3.931   3.769   5.003
 4515TIP3    H213489   3.906   3.909   5.054
 4516TIP3   OH213490   4.764   1.092   5.422
 4516TIP3    H113491   4.685   1.054   5.461
 4516TIP3    H213492   4.833   1.028   5.437
 4517TIP3   OH213493   0.240   0.142   4.013
 4517TIP3    H113494   0.196   0.102   4.089
 4517TIP3    H213495   0.175   0.136   3.943
 4518TIP3   OH213496   8.051   1.200   6.257
 4518TIP3    H113497   8.093   1.119   6.226
 4518TIP3    H213498   8.010   1.176   6.340
 4519TIP3   OH213499   6.505   1.577   0.498
 4519TIP3    H113500   6.539   1.535   0.577
 4519TIP3    H213501   6.555   1.658   0.491
 4520TIP3   OH213502   6.242   5.360   1.086
 4520TIP3    H113503   6.181   5.412   1.139
 4520TIP3    H213504   6.267   5.419   1.015
 4521TIP3   OH213505   7.567   4.825   5.626
 4521TIP3    H113506   7.545   4.820   5.533
 4521TIP3    H213507   7.611   4.910   5.636
 4522TIP3   OH213508   2.819   7.526   4.904
 4522TIP3    H113509   2.863   7.448   4.869
 4522TIP3    H213510   2.842   7.526   4.997
 4523TIP3   OH213511   6.135   7.085   1.452
 4523TIP3    H113512   6.085   7.035   1.388
 4523TIP3    H213513   6.130   7.033   1.532
 4524TIP3   OH213514   8.280   0.428   4.526
 4524TIP3    H113515   8.319   0.515   4.516
 4524TIP3    H213516   8.201   0.430   4.473
 4525TIP3   OH213517   6.904   6.432   4.270
 4525TIP3    H113518   6.888   6.512   4.319
 4525TIP3    H213519   6.897   6.459   4.178
 4526TIP3   OH213520   2.689   6.853   1.446
 4526TIP3    H113521   2.632   6.897   1.383
 4526TIP3    H213522   2.645   6.771   1.467
 4527TIP3   OH213523   4.990   1.523   6.532
 4527TIP3    H113524   4.990   1.598   6.591
 4527TIP3    H213525   5.029   1.555   6.451
 4528TIP3   OH213526   3.658   7.585   4.169
 4528TIP3    H113527   3.566   7.610   4.178
 4528TIP3    H213528   3.661   7.533   4.089
 4529TIP3   OH213529   2.496   3.678   3.696
 4529TIP3    H113530   2.544   3.696   3.777
 4529TIP3    H213531   2.474   3.765   3.661
 4530TIP3   OH213532   3.331   0.608   3.408
 4530TIP3    H113533   3.239   0.631   3.395
 4530TIP3    H213534   3.336   0.583   3.501
 4531TIP3   OH213535   2.021   6.218   3.843
 4531TIP3    H113536   2.066   6.151   3.791
 4531TIP3    H213537   2.068   6.219   3.926
 4532TIP3   OH213538   6.902   5.824   0.691
 4532TIP3    H113539   6.912   5.748   0.634
 4532TIP3    H213540   6.960   5.807   0.764
 4533TIP3   OH213541   8.057   1.210   4.210
 4533TIP3    H113542   7.965   1.225   4.234
 4533TIP3    H213543   8.072   1.266   4.135
 4534TIP3   OH213544   6.905   7.072   4.311
 4534TIP3    H113545   6.818   7.036   4.328
 4534TIP3    H213546   6.893   7.129   4.236
 4535TIP3   OH213547   5.886   2.037   1.360
 4535TIP3    H113548   5.945   2.094   1.311
 4535TIP3    H213549   5.906   2.055   1.452
 4536TIP3   OH213550   6.056   6.112   4.041
 4536TIP3    H113551   6.118   6.060   4.093
 4536TIP3    H213552   6.004   6.047   3.993
 4537TIP3   OH213553   3.844   2.726   5.435
 4537TIP3    H113554   3.897   2.671   5.492
 4537TIP3    H213555   3.855   2.814   5.469
 4538TIP3   OH213556   1.378   4.457   5.914
 4538TIP3    H113557   1.381   4.432   6.006
 4538TIP3    H213558   1.389   4.375   5.866
 4539TIP3   OH213559   5.703   4.303   3.051
 4539TIP3    H113560   5.649   4.234   3.089
 4539TIP3    H213561   5.792   4.283   3.079
 4540TIP3   OH213562   4.101   7.313   2.338
 4540TIP3    H113563   4.158   7.266   2.277
 4540TIP3    H213564   4.083   7.396   2.295
 4541TIP3   OH213565   1.566   7.640   0.900
 4541TIP3    H113566   1.662   7.638   0.902
 4541TIP3    H213567   1.543   7.584   0.827
 4542TIP3   OH213568   4.415   1.458   5.382
 4542TIP3    H113569   4.455   1.387   5.332
 4542TIP3    H213570   4.321   1.444   5.374
 4543TIP3   OH213571   6.615   2.706   6.656
 4543TIP3    H113572   6.676   2.652   6.707
 4543TIP3    H213573   6.660   2.723   6.573
 4544TIP3   OH213574   4.552   0.210   2.326
 4544TIP3    H113575   4.600   0.130   2.347
 4544TIP3    H213576   4.482   0.215   2.391
 4545TIP3   OH213577   2.294   6.856   4.468
 4545TIP3    H113578   2.321   6.774   4.427
 4545TIP3    H213579   2.376   6.900   4.488
 4546TIP3   OH213580   3.428   1.583   0.072
 4546TIP3    H113581   3.478   1.586  -0.009
 4546TIP3    H213582   3.447   1.498   0.110
 4547TIP3   OH213583   3.450   7.369   0.804
 4547TIP3    H113584   3.397   7.412   0.872
 4547TIP3    H213585   3.525   7.427   0.793
 4548TIP3   OH213586   1.787   3.134   4.868
 4548TIP3    H113587   1.717   3.069   4.864
 4548TIP3    H213588   1.860   3.093   4.822
 4549TIP3   OH213589   4.592   2.546   5.324
 4549TIP3    H113590   4.555   2.458   5.312
 4549TIP3    H213591   4.686   2.534   5.307
 4550TIP3   OH213592   4.040   6.772   0.428
 4550TIP3    H113593   3.950   6.766   0.396
 4550TIP3    H213594   4.086   6.821   0.360
 4551TIP3   OH213595   1.364   0.527   2.541
 4551TIP3    H113596   1.319   0.601   2.582
 4551TIP3    H213597   1.388   0.559   2.454
 4552TIP3   OH213598   2.049   1.912   4.110
 4552TIP3    H113599   2.004   1.992   4.134
 4552TIP3    H213600   1.981   1.855   4.074
 4553TIP3   OH213601   6.534   5.824   2.643
 4553TIP3    H113602   6.461   5.804   2.585
 4553TIP3    H213603   6.593   5.750   2.633
 4554TIP3   OH213604   0.705   6.263   3.590
 4554TIP3    H113605   0.627   6.269   3.535
 4554TIP3    H213606   0.729   6.170   3.589
 4555TIP3   OH213607   2.726   5.052   2.743
 4555TIP3    H113608   2.631   5.041   2.750
 4555TIP3    H213609   2.759   5.023   2.828
 4556TIP3   OH213610   2.547   2.753   3.796
 4556TIP3    H113611   2.547   2.657   3.799
 4556TIP3    H213612   2.632   2.778   3.832
 4557TIP3   OH213613   0.514   2.203   1.365
 4557TIP3    H113614   0.503   2.291   1.402
 4557TIP3    H213615   0.592   2.210   1.310
 4558TIP3   OH213616   2.963   3.684   5.218
 4558TIP3    H113617   2.906   3.614   5.251
 4558TIP3    H213618   2.930   3.703   5.130
 4559TIP3   OH213619   4.526   2.709   0.490
 4559TIP3    H113620   4.587   2.642   0.459
 4559TIP3    H213621   4.477   2.666   0.560
 4560TIP3   OH213622   4.885   6.963   1.925
 4560TIP3    H113623   4.956   6.991   1.867
 4560TIP3    H213624   4.880   6.868   1.913
 4561TIP3   OH213625   0.903   6.984   0.146
 4561TIP3    H113626   0.997   6.992   0.134
 4561TIP3    H213627   0.874   7.071   0.173
 4562TIP3   OH213628   4.691   4.203   0.116
 4562TIP3    H113629   4.616   4.252   0.148
 4562TIP3    H213630   4.732   4.260   0.052
 4563TIP3   OH213631   6.449   3.617   1.432
 4563TIP3    H113632   6.380   3.663   1.479
 4563TIP3    H213633   6.419   3.614   1.341
 4564TIP3   OH213634   3.452   0.856   6.616
 4564TIP3    H113635   3.362   0.828   6.634
 4564TIP3    H213636   3.489   0.874   6.702
 4565TIP3   OH213637   5.150   1.440   4.312
 4565TIP3    H113638   5.138   1.535   4.312
 4565TIP3    H213639   5.244   1.428   4.318
 4566TIP3   OH213640   7.212   0.240   3.147
 4566TIP3    H113641   7.299   0.273   3.125
 4566TIP3    H213642   7.210   0.244   3.243
 4567TIP3   OH213643   2.435   2.703   4.731
 4567TIP3    H113644   2.499   2.633   4.732
 4567TIP3    H213645   2.459   2.759   4.804
 4568TIP3   OH213646   5.896   6.133   2.885
 4568TIP3    H113647   5.857   6.057   2.843
 4568TIP3    H213648   5.833   6.157   2.954
 4569TIP3   OH213649   4.751   3.311   6.008
 4569TIP3    H113650   4.697   3.384   6.039
 4569TIP3    H213651   4.773   3.335   5.918
 4570TIP3   OH213652   2.052   1.601   2.753
 4570TIP3    H113653   1.977   1.658   2.770
 4570TIP3    H213654   2.124   1.660   2.735
 4571TIP3   OH213655   2.728   1.345   4.389
 4571TIP3    H113656   2.698   1.259   4.418
 4571TIP3    H213657   2.650   1.388   4.355
 4572TIP3   OH213658   8.200   4.975   0.994
 4572TIP3    H113659   8.295   4.986   0.987
 4572TIP3    H213660   8.163   5.042   0.936
 4573TIP3   OH213661   0.235   5.436   1.275
 4573TIP3    H113662   0.181   5.360   1.294
 4573TIP3    H213663   0.172   5.507   1.262
 4574TIP3   OH213664   6.926   6.928   4.737
 4574TIP3    H113665   6.929   6.957   4.828
 4574TIP3    H213666   7.017   6.915   4.712
 4575TIP3   OH213667   7.020   6.100   2.857
 4575TIP3    H113668   7.055   6.021   2.901
 4575TIP3    H213669   6.965   6.066   2.787
 4576TIP3   OH213670   5.667   2.282   0.864
 4576TIP3    H113671   5.692   2.348   0.928
 4576TIP3    H213672   5.574   2.297   0.849
 4577TIP3   OH213673   1.703   3.623   1.764
 4577TIP3    H113674   1.647   3.619   1.841
 4577TIP3    H213675   1.719   3.532   1.740
 4578TIP3   OH213676   1.737   3.066   5.592
 4578TIP3    H113677   1.758   2.972   5.584
 4578TIP3    H213678   1.643   3.071   5.574
 4579TIP3   OH213679   3.546   1.264   2.576
 4579TIP3    H113680   3.477   1.262   2.643
 4579TIP3    H213681   3.540   1.179   2.533
 4580TIP3   OH213682   7.171   4.876   3.070
 4580TIP3    H113683   7.192   4.957   3.025
 4580TIP3    H213684   7.137   4.818   3.002
 4581TIP3   OH213685   7.966   1.463   6.215
 4581TIP3    H113686   8.007   1.376   6.222
 4581TIP3    H213687   7.878   1.445   6.181
 4582TIP3   OH213688   1.144   4.724   6.390
 4582TIP3    H113689   1.161   4.793   6.455
 4582TIP3    H213690   1.209   4.738   6.322
 4583TIP3   OH213691   6.761   1.747   0.882
 4583TIP3    H113692   6.741   1.658   0.910
 4583TIP3    H213693   6.833   1.774   0.939
 4584TIP3   OH213694   8.214   7.486   1.687
 4584TIP3    H113695   8.170   7.439   1.617
 4584TIP3    H213696   8.176   7.574   1.685
 4585TIP3   OH213697   2.102   0.621   1.493
 4585TIP3    H113698   2.038   0.611   1.423
 4585TIP3    H213699   2.185   0.593   1.453
 4586TIP3   OH213700   5.642   4.497   1.362
 4586TIP3    H113701   5.656   4.433   1.293
 4586TIP3    H213702   5.587   4.564   1.321
 4587TIP3   OH213703   3.021   6.130   3.226
 4587TIP3    H113704   2.970   6.058   3.189
 4587TIP3    H213705   3.046   6.183   3.151
 4588TIP3   OH213706   3.044   0.737   3.865
 4588TIP3    H113707   2.973   0.704   3.920
 4588TIP3    H213708   3.124   0.721   3.916
 4589TIP3   OH213709   6.587   6.753   3.949
 4589TIP3    H113710   6.586   6.790   3.861
 4589TIP3    H213711   6.622   6.664   3.937
 4590TIP3   OH213712   5.655   2.519   3.341
 4590TIP3    H113713   5.620   2.468   3.414
 4590TIP3    H213714   5.578   2.544   3.290
 4591TIP3   OH213715   4.181   6.533   1.467
 4591TIP3    H113716   4.203   6.584   1.545
 4591TIP3    H213717   4.257   6.543   1.410
 4592TIP3   OH213718   7.070   2.094   2.523
 4592TIP3    H113719   7.017   2.019   2.548
 4592TIP3    H213720   7.154   2.056   2.498
 4593TIP3   OH213721   2.524   6.716   0.629
 4593TIP3    H113722   2.526   6.808   0.658
 4593TIP3    H213723   2.599   6.708   0.571
 4594TIP3   OH213724   4.865   1.834   2.032
 4594TIP3    H113725   4.812   1.909   2.007
 4594TIP3    H213726   4.900   1.856   2.118
 4595TIP3   OH213727   3.277   1.480   1.070
 4595TIP3    H113728   3.186   1.509   1.066
 4595TIP3    H213729   3.322   1.547   1.121
 4596TIP3   OH213730   5.358   1.396   2.874
 4596TIP3    H113731   5.388   1.486   2.884
 4596TIP3    H213732   5.267   1.403   2.844
 4597TIP3   OH213733   0.969   6.782   1.625
 4597TIP3    H113734   0.961   6.861   1.678
 4597TIP3    H213735   1.063   6.770   1.614
 4598TIP3   OH213736   0.901   4.447   0.668
 4598TIP3    H113737   0.928   4.485   0.585
 4598TIP3    H213738   0.905   4.519   0.730
 4599TIP3   OH213739   3.435   1.974   3.313
 4599TIP3    H113740   3.522   1.988   3.274
 4599TIP3    H213741   3.441   2.017   3.398
 4600TIP3   OH213742   5.947   2.543   6.630
 4600TIP3    H113743   5.967   2.566   6.720
 4600TIP3    H213744   6.016   2.482   6.604
 4601TIP3   OH213745   7.655   3.172   6.142
 4601TIP3    H113746   7.725   3.227   6.178
 4601TIP3    H213747   7.651   3.097   6.201
 4602TIP3   OH213748   8.066   3.910   0.494
 4602TIP3    H113749   8.077   3.821   0.529
 4602TIP3    H213750   8.111   3.966   0.557
 4603TIP3   OH213751   6.318   4.742   0.497
 4603TIP3    H113752   6.365   4.801   0.437
 4603TIP3    H213753   6.354   4.764   0.584
 4604TIP3   OH213754   4.525   3.062   4.918
 4604TIP3    H113755   4.550   3.136   4.862
 4604TIP3    H213756   4.559   3.086   5.004
 4605TIP3   OH213757   1.680   6.386   6.179
 4605TIP3    H113758   1.690   6.394   6.084
 4605TIP3    H213759   1.715   6.468   6.214
 4606TIP3   OH213760   4.092   4.106   1.582
 4606TIP3    H113761   4.092   4.192   1.625
 4606TIP3    H213762   4.024   4.113   1.515
 4607TIP3   OH213763   5.718   1.463   4.990
 4607TIP3    H113764   5.633   1.420   4.984
 4607TIP3    H213765   5.699   1.550   5.025
 4608TIP3   OH213766   3.476   4.788   5.288
 4608TIP3    H113767   3.382   4.768   5.285
 4608TIP3    H213768   3.479   4.880   5.314
 4609TIP3   OH213769   1.015   7.159   5.310
 4609TIP3    H113770   0.953   7.197   5.247
 4609TIP3    H213771   1.100   7.198   5.287
 4610TIP3   OH213772   3.805   2.579   0.351
 4610TIP3    H113773   3.848   2.663   0.365
 4610TIP3    H213774   3.853   2.518   0.408
 4611TIP3   OH213775   5.432   0.098   4.130
 4611TIP3    H113776   5.512   0.149   4.148
 4611TIP3    H213777   5.381   0.105   4.210
 4612TIP3   OH213778   1.187   6.255   0.934
 4612TIP3    H113779   1.127   6.208   0.992
 4612TIP3    H213780   1.137   6.333   0.909
 4613TIP3   OH213781   4.827   0.956   3.488
 4613TIP3    H113782   4.784   0.871   3.489
 4613TIP3    H213783   4.844   0.976   3.580
 4614TIP3   OH213784   3.291   6.262   2.518
 4614TIP3    H113785   3.336   6.179   2.505
 4614TIP3    H213786   3.267   6.263   2.610
 4615TIP3   OH213787   0.172   1.184   3.919
 4615TIP3    H113788   0.169   1.092   3.943
 4615TIP3    H213789   0.184   1.184   3.824
 4616TIP3   OH213790   2.565   5.220   3.997
 4616TIP3    H113791   2.560   5.291   3.934
 4616TIP3    H213792   2.483   5.226   4.046
 4617TIP3   OH213793   0.644   3.395   2.152
 4617TIP3    H113794   0.709   3.326   2.138
 4617TIP3    H213795   0.568   3.349   2.187
 4618TIP3   OH213796   6.245   1.675   1.853
 4618TIP3    H113797   6.255   1.744   1.788
 4618TIP3    H213798   6.169   1.625   1.823
 4619TIP3   OH213799   5.988   5.615   4.248
 4619TIP3    H113800   5.994   5.622   4.153
 4619TIP3    H213801   6.020   5.527   4.268
 4620TIP3   OH213802   0.402   7.654   4.409
 4620TIP3    H113803   0.474   7.692   4.460
 4620TIP3    H213804   0.441   7.632   4.325
 4621TIP3   OH213805   6.711   0.328   3.225
 4621TIP3    H113806   6.647   0.353   3.158
 4621TIP3    H213807   6.712   0.233   3.221
 4622TIP3   OH213808   7.959   5.168   6.079
 4622TIP3    H113809   8.037   5.221   6.093
 4622TIP3    H213810   7.945   5.171   5.984
 4623TIP3   OH213811   4.159   1.482   5.090
 4623TIP3    H113812   4.151   1.563   5.141
 4623TIP3    H213813   4.251   1.459   5.097
 4624TIP3   OH213814   7.169   5.224   0.553
 4624TIP3    H113815   7.133   5.263   0.633
 4624TIP3    H213816   7.153   5.130   0.563
 4625TIP3   OH213817   5.098   6.994   3.226
 4625TIP3    H113818   5.133   6.914   3.267
 4625TIP3    H213819   5.044   7.034   3.295
 4626TIP3   OH213820   4.628   5.018   0.885
 4626TIP3    H113821   4.708   5.053   0.925
 4626TIP3    H213822   4.572   5.095   0.873
 4627TIP3   OH213823   0.467   7.077   2.489
 4627TIP3    H113824   0.522   7.084   2.566
 4627TIP3    H213825   0.440   7.166   2.470
 4628TIP3   OH213826   0.129   2.898   5.349
 4628TIP3    H113827   0.156   2.806   5.360
 4628TIP3    H213828   0.034   2.893   5.335
 4629TIP3   OH213829   0.577   2.488   5.088
 4629TIP3    H113830   0.518   2.459   5.019
 4629TIP3    H213831   0.664   2.481   5.049
 4630TIP3   OH213832   4.442   1.026   3.606
 4630TIP3    H113833   4.476   1.092   3.667
 4630TIP3    H213834   4.347   1.031   3.616
 4631TIP3   OH213835   1.726   3.610   4.131
 4631TIP3    H113836   1.768   3.622   4.216
 4631TIP3    H213837   1.743   3.691   4.084
 4632TIP3   OH213838   6.124   3.872   6.490
 4632TIP3    H113839   6.218   3.859   6.504
 4632TIP3    H213840   6.085   3.851   6.575
 4633TIP3   OH213841   6.226   4.929   1.007
 4633TIP3    H113842   6.302   4.891   1.052
 4633TIP3    H213843   6.195   4.860   0.949
 4634TIP3   OH213844   1.719   6.523   3.522
 4634TIP3    H113845   1.740   6.454   3.459
 4634TIP3    H213846   1.652   6.484   3.578
 4635TIP3   OH213847   5.017   0.922   5.770
 4635TIP3    H113848   4.934   0.928   5.818
 4635TIP3    H213849   5.062   0.846   5.808
 4636TIP3   OH213850   4.285   2.582   4.470
 4636TIP3    H113851   4.341   2.660   4.477
 4636TIP3    H213852   4.199   2.612   4.498
 4637TIP3   OH213853   4.126   1.447   4.294
 4637TIP3    H113854   4.046   1.401   4.269
 4637TIP3    H213855   4.148   1.413   4.380
 4638TIP3   OH213856   4.717   4.350   3.518
 4638TIP3    H113857   4.764   4.431   3.536
 4638TIP3    H213858   4.624   4.375   3.520
 4639TIP3   OH213859   7.108   0.944   0.713
 4639TIP3    H113860   7.153   0.957   0.797
 4639TIP3    H213861   7.029   0.895   0.735
 4640TIP3   OH213862   4.495   1.465   3.880
 4640TIP3    H113863   4.415   1.413   3.894
 4640TIP3    H213864   4.529   1.480   3.969
 4641TIP3   OH213865   4.265   6.550   2.466
 4641TIP3    H113866   4.266   6.640   2.433
 4641TIP3    H213867   4.178   6.539   2.504
 4642TIP3   OH213868   3.519   2.336   4.584
 4642TIP3    H113869   3.500   2.350   4.677
 4642TIP3    H213870   3.520   2.423   4.546
 4643TIP3   OH213871   3.236   2.430   3.565
 4643TIP3    H113872   3.306   2.384   3.611
 4643TIP3    H213873   3.271   2.447   3.477
 4644TIP3   OH213874   6.551   4.951   4.842
 4644TIP3    H113875   6.491   5.026   4.849
 4644TIP3    H213876   6.524   4.892   4.912
 4645TIP3   OH213877   0.199   4.990   0.568
 4645TIP3    H113878   0.236   5.078   0.562
 4645TIP3    H213879   0.240   4.951   0.645
 4646TIP3   OH213880   7.921   5.998   3.974
 4646TIP3    H113881   7.868   6.074   3.951
 4646TIP3    H213882   7.858   5.929   3.995
 4647TIP3   OH213883   1.925   0.136   5.976
 4647TIP3    H113884   1.896   0.154   5.886
 4647TIP3    H213885   1.869   0.064   6.005
 4648TIP3   OH213886   0.489   5.002   1.604
 4648TIP3    H113887   0.416   5.023   1.545
 4648TIP3    H213888   0.565   5.044   1.564
 4649TIP3   OH213889   1.639   3.076   3.984
 4649TIP3    H113890   1.547   3.051   3.995
 4649TIP3    H213891   1.636   3.153   3.927
 4650TIP3   OH213892   2.076   1.055   3.891
 4650TIP3    H113893   2.097   0.981   3.948
 4650TIP3    H213894   2.006   1.101   3.937
 4651TIP3   OH213895   5.844   6.119   1.368
 4651TIP3    H113896   5.816   6.208   1.349
 4651TIP3    H213897   5.911   6.100   1.302
 4652TIP3   OH213898   6.368   6.526   6.547
 4652TIP3    H113899   6.353   6.481   6.630
 4652TIP3    H213900   6.369   6.456   6.481
 4653TIP3   OH213901   8.207   6.659   1.477
 4653TIP3    H113902   8.217   6.744   1.435
 4653TIP3    H213903   8.270   6.660   1.549
 4654TIP3   OH213904   1.240   7.101   1.693
 4654TIP3    H113905   1.219   7.194   1.690
 4654TIP3    H213906   1.325   7.097   1.737
 4655TIP3   OH213907   6.991   4.421   4.699
 4655TIP3    H113908   6.933   4.497   4.699
 4655TIP3    H213909   6.945   4.355   4.647
 4656TIP3   OH213910   5.570   2.798   3.645
 4656TIP3    H113911   5.557   2.720   3.699
 4656TIP3    H213912   5.640   2.774   3.584
 4657TIP3   OH213913   6.905   5.907   2.334
 4657TIP3    H113914   6.962   5.831   2.342
 4657TIP3    H213915   6.964   5.978   2.310
 4658TIP3   OH213916   1.222   6.615   3.774
 4658TIP3    H113917   1.211   6.684   3.840
 4658TIP3    H213918   1.281   6.552   3.816
 4659TIP3   OH213919   5.570   6.922   5.274
 4659TIP3    H113920   5.642   6.877   5.230
 4659TIP3    H213921   5.494   6.866   5.261
 4660TIP3   OH213922   1.932   2.521   3.766
 4660TIP3    H113923   1.989   2.447   3.744
 4660TIP3    H213924   1.848   2.500   3.725
 4661TIP3   OH213925   1.137   0.530   4.154
 4661TIP3    H113926   1.154   0.541   4.247
 4661TIP3    H213927   1.144   0.618   4.117
 4662TIP3   OH213928   7.574   4.103   2.811
 4662TIP3    H113929   7.595   4.094   2.904
 4662TIP3    H213930   7.492   4.055   2.801
 4663TIP3   OH213931   1.377   2.973   4.003
 4663TIP3    H113932   1.294   2.992   3.960
 4663TIP3    H213933   1.391   2.880   3.988
 4664TIP3   OH213934   2.167   1.179   4.927
 4664TIP3    H113935   2.096   1.128   4.966
 4664TIP3    H213936   2.210   1.222   5.001
 4665TIP3   OH213937   4.531   7.068   3.798
 4665TIP3    H113938   4.537   6.998   3.862
 4665TIP3    H213939   4.437   7.085   3.789
 4666TIP3   OH213940   5.002   4.688   0.729
 4666TIP3    H113941   5.060   4.763   0.710
 4666TIP3    H213942   5.001   4.637   0.648
 4667TIP3   OH213943   5.778   6.261   3.850
 4667TIP3    H113944   5.700   6.311   3.872
 4667TIP3    H213945   5.749   6.170   3.850
 4668TIP3   OH213946   4.472   1.557   6.272
 4668TIP3    H113947   4.444   1.511   6.193
 4668TIP3    H213948   4.479   1.649   6.245
 4669TIP3   OH213949   4.996   6.540   6.228
 4669TIP3    H113950   4.914   6.512   6.268
 4669TIP3    H213951   5.053   6.463   6.236
 4670TIP3   OH213952   5.887   1.932   1.656
 4670TIP3    H113953   5.894   1.934   1.751
 4670TIP3    H213954   5.795   1.911   1.639
 4671TIP3   OH213955   7.009   6.616   1.215
 4671TIP3    H113956   7.067   6.539   1.207
 4671TIP3    H213957   6.948   6.593   1.285
 4672TIP3   OH213958   3.617   1.752   3.161
 4672TIP3    H113959   3.629   1.771   3.254
 4672TIP3    H213960   3.691   1.793   3.118
 4673TIP3   OH213961   0.137   1.867   1.998
 4673TIP3    H113962   0.104   1.843   1.911
 4673TIP3    H213963   0.231   1.880   1.985
 4674TIP3   OH213964   4.355   7.379   1.268
 4674TIP3    H113965   4.327   7.289   1.284
 4674TIP3    H213966   4.446   7.371   1.241
 4675TIP3   OH213967   0.390   7.745   6.612
 4675TIP3    H113968   0.467   7.793   6.644
 4675TIP3    H213969   0.331   7.741   6.687
 4676TIP3   OH213970   6.756   5.167   1.511
 4676TIP3    H113971   6.845   5.181   1.542
 4676TIP3    H213972   6.763   5.169   1.416
 4677TIP3   OH213973   1.573   7.732   4.364
 4677TIP3    H113974   1.507   7.783   4.317
 4677TIP3    H213975   1.530   7.707   4.446
 4678TIP3   OH213976   5.818   1.407   4.486
 4678TIP3    H113977   5.750   1.339   4.484
 4678TIP3    H213978   5.786   1.470   4.550
 4679TIP3   OH213979   0.237   0.363   2.895
 4679TIP3    H113980   0.195   0.280   2.919
 4679TIP3    H213981   0.196   0.387   2.812
 4680TIP3   OH213982   1.407   5.263   3.290
 4680TIP3    H113983   1.472   5.197   3.267
 4680TIP3    H213984   1.450   5.316   3.357
 4681TIP3   OH213985   4.447   5.108   1.538
 4681TIP3    H113986   4.405   5.192   1.558
 4681TIP3    H213987   4.533   5.132   1.503
 4682TIP3   OH213988   2.673   1.632   4.284
 4682TIP3    H113989   2.590   1.675   4.306
 4682TIP3    H213990   2.655   1.585   4.202
 4683TIP3   OH213991   0.403   4.371   5.734
 4683TIP3    H113992   0.351   4.294   5.711
 4683TIP3    H213993   0.492   4.338   5.745
 4684TIP3   OH213994   4.303   5.256   6.309
 4684TIP3    H113995   4.360   5.313   6.259
 4684TIP3    H213996   4.230   5.312   6.336
 4685TIP3   OH213997   5.041   5.686   5.240
 4685TIP3    H113998   5.095   5.629   5.295
 4685TIP3    H213999   4.972   5.629   5.206
 4686TIP3   OH214000   2.356   7.713   4.922
 4686TIP3    H114001   2.359   7.757   4.837
 4686TIP3    H214002   2.445   7.681   4.936
 4687TIP3   OH214003   0.130   7.245   5.198
 4687TIP3    H114004   0.036   7.230   5.186
 4687TIP3    H214005   0.168   7.157   5.196
 4688TIP3   OH214006   4.613   2.766   3.435
 4688TIP3    H114007   4.591   2.810   3.353
 4688TIP3    H214008   4.567   2.816   3.502
 4689TIP3   OH214009   1.749   7.814   4.774
 4689TIP3    H114010   1.841   7.818   4.797
 4689TIP3    H214011   1.703   7.851   4.849
 4690TIP3   OH214012   5.289   3.712   1.551
 4690TIP3    H114013   5.248   3.738   1.633
 4690TIP3    H214014   5.247   3.630   1.528
 4691TIP3   OH214015   6.170   5.081   3.146
 4691TIP3    H114016   6.215   5.013   3.096
 4691TIP3    H214017   6.077   5.066   3.129
 4692TIP3   OH214018   7.122   3.471   2.465
 4692TIP3    H114019   7.096   3.501   2.377
 4692TIP3    H214020   7.181   3.398   2.449
 4693TIP3   OH214021   3.571   4.426   1.487
 4693TIP3    H114022   3.612   4.360   1.431
 4693TIP3    H214023   3.479   4.426   1.460
 4694TIP3   OH214024   6.009   1.899   5.088
 4694TIP3    H114025   6.103   1.910   5.072
 4694TIP3    H214026   5.967   1.934   5.010
 4695TIP3   OH214027   4.676   2.109   4.881
 4695TIP3    H114028   4.662   2.173   4.951
 4695TIP3    H214029   4.659   2.157   4.800
 4696TIP3   OH214030   5.246   2.022   0.611
 4696TIP3    H114031   5.313   2.053   0.550
 4696TIP3    H214032   5.167   2.013   0.557
 4697TIP3   OH214033   2.498   5.899   3.895
 4697TIP3    H114034   2.513   5.906   3.801
 4697TIP3    H214035   2.523   5.809   3.916
 4698TIP3   OH214036   1.618   3.189   2.678
 4698TIP3    H114037   1.582   3.270   2.642
 4698TIP3    H214038   1.644   3.139   2.600
 4699TIP3   OH214039   6.571   5.282   2.009
 4699TIP3    H114040   6.643   5.238   2.055
 4699TIP3    H214041   6.565   5.236   1.925
 4700TIP3   OH214042   0.845   2.976   5.221
 4700TIP3    H114043   0.888   2.985   5.306
 4700TIP3    H214044   0.753   2.960   5.243
 4701TIP3   OH214045   6.572   2.689   5.875
 4701TIP3    H114046   6.648   2.746   5.892
 4701TIP3    H214047   6.601   2.602   5.901
 4702TIP3   OH214048   3.735   4.450   4.837
 4702TIP3    H114049   3.646   4.424   4.862
 4702TIP3    H214050   3.722   4.525   4.778
 4703TIP3   OH214051   2.600   4.045   1.775
 4703TIP3    H114052   2.653   3.976   1.813
 4703TIP3    H214053   2.571   4.097   1.851
 4704TIP3   OH214054   4.776   2.156   5.670
 4704TIP3    H114055   4.758   2.063   5.668
 4704TIP3    H214056   4.872   2.162   5.663
 4705TIP3   OH214057   1.366   2.745   2.117
 4705TIP3    H114058   1.421   2.668   2.103
 4705TIP3    H214059   1.426   2.809   2.155
 4706TIP3   OH214060   7.987   0.190   2.702
 4706TIP3    H114061   7.994   0.105   2.659
 4706TIP3    H214062   7.945   0.172   2.786
 4707TIP3   OH214063   3.468   3.347   0.213
 4707TIP3    H114064   3.478   3.269   0.268
 4707TIP3    H214065   3.499   3.319   0.127
 4708TIP3   OH214066   6.844   5.800   1.802
 4708TIP3    H114067   6.878   5.801   1.891
 4708TIP3    H214068   6.782   5.872   1.799
 4709TIP3   OH214069   4.852   5.391   2.754
 4709TIP3    H114070   4.931   5.366   2.801
 4709TIP3    H214071   4.817   5.309   2.719
 4710TIP3   OH214072   4.520   0.896   4.232
 4710TIP3    H114073   4.529   0.982   4.274
 4710TIP3    H214074   4.593   0.891   4.170
 4711TIP3   OH214075   7.759   6.385   3.954
 4711TIP3    H114076   7.838   6.349   3.995
 4711TIP3    H214077   7.784   6.400   3.863
 4712TIP3   OH214078   2.613   4.281   3.644
 4712TIP3    H114079   2.588   4.205   3.592
 4712TIP3    H214080   2.578   4.263   3.732
 4713TIP3   OH214081   7.763   1.916   5.695
 4713TIP3    H114082   7.821   1.983   5.732
 4713TIP3    H214083   7.676   1.955   5.698
 4714TIP3   OH214084   4.076   4.160   2.527
 4714TIP3    H114085   3.990   4.125   2.505
 4714TIP3    H214086   4.082   4.154   2.622
 4715TIP3   OH214087   1.038   2.500   0.770
 4715TIP3    H114088   0.948   2.467   0.772
 4715TIP3    H214089   1.073   2.480   0.857
 4716TIP3   OH214090   6.207   5.915   3.294
 4716TIP3    H114091   6.125   5.891   3.251
 4716TIP3    H214092   6.252   5.970   3.229
 4717TIP3   OH214093   4.232   3.625   3.766
 4717TIP3    H114094   4.259   3.712   3.735
 4717TIP3    H214095   4.165   3.643   3.832
 4718TIP3   OH214096   5.019   4.212   0.046
 4718TIP3    H114097   5.079   4.276   0.006
 4718TIP3    H214098   4.960   4.188  -0.025
 4719TIP3   OH214099   7.744   3.452   3.059
 4719TIP3    H114100   7.787   3.398   3.125
 4719TIP3    H214101   7.701   3.390   3.001
 4720TIP3   OH214102   7.641   4.332   4.180
 4720TIP3    H114103   7.551   4.345   4.151
 4720TIP3    H214104   7.633   4.287   4.264
 4721TIP3   OH214105   3.905   1.280   4.271
 4721TIP3    H114106   3.851   1.209   4.235
 4721TIP3    H214107   3.852   1.359   4.258
 4722TIP3   OH214108   5.131   6.186   0.316
 4722TIP3    H114109   5.089   6.267   0.286
 4722TIP3    H214110   5.218   6.214   0.343
 4723TIP3   OH214111   6.012   1.320   6.313
 4723TIP3    H114112   5.943   1.336   6.376
 4723TIP3    H214113   5.986   1.240   6.268
 4724TIP3   OH214114   6.164   2.531   2.189
 4724TIP3    H114115   6.197   2.597   2.128
 4724TIP3    H214116   6.170   2.449   2.140
 4725TIP3   OH214117   7.895   3.872   3.128
 4725TIP3    H114118   7.832   3.904   3.193
 4725TIP3    H214119   7.846   3.809   3.076
 4726TIP3   OH214120   8.100   2.623   1.082
 4726TIP3    H114121   8.098   2.679   1.160
 4726TIP3    H214122   8.191   2.593   1.077
 4727TIP3   OH214123   3.025   5.658   6.740
 4727TIP3    H114124   3.118   5.634   6.740
 4727TIP3    H214125   3.010   5.692   6.829
 4728TIP3   OH214126   2.975   2.130   4.477
 4728TIP3    H114127   2.905   2.194   4.489
 4728TIP3    H214128   2.935   2.061   4.423
 4729TIP3   OH214129   7.786   6.557   5.864
 4729TIP3    H114130   7.755   6.485   5.810
 4729TIP3    H214131   7.882   6.548   5.864
 4730TIP3   OH214132   3.170   3.991   0.677
 4730TIP3    H114133   3.176   3.905   0.636
 4730TIP3    H214134   3.233   4.045   0.629
 4731TIP3   OH214135   2.331   5.206   4.123
 4731TIP3    H114136   2.331   5.280   4.184
 4731TIP3    H214137   2.240   5.200   4.093
 4732TIP3   OH214138   6.273   2.551   0.509
 4732TIP3    H114139   6.340   2.599   0.460
 4732TIP3    H214140   6.287   2.577   0.600
 4733TIP3   OH214141   2.821   1.221   0.938
 4733TIP3    H114142   2.831   1.133   0.973
 4733TIP3    H214143   2.897   1.268   0.970
 4734TIP3   OH214144   7.562   4.805   6.384
 4734TIP3    H114145   7.481   4.799   6.434
 4734TIP3    H214146   7.551   4.883   6.329
 4735TIP3   OH214147   3.192   0.872   4.467
 4735TIP3    H114148   3.124   0.937   4.447
 4735TIP3    H214149   3.178   0.851   4.560
 4736TIP3   OH214150   7.945   6.353   1.245
 4736TIP3    H114151   8.035   6.322   1.240
 4736TIP3    H214152   7.893   6.273   1.250
 4737TIP3   OH214153   7.233   0.699   6.101
 4737TIP3    H114154   7.230   0.675   6.008
 4737TIP3    H214155   7.325   0.688   6.126
 4738TIP3   OH214156   1.486   5.958   4.302
 4738TIP3    H114157   1.539   5.921   4.372
 4738TIP3    H214158   1.396   5.947   4.333
 4739TIP3   OH214159   4.708   2.585   5.677
 4739TIP3    H114160   4.759   2.665   5.688
 4739TIP3    H214161   4.757   2.533   5.614
 4740TIP3   OH214162   1.077   3.322   5.954
 4740TIP3    H114163   1.027   3.349   6.031
 4740TIP3    H214164   1.031   3.244   5.922
 4741TIP3   OH214165   3.052   6.377   1.306
 4741TIP3    H114166   3.047   6.302   1.247
 4741TIP3    H214167   2.977   6.366   1.365
 4742TIP3   OH214168   3.710   5.353   3.938
 4742TIP3    H114169   3.780   5.297   3.973
 4742TIP3    H214170   3.751   5.439   3.928
 4743TIP3   OH214171   4.715   1.808   0.401
 4743TIP3    H114172   4.687   1.738   0.342
 4743TIP3    H214173   4.709   1.770   0.488
 4744TIP3   OH214174   1.529   3.937   0.936
 4744TIP3    H114175   1.613   3.892   0.934
 4744TIP3    H214176   1.515   3.957   1.028
 4745TIP3   OH214177   5.042   7.684   6.195
 4745TIP3    H114178   4.966   7.715   6.243
 4745TIP3    H214179   5.011   7.608   6.146
 4746TIP3   OH214180   0.945   0.309   4.144
 4746TIP3    H114181   0.922   0.379   4.205
 4746TIP3    H214182   1.023   0.269   4.182
 4747TIP3   OH214183   2.350   3.921   3.638
 4747TIP3    H114184   2.431   3.972   3.639
 4747TIP3    H214185   2.319   3.922   3.729
 4748TIP3   OH214186   5.784   5.272   5.908
 4748TIP3    H114187   5.762   5.364   5.890
 4748TIP3    H214188   5.752   5.224   5.831
 4749TIP3   OH214189   4.801   3.849   6.590
 4749TIP3    H114190   4.742   3.878   6.521
 4749TIP3    H214191   4.888   3.879   6.563
 4750TIP3   OH214192   0.605   7.000   5.236
 4750TIP3    H114193   0.685   7.034   5.198
 4750TIP3    H214194   0.536   7.022   5.173
 4751TIP3   OH214195   4.554   2.839   5.352
 4751TIP3    H114196   4.479   2.780   5.345
 4751TIP3    H214197   4.629   2.781   5.367
 4752TIP3   OH214198   7.054   2.788   2.853
 4752TIP3    H114199   7.067   2.874   2.893
 4752TIP3    H214200   7.087   2.726   2.918
 4753TIP3   OH214201   5.278   2.514   2.201
 4753TIP3    H114202   5.357   2.568   2.204
 4753TIP3    H214203   5.301   2.436   2.252
 4754TIP3   OH214204   4.284   1.000   6.374
 4754TIP3    H114205   4.262   0.932   6.437
 4754TIP3    H214206   4.236   0.975   6.295
 4755TIP3   OH214207   5.332   3.753   3.341
 4755TIP3    H114208   5.414   3.752   3.391
 4755TIP3    H214209   5.360   3.756   3.250
 4756TIP3   OH214210   3.275   6.318   6.761
 4756TIP3    H114211   3.231   6.392   6.719
 4756TIP3    H214212   3.236   6.314   6.849
 4757TIP3   OH214213   5.320   7.102   4.750
 4757TIP3    H114214   5.301   7.011   4.774
 4757TIP3    H214215   5.294   7.153   4.826
 4758TIP3   OH214216   7.667   4.504   5.977
 4758TIP3    H114217   7.679   4.598   5.963
 4758TIP3    H214218   7.752   4.473   6.007
 4759TIP3   OH214219   1.447   6.612   6.066
 4759TIP3    H114220   1.359   6.614   6.028
 4759TIP3    H214221   1.441   6.665   6.145
 4760TIP3   OH214222   7.546   7.706   0.303
 4760TIP3    H114223   7.531   7.770   0.233
 4760TIP3    H214224   7.470   7.714   0.360
 4761TIP3   OH214225   8.197   0.042   0.841
 4761TIP3    H114226   8.259   0.018   0.911
 4761TIP3    H214227   8.119  -0.010   0.860
 4762TIP3   OH214228   8.186   2.506   1.993
 4762TIP3    H114229   8.211   2.599   1.988
 4762TIP3    H214230   8.268   2.459   1.974
 4763TIP3   OH214231   3.958   2.067   6.362
 4763TIP3    H114232   4.043   2.062   6.319
 4763TIP3    H214233   3.940   2.160   6.370
 4764TIP3   OH214234   4.415   5.488   5.521
 4764TIP3    H114235   4.443   5.474   5.611
 4764TIP3    H214236   4.374   5.574   5.521
 4765TIP3   OH214237   5.089   4.544   2.840
 4765TIP3    H114238   5.017   4.546   2.778
 4765TIP3    H214239   5.086   4.630   2.883
 4766TIP3   OH214240   4.804   5.421   3.639
 4766TIP3    H114241   4.748   5.346   3.660
 4766TIP3    H214242   4.840   5.399   3.553
 4767TIP3   OH214243   1.977   4.552   3.905
 4767TIP3    H114244   1.987   4.647   3.912
 4767TIP3    H214245   2.053   4.524   3.855
 4768TIP3   OH214246   3.256   2.218   5.535
 4768TIP3    H114247   3.233   2.297   5.487
 4768TIP3    H214248   3.224   2.234   5.624
 4769TIP3   OH214249   2.124   2.713   4.958
 4769TIP3    H114250   2.107   2.686   4.868
 4769TIP3    H214251   2.184   2.647   4.992
 4770TIP3   OH214252   2.263   3.396   4.681
 4770TIP3    H114253   2.337   3.373   4.623
 4770TIP3    H214254   2.270   3.490   4.694
 4771TIP3   OH214255   7.136   6.615   3.619
 4771TIP3    H114256   7.119   6.555   3.546
 4771TIP3    H214257   7.226   6.595   3.646
 4772TIP3   OH214258   4.953   2.885   4.261
 4772TIP3    H114259   5.001   2.826   4.203
 4772TIP3    H214260   4.870   2.901   4.215
 4773TIP3   OH214261   3.118   2.865   1.139
 4773TIP3    H114262   3.103   2.920   1.215
 4773TIP3    H214263   3.042   2.881   1.082
 4774TIP3   OH214264   6.754   1.401   4.226
 4774TIP3    H114265   6.675   1.453   4.245
 4774TIP3    H214266   6.817   1.465   4.193
 4775TIP3   OH214267   1.586   2.631   6.015
 4775TIP3    H114268   1.528   2.705   5.997
 4775TIP3    H214269   1.527   2.561   6.044
 4776TIP3   OH214270   2.051   5.050   2.121
 4776TIP3    H114271   2.074   5.107   2.047
 4776TIP3    H214272   2.132   5.005   2.143
 4777TIP3   OH214273   1.738   3.805   1.298
 4777TIP3    H114274   1.698   3.751   1.366
 4777TIP3    H214275   1.832   3.790   1.308
 4778TIP3   OH214276   6.833   0.194   2.471
 4778TIP3    H114277   6.900   0.181   2.538
 4778TIP3    H214278   6.815   0.288   2.472
 4779TIP3   OH214279   7.949   5.160   5.108
 4779TIP3    H114280   7.912   5.120   5.186
 4779TIP3    H214281   7.889   5.138   5.038
 4780TIP3   OH214282   2.995   4.798   2.381
 4780TIP3    H114283   2.947   4.855   2.440
 4780TIP3    H214284   3.071   4.770   2.432
 4781TIP3   OH214285   7.031   4.354   5.167
 4781TIP3    H114286   7.074   4.405   5.098
 4781TIP3    H214287   7.086   4.369   5.244
 4782TIP3   OH214288   7.217   1.757   0.183
 4782TIP3    H114289   7.236   1.678   0.233
 4782TIP3    H214290   7.303   1.795   0.164
 4783TIP3   OH214291   8.250   6.118   1.954
 4783TIP3    H114292   8.230   6.201   1.911
 4783TIP3    H214293   8.346   6.115   1.957
 4784TIP3   OH214294   4.077   5.491   1.325
 4784TIP3    H114295   4.085   5.572   1.375
 4784TIP3    H214296   4.166   5.455   1.322
 4785TIP3   OH214297   2.468   4.821   0.705
 4785TIP3    H114298   2.495   4.899   0.656
 4785TIP3    H214299   2.518   4.827   0.787
 4786TIP3   OH214300   0.164   6.989   2.517
 4786TIP3    H114301   0.211   6.908   2.537
 4786TIP3    H214302   0.226   7.042   2.468
 4787TIP3   OH214303   2.986   5.715   3.601
 4787TIP3    H114304   2.964   5.639   3.654
 4787TIP3    H214305   2.930   5.785   3.635
 4788TIP3   OH214306   2.381   2.561   2.264
 4788TIP3    H114307   2.475   2.577   2.258
 4788TIP3    H214308   2.373   2.482   2.318
 4789TIP3   OH214309   5.341   4.172   1.729
 4789TIP3    H114310   5.343   4.099   1.790
 4789TIP3    H214311   5.298   4.136   1.651
 4790TIP3   OH214312   0.011   4.203   4.866
 4790TIP3    H114313  -0.053   4.135   4.846
 4790TIP3    H214314   0.091   4.174   4.821
 4791TIP3   OH214315   1.596   0.104   2.790
 4791TIP3    H114316   1.571   0.046   2.862
 4791TIP3    H214317   1.582   0.051   2.711
 4792TIP3   OH214318   3.526   7.546   5.775
 4792TIP3    H114319   3.552   7.472   5.720
 4792TIP3    H214320   3.543   7.623   5.721
 4793TIP3   OH214321   6.615   2.134   2.634
 4793TIP3    H114322   6.586   2.071   2.568
 4793TIP3    H214323   6.655   2.204   2.584
 4794TIP3   OH214324   0.651   2.746   4.319
 4794TIP3    H114325   0.745   2.733   4.326
 4794TIP3    H214326   0.615   2.657   4.314
 4795TIP3   OH214327   1.443   1.900   0.320
 4795TIP3    H114328   1.484   1.979   0.355
 4795TIP3    H214329   1.349   1.917   0.325
 4796TIP3   OH214330   2.888   4.763   3.926
 4796TIP3    H114331   2.915   4.755   3.835
 4796TIP3    H214332   2.832   4.688   3.943
 4797TIP3   OH214333   6.593   4.529   4.498
 4797TIP3    H114334   6.558   4.448   4.460
 4797TIP3    H214335   6.613   4.506   4.589
 4798TIP3   OH214336   1.426   3.120   6.219
 4798TIP3    H114337   1.372   3.044   6.239
 4798TIP3    H214338   1.465   3.145   6.302
 4799TIP3   OH214339   7.404   6.180   1.407
 4799TIP3    H114340   7.491   6.166   1.444
 4799TIP3    H214341   7.368   6.254   1.457
 4800TIP3   OH214342   0.703   5.789   1.911
 4800TIP3    H114343   0.735   5.702   1.886
 4800TIP3    H214344   0.695   5.786   2.006
 4801TIP3   OH214345   5.116   7.029   0.762
 4801TIP3    H114346   5.198   7.003   0.804
 4801TIP3    H214347   5.108   6.970   0.687
 4802TIP3   OH214348   2.524   3.589   1.047
 4802TIP3    H114349   2.482   3.650   0.987
 4802TIP3    H214350   2.464   3.514   1.051
 4803TIP3   OH214351   2.894   2.745   6.590
 4803TIP3    H114352   2.812   2.723   6.546
 4803TIP3    H214353   2.916   2.666   6.640
 4804TIP3   OH214354   7.286   7.380   1.871
 4804TIP3    H114355   7.280   7.292   1.833
 4804TIP3    H214356   7.331   7.431   1.804
 4805TIP3   OH214357   4.294   2.204   2.636
 4805TIP3    H114358   4.231   2.146   2.678
 4805TIP3    H214359   4.269   2.291   2.664
 4806TIP3   OH214360   2.152   4.372   5.087
 4806TIP3    H114361   2.098   4.347   5.162
 4806TIP3    H214362   2.095   4.430   5.036
 4807TIP3   OH214363   4.286   5.239   4.374
 4807TIP3    H114364   4.313   5.313   4.430
 4807TIP3    H214365   4.228   5.187   4.430
 4808TIP3   OH214366   0.943   3.641   3.063
 4808TIP3    H114367   0.905   3.604   2.984
 4808TIP3    H214368   0.899   3.596   3.135
 4809TIP3   OH214369   5.104   7.710   6.492
 4809TIP3    H114370   5.113   7.712   6.396
 4809TIP3    H214371   5.194   7.718   6.524
 4810TIP3   OH214372   6.580   7.563   5.159
 4810TIP3    H114373   6.585   7.601   5.247
 4810TIP3    H214374   6.559   7.471   5.175
 4811TIP3   OH214375   6.215   4.109   5.277
 4811TIP3    H114376   6.310   4.111   5.265
 4811TIP3    H214377   6.204   4.083   5.368
 4812TIP3   OH214378   5.508   2.444   0.193
 4812TIP3    H114379   5.493   2.480   0.105
 4812TIP3    H214380   5.557   2.363   0.178
 4813TIP3   OH214381   4.268   7.255   3.183
 4813TIP3    H114382   4.190   7.310   3.181
 4813TIP3    H214383   4.312   7.279   3.265
 4814TIP3   OH214384   6.123   7.153   2.157
 4814TIP3    H114385   6.215   7.129   2.171
 4814TIP3    H214386   6.123   7.248   2.155
 4815TIP3   OH214387   0.389   0.859   5.450
 4815TIP3    H114388   0.390   0.792   5.382
 4815TIP3    H214389   0.376   0.810   5.531
 4816TIP3   OH214390   2.262   6.244   5.778
 4816TIP3    H114391   2.313   6.320   5.749
 4816TIP3    H214392   2.250   6.258   5.872
 4817TIP3   OH214393   7.031   3.526   5.853
 4817TIP3    H114394   6.954   3.495   5.900
 4817TIP3    H214395   7.104   3.477   5.891
 4818TIP3   OH214396   2.478   1.225   1.802
 4818TIP3    H114397   2.418   1.151   1.791
 4818TIP3    H214398   2.435   1.297   1.756
 4819TIP3   OH214399   0.221   2.170   0.914
 4819TIP3    H114400   0.137   2.141   0.879
 4819TIP3    H214401   0.287   2.123   0.862
 4820TIP3   OH214402   1.755   5.113   4.136
 4820TIP3    H114403   1.701   5.067   4.072
 4820TIP3    H214404   1.833   5.059   4.146
 4821TIP3   OH214405   1.820   4.282   0.833
 4821TIP3    H114406   1.824   4.377   0.844
 4821TIP3    H214407   1.911   4.254   0.833
 4822TIP3   OH214408   2.239   5.599   0.556
 4822TIP3    H114409   2.278   5.659   0.492
 4822TIP3    H214410   2.284   5.515   0.540
 4823TIP3   OH214411   1.202   5.132   5.562
 4823TIP3    H114412   1.141   5.061   5.545
 4823TIP3    H214413   1.172   5.171   5.644
 4824TIP3   OH214414   2.172   0.928   3.236
 4824TIP3    H114415   2.247   0.881   3.273
 4824TIP3    H214416   2.196   0.942   3.144
 4825TIP3   OH214417   6.398   1.833   2.771
 4825TIP3    H114418   6.476   1.884   2.794
 4825TIP3    H214419   6.355   1.817   2.855
 4826TIP3   OH214420   5.114   3.470   0.312
 4826TIP3    H114421   5.040   3.487   0.254
 4826TIP3    H214422   5.142   3.556   0.342
 4827TIP3   OH214423   1.436   0.299   0.963
 4827TIP3    H114424   1.376   0.346   0.905
 4827TIP3    H214425   1.419   0.335   1.050
 4828TIP3   OH214426   7.127   1.320   2.488
 4828TIP3    H114427   7.051   1.294   2.540
 4828TIP3    H214428   7.138   1.413   2.504
 4829TIP3   OH214429   6.266   3.386   6.015
 4829TIP3    H114430   6.342   3.439   6.039
 4829TIP3    H214431   6.199   3.449   5.990
 4830TIP3   OH214432   5.319   5.720   2.914
 4830TIP3    H114433   5.386   5.745   2.851
 4830TIP3    H214434   5.282   5.803   2.944
 4831TIP3   OH214435   6.149   5.987   3.572
 4831TIP3    H114436   6.147   6.066   3.625
 4831TIP3    H214437   6.060   5.954   3.573
 4832TIP3   OH214438   0.467   3.752   5.028
 4832TIP3    H114439   0.518   3.690   4.976
 4832TIP3    H214440   0.495   3.736   5.118
 4833TIP3   OH214441   0.585   2.094   1.875
 4833TIP3    H114442   0.602   2.000   1.883
 4833TIP3    H214443   0.618   2.118   1.788
 4834TIP3   OH214444   2.491   1.772   0.331
 4834TIP3    H114445   2.489   1.750   0.238
 4834TIP3    H214446   2.518   1.863   0.334
 4835TIP3   OH214447   4.950   0.529   6.756
 4835TIP3    H114448   5.041   0.538   6.726
 4835TIP3    H214449   4.909   0.613   6.733
 4836TIP3   OH214450   2.109   4.338   6.646
 4836TIP3    H114451   2.053   4.263   6.630
 4836TIP3    H214452   2.119   4.379   6.560
 4837TIP3   OH214453   7.191   6.359  -0.041
 4837TIP3    H114454   7.159   6.295   0.023
 4837TIP3    H214455   7.248   6.418   0.009
 4838TIP3   OH214456   5.045   7.848   1.706
 4838TIP3    H114457   4.986   7.900   1.652
 4838TIP3    H214458   5.015   7.758   1.696
 4839TIP3   OH214459   1.563   6.834   1.773
 4839TIP3    H114460   1.652   6.846   1.740
 4839TIP3    H214461   1.536   6.748   1.740
 4840TIP3   OH214462   0.201   4.388   0.904
 4840TIP3    H114463   0.191   4.343   0.820
 4840TIP3    H214464   0.135   4.349   0.960
 4841TIP3   OH214465   0.073   2.314   1.906
 4841TIP3    H114466   0.075   2.253   1.832
 4841TIP3    H214467   0.031   2.265   1.977
 4842TIP3   OH214468   8.269   0.663   2.579
 4842TIP3    H114469   8.192   0.646   2.525
 4842TIP3    H214470   8.283   0.757   2.569
 4843TIP3   OH214471   3.106   7.393   6.761
 4843TIP3    H114472   3.137   7.449   6.690
 4843TIP3    H214473   3.174   7.326   6.770
 4844TIP3   OH214474   0.166   0.891   3.958
 4844TIP3    H114475   0.219   0.820   3.995
 4844TIP3    H214476   0.090   0.847   3.920
 4845TIP3   OH214477   0.491   0.078   4.000
 4845TIP3    H114478   0.528   0.087   4.088
 4845TIP3    H214479   0.397   0.091   4.012
 4846TIP3   OH214480   3.673   1.705   5.588
 4846TIP3    H114481   3.761   1.722   5.620
 4846TIP3    H214482   3.674   1.731   5.496
 4847TIP3   OH214483   8.084   7.292   5.668
 4847TIP3    H114484   8.123   7.214   5.629
 4847TIP3    H214485   8.121   7.297   5.756
 4848TIP3   OH214486   1.895   5.090   3.156
 4848TIP3    H114487   1.848   5.070   3.237
 4848TIP3    H214488   1.827   5.118   3.095
 4849TIP3   OH214489   1.384   3.818   5.235
 4849TIP3    H114490   1.345   3.733   5.256
 4849TIP3    H214491   1.465   3.796   5.189
 4850TIP3   OH214492   8.282   3.855   5.731
 4850TIP3    H114493   8.288   3.875   5.638
 4850TIP3    H214494   8.249   3.765   5.734
 4851TIP3   OH214495   0.847   4.476   6.040
 4851TIP3    H114496   0.896   4.431   5.971
 4851TIP3    H214497   0.776   4.521   5.993
 4852TIP3   OH214498   8.029   0.117   6.218
 4852TIP3    H114499   8.122   0.134   6.236
 4852TIP3    H214500   8.031   0.055   6.145
 4853TIP3   OH214501   1.875   1.981   4.423
 4853TIP3    H114502   1.903   1.898   4.384
 4853TIP3    H214503   1.861   2.039   4.348
 4854TIP3   OH214504   2.527   3.264   2.016
 4854TIP3    H114505   2.432   3.263   2.007
 4854TIP3    H214506   2.557   3.188   1.965
 4855TIP3   OH214507   0.973   5.864   4.315
 4855TIP3    H114508   1.007   5.863   4.404
 4855TIP3    H214509   1.051   5.866   4.259
 4856TIP3   OH214510   6.570   6.011   2.096
 4856TIP3    H114511   6.482   5.990   2.125
 4856TIP3    H214512   6.618   6.031   2.176
 4857TIP3   OH214513   6.209   0.699   0.415
 4857TIP3    H114514   6.299   0.725   0.397
 4857TIP3    H214515   6.156   0.759   0.363
 4858TIP3   OH214516   3.575   4.392   1.748
 4858TIP3    H114517   3.585   4.398   1.653
 4858TIP3    H214518   3.655   4.431   1.783
 4859TIP3   OH214519   4.051   4.404   0.356
 4859TIP3    H114520   4.141   4.419   0.384
 4859TIP3    H214521   4.047   4.310   0.336
 4860TIP3   OH214522   3.884   1.005   3.216
 4860TIP3    H114523   3.937   1.073   3.174
 4860TIP3    H214524   3.932   0.983   3.296
 4861TIP3   OH214525   7.037   7.058   2.482
 4861TIP3    H114526   7.087   7.098   2.554
 4861TIP3    H214527   7.094   7.067   2.406
 4862TIP3   OH214528   5.889   3.875   0.934
 4862TIP3    H114529   5.945   3.846   0.862
 4862TIP3    H214530   5.914   3.819   1.007
 4863TIP3   OH214531   5.831   0.296   4.539
 4863TIP3    H114532   5.751   0.252   4.568
 4863TIP3    H214533   5.886   0.225   4.506
 4864TIP3   OH214534   7.608   0.786   1.889
 4864TIP3    H114535   7.521   0.750   1.907
 4864TIP3    H214536   7.666   0.711   1.889
 4865TIP3   OH214537   3.639   3.161   5.380
 4865TIP3    H114538   3.590   3.237   5.411
 4865TIP3    H214539   3.664   3.115   5.461
 4866TIP3   OH214540   4.933   1.851   0.191
 4866TIP3    H114541   4.865   1.793   0.157
 4866TIP3    H214542   4.985   1.796   0.249
 4867TIP3   OH214543   4.750   5.912   3.871
 4867TIP3    H114544   4.778   5.908   3.780
 4867TIP3    H214545   4.671   5.859   3.875
 4868TIP3   OH214546   6.803   1.082   3.358
 4868TIP3    H114547   6.769   1.040   3.278
 4868TIP3    H214548   6.809   1.175   3.335
 4869TIP3   OH214549   2.115   7.749   2.454
 4869TIP3    H114550   2.039   7.709   2.412
 4869TIP3    H214551   2.081   7.786   2.536
 4870TIP3   OH214552   6.907   2.936   6.139
 4870TIP3    H114553   6.991   2.981   6.141
 4870TIP3    H214554   6.867   2.957   6.224
 4871TIP3   OH214555   3.315   5.065   3.140
 4871TIP3    H114556   3.253   5.078   3.212
 4871TIP3    H214557   3.363   5.147   3.135
 4872TIP3   OH214558   5.038   4.108   5.669
 4872TIP3    H114559   5.024   4.144   5.582
 4872TIP3    H214560   5.062   4.184   5.722
 4873TIP3   OH214561   6.451   5.520   6.287
 4873TIP3    H114562   6.491   5.600   6.321
 4873TIP3    H214563   6.389   5.551   6.221
 4874TIP3   OH214564   6.544   3.091   3.367
 4874TIP3    H114565   6.634   3.098   3.401
 4874TIP3    H214566   6.537   3.161   3.303
 4875TIP3   OH214567   5.432   6.291   1.068
 4875TIP3    H114568   5.423   6.220   1.004
 4875TIP3    H214569   5.421   6.248   1.153
 4876TIP3   OH214570   7.941   1.271   0.433
 4876TIP3    H114571   7.861   1.294   0.480
 4876TIP3    H214572   7.959   1.180   0.459
 4877TIP3   OH214573   5.056   3.704   4.081
 4877TIP3    H114574   5.101   3.691   3.998
 4877TIP3    H214575   5.031   3.616   4.109
 4878TIP3   OH214576   8.202   2.875   2.520
 4878TIP3    H114577   8.206   2.780   2.531
 4878TIP3    H214578   8.294   2.902   2.515
 4879TIP3   OH214579   4.609   7.593   4.895
 4879TIP3    H114580   4.555   7.537   4.951
 4879TIP3    H214581   4.674   7.630   4.955
 4880TIP3   OH214582   2.482   2.660   2.798
 4880TIP3    H114583   2.482   2.715   2.876
 4880TIP3    H214584   2.476   2.571   2.831
 4881TIP3   OH214585   6.395   2.584   5.350
 4881TIP3    H114586   6.441   2.560   5.431
 4881TIP3    H214587   6.405   2.508   5.293
 4882TIP3   OH214588   1.508   3.337   3.180
 4882TIP3    H114589   1.437   3.401   3.182
 4882TIP3    H214590   1.494   3.287   3.099
 4883TIP3   OH214591   1.579   3.551   5.464
 4883TIP3    H114592   1.488   3.581   5.464
 4883TIP3    H214593   1.623   3.611   5.525
 4884TIP3   OH214594   0.816   7.339   6.258
 4884TIP3    H114595   0.806   7.322   6.352
 4884TIP3    H214596   0.909   7.323   6.241
 4885TIP3   OH214597  -0.004   1.277   1.475
 4885TIP3    H114598   0.008   1.185   1.498
 4885TIP3    H214599   0.024   1.324   1.553
 4886TIP3   OH214600   6.318   2.379   5.783
 4886TIP3    H114601   6.246   2.417   5.833
 4886TIP3    H214602   6.321   2.287   5.812
 4887TIP3   OH214603   7.929   0.457   5.883
 4887TIP3    H114604   7.890   0.375   5.854
 4887TIP3    H214605   8.022   0.437   5.891
 4888TIP3   OH214606   5.531   4.174   0.478
 4888TIP3    H114607   5.442   4.176   0.441
 4888TIP3    H214608   5.540   4.258   0.523
 4889TIP3   OH214609   6.383   2.575   6.507
 4889TIP3    H114610   6.452   2.526   6.552
 4889TIP3    H214611   6.417   2.664   6.499
 4890TIP3   OH214612   2.658   3.423   0.461
 4890TIP3    H114613   2.567   3.431   0.492
 4890TIP3    H214614   2.686   3.337   0.490
 4891TIP3   OH214615   8.277   4.114   5.216
 4891TIP3    H114616   8.339   4.170   5.170
 4891TIP3    H214617   8.331   4.061   5.275
 4892TIP3   OH214618   1.933   4.493   4.942
 4892TIP3    H114619   1.860   4.437   4.966
 4892TIP3    H214620   1.904   4.582   4.962
 4893TIP3   OH214621   6.496   3.460   0.621
 4893TIP3    H114622   6.471   3.524   0.554
 4893TIP3    H214623   6.589   3.443   0.604
 4894TIP3   OH214624   5.191   4.718   2.411
 4894TIP3    H114625   5.264   4.701   2.471
 4894TIP3    H214626   5.153   4.632   2.394
 4895TIP3   OH214627   2.362   1.414   0.237
 4895TIP3    H114628   2.377   1.501   0.273
 4895TIP3    H214629   2.268   1.411   0.219
 4896TIP3   OH214630   4.105   5.601   0.058
 4896TIP3    H114631   4.096   5.675  -0.002
 4896TIP3    H214632   4.191   5.565   0.038
 4897TIP3   OH214633   0.734   7.512   2.817
 4897TIP3    H114634   0.747   7.604   2.838
 4897TIP3    H214635   0.651   7.509   2.770
 4898TIP3   OH214636   1.420   3.425   5.111
 4898TIP3    H114637   1.469   3.386   5.039
 4898TIP3    H214638   1.366   3.353   5.145
 4899TIP3   OH214639   4.973   6.225   5.684
 4899TIP3    H114640   4.932   6.207   5.769
 4899TIP3    H214641   5.022   6.146   5.664
 4900TIP3   OH214642   3.030   2.132   2.490
 4900TIP3    H114643   2.977   2.061   2.528
 4900TIP3    H214644   2.976   2.210   2.501
 4901TIP3   OH214645   3.765   3.313   0.376
 4901TIP3    H114646   3.844   3.331   0.325
 4901TIP3    H214647   3.727   3.235   0.334
 4902TIP3   OH214648   1.459   3.630   4.168
 4902TIP3    H114649   1.416   3.590   4.244
 4902TIP3    H214650   1.553   3.619   4.185
 4903TIP3   OH214651   6.132   2.174   6.628
 4903TIP3    H114652   6.042   2.184   6.596
 4903TIP3    H214653   6.167   2.263   6.625
 4904TIP3   OH214654   3.941   2.734   6.705
 4904TIP3    H114655   3.988   2.815   6.725
 4904TIP3    H214656   3.888   2.717   6.783
 4905TIP3   OH214657   2.890   0.013   3.121
 4905TIP3    H114658   2.824   0.044   3.059
 4905TIP3    H214659   2.839  -0.032   3.189
 4906TIP3   OH214660   1.911   3.473   5.967
 4906TIP3    H114661   1.888   3.425   5.888
 4906TIP3    H214662   1.885   3.415   6.039
 4907TIP3   OH214663   8.293   4.823   5.308
 4907TIP3    H114664   8.263   4.909   5.280
 4907TIP3    H214665   8.263   4.815   5.399
 4908TIP3   OH214666   3.693   7.651   2.499
 4908TIP3    H114667   3.740   7.606   2.429
 4908TIP3    H214668   3.738   7.735   2.508
 4909TIP3   OH214669   3.965   5.268   0.663
 4909TIP3    H114670   4.003   5.223   0.587
 4909TIP3    H214671   3.983   5.361   0.648
 4910TIP3   OH214672   5.936   4.848   4.878
 4910TIP3    H114673   5.953   4.927   4.827
 4910TIP3    H214674   6.018   4.830   4.923
 4911TIP3   OH214675   2.040   3.015   3.830
 4911TIP3    H114676   1.991   3.048   3.905
 4911TIP3    H214677   2.057   2.923   3.850
 4912TIP3   OH214678   6.476   6.924   1.276
 4912TIP3    H114679   6.485   6.938   1.370
 4912TIP3    H214680   6.416   6.994   1.247
 4913TIP3   OH214681   1.724   4.918   0.599
 4913TIP3    H114682   1.660   4.970   0.549
 4913TIP3    H214683   1.692   4.828   0.591
 4914TIP3   OH214684   3.243   1.760   3.375
 4914TIP3    H114685   3.172   1.820   3.352
 4914TIP3    H214686   3.323   1.809   3.353
 4915TIP3   OH214687   1.417   1.268   4.710
 4915TIP3    H114688   1.426   1.354   4.668
 4915TIP3    H214689   1.415   1.288   4.804
 4916TIP3   OH214690   2.241   2.911   6.282
 4916TIP3    H114691   2.207   2.941   6.366
 4916TIP3    H214692   2.301   2.981   6.255
 4917TIP3   OH214693   2.293   3.899   4.813
 4917TIP3    H114694   2.197   3.904   4.813
 4917TIP3    H214695   2.314   3.845   4.737
 4918TIP3   OH214696   2.383   3.574   5.564
 4918TIP3    H114697   2.291   3.589   5.584
 4918TIP3    H214698   2.430   3.624   5.631
 4919TIP3   OH214699   6.030   0.820   5.974
 4919TIP3    H114700   6.101   0.778   6.023
 4919TIP3    H214701   6.064   0.828   5.885
 4920TIP3   OH214702   1.478   5.706   4.652
 4920TIP3    H114703   1.527   5.624   4.661
 4920TIP3    H214704   1.404   5.696   4.712
 4921TIP3   OH214705   0.036   2.768   1.224
 4921TIP3    H114706   0.034   2.699   1.158
 4921TIP3    H214707   0.074   2.725   1.301
 4922TIP3   OH214708   7.811   5.919   0.969
 4922TIP3    H114709   7.753   5.845   0.986
 4922TIP3    H214710   7.893   5.880   0.939
 4923TIP3   OH214711   6.386   1.754   2.083
 4923TIP3    H114712   6.473   1.718   2.069
 4923TIP3    H214713   6.351   1.767   1.995
 4924TIP3   OH214714   0.751   2.792   3.639
 4924TIP3    H114715   0.812   2.791   3.566
 4924TIP3    H214716   0.752   2.703   3.674
 4925TIP3   OH214717   0.812   0.525   6.586
 4925TIP3    H114718   0.805   0.530   6.491
 4925TIP3    H214719   0.881   0.462   6.602
 4926TIP3   OH214720   1.861   0.389   6.582
 4926TIP3    H114721   1.855   0.297   6.608
 4926TIP3    H214722   1.771   0.421   6.582
 4927TIP3   OH214723   4.189   6.628   2.878
 4927TIP3    H114724   4.197   6.699   2.815
 4927TIP3    H214725   4.269   6.577   2.867
 4928TIP3   OH214726   5.834   0.551   3.229
 4928TIP3    H114727   5.795   0.580   3.312
 4928TIP3    H214728   5.776   0.587   3.162
 4929TIP3   OH214729   5.716   1.644   0.097
 4929TIP3    H114730   5.677   1.728   0.121
 4929TIP3    H214731   5.810   1.656   0.111
 4930TIP3   OH214732   2.556   6.273   4.221
 4930TIP3    H114733   2.532   6.309   4.136
 4930TIP3    H214734   2.561   6.178   4.207
 4931TIP3   OH214735   5.781   4.121   5.937
 4931TIP3    H114736   5.863   4.073   5.947
 4931TIP3    H214737   5.753   4.139   6.027
 4932TIP3   OH214738   0.806   5.850   2.331
 4932TIP3    H114739   0.729   5.859   2.275
 4932TIP3    H214740   0.781   5.782   2.394
 4933TIP3   OH214741   5.978   1.265   1.879
 4933TIP3    H114742   6.054   1.210   1.858
 4933TIP3    H214743   6.016   1.348   1.906
 4934TIP3   OH214744   2.452   2.838   0.748
 4934TIP3    H114745   2.452   2.913   0.807
 4934TIP3    H214746   2.452   2.762   0.805
 4935TIP3   OH214747   8.234   2.462   3.873
 4935TIP3    H114748   8.183   2.468   3.954
 4935TIP3    H214749   8.169   2.437   3.807
 4936TIP3   OH214750   1.305   7.124   1.411
 4936TIP3    H114751   1.252   7.105   1.488
 4936TIP3    H214752   1.246   7.109   1.337
 4937TIP3   OH214753   4.054   1.774   0.404
 4937TIP3    H114754   3.977   1.830   0.411
 4937TIP3    H214755   4.118   1.828   0.357
 4938TIP3   OH214756   5.447   2.510   1.544
 4938TIP3    H114757   5.390   2.434   1.551
 4938TIP3    H214758   5.392   2.579   1.508
 4939TIP3   OH214759   1.499   2.791   0.643
 4939TIP3    H114760   1.437   2.741   0.696
 4939TIP3    H214761   1.455   2.804   0.560
 4940TIP3   OH214762   2.909   5.624   4.807
 4940TIP3    H114763   2.948   5.710   4.822
 4940TIP3    H214764   2.862   5.633   4.724
 4941TIP3   OH214765   7.880   1.945   3.507
 4941TIP3    H114766   7.939   2.018   3.527
 4941TIP3    H214767   7.889   1.886   3.581
 4942TIP3   OH214768   5.074   3.073   5.716
 4942TIP3    H114769   5.121   3.153   5.692
 4942TIP3    H214770   5.143   3.010   5.736
 4943TIP3   OH214771   2.220   5.658   4.352
 4943TIP3    H114772   2.263   5.707   4.422
 4943TIP3    H214773   2.266   5.684   4.273
 4944TIP3   OH214774   5.022   4.547   5.210
 4944TIP3    H114775   5.101   4.586   5.246
 4944TIP3    H214776   5.005   4.597   5.130
 4945TIP3   OH214777   4.499   1.882   0.070
 4945TIP3    H114778   4.567   1.950   0.065
 4945TIP3    H214779   4.502   1.840  -0.016
 4946TIP3   OH214780   4.802   6.071   5.881
 4946TIP3    H114781   4.768   6.002   5.825
 4946TIP3    H214782   4.742   6.144   5.868
 4947TIP3   OH214783   2.396   4.017   5.964
 4947TIP3    H114784   2.348   4.100   5.963
 4947TIP3    H214785   2.327   3.950   5.964
 4948TIP3   OH214786   6.585   1.935   4.954
 4948TIP3    H114787   6.654   1.929   4.888
 4948TIP3    H214788   6.558   2.027   4.952
 4949TIP3   OH214789   6.111   4.179   4.986
 4949TIP3    H114790   6.190   4.220   4.951
 4949TIP3    H214791   6.131   4.160   5.077
 4950TIP3   OH214792   4.176   7.402   1.071
 4950TIP3    H114793   4.223   7.401   0.988
 4950TIP3    H214794   4.243   7.378   1.136
 4951TIP3   OH214795   6.808   4.217   6.231
 4951TIP3    H114796   6.793   4.303   6.191
 4951TIP3    H214797   6.745   4.213   6.302
 4952TIP3   OH214798   3.789   3.478   4.161
 4952TIP3    H114799   3.716   3.537   4.139
 4952TIP3    H214800   3.863   3.513   4.111
 4953TIP3   OH214801   3.572   2.599   6.643
 4953TIP3    H114802   3.560   2.553   6.560
 4953TIP3    H214803   3.605   2.685   6.617
 4954TIP3   OH214804   2.635   7.778   2.810
 4954TIP3    H114805   2.600   7.863   2.784
 4954TIP3    H214806   2.561   7.718   2.804
 4955TIP3   OH214807   3.577   3.502   4.340
 4955TIP3    H114808   3.482   3.509   4.349
 4955TIP3    H214809   3.605   3.588   4.309
 4956TIP3   OH214810   0.374   5.164   2.164
 4956TIP3    H114811   0.391   5.198   2.077
 4956TIP3    H214812   0.459   5.130   2.194
 4957TIP3   OH214813   0.206   3.113   4.317
 4957TIP3    H114814   0.197   3.118   4.412
 4957TIP3    H214815   0.127   3.153   4.282
 4958TIP3   OH214816   2.092   7.591   4.994
 4958TIP3    H114817   2.178   7.608   4.956
 4958TIP3    H214818   2.035   7.572   4.919
 4959TIP3   OH214819   0.975   5.181   6.106
 4959TIP3    H114820   0.912   5.110   6.121
 4959TIP3    H214821   1.021   5.190   6.189
 4960TIP3   OH214822   0.205   1.345   5.742
 4960TIP3    H114823   0.183   1.359   5.650
 4960TIP3    H214824   0.165   1.261   5.765
 4961TIP3   OH214825   3.261   4.381   1.383
 4961TIP3    H114826   3.207   4.449   1.424
 4961TIP3    H214827   3.201   4.335   1.324
 4962TIP3   OH214828   7.476   0.170   4.502
 4962TIP3    H114829   7.519   0.098   4.547
 4962TIP3    H214830   7.383   0.152   4.510
 4963TIP3   OH214831   6.170   5.661   5.298
 4963TIP3    H114832   6.265   5.650   5.300
 4963TIP3    H214833   6.136   5.576   5.326
 4964TIP3   OH214834   4.034   5.482   4.179
 4964TIP3    H114835   4.094   5.546   4.141
 4964TIP3    H214836   3.987   5.530   4.247
 4965TIP3   OH214837   5.557   4.661   4.161
 4965TIP3    H114838   5.585   4.605   4.088
 4965TIP3    H214839   5.538   4.746   4.120
 4966TIP3   OH214840   7.632   2.719   3.801
 4966TIP3    H114841   7.678   2.697   3.882
 4966TIP3    H214842   7.603   2.634   3.766
 4967TIP3   OH214843   3.092   3.966   2.036
 4967TIP3    H114844   3.063   4.007   2.118
 4967TIP3    H214845   3.180   4.001   2.022
 4968TIP3   OH214846   1.288   3.687   2.884
 4968TIP3    H114847   1.363   3.746   2.889
 4968TIP3    H214848   1.215   3.744   2.859
 4969TIP3   OH214849   8.268   3.184   4.196
 4969TIP3    H114850   8.251   3.185   4.102
 4969TIP3    H214851   8.217   3.256   4.231
 4970TIP3   OH214852   7.076   3.123   3.235
 4970TIP3    H114853   7.067   3.215   3.211
 4970TIP3    H214854   7.160   3.119   3.282
 4971TIP3   OH214855   1.570   6.773   5.006
 4971TIP3    H114856   1.477   6.772   5.028
 4971TIP3    H214857   1.575   6.737   4.918
 4972TIP3   OH214858   0.817   0.364   1.473
 4972TIP3    H114859   0.828   0.453   1.508
 4972TIP3    H214860   0.900   0.321   1.490
 4973TIP3   OH214861   5.025   5.583   2.529
 4973TIP3    H114862   4.962   5.620   2.590
 4973TIP3    H214863   5.019   5.489   2.541
 4974TIP3   OH214864   3.374   3.944   2.855
 4974TIP3    H114865   3.349   3.858   2.821
 4974TIP3    H214866   3.293   3.995   2.851
 4975TIP3   OH214867   2.936   7.800   0.816
 4975TIP3    H114868   2.842   7.820   0.822
 4975TIP3    H214869   2.956   7.753   0.897
 4976TIP3   OH214870   5.000   3.905   0.402
 4976TIP3    H114871   4.958   3.989   0.383
 4976TIP3    H214872   4.949   3.841   0.354
 4977TIP3   OH214873   0.695   3.122   5.527
 4977TIP3    H114874   0.771   3.172   5.496
 4977TIP3    H214875   0.732   3.042   5.563
 4978TIP3   OH214876   3.919   2.973   1.600
 4978TIP3    H114877   3.977   3.018   1.539
 4978TIP3    H214878   3.831   2.995   1.571
 4979TIP3   OH214879   3.177   2.509   5.996
 4979TIP3    H114880   3.263   2.493   6.035
 4979TIP3    H214881   3.196   2.547   5.910
 4980TIP3   OH214882   0.851   1.983   5.328
 4980TIP3    H114883   0.763   1.960   5.361
 4980TIP3    H214884   0.843   1.980   5.233
 4981TIP3   OH214885   7.049   0.996   3.487
 4981TIP3    H114886   6.966   1.012   3.441
 4981TIP3    H214887   7.064   0.902   3.475
 4982TIP3   OH214888   7.447   4.112   2.441
 4982TIP3    H114889   7.360   4.121   2.480
 4982TIP3    H214890   7.507   4.140   2.510
 4983TIP3   OH214891   4.686   6.301   1.329
 4983TIP3    H114892   4.711   6.391   1.352
 4983TIP3    H214893   4.763   6.248   1.347
 4984TIP3   OH214894   1.747   6.832   5.633
 4984TIP3    H114895   1.809   6.772   5.674
 4984TIP3    H214896   1.800   6.908   5.608
 4985TIP3   OH214897   8.211   5.800   5.975
 4985TIP3    H114898   8.207   5.794   5.880
 4985TIP3    H214899   8.302   5.784   5.997
 4986TIP3   OH214900   4.458   2.665   0.964
 4986TIP3    H114901   4.377   2.622   0.992
 4986TIP3    H214902   4.511   2.670   1.044
 4987TIP3   OH214903   3.224   3.352   0.032
 4987TIP3    H114904   3.224   3.276   0.090
 4987TIP3    H214905   3.287   3.330  -0.036
 4988TIP3   OH214906   2.926   3.338   1.324
 4988TIP3    H114907   2.940   3.302   1.412
 4988TIP3    H214908   2.989   3.410   1.317
 4989TIP3   OH214909   2.786   7.413   6.619
 4989TIP3    H114910   2.837   7.434   6.541
 4989TIP3    H214911   2.809   7.322   6.638
 4990TIP3   OH214912   5.487   0.040   5.557
 4990TIP3    H114913   5.501  -0.049   5.590
 4990TIP3    H214914   5.571   0.065   5.520
 4991TIP3   OH214915   4.045   3.089   4.051
 4991TIP3    H114916   3.981   3.020   4.038
 4991TIP3    H214917   4.042   3.141   3.971
 4992TIP3   OH214918   4.599   4.473   4.994
 4992TIP3    H114919   4.595   4.534   5.068
 4992TIP3    H214920   4.672   4.505   4.941
 4993TIP3   OH214921   6.958   3.111   5.539
 4993TIP3    H114922   7.001   3.056   5.474
 4993TIP3    H214923   6.978   3.069   5.623
 4994TIP3   OH214924   2.414   5.047   5.824
 4994TIP3    H114925   2.390   5.021   5.736
 4994TIP3    H214926   2.500   5.007   5.839
 4995TIP3   OH214927   4.153   5.925   5.234
 4995TIP3    H114928   4.094   5.963   5.168
 4995TIP3    H214929   4.241   5.949   5.204
 4996TIP3   OH214930   3.073   0.274   1.735
 4996TIP3    H114931   3.023   0.197   1.708
 4996TIP3    H214932   3.034   0.347   1.686
 4997TIP3   OH214933   3.595   2.203   6.740
 4997TIP3    H114934   3.598   2.147   6.663
 4997TIP3    H214935   3.672   2.260   6.731
 4998TIP3   OH214936   0.723   4.709   3.923
 4998TIP3    H114937   0.689   4.749   4.003
 4998TIP3    H214938   0.644   4.684   3.874
 4999TIP3   OH214939   1.663   5.850   5.581
 4999TIP3    H114940   1.752   5.815   5.579
 4999TIP3    H214941   1.617   5.795   5.645
 5000TIP3   OH214942   2.964   2.984   1.337
 5000TIP3    H114943   2.931   2.915   1.395
 5000TIP3    H214944   2.903   3.056   1.349
 5001TIP3   OH214945   4.752   0.661   5.739
 5001TIP3    H114946   4.827   0.631   5.790
 5001TIP3    H214947   4.727   0.744   5.779
 5002TIP3   OH214948   0.045   1.224   4.149
 5002TIP3    H114949   0.075   1.223   4.058
 5002TIP3    H214950   0.124   1.243   4.200
 5003TIP3   OH214951   2.448   1.890   0.059
 5003TIP3    H114952   2.440   1.982   0.032
 5003TIP3    H214953   2.364   1.850   0.033
 5004TIP3   OH214954   1.803   2.502   6.716
 5004TIP3    H114955   1.750   2.556   6.775
 5004TIP3    H214956   1.889   2.543   6.717
 5005TIP3   OH214957   5.539   0.903   1.866
 5005TIP3    H114958   5.504   0.817   1.843
 5005TIP3    H214959   5.604   0.885   1.934
 5006TIP3   OH214960   2.449   1.523   2.657
 5006TIP3    H114961   2.410   1.463   2.721
 5006TIP3    H214962   2.417   1.609   2.682
 5007TIP3   OH214963   3.788   0.119   1.341
 5007TIP3    H114964   3.872   0.165   1.334
 5007TIP3    H214965   3.793   0.071   1.423
 5008TIP3   OH214966   2.287   6.041   5.601
 5008TIP3    H114967   2.238   6.039   5.519
 5008TIP3    H214968   2.267   6.127   5.638
 5009TIP3   OH214969   0.786   0.448   5.532
 5009TIP3    H114970   0.759   0.480   5.445
 5009TIP3    H214971   0.762   0.355   5.531
 5010TIP3   OH214972   7.172   2.866   6.405
 5010TIP3    H114973   7.127   2.787   6.377
 5010TIP3    H214974   7.226   2.892   6.330
 5011TIP3   OH214975   8.089   3.520   2.997
 5011TIP3    H114976   8.114   3.603   2.956
 5011TIP3    H214977   7.997   3.509   2.975
 5012TIP3   OH214978   7.341   1.035   1.088
 5012TIP3    H114979   7.288   1.113   1.102
 5012TIP3    H214980   7.423   1.067   1.052
 5013TIP3   OH214981   3.336   3.033   3.011
 5013TIP3    H114982   3.283   3.112   3.010
 5013TIP3    H214983   3.408   3.051   2.951
 5014TIP3   OH214984   2.001   7.627   0.429
 5014TIP3    H114985   2.025   7.715   0.401
 5014TIP3    H214986   1.943   7.595   0.360
 5015TIP3   OH214987   1.330   1.340   6.263
 5015TIP3    H114988   1.366   1.256   6.293
 5015TIP3    H214989   1.309   1.388   6.343
 5016TIP3   OH214990   4.161   0.653   3.987
 5016TIP3    H114991   4.227   0.689   4.047
 5016TIP3    H214992   4.087   0.630   4.044
 5017TIP3   OH214993   6.519   5.261   3.818
 5017TIP3    H114994   6.451   5.268   3.751
 5017TIP3    H214995   6.512   5.171   3.851
 5018TIP3   OH214996   2.192   3.047   6.509
 5018TIP3    H114997   2.097   3.049   6.494
 5018TIP3    H214998   2.208   3.120   6.569
 5019TIP3   OH214999   2.436   4.459   4.807
 5019TIP3    H115000   2.433   4.510   4.888
 5019TIP3    H215001   2.350   4.417   4.803
 5020TIP3   OH215002   1.947   3.858   5.057
 5020TIP3    H115003   1.931   3.812   4.975
 5020TIP3    H215004   1.937   3.792   5.125
 5021TIP3   OH215005   1.483   2.298   4.361
 5021TIP3    H115006   1.546   2.313   4.290
 5021TIP3    H215007   1.397   2.301   4.318
 5022TIP3   OH215008   7.823   5.807   5.416
 5022TIP3    H115009   7.893   5.872   5.414
 5022TIP3    H215010   7.837   5.754   5.338
 5023TIP3   OH215011   1.890   6.245   1.616
 5023TIP3    H115012   1.911   6.165   1.665
 5023TIP3    H215013   1.919   6.316   1.673
 5024TIP3   OH215014   5.915   0.990   5.754
 5024TIP3    H115015   6.007   0.978   5.777
 5024TIP3    H215016   5.891   0.908   5.711
 5025TIP3   OH215017   5.602   5.568   0.200
 5025TIP3    H115018   5.614   5.556   0.106
 5025TIP3    H215019   5.686   5.605   0.230
 5026TIP3   OH215020   2.641   6.583   1.534
 5026TIP3    H115021   2.641   6.488   1.521
 5026TIP3    H215022   2.555   6.602   1.570
 5027TIP3   OH215023   2.422   1.588   0.048
 5027TIP3    H115024   2.337   1.610   0.011
 5027TIP3    H215025   2.408   1.507   0.096
 5028TIP3   OH215026   1.350   4.014   2.174
 5028TIP3    H115027   1.366   3.939   2.116
 5028TIP3    H215028   1.437   4.044   2.200
 5029TIP3   OH215029   2.724   7.631   4.308
 5029TIP3    H115030   2.637   7.602   4.337
 5029TIP3    H215031   2.785   7.579   4.361
 5030TIP3   OH215032   4.554   4.626   0.568
 5030TIP3    H115033   4.466   4.591   0.582
 5030TIP3    H215034   4.544   4.721   0.579
 5031TIP3   OH215035   6.910   3.481   0.897
 5031TIP3    H115036   6.929   3.389   0.914
 5031TIP3    H215037   6.911   3.522   0.984
 5032TIP3   OH215038   2.426   5.570   2.713
 5032TIP3    H115039   2.399   5.497   2.768
 5032TIP3    H215040   2.434   5.533   2.625
 5033TIP3   OH215041   1.122   3.009   5.825
 5033TIP3    H115042   1.150   2.927   5.786
 5033TIP3    H215043   1.201   3.064   5.824
 5034TIP3   OH215044   2.130   1.502   3.400
 5034TIP3    H115045   2.202   1.552   3.436
 5034TIP3    H215046   2.088   1.462   3.476
 5035TIP3   OH215047  -0.005   7.022   6.536
 5035TIP3    H115048   0.028   7.064   6.615
 5035TIP3    H215049  -0.043   6.940   6.566
 5036TIP3   OH215050   8.054   6.442   6.405
 5036TIP3    H115051   7.985   6.417   6.344
 5036TIP3    H215052   8.133   6.448   6.351
 5037TIP3   OH215053   4.465   5.227   0.836
 5037TIP3    H115054   4.417   5.297   0.880
 5037TIP3    H215055   4.397   5.174   0.794
 5038TIP3   OH215056   7.643   0.122   0.422
 5038TIP3    H115057   7.738   0.127   0.430
 5038TIP3    H215058   7.619   0.045   0.475
 5039TIP3   OH215059   3.840   4.910   4.311
 5039TIP3    H115060   3.786   4.989   4.320
 5039TIP3    H215061   3.801   4.847   4.371
 5040TIP3   OH215062   4.364   3.332   6.436
 5040TIP3    H115063   4.328   3.417   6.463
 5040TIP3    H215064   4.329   3.270   6.500
 5041TIP3   OH215065   5.910   2.423   1.706
 5041TIP3    H115066   5.816   2.443   1.712
 5041TIP3    H215067   5.921   2.385   1.619
 5042TIP3   OH215068   3.401   3.531   3.874
 5042TIP3    H115069   3.494   3.515   3.858
 5042TIP3    H215070   3.356   3.468   3.818
 5043TIP3   OH215071   5.230   6.781   3.323
 5043TIP3    H115072   5.311   6.775   3.273
 5043TIP3    H215073   5.191   6.694   3.316
 5044TIP3   OH215074   7.903   1.475   4.250
 5044TIP3    H115075   7.827   1.459   4.195
 5044TIP3    H215076   7.881   1.436   4.334
 5045TIP3   OH215077   2.838   3.955   5.142
 5045TIP3    H115078   2.847   4.039   5.188
 5045TIP3    H215079   2.925   3.938   5.106
 5046TIP3   OH215080   7.961   2.667   2.527
 5046TIP3    H115081   7.910   2.653   2.447
 5046TIP3    H215082   7.903   2.642   2.598
 5047TIP3   OH215083   4.233   2.112   4.962
 5047TIP3    H115084   4.169   2.163   4.911
 5047TIP3    H215085   4.193   2.025   4.969
 5048TIP3   OH215086   7.390   2.216   3.642
 5048TIP3    H115087   7.429   2.299   3.613
 5048TIP3    H215088   7.321   2.243   3.703
 5049TIP3   OH215089   8.219   7.367   3.263
 5049TIP3    H115090   8.239   7.388   3.171
 5049TIP3    H215091   8.124   7.376   3.269
 5050TIP3   OH215092   7.344   5.839   4.798
 5050TIP3    H115093   7.287   5.794   4.737
 5050TIP3    H215094   7.420   5.865   4.746
 5051TIP3   OH215095   1.377   7.295   2.465
 5051TIP3    H115096   1.304   7.239   2.490
 5051TIP3    H215097   1.342   7.384   2.470
 5052TIP3   OH215098   0.148   1.197   2.982
 5052TIP3    H115099   0.077   1.187   3.046
 5052TIP3    H215100   0.225   1.160   3.026
 5053TIP3   OH215101   0.839   5.530   0.208
 5053TIP3    H115102   0.806   5.576   0.131
 5053TIP3    H215103   0.761   5.506   0.258
 5054TIP3   OH215104   0.144   6.726   6.195
 5054TIP3    H115105   0.173   6.735   6.286
 5054TIP3    H215106   0.056   6.762   6.195
 5055TIP3   OH215107   7.201   2.442   3.300
 5055TIP3    H115108   7.160   2.367   3.343
 5055TIP3    H215109   7.266   2.403   3.242
 5056TIP3   OH215110   1.426   5.874   0.639
 5056TIP3    H115111   1.377   5.942   0.685
 5056TIP3    H215112   1.477   5.922   0.573
 5057TIP3   OH215113   3.614   7.009   5.716
 5057TIP3    H115114   3.553   7.055   5.659
 5057TIP3    H215115   3.559   6.956   5.772
 5058TIP3   OH215116   7.354   2.361   6.456
 5058TIP3    H115117   7.265   2.394   6.453
 5058TIP3    H215118   7.409   2.439   6.448
 5059TIP3   OH215119   1.501   0.147   3.119
 5059TIP3    H115120   1.520   0.067   3.070
 5059TIP3    H215121   1.543   0.134   3.204
 5060TIP3   OH215122   5.731   3.596   2.714
 5060TIP3    H115123   5.639   3.615   2.697
 5060TIP3    H215124   5.733   3.502   2.730
 5061TIP3   OH215125   5.083   0.202   6.396
 5061TIP3    H115126   4.997   0.164   6.416
 5061TIP3    H215127   5.103   0.171   6.308
 5062TIP3   OH215128   4.985   6.650   4.369
 5062TIP3    H115129   5.072   6.663   4.330
 5062TIP3    H215130   4.965   6.733   4.412
 5063TIP3   OH215131   7.900   2.178   5.012
 5063TIP3    H115132   7.877   2.270   4.997
 5063TIP3    H215133   7.827   2.145   5.065
 5064TIP3   OH215134   0.875   1.518   3.739
 5064TIP3    H115135   0.884   1.538   3.832
 5064TIP3    H215136   0.811   1.580   3.706
 5065TIP3   OH215137   5.952   0.063   1.233
 5065TIP3    H115138   5.973   0.013   1.312
 5065TIP3    H215139   5.858   0.050   1.221
 5066TIP3   OH215140   0.318   5.542   4.481
 5066TIP3    H115141   0.406   5.545   4.445
 5066TIP3    H215142   0.295   5.633   4.497
 5067TIP3   OH215143   3.248   0.749   5.490
 5067TIP3    H115144   3.163   0.721   5.456
 5067TIP3    H215145   3.310   0.728   5.420
 5068TIP3   OH215146   6.281   6.804   4.961
 5068TIP3    H115147   6.218   6.740   4.928
 5068TIP3    H215148   6.241   6.889   4.942
 5069TIP3   OH215149   7.313   5.208   1.692
 5069TIP3    H115150   7.366   5.203   1.772
 5069TIP3    H215151   7.228   5.240   1.722
 5070TIP3   OH215152   5.163   2.539   3.096
 5070TIP3    H115153   5.230   2.578   3.152
 5070TIP3    H215154   5.178   2.445   3.103
 5071TIP3   OH215155   6.393   6.092   1.012
 5071TIP3    H115156   6.422   6.042   1.089
 5071TIP3    H215157   6.339   6.029   0.963
 5072TIP3   OH215158   6.425   0.674   3.961
 5072TIP3    H115159   6.411   0.754   4.012
 5072TIP3    H215160   6.352   0.672   3.898
 5073TIP3   OH215161   6.575   4.495   5.751
 5073TIP3    H115162   6.567   4.529   5.662
 5073TIP3    H215163   6.649   4.433   5.747
 5074TIP3   OH215164   2.729   1.157   5.048
 5074TIP3    H115165   2.636   1.178   5.040
 5074TIP3    H215166   2.768   1.237   5.083
 5075TIP3   OH215167   4.489   4.605   1.781
 5075TIP3    H115168   4.521   4.541   1.718
 5075TIP3    H215169   4.524   4.689   1.750
 5076TIP3   OH215170   3.499   6.421   2.386
 5076TIP3    H115171   3.543   6.382   2.462
 5076TIP3    H215172   3.408   6.429   2.412
 5077TIP3   OH215173   8.152   5.822   0.340
 5077TIP3    H115174   8.222   5.858   0.286
 5077TIP3    H215175   8.188   5.742   0.377
 5078TIP3   OH215176   3.932   0.717   0.255
 5078TIP3    H115177   3.938   0.797   0.308
 5078TIP3    H215178   3.929   0.646   0.318
 5079TIP3   OH215179   6.012   5.270   3.984
 5079TIP3    H115180   6.033   5.252   3.892
 5079TIP3    H215181   5.917   5.259   3.989
 5080TIP3   OH215182   6.024   7.513   4.165
 5080TIP3    H115183   5.977   7.471   4.237
 5080TIP3    H215184   5.955   7.542   4.105
 5081TIP3   OH215185   7.936   5.696   1.268
 5081TIP3    H115186   8.015   5.733   1.229
 5081TIP3    H215187   7.911   5.624   1.209
 5082TIP3   OH215188   2.251   2.014   4.900
 5082TIP3    H115189   2.305   2.024   4.978
 5082TIP3    H215190   2.312   2.030   4.827
 5083TIP3   OH215191   8.099   3.525   3.287
 5083TIP3    H115192   8.132   3.595   3.343
 5083TIP3    H215193   8.089   3.566   3.201
 5084TIP3   OH215194   2.024   0.413   0.530
 5084TIP3    H115195   1.998   0.321   0.535
 5084TIP3    H215196   2.034   0.430   0.436
 5085TIP3   OH215197   7.086   3.271   0.973
 5085TIP3    H115198   7.137   3.333   0.921
 5085TIP3    H215199   7.151   3.214   1.013
 5086TIP3   OH215200   5.203   3.060   0.915
 5086TIP3    H115201   5.147   3.108   0.975
 5086TIP3    H215202   5.232   3.125   0.851
 5087TIP3   OH215203   3.852   2.504   1.836
 5087TIP3    H115204   3.825   2.494   1.744
 5087TIP3    H215205   3.891   2.419   1.859
 5088TIP3   OH215206   5.265   0.372   1.772
 5088TIP3    H115207   5.170   0.381   1.786
 5088TIP3    H215208   5.292   0.305   1.835
 5089TIP3   OH215209   5.471   4.957   5.406
 5089TIP3    H115210   5.490   5.001   5.323
 5089TIP3    H215211   5.469   4.864   5.384
 5090TIP3   OH215212   7.812   5.019   6.260
 5090TIP3    H115213   7.808   4.940   6.206
 5090TIP3    H215214   7.848   5.086   6.203
 5091TIP3   OH215215   2.253   7.018   0.427
 5091TIP3    H115216   2.254   6.970   0.344
 5091TIP3    H215217   2.342   7.051   0.437
 5092TIP3   OH215218   1.581   3.311   4.915
 5092TIP3    H115219   1.617   3.359   4.841
 5092TIP3    H215220   1.643   3.239   4.930
 5093TIP3   OH215221   2.790   6.775   2.459
 5093TIP3    H115222   2.742   6.766   2.377
 5093TIP3    H215223   2.867   6.719   2.447
 5094TIP3   OH215224   4.839   1.257   6.471
 5094TIP3    H115225   4.769   1.222   6.526
 5094TIP3    H215226   4.855   1.344   6.506
 5095TIP3   OH215227   1.441   2.954   3.026
 5095TIP3    H115228   1.472   3.040   2.996
 5095TIP3    H215229   1.512   2.894   3.003
 5096TIP3   OH215230   2.514   4.443   5.320
 5096TIP3    H115231   2.434   4.431   5.370
 5096TIP3    H215232   2.569   4.499   5.375
 5097TIP3   OH215233   2.115   4.202   2.972
 5097TIP3    H115234   2.204   4.190   3.006
 5097TIP3    H215235   2.094   4.119   2.929
 5098TIP3   OH215236   5.934   3.408   0.382
 5098TIP3    H115237   6.015   3.435   0.424
 5098TIP3    H215238   5.918   3.476   0.316
 5099TIP3   OH215239   1.348   0.588   1.010
 5099TIP3    H115240   1.323   0.650   0.941
 5099TIP3    H215241   1.386   0.643   1.078
 5100TIP3   OH215242   3.160   1.157   4.282
 5100TIP3    H115243   3.108   1.199   4.350
 5100TIP3    H215244   3.095   1.124   4.220
 5101TIP3   OH215245   3.817   2.032   3.288
 5101TIP3    H115246   3.819   2.115   3.336
 5101TIP3    H215247   3.840   1.966   3.354
 5102TIP3   OH215248   4.920   2.056   0.738
 5102TIP3    H115249   4.882   2.139   0.708
 5102TIP3    H215250   4.966   2.022   0.661
 5103TIP3   OH215251   6.115   1.977   5.342
 5103TIP3    H115252   6.065   1.932   5.274
 5103TIP3    H215253   6.155   1.906   5.392
 5104TIP3   OH215254   3.081   3.325   3.257
 5104TIP3    H115255   3.035   3.388   3.202
 5104TIP3    H215256   3.125   3.378   3.324
 5105TIP3   OH215257   6.730   0.418   6.723
 5105TIP3    H115258   6.666   0.476   6.764
 5105TIP3    H215259   6.812   0.469   6.724
 5106TIP3   OH215260   6.597   3.607   1.044
 5106TIP3    H115261   6.586   3.522   1.088
 5106TIP3    H215262   6.681   3.640   1.076
 5107TIP3   OH215263   6.044   2.620   0.405
 5107TIP3    H115264   6.119   2.593   0.459
 5107TIP3    H215265   5.987   2.668   0.465
 5108TIP3   OH215266   1.699   0.172   4.873
 5108TIP3    H115267   1.717   0.220   4.793
 5108TIP3    H215268   1.670   0.239   4.935
 5109TIP3   OH215269   4.793   2.860   0.836
 5109TIP3    H115270   4.829   2.949   0.836
 5109TIP3    H215271   4.870   2.803   0.836
 5110TIP3   OH215272   1.652   3.984   4.198
 5110TIP3    H115273   1.575   4.010   4.147
 5110TIP3    H215274   1.644   4.035   4.279
 5111TIP3   OH215275   1.176   6.756   1.445
 5111TIP3    H115276   1.264   6.793   1.456
 5111TIP3    H215277   1.139   6.805   1.372
 5112TIP3   OH215278   1.167   5.121   3.350
 5112TIP3    H115279   1.248   5.173   3.356
 5112TIP3    H215280   1.163   5.074   3.433
 5113TIP3   OH215281   0.213   0.916   6.577
 5113TIP3    H115282   0.186   0.833   6.616
 5113TIP3    H215283   0.282   0.892   6.515
 5114TIP3   OH215284   5.373   0.626   6.495
 5114TIP3    H115285   5.386   0.644   6.588
 5114TIP3    H215286   5.311   0.552   6.494
 5115TIP3   OH215287   3.742   7.521   2.765
 5115TIP3    H115288   3.690   7.572   2.704
 5115TIP3    H215289   3.697   7.437   2.772
 5116TIP3   OH215290   1.584   1.624   2.991
 5116TIP3    H115291   1.518   1.565   3.027
 5116TIP3    H215292   1.667   1.580   3.008
 5117TIP3   OH215293   5.622   0.286   1.754
 5117TIP3    H115294   5.538   0.240   1.755
 5117TIP3    H215295   5.602   0.371   1.715
 5118TIP3   OH215296   4.402   5.281   5.333
 5118TIP3    H115297   4.408   5.338   5.410
 5118TIP3    H215298   4.314   5.243   5.339
 5119TIP3   OH215299   3.516   4.152   2.967
 5119TIP3    H115300   3.494   4.084   2.904
 5119TIP3    H215301   3.547   4.104   3.044
 5120TIP3   OH215302   1.809   6.402   2.523
 5120TIP3    H115303   1.799   6.315   2.486
 5120TIP3    H215304   1.818   6.388   2.617
 5121TIP3   OH215305   7.950   5.128   6.727
 5121TIP3    H115306   7.943   5.223   6.716
 5121TIP3    H215307   7.861   5.099   6.744
 5122TIP3   OH215308   4.549   6.579   2.676
 5122TIP3    H115309   4.544   6.673   2.660
 5122TIP3    H215310   4.587   6.543   2.596
 5123TIP3   OH215311   3.005   5.789   0.205
 5123TIP3    H115312   2.931   5.737   0.176
 5123TIP3    H215313   3.082   5.742   0.173
 5124TIP3   OH215314   2.140   0.834   1.675
 5124TIP3    H115315   2.065   0.838   1.733
 5124TIP3    H215316   2.127   0.753   1.625
 5125TIP3   OH215317   2.272   4.380   0.568
 5125TIP3    H115318   2.305   4.440   0.635
 5125TIP3    H215319   2.337   4.309   0.565
 5126TIP3   OH215320   1.811   1.188   3.512
 5126TIP3    H115321   1.720   1.208   3.532
 5126TIP3    H215322   1.828   1.235   3.430
 5127TIP3   OH215323   0.296   7.280   4.053
 5127TIP3    H115324   0.329   7.310   4.137
 5127TIP3    H215325   0.326   7.347   3.991
 5128TIP3   OH215326   1.718   4.109   6.748
 5128TIP3    H115327   1.666   4.049   6.801
 5128TIP3    H215328   1.659   4.181   6.727
 5129TIP3   OH215329   2.282   6.117   2.411
 5129TIP3    H115330   2.350   6.054   2.436
 5129TIP3    H215331   2.329   6.200   2.400
 5130TIP3   OH215332   6.412   1.054   2.067
 5130TIP3    H115333   6.354   1.128   2.082
 5130TIP3    H215334   6.354   0.983   2.041
 5131TIP3   OH215335   2.019   2.038   5.566
 5131TIP3    H115336   1.973   2.121   5.561
 5131TIP3    H215337   2.008   1.999   5.479
 5132TIP3   OH215338   2.273   4.232   4.257
 5132TIP3    H115339   2.204   4.256   4.196
 5132TIP3    H215340   2.341   4.298   4.245
 5133TIP3   OH215341   1.025   4.326   1.873
 5133TIP3    H115342   1.108   4.330   1.921
 5133TIP3    H215343   0.958   4.318   1.941
 5134TIP3   OH215344   2.492   3.249   1.311
 5134TIP3    H115345   2.527   3.337   1.325
 5134TIP3    H215346   2.409   3.248   1.360
 5135TIP3   OH215347   4.303   6.355   5.462
 5135TIP3    H115348   4.284   6.436   5.414
 5135TIP3    H215349   4.376   6.316   5.413
 5136TIP3   OH215350   0.237   4.287   2.994
 5136TIP3    H115351   0.308   4.236   3.033
 5136TIP3    H215352   0.249   4.375   3.029
 5137TIP3   OH215353   1.687   3.956   5.859
 5137TIP3    H115354   1.751   3.886   5.844
 5137TIP3    H215355   1.682   4.003   5.776
 5138TIP3   OH215356   6.141   3.208   6.651
 5138TIP3    H115357   6.081   3.256   6.593
 5138TIP3    H215358   6.086   3.139   6.689
 5139TIP3   OH215359   6.746   4.136   2.766
 5139TIP3    H115360   6.780   4.138   2.677
 5139TIP3    H215361   6.822   4.119   2.821
 5140TIP3   OH215362   6.652   1.428   6.117
 5140TIP3    H115363   6.600   1.363   6.070
 5140TIP3    H215364   6.589   1.474   6.172
 5141TIP3   OH215365   8.088   6.890   4.876
 5141TIP3    H115366   8.143   6.862   4.803
 5141TIP3    H215367   8.040   6.966   4.843
 5142TIP3   OH215368   7.998   6.971   3.256
 5142TIP3    H115369   7.913   6.970   3.300
 5142TIP3    H215370   8.062   6.960   3.327
 5143TIP3   OH215371   4.023   4.093   3.364
 5143TIP3    H115372   3.978   4.149   3.427
 5143TIP3    H215373   4.007   4.004   3.396
 5144TIP3   OH215374   4.021   3.494   4.002
 5144TIP3    H115375   4.063   3.580   4.003
 5144TIP3    H215376   4.059   3.447   4.076
 5145TIP3   OH215377   4.361   7.202   2.943
 5145TIP3    H115378   4.336   7.112   2.964
 5145TIP3    H215379   4.345   7.251   3.024
 5146TIP3   OH215380   2.511   7.050   5.784
 5146TIP3    H115381   2.544   7.108   5.716
 5146TIP3    H215382   2.545   6.963   5.762
 5147TIP3   OH215383   3.777   5.849   4.504
 5147TIP3    H115384   3.697   5.814   4.543
 5147TIP3    H215385   3.827   5.884   4.577
 5148TIP3   OH215386   3.134   5.992   4.139
 5148TIP3    H115387   3.229   5.989   4.132
 5148TIP3    H215388   3.117   6.011   4.231
 5149TIP3   OH215389   5.787   1.594   2.990
 5149TIP3    H115390   5.839   1.668   2.958
 5149TIP3    H215391   5.820   1.518   2.942
 5150TIP3   OH215392   1.474   2.076   0.068
 5150TIP3    H115393   1.462   1.982   0.054
 5150TIP3    H215394   1.508   2.083   0.157
 5151TIP3   OH215395   5.406   6.216   3.243
 5151TIP3    H115396   5.453   6.288   3.285
 5151TIP3    H215397   5.314   6.232   3.267
 5152TIP3   OH215398   0.363   2.791   6.729
 5152TIP3    H115399   0.349   2.807   6.823
 5152TIP3    H215400   0.440   2.735   6.726
 5153TIP3   OH215401   6.655   4.618   2.379
 5153TIP3    H115402   6.597   4.682   2.420
 5153TIP3    H215403   6.683   4.659   2.298
 5154TIP3   OH215404   2.264   2.500   5.057
 5154TIP3    H115405   2.311   2.465   4.982
 5154TIP3    H215406   2.331   2.507   5.126
 5155TIP3   OH215407   2.334   4.720   3.501
 5155TIP3    H115408   2.240   4.708   3.511
 5155TIP3    H215409   2.344   4.771   3.421
 5156TIP3   OH215410   2.278   0.352   2.348
 5156TIP3    H115411   2.207   0.389   2.401
 5156TIP3    H215412   2.234   0.292   2.288
 5157TIP3   OH215413   8.275   5.488   2.378
 5157TIP3    H115414   8.332   5.427   2.331
 5157TIP3    H215415   8.211   5.516   2.313
 5158TIP3   OH215416   2.815   2.803   2.421
 5158TIP3    H115417   2.762   2.867   2.469
 5158TIP3    H215418   2.852   2.853   2.348
 5159TIP3   OH215419   4.892   6.646   1.928
 5159TIP3    H115420   4.929   6.560   1.945
 5159TIP3    H215421   4.808   6.646   1.973
 5160TIP3   OH215422   7.198   2.568   5.295
 5160TIP3    H115423   7.136   2.520   5.350
 5160TIP3    H215424   7.176   2.544   5.206
 5161TIP3   OH215425   0.404   6.300   5.843
 5161TIP3    H115426   0.415   6.261   5.930
 5161TIP3    H215427   0.485   6.348   5.828
 5162TIP3   OH215428   6.987   5.745   1.544
 5162TIP3    H115429   6.904   5.698   1.538
 5162TIP3    H215430   6.970   5.815   1.608
 5163TIP3   OH215431   6.406   3.675   5.601
 5163TIP3    H115432   6.356   3.749   5.635
 5163TIP3    H215433   6.342   3.603   5.596
 5164TIP3   OH215434   3.903   2.755   4.804
 5164TIP3    H115435   3.875   2.845   4.820
 5164TIP3    H215436   3.833   2.701   4.842
 5165TIP3   OH215437   4.789   5.210   4.004
 5165TIP3    H115438   4.883   5.193   4.013
 5165TIP3    H215439   4.783   5.286   3.947
 5166TIP3   OH215440   4.403   7.835   2.326
 5166TIP3    H115441   4.326   7.786   2.353
 5166TIP3    H215442   4.452   7.849   2.407
 5167TIP3   OH215443   7.906   5.763   1.928
 5167TIP3    H115444   7.967   5.830   1.960
 5167TIP3    H215445   7.961   5.687   1.908
 5168TIP3   OH215446   4.596   2.340   0.652
 5168TIP3    H115447   4.503   2.363   0.659
 5168TIP3    H215448   4.638   2.390   0.722
 5169TIP3   OH215449   5.584   3.122   4.056
 5169TIP3    H115450   5.492   3.128   4.079
 5169TIP3    H215451   5.588   3.055   3.988
 5170TIP3   OH215452   3.856   1.523   4.753
 5170TIP3    H115453   3.765   1.530   4.724
 5170TIP3    H215454   3.902   1.592   4.706
 5171TIP3   OH215455   6.156   2.778   5.842
 5171TIP3    H115456   6.119   2.697   5.805
 5171TIP3    H215457   6.091   2.845   5.822
 5172TIP3   OH215458   5.029   2.593   6.492
 5172TIP3    H115459   5.109   2.599   6.543
 5172TIP3    H215460   4.979   2.523   6.532
 5173TIP3   OH215461   1.457   2.198   3.697
 5173TIP3    H115462   1.496   2.119   3.737
 5173TIP3    H215463   1.428   2.169   3.611
 5174TIP3   OH215464   8.239   5.261   6.144
 5174TIP3    H115465   8.308   5.286   6.083
 5174TIP3    H215466   8.208   5.344   6.181
 5175TIP3   OH215467   3.743   4.140   5.646
 5175TIP3    H115468   3.794   4.199   5.701
 5175TIP3    H215469   3.657   4.136   5.689
 5176TIP3   OH215470   5.630   3.170   5.188
 5176TIP3    H115471   5.725   3.172   5.200
 5176TIP3    H215472   5.595   3.185   5.276
 5177TIP3   OH215473   5.751   1.458   6.654
 5177TIP3    H115474   5.760   1.422   6.566
 5177TIP3    H215475   5.699   1.537   6.643
 5178TIP3   OH215476   4.229   3.052   3.810
 5178TIP3    H115477   4.184   2.974   3.776
 5178TIP3    H215478   4.193   3.124   3.757
 5179TIP3   OH215479   6.888   7.278   4.123
 5179TIP3    H115480   6.800   7.283   4.085
 5179TIP3    H215481   6.923   7.366   4.113
 5180TIP3   OH215482   2.388   4.948   6.732
 5180TIP3    H115483   2.298   4.933   6.761
 5180TIP3    H215484   2.380   4.966   6.638
 5181TIP3   OH215485   3.672   3.012   5.823
 5181TIP3    H115486   3.689   3.043   5.912
 5181TIP3    H215487   3.619   2.933   5.834
 5182TIP3   OH215488   7.551   6.913   4.593
 5182TIP3    H115489   7.478   6.895   4.534
 5182TIP3    H215490   7.591   6.992   4.558
 5183TIP3   OH215491   0.221   4.552   4.931
 5183TIP3    H115492   0.133   4.535   4.963
 5183TIP3    H215493   0.234   4.488   4.861
 5184TIP3   OH215494   0.924   0.668   3.238
 5184TIP3    H115495   0.920   0.587   3.188
 5184TIP3    H215496   0.952   0.641   3.325
 5185TIP3   OH215497   4.071   6.654   1.041
 5185TIP3    H115498   4.053   6.611   1.124
 5185TIP3    H215499   3.987   6.692   1.015
 5186TIP3   OH215500   6.615   4.202   0.699
 5186TIP3    H115501   6.543   4.139   0.712
 5186TIP3    H215502   6.687   4.166   0.752
 5187TIP3   OH215503   8.046   0.171   1.575
 5187TIP3    H115504   7.999   0.254   1.581
 5187TIP3    H215505   7.981   0.105   1.600
 5188TIP3   OH215506   6.290   3.385   0.018
 5188TIP3    H115507   6.296   3.480   0.013
 5188TIP3    H215508   6.352   3.354  -0.048
 5189TIP3   OH215509   1.913  -0.023   2.143
 5189TIP3    H115510   1.927   0.066   2.177
 5189TIP3    H215511   1.996  -0.068   2.156
 5190TIP3   OH215512   7.404   1.178   1.997
 5190TIP3    H115513   7.372   1.194   2.085
 5190TIP3    H215514   7.416   1.083   1.993
 5191TIP3   OH215515   1.345   2.362   2.027
 5191TIP3    H115516   1.435   2.342   2.054
 5191TIP3    H215517   1.347   2.359   1.931
 5192TIP3   OH215518   0.611   0.172   4.742
 5192TIP3    H115519   0.574   0.256   4.713
 5192TIP3    H215520   0.702   0.192   4.764
 5193TIP3   OH215521   2.337   1.705   2.839
 5193TIP3    H115522   2.316   1.793   2.870
 5193TIP3    H215523   2.369   1.659   2.916
 5194TIP3   OH215524   2.816   0.960   0.517
 5194TIP3    H115525   2.755   1.019   0.563
 5194TIP3    H215526   2.816   0.880   0.570
 5195TIP3   OH215527   7.348   7.586   6.441
 5195TIP3    H115528   7.400   7.524   6.391
 5195TIP3    H215529   7.361   7.670   6.395
 5196TIP3   OH215530   0.195   2.764   2.579
 5196TIP3    H115531   0.111   2.719   2.571
 5196TIP3    H215532   0.194   2.829   2.508
 5197TIP3   OH215533   3.311   3.127   4.701
 5197TIP3    H115534   3.270   3.188   4.761
 5197TIP3    H215535   3.403   3.126   4.727
 5198TIP3   OH215536   6.912   4.431   0.301
 5198TIP3    H115537   6.959   4.381   0.234
 5198TIP3    H215538   6.905   4.371   0.375
 5199TIP3   OH215539   7.810   5.441   2.499
 5199TIP3    H115540   7.881   5.501   2.478
 5199TIP3    H215541   7.828   5.363   2.447
 5200TIP3   OH215542   5.427   4.334   2.659
 5200TIP3    H115543   5.384   4.318   2.576
 5200TIP3    H215544   5.356   4.347   2.722
 5201TIP3   OH215545   8.243   1.703   0.761
 5201TIP3    H115546   8.226   1.609   0.752
 5201TIP3    H215547   8.174   1.745   0.710
 5202TIP3   OH215548   7.557   1.801   5.870
 5202TIP3    H115549   7.535   1.708   5.877
 5202TIP3    H215550   7.648   1.806   5.901
 5203TIP3   OH215551   4.951   3.409   0.749
 5203TIP3    H115552   4.870   3.456   0.766
 5203TIP3    H215553   5.013   3.476   0.721
 5204TIP3   OH215554   7.340   0.368   1.303
 5204TIP3    H115555   7.252   0.396   1.278
 5204TIP3    H215556   7.386   0.450   1.324
 5205TIP3   OH215557   4.290   4.006   4.850
 5205TIP3    H115558   4.309   4.047   4.935
 5205TIP3    H215559   4.337   3.923   4.853
 5206TIP3   OH215560   4.131   4.205   5.584
 5206TIP3    H115561   4.165   4.125   5.544
 5206TIP3    H215562   4.085   4.250   5.513
 5207TIP3   OH215563   0.735   3.289   3.691
 5207TIP3    H115564   0.763   3.296   3.600
 5207TIP3    H215565   0.719   3.196   3.704
 5208TIP3   OH215566   4.425   6.723   4.193
 5208TIP3    H115567   4.335   6.740   4.165
 5208TIP3    H215568   4.434   6.628   4.187
 5209TIP3   OH215569   2.124   3.493   6.509
 5209TIP3    H115570   2.069   3.562   6.471
 5209TIP3    H215571   2.210   3.535   6.521
 5210TIP3   OH215572   2.503   0.968   0.740
 5210TIP3    H115573   2.484   0.931   0.654
 5210TIP3    H215574   2.417   0.994   0.774
 5211TIP3   OH215575   6.285   7.405   0.504
 5211TIP3    H115576   6.246   7.334   0.452
 5211TIP3    H215577   6.210   7.454   0.538
 5212TIP3   OH215578   4.893   7.372   1.404
 5212TIP3    H115579   4.837   7.385   1.328
 5212TIP3    H215580   4.933   7.458   1.419
 5213TIP3   OH215581   0.518   4.017   6.208
 5213TIP3    H115582   0.563   4.086   6.257
 5213TIP3    H215583   0.449   3.987   6.268
 5214TIP3   OH215584   6.620   4.983   4.432
 5214TIP3    H115585   6.713   4.966   4.443
 5214TIP3    H215586   6.583   4.900   4.403
 5215TIP3   OH215587   7.688   0.305   1.303
 5215TIP3    H115588   7.741   0.384   1.292
 5215TIP3    H215589   7.610   0.335   1.351
 5216TIP3   OH215590   2.813   2.023   6.421
 5216TIP3    H115591   2.760   1.959   6.467
 5216TIP3    H215592   2.892   1.975   6.396
 5217TIP3   OH215593   0.037   5.645   5.426
 5217TIP3    H115594  -0.025   5.600   5.369
 5217TIP3    H215595   0.076   5.575   5.479
 5218TIP3   OH215596   4.366   1.401   0.611
 5218TIP3    H115597   4.286   1.452   0.597
 5218TIP3    H215598   4.339   1.310   0.598
 5219TIP3   OH215599   1.748   4.470   1.299
 5219TIP3    H115600   1.669   4.522   1.292
 5219TIP3    H215601   1.726   4.400   1.362
 5220TIP3   OH215602   7.272   1.203   2.937
 5220TIP3    H115603   7.213   1.151   2.882
 5220TIP3    H215604   7.267   1.292   2.900
 5221TIP3   OH215605   8.134   3.758   2.826
 5221TIP3    H115606   8.167   3.750   2.737
 5221TIP3    H215607   8.109   3.849   2.835
 5222TIP3   OH215608   4.653   3.169   5.683
 5222TIP3    H115609   4.567   3.128   5.673
 5222TIP3    H215610   4.685   3.140   5.768
 5223TIP3   OH215611   4.085   5.047   4.465
 5223TIP3    H115612   4.017   5.108   4.438
 5223TIP3    H215613   4.044   4.993   4.533
 5224TIP3   OH215614   8.276   5.788   1.727
 5224TIP3    H115615   8.244   5.698   1.722
 5224TIP3    H215616   8.363   5.780   1.766
 5225TIP3   OH215617   4.435   6.819   1.795
 5225TIP3    H115618   4.490   6.879   1.744
 5225TIP3    H215619   4.473   6.822   1.883
 5226TIP3   OH215620   3.312   5.523   3.918
 5226TIP3    H115621   3.392   5.483   3.884
 5226TIP3    H215622   3.342   5.584   3.986
 5227TIP3   OH215623   7.896   7.112   3.654
 5227TIP3    H115624   7.913   7.113   3.748
 5227TIP3    H215625   7.825   7.175   3.642
 5228TIP3   OH215626   0.059   2.967   6.027
 5228TIP3    H115627  -0.003   2.953   5.954
 5228TIP3    H215628   0.054   2.886   6.078
 5229TIP3   OH215629   2.667   3.379   3.548
 5229TIP3    H115630   2.573   3.393   3.542
 5229TIP3    H215631   2.680   3.288   3.523
 5230TIP3   OH215632   8.130   6.184   6.562
 5230TIP3    H115633   8.173   6.195   6.478
 5230TIP3    H215634   8.145   6.267   6.608
 5231TIP3   OH215635   0.459   2.299   3.252
 5231TIP3    H115636   0.434   2.359   3.322
 5231TIP3    H215637   0.483   2.356   3.178
 5232TIP3   OH215638   2.254   4.859   2.601
 5232TIP3    H115639   2.332   4.811   2.574
 5232TIP3    H215640   2.188   4.791   2.616
 5233TIP3   OH215641   4.080   0.831   3.058
 5233TIP3    H115642   4.061   0.845   2.965
 5233TIP3    H215643   4.128   0.909   3.084
 5234TIP3   OH215644   7.073   4.449   0.652
 5234TIP3    H115645   7.011   4.379   0.629
 5234TIP3    H215646   7.021   4.529   0.646
 5235TIP3   OH215647   6.417   6.333   1.610
 5235TIP3    H115648   6.394   6.421   1.580
 5235TIP3    H215649   6.344   6.278   1.580
 5236TIP3   OH215650   3.399   0.714   5.260
 5236TIP3    H115651   3.477   0.658   5.255
 5236TIP3    H215652   3.412   0.780   5.192
 5237TIP3   OH215653   5.559   4.885   1.224
 5237TIP3    H115654   5.613   4.869   1.301
 5237TIP3    H215655   5.544   4.797   1.187
 5238TIP3   OH215656   6.883   6.704   3.859
 5238TIP3    H115657   6.897   6.637   3.926
 5238TIP3    H215658   6.824   6.664   3.796
 5239TIP3   OH215659   6.332   6.005   4.375
 5239TIP3    H115660   6.327   5.942   4.446
 5239TIP3    H215661   6.280   5.966   4.305
 5240TIP3   OH215662   5.546   6.417   3.925
 5240TIP3    H115663   5.512   6.349   3.982
 5240TIP3    H215664   5.579   6.485   3.984
 5241TIP3   OH215665   0.227   1.070   1.735
 5241TIP3    H115666   0.305   1.063   1.681
 5241TIP3    H215667   0.155   1.047   1.676
 5242TIP3   OH215668   5.992   5.458   4.874
 5242TIP3    H115669   6.067   5.485   4.820
 5242TIP3    H215670   5.923   5.521   4.852
 5243TIP3   OH215671   2.619   4.414   1.052
 5243TIP3    H115672   2.600   4.335   1.002
 5243TIP3    H215673   2.630   4.384   1.142
 5244TIP3   OH215674   3.228   7.552   6.559
 5244TIP3    H115675   3.313   7.589   6.581
 5244TIP3    H215676   3.177   7.627   6.527
 5245TIP3   OH215677   7.080   4.500   4.941
 5245TIP3    H115678   7.129   4.573   4.902
 5245TIP3    H215679   7.044   4.453   4.865
 5246TIP3   OH215680   6.165   5.295   1.912
 5246TIP3    H115681   6.083   5.274   1.867
 5246TIP3    H215682   6.226   5.318   1.842
 5247TIP3   OH215683   3.348   3.560   4.531
 5247TIP3    H115684   3.352   3.517   4.616
 5247TIP3    H215685   3.382   3.648   4.546
 5248TIP3   OH215686   2.781   5.696   2.942
 5248TIP3    H115687   2.863   5.682   2.896
 5248TIP3    H215688   2.807   5.735   3.026
 5249TIP3   OH215689   1.291   1.957   4.028
 5249TIP3    H115690   1.323   1.970   4.117
 5249TIP3    H215691   1.209   1.910   4.038
 5250TIP3   OH215692   5.196   4.898   0.687
 5250TIP3    H115693   5.253   4.872   0.615
 5250TIP3    H215694   5.194   4.993   0.684
 5251TIP3   OH215695   7.811   5.633   3.380
 5251TIP3    H115696   7.901   5.604   3.363
 5251TIP3    H215697   7.818   5.691   3.456
 5252TIP3   OH215698   7.757   2.122   5.389
 5252TIP3    H115699   7.715   2.148   5.471
 5252TIP3    H215700   7.705   2.165   5.321
 5253TIP3   OH215701   6.636   7.040   5.957
 5253TIP3    H115702   6.674   7.060   5.872
 5253TIP3    H215703   6.628   7.124   6.001
 5254TIP3   OH215704   0.394   1.429   0.006
 5254TIP3    H115705   0.300   1.429   0.020
 5254TIP3    H215706   0.430   1.472   0.083
 5255TIP3   OH215707   5.263   2.659   3.650
 5255TIP3    H115708   5.271   2.749   3.618
 5255TIP3    H215709   5.335   2.650   3.713
 5256TIP3   OH215710   7.487   0.991   6.273
 5256TIP3    H115711   7.542   0.981   6.195
 5256TIP3    H215712   7.411   1.040   6.243
 5257TIP3   OH215713   4.388   5.231   0.396
 5257TIP3    H115714   4.423   5.240   0.308
 5257TIP3    H215715   4.419   5.310   0.442
 5258TIP3   OH215716   1.292   4.940   5.185
 5258TIP3    H115717   1.218   4.948   5.246
 5258TIP3    H215718   1.265   4.993   5.109
 5259TIP3   OH215719   2.866   7.268   1.189
 5259TIP3    H115720   2.849   7.175   1.171
 5259TIP3    H215721   2.962   7.275   1.192
 5260TIP3   OH215722   2.523   0.496   3.524
 5260TIP3    H115723   2.431   0.515   3.504
 5260TIP3    H215724   2.522   0.403   3.550
 5261TIP3   OH215725   6.866   4.172   4.568
 5261TIP3    H115726   6.869   4.196   4.660
 5261TIP3    H215727   6.899   4.082   4.565
 5262TIP3   OH215728   0.520   3.835   0.556
 5262TIP3    H115729   0.572   3.898   0.607
 5262TIP3    H215730   0.543   3.854   0.465
 5263TIP3   OH215731   3.537   7.345   4.014
 5263TIP3    H115732   3.494   7.368   3.931
 5263TIP3    H215733   3.553   7.251   4.007
 5264TIP3   OH215734   1.939   4.280   6.075
 5264TIP3    H115735   2.001   4.231   6.128
 5264TIP3    H215736   1.949   4.244   5.987
 5265TIP3   OH215737   6.070   3.563   3.015
 5265TIP3    H115738   6.120   3.602   3.087
 5265TIP3    H215739   6.137   3.538   2.951
 5266TIP3   OH215740   1.601   0.579   2.759
 5266TIP3    H115741   1.670   0.634   2.794
 5266TIP3    H215742   1.600   0.502   2.816
 5267TIP3   OH215743   7.243   6.150   5.819
 5267TIP3    H115744   7.335   6.163   5.796
 5267TIP3    H215745   7.230   6.056   5.814
 5268TIP3   OH215746   2.121   1.162   2.498
 5268TIP3    H115747   2.103   1.255   2.512
 5268TIP3    H215748   2.213   1.160   2.472
 5269TIP3   OH215749   3.975   3.339   2.246
 5269TIP3    H115750   4.038   3.411   2.245
 5269TIP3    H215751   3.901   3.372   2.195
 5270TIP3   OH215752   2.145   3.978   3.396
 5270TIP3    H115753   2.139   4.073   3.408
 5270TIP3    H215754   2.199   3.948   3.469
 5271TIP3   OH215755   5.071   5.417   6.565
 5271TIP3    H115756   5.020   5.422   6.484
 5271TIP3    H215757   5.022   5.356   6.620
 5272TIP3   OH215758   7.784   1.582   2.364
 5272TIP3    H115759   7.710   1.528   2.338
 5272TIP3    H215760   7.748   1.644   2.428
 5273TIP3   OH215761   5.482   3.171   1.151
 5273TIP3    H115762   5.567   3.209   1.173
 5273TIP3    H215763   5.450   3.225   1.079
 5274TIP3   OH215764   4.090   5.184   3.652
 5274TIP3    H115765   4.130   5.155   3.735
 5274TIP3    H215766   3.998   5.163   3.662
 5275TIP3   OH215767   6.651   2.474   6.013
 5275TIP3    H115768   6.710   2.493   6.086
 5275TIP3    H215769   6.591   2.407   6.048
 5276TIP3   OH215770   7.471   3.518   6.432
 5276TIP3    H115771   7.387   3.563   6.446
 5276TIP3    H215772   7.485   3.469   6.513
 5277TIP3   OH215773   3.584   3.732   5.714
 5277TIP3    H115774   3.627   3.653   5.748
 5277TIP3    H215775   3.607   3.801   5.777
 5278TIP3   OH215776   3.815   1.424   1.007
 5278TIP3    H115777   3.824   1.415   1.102
 5278TIP3    H215778   3.720   1.423   0.992
 5279TIP3   OH215779   7.647   2.906   1.278
 5279TIP3    H115780   7.670   2.996   1.256
 5279TIP3    H215781   7.690   2.853   1.210
 5280TIP3   OH215782   6.847   3.135   4.024
 5280TIP3    H115783   6.811   3.111   3.939
 5280TIP3    H215784   6.825   3.228   4.034
 5281TIP3   OH215785   7.259   7.254   2.494
 5281TIP3    H115786   7.300   7.336   2.465
 5281TIP3    H215787   7.277   7.192   2.423
 5282TIP3   OH215788   1.045   5.109   0.088
 5282TIP3    H115789   1.080   5.028   0.126
 5282TIP3    H215790   0.999   5.151   0.160
 5283TIP3   OH215791   3.323   4.801   2.260
 5283TIP3    H115792   3.280   4.882   2.231
 5283TIP3    H215793   3.312   4.741   2.186
 5284TIP3   OH215794   1.552   2.773   1.893
 5284TIP3    H115795   1.568   2.807   1.981
 5284TIP3    H215796   1.460   2.793   1.877
 5285TIP3   OH215797   4.215   1.462   6.354
 5285TIP3    H115798   4.293   1.515   6.335
 5285TIP3    H215799   4.231   1.427   6.441
 5286TIP3   OH215800   2.342   4.318   0.857
 5286TIP3    H115801   2.392   4.252   0.809
 5286TIP3    H215802   2.390   4.400   0.841
 5287TIP3   OH215803   8.053   0.525   3.083
 5287TIP3    H115804   8.117   0.533   3.013
 5287TIP3    H215805   7.979   0.480   3.042
 5288TIP3   OH215806   4.958   6.226   3.517
 5288TIP3    H115807   5.025   6.277   3.563
 5288TIP3    H215808   4.982   6.135   3.533
 5289TIP3   OH215809   1.471   7.198   2.713
 5289TIP3    H115810   1.451   7.235   2.627
 5289TIP3    H215811   1.565   7.183   2.712
 5290TIP3   OH215812   1.081   1.292   3.186
 5290TIP3    H115813   0.990   1.265   3.172
 5290TIP3    H215814   1.080   1.335   3.272
 5291TIP3   OH215815   6.326   6.367   5.981
 5291TIP3    H115816   6.376   6.441   5.949
 5291TIP3    H215817   6.243   6.405   6.011
 5292TIP3   OH215818   1.114   0.591   1.173
 5292TIP3    H115819   1.038   0.576   1.118
 5292TIP3    H215820   1.189   0.577   1.116
 5293TIP3   OH215821   1.207   6.655   4.843
 5293TIP3    H115822   1.278   6.593   4.832
 5293TIP3    H215823   1.135   6.620   4.791
 5294TIP3   OH215824   2.114   1.955   0.315
 5294TIP3    H115825   2.159   2.038   0.302
 5294TIP3    H215826   2.049   1.951   0.245
 5295TIP3   OH215827   6.292   6.612   3.720
 5295TIP3    H115828   6.283   6.528   3.766
 5295TIP3    H215829   6.257   6.677   3.781
 5296TIP3   OH215830   2.620   4.349   2.720
 5296TIP3    H115831   2.682   4.396   2.776
 5296TIP3    H215832   2.542   4.403   2.719
 5297TIP3   OH215833   4.235   7.666   2.473
 5297TIP3    H115834   4.146   7.643   2.447
 5297TIP3    H215835   4.248   7.620   2.556
 5298TIP3   OH215836   5.658   5.128   5.687
 5298TIP3    H115837   5.602   5.069   5.738
 5298TIP3    H215838   5.600   5.201   5.663
 5299TIP3   OH215839   2.315   0.306   1.787
 5299TIP3    H115840   2.258   0.380   1.808
 5299TIP3    H215841   2.264   0.252   1.726
 5300TIP3   OH215842   6.586   6.637   2.416
 5300TIP3    H115843   6.499   6.598   2.411
 5300TIP3    H215844   6.591   6.694   2.340
 5301TIP3   OH215845   7.085   6.247   4.024
 5301TIP3    H115846   7.136   6.263   4.103
 5301TIP3    H215847   7.121   6.307   3.959
 5302TIP3   OH215848   1.533   5.860   6.007
 5302TIP3    H115849   1.518   5.791   5.942
 5302TIP3    H215850   1.619   5.841   6.044
 5303TIP3   OH215851   7.121   1.810   2.003
 5303TIP3    H115852   7.184   1.738   2.004
 5303TIP3    H215853   7.166   1.880   1.955
 5304TIP3   OH215854   1.713   5.477   3.112
 5304TIP3    H115855   1.700   5.443   3.200
 5304TIP3    H215856   1.718   5.399   3.057
 5305TIP3   OH215857   4.489   1.097   4.740
 5305TIP3    H115858   4.479   1.192   4.747
 5305TIP3    H215859   4.579   1.084   4.708
 5306TIP3   OH215860   6.313   4.364   0.628
 5306TIP3    H115861   6.313   4.432   0.696
 5306TIP3    H215862   6.253   4.298   0.661
 5307TIP3   OH215863   3.728   4.430   3.146
 5307TIP3    H115864   3.804   4.487   3.157
 5307TIP3    H215865   3.735   4.399   3.056
 5308TIP3   OH215866   8.152   3.773   2.541
 5308TIP3    H115867   8.206   3.706   2.499
 5308TIP3    H215868   8.121   3.827   2.468
 5309TIP3   OH215869   0.794   7.115   6.075
 5309TIP3    H115870   0.702   7.128   6.051
 5309TIP3    H215871   0.806   7.166   6.154
 5310TIP3   OH215872   7.257   6.674   4.037
 5310TIP3    H115873   7.352   6.689   4.029
 5310TIP3    H215874   7.249   6.615   4.112
 5311TIP3   OH215875   3.382   6.803   0.101
 5311TIP3    H115876   3.380   6.789   0.195
 5311TIP3    H215877   3.473   6.827   0.082
 5312TIP3   OH215878   5.181   4.681   4.460
 5312TIP3    H115879   5.201   4.614   4.526
 5312TIP3    H215880   5.134   4.749   4.508
 5313TIP3   OH215881   3.125   4.069   1.392
 5313TIP3    H115882   3.174   4.069   1.310
 5313TIP3    H215883   3.185   4.032   1.456
 5314TIP3   OH215884   3.109   2.638   0.200
 5314TIP3    H115885   3.122   2.624   0.107
 5314TIP3    H215886   3.014   2.651   0.210
 5315TIP3   OH215887   2.128   4.007   2.079
 5315TIP3    H115888   2.177   4.089   2.079
 5315TIP3    H215889   2.074   4.010   2.158
 5316TIP3   OH215890   4.203   4.301   1.260
 5316TIP3    H115891   4.281   4.294   1.315
 5316TIP3    H215892   4.163   4.384   1.286
 5317TIP3   OH215893   5.167   0.941   2.632
 5317TIP3    H115894   5.099   0.922   2.568
 5317TIP3    H215895   5.219   1.011   2.592
 5318TIP3   OH215896   3.993   6.387   5.514
 5318TIP3    H115897   4.087   6.373   5.507
 5318TIP3    H215898   3.955   6.321   5.456
 5319TIP3   OH215899   0.535   1.027   5.083
 5319TIP3    H115900   0.588   1.081   5.025
 5319TIP3    H215901   0.599   0.979   5.136
 5320TIP3   OH215902   7.302   2.506   3.574
 5320TIP3    H115903   7.264   2.458   3.648
 5320TIP3    H215904   7.252   2.476   3.498
 5321TIP3   OH215905   4.780   6.897   4.851
 5321TIP3    H115906   4.801   6.982   4.811
 5321TIP3    H215907   4.685   6.892   4.849
 5322TIP3   OH215908   6.138   0.575   4.757
 5322TIP3    H115909   6.086   0.608   4.684
 5322TIP3    H215910   6.140   0.480   4.744
 5323TIP3   OH215911   2.825   7.086   2.925
 5323TIP3    H115912   2.740   7.122   2.901
 5323TIP3    H215913   2.812   6.991   2.924
 5324TIP3   OH215914   2.071   2.561   0.639
 5324TIP3    H115915   2.050   2.607   0.720
 5324TIP3    H215916   1.986   2.539   0.600
 5325TIP3   OH215917   2.515   2.069   4.732
 5325TIP3    H115918   2.580   2.136   4.712
 5325TIP3    H215919   2.567   1.991   4.754
 5326TIP3   OH215920   1.908   6.206   6.231
 5326TIP3    H115921   1.831   6.249   6.194
 5326TIP3    H215922   1.888   6.196   6.324
 5327TIP3   OH215923   0.808   4.403   5.499
 5327TIP3    H115924   0.813   4.478   5.558
 5327TIP3    H215925   0.895   4.364   5.501
 5328TIP3   OH215926   5.978   6.382   1.395
 5328TIP3    H115927   6.025   6.299   1.387
 5328TIP3    H215928   6.034   6.435   1.451
 5329TIP3   OH215929   6.039   1.162   2.266
 5329TIP3    H115930   5.975   1.227   2.297
 5329TIP3    H215931   6.091   1.208   2.202
 5330TIP3   OH215932   5.535   5.711   2.744
 5330TIP3    H115933   5.566   5.646   2.682
 5330TIP3    H215934   5.598   5.709   2.816
 5331TIP3   OH215935   7.922   7.146   5.875
 5331TIP3    H115936   7.914   7.063   5.827
 5331TIP3    H215937   7.923   7.213   5.807
 5332TIP3   OH215938   1.920   7.752   5.559
 5332TIP3    H115939   1.894   7.662   5.542
 5332TIP3    H215940   1.967   7.749   5.642
 5333TIP3   OH215941   4.239   6.879   6.451
 5333TIP3    H115942   4.195   6.963   6.460
 5333TIP3    H215943   4.171   6.814   6.468
 5334TIP3   OH215944   7.352   4.207   6.001
 5334TIP3    H115945   7.357   4.251   6.086
 5334TIP3    H215946   7.277   4.247   5.958
 5335TIP3   OH215947   5.725   5.964   2.355
 5335TIP3    H115948   5.635   5.934   2.368
 5335TIP3    H215949   5.763   5.900   2.296
 5336TIP3   OH215950   0.810   5.172   5.515
 5336TIP3    H115951   0.886   5.119   5.537
 5336TIP3    H215952   0.816   5.248   5.572
 5337TIP3   OH215953   2.778   7.277   2.196
 5337TIP3    H115954   2.716   7.333   2.149
 5337TIP3    H215955   2.808   7.331   2.269
 5338TIP3   OH215956   4.260   5.705   4.466
 5338TIP3    H115957   4.291   5.767   4.400
 5338TIP3    H215958   4.249   5.758   4.546
 5339TIP3   OH215959   4.980   0.778   0.098
 5339TIP3    H115960   4.922   0.817   0.163
 5339TIP3    H215961   4.943   0.803   0.014
 5340TIP3   OH215962   2.867   7.465   2.379
 5340TIP3    H115963   2.841   7.554   2.404
 5340TIP3    H215964   2.962   7.470   2.371
 5341TIP3   OH215965   3.006   3.789   3.563
 5341TIP3    H115966   2.954   3.737   3.502
 5341TIP3    H215967   2.973   3.764   3.650
 5342TIP3   OH215968   2.275   5.811   6.307
 5342TIP3    H115969   2.214   5.740   6.285
 5342TIP3    H215970   2.316   5.782   6.389
 5343TIP3   OH215971   3.053   6.628   5.917
 5343TIP3    H115972   3.071   6.535   5.935
 5343TIP3    H215973   3.014   6.661   5.999
 5344TIP3   OH215974   2.718   6.603   0.470
 5344TIP3    H115975   2.700   6.623   0.378
 5344TIP3    H215976   2.714   6.508   0.476
 5345TIP3   OH215977   0.183   0.745   0.069
 5345TIP3    H115978   0.130   0.823   0.086
 5345TIP3    H215979   0.259   0.754   0.126
 5346TIP3   OH215980   4.546   1.667   5.286
 5346TIP3    H115981   4.512   1.740   5.338
 5346TIP3    H215982   4.499   1.591   5.319
 5347TIP3   OH215983   2.960   6.027   2.796
 5347TIP3    H115984   2.975   5.932   2.788
 5347TIP3    H215985   2.865   6.036   2.801
 5348TIP3   OH215986   1.883   0.945   0.437
 5348TIP3    H115987   1.978   0.935   0.443
 5348TIP3    H215988   1.852   0.859   0.410
 5349TIP3   OH215989   7.397   1.663   5.356
 5349TIP3    H115990   7.308   1.660   5.392
 5349TIP3    H215991   7.385   1.695   5.266
 5350TIP3   OH215992   1.278   7.557   2.537
 5350TIP3    H115993   1.359   7.569   2.585
 5350TIP3    H215994   1.209   7.563   2.603
 5351TIP3   OH215995   7.361   2.045   3.299
 5351TIP3    H115996   7.340   1.978   3.234
 5351TIP3    H215997   7.454   2.062   3.287
 5352TIP3   OH215998   3.602   0.165   5.959
 5352TIP3    H115999   3.572   0.083   5.921
 5352TIP3    H216000   3.523   0.205   5.995
 5353TIP3   OH216001   7.310   3.216   2.196
 5353TIP3    H116002   7.224   3.175   2.207
 5353TIP3    H216003   7.298   3.278   2.124
 5354TIP3   OH216004   4.608   4.866   1.908
 5354TIP3    H116005   4.595   4.853   1.814
 5354TIP3    H216006   4.677   4.804   1.931
 5355TIP3   OH216007   0.324   6.513   1.818
 5355TIP3    H116008   0.400   6.540   1.870
 5355TIP3    H216009   0.362   6.466   1.743
 5356TIP3   OH216010   1.034   6.408   5.788
 5356TIP3    H116011   0.971   6.480   5.790
 5356TIP3    H216012   1.011   6.358   5.710
 5357TIP3   OH216013   1.384   4.974   2.893
 5357TIP3    H116014   1.465   4.927   2.908
 5357TIP3    H216015   1.374   4.977   2.798
 5358TIP3   OH216016   3.594   4.973   2.475
 5358TIP3    H116017   3.643   4.940   2.550
 5358TIP3    H216018   3.619   4.915   2.403
 5359TIP3   OH216019   6.332   3.457   3.514
 5359TIP3    H116020   6.426   3.449   3.503
 5359TIP3    H216021   6.296   3.441   3.426
 5360TIP3   OH216022   7.814   6.405   4.686
 5360TIP3    H116023   7.809   6.494   4.651
 5360TIP3    H216024   7.723   6.377   4.691
 5361TIP3   OH216025   4.649   5.926   5.718
 5361TIP3    H116026   4.571   5.912   5.771
 5361TIP3    H216027   4.620   5.909   5.628
 5362TIP3   OH216028   2.705   5.621   0.661
 5362TIP3    H116029   2.766   5.628   0.587
 5362TIP3    H216030   2.733   5.543   0.708
 5363TIP3   OH216031   7.789   6.415   5.382
 5363TIP3    H116032   7.785   6.330   5.336
 5363TIP3    H216033   7.828   6.394   5.466
 5364TIP3   OH216034   4.677   7.410   2.348
 5364TIP3    H116035   4.751   7.367   2.390
 5364TIP3    H216036   4.702   7.502   2.343
 5365TIP3   OH216037   5.954   7.668   3.864
 5365TIP3    H116038   5.982   7.739   3.922
 5365TIP3    H216039   5.896   7.614   3.918
 5366TIP3   OH216040   6.561   7.322   1.503
 5366TIP3    H116041   6.566   7.276   1.587
 5366TIP3    H216042   6.472   7.304   1.472
 5367TIP3   OH216043   5.007   1.932   3.715
 5367TIP3    H116044   5.013   2.027   3.725
 5367TIP3    H216045   4.913   1.913   3.721
 5368TIP3   OH216046   0.541   1.621   0.655
 5368TIP3    H116047   0.543   1.679   0.731
 5368TIP3    H216048   0.471   1.559   0.674
 5369TIP3   OH216049   6.187   7.191   5.026
 5369TIP3    H116050   6.097   7.199   5.058
 5369TIP3    H216051   6.214   7.282   5.009
 5370TIP3   OH216052   5.901   7.419   0.942
 5370TIP3    H116053   5.896   7.371   1.025
 5370TIP3    H216054   5.991   7.450   0.937
 5371TIP3   OH216055   5.402   2.506   5.692
 5371TIP3    H116056   5.477   2.454   5.661
 5371TIP3    H216057   5.434   2.550   5.770
 5372TIP3   OH216058   3.740   3.492   5.542
 5372TIP3    H116059   3.657   3.447   5.524
 5372TIP3    H216060   3.744   3.497   5.637
 5373TIP3   OH216061   7.977   7.522   3.820
 5373TIP3    H116062   7.972   7.498   3.912
 5373TIP3    H216063   7.886   7.534   3.793
 5374TIP3   OH216064   7.435   2.174   0.867
 5374TIP3    H116065   7.409   2.146   0.955
 5374TIP3    H216066   7.356   2.213   0.830
 5375TIP3   OH216067   2.625   2.745   4.362
 5375TIP3    H116068   2.664   2.756   4.448
 5375TIP3    H216069   2.697   2.758   4.301
 5376TIP3   OH216070   0.798   1.932   6.638
 5376TIP3    H116071   0.741   1.905   6.710
 5376TIP3    H216072   0.738   1.970   6.574
 5377TIP3   OH216073   1.605   7.778   3.058
 5377TIP3    H116074   1.681   7.735   3.019
 5377TIP3    H216075   1.624   7.872   3.050
 5378TIP3   OH216076   1.731   0.686   0.422
 5378TIP3    H116077   1.685   0.635   0.488
 5378TIP3    H216078   1.665   0.704   0.355
 5379TIP3   OH216079   0.416   7.350   5.945
 5379TIP3    H116080   0.486   7.414   5.955
 5379TIP3    H216081   0.424   7.318   5.855
 5380TIP3   OH216082   6.166   0.997   0.896
 5380TIP3    H116083   6.238   0.978   0.956
 5380TIP3    H216084   6.087   0.990   0.950
 5381TIP3   OH216085   5.715   7.551   2.014
 5381TIP3    H116086   5.663   7.631   2.021
 5381TIP3    H216087   5.791   7.577   1.962
 5382TIP3   OH216088   2.762   0.855   2.325
 5382TIP3    H116089   2.768   0.862   2.229
 5382TIP3    H216090   2.852   0.841   2.354
 5383TIP3   OH216091   8.144   1.917   4.192
 5383TIP3    H116092   8.080   1.927   4.122
 5383TIP3    H216093   8.113   1.841   4.243
 5384TIP3   OH216094   0.015   2.515   2.919
 5384TIP3    H116095  -0.050   2.526   2.987
 5384TIP3    H216096   0.029   2.603   2.884
 5385TIP3   OH216097   7.180   0.255   1.968
 5385TIP3    H116098   7.168   0.279   2.059
 5385TIP3    H216099   7.198   0.338   1.923
 5386TIP3   OH216100   3.047   4.624   6.199
 5386TIP3    H116101   3.103   4.582   6.133
 5386TIP3    H216102   2.959   4.593   6.178
 5387TIP3   OH216103   2.482   7.083   4.096
 5387TIP3    H116104   2.457   7.102   4.186
 5387TIP3    H216105   2.578   7.091   4.096
 5388TIP3   OH216106   4.462   1.953   1.621
 5388TIP3    H116107   4.376   1.989   1.602
 5388TIP3    H216108   4.458   1.926   1.713
 5389TIP3   OH216109   6.021   0.893   2.190
 5389TIP3    H116110   6.048   0.981   2.215
 5389TIP3    H216111   5.933   0.884   2.227
 5390TIP3   OH216112   2.581   3.624   1.664
 5390TIP3    H116113   2.652   3.652   1.605
 5390TIP3    H216114   2.615   3.643   1.752
 5391TIP3   OH216115   6.803   3.445   4.038
 5391TIP3    H116116   6.827   3.498   3.962
 5391TIP3    H216117   6.789   3.510   4.108
 5392TIP3   OH216118   4.629   5.195   2.336
 5392TIP3    H116119   4.603   5.143   2.260
 5392TIP3    H216120   4.721   5.176   2.349
 5393TIP3   OH216121   8.098   0.406   3.342
 5393TIP3    H116122   8.179   0.451   3.367
 5393TIP3    H216123   8.066   0.454   3.266
 5394TIP3   OH216124   7.327   4.369   3.813
 5394TIP3    H116125   7.396   4.347   3.750
 5394TIP3    H216126   7.302   4.458   3.791
 5395TIP3   OH216127   1.194   4.025   3.352
 5395TIP3    H116128   1.197   3.942   3.400
 5395TIP3    H216129   1.269   4.074   3.387
 5396TIP3   OH216130   7.149   7.461   3.394
 5396TIP3    H116131   7.189   7.539   3.432
 5396TIP3    H216132   7.101   7.420   3.467
 5397TIP3   OH216133   1.473   2.425   0.811
 5397TIP3    H116134   1.474   2.329   0.810
 5397TIP3    H216135   1.539   2.449   0.876
 5398TIP3   OH216136   1.572   1.812   5.445
 5398TIP3    H116137   1.618   1.782   5.523
 5398TIP3    H216138   1.634   1.870   5.401
 5399TIP3   OH216139   4.073   7.666   1.040
 5399TIP3    H116140   4.040   7.724   1.109
 5399TIP3    H216141   4.075   7.579   1.081
 5400TIP3   OH216142   3.888   6.951   5.370
 5400TIP3    H116143   3.816   6.889   5.371
 5400TIP3    H216144   3.887   6.990   5.458
 5401TIP3   OH216145   5.495   1.785   4.195
 5401TIP3    H116146   5.418   1.785   4.252
 5401TIP3    H216147   5.567   1.758   4.252
 5402TIP3   OH216148   8.194   2.082   2.583
 5402TIP3    H116149   8.226   2.113   2.667
 5402TIP3    H216150   8.263   2.025   2.550
 5403TIP3   OH216151   6.752   5.452   3.302
 5403TIP3    H116152   6.746   5.516   3.230
 5403TIP3    H216153   6.712   5.372   3.267
 5404TIP3   OH216154   4.717   7.339   5.937
 5404TIP3    H116155   4.781   7.273   5.910
 5404TIP3    H216156   4.662   7.352   5.859
 5405TIP3   OH216157   1.721   2.057   2.079
 5405TIP3    H116158   1.794   2.040   2.019
 5405TIP3    H216159   1.723   1.984   2.141
 5406TIP3   OH216160   6.954   1.358   0.580
 5406TIP3    H116161   6.903   1.413   0.639
 5406TIP3    H216162   6.989   1.419   0.515
 5407TIP3   OH216163   1.632   7.001   1.069
 5407TIP3    H116164   1.720   7.005   1.031
 5407TIP3    H216165   1.646   6.970   1.159
 5408TIP3   OH216166   1.625   4.414   6.348
 5408TIP3    H116167   1.691   4.468   6.393
 5408TIP3    H216168   1.668   4.330   6.334
 5409TIP3   OH216169   5.047   2.147   4.452
 5409TIP3    H116170   5.122   2.181   4.404
 5409TIP3    H216171   5.008   2.225   4.492
 5410TIP3   OH216172   6.917   2.675   4.414
 5410TIP3    H116173   6.868   2.598   4.386
 5410TIP3    H216174   6.859   2.720   4.474
 5411TIP3   OH216175   2.811   3.196   3.850
 5411TIP3    H116176   2.878   3.207   3.782
 5411TIP3    H216177   2.800   3.102   3.857
 5412TIP3   OH216178   0.467   2.419   3.013
 5412TIP3    H116179   0.459   2.386   2.923
 5412TIP3    H216180   0.392   2.479   3.022
 5413TIP3   OH216181   0.180   6.450   2.083
 5413TIP3    H116182   0.195   6.485   1.995
 5413TIP3    H216183   0.207   6.521   2.141
 5414TIP3   OH216184   0.715   7.559   3.708
 5414TIP3    H116185   0.747   7.569   3.797
 5414TIP3    H216186   0.765   7.624   3.657
 5415TIP3   OH216187   4.685   5.250   1.581
 5415TIP3    H116188   4.763   5.241   1.636
 5415TIP3    H216189   4.658   5.341   1.592
 5416TIP3   OH216190   0.960   6.175   3.409
 5416TIP3    H116191   0.899   6.182   3.336
 5416TIP3    H216192   0.992   6.264   3.423
 5417TIP3   OH216193   7.798   6.541   1.149
 5417TIP3    H116194   7.749   6.562   1.228
 5417TIP3    H216195   7.841   6.458   1.168
 5418TIP3   OH216196   5.449   2.409   1.218
 5418TIP3    H116197   5.417   2.492   1.252
 5418TIP3    H216198   5.532   2.395   1.263
 5419TIP3   OH216199   2.049   4.662   1.939
 5419TIP3    H116200   2.125   4.663   1.880
 5419TIP3    H216201   1.982   4.712   1.892
 5420TIP3   OH216202   0.158   7.870   1.704
 5420TIP3    H116203   0.126   7.798   1.758
 5420TIP3    H216204   0.114   7.858   1.620
 5421TIP3   OH216205   6.825   2.313   1.881
 5421TIP3    H116206   6.888   2.383   1.860
 5421TIP3    H216207   6.799   2.278   1.796
 5422TIP3   OH216208   7.710   4.761   5.863
 5422TIP3    H116209   7.617   4.780   5.869
 5422TIP3    H216210   7.721   4.718   5.779
 5423TIP3   OH216211   6.966   5.175   6.606
 5423TIP3    H116212   6.884   5.196   6.562
 5423TIP3    H216213   6.985   5.085   6.580
 5424TIP3   OH216214   0.944   1.285   1.188
 5424TIP3    H116215   0.921   1.193   1.175
 5424TIP3    H216216   0.866   1.333   1.161
 5425TIP3   OH216217   2.555   6.427   4.422
 5425TIP3    H116218   2.476   6.424   4.475
 5425TIP3    H216219   2.544   6.359   4.356
 5426TIP3   OH216220   1.021   5.776   6.579
 5426TIP3    H116221   1.100   5.735   6.615
 5426TIP3    H216222   1.022   5.865   6.614
 5427TIP3   OH216223   5.977   5.467   0.745
 5427TIP3    H116224   5.930   5.430   0.670
 5427TIP3    H216225   6.066   5.435   0.736
 5428TIP3   OH216226   4.783   0.788   3.001
 5428TIP3    H116227   4.731   0.853   3.049
 5428TIP3    H216228   4.730   0.708   3.004
 5429TIP3   OH216229   1.835   7.363   3.827
 5429TIP3    H116230   1.788   7.360   3.910
 5429TIP3    H216231   1.841   7.271   3.800
 5430TIP3   OH216232   7.617   0.773   5.277
 5430TIP3    H116233   7.547   0.785   5.212
 5430TIP3    H216234   7.698   0.789   5.228
 5431TIP3   OH216235   3.924   3.491   2.858
 5431TIP3    H116236   3.923   3.404   2.897
 5431TIP3    H216237   3.961   3.547   2.925
 5432TIP3   OH216238   8.035   7.160   4.843
 5432TIP3    H116239   7.997   7.183   4.928
 5432TIP3    H216240   8.116   7.210   4.839
 5433TIP3   OH216241   1.501   3.205   2.180
 5433TIP3    H116242   1.419   3.173   2.218
 5433TIP3    H216243   1.554   3.232   2.256
 5434TIP3   OH216244   2.360   6.721   2.359
 5434TIP3    H116245   2.398   6.775   2.290
 5434TIP3    H216246   2.281   6.684   2.320
 5435TIP3   OH216247   1.836   3.882   3.955
 5435TIP3    H116248   1.779   3.913   4.025
 5435TIP3    H216249   1.789   3.905   3.875
 5436TIP3   OH216250   4.400   3.445   0.690
 5436TIP3    H116251   4.368   3.509   0.754
 5436TIP3    H216252   4.481   3.411   0.728
 5437TIP3   OH216253   6.040   2.523   4.953
 5437TIP3    H116254   6.030   2.429   4.938
 5437TIP3    H216255   6.089   2.530   5.035
 5438TIP3   OH216256   3.158   4.017   3.578
 5438TIP3    H116257   3.222   4.036   3.510
 5438TIP3    H216258   3.112   3.939   3.548
 5439TIP3   OH216259   4.615   3.698   2.489
 5439TIP3    H116260   4.637   3.724   2.578
 5439TIP3    H216261   4.651   3.610   2.480
 5440TIP3   OH216262   5.189   3.454   2.124
 5440TIP3    H116263   5.228   3.372   2.095
 5440TIP3    H216264   5.116   3.428   2.180
 5441TIP3   OH216265   5.640   7.724   6.262
 5441TIP3    H116266   5.710   7.695   6.204
 5441TIP3    H216267   5.634   7.818   6.249
 5442TIP3   OH216268   3.713   4.879   2.703
 5442TIP3    H116269   3.755   4.906   2.785
 5442TIP3    H216270   3.680   4.790   2.720
 5443TIP3   OH216271   7.900   1.105   2.512
 5443TIP3    H116272   7.842   1.160   2.564
 5443TIP3    H216273   7.974   1.161   2.490
 5444TIP3   OH216274   1.135   4.549   5.555
 5444TIP3    H116275   1.172   4.519   5.638
 5444TIP3    H216276   1.184   4.502   5.488
 5445TIP3   OH216277   0.092   5.160   6.595
 5445TIP3    H116278   0.185   5.153   6.619
 5445TIP3    H216279   0.066   5.245   6.629
 5446TIP3   OH216280   2.276   2.417   3.100
 5446TIP3    H116281   2.314   2.359   3.166
 5446TIP3    H216282   2.348   2.474   3.073
 5447TIP3   OH216283   2.004   2.349   2.795
 5447TIP3    H116284   2.013   2.374   2.887
 5447TIP3    H216285   2.024   2.429   2.746
 5448TIP3   OH216286   5.107   7.445   3.981
 5448TIP3    H116287   5.202   7.433   3.979
 5448TIP3    H216288   5.079   7.431   3.890
 5449TIP3   OH216289   0.267   4.944   6.186
 5449TIP3    H116290   0.283   4.862   6.231
 5449TIP3    H216291   0.319   5.009   6.233
 5450TIP3   OH216292   7.242   2.279   6.700
 5450TIP3    H116293   7.257   2.343   6.770
 5450TIP3    H216294   7.291   2.313   6.626
 5451TIP3   OH216295   0.821   1.121   3.446
 5451TIP3    H116296   0.841   1.073   3.366
 5451TIP3    H216297   0.863   1.070   3.516
 5452TIP3   OH216298   7.200   3.863   2.495
 5452TIP3    H116299   7.201   3.795   2.562
 5452TIP3    H216300   7.143   3.931   2.531
 5453TIP3   OH216301   0.896   5.940   5.697
 5453TIP3    H116302   0.852   5.855   5.692
 5453TIP3    H216303   0.987   5.919   5.718
 5454TIP3   OH216304   1.231   0.357   0.772
 5454TIP3    H116305   1.145   0.326   0.800
 5454TIP3    H216306   1.224   0.452   0.774
 5455TIP3   OH216307   5.656   4.041   3.213
 5455TIP3    H116308   5.703   3.964   3.182
 5455TIP3    H216309   5.564   4.020   3.201
 5456TIP3   OH216310   6.557   1.055   5.657
 5456TIP3    H116311   6.558   1.091   5.568
 5456TIP3    H216312   6.477   1.002   5.660
 5457TIP3   OH216313   3.987   1.185   3.848
 5457TIP3    H116314   4.057   1.179   3.782
 5457TIP3    H216315   3.930   1.255   3.816
 5458TIP3   OH216316   5.166   7.584   1.985
 5458TIP3    H116317   5.091   7.562   2.040
 5458TIP3    H216318   5.209   7.500   1.969
 5459TIP3   OH216319   7.891   7.434   2.565
 5459TIP3    H116320   7.923   7.398   2.483
 5459TIP3    H216321   7.848   7.360   2.608
 5460TIP3   OH216322   5.261   6.046   4.593
 5460TIP3    H116323   5.317   6.027   4.668
 5460TIP3    H216324   5.194   6.106   4.628
 5461TIP3   OH216325   0.799   2.016   4.030
 5461TIP3    H116326   0.736   1.976   3.971
 5461TIP3    H216327   0.747   2.068   4.091
 5462TIP3   OH216328   4.354   0.066   4.980
 5462TIP3    H116329   4.396   0.091   5.062
 5462TIP3    H216330   4.305   0.145   4.953
 5463TIP3   OH216331   4.743   2.337   0.017
 5463TIP3    H116332   4.742   2.244   0.038
 5463TIP3    H216333   4.786   2.342  -0.068
 5464TIP3   OH216334   5.339   6.065   4.284
 5464TIP3    H116335   5.262   6.041   4.335
 5464TIP3    H216336   5.385   6.129   4.338
 5465TIP3   OH216337   6.546   7.006   4.074
 5465TIP3    H116338   6.451   6.994   4.086
 5465TIP3    H216339   6.577   6.921   4.043
 5466TIP3   OH216340   3.311   5.951   2.926
 5466TIP3    H116341   3.324   5.974   3.018
 5466TIP3    H216342   3.291   6.035   2.883
 5467TIP3   OH216343  -0.025   5.681   4.284
 5467TIP3    H116344   0.040   5.743   4.316
 5467TIP3    H216345   0.018   5.635   4.212
 5468TIP3   OH216346   8.079   5.747   3.122
 5468TIP3    H116347   8.111   5.836   3.132
 5468TIP3    H216348   7.984   5.754   3.133
 5469TIP3   OH216349   0.381   3.929   1.157
 5469TIP3    H116350   0.419   3.933   1.244
 5469TIP3    H216351   0.452   3.957   1.099
 5470TIP3   OH216352   6.505   7.026   4.523
 5470TIP3    H116353   6.563   7.077   4.579
 5470TIP3    H216354   6.477   6.953   4.578
 5471TIP3   OH216355   4.273   3.266   3.392
 5471TIP3    H116356   4.251   3.173   3.393
 5471TIP3    H216357   4.207   3.307   3.447
 5472TIP3   OH216358   0.798   4.692   0.059
 5472TIP3    H116359   0.799   4.745   0.138
 5472TIP3    H216360   0.883   4.647   0.060
 5473TIP3   OH216361   4.620   1.888   1.318
 5473TIP3    H116362   4.603   1.916   1.408
 5473TIP3    H216363   4.711   1.914   1.302
 5474TIP3   OH216364   4.559   0.971   6.202
 5474TIP3    H116365   4.507   0.990   6.124
 5474TIP3    H216366   4.544   1.045   6.260
 5475TIP3   OH216367   5.851   5.709   6.033
 5475TIP3    H116368   5.837   5.662   6.114
 5475TIP3    H216369   5.906   5.651   5.980
 5476TIP3   OH216370   8.058   0.561   0.072
 5476TIP3    H116371   8.067   0.634   0.012
 5476TIP3    H216372   7.995   0.502   0.030
 5477TIP3   OH216373   0.970   1.340   2.284
 5477TIP3    H116374   1.043   1.364   2.342
 5477TIP3    H216375   0.950   1.250   2.307
 5478TIP3   OH216376   3.992   5.867   0.388
 5478TIP3    H116377   3.997   5.804   0.459
 5478TIP3    H216378   4.037   5.945   0.422
 5479TIP3   OH216379   0.382   0.170   3.222
 5479TIP3    H116380   0.327   0.135   3.152
 5479TIP3    H216381   0.324   0.227   3.271
 5480TIP3   OH216382   6.909   4.269   0.542
 5480TIP3    H116383   6.837   4.263   0.604
 5480TIP3    H216384   6.933   4.178   0.524
 5481TIP3   OH216385   4.888   2.519   3.028
 5481TIP3    H116386   4.840   2.543   3.107
 5481TIP3    H216387   4.980   2.520   3.054
 5482TIP3   OH216388   5.721   5.955   6.424
 5482TIP3    H116389   5.773   6.025   6.463
 5482TIP3    H216390   5.770   5.875   6.445
 5483TIP3   OH216391   4.560   1.132   0.392
 5483TIP3    H116392   4.610   1.147   0.472
 5483TIP3    H216393   4.475   1.100   0.423
 5484TIP3   OH216394   2.009   0.690   5.696
 5484TIP3    H116395   2.101   0.689   5.722
 5484TIP3    H216396   2.003   0.626   5.625
 5485TIP3   OH216397   4.981   6.313   5.287
 5485TIP3    H116398   5.032   6.392   5.305
 5485TIP3    H216399   4.890   6.345   5.281
 5486TIP3   OH216400   3.706  -0.031   1.011
 5486TIP3    H116401   3.744   0.056   1.019
 5486TIP3    H216402   3.616  -0.016   0.984
 5487TIP3   OH216403   6.889   7.679   0.251
 5487TIP3    H116404   6.927   7.647   0.169
 5487TIP3    H216405   6.900   7.774   0.247
 5488TIP3   OH216406   7.520   1.047   3.491
 5488TIP3    H116407   7.559   1.106   3.556
 5488TIP3    H216408   7.532   1.093   3.408
 5489TIP3   OH216409   5.733   2.795   4.544
 5489TIP3    H116410   5.768   2.865   4.599
 5489TIP3    H216411   5.638   2.811   4.541
 5490TIP3   OH216412   0.204   6.357   4.915
 5490TIP3    H116413   0.178   6.396   4.832
 5490TIP3    H216414   0.299   6.367   4.919
 5491TIP3   OH216415   2.655   4.048   1.300
 5491TIP3    H116416   2.727   3.989   1.281
 5491TIP3    H216417   2.685   4.100   1.375
 5492TIP3   OH216418   4.153   5.748   1.386
 5492TIP3    H116419   4.223   5.813   1.387
 5492TIP3    H216420   4.079   5.793   1.346
 5493TIP3   OH216421   4.749   2.752   2.401
 5493TIP3    H116422   4.747   2.825   2.463
 5493TIP3    H216423   4.838   2.717   2.410
 5494TIP3   OH216424   2.549   0.992   6.222
 5494TIP3    H116425   2.548   1.055   6.150
 5494TIP3    H216426   2.532   1.045   6.300
 5495TIP3   OH216427   5.799   7.487   3.994
 5495TIP3    H116428   5.797   7.421   3.925
 5495TIP3    H216429   5.739   7.453   4.061
 5496TIP3   OH216430   6.602   0.200   5.580
 5496TIP3    H116431   6.638   0.284   5.609
 5496TIP3    H216432   6.668   0.135   5.606
 5497TIP3   OH216433   6.766   4.898   5.887
 5497TIP3    H116434   6.762   4.898   5.982
 5497TIP3    H216435   6.680   4.870   5.858
 5498TIP3   OH216436   1.023   2.957   4.728
 5498TIP3    H116437   0.927   2.959   4.730
 5498TIP3    H216438   1.048   2.905   4.804
 5499TIP3   OH216439   7.088   0.469   5.657
 5499TIP3    H116440   7.058   0.408   5.591
 5499TIP3    H216441   7.051   0.554   5.630
 5500TIP3   OH216442   6.015   3.123   4.067
 5500TIP3    H116443   5.987   3.074   4.144
 5500TIP3    H216444   6.065   3.060   4.015
 5501TIP3   OH216445   4.371   1.915   0.554
 5501TIP3    H116446   4.411   1.984   0.607
 5501TIP3    H216447   4.372   1.838   0.611
 5502TIP3   OH216448   6.650   5.895   4.954
 5502TIP3    H116449   6.623   5.980   4.920
 5502TIP3    H216450   6.648   5.905   5.049
 5503TIP3   OH216451   3.758   0.662   2.151
 5503TIP3    H116452   3.687   0.631   2.095
 5503TIP3    H216453   3.783   0.586   2.203
 5504TIP3   OH216454   4.950   0.148   0.137
 5504TIP3    H116455   4.903   0.124   0.057
 5504TIP3    H216456   5.039   0.119   0.122
 5505TIP3   OH216457   5.245   2.332   6.077
 5505TIP3    H116458   5.192   2.323   5.998
 5505TIP3    H216459   5.304   2.257   6.074
 5506TIP3   OH216460   4.400   6.289   6.388
 5506TIP3    H116461   4.492   6.262   6.382
 5506TIP3    H216462   4.400   6.361   6.451
 5507TIP3   OH216463   5.641   5.844   4.825
 5507TIP3    H116464   5.681   5.925   4.795
 5507TIP3    H216465   5.547   5.857   4.808
 5508TIP3   OH216466   4.236   7.470   4.037
 5508TIP3    H116467   4.278   7.384   4.029
 5508TIP3    H216468   4.259   7.499   4.125
 5509TIP3   OH216469   2.218   5.634   5.975
 5509TIP3    H116470   2.165   5.567   5.932
 5509TIP3    H216471   2.201   5.621   6.068
 5510TIP3   OH216472   1.589   7.108   0.478
 5510TIP3    H116473   1.569   7.201   0.465
 5510TIP3    H216474   1.648   7.086   0.406
 5511TIP3   OH216475   7.751   0.573   0.667
 5511TIP3    H116476   7.666   0.599   0.633
 5511TIP3    H216477   7.799   0.655   0.679
 5512TIP3   OH216478   0.754   1.319   5.982
 5512TIP3    H116479   0.802   1.337   5.901
 5512TIP3    H216480   0.684   1.384   5.983
 5513TIP3   OH216481   4.016   1.290   4.801
 5513TIP3    H116482   4.107   1.298   4.831
 5513TIP3    H216483   3.989   1.379   4.781
 5514TIP3   OH216484   7.530   2.723   5.379
 5514TIP3    H116485   7.567   2.804   5.344
 5514TIP3    H216486   7.606   2.669   5.401
 5515TIP3   OH216487   5.349   3.122   4.204
 5515TIP3    H116488   5.266   3.098   4.164
 5515TIP3    H216489   5.330   3.128   4.298
 5516TIP3   OH216490   1.651   3.804   0.122
 5516TIP3    H116491   1.639   3.725   0.174
 5516TIP3    H216492   1.672   3.872   0.186
 5517TIP3   OH216493   0.772   0.780   6.673
 5517TIP3    H116494   0.682   0.792   6.702
 5517TIP3    H216495   0.775   0.690   6.641
 5518TIP3   OH216496   6.417   6.121   0.377
 5518TIP3    H116497   6.328   6.129   0.343
 5518TIP3    H216498   6.430   6.200   0.430
 5519TIP3   OH216499   1.659   6.023   5.255
 5519TIP3    H116500   1.729   5.959   5.262
 5519TIP3    H216501   1.653   6.063   5.341
 5520TIP3   OH216502   3.753   1.099   4.139
 5520TIP3    H116503   3.674   1.114   4.190
 5520TIP3    H216504   3.724   1.102   4.047
 5521TIP3   OH216505   7.623   2.829   4.921
 5521TIP3    H116506   7.708   2.868   4.899
 5521TIP3    H216507   7.562   2.903   4.919
 5522TIP3   OH216508   8.083   4.225   5.894
 5522TIP3    H116509   8.176   4.217   5.918
 5522TIP3    H216510   8.083   4.243   5.800
 5523TIP3   OH216511   0.269   1.306   1.074
 5523TIP3    H116512   0.176   1.290   1.057
 5523TIP3    H216513   0.270   1.375   1.141
 5524TIP3   OH216514   5.107   5.792   4.503
 5524TIP3    H116515   5.068   5.824   4.584
 5524TIP3    H216516   5.178   5.853   4.484
 5525TIP3   OH216517   6.274   2.030   0.304
 5525TIP3    H116518   6.286   2.067   0.216
 5525TIP3    H216519   6.229   1.946   0.289
 5526TIP3   OH216520   3.573   4.702   0.970
 5526TIP3    H116521   3.600   4.610   0.963
 5526TIP3    H216522   3.585   4.736   0.881
 5527TIP3   OH216523   5.275   0.479   3.555
 5527TIP3    H116524   5.357   0.526   3.570
 5527TIP3    H216525   5.240   0.462   3.642
 5528TIP3   OH216526   7.166   2.178   3.413
 5528TIP3    H116527   7.248   2.129   3.406
 5528TIP3    H216528   7.135   2.160   3.501
 5529TIP3   OH216529   3.527   5.952   0.863
 5529TIP3    H116530   3.580   5.937   0.784
 5529TIP3    H216531   3.579   5.912   0.934
 5530TIP3   OH216532   7.145   1.588   3.196
 5530TIP3    H116533   7.064   1.603   3.245
 5530TIP3    H216534   7.152   1.663   3.137
 5531TIP3   OH216535   4.517   1.852   4.914
 5531TIP3    H116536   4.563   1.935   4.900
 5531TIP3    H216537   4.501   1.849   5.008
 5532TIP3   OH216538   7.487   5.945   6.026
 5532TIP3    H116539   7.550   5.965   6.094
 5532TIP3    H216540   7.402   5.950   6.069
 5533TIP3   OH216541   4.678   1.134   3.804
 5533TIP3    H116542   4.714   1.220   3.823
 5533TIP3    H216543   4.749   1.086   3.763
 5534TIP3   OH216544   0.676   6.358   5.823
 5534TIP3    H116545   0.713   6.312   5.747
 5534TIP3    H216546   0.735   6.433   5.836
 5535TIP3   OH216547   6.532   0.110   1.024
 5535TIP3    H116548   6.464   0.123   0.958
 5535TIP3    H216549   6.612   0.142   0.983
 5536TIP3   OH216550   5.588   2.666   0.009
 5536TIP3    H116551   5.577   2.743   0.065
 5536TIP3    H216552   5.683   2.662  -0.007
 5537TIP3   OH216553   1.010   7.391   5.723
 5537TIP3    H116554   1.007   7.448   5.647
 5537TIP3    H216555   1.103   7.381   5.743
 5538TIP3   OH216556   4.295   3.988   5.527
 5538TIP3    H116557   4.277   3.973   5.434
 5538TIP3    H216558   4.357   4.061   5.527
 5539TIP3   OH216559   2.505   7.798   4.542
 5539TIP3    H116560   2.589   7.778   4.584
 5539TIP3    H216561   2.444   7.809   4.615
 5540TIP3   OH216562   2.637   1.034   3.703
 5540TIP3    H116563   2.601   1.100   3.644
 5540TIP3    H216564   2.731   1.052   3.705
 5541TIP3   OH216565   5.212   7.833   3.734
 5541TIP3    H116566   5.258   7.755   3.762
 5541TIP3    H216567   5.208   7.888   3.812
 5542TIP3   OH216568   8.202   5.337   3.900
 5542TIP3    H116569   8.123   5.324   3.952
 5542TIP3    H216570   8.209   5.259   3.845
 5543TIP3   OH216571   4.493   4.914   6.424
 5543TIP3    H116572   4.417   4.882   6.472
 5543TIP3    H216573   4.516   4.842   6.365
 5544TIP3   OH216574   7.071   5.067   1.285
 5544TIP3    H116575   7.092   4.975   1.267
 5544TIP3    H216576   7.000   5.087   1.224
 5545TIP3   OH216577   3.726   4.108   6.677
 5545TIP3    H116578   3.705   4.015   6.674
 5545TIP3    H216579   3.688   4.139   6.760
 5546TIP3   OH216580   0.848   7.589   5.548
 5546TIP3    H116581   0.785   7.528   5.586
 5546TIP3    H216582   0.846   7.569   5.454
 5547TIP3   OH216583   7.710   1.697   0.763
 5547TIP3    H116584   7.688   1.649   0.683
 5547TIP3    H216585   7.659   1.778   0.757
 5548TIP3   OH216586   5.977   0.985   4.640
 5548TIP3    H116587   5.913   0.915   4.659
 5548TIP3    H216588   5.985   1.032   4.723
 5549TIP3   OH216589   6.252   4.976   2.891
 5549TIP3    H116590   6.165   4.967   2.851
 5549TIP3    H216591   6.259   4.900   2.949
 5550TIP3   OH216592   0.145   6.289   3.364
 5550TIP3    H116593   0.057   6.313   3.335
 5550TIP3    H216594   0.203   6.342   3.309
 5551TIP3   OH216595   0.038   3.627   2.410
 5551TIP3    H116596   0.023   3.610   2.317
 5551TIP3    H216597   0.108   3.566   2.435
 5552TIP3   OH216598   3.158   0.909   6.166
 5552TIP3    H116599   3.241   0.878   6.201
 5552TIP3    H216600   3.113   0.948   6.240
 5553TIP3   OH216601   5.805   5.971   0.052
 5553TIP3    H116602   5.848   6.040   0.002
 5553TIP3    H216603   5.877   5.923   0.094
 5554TIP3   OH216604   5.579   6.952   0.327
 5554TIP3    H116605   5.589   6.909   0.242
 5554TIP3    H216606   5.669   6.964   0.358
 5555TIP3   OH216607   6.153   3.252   4.414
 5555TIP3    H116608   6.182   3.260   4.505
 5555TIP3    H216609   6.097   3.175   4.413
 5556TIP3   OH216610   6.494   0.021   4.494
 5556TIP3    H116611   6.542  -0.039   4.436
 5556TIP3    H216612   6.407   0.028   4.456
 5557TIP3   OH216613   3.689   6.594   5.212
 5557TIP3    H116614   3.747   6.523   5.241
 5557TIP3    H216615   3.627   6.552   5.153
 5558TIP3   OH216616   3.850   6.825   0.994
 5558TIP3    H116617   3.781   6.759   0.988
 5558TIP3    H216618   3.803   6.908   1.005
 5559TIP3   OH216619   3.949   4.841   2.494
 5559TIP3    H116620   4.003   4.884   2.428
 5559TIP3    H216621   3.944   4.905   2.566
 5560TIP3   OH216622   0.916   0.553   3.989
 5560TIP3    H116623   0.992   0.608   4.005
 5560TIP3    H216624   0.943   0.465   4.018
 5561TIP3   OH216625   6.497   2.518   5.601
 5561TIP3    H116626   6.430   2.505   5.668
 5561TIP3    H216627   6.553   2.441   5.607
 5562TIP3   OH216628   7.327   5.162   3.723
 5562TIP3    H116629   7.300   5.215   3.798
 5562TIP3    H216630   7.415   5.131   3.745
 5563TIP3   OH216631   8.145   3.266   3.278
 5563TIP3    H116632   8.163   3.347   3.230
 5563TIP3    H216633   8.149   3.291   3.370
 5564TIP3   OH216634   3.260   1.784   2.754
 5564TIP3    H116635   3.310   1.788   2.835
 5564TIP3    H216636   3.275   1.695   2.721
 5565TIP3   OH216637   5.743   1.191   0.190
 5565TIP3    H116638   5.674   1.258   0.191
 5565TIP3    H216639   5.784   1.200   0.104
 5566TIP3   OH216640   5.194   6.536   1.345
 5566TIP3    H116641   5.273   6.493   1.314
 5566TIP3    H216642   5.219   6.628   1.356
 5567TIP3   OH216643   1.523   5.045   6.007
 5567TIP3    H116644   1.528   4.997   6.090
 5567TIP3    H216645   1.451   5.003   5.960
 5568TIP3   OH216646   7.466   1.477   2.866
 5568TIP3    H116647   7.374   1.489   2.890
 5568TIP3    H216648   7.468   1.489   2.771
 5569TIP3   OH216649   3.370   3.279   6.797
 5569TIP3    H116650   3.289   3.317   6.764
 5569TIP3    H216651   3.363   3.186   6.778
 5570TIP3   OH216652   7.046   4.004   3.874
 5570TIP3    H116653   6.961   3.959   3.870
 5570TIP3    H216654   7.085   3.976   3.957
 5571TIP3   OH216655   1.738   0.922   3.000
 5571TIP3    H116656   1.790   0.877   3.065
 5571TIP3    H216657   1.767   1.013   3.004
 5572TIP3   OH216658   1.766   7.786   4.046
 5572TIP3    H116659   1.852   7.820   4.073
 5572TIP3    H216660   1.706   7.817   4.114
 5573TIP3   OH216661   0.464   7.788   0.854
 5573TIP3    H116662   0.446   7.727   0.926
 5573TIP3    H216663   0.417   7.868   0.878
 5574TIP3   OH216664   2.275   6.686   3.021
 5574TIP3    H116665   2.353   6.740   3.008
 5574TIP3    H216666   2.241   6.672   2.932
 5575TIP3   OH216667   0.522   3.247   1.833
 5575TIP3    H116668   0.534   3.152   1.842
 5575TIP3    H216669   0.502   3.277   1.921
 5576TIP3   OH216670   2.665   5.885   5.078
 5576TIP3    H116671   2.668   5.859   5.170
 5576TIP3    H216672   2.756   5.901   5.054
 5577TIP3   OH216673   7.462   4.615   0.205
 5577TIP3    H116674   7.406   4.610   0.283
 5577TIP3    H216675   7.402   4.602   0.131
 5578TIP3   OH216676   7.565   4.355   1.884
 5578TIP3    H116677   7.643   4.400   1.852
 5578TIP3    H216678   7.519   4.420   1.935
 5579TIP3   OH216679   3.451   2.453   2.056
 5579TIP3    H116680   3.468   2.503   1.977
 5579TIP3    H216681   3.425   2.518   2.121
 5580TIP3   OH216682   4.679   1.382   2.779
 5580TIP3    H116683   4.620   1.407   2.850
 5580TIP3    H216684   4.633   1.310   2.735
 5581TIP3   OH216685   7.398   5.430   1.556
 5581TIP3    H116686   7.339   5.365   1.595
 5581TIP3    H216687   7.345   5.509   1.548
 5582TIP3   OH216688   3.409   0.720   4.378
 5582TIP3    H116689   3.348   0.781   4.419
 5582TIP3    H216690   3.425   0.757   4.291
 5583TIP3   OH216691   2.270   0.047   3.977
 5583TIP3    H116692   2.365   0.051   3.974
 5583TIP3    H216693   2.245   0.104   4.050
 5584TIP3   OH216694   1.225   4.164   0.304
 5584TIP3    H116695   1.312   4.145   0.339
 5584TIP3    H216696   1.192   4.080   0.271
 5585TIP3   OH216697   4.251   5.766   4.046
 5585TIP3    H116698   4.166   5.784   4.086
 5585TIP3    H216699   4.314   5.782   4.117
 5586TIP3   OH216700   6.371   0.193   4.794
 5586TIP3    H116701   6.375   0.183   4.889
 5586TIP3    H216702   6.385   0.105   4.760
 5587TIP3   OH216703   0.403   4.008   5.589
 5587TIP3    H116704   0.439   4.060   5.660
 5587TIP3    H216705   0.452   3.926   5.591
 5588TIP3   OH216706   7.110   5.917   3.557
 5588TIP3    H116707   7.097   5.916   3.463
 5588TIP3    H216708   7.080   5.831   3.587
 5589TIP3   OH216709   6.621   1.411   2.613
 5589TIP3    H116710   6.560   1.372   2.676
 5589TIP3    H216711   6.585   1.389   2.528
 5590TIP3   OH216712   3.814   5.945   2.292
 5590TIP3    H116713   3.783   5.971   2.379
 5590TIP3    H216714   3.844   5.855   2.304
 5591TIP3   OH216715   3.195   4.030   1.109
 5591TIP3    H116716   3.102   4.051   1.099
 5591TIP3    H216717   3.199   3.935   1.098
 5592TIP3   OH216718   1.845   6.399   0.058
 5592TIP3    H116719   1.933   6.436   0.050
 5592TIP3    H216720   1.856   6.321   0.112
 5593TIP3   OH216721   8.158   2.616   6.012
 5593TIP3    H116722   8.062   2.618   6.007
 5593TIP3    H216723   8.177   2.616   6.106
 5594TIP3   OH216724   7.506   5.367   3.255
 5594TIP3    H116725   7.438   5.326   3.308
 5594TIP3    H216726   7.533   5.298   3.194
 5595TIP3   OH216727   8.145   2.928   5.015
 5595TIP3    H116728   8.171   2.949   4.925
 5595TIP3    H216729   8.110   3.009   5.050
 5596TIP3   OH216730   7.409   3.634   6.688
 5596TIP3    H116731   7.330   3.584   6.707
 5596TIP3    H216732   7.383   3.695   6.619
 5597TIP3   OH216733   4.967   1.205   5.263
 5597TIP3    H116734   4.896   1.204   5.327
 5597TIP3    H216735   4.977   1.114   5.237
 5598TIP3   OH216736   3.057   3.699   2.084
 5598TIP3    H116737   3.144   3.683   2.122
 5598TIP3    H216738   3.058   3.792   2.062
 5599TIP3   OH216739   1.685   6.551   4.373
 5599TIP3    H116740   1.708   6.588   4.288
 5599TIP3    H216741   1.616   6.609   4.406
 5600TIP3   OH216742   3.002   5.107   5.087
 5600TIP3    H116743   2.990   5.056   5.167
 5600TIP3    H216744   2.935   5.176   5.093
 5601TIP3   OH216745   0.617   5.509   3.307
 5601TIP3    H116746   0.634   5.417   3.326
 5601TIP3    H216747   0.699   5.542   3.271
 5602TIP3   OH216748   0.483   2.501   1.787
 5602TIP3    H116749   0.552   2.555   1.825
 5602TIP3    H216750   0.402   2.540   1.820
 5603TIP3   OH216751   7.991   0.722   2.769
 5603TIP3    H116752   8.004   0.795   2.709
 5603TIP3    H216753   8.040   0.650   2.730
 5604TIP3   OH216754   6.953   0.494   2.499
 5604TIP3    H116755   6.960   0.463   2.589
 5604TIP3    H216756   6.933   0.587   2.507
 5605TIP3   OH216757   4.876   2.000   1.282
 5605TIP3    H116758   4.926   2.049   1.217
 5605TIP3    H216759   4.866   2.061   1.355
 5606TIP3   OH216760   5.057   2.949   3.650
 5606TIP3    H116761   5.003   3.010   3.700
 5606TIP3    H216762   5.146   2.964   3.681
 5607TIP3   OH216763   5.289   4.572   3.057
 5607TIP3    H116764   5.304   4.491   3.107
 5607TIP3    H216765   5.198   4.564   3.026
 5608TIP3   OH216766   5.569   3.745   2.521
 5608TIP3    H116767   5.584   3.726   2.428
 5608TIP3    H216768   5.567   3.841   2.525
 5609TIP3   OH216769   6.868   5.761   3.391
 5609TIP3    H116770   6.914   5.725   3.466
 5609TIP3    H216771   6.923   5.739   3.316
 5610TIP3   OH216772   5.589   7.118   0.579
 5610TIP3    H116773   5.497   7.145   0.581
 5610TIP3    H216774   5.606   7.099   0.487
 5611TIP3   OH216775   5.516   6.708   2.255
 5611TIP3    H116776   5.530   6.708   2.349
 5611TIP3    H216777   5.447   6.643   2.241
 5612TIP3   OH216778   2.361   7.550   6.426
 5612TIP3    H116779   2.276   7.530   6.386
 5612TIP3    H216780   2.340   7.572   6.517
 5613TIP3   OH216781   5.619   3.817   0.748
 5613TIP3    H116782   5.640   3.904   0.714
 5613TIP3    H216783   5.641   3.821   0.841
 5614TIP3   OH216784   5.747   6.518   1.896
 5614TIP3    H116785   5.752   6.443   1.837
 5614TIP3    H216786   5.761   6.594   1.840
 5615TIP3   OH216787   3.550   2.060   1.754
 5615TIP3    H116788   3.548   2.075   1.849
 5615TIP3    H216789   3.460   2.034   1.732
 5616TIP3   OH216790   1.967   1.651   0.221
 5616TIP3    H116791   1.911   1.578   0.247
 5616TIP3    H216792   1.908   1.725   0.214
 5617TIP3   OH216793   7.762   2.396   6.627
 5617TIP3    H116794   7.717   2.314   6.607
 5617TIP3    H216795   7.836   2.371   6.682
 5618TIP3   OH216796   1.472   0.679   3.344
 5618TIP3    H116797   1.518   0.701   3.263
 5618TIP3    H216798   1.475   0.584   3.350
 5619TIP3   OH216799   5.718   6.964   2.967
 5619TIP3    H116800   5.765   6.975   3.050
 5619TIP3    H216801   5.678   7.050   2.951
 5620TIP3   OH216802   4.498   5.388   2.649
 5620TIP3    H116803   4.412   5.425   2.626
 5620TIP3    H216804   4.561   5.446   2.606
 5621TIP3   OH216805   1.049   0.446   4.601
 5621TIP3    H116806   1.002   0.422   4.681
 5621TIP3    H216807   1.052   0.366   4.550
 5622TIP3   OH216808   1.355   3.495   2.131
 5622TIP3    H116809   1.338   3.407   2.098
 5622TIP3    H216810   1.317   3.496   2.219
 5623TIP3   OH216811   7.512   5.672   5.973
 5623TIP3    H116812   7.437   5.655   5.916
 5623TIP3    H216813   7.512   5.767   5.984
 5624TIP3   OH216814   3.491   5.354   3.765
 5624TIP3    H116815   3.441   5.274   3.754
 5624TIP3    H216816   3.576   5.325   3.800
 5625TIP3   OH216817   0.633   6.681   1.564
 5625TIP3    H116818   0.561   6.744   1.574
 5625TIP3    H216819   0.639   6.637   1.648
 5626TIP3   OH216820   4.589   5.459   0.167
 5626TIP3    H116821   4.645   5.475   0.091
 5626TIP3    H216822   4.586   5.363   0.174
 5627TIP3   OH216823   2.972   5.640   1.432
 5627TIP3    H116824   2.914   5.565   1.421
 5627TIP3    H216825   2.977   5.680   1.345
 5628TIP3   OH216826   5.457   1.957   2.295
 5628TIP3    H116827   5.444   2.050   2.273
 5628TIP3    H216828   5.460   1.955   2.390
 5629TIP3   OH216829   7.835   5.079   5.754
 5629TIP3    H116830   7.767   5.080   5.821
 5629TIP3    H216831   7.787   5.070   5.671
 5630TIP3   OH216832   6.641   4.862   3.463
 5630TIP3    H116833   6.582   4.810   3.409
 5630TIP3    H216834   6.660   4.805   3.538
 5631TIP3   OH216835   7.673   6.279   2.928
 5631TIP3    H116836   7.738   6.246   2.990
 5631TIP3    H216837   7.713   6.265   2.842
 5632TIP3   OH216838   0.722   5.073   1.483
 5632TIP3    H116839   0.763   5.034   1.405
 5632TIP3    H216840   0.793   5.083   1.546
 5633TIP3   OH216841   4.791   1.653   2.402
 5633TIP3    H116842   4.697   1.660   2.412
 5633TIP3    H216843   4.817   1.734   2.358
 5634TIP3   OH216844   3.433   4.032   6.292
 5634TIP3    H116845   3.399   4.104   6.239
 5634TIP3    H216846   3.414   4.058   6.382
 5635TIP3   OH216847   7.518   4.159   3.905
 5635TIP3    H116848   7.496   4.083   3.852
 5635TIP3    H216849   7.600   4.136   3.948
 5636TIP3   OH216850   5.594   5.311   0.621
 5636TIP3    H116851   5.685   5.288   0.602
 5636TIP3    H216852   5.569   5.252   0.693
 5637TIP3   OH216853   7.632   0.258   5.621
 5637TIP3    H116854   7.615   0.177   5.573
 5637TIP3    H216855   7.696   0.233   5.688
 5638TIP3   OH216856   2.255   2.354   1.203
 5638TIP3    H116857   2.183   2.403   1.164
 5638TIP3    H216858   2.228   2.262   1.196
 5639TIP3   OH216859   8.002   3.857   2.247
 5639TIP3    H116860   7.937   3.920   2.214
 5639TIP3    H216861   8.083   3.907   2.252
 5640TIP3   OH216862   7.684   7.614   1.189
 5640TIP3    H116863   7.744   7.544   1.214
 5640TIP3    H216864   7.649   7.586   1.104
 5641TIP3   OH216865   7.771   5.804   5.909
 5641TIP3    H116866   7.741   5.720   5.874
 5641TIP3    H216867   7.710   5.868   5.872
 5642TIP3   OH216868   1.846   0.412   5.965
 5642TIP3    H116869   1.827   0.321   5.943
 5642TIP3    H216870   1.895   0.409   6.047
 5643TIP3   OH216871   4.112   7.304   0.442
 5643TIP3    H116872   4.128   7.210   0.440
 5643TIP3    H216873   4.083   7.321   0.531
 5644TIP3   OH216874   5.376   5.258   1.938
 5644TIP3    H116875   5.316   5.309   1.992
 5644TIP3    H216876   5.463   5.280   1.970
 5645TIP3   OH216877   7.548   7.176   4.984
 5645TIP3    H116878   7.509   7.208   5.065
 5645TIP3    H216879   7.617   7.239   4.964
 5646TIP3   OH216880   2.629   6.020   4.201
 5646TIP3    H116881   2.686   5.984   4.133
 5646TIP3    H216882   2.636   5.958   4.274
 5647TIP3   OH216883   3.094   7.075   2.975
 5647TIP3    H116884   3.002   7.089   2.954
 5647TIP3    H216885   3.115   6.992   2.932
 5648TIP3   OH216886   0.264   2.120   5.314
 5648TIP3    H116887   0.255   2.175   5.236
 5648TIP3    H216888   0.246   2.031   5.283
 5649TIP3   OH216889   6.064   6.941   1.992
 5649TIP3    H116890   6.029   6.887   2.063
 5649TIP3    H216891   6.079   7.027   2.032
 5650TIP3   OH216892   3.930   0.971   5.789
 5650TIP3    H116893   3.894   0.915   5.858
 5650TIP3    H216894   3.855   0.998   5.737
 5651TIP3   OH216895   3.792   7.419   4.692
 5651TIP3    H116896   3.865   7.479   4.678
 5651TIP3    H216897   3.772   7.428   4.785
 5652TIP3   OH216898   2.553   7.639   2.360
 5652TIP3    H116899   2.595   7.595   2.434
 5652TIP3    H216900   2.467   7.665   2.394
 5653TIP3   OH216901   1.771   2.221   2.944
 5653TIP3    H116902   1.778   2.193   2.853
 5653TIP3    H216903   1.853   2.268   2.962
 5654TIP3   OH216904   0.362   4.790   1.347
 5654TIP3    H116905   0.310   4.738   1.286
 5654TIP3    H216906   0.371   4.733   1.424
 5655TIP3   OH216907   1.389   2.027   2.182
 5655TIP3    H116908   1.393   1.954   2.120
 5655TIP3    H216909   1.342   2.096   2.135
 5656TIP3   OH216910   6.770   4.742   4.787
 5656TIP3    H116911   6.711   4.817   4.786
 5656TIP3    H216912   6.711   4.667   4.798
 5657TIP3   OH216913   1.874   4.111   5.245
 5657TIP3    H116914   1.849   4.180   5.184
 5657TIP3    H216915   1.812   4.040   5.229
 5658TIP3   OH216916   7.098   0.719   1.578
 5658TIP3    H116917   7.081   0.740   1.670
 5658TIP3    H216918   7.051   0.638   1.562
 5659TIP3   OH216919   2.758   3.087   4.145
 5659TIP3    H116920   2.807   3.125   4.072
 5659TIP3    H216921   2.745   2.996   4.121
 5660TIP3   OH216922   7.782   4.644   5.209
 5660TIP3    H116923   7.706   4.619   5.262
 5660TIP3    H216924   7.835   4.699   5.266
 5661TIP3   OH216925   4.840   5.322   5.424
 5661TIP3    H116926   4.898   5.316   5.501
 5661TIP3    H216927   4.790   5.241   5.425
 5662TIP3   OH216928   4.758   2.040   0.081
 5662TIP3    H116929   4.830   1.982   0.105
 5662TIP3    H216930   4.737   2.016  -0.009
 5663TIP3   OH216931   7.979   3.033   2.010
 5663TIP3    H116932   7.984   3.053   1.916
 5663TIP3    H216933   7.911   3.092   2.043
 5664TIP3   OH216934   0.077   6.290   5.330
 5664TIP3    H116935   0.025   6.256   5.257
 5664TIP3    H216936   0.142   6.347   5.290
 5665TIP3   OH216937   4.901   2.391   5.508
 5665TIP3    H116938   4.831   2.330   5.487
 5665TIP3    H216939   4.929   2.426   5.423
 5666TIP3   OH216940   0.955   7.462   0.990
 5666TIP3    H116941   0.939   7.413   1.071
 5666TIP3    H216942   0.905   7.542   0.999
 5667TIP3   OH216943   1.792   5.852   3.283
 5667TIP3    H116944   1.756   5.937   3.256
 5667TIP3    H216945   1.716   5.802   3.312
 5668TIP3   OH216946   2.656   0.685   6.694
 5668TIP3    H116947   2.671   0.609   6.638
 5668TIP3    H216948   2.596   0.741   6.644
 5669TIP3   OH216949   1.512   2.544   0.332
 5669TIP3    H116950   1.524   2.639   0.323
 5669TIP3    H216951   1.555   2.522   0.414
 5670TIP3   OH216952   0.096   2.695   3.913
 5670TIP3    H116953   0.061   2.606   3.907
 5670TIP3    H216954   0.130   2.714   3.825
 5671TIP3   OH216955   3.422   6.099   3.427
 5671TIP3    H116956   3.509   6.100   3.466
 5671TIP3    H216957   3.363   6.120   3.499
 5672TIP3   OH216958   3.506   1.998   0.244
 5672TIP3    H116959   3.559   1.938   0.192
 5672TIP3    H216960   3.434   2.023   0.185
 5673TIP3   OH216961   5.767   6.391   2.354
 5673TIP3    H116962   5.707   6.344   2.297
 5673TIP3    H216963   5.718   6.405   2.435
 5674TIP3   OH216964   1.713   4.075   3.351
 5674TIP3    H116965   1.758   4.153   3.384
 5674TIP3    H216966   1.746   4.003   3.405
 5675TIP3   OH216967   8.188   3.976   1.691
 5675TIP3    H116968   8.207   3.884   1.711
 5675TIP3    H216969   8.114   3.998   1.747
 5676TIP3   OH216970   6.968   3.455   4.989
 5676TIP3    H116971   6.943   3.366   5.014
 5676TIP3    H216972   7.022   3.443   4.911
 5677TIP3   OH216973   1.389   2.970   3.650
 5677TIP3    H116974   1.382   3.032   3.722
 5677TIP3    H216975   1.455   3.008   3.592
 5678TIP3   OH216976   4.164   7.578   5.992
 5678TIP3    H116977   4.214   7.571   6.073
 5678TIP3    H216978   4.127   7.666   5.993
 5679TIP3   OH216979   7.673   1.996   4.989
 5679TIP3    H116980   7.734   1.996   4.916
 5679TIP3    H216981   7.617   1.920   4.973
 5680TIP3   OH216982   2.543   4.687   6.488
 5680TIP3    H116983   2.596   4.608   6.494
 5680TIP3    H216984   2.507   4.699   6.575
 5681TIP3   OH216985   1.703   5.124   4.437
 5681TIP3    H116986   1.700   5.029   4.447
 5681TIP3    H216987   1.759   5.138   4.360
 5682TIP3   OH216988   4.544   2.801   0.147
 5682TIP3    H116989   4.612   2.735   0.165
 5682TIP3    H216990   4.507   2.775   0.063
 5683TIP3   OH216991   1.673   3.696   3.569
 5683TIP3    H116992   1.578   3.683   3.568
 5683TIP3    H216993   1.691   3.744   3.488
 5684TIP3   OH216994   0.686   1.690   3.628
 5684TIP3    H116995   0.673   1.749   3.554
 5684TIP3    H216996   0.642   1.733   3.701
 5685TIP3   OH216997   3.510   7.510   4.480
 5685TIP3    H116998   3.586   7.475   4.526
 5685TIP3    H216999   3.508   7.462   4.397
 5686TIP3   OH217000   4.037   0.024   1.064
 5686TIP3    H117001   4.119   0.049   1.022
 5686TIP3    H217002   3.984  -0.013   0.994
 5687TIP3   OH217003   2.810   4.454   6.134
 5687TIP3    H117004   2.775   4.373   6.098
 5687TIP3    H217005   2.747   4.481   6.201
 5688TIP3   OH217006   0.607   6.633   0.767
 5688TIP3    H117007   0.615   6.555   0.822
 5688TIP3    H217008   0.695   6.671   0.767
 5689TIP3   OH217009   4.873   2.062   5.147
 5689TIP3    H117010   4.827   1.979   5.145
 5689TIP3    H217011   4.908   2.068   5.236
 5690TIP3   OH217012   2.365   2.856   4.297
 5690TIP3    H117013   2.328   2.869   4.384
 5690TIP3    H217014   2.451   2.818   4.313
 5691TIP3   OH217015   6.495   7.410   4.183
 5691TIP3    H117016   6.539   7.370   4.108
 5691TIP3    H217017   6.403   7.386   4.172
 5692TIP3   OH217018   4.742   2.709   4.747
 5692TIP3    H117019   4.646   2.718   4.744
 5692TIP3    H217020   4.773   2.792   4.784
 5693TIP3   OH217021   0.988   6.772   5.357
 5693TIP3    H117022   1.025   6.832   5.292
 5693TIP3    H217023   0.894   6.770   5.337
 5694TIP3   OH217024   5.740   1.041   0.594
 5694TIP3    H117025   5.665   1.021   0.537
 5694TIP3    H217026   5.782   0.956   0.609
 5695TIP3   OH217027   7.523   2.552   0.462
 5695TIP3    H117028   7.439   2.531   0.501
 5695TIP3    H217029   7.507   2.631   0.412
 5696TIP3   OH217030   2.102   1.435   2.002
 5696TIP3    H117031   2.117   1.359   2.058
 5696TIP3    H217032   2.147   1.413   1.920
 5697TIP3   OH217033   2.038   4.820   3.192
 5697TIP3    H117034   2.133   4.825   3.206
 5697TIP3    H217035   2.007   4.909   3.207
 5698TIP3   OH217036   1.836   1.236   1.942
 5698TIP3    H117037   1.764   1.253   2.003
 5698TIP3    H217038   1.888   1.316   1.943
 5699TIP3   OH217039   2.127   1.474   3.816
 5699TIP3    H117040   2.166   1.397   3.775
 5699TIP3    H217041   2.038   1.477   3.781
 5700TIP3   OH217042   2.491   0.996   5.591
 5700TIP3    H117043   2.428   1.024   5.657
 5700TIP3    H217044   2.506   1.074   5.538
 5701TIP3   OH217045   6.395   2.934   1.244
 5701TIP3    H117046   6.347   3.000   1.293
 5701TIP3    H217047   6.405   2.861   1.306
 5702TIP3   OH217048   8.080   0.840   1.465
 5702TIP3    H117049   8.023   0.791   1.523
 5702TIP3    H217050   8.118   0.774   1.407
 5703TIP3   OH217051   2.429   2.583   6.408
 5703TIP3    H117052   2.386   2.536   6.336
 5703TIP3    H217053   2.520   2.590   6.381
 5704TIP3   OH217054   5.502   1.563   5.306
 5704TIP3    H117055   5.460   1.610   5.379
 5704TIP3    H217056   5.544   1.632   5.254
 5705TIP3   OH217057   0.044   2.084   1.346
 5705TIP3    H117058   0.135   2.085   1.317
 5705TIP3    H217059  -0.005   2.048   1.272
 5706TIP3   OH217060   3.282   1.401   6.237
 5706TIP3    H117061   3.307   1.434   6.323
 5706TIP3    H217062   3.295   1.474   6.178
 5707TIP3   OH217063   5.187   1.111   4.225
 5707TIP3    H117064   5.181   1.067   4.310
 5707TIP3    H217065   5.270   1.079   4.188
 5708TIP3   OH217066   3.914   5.914   6.014
 5708TIP3    H117067   3.972   5.973   5.965
 5708TIP3    H217068   3.826   5.935   5.982
 5709TIP3   OH217069   6.835   2.137   5.627
 5709TIP3    H117070   6.918   2.183   5.635
 5709TIP3    H217071   6.780   2.194   5.573
 5710TIP3   OH217072   1.236   7.722   6.557
 5710TIP3    H117073   1.245   7.791   6.491
 5710TIP3    H217074   1.308   7.662   6.539
 5711TIP3   OH217075   3.410   1.159   4.928
 5711TIP3    H117076   3.484   1.218   4.912
 5711TIP3    H217077   3.337   1.217   4.950
 5712TIP3   OH217078   3.858   2.725   3.578
 5712TIP3    H117079   3.909   2.691   3.505
 5712TIP3    H217080   3.773   2.749   3.539
 5713TIP3   OH217081   2.768   0.281   4.562
 5713TIP3    H117082   2.739   0.352   4.620
 5713TIP3    H217083   2.821   0.225   4.617
 5714TIP3   OH217084   3.270   1.819   0.953
 5714TIP3    H117085   3.297   1.749   0.894
 5714TIP3    H217086   3.279   1.781   1.041
 5715TIP3   OH217087   1.759   1.833   1.726
 5715TIP3    H117088   1.762   1.773   1.801
 5715TIP3    H217089   1.727   1.779   1.654
 5716TIP3   OH217090   5.773   1.954   0.145
 5716TIP3    H117091   5.814   2.024   0.196
 5716TIP3    H217092   5.827   1.946   0.067
 5717TIP3   OH217093   6.877   5.516   1.747
 5717TIP3    H117094   6.796   5.499   1.699
 5717TIP3    H217095   6.868   5.606   1.780
 5718TIP3   OH217096   5.728   2.855   2.588
 5718TIP3    H117097   5.644   2.898   2.569
 5718TIP3    H217098   5.705   2.763   2.601
 5719TIP3   OH217099   2.144   3.113   1.491
 5719TIP3    H117100   2.054   3.084   1.476
 5719TIP3    H217101   2.170   3.072   1.574
 5720TIP3   OH217102   5.626   3.166   1.825
 5720TIP3    H117103   5.606   3.257   1.800
 5720TIP3    H217104   5.542   3.121   1.819
 5721TIP3   OH217105   0.220   5.943   5.968
 5721TIP3    H117106   0.304   5.901   5.954
 5721TIP3    H217107   0.240   6.019   6.022
 5722TIP3   OH217108   1.534   2.260   6.171
 5722TIP3    H117109   1.552   2.311   6.250
 5722TIP3    H217110   1.507   2.325   6.106
 5723TIP3   OH217111   2.035   5.458   1.795
 5723TIP3    H117112   2.073   5.513   1.864
 5723TIP3    H217113   1.947   5.494   1.783
 5724TIP3   OH217114   0.661   7.457   2.311
 5724TIP3    H117115   0.582   7.485   2.357
 5724TIP3    H217116   0.732   7.472   2.373
 5725TIP3   OH217117   0.973   1.603   4.283
 5725TIP3    H117118   0.895   1.595   4.338
 5725TIP3    H217119   1.041   1.633   4.343
 5726TIP3   OH217120   1.324   6.485   0.023
 5726TIP3    H117121   1.388   6.433   0.072
 5726TIP3    H217122   1.339   6.575   0.050
 5727TIP3   OH217123   2.551   6.654   5.915
 5727TIP3    H117124   2.541   6.695   6.000
 5727TIP3    H217125   2.625   6.594   5.926
 5728TIP3   OH217126   7.334   6.574   2.662
 5728TIP3    H117127   7.365   6.503   2.719
 5728TIP3    H217128   7.242   6.554   2.648
 5729TIP3   OH217129   3.231   6.729   3.068
 5729TIP3    H117130   3.174   6.667   3.115
 5729TIP3    H217131   3.192   6.815   3.086
 5730TIP3   OH217132   5.051   6.410   2.814
 5730TIP3    H117133   5.045   6.437   2.722
 5730TIP3    H217134   5.055   6.492   2.862
 5731TIP3   OH217135   0.200   2.787   5.696
 5731TIP3    H117136   0.232   2.737   5.621
 5731TIP3    H217137   0.158   2.722   5.752
 5732TIP3   OH217138   4.866   7.718   0.080
 5732TIP3    H117139   4.796   7.725   0.145
 5732TIP3    H217140   4.898   7.808   0.070
 5733TIP3   OH217141   6.458   2.420   5.151
 5733TIP3    H117142   6.435   2.373   5.070
 5733TIP3    H217143   6.544   2.457   5.133
 5734TIP3   OH217144   1.706   5.378   0.279
 5734TIP3    H117145   1.664   5.293   0.290
 5734TIP3    H217146   1.769   5.365   0.207
 5735TIP3   OH217147   7.638   3.374   5.786
 5735TIP3    H117148   7.555   3.331   5.808
 5735TIP3    H217149   7.637   3.380   5.691
 5736TIP3   OH217150   3.385   3.262   1.497
 5736TIP3    H117151   3.315   3.324   1.518
 5736TIP3    H217152   3.339   3.185   1.463
 5737TIP3   OH217153   6.201   1.903   0.902
 5737TIP3    H117154   6.284   1.890   0.947
 5737TIP3    H217155   6.135   1.868   0.961
 5738TIP3   OH217156   4.213   3.526   6.551
 5738TIP3    H117157   4.177   3.614   6.559
 5738TIP3    H217158   4.140   3.469   6.576
 5739TIP3   OH217159   4.055   6.078   1.734
 5739TIP3    H117160   4.074   6.172   1.731
 5739TIP3    H217161   3.966   6.073   1.769
 5740TIP3   OH217162   1.988   2.600   0.010
 5740TIP3    H117163   1.915   2.626   0.067
 5740TIP3    H217164   1.957   2.521  -0.034
 5741TIP3   OH217165   6.654   1.922   1.884
 5741TIP3    H117166   6.670   1.852   1.947
 5741TIP3    H217167   6.588   1.978   1.926
 5742TIP3   OH217168   3.463   3.332   2.701
 5742TIP3    H117169   3.372   3.352   2.723
 5742TIP3    H217170   3.459   3.246   2.658
 5743TIP3   OH217171   4.805   0.677   0.624
 5743TIP3    H117172   4.885   0.681   0.572
 5743TIP3    H217173   4.806   0.590   0.663
 5744TIP3   OH217174   7.389   6.043   6.430
 5744TIP3    H117175   7.396   6.101   6.354
 5744TIP3    H217176   7.462   6.068   6.486
 5745TIP3   OH217177   6.846   6.862   0.065
 5745TIP3    H117178   6.874   6.929   0.003
 5745TIP3    H217179   6.791   6.909   0.128
 5746TIP3   OH217180   4.057   0.373   4.406
 5746TIP3    H117181   4.019   0.293   4.443
 5746TIP3    H217182   4.151   0.355   4.401
 5747TIP3   OH217183   1.708   0.048   5.145
 5747TIP3    H117184   1.705   0.082   5.055
 5747TIP3    H217185   1.741  -0.041   5.136
 5748TIP3   OH217186   2.912   7.133   6.656
 5748TIP3    H117187   2.974   7.165   6.722
 5748TIP3    H217188   2.966   7.120   6.577
 5749TIP3   OH217189   0.120   5.801   5.656
 5749TIP3    H117190   0.040   5.752   5.676
 5749TIP3    H217191   0.123   5.803   5.560
 5750TIP3   OH217192   0.195   0.437   2.581
 5750TIP3    H117193   0.240   0.472   2.504
 5750TIP3    H217194   0.139   0.509   2.611
 5751TIP3   OH217195   3.348   5.903   1.619
 5751TIP3    H117196   3.394   5.883   1.701
 5751TIP3    H217197   3.375   5.833   1.559
 5752TIP3   OH217198   5.327   2.875   6.465
 5752TIP3    H117199   5.323   2.899   6.372
 5752TIP3    H217200   5.403   2.922   6.499
 5753TIP3   OH217201   0.959   5.806   6.299
 5753TIP3    H117202   0.986   5.789   6.389
 5753TIP3    H217203   1.022   5.759   6.246
 5754TIP3   OH217204   2.987   5.158   1.313
 5754TIP3    H117205   2.984   5.225   1.244
 5754TIP3    H217206   2.996   5.207   1.394
 5755TIP3   OH217207   0.415   7.152   6.732
 5755TIP3    H117208   0.495   7.148   6.783
 5755TIP3    H217209   0.415   7.240   6.694
 5756TIP3   OH217210   6.614   6.187   6.188
 5756TIP3    H117211   6.652   6.108   6.226
 5756TIP3    H217212   6.544   6.155   6.131
 5757TIP3   OH217213   0.660   1.360   4.164
 5757TIP3    H117214   0.637   1.308   4.087
 5757TIP3    H217215   0.686   1.296   4.230
 5758TIP3   OH217216   5.846   5.672   4.769
 5758TIP3    H117217   5.791   5.743   4.804
 5758TIP3    H217218   5.933   5.709   4.763
 5759TIP3   OH217219   0.105   6.513   0.082
 5759TIP3    H117220   0.091   6.563   0.001
 5759TIP3    H217221   0.105   6.579   0.151
 5760TIP3   OH217222   4.118   4.420   0.050
 5760TIP3    H117223   4.054   4.389  -0.015
 5760TIP3    H217224   4.083   4.388   0.133
 5761TIP3   OH217225   0.338   7.272   4.579
 5761TIP3    H117226   0.269   7.207   4.593
 5761TIP3    H217227   0.356   7.307   4.667
 5762TIP3   OH217228   0.552   5.325   3.732
 5762TIP3    H117229   0.525   5.234   3.745
 5762TIP3    H217230   0.485   5.361   3.673
 5763TIP3   OH217231   5.856   3.259   5.978
 5763TIP3    H117232   5.878   3.352   5.976
 5763TIP3    H217233   5.872   3.229   5.889
 5764TIP3   OH217234   2.770   4.763   3.431
 5764TIP3    H117235   2.811   4.724   3.354
 5764TIP3    H217236   2.747   4.687   3.486
 5765TIP3   OH217237   0.866   6.738   3.434
 5765TIP3    H117238   0.908   6.685   3.366
 5765TIP3    H217239   0.905   6.825   3.424
 5766TIP3   OH217240   2.695   0.362   2.208
 5766TIP3    H117241   2.614   0.324   2.173
 5766TIP3    H217242   2.750   0.287   2.231
 5767TIP3   OH217243   7.028   1.945   0.090
 5767TIP3    H117244   7.093   1.875   0.087
 5767TIP3    H217245   7.046   1.991   0.172
 5768TIP3   OH217246   7.124   3.727   3.352
 5768TIP3    H117247   7.148   3.648   3.400
 5768TIP3    H217248   7.067   3.775   3.412
 5769TIP3   OH217249   4.916   6.946   3.637
 5769TIP3    H117250   4.950   6.857   3.629
 5769TIP3    H217251   4.825   6.940   3.607
 5770TIP3   OH217252   2.654   3.930   4.600
 5770TIP3    H117253   2.617   4.005   4.647
 5770TIP3    H217254   2.681   3.966   4.515
 5771TIP3   OH217255   2.465   5.997   2.589
 5771TIP3    H117256   2.478   5.928   2.654
 5771TIP3    H217257   2.450   6.076   2.641
 5772TIP3   OH217258   4.565   1.543   0.452
 5772TIP3    H117259   4.497   1.505   0.507
 5772TIP3    H217260   4.647   1.520   0.496
 5773TIP3   OH217261   5.001   3.853   0.032
 5773TIP3    H117262   4.940   3.915  -0.009
 5773TIP3    H217263   5.062   3.909   0.081
 5774TIP3   OH217264   1.711   6.320   0.984
 5774TIP3    H117265   1.747   6.371   1.056
 5774TIP3    H217266   1.618   6.343   0.982
 5775TIP3   OH217267   5.154   6.015   5.812
 5775TIP3    H117268   5.064   5.986   5.801
 5775TIP3    H217269   5.203   5.934   5.828
 5776TIP3   OH217270   2.674   1.958   2.079
 5776TIP3    H117271   2.679   1.982   2.172
 5776TIP3    H217272   2.761   1.926   2.057
 5777TIP3   OH217273   4.586   3.902   5.762
 5777TIP3    H117274   4.505   3.912   5.713
 5777TIP3    H217275   4.656   3.912   5.697
 5778TIP3   OH217276   3.511   2.530   5.821
 5778TIP3    H117277   3.516   2.593   5.749
 5778TIP3    H217278   3.488   2.447   5.779
 5779TIP3   OH217279   0.001   7.090   2.733
 5779TIP3    H117280  -0.052   7.159   2.694
 5779TIP3    H217281   0.083   7.090   2.683
 5780TIP3   OH217282   6.728   0.842   2.675
 5780TIP3    H117283   6.792   0.791   2.725
 5780TIP3    H217284   6.779   0.913   2.635
 5781TIP3   OH217285   5.310   6.739   2.828
 5781TIP3    H117286   5.359   6.695   2.898
 5781TIP3    H217287   5.333   6.691   2.749
 5782TIP3   OH217288   4.965   5.473   6.302
 5782TIP3    H117289   4.953   5.492   6.209
 5782TIP3    H217290   4.945   5.556   6.345
 5783TIP3   OH217291   0.489   2.728   4.790
 5783TIP3    H117292   0.503   2.789   4.718
 5783TIP3    H217293   0.572   2.728   4.838
 5784TIP3   OH217294   0.881   7.759   2.487
 5784TIP3    H117295   0.905   7.668   2.468
 5784TIP3    H217296   0.934   7.783   2.563
 5785TIP3   OH217297   8.162   0.776   0.454
 5785TIP3    H117298   8.099   0.758   0.384
 5785TIP3    H217299   8.160   0.698   0.509
 5786TIP3   OH217300   0.332   6.884   6.677
 5786TIP3    H117301   0.239   6.881   6.695
 5786TIP3    H217302   0.350   6.975   6.653
 5787TIP3   OH217303   5.303   7.415   1.119
 5787TIP3    H117304   5.215   7.387   1.091
 5787TIP3    H217305   5.291   7.443   1.210
 5788TIP3   OH217306   6.046   1.178   4.850
 5788TIP3    H117307   6.007   1.211   4.932
 5788TIP3    H217308   6.107   1.247   4.824
 5789TIP3   OH217309   7.516   7.384   2.284
 5789TIP3    H117310   7.519   7.436   2.364
 5789TIP3    H217311   7.423   7.377   2.263
 5790TIP3   OH217312   0.457   1.068   6.788
 5790TIP3    H117313   0.458   0.979   6.754
 5790TIP3    H217314   0.385   1.111   6.741
 5791TIP3   OH217315   8.145   2.428   3.316
 5791TIP3    H117316   8.195   2.482   3.255
 5791TIP3    H217317   8.197   2.428   3.396
 5792TIP3   OH217318   1.479   1.330   0.885
 5792TIP3    H117319   1.463   1.342   0.791
 5792TIP3    H217320   1.434   1.249   0.907
 5793TIP3   OH217321   5.286   0.975   4.814
 5793TIP3    H117322   5.314   1.055   4.769
 5793TIP3    H217323   5.318   0.904   4.760
 5794TIP3   OH217324   7.537   2.184   6.063
 5794TIP3    H117325   7.522   2.262   6.117
 5794TIP3    H217326   7.486   2.115   6.106
 5795TIP3   OH217327   3.410   0.716   2.774
 5795TIP3    H117328   3.362   0.796   2.790
 5795TIP3    H217329   3.371   0.652   2.833
 5796TIP3   OH217330   1.335   6.903   4.833
 5796TIP3    H117331   1.293   6.817   4.836
 5796TIP3    H217332   1.367   6.917   4.923
 5797TIP3   OH217333   5.046   1.625   3.024
 5797TIP3    H117334   4.977   1.644   3.088
 5797TIP3    H217335   5.127   1.625   3.075
 5798TIP3   OH217336   4.246   3.818   3.421
 5798TIP3    H117337   4.265   3.740   3.472
 5798TIP3    H217338   4.212   3.881   3.484
 5799TIP3   OH217339   7.503   7.385   2.920
 5799TIP3    H117340   7.513   7.473   2.883
 5799TIP3    H217341   7.437   7.343   2.865
 5800TIP3   OH217342   6.094   3.972   3.415
 5800TIP3    H117343   6.116   3.940   3.503
 5800TIP3    H217344   5.999   3.986   3.419
 5801TIP3   OH217345   1.822   4.902   3.386
 5801TIP3    H117346   1.798   4.824   3.336
 5801TIP3    H217347   1.787   4.885   3.474
 5802TIP3   OH217348   7.986   6.371   5.546
 5802TIP3    H117349   8.037   6.296   5.576
 5802TIP3    H217350   8.051   6.440   5.531
 5803TIP3   OH217351   5.144   3.248   2.619
 5803TIP3    H117352   5.097   3.311   2.673
 5803TIP3    H217353   5.236   3.272   2.629
 5804TIP3   OH217354   6.691   5.630   2.526
 5804TIP3    H117355   6.781   5.626   2.557
 5804TIP3    H217356   6.656   5.542   2.543
 5805TIP3   OH217357   6.542   4.239   3.196
 5805TIP3    H117358   6.609   4.172   3.179
 5805TIP3    H217359   6.563   4.309   3.134
 5806TIP3   OH217360   5.089   4.036   2.024
 5806TIP3    H117361   5.174   4.080   2.019
 5806TIP3    H217362   5.098   3.957   1.971
 5807TIP3   OH217363   4.966   2.116   5.406
 5807TIP3    H117364   4.983   2.083   5.494
 5807TIP3    H217365   5.052   2.144   5.374
 5808TIP3   OH217366   6.769   3.424   5.981
 5808TIP3    H117367   6.740   3.509   6.016
 5808TIP3    H217368   6.724   3.417   5.897
 5809TIP3   OH217369   2.830   0.075   5.497
 5809TIP3    H117370   2.850   0.150   5.552
 5809TIP3    H217371   2.753   0.035   5.538
 5810TIP3   OH217372   3.319   4.864   3.912
 5810TIP3    H117373   3.366   4.810   3.849
 5810TIP3    H217374   3.270   4.802   3.966
 5811TIP3   OH217375   1.634   0.689   4.396
 5811TIP3    H117376   1.724   0.659   4.383
 5811TIP3    H217377   1.593   0.619   4.447
 5812TIP3   OH217378   5.244   1.531   3.199
 5812TIP3    H117379   5.327   1.529   3.152
 5812TIP3    H217380   5.250   1.458   3.261
 5813TIP3   OH217381   1.208   7.717   3.166
 5813TIP3    H117382   1.114   7.735   3.157
 5813TIP3    H217383   1.231   7.667   3.087
 5814TIP3   OH217384   6.027   0.095   0.964
 5814TIP3    H117385   6.017   0.094   1.059
 5814TIP3    H217386   5.971   0.166   0.934
 5815TIP3   OH217387   3.681   2.986   1.943
 5815TIP3    H117388   3.637   3.002   2.027
 5815TIP3    H217389   3.702   2.892   1.945
 5816TIP3   OH217390   6.982   6.285   1.191
 5816TIP3    H117391   6.895   6.319   1.212
 5816TIP3    H217392   7.024   6.273   1.276
 5817TIP3   OH217393   5.117   4.570   6.046
 5817TIP3    H117394   5.198   4.589   6.093
 5817TIP3    H217395   5.070   4.653   6.045
 5818TIP3   OH217396   3.891   5.811   6.327
 5818TIP3    H117397   3.861   5.779   6.412
 5818TIP3    H217398   3.814   5.852   6.288
 5819TIP3   OH217399   0.543   4.916   4.509
 5819TIP3    H117400   0.573   4.992   4.459
 5819TIP3    H217401   0.619   4.891   4.561
 5820TIP3   OH217402   7.857   6.252   6.015
 5820TIP3    H117403   7.767   6.237   5.986
 5820TIP3    H217404   7.848   6.300   6.097
 5821TIP3   OH217405   3.807   5.722   3.512
 5821TIP3    H117406   3.733   5.669   3.542
 5821TIP3    H217407   3.855   5.744   3.592
 5822TIP3   OH217408   4.176   3.927   5.287
 5822TIP3    H117409   4.231   3.964   5.218
 5822TIP3    H217410   4.095   3.978   5.283
 5823TIP3   OH217411   1.402   1.739   0.635
 5823TIP3    H117412   1.327   1.730   0.576
 5823TIP3    H217413   1.476   1.706   0.584
 5824TIP3   OH217414   5.090   2.377   5.837
 5824TIP3    H117415   5.137   2.321   5.775
 5824TIP3    H217416   5.070   2.456   5.787
 5825TIP3   OH217417   4.965   7.111   2.159
 5825TIP3    H117418   5.023   7.185   2.139
 5825TIP3    H217419   4.948   7.070   2.074
 5826TIP3   OH217420   4.286   4.836   3.625
 5826TIP3    H117421   4.289   4.793   3.539
 5826TIP3    H217422   4.282   4.764   3.688
 5827TIP3   OH217423   4.051   0.535   6.521
 5827TIP3    H117424   4.078   0.446   6.497
 5827TIP3    H217425   3.955   0.535   6.511
 5828TIP3   OH217426   3.891   0.747   1.526
 5828TIP3    H117427   3.870   0.688   1.598
 5828TIP3    H217428   3.930   0.690   1.459
 5829TIP3   OH217429   0.171   4.460   1.291
 5829TIP3    H117430   0.118   4.395   1.244
 5829TIP3    H217431   0.176   4.534   1.230
 5830TIP3   OH217432   2.782   0.029   1.452
 5830TIP3    H117433   2.752   0.119   1.437
 5830TIP3    H217434   2.704  -0.025   1.443
 5831TIP3   OH217435   7.167   2.216   5.307
 5831TIP3    H117436   7.171   2.195   5.214
 5831TIP3    H217437   7.083   2.261   5.318
 5832TIP3   OH217438   0.439   5.103   6.342
 5832TIP3    H117439   0.421   5.189   6.381
 5832TIP3    H217440   0.517   5.118   6.288
 5833TIP3   OH217441   2.837   0.616   5.160
 5833TIP3    H117442   2.775   0.545   5.151
 5833TIP3    H217443   2.786   0.690   5.192
 5834TIP3   OH217444   0.912   7.066   3.137
 5834TIP3    H117445   0.919   7.149   3.185
 5834TIP3    H217446   0.850   7.014   3.187
 5835TIP3   OH217447   0.600   4.907   2.960
 5835TIP3    H117448   0.506   4.917   2.945
 5835TIP3    H217449   0.622   4.978   3.020
 5836TIP3   OH217450   3.036   3.320   5.299
 5836TIP3    H117451   3.043   3.337   5.205
 5836TIP3    H217452   3.083   3.393   5.339
 5837TIP3   OH217453   0.680   0.801   3.131
 5837TIP3    H117454   0.667   0.715   3.091
 5837TIP3    H217455   0.756   0.791   3.187
 5838TIP3   OH217456   7.356   4.707   4.054
 5838TIP3    H117457   7.446   4.739   4.056
 5838TIP3    H217458   7.346   4.658   4.136
 5839TIP3   OH217459  -0.006   1.166   0.580
 5839TIP3    H117460  -0.020   1.174   0.486
 5839TIP3    H217461   0.041   1.083   0.590
 5840TIP3   OH217462   5.023   7.706   3.169
 5840TIP3    H117463   5.089   7.717   3.100
 5840TIP3    H217464   5.071   7.663   3.241
 5841TIP3   OH217465   3.561   3.432   6.045
 5841TIP3    H117466   3.538   3.393   6.130
 5841TIP3    H217467   3.511   3.513   6.041
 5842TIP3   OH217468   2.072   3.702   3.586
 5842TIP3    H117469   2.061   3.647   3.509
 5842TIP3    H217470   2.158   3.678   3.621
 5843TIP3   OH217471   8.169   3.091   3.057
 5843TIP3    H117472   8.174   3.148   3.134
 5843TIP3    H217473   8.190   3.148   2.983
 5844TIP3   OH217474   2.833   1.152   3.538
 5844TIP3    H117475   2.790   1.237   3.547
 5844TIP3    H217476   2.923   1.167   3.568
 5845TIP3   OH217477   5.184   7.417   3.676
 5845TIP3    H117478   5.130   7.457   3.608
 5845TIP3    H217479   5.168   7.323   3.668
 5846TIP3   OH217480   6.747   5.822   5.777
 5846TIP3    H117481   6.655   5.796   5.769
 5846TIP3    H217482   6.745   5.902   5.828
 5847TIP3   OH217483   6.080   5.035   1.501
 5847TIP3    H117484   6.104   5.076   1.418
 5847TIP3    H217485   6.004   4.980   1.480
 5848TIP3   OH217486   4.888   3.576   5.144
 5848TIP3    H117487   4.959   3.517   5.120
 5848TIP3    H217488   4.839   3.529   5.212
 5849TIP3   OH217489   7.358   0.742   6.390
 5849TIP3    H117490   7.264   0.728   6.377
 5849TIP3    H217491   7.381   0.811   6.328
 5850TIP3   OH217492   2.598   5.981   1.612
 5850TIP3    H117493   2.509   5.999   1.644
 5850TIP3    H217494   2.623   5.900   1.655
 5851TIP3   OH217495   0.480   4.211   4.768
 5851TIP3    H117496   0.569   4.221   4.803
 5851TIP3    H217497   0.442   4.141   4.821
 5852TIP3   OH217498   3.480   0.985   2.606
 5852TIP3    H117499   3.510   1.002   2.695
 5852TIP3    H217500   3.548   0.929   2.569
 5853TIP3   OH217501   2.396   3.483   5.865
 5853TIP3    H117502   2.310   3.516   5.890
 5853TIP3    H217503   2.448   3.562   5.850
 5854TIP3   OH217504   1.540   6.712   3.965
 5854TIP3    H117505   1.507   6.668   4.043
 5854TIP3    H217506   1.614   6.658   3.936
 5855TIP3   OH217507   7.903   7.685   0.134
 5855TIP3    H117508   7.833   7.667   0.071
 5855TIP3    H217509   7.877   7.768   0.175
 5856TIP3   OH217510   6.682   4.585   0.167
 5856TIP3    H117511   6.593   4.550   0.156
 5856TIP3    H217512   6.734   4.510   0.196
 5857TIP3   OH217513   5.524   4.378   0.663
 5857TIP3    H117514   5.483   4.419   0.739
 5857TIP3    H217515   5.489   4.427   0.588
 5858TIP3   OH217516   0.350   3.827   3.532
 5858TIP3    H117517   0.382   3.737   3.536
 5858TIP3    H217518   0.419   3.874   3.485
 5859TIP3   OH217519   1.348   1.693   5.386
 5859TIP3    H117520   1.305   1.682   5.471
 5859TIP3    H217521   1.430   1.737   5.406
 5860TIP3   OH217522   1.762   2.736   4.670
 5860TIP3    H117523   1.853   2.734   4.700
 5860TIP3    H217524   1.749   2.652   4.626
 5861TIP3   OH217525   6.225   2.691   4.840
 5861TIP3    H117526   6.180   2.725   4.762
 5861TIP3    H217527   6.161   2.633   4.881
 5862TIP3   OH217528   3.673   4.684   1.847
 5862TIP3    H117529   3.724   4.604   1.841
 5862TIP3    H217530   3.636   4.683   1.936
 5863TIP3   OH217531   2.005   0.062   0.068
 5863TIP3    H117532   1.913   0.082   0.087
 5863TIP3    H217533   2.002   0.013  -0.014
 5864TIP3   OH217534   1.159   3.376   3.211
 5864TIP3    H117535   1.093   3.333   3.156
 5864TIP3    H217536   1.206   3.303   3.252
 5865TIP3   OH217537   6.040   2.218   1.808
 5865TIP3    H117538   5.978   2.275   1.763
 5865TIP3    H217539   6.072   2.158   1.741
 5866TIP3   OH217540   1.848   6.773   6.449
 5866TIP3    H117541   1.876   6.839   6.385
 5866TIP3    H217542   1.865   6.813   6.534
 5867TIP3   OH217543   7.975   5.030   5.522
 5867TIP3    H117544   7.960   5.013   5.615
 5867TIP3    H217545   8.066   5.005   5.508
 5868TIP3   OH217546   5.807   4.910   5.276
 5868TIP3    H117547   5.897   4.894   5.248
 5868TIP3    H217548   5.797   4.857   5.355
 5869TIP3   OH217549   5.067   7.221   6.730
 5869TIP3    H117550   5.151   7.258   6.702
 5869TIP3    H217551   5.034   7.174   6.654
 5870TIP3   OH217552   4.669   3.719   2.753
 5870TIP3    H117553   4.599   3.778   2.779
 5870TIP3    H217554   4.688   3.668   2.832
 5871TIP3   OH217555   6.264   5.357   3.981
 5871TIP3    H117556   6.196   5.293   4.000
 5871TIP3    H217557   6.322   5.353   4.058
 5872TIP3   OH217558   2.587   0.324   1.769
 5872TIP3    H117559   2.494   0.329   1.792
 5872TIP3    H217560   2.622   0.410   1.794
 5873TIP3   OH217561   4.009   3.029   2.379
 5873TIP3    H117562   3.915   3.009   2.376
 5873TIP3    H217563   4.033   3.016   2.471
 5874TIP3   OH217564   3.899   3.029   0.222
 5874TIP3    H117565   3.982   2.989   0.247
 5874TIP3    H217566   3.923   3.116   0.190
 5875TIP3   OH217567   0.565   3.636   5.876
 5875TIP3    H117568   0.598   3.681   5.953
 5875TIP3    H217569   0.470   3.640   5.884
 5876TIP3   OH217570   5.060   2.988   6.499
 5876TIP3    H117571   5.066   3.024   6.411
 5876TIP3    H217572   5.140   2.937   6.510
 5877TIP3   OH217573   6.056   6.932   6.215
 5877TIP3    H117574   5.970   6.951   6.179
 5877TIP3    H217575   6.054   6.838   6.233
 5878TIP3   OH217576   5.459   1.290   0.083
 5878TIP3    H117577   5.384   1.299   0.024
 5878TIP3    H217578   5.446   1.205   0.126
 5879TIP3   OH217579   3.840   4.902   2.961
 5879TIP3    H117580   3.905   4.935   3.023
 5879TIP3    H217581   3.757   4.905   3.008
 5880TIP3   OH217582   1.952   1.824   6.341
 5880TIP3    H117583   1.885   1.839   6.275
 5880TIP3    H217584   1.905   1.783   6.414
 5881TIP3   OH217585   2.839   1.268   2.151
 5881TIP3    H117586   2.926   1.278   2.191
 5881TIP3    H217587   2.841   1.323   2.073
 5882TIP3   OH217588   4.860   0.162   2.748
 5882TIP3    H117589   4.948   0.135   2.777
 5882TIP3    H217590   4.863   0.258   2.749
 5883TIP3   OH217591   3.767   4.682   4.486
 5883TIP3    H117592   3.737   4.696   4.576
 5883TIP3    H217593   3.694   4.638   4.443
 5884TIP3   OH217594   7.120   7.085   3.111
 5884TIP3    H117595   7.093   7.152   3.048
 5884TIP3    H217596   7.068   7.008   3.089
 5885TIP3   OH217597   1.970   2.438   1.826
 5885TIP3    H117598   2.041   2.502   1.840
 5885TIP3    H217599   1.891   2.492   1.824
 5886TIP3   OH217600   5.120   7.494   4.286
 5886TIP3    H117601   5.144   7.406   4.260
 5886TIP3    H217602   5.025   7.499   4.271
 5887TIP3   OH217603   1.033   4.451   4.401
 5887TIP3    H117604   1.075   4.404   4.329
 5887TIP3    H217605   0.984   4.384   4.449
 5888TIP3   OH217606   2.039   3.736   1.353
 5888TIP3    H117607   2.110   3.725   1.289
 5888TIP3    H217608   2.048   3.660   1.410
 5889TIP3   OH217609   3.506   2.626   1.834
 5889TIP3    H117610   3.600   2.610   1.828
 5889TIP3    H217611   3.482   2.661   1.748
 5890TIP3   OH217612   6.281   6.972   3.762
 5890TIP3    H117613   6.226   6.924   3.823
 5890TIP3    H217614   6.345   6.908   3.731
 5891TIP3   OH217615   0.397   5.421   6.244
 5891TIP3    H117616   0.390   5.511   6.274
 5891TIP3    H217617   0.357   5.369   6.314
 5892TIP3   OH217618   6.530   1.831   5.637
 5892TIP3    H117619   6.546   1.876   5.554
 5892TIP3    H217620   6.534   1.738   5.614
 5893TIP3   OH217621   4.729   0.274   2.114
 5893TIP3    H117622   4.680   0.343   2.070
 5893TIP3    H217623   4.678   0.255   2.193
 5894TIP3   OH217624   4.134   0.276   1.653
 5894TIP3    H117625   4.224   0.284   1.620
 5894TIP3    H217626   4.144   0.270   1.748
 5895TIP3   OH217627   3.981   2.366   2.730
 5895TIP3    H117628   3.993   2.355   2.824
 5895TIP3    H217629   4.047   2.431   2.705
 5896TIP3   OH217630   3.514   1.166   2.282
 5896TIP3    H117631   3.565   1.086   2.295
 5896TIP3    H217632   3.512   1.177   2.187
 5897TIP3   OH217633   2.004   4.100   3.993
 5897TIP3    H117634   1.937   4.034   3.976
 5897TIP3    H217635   1.955   4.176   4.025
 5898TIP3   OH217636   3.728   5.633   5.817
 5898TIP3    H117637   3.655   5.687   5.788
 5898TIP3    H217638   3.787   5.629   5.741
 5899TIP3   OH217639   5.387   0.825   0.513
 5899TIP3    H117640   5.406   0.908   0.468
 5899TIP3    H217641   5.354   0.767   0.444
 5900TIP3   OH217642   4.183   6.623   5.129
 5900TIP3    H117643   4.152   6.713   5.130
 5900TIP3    H217644   4.218   6.608   5.216
 5901TIP3   OH217645   5.676   3.182   0.002
 5901TIP3    H117646   5.657   3.187   0.096
 5901TIP3    H217647   5.762   3.222  -0.007
 5902TIP3   OH217648   5.095   0.640   5.027
 5902TIP3    H117649   5.069   0.548   5.015
 5902TIP3    H217650   5.063   0.663   5.114
 5903TIP3   OH217651   4.279   0.849   5.137
 5903TIP3    H117652   4.358   0.857   5.190
 5903TIP3    H217653   4.236   0.770   5.169
 5904TIP3   OH217654   5.107   2.208   2.388
 5904TIP3    H117655   5.171   2.271   2.421
 5904TIP3    H217656   5.143   2.122   2.412
 5905TIP3   OH217657   3.984   5.537   6.710
 5905TIP3    H117658   3.915   5.475   6.732
 5905TIP3    H217659   3.941   5.601   6.653
 5906TIP3   OH217660   3.231   6.993   5.531
 5906TIP3    H117661   3.253   6.961   5.618
 5906TIP3    H217662   3.300   7.056   5.510
 5907TIP3   OH217663   4.962   0.617   2.504
 5907TIP3    H117664   4.940   0.704   2.537
 5907TIP3    H217665   4.928   0.617   2.414
 5908TIP3   OH217666   6.290   3.941   6.114
 5908TIP3    H117667   6.386   3.939   6.105
 5908TIP3    H217668   6.276   3.984   6.199
 5909TIP3   OH217669   3.252   4.875   0.938
 5909TIP3    H117670   3.293   4.821   1.006
 5909TIP3    H217671   3.186   4.817   0.898
 5910TIP3   OH217672   8.124   5.875   2.075
 5910TIP3    H117673   8.176   5.919   2.008
 5910TIP3    H217674   8.114   5.940   2.145
 5911TIP3   OH217675   4.263   5.455   4.831
 5911TIP3    H117676   4.278   5.508   4.752
 5911TIP3    H217677   4.350   5.421   4.853
 5912TIP3   OH217678   5.879   0.931   4.917
 5912TIP3    H117679   5.920   0.995   4.975
 5912TIP3    H217680   5.790   0.922   4.950
 5913TIP3   OH217681   4.381   3.178   1.944
 5913TIP3    H117682   4.451   3.137   1.994
 5913TIP3    H217683   4.302   3.131   1.969
 5914TIP3   OH217684   7.389   6.308   2.968
 5914TIP3    H117685   7.403   6.213   2.967
 5914TIP3    H217686   7.476   6.344   2.952
 5915TIP3   OH217687   5.796   3.295   0.749
 5915TIP3    H117688   5.794   3.389   0.766
 5915TIP3    H217689   5.707   3.274   0.718
 5916TIP3   OH217690   3.167   1.696   1.995
 5916TIP3    H117691   3.152   1.662   2.083
 5916TIP3    H217692   3.085   1.738   1.971
 5917TIP3   OH217693   4.937   6.449   4.548
 5917TIP3    H117694   4.953   6.507   4.473
 5917TIP3    H217695   5.009   6.386   4.545
 5918TIP3   OH217696   1.746   2.561   2.126
 5918TIP3    H117697   1.725   2.600   2.041
 5918TIP3    H217698   1.716   2.470   2.119
 5919TIP3   OH217699   0.663   7.493   1.564
 5919TIP3    H117700   0.583   7.440   1.572
 5919TIP3    H217701   0.718   7.463   1.636
 5920TIP3   OH217702   6.295   3.503   2.345
 5920TIP3    H117703   6.314   3.531   2.255
 5920TIP3    H217704   6.202   3.520   2.356
 5921TIP3   OH217705   0.761   5.160   0.448
 5921TIP3    H117706   0.822   5.099   0.489
 5921TIP3    H217707   0.675   5.137   0.484
 5922TIP3   OH217708   6.453   0.735   2.386
 5922TIP3    H117709   6.450   0.689   2.470
 5922TIP3    H217710   6.528   0.795   2.394
 5923TIP3   OH217711   1.206   1.743   6.063
 5923TIP3    H117712   1.135   1.805   6.049
 5923TIP3    H217713   1.216   1.738   6.158
 5924TIP3   OH217714   1.302   6.354   1.858
 5924TIP3    H117715   1.217   6.389   1.884
 5924TIP3    H217716   1.344   6.330   1.941
 5925TIP3   OH217717   4.218   3.865   1.010
 5925TIP3    H117718   4.301   3.901   1.039
 5925TIP3    H217719   4.199   3.911   0.928
 5926TIP3   OH217720   5.977   7.227   4.780
 5926TIP3    H117721   6.021   7.306   4.749
 5926TIP3    H217722   5.890   7.256   4.806
 5927TIP3   OH217723   0.085   4.285   0.138
 5927TIP3    H117724   0.015   4.234   0.180
 5927TIP3    H217725   0.101   4.357   0.199
 5928TIP3   OH217726   6.353   7.826   5.968
 5928TIP3    H117727   6.413   7.859   6.034
 5928TIP3    H217728   6.310   7.751   6.010
 5929TIP3   OH217729   4.744   3.822   0.622
 5929TIP3    H117730   4.688   3.799   0.548
 5929TIP3    H217731   4.719   3.912   0.645
 5930TIP3   OH217732   0.299   0.674   4.030
 5930TIP3    H117733   0.393   0.665   4.049
 5930TIP3    H217734   0.282   0.610   3.962
 5931TIP3   OH217735   6.181   3.020   5.575
 5931TIP3    H117736   6.175   2.964   5.498
 5931TIP3    H217737   6.118   2.982   5.637
 5932TIP3   OH217738   4.456   7.010   3.264
 5932TIP3    H117739   4.429   6.936   3.318
 5932TIP3    H217740   4.408   7.085   3.300
 5933TIP3   OH217741   3.022   0.559   1.035
 5933TIP3    H117742   3.008   0.654   1.046
 5933TIP3    H217743   3.018   0.545   0.941
 5934TIP3   OH217744   6.346   3.224   5.675
 5934TIP3    H117745   6.322   3.134   5.654
 5934TIP3    H217746   6.316   3.236   5.765
 5935TIP3   OH217747   7.856   0.775   4.502
 5935TIP3    H117748   7.922   0.767   4.434
 5935TIP3    H217749   7.906   0.787   4.583
 5936TIP3   OH217750   4.075   5.551   3.075
 5936TIP3    H117751   4.047   5.575   3.163
 5936TIP3    H217752   4.057   5.629   3.022
 5937TIP3   OH217753   7.635   1.290   2.638
 5937TIP3    H117754   7.614   1.253   2.724
 5937TIP3    H217755   7.551   1.294   2.593
 5938TIP3   OH217756   5.244   3.787   2.903
 5938TIP3    H117757   5.197   3.711   2.938
 5938TIP3    H217758   5.200   3.862   2.943
 5939TIP3   OH217759   1.494   7.504   3.183
 5939TIP3    H117760   1.545   7.569   3.136
 5939TIP3    H217761   1.496   7.532   3.274
 5940TIP3   OH217762   1.882   7.395   4.500
 5940TIP3    H117763   1.924   7.316   4.533
 5940TIP3    H217764   1.919   7.408   4.413
 5941TIP3   OH217765   1.284   0.451   1.665
 5941TIP3    H117766   1.258   0.506   1.592
 5941TIP3    H217767   1.358   0.400   1.632
 5942TIP3   OH217768   2.122   1.045   0.134
 5942TIP3    H117769   2.148   1.058   0.043
 5942TIP3    H217770   2.102   1.133   0.166
 5943TIP3   OH217771   0.118   6.497   2.514
 5943TIP3    H117772   0.182   6.523   2.448
 5943TIP3    H217773   0.033   6.516   2.475
 5944TIP3   OH217774   4.124   7.510   0.071
 5944TIP3    H117775   4.053   7.519   0.135
 5944TIP3    H217776   4.189   7.574   0.098
 5945TIP3   OH217777   7.027   2.039   3.701
 5945TIP3    H117778   6.992   2.017   3.788
 5945TIP3    H217779   6.967   1.998   3.639
 5946TIP3   OH217780   1.848   2.097   0.873
 5946TIP3    H117781   1.836   2.052   0.789
 5946TIP3    H217782   1.833   2.029   0.938
 5947TIP3   OH217783   5.930   0.343   1.226
 5947TIP3    H117784   5.841   0.372   1.243
 5947TIP3    H217785   5.931   0.250   1.249
 5948TIP3   OH217786   4.808   4.062   2.060
 5948TIP3    H117787   4.903   4.067   2.048
 5948TIP3    H217788   4.773   4.122   1.994
 5949TIP3   OH217789   2.634   4.849   3.187
 5949TIP3    H117790   2.641   4.830   3.280
 5949TIP3    H217791   2.685   4.779   3.145
 5950TIP3   OH217792   5.958   4.278   4.658
 5950TIP3    H117793   6.053   4.275   4.645
 5950TIP3    H217794   5.939   4.201   4.712
 5951TIP3   OH217795   3.379   7.048   1.522
 5951TIP3    H117796   3.289   7.071   1.500
 5951TIP3    H217797   3.432   7.095   1.458
 5952TIP3   OH217798   4.990   4.320   2.252
 5952TIP3    H117799   4.945   4.243   2.285
 5952TIP3    H217800   4.935   4.352   2.181
 5953TIP3   OH217801   5.520   7.242   0.225
 5953TIP3    H117802   5.438   7.194   0.212
 5953TIP3    H217803   5.570   7.227   0.145
 5954TIP3   OH217804   2.932   5.674   3.345
 5954TIP3    H117805   2.963   5.671   3.436
 5954TIP3    H217806   2.846   5.630   3.348
 5955TIP3   OH217807   8.259   0.447   4.138
 5955TIP3    H117808   8.354   0.435   4.145
 5955TIP3    H217809   8.234   0.391   4.064
 5956TIP3   OH217810   3.638   3.826   2.346
 5956TIP3    H117811   3.569   3.881   2.310
 5956TIP3    H217812   3.601   3.792   2.428
 5957TIP3   OH217813   6.664   3.507   5.740
 5957TIP3    H117814   6.631   3.437   5.684
 5957TIP3    H217815   6.659   3.586   5.686
 5958TIP3   OH217816   7.202   3.589   3.820
 5958TIP3    H117817   7.192   3.595   3.725
 5958TIP3    H217818   7.284   3.634   3.839
 5959TIP3   OH217819   5.647   2.776   6.640
 5959TIP3    H117820   5.626   2.869   6.649
 5959TIP3    H217821   5.676   2.766   6.550
 5960TIP3   OH217822   4.800   4.900   2.888
 5960TIP3    H117823   4.816   4.961   2.816
 5960TIP3    H217824   4.733   4.841   2.855
 5961TIP3   OH217825   6.955   1.563   3.389
 5961TIP3    H117826   7.006   1.482   3.381
 5961TIP3    H217827   6.955   1.582   3.483
 5962TIP3   OH217828   4.275   4.525   3.009
 5962TIP3    H117829   4.266   4.594   3.074
 5962TIP3    H217830   4.264   4.570   2.925
 5963TIP3   OH217831   1.247   1.264   2.981
 5963TIP3    H117832   1.192   1.280   3.057
 5963TIP3    H217833   1.237   1.170   2.963
 5964TIP3   OH217834   2.653   1.045   4.345
 5964TIP3    H117835   2.653   1.044   4.440
 5964TIP3    H217836   2.572   1.000   4.320
 5965TIP3   OH217837   6.638   1.394   5.063
 5965TIP3    H117838   6.670   1.323   5.118
 5965TIP3    H217839   6.711   1.416   5.006
 5966TIP3   OH217840   2.194   0.251   0.772
 5966TIP3    H117841   2.247   0.190   0.824
 5966TIP3    H217842   2.228   0.338   0.794
 5967TIP3   OH217843   3.735   5.723   1.434
 5967TIP3    H117844   3.739   5.664   1.510
 5967TIP3    H217845   3.760   5.669   1.360
 5968TIP3   OH217846   5.137   5.449   3.483
 5968TIP3    H117847   5.231   5.463   3.492
 5968TIP3    H217848   5.123   5.358   3.511
 5969TIP3   OH217849   3.041   4.249   5.930
 5969TIP3    H117850   3.005   4.220   6.014
 5969TIP3    H217851   3.026   4.344   5.930
 5970TIP3   OH217852   0.332   4.977   0.223
 5970TIP3    H117853   0.372   4.936   0.147
 5970TIP3    H217854   0.253   5.020   0.189
 5971TIP3   OH217855   0.847   3.437   4.363
 5971TIP3    H117856   0.936   3.424   4.396
 5971TIP3    H217857   0.835   3.532   4.365
 5972TIP3   OH217858   1.813   2.592   4.945
 5972TIP3    H117859   1.848   2.522   4.889
 5972TIP3    H217860   1.774   2.654   4.885
 5973TIP3   OH217861   1.705   4.888   0.222
 5973TIP3    H117862   1.618   4.872   0.259
 5973TIP3    H217863   1.749   4.804   0.226
 5974TIP3   OH217864   5.476   2.919   2.044
 5974TIP3    H117865   5.477   2.847   1.981
 5974TIP3    H217866   5.529   2.988   2.003
 5975TIP3   OH217867   5.365   6.669   5.497
 5975TIP3    H117868   5.420   6.649   5.572
 5975TIP3    H217869   5.377   6.763   5.483
 5976TIP3   OH217870   1.282   5.907   4.483
 5976TIP3    H117871   1.349   5.926   4.548
 5976TIP3    H217872   1.200   5.931   4.526
 5977TIP3   OH217873   8.084   6.540   5.773
 5977TIP3    H117874   8.121   6.627   5.757
 5977TIP3    H217875   8.119   6.486   5.701
 5978TIP3   OH217876   6.589   3.199   6.116
 5978TIP3    H117877   6.613   3.107   6.124
 5978TIP3    H217878   6.629   3.228   6.034
 5979TIP3   OH217879   4.616   0.661   6.578
 5979TIP3    H117880   4.678   0.717   6.533
 5979TIP3    H217881   4.664   0.580   6.596
 5980TIP3   OH217882   3.762   5.701   2.772
 5980TIP3    H117883   3.718   5.743   2.846
 5980TIP3    H217884   3.695   5.644   2.733
 5981TIP3   OH217885   1.846   3.589   4.376
 5981TIP3    H117886   1.793   3.603   4.455
 5981TIP3    H217887   1.912   3.659   4.379
 5982TIP3   OH217888   8.185   7.353   3.659
 5982TIP3    H117889   8.099   7.389   3.680
 5982TIP3    H217890   8.247   7.412   3.703
 5983TIP3   OH217891   1.209   2.550   5.773
 5983TIP3    H117892   1.160   2.550   5.855
 5983TIP3    H217893   1.295   2.516   5.797
 5984TIP3   OH217894   1.820   2.718   0.219
 5984TIP3    H117895   1.877   2.794   0.233
 5984TIP3    H217896   1.838   2.662   0.295
 5985TIP3   OH217897   4.393   1.328   0.236
 5985TIP3    H117898   4.425   1.327   0.326
 5985TIP3    H217899   4.405   1.419   0.207
 5986TIP3   OH217900   2.761   1.424   4.998
 5986TIP3    H117901   2.740   1.495   5.059
 5986TIP3    H217902   2.676   1.392   4.969
 5987TIP3   OH217903   6.587   0.842   4.839
 5987TIP3    H117904   6.666   0.891   4.814
 5987TIP3    H217905   6.517   0.880   4.785
 5988TIP3   OH217906   4.439   2.396   1.997
 5988TIP3    H117907   4.372   2.441   2.047
 5988TIP3    H217908   4.520   2.411   2.046
 5989TIP3   OH217909   1.543   0.780   2.539
 5989TIP3    H117910   1.548   0.704   2.598
 5989TIP3    H217911   1.561   0.744   2.452
 5990TIP3   OH217912   8.072   2.774   2.008
 5990TIP3    H117913   8.065   2.771   2.104
 5990TIP3    H217914   8.050   2.865   1.986
 5991TIP3   OH217915   6.211   6.496   0.409
 5991TIP3    H117916   6.246   6.526   0.325
 5991TIP3    H217917   6.116   6.497   0.396
 5992TIP3   OH217918   4.106   5.438   2.499
 5992TIP3    H117919   4.014   5.421   2.521
 5992TIP3    H217920   4.108   5.532   2.479
 5993TIP3   OH217921   7.988   5.465   4.681
 5993TIP3    H117922   7.969   5.512   4.762
 5993TIP3    H217923   8.075   5.496   4.655
 5994TIP3   OH217924   0.742   5.738   3.471
 5994TIP3    H117925   0.650   5.711   3.471
 5994TIP3    H217926   0.786   5.670   3.522
 5995TIP3   OH217927   4.350   0.158   5.257
 5995TIP3    H117928   4.430   0.107   5.255
 5995TIP3    H217929   4.371   0.234   5.312
 5996TIP3   OH217930   1.470   6.480   3.648
 5996TIP3    H117931   1.457   6.495   3.742
 5996TIP3    H217932   1.400   6.419   3.624
 5997TIP3   OH217933   1.310   7.361   0.748
 5997TIP3    H117934   1.337   7.419   0.677
 5997TIP3    H217935   1.369   7.286   0.742
 5998TIP3   OH217936   0.529   1.293   3.053
 5998TIP3    H117937   0.481   1.241   2.989
 5998TIP3    H217938   0.497   1.382   3.040
 5999TIP3   OH217939   5.453   3.955   3.597
 5999TIP3    H117940   5.495   4.014   3.534
 5999TIP3    H217941   5.359   3.968   3.584
 6000TIP3   OH217942   0.215   3.679   1.509
 6000TIP3    H117943   0.247   3.621   1.441
 6000TIP3    H217944   0.122   3.691   1.490
 6001TIP3   OH217945   4.269   2.902   6.506
 6001TIP3    H117946   4.193   2.956   6.484
 6001TIP3    H217947   4.295   2.932   6.593
 6002TIP3   OH217948   0.678   4.814   5.012
 6002TIP3    H117949   0.688   4.878   5.082
 6002TIP3    H217950   0.590   4.779   5.023
 6003TIP3   OH217951   2.539   1.331   2.138
 6003TIP3    H117952   2.532   1.270   2.064
 6003TIP3    H217953   2.548   1.275   2.215
 6004TIP3   OH217954   8.289   6.918   3.917
 6004TIP3    H117955   8.344   6.885   3.988
 6004TIP3    H217956   8.204   6.935   3.959
 6005TIP3   OH217957   2.337   5.389   4.331
 6005TIP3    H117958   2.427   5.410   4.356
 6005TIP3    H217959   2.284   5.430   4.399
 6006TIP3   OH217960   7.829   1.770   3.012
 6006TIP3    H117961   7.816   1.856   2.973
 6006TIP3    H217962   7.922   1.752   3.000
 6007TIP3   OH217963   7.124   7.466   0.552
 6007TIP3    H117964   7.147   7.463   0.459
 6007TIP3    H217965   7.208   7.469   0.597
 6008TIP3   OH217966   4.205   3.337   3.074
 6008TIP3    H117967   4.256   3.257   3.083
 6008TIP3    H217968   4.269   3.405   3.053
 6009TIP3   OH217969   6.874   0.316   1.110
 6009TIP3    H117970   6.845   0.296   1.021
 6009TIP3    H217971   6.802   0.368   1.146
 6010TIP3   OH217972   4.399   1.899   1.896
 6010TIP3    H117973   4.381   1.865   1.984
 6010TIP3    H217974   4.423   1.990   1.909
 6011TIP3   OH217975   2.183   3.430   2.694
 6011TIP3    H117976   2.173   3.360   2.758
 6011TIP3    H217977   2.267   3.412   2.651
 6012TIP3   OH217978   1.744   1.252   6.581
 6012TIP3    H117979   1.732   1.342   6.551
 6012TIP3    H217980   1.662   1.232   6.627
 6013TIP3   OH217981   2.406   2.237   5.890
 6013TIP3    H117982   2.382   2.304   5.953
 6013TIP3    H217983   2.324   2.216   5.845
 6014TIP3   OH217984   1.052   6.364   6.349
 6014TIP3    H117985   1.138   6.394   6.378
 6014TIP3    H217986   1.069   6.279   6.307
 6015TIP3   OH217987   6.240   1.474   1.470
 6015TIP3    H117988   6.269   1.384   1.457
 6015TIP3    H217989   6.144   1.468   1.474
 6016TIP3   OH217990   3.665   0.992   6.149
 6016TIP3    H117991   3.641   0.929   6.217
 6016TIP3    H217992   3.601   1.063   6.158
 6017TIP3   OH217993   0.334   1.492   0.818
 6017TIP3    H117994   0.296   1.489   0.906
 6017TIP3    H217995   0.317   1.405   0.782
 6018TIP3   OH217996   1.104   5.078   2.806
 6018TIP3    H117997   1.113   5.010   2.873
 6018TIP3    H217998   1.012   5.104   2.811
 6019TIP3   OH217999   3.745   1.602   6.628
 6019TIP3    H118000   3.661   1.571   6.661
 6019TIP3    H218001   3.728   1.692   6.600
 6020TIP3   OH218002   8.295   5.084   2.079
 6020TIP3    H118003   8.322   5.157   2.135
 6020TIP3    H218004   8.203   5.071   2.099
 6021TIP3   OH218005   3.945   4.056   5.235
 6021TIP3    H118006   3.925   4.149   5.246
 6021TIP3    H218007   3.903   4.014   5.310
 6022TIP3   OH218008   5.963   3.936   6.142
 6022TIP3    H118009   6.028   3.992   6.185
 6022TIP3    H218010   5.904   3.909   6.212
 6023TIP3   OH218011   6.847   4.057   1.162
 6023TIP3    H118012   6.766   4.096   1.196
 6023TIP3    H218013   6.903   4.048   1.240
 6024TIP3   OH218014   6.995   5.846   6.718
 6024TIP3    H118015   7.012   5.826   6.810
 6024TIP3    H218016   7.052   5.786   6.669
 6025TIP3   OH218017   7.617   1.876   6.311
 6025TIP3    H118018   7.589   1.785   6.326
 6025TIP3    H218019   7.538   1.920   6.279
 6026TIP3   OH218020   1.955   5.775   2.174
 6026TIP3    H118021   1.900   5.822   2.111
 6026TIP3    H218022   1.997   5.706   2.121
 6027TIP3   OH218023   1.327   7.001   3.022
 6027TIP3    H118024   1.403   6.947   3.040
 6027TIP3    H218025   1.254   6.938   3.015
 6028TIP3   OH218026   4.623   3.303   6.327
 6028TIP3    H118027   4.540   3.294   6.374
 6028TIP3    H218028   4.603   3.365   6.256
 6029TIP3   OH218029   5.361   4.723   2.784
 6029TIP3    H118030   5.295   4.670   2.830
 6029TIP3    H218031   5.374   4.679   2.701
 6030TIP3   OH218032   3.303   3.111   5.567
 6030TIP3    H118033   3.238   3.043   5.547
 6030TIP3    H218034   3.251   3.190   5.582
 6031TIP3   OH218035   5.045   4.868   1.957
 6031TIP3    H118036   5.122   4.914   1.923
 6031TIP3    H218037   5.049   4.782   1.914
 6032TIP3   OH218038   2.679   5.231   6.622
 6032TIP3    H118039   2.663   5.275   6.539
 6032TIP3    H218040   2.661   5.139   6.604
 6033TIP3   OH218041   0.633   5.217   2.533
 6033TIP3    H118042   0.621   5.125   2.557
 6033TIP3    H218043   0.714   5.218   2.483
 6034TIP3   OH218044   1.376   5.919   3.224
 6034TIP3    H118045   1.426   5.846   3.188
 6034TIP3    H218046   1.403   5.994   3.171
 6035TIP3   OH218047   4.136   7.008   0.897
 6035TIP3    H118048   4.086   6.995   0.817
 6035TIP3    H218049   4.074   6.991   0.968
 6036TIP3   OH218050   4.957   2.188   1.491
 6036TIP3    H118051   4.863   2.205   1.486
 6036TIP3    H218052   4.982   2.219   1.578
 6037TIP3   OH218053  -0.004   1.592   0.233
 6037TIP3    H118054   0.041   1.652   0.291
 6037TIP3    H218055  -0.054   1.535   0.291
 6038TIP3   OH218056   3.357   6.780   5.370
 6038TIP3    H118057   3.385   6.718   5.438
 6038TIP3    H218058   3.316   6.852   5.418
 6039TIP3   OH218059   0.148   7.450   1.557
 6039TIP3    H118060   0.109   7.431   1.472
 6039TIP3    H218061   0.074   7.449   1.618
 6040TIP3   OH218062   4.437   2.283   3.062
 6040TIP3    H118063   4.416   2.192   3.044
 6040TIP3    H218064   4.366   2.333   3.023
 6041TIP3   OH218065   7.336   3.825   6.496
 6041TIP3    H118066   7.336   3.874   6.413
 6041TIP3    H218067   7.244   3.810   6.514
 6042TIP3   OH218068   7.962   3.450   1.411
 6042TIP3    H118069   7.907   3.514   1.367
 6042TIP3    H218070   7.972   3.380   1.347
 6043TIP3   OH218071   2.775   2.559   5.544
 6043TIP3    H118072   2.712   2.531   5.611
 6043TIP3    H218073   2.721   2.605   5.480
 6044TIP3   OH218074   4.699   6.621   5.822
 6044TIP3    H118075   4.746   6.562   5.762
 6044TIP3    H218076   4.669   6.564   5.893
 6045TIP3   OH218077   4.206   4.222   4.231
 6045TIP3    H118078   4.240   4.211   4.320
 6045TIP3    H218079   4.115   4.193   4.236
 6046TIP3   OH218080   6.231   2.242   6.345
 6046TIP3    H118081   6.299   2.177   6.331
 6046TIP3    H218082   6.184   2.212   6.423
 6047TIP3   OH218083   6.203   3.703   0.420
 6047TIP3    H118084   6.291   3.741   0.424
 6047TIP3    H218085   6.216   3.617   0.379
 6048TIP3   OH218086   5.475   3.291   3.742
 6048TIP3    H118087   5.425   3.351   3.797
 6048TIP3    H218088   5.421   3.212   3.737
 6049TIP3   OH218089   4.461   4.191   5.525
 6049TIP3    H118090   4.463   4.268   5.468
 6049TIP3    H218091   4.523   4.211   5.595
 6050TIP3   OH218092   0.612   4.293   5.327
 6050TIP3    H118093   0.676   4.351   5.287
 6050TIP3    H218094   0.616   4.313   5.421
 6051TIP3   OH218095   1.526   5.744   0.884
 6051TIP3    H118096   1.486   5.751   0.797
 6051TIP3    H218097   1.558   5.832   0.903
 6052TIP3   OH218098   5.639   0.368   0.942
 6052TIP3    H118099   5.669   0.299   0.883
 6052TIP3    H218100   5.708   0.433   0.940
 6053TIP3   OH218101   1.100   1.329   4.492
 6053TIP3    H118102   1.110   1.412   4.538
 6053TIP3    H218103   1.018   1.292   4.527
 6054TIP3   OH218104   4.797   2.053   6.020
 6054TIP3    H118105   4.814   2.002   5.940
 6054TIP3    H218106   4.790   1.987   6.089
 6055TIP3   OH218107   4.095   3.100   6.353
 6055TIP3    H118108   4.024   3.065   6.299
 6055TIP3    H218109   4.144   3.157   6.294
 6056TIP3   OH218110   5.441   0.756   6.716
 6056TIP3    H118111   5.381   0.748   6.789
 6056TIP3    H218112   5.501   0.826   6.742
 6057TIP3   OH218113   1.082   2.441   4.393
 6057TIP3    H118114   1.000   2.415   4.351
 6057TIP3    H218115   1.118   2.358   4.427
 6058TIP3   OH218116   2.338   4.104   2.665
 6058TIP3    H118117   2.335   4.165   2.738
 6058TIP3    H218118   2.267   4.042   2.682
 6059TIP3   OH218119   2.171   1.254   2.179
 6059TIP3    H118120   2.105   1.186   2.183
 6059TIP3    H218121   2.252   1.211   2.207
 6060TIP3   OH218122   2.838   7.429   6.036
 6060TIP3    H118123   2.776   7.500   6.020
 6060TIP3    H218124   2.784   7.353   6.053
 6061TIP3   OH218125   7.182   0.017   0.643
 6061TIP3    H118126   7.217   0.104   0.660
 6061TIP3    H218127   7.255  -0.042   0.659
 6062TIP3   OH218128   2.523   6.402   0.310
 6062TIP3    H118129   2.579   6.353   0.371
 6062TIP3    H218130   2.550   6.372   0.223
 6063TIP3   OH218131   7.484   6.877   6.222
 6063TIP3    H118132   7.486   6.895   6.316
 6063TIP3    H218133   7.576   6.879   6.195
 6064TIP3   OH218134   6.993   4.575   3.740
 6064TIP3    H118135   7.025   4.650   3.790
 6064TIP3    H218136   7.007   4.500   3.798
 6065TIP3   OH218137   3.497   7.754   5.996
 6065TIP3    H118138   3.503   7.837   6.043
 6065TIP3    H218139   3.587   7.722   5.990
 6066TIP3   OH218140   5.967   1.657   2.274
 6066TIP3    H118141   5.897   1.719   2.293
 6066TIP3    H218142   5.955   1.635   2.181
 6067TIP3   OH218143   7.915   0.197   3.309
 6067TIP3    H118144   7.978   0.260   3.345
 6067TIP3    H218145   7.867   0.245   3.242
 6068TIP3   OH218146   0.218   3.834   2.441
 6068TIP3    H118147   0.209   3.908   2.380
 6068TIP3    H218148   0.143   3.778   2.420
 6069TIP3   OH218149   7.913   3.003   4.101
 6069TIP3    H118150   7.871   2.923   4.132
 6069TIP3    H218151   7.976   2.973   4.035
 6070TIP3   OH218152   5.227   7.562   4.523
 6070TIP3    H118153   5.237   7.474   4.559
 6070TIP3    H218154   5.197   7.548   4.433
 6071TIP3   OH218155   0.428   0.656   0.510
 6071TIP3    H118156   0.474   0.585   0.465
 6071TIP3    H218157   0.340   0.622   0.524
 6072TIP3   OH218158   5.280   2.814   0.655
 6072TIP3    H118159   5.247   2.824   0.745
 6072TIP3    H218160   5.227   2.744   0.618
 6073TIP3   OH218161   7.648   2.508   0.137
 6073TIP3    H118162   7.700   2.588   0.128
 6073TIP3    H218163   7.713   2.438   0.143
 6074TIP3   OH218164   1.782   1.220   4.857
 6074TIP3    H118165   1.792   1.131   4.822
 6074TIP3    H218166   1.717   1.261   4.800
 6075TIP3   OH218167   6.839   1.029   3.864
 6075TIP3    H118168   6.837   1.051   3.771
 6075TIP3    H218169   6.852   0.934   3.866
 6076TIP3   OH218170   0.440   1.206   4.550
 6076TIP3    H118171   0.497   1.146   4.599
 6076TIP3    H218172   0.437   1.285   4.604
 6077TIP3   OH218173   5.866   2.035   3.915
 6077TIP3    H118174   5.940   2.038   3.975
 6077TIP3    H218175   5.829   2.124   3.917
 6078TIP3   OH218176   3.543   6.060   4.612
 6078TIP3    H118177   3.489   6.065   4.691
 6078TIP3    H218178   3.482   6.036   4.543
 6079TIP3   OH218179   6.874   2.098   5.115
 6079TIP3    H118180   6.966   2.122   5.116
 6079TIP3    H218181   6.859   2.055   5.199
 6080TIP3   OH218182   8.044   6.385   4.010
 6080TIP3    H118183   8.130   6.400   4.050
 6080TIP3    H218184   7.989   6.456   4.042
 6081TIP3   OH218185   0.950   2.040   4.931
 6081TIP3    H118186   0.902   2.103   4.877
 6081TIP3    H218187   1.022   2.091   4.968
 6082TIP3   OH218188   6.757   1.388   3.343
 6082TIP3    H118189   6.818   1.457   3.318
 6082TIP3    H218190   6.671   1.420   3.314
 6083TIP3   OH218191   3.182   0.421   0.775
 6083TIP3    H118192   3.107   0.474   0.747
 6083TIP3    H218193   3.143   0.344   0.815
 6084TIP3   OH218194   5.292   5.060   2.140
 6084TIP3    H118195   5.340   5.088   2.062
 6084TIP3    H218196   5.278   4.966   2.127
 6085TIP3   OH218197   5.526   3.521   1.330
 6085TIP3    H118198   5.503   3.444   1.278
 6085TIP3    H218199   5.461   3.587   1.307
 6086TIP3   OH218200   8.132   1.282   2.584
 6086TIP3    H118201   8.047   1.318   2.563
 6086TIP3    H218202   8.172   1.346   2.643
 6087TIP3   OH218203   5.489   4.612   1.159
 6087TIP3    H118204   5.521   4.560   1.085
 6087TIP3    H218205   5.394   4.607   1.152
 6088TIP3   OH218206   5.758   3.917   4.391
 6088TIP3    H118207   5.741   3.916   4.297
 6088TIP3    H218208   5.681   3.959   4.429
 6089TIP3   OH218209   5.946   1.012   1.075
 6089TIP3    H118210   5.951   0.949   1.147
 6089TIP3    H218211   5.898   1.087   1.112
 6090TIP3   OH218212   5.151   1.447   1.553
 6090TIP3    H118213   5.061   1.414   1.553
 6090TIP3    H218214   5.150   1.519   1.615
 6091TIP3   OH218215   5.294   5.454   4.318
 6091TIP3    H118216   5.233   5.450   4.245
 6091TIP3    H218217   5.380   5.441   4.279
 6092TIP3   OH218218   0.585   5.173   4.425
 6092TIP3    H118219   0.678   5.195   4.424
 6092TIP3    H218220   0.567   5.136   4.339
 6093TIP3   OH218221   5.209   0.181   3.534
 6093TIP3    H118222   5.155   0.145   3.605
 6093TIP3    H218223   5.228   0.271   3.562
 6094TIP3   OH218224   3.632   6.026   0.224
 6094TIP3    H118225   3.687   6.089   0.271
 6094TIP3    H218226   3.676   6.015   0.140
 6095TIP3   OH218227   3.487   1.817   2.586
 6095TIP3    H118228   3.462   1.880   2.519
 6095TIP3    H218229   3.404   1.790   2.625
 6096TIP3   OH218230   8.193   4.517   5.515
 6096TIP3    H118231   8.243   4.578   5.461
 6096TIP3    H218232   8.250   4.500   5.590
 6097TIP3   OH218233   7.494   1.337   0.782
 6097TIP3    H118234   7.415   1.391   0.778
 6097TIP3    H218235   7.495   1.303   0.871
 6098TIP3   OH218236   4.038   3.601   6.759
 6098TIP3    H118237   4.021   3.538   6.829
 6098TIP3    H218238   3.960   3.598   6.704
 6099TIP3   OH218239   4.242   3.491   0.202
 6099TIP3    H118240   4.216   3.535   0.283
 6099TIP3    H218241   4.218   3.553   0.133
 6100TIP3   OH218242   7.754   0.798   5.535
 6100TIP3    H118243   7.679   0.857   5.542
 6100TIP3    H218244   7.782   0.783   5.625
 6101TIP3   OH218245   1.407   0.542   6.358
 6101TIP3    H118246   1.373   0.528   6.270
 6101TIP3    H218247   1.443   0.457   6.384
 6102TIP3   OH218248   0.302   5.632   0.938
 6102TIP3    H118249   0.398   5.632   0.932
 6102TIP3    H218250   0.278   5.725   0.935
 6103TIP3   OH218251   3.532   5.528   4.229
 6103TIP3    H118252   3.450   5.571   4.252
 6103TIP3    H218253   3.505   5.449   4.182
 6104TIP3   OH218254   5.830   6.186   1.777
 6104TIP3    H118255   5.880   6.112   1.744
 6104TIP3    H218256   5.742   6.151   1.791
 6105TIP3   OH218257   5.296   0.689   2.146
 6105TIP3    H118258   5.344   0.607   2.154
 6105TIP3    H218259   5.269   0.693   2.055
 6106TIP3   OH218260   7.933   6.982   5.471
 6106TIP3    H118261   7.850   6.936   5.487
 6106TIP3    H218262   7.946   6.975   5.377
 6107TIP3   OH218263   0.204   5.835   4.468
 6107TIP3    H118264   0.293   5.853   4.498
 6107TIP3    H218265   0.157   5.809   4.548
 6108TIP3   OH218266   3.956   6.953   6.675
 6108TIP3    H118267   4.049   6.952   6.694
 6108TIP3    H218268   3.918   6.889   6.735
 6109TIP3   OH218269   1.022   7.180   4.583
 6109TIP3    H118270   1.015   7.229   4.665
 6109TIP3    H218271   1.102   7.127   4.594
 6110TIP3   OH218272   1.656   7.534   3.696
 6110TIP3    H118273   1.622   7.596   3.760
 6110TIP3    H218274   1.692   7.463   3.749
 6111TIP3   OH218275   4.856   3.411   6.412
 6111TIP3    H118276   4.792   3.469   6.453
 6111TIP3    H218277   4.811   3.375   6.335
 6112TIP3   OH218278   2.050   6.820   4.881
 6112TIP3    H118279   2.026   6.909   4.907
 6112TIP3    H218280   1.978   6.765   4.913
 6113TIP3   OH218281   7.893   3.111   3.766
 6113TIP3    H118282   7.813   3.072   3.801
 6113TIP3    H218283   7.963   3.051   3.794
 6114TIP3   OH218284   3.625   1.955   1.042
 6114TIP3    H118285   3.713   1.941   1.076
 6114TIP3    H218286   3.590   1.867   1.028
 6115TIP3   OH218287   4.568   0.980   1.189
 6115TIP3    H118288   4.608   1.056   1.232
 6115TIP3    H218289   4.632   0.952   1.125
 6116TIP3   OH218290   2.494   3.862   5.606
 6116TIP3    H118291   2.523   3.951   5.588
 6116TIP3    H218292   2.434   3.841   5.534
 6117TIP3   OH218293   6.657   6.923   4.299
 6117TIP3    H118294   6.602   6.925   4.377
 6117TIP3    H218295   6.611   6.978   4.236
 6118TIP3   OH218296   5.433   5.587   1.476
 6118TIP3    H118297   5.463   5.519   1.536
 6118TIP3    H218298   5.479   5.569   1.394
 6119TIP3   OH218299   7.364   1.182   5.852
 6119TIP3    H118300   7.362   1.277   5.861
 6119TIP3    H218301   7.324   1.149   5.933
 6120TIP3   OH218302   6.810   1.884   3.062
 6120TIP3    H118303   6.764   1.929   2.991
 6120TIP3    H218304   6.740   1.846   3.115
 6121TIP3   OH218305   0.985   1.909   2.715
 6121TIP3    H118306   1.034   1.931   2.795
 6121TIP3    H218307   0.951   1.821   2.731
 6122TIP3   OH218308   4.049   1.415   0.156
 6122TIP3    H118309   3.955   1.394   0.148
 6122TIP3    H218310   4.092   1.354   0.096
 6123TIP3   OH218311   0.448   1.421   5.845
 6123TIP3    H118312   0.370   1.381   5.807
 6123TIP3    H218313   0.438   1.411   5.939
 6124TIP3   OH218314   6.632   5.452   1.673
 6124TIP3    H118315   6.594   5.372   1.710
 6124TIP3    H218316   6.572   5.521   1.701
 6125TIP3   OH218317   7.244   3.644   2.645
 6125TIP3    H118318   7.197   3.582   2.589
 6125TIP3    H218319   7.330   3.654   2.604
 6126TIP3   OH218320   0.936   2.841   4.134
 6126TIP3    H118321   1.015   2.861   4.084
 6126TIP3    H218322   0.874   2.908   4.108
 6127TIP3   OH218323   6.083   6.319   2.989
 6127TIP3    H118324   5.997   6.312   2.948
 6127TIP3    H218325   6.125   6.235   2.973
 6128TIP3   OH218326   0.437   2.753   3.933
 6128TIP3    H118327   0.360   2.755   3.990
 6128TIP3    H218328   0.478   2.669   3.952
 6129TIP3   OH218329   0.234   0.662   4.306
 6129TIP3    H118330   0.235   0.577   4.262
 6129TIP3    H218331   0.247   0.725   4.235
 6130TIP3   OH218332   1.345   3.266   1.693
 6130TIP3    H118333   1.308   3.350   1.721
 6130TIP3    H218334   1.268   3.212   1.673
 6131TIP3   OH218335   5.361   1.230   4.666
 6131TIP3    H118336   5.357   1.306   4.725
 6131TIP3    H218337   5.447   1.236   4.626
 6132TIP3   OH218338   5.868   4.114   4.080
 6132TIP3    H118339   5.882   4.173   4.153
 6132TIP3    H218340   5.956   4.099   4.044
 6133TIP3   OH218341   7.176   4.812   0.065
 6133TIP3    H118342   7.119   4.787   0.138
 6133TIP3    H218343   7.128   4.881   0.019
 6134TIP3   OH218344   5.037   7.158   4.414
 6134TIP3    H118345   5.051   7.177   4.321
 6134TIP3    H218346   4.955   7.201   4.436
 6135TIP3   OH218347   1.021   6.739   2.777
 6135TIP3    H118348   1.054   6.716   2.690
 6135TIP3    H218349   1.044   6.831   2.788
 6136TIP3   OH218350   3.574   1.436   2.338
 6136TIP3    H118351   3.593   1.414   2.429
 6136TIP3    H218352   3.559   1.352   2.295
 6137TIP3   OH218353   4.103   3.220   3.613
 6137TIP3    H118354   4.034   3.242   3.676
 6137TIP3    H218355   4.055   3.187   3.537
 6138TIP3   OH218356   5.664   5.028   1.665
 6138TIP3    H118357   5.621   5.111   1.647
 6138TIP3    H218358   5.691   5.035   1.757
 6139TIP3   OH218359   5.518   5.986   6.233
 6139TIP3    H118360   5.579   5.983   6.306
 6139TIP3    H218361   5.471   5.903   6.237
 6140TIP3   OH218362   4.327   7.614   0.240
 6140TIP3    H118363   4.276   7.695   0.241
 6140TIP3    H218364   4.332   7.588   0.332
 6141TIP3   OH218365   4.664   0.826   4.942
 6141TIP3    H118366   4.600   0.765   4.905
 6141TIP3    H218367   4.611   0.897   4.978
 6142TIP3   OH218368   8.023   6.743   2.342
 6142TIP3    H118369   8.077   6.796   2.400
 6142TIP3    H218370   7.933   6.767   2.364
 6143TIP3   OH218371   3.706   0.623   4.224
 6143TIP3    H118372   3.693   0.717   4.236
 6143TIP3    H218373   3.737   0.592   4.309
 6144TIP3   OH218374   2.136   7.665   4.481
 6144TIP3    H118375   2.071   7.725   4.518
 6144TIP3    H218376   2.090   7.620   4.410
 6145TIP3   OH218377   1.644   0.054   6.432
 6145TIP3    H118378   1.733   0.072   6.463
 6145TIP3    H218379   1.617  -0.025   6.478
 6146TIP3   OH218380   2.796   6.993   1.884
 6146TIP3    H118381   2.849   7.068   1.912
 6146TIP3    H218382   2.848   6.949   1.818
 6147TIP3   OH218383   5.762   6.853   5.065
 6147TIP3    H118384   5.728   6.769   5.034
 6147TIP3    H218385   5.819   6.883   4.994
 6148TIP3   OH218386   3.889   1.079   5.023
 6148TIP3    H118387   3.904   1.174   5.027
 6148TIP3    H218388   3.938   1.051   4.946
 6149TIP3   OH218389   4.059   6.269   2.580
 6149TIP3    H118390   4.143   6.305   2.608
 6149TIP3    H218391   3.995   6.334   2.608
 6150TIP3   OH218392   1.585   1.063   1.783
 6150TIP3    H118393   1.628   1.126   1.841
 6150TIP3    H218394   1.654   1.033   1.724
 6151TIP3   OH218395   1.675   6.586   2.331
 6151TIP3    H118396   1.744   6.522   2.351
 6151TIP3    H218397   1.717   6.671   2.343
 6152TIP3   OH218398   1.268   2.248   4.164
 6152TIP3    H118399   1.205   2.219   4.230
 6152TIP3    H218400   1.254   2.189   4.090
 6153TIP3   OH218401   0.902   0.876   6.221
 6153TIP3    H118402   0.835   0.941   6.244
 6153TIP3    H218403   0.984   0.925   6.223
 6154TIP3   OH218404   7.501   4.263   2.227
 6154TIP3    H118405   7.475   4.217   2.307
 6154TIP3    H218406   7.591   4.234   2.210
 6155TIP3   OH218407   5.917   5.008   4.235
 6155TIP3    H118408   5.958   5.078   4.285
 6155TIP3    H218409   5.966   4.929   4.258
 6156TIP3   OH218410   1.061   0.816   4.101
 6156TIP3    H118411   1.055   0.851   4.190
 6156TIP3    H218412   0.970   0.813   4.070
 6157TIP3   OH218413   0.671   6.521   6.643
 6157TIP3    H118414   0.639   6.598   6.691
 6157TIP3    H218415   0.596   6.462   6.641
 6158TIP3   OH218416   7.739   7.193   4.198
 6158TIP3    H118417   7.706   7.275   4.161
 6158TIP3    H218418   7.767   7.216   4.286
 6159TIP3   OH218419   6.351   0.706   5.262
 6159TIP3    H118420   6.311   0.730   5.179
 6159TIP3    H218421   6.305   0.758   5.328
 6160TIP3   OH218422   4.068   7.140   6.497
 6160TIP3    H118423   4.011   7.077   6.542
 6160TIP3    H218424   4.009   7.191   6.443
 6161TIP3   OH218425   0.457   7.463   3.055
 6161TIP3    H118426   0.395   7.413   3.002
 6161TIP3    H218427   0.542   7.423   3.038
 6162TIP3   OH218428   6.231   3.459   0.311
 6162TIP3    H118429   6.252   3.372   0.342
 6162TIP3    H218430   6.243   3.455   0.216
 6163TIP3   OH218431   3.622   6.905   0.064
 6163TIP3    H118432   3.670   6.907  -0.019
 6163TIP3    H218433   3.623   6.996   0.094
 6164TIP3   OH218434   5.896   5.994   4.418
 6164TIP3    H118435   5.825   5.980   4.356
 6164TIP3    H218436   5.856   6.038   4.493
 6165TIP3   OH218437   2.477   0.248   3.649
 6165TIP3    H118438   2.510   0.180   3.590
 6165TIP3    H218439   2.512   0.224   3.735
 6166TIP3   OH218440   7.089   2.606   6.224
 6166TIP3    H118441   7.102   2.519   6.186
 6166TIP3    H218442   7.125   2.666   6.158
 6167TIP3   OH218443   1.596   4.185   2.950
 6167TIP3    H118444   1.566   4.145   3.032
 6167TIP3    H218445   1.692   4.183   2.956
 6168TIP3   OH218446   4.252   7.767   2.037
 6168TIP3    H118447   4.314   7.788   1.967
 6168TIP3    H218448   4.242   7.849   2.085
 6169TIP3   OH218449   0.323   0.978   2.826
 6169TIP3    H118450   0.329   1.046   2.893
 6169TIP3    H218451   0.237   0.939   2.838
 6170TIP3   OH218452   6.843   1.910   4.540
 6170TIP3    H118453   6.808   1.831   4.499
 6170TIP3    H218454   6.836   1.893   4.634
 6171TIP3   OH218455   8.168   2.465   5.258
 6171TIP3    H118456   8.151   2.393   5.197
 6171TIP3    H218457   8.160   2.544   5.204
 6172TIP3   OH218458   7.600   6.595   1.986
 6172TIP3    H118459   7.579   6.684   1.956
 6172TIP3    H218460   7.628   6.606   2.077
 6173TIP3   OH218461   2.681   6.498   5.266
 6173TIP3    H118462   2.657   6.420   5.317
 6173TIP3    H218463   2.706   6.563   5.331
 6174TIP3   OH218464   3.024   3.107   4.467
 6174TIP3    H118465   2.944   3.078   4.511
 6174TIP3    H218466   3.033   3.046   4.393
 6175TIP3   OH218467   3.340   1.230   3.214
 6175TIP3    H118468   3.375   1.189   3.135
 6175TIP3    H218469   3.262   1.276   3.183
 6176TIP3   OH218470   6.188   6.803   5.506
 6176TIP3    H118471   6.220   6.720   5.540
 6176TIP3    H218472   6.193   6.793   5.411
 6177TIP3   OH218473   6.097   3.657   4.198
 6177TIP3    H118474   6.073   3.734   4.250
 6177TIP3    H218475   6.176   3.623   4.240
 6178TIP3   OH218476   6.189   3.714   1.214
 6178TIP3    H118477   6.103   3.745   1.243
 6178TIP3    H218478   6.247   3.788   1.225
 6179TIP3   OH218479   3.963   5.592   5.613
 6179TIP3    H118480   4.041   5.537   5.616
 6179TIP3    H218481   3.988   5.672   5.660
 6180TIP3   OH218482   5.541   5.379   2.232
 6180TIP3    H118483   5.565   5.396   2.141
 6180TIP3    H218484   5.494   5.458   2.259
 6181TIP3   OH218485   7.018   1.652   6.565
 6181TIP3    H118486   7.107   1.675   6.539
 6181TIP3    H218487   7.029   1.589   6.636
 6182TIP3   OH218488   3.823   4.777   3.288
 6182TIP3    H118489   3.900   4.796   3.342
 6182TIP3    H218490   3.852   4.706   3.230
 6183TIP3   OH218491   7.431   0.587   0.025
 6183TIP3    H118492   7.507   0.580  -0.033
 6183TIP3    H218493   7.460   0.547   0.107
 6184TIP3   OH218494   1.841   0.153   3.653
 6184TIP3    H118495   1.749   0.141   3.673
 6184TIP3    H218496   1.843   0.217   3.582
 6185TIP3   OH218497   0.662   2.141   0.311
 6185TIP3    H118498   0.651   2.152   0.405
 6185TIP3    H218499   0.735   2.198   0.289
 6186TIP3   OH218500   2.602   4.525   4.175
 6186TIP3    H118501   2.658   4.545   4.099
 6186TIP3    H218502   2.661   4.481   4.236
 6187TIP3   OH218503   4.363   5.013   2.605
 6187TIP3    H118504   4.322   5.086   2.652
 6187TIP3    H218505   4.375   5.045   2.516
 6188TIP3   OH218506   6.156   2.159   4.663
 6188TIP3    H118507   6.241   2.199   4.645
 6188TIP3    H218508   6.151   2.086   4.601
 6189TIP3   OH218509   3.033   6.343   4.010
 6189TIP3    H118510   2.964   6.387   3.959
 6189TIP3    H218511   3.043   6.397   4.088
 6190TIP3   OH218512   4.485   7.712   6.355
 6190TIP3    H118513   4.480   7.760   6.438
 6190TIP3    H218514   4.572   7.672   6.356
 6191TIP3   OH218515   5.030   1.676   1.858
 6191TIP3    H118516   5.110   1.659   1.908
 6191TIP3    H218517   4.967   1.706   1.924
 6192TIP3   OH218518   2.113   2.728   3.829
 6192TIP3    H118519   2.176   2.672   3.786
 6192TIP3    H218520   2.028   2.686   3.815
 6193TIP3   OH218521   0.708   3.117   2.106
 6193TIP3    H118522   0.751   3.144   2.025
 6193TIP3    H218523   0.753   3.036   2.131
 6194TIP3   OH218524   5.958   6.586   3.886
 6194TIP3    H118525   5.948   6.502   3.842
 6194TIP3    H218526   5.869   6.611   3.910
 6195TIP3   OH218527   7.436   2.366   2.349
 6195TIP3    H118528   7.505   2.347   2.285
 6195TIP3    H218529   7.362   2.312   2.322
 6196TIP3   OH218530   0.279   1.412   1.333
 6196TIP3    H118531   0.355   1.440   1.385
 6196TIP3    H218532   0.275   1.317   1.345
 6197TIP3   OH218533   5.211   0.373   1.093
 6197TIP3    H118534   5.265   0.427   1.036
 6197TIP3    H218535   5.239   0.397   1.182
 6198TIP3   OH218536   7.358   0.783   0.886
 6198TIP3    H118537   7.311   0.710   0.925
 6198TIP3    H218538   7.307   0.861   0.909
 6199TIP3   OH218539   2.672   2.561   6.192
 6199TIP3    H118540   2.669   2.471   6.161
 6199TIP3    H218541   2.734   2.605   6.133
 6200TIP3   OH218542   5.505   7.238   1.206
 6200TIP3    H118543   5.442   7.275   1.143
 6200TIP3    H218544   5.456   7.233   1.288
 6201TIP3   OH218545   2.318   5.563   0.081
 6201TIP3    H118546   2.379   5.572   0.008
 6201TIP3    H218547   2.346   5.483   0.126
 6202TIP3   OH218548   4.857   6.902   6.276
 6202TIP3    H118549   4.809   6.962   6.219
 6202TIP3    H218550   4.793   6.835   6.300
 6203TIP3   OH218551   2.701   5.844   5.994
 6203TIP3    H118552   2.750   5.862   6.073
 6203TIP3    H218553   2.611   5.830   6.023
 6204TIP3   OH218554   6.466   2.962   6.134
 6204TIP3    H118555   6.437   2.897   6.069
 6204TIP3    H218556   6.452   3.046   6.091
 6205TIP3   OH218557   5.864   1.257   4.001
 6205TIP3    H118558   5.870   1.317   4.075
 6205TIP3    H218559   5.869   1.314   3.924
 6206TIP3   OH218560   5.294   2.285   1.573
 6206TIP3    H118561   5.286   2.209   1.515
 6206TIP3    H218562   5.215   2.281   1.628
 6207TIP3   OH218563   1.901   3.123   6.155
 6207TIP3    H118564   1.851   3.064   6.098
 6207TIP3    H218565   1.844   3.198   6.168
 6208TIP3   OH218566   7.353   4.127   3.548
 6208TIP3    H118567   7.266   4.163   3.527
 6208TIP3    H218568   7.406   4.203   3.568
 6209TIP3   OH218569   7.572   6.000   3.791
 6209TIP3    H118570   7.604   5.938   3.857
 6209TIP3    H218571   7.586   5.955   3.707
 6210TIP3   OH218572   1.653   0.717   6.234
 6210TIP3    H118573   1.608   0.728   6.150
 6210TIP3    H218574   1.583   0.702   6.298
 6211TIP3   OH218575   5.892   4.183   3.505
 6211TIP3    H118576   5.971   4.236   3.495
 6211TIP3    H218577   5.894   4.154   3.596
 6212TIP3   OH218578   7.899   4.885   3.576
 6212TIP3    H118579   7.935   4.892   3.664
 6212TIP3    H218580   7.893   4.976   3.545
 6213TIP3   OH218581   4.119   0.636   5.250
 6213TIP3    H118582   4.066   0.614   5.173
 6213TIP3    H218583   4.064   0.611   5.324
 6214TIP3   OH218584   3.909   6.233   3.536
 6214TIP3    H118585   3.970   6.161   3.526
 6214TIP3    H218586   3.851   6.207   3.608
 6215TIP3   OH218587   4.086   6.893   5.186
 6215TIP3    H118588   4.158   6.873   5.247
 6215TIP3    H218589   4.009   6.904   5.242
 6216TIP3   OH218590   5.155   3.080   6.268
 6216TIP3    H118591   5.212   3.054   6.195
 6216TIP3    H218592   5.148   3.175   6.260
 6217TIP3   OH218593   4.807   5.135   1.077
 6217TIP3    H118594   4.807   5.114   1.170
 6217TIP3    H218595   4.862   5.214   1.070
 6218TIP3   OH218596   5.968   4.027   3.170
 6218TIP3    H118597   5.925   3.948   3.203
 6218TIP3    H218598   6.051   4.030   3.216
 6219TIP3   OH218599   2.789   5.576   5.454
 6219TIP3    H118600   2.883   5.594   5.454
 6219TIP3    H218601   2.748   5.663   5.448
 6220TIP3   OH218602   4.516   5.238   6.536
 6220TIP3    H118603   4.514   5.142   6.543
 6220TIP3    H218604   4.528   5.255   6.443
 6221TIP3   OH218605   7.584   2.460   3.710
 6221TIP3    H118606   7.644   2.386   3.699
 6221TIP3    H218607   7.542   2.444   3.794
 6222TIP3   OH218608   6.569   2.974   3.092
 6222TIP3    H118609   6.638   3.023   3.136
 6222TIP3    H218610   6.561   2.894   3.143
 6223TIP3   OH218611   7.783   3.516   6.503
 6223TIP3    H118612   7.702   3.469   6.486
 6223TIP3    H218613   7.852   3.452   6.483
 6224TIP3   OH218614   6.104   2.909   5.245
 6224TIP3    H118615   6.119   2.835   5.304
 6224TIP3    H218616   6.191   2.937   5.219
 6225TIP3   OH218617   8.308   2.491   1.670
 6225TIP3    H118618   8.385   2.447   1.634
 6225TIP3    H218619   8.292   2.447   1.753
 6226TIP3   OH218620   4.406   4.322   4.723
 6226TIP3    H118621   4.407   4.408   4.682
 6226TIP3    H218622   4.485   4.320   4.776
 6227TIP3   OH218623   7.175   1.383   1.926
 6227TIP3    H118624   7.231   1.305   1.935
 6227TIP3    H218625   7.234   1.457   1.943
 6228TIP3   OH218626   6.052   2.240   4.907
 6228TIP3    H118627   6.103   2.187   4.968
 6228TIP3    H218628   6.087   2.217   4.821
 6229TIP3   OH218629   3.763   1.145   5.918
 6229TIP3    H118630   3.741   1.110   6.004
 6229TIP3    H218631   3.858   1.133   5.911
 6230TIP3   OH218632   7.807   4.561   5.652
 6230TIP3    H118633   7.730   4.574   5.597
 6230TIP3    H218634   7.831   4.470   5.638
 6231TIP3   OH218635   5.403   7.790   4.939
 6231TIP3    H118636   5.330   7.833   4.894
 6231TIP3    H218637   5.469   7.776   4.871
 6232TIP3   OH218638   1.666   6.303   5.191
 6232TIP3    H118639   1.641   6.274   5.103
 6232TIP3    H218640   1.674   6.221   5.241
 6233TIP3   OH218641   5.048   5.786   1.589
 6233TIP3    H118642   5.068   5.869   1.632
 6233TIP3    H218643   5.029   5.725   1.661
 6234TIP3   OH218644   0.399   1.851   5.572
 6234TIP3    H118645   0.357   1.843   5.658
 6234TIP3    H218646   0.330   1.829   5.509
 6235TIP3   OH218647   7.391   6.218   3.370
 6235TIP3    H118648   7.346   6.197   3.452
 6235TIP3    H218649   7.418   6.309   3.380
 6236TIP3   OH218650   6.806   5.456   3.645
 6236TIP3    H118651   6.780   5.492   3.561
 6236TIP3    H218652   6.763   5.370   3.650
 6237TIP3   OH218653   0.500   6.593   5.153
 6237TIP3    H118654   0.576   6.607   5.096
 6237TIP3    H218655   0.515   6.507   5.191
 6238TIP3   OH218656   8.001   1.034   2.223
 6238TIP3    H118657   7.936   1.078   2.168
 6238TIP3    H218658   8.083   1.079   2.205
 6239TIP3   OH218659   1.565   5.827   4.059
 6239TIP3    H118660   1.559   5.895   3.992
 6239TIP3    H218661   1.569   5.875   4.141
 6240TIP3   OH218662   1.164   3.032   1.603
 6240TIP3    H118663   1.138   2.942   1.586
 6240TIP3    H218664   1.140   3.080   1.524
 6241TIP3   OH218665   5.680   2.655   0.990
 6241TIP3    H118666   5.663   2.724   1.055
 6241TIP3    H218667   5.708   2.580   1.042
 6242TIP3   OH218668   4.222   3.312   6.194
 6242TIP3    H118669   4.279   3.308   6.271
 6242TIP3    H218670   4.158   3.379   6.216
 6243TIP3   OH218671   1.579   6.173   6.337
 6243TIP3    H118672   1.593   6.247   6.278
 6243TIP3    H218673   1.620   6.200   6.419
 6244TIP3   OH218674   6.655   7.156   5.196
 6244TIP3    H118675   6.658   7.060   5.188
 6244TIP3    H218676   6.592   7.172   5.266
 6245TIP3   OH218677   1.014   6.561   1.321
 6245TIP3    H118678   1.058   6.638   1.356
 6245TIP3    H218679   0.924   6.589   1.305
 6246TIP3   OH218680   6.960   5.620   2.575
 6246TIP3    H118681   7.015   5.694   2.600
 6246TIP3    H218682   6.989   5.549   2.633
 6247TIP3   OH218683   3.130   7.361   5.287
 6247TIP3    H118684   3.175   7.320   5.213
 6247TIP3    H218685   3.079   7.432   5.248
 6248TIP3   OH218686   8.042   5.438   0.968
 6248TIP3    H118687   8.067   5.455   1.059
 6248TIP3    H218688   7.970   5.376   0.974
 6249TIP3   OH218689   7.737   7.674   3.475
 6249TIP3    H118690   7.699   7.712   3.555
 6249TIP3    H218691   7.684   7.596   3.459
 6250TIP3   OH218692   5.700   2.389   3.120
 6250TIP3    H118693   5.706   2.450   3.194
 6250TIP3    H218694   5.789   2.386   3.084
 6251TIP3   OH218695   0.836   6.217   5.613
 6251TIP3    H118696   0.900   6.188   5.549
 6251TIP3    H218697   0.819   6.139   5.667
 6252TIP3   OH218698   0.652   5.817   1.447
 6252TIP3    H118699   0.732   5.822   1.499
 6252TIP3    H218700   0.675   5.761   1.373
 6253TIP3   OH218701   3.280   7.749   0.726
 6253TIP3    H118702   3.262   7.810   0.798
 6253TIP3    H218703   3.294   7.805   0.650
 6254TIP3   OH218704   3.818   1.355   2.937
 6254TIP3    H118705   3.822   1.277   2.882
 6254TIP3    H218706   3.725   1.367   2.955
 6255TIP3   OH218707   0.461   4.751   3.928
 6255TIP3    H118708   0.369   4.772   3.912
 6255TIP3    H218709   0.461   4.707   4.013
 6256TIP3   OH218710   0.214   3.115   5.179
 6256TIP3    H118711   0.304   3.111   5.145
 6256TIP3    H218712   0.207   3.040   5.237
 6257TIP3   OH218713   5.060   2.386   0.426
 6257TIP3    H118714   4.978   2.338   0.437
 6257TIP3    H218715   5.109   2.334   0.363
 6258TIP3   OH218716   0.866   0.593   1.069
 6258TIP3    H118717   0.854   0.647   1.147
 6258TIP3    H218718   0.848   0.653   0.996
 6259TIP3   OH218719   0.536   0.174   3.686
 6259TIP3    H118720   0.512   0.258   3.647
 6259TIP3    H218721   0.459   0.118   3.672
 6260TIP3   OH218722   5.071   4.215   0.511
 6260TIP3    H118723   5.134   4.149   0.479
 6260TIP3    H218724   4.994   4.203   0.457
 6261TIP3   OH218725   1.695   2.356   1.054
 6261TIP3    H118726   1.756   2.303   1.003
 6261TIP3    H218727   1.700   2.443   1.015
 6262TIP3   OH218728   2.307   1.126   0.511
 6262TIP3    H118729   2.393   1.126   0.469
 6262TIP3    H218730   2.294   1.036   0.539
 6263TIP3   OH218731   2.040   0.206   1.891
 6263TIP3    H118732   1.973   0.138   1.885
 6263TIP3    H218733   1.990   0.288   1.886
 6264TIP3   OH218734   8.075   5.573   6.671
 6264TIP3    H118735   8.015   5.644   6.694
 6264TIP3    H218736   8.042   5.496   6.717
 6265TIP3   OH218737   5.348   5.815   1.619
 6265TIP3    H118738   5.351   5.900   1.575
 6265TIP3    H218739   5.344   5.752   1.547
 6266TIP3   OH218740   4.543   7.134   0.657
 6266TIP3    H118741   4.509   7.065   0.600
 6266TIP3    H218742   4.505   7.114   0.743
 6267TIP3   OH218743   2.124   4.872   1.532
 6267TIP3    H118744   2.156   4.823   1.456
 6267TIP3    H218745   2.203   4.907   1.573
 6268TIP3   OH218746   6.216   2.359   2.767
 6268TIP3    H118747   6.183   2.282   2.813
 6268TIP3    H218748   6.245   2.327   2.682
 6269TIP3   OH218749   2.989   2.560   0.957
 6269TIP3    H118750   2.963   2.633   0.900
 6269TIP3    H218751   3.031   2.497   0.898
 6270TIP3   OH218752   0.547   1.942   3.684
 6270TIP3    H118753   0.630   1.988   3.692
 6270TIP3    H218754   0.513   1.968   3.598
 6271TIP3   OH218755   5.540   1.167   1.359
 6271TIP3    H118756   5.553   1.176   1.265
 6271TIP3    H218757   5.458   1.212   1.377
 6272TIP3   OH218758   0.568   4.831   6.165
 6272TIP3    H118759   0.513   4.756   6.142
 6272TIP3    H218760   0.507   4.898   6.195
 6273TIP3   OH218761   7.816   3.219   5.522
 6273TIP3    H118762   7.864   3.226   5.605
 6273TIP3    H218763   7.727   3.195   5.548
 6274TIP3   OH218764   6.707   6.763   1.973
 6274TIP3    H118765   6.713   6.831   2.040
 6274TIP3    H218766   6.798   6.735   1.959
 6275TIP3   OH218767   0.630   2.687   6.706
 6275TIP3    H118768   0.710   2.673   6.656
 6275TIP3    H218769   0.655   2.745   6.777
 6276TIP3   OH218770   7.262   2.475   2.895
 6276TIP3    H118771   7.247   2.500   2.804
 6276TIP3    H218772   7.210   2.537   2.946
 6277TIP3   OH218773   5.293   6.653   5.786
 6277TIP3    H118774   5.278   6.591   5.857
 6277TIP3    H218775   5.245   6.616   5.712
 6278TIP3   OH218776   6.257   1.484   6.173
 6278TIP3    H118777   6.162   1.474   6.164
 6278TIP3    H218778   6.289   1.484   6.083
 6279TIP3   OH218779   2.453   5.041   1.984
 6279TIP3    H118780   2.411   5.112   2.032
 6279TIP3    H218781   2.517   5.084   1.928
 6280TIP3   OH218782   3.119   4.838   4.540
 6280TIP3    H118783   3.206   4.798   4.538
 6280TIP3    H218784   3.064   4.774   4.584
 6281TIP3   OH218785   5.876   5.271   1.571
 6281TIP3    H118786   5.872   5.210   1.497
 6281TIP3    H218787   5.862   5.358   1.531
 6282TIP3   OH218788   4.985   4.498   0.522
 6282TIP3    H118789   5.036   4.419   0.506
 6282TIP3    H218790   4.897   4.476   0.492
 6283TIP3   OH218791   3.112   1.373   1.763
 6283TIP3    H118792   3.078   1.366   1.674
 6283TIP3    H218793   3.202   1.342   1.757
 6284TIP3   OH218794   4.142   5.826   1.813
 6284TIP3    H118795   4.085   5.831   1.891
 6284TIP3    H218796   4.116   5.901   1.760
 6285TIP3   OH218797   2.969   0.402   3.395
 6285TIP3    H118798   2.915   0.323   3.391
 6285TIP3    H218799   2.911   0.473   3.365
 6286TIP3   OH218800   2.345   2.821   6.592
 6286TIP3    H118801   2.324   2.902   6.545
 6286TIP3    H218802   2.406   2.847   6.660
 6287TIP3   OH218803   0.226   6.258   1.106
 6287TIP3    H118804   0.229   6.173   1.149
 6287TIP3    H218805   0.193   6.318   1.173
 6288TIP3   OH218806   2.026   2.738   5.608
 6288TIP3    H118807   2.055   2.798   5.677
 6288TIP3    H218808   2.057   2.652   5.636
 6289TIP3   OH218809   6.601   1.821   3.232
 6289TIP3    H118810   6.618   1.853   3.321
 6289TIP3    H218811   6.540   1.885   3.195
 6290TIP3   OH218812   1.280   1.822   2.476
 6290TIP3    H118813   1.258   1.822   2.569
 6290TIP3    H218814   1.335   1.745   2.464
 6291TIP3   OH218815   6.315   2.539   4.568
 6291TIP3    H118816   6.225   2.565   4.587
 6291TIP3    H218817   6.368   2.613   4.598
 6292TIP3   OH218818   8.066   5.166   1.528
 6292TIP3    H118819   8.057   5.149   1.434
 6292TIP3    H218820   7.982   5.204   1.554
 6293TIP3   OH218821   3.743   5.460   0.221
 6293TIP3    H118822   3.681   5.414   0.277
 6293TIP3    H218823   3.761   5.397   0.151
 6294TIP3   OH218824   5.367   2.960   4.720
 6294TIP3    H118825   5.414   2.903   4.780
 6294TIP3    H218826   5.277   2.927   4.721
 6295TIP3   OH218827   5.937   0.101   5.605
 6295TIP3    H118828   5.920   0.024   5.659
 6295TIP3    H218829   6.008   0.147   5.651
 6296TIP3   OH218830   6.107   0.484   5.762
 6296TIP3    H118831   6.080   0.574   5.742
 6296TIP3    H218832   6.034   0.430   5.731
 6297TIP3   OH218833   2.995  -0.038   2.136
 6297TIP3    H118834   3.020   0.045   2.096
 6297TIP3    H218835   2.936  -0.014   2.208
 6298TIP3   OH218836   5.928   2.034   3.076
 6298TIP3    H118837   5.914   2.096   3.147
 6298TIP3    H218838   5.987   1.968   3.113
 6299TIP3   OH218839   4.990   7.050   5.026
 6299TIP3    H118840   5.024   7.139   5.028
 6299TIP3    H218841   5.039   7.004   5.095
 6300TIP3   OH218842   6.123   1.826   0.574
 6300TIP3    H118843   6.089   1.740   0.598
 6300TIP3    H218844   6.124   1.826   0.478
 6301TIP3   OH218845   2.794   6.934   0.224
 6301TIP3    H118846   2.811   7.009   0.167
 6301TIP3    H218847   2.751   6.973   0.301
 6302TIP3   OH218848   6.245   3.539   2.807
 6302TIP3    H118849   6.183   3.561   2.737
 6302TIP3    H218850   6.318   3.600   2.795
 6303TIP3   OH218851   7.700   6.237   5.024
 6303TIP3    H118852   7.611   6.272   5.012
 6303TIP3    H218853   7.756   6.304   4.985
 6304TIP3   OH218854   7.319   2.759   5.013
 6304TIP3    H118855   7.251   2.700   5.047
 6304TIP3    H218856   7.398   2.705   5.009
 6305TIP3   OH218857   0.908   6.331   0.614
 6305TIP3    H118858   0.848   6.350   0.686
 6305TIP3    H218859   0.995   6.339   0.652
 6306TIP3   OH218860   7.935   2.469   6.206
 6306TIP3    H118861   7.841   2.455   6.214
 6306TIP3    H218862   7.963   2.497   6.293
 6307TIP3   OH218863   1.276   6.975   5.371
 6307TIP3    H118864   1.320   6.907   5.422
 6307TIP3    H218865   1.206   7.006   5.428
 6308TIP3   OH218866   5.797   1.886   5.274
 6308TIP3    H118867   5.869   1.895   5.213
 6308TIP3    H218868   5.735   1.954   5.248
 6309TIP3   OH218869   8.211   7.422   5.284
 6309TIP3    H118870   8.192   7.331   5.259
 6309TIP3    H218871   8.167   7.432   5.369
 6310TIP3   OH218872   7.336   4.920   0.451
 6310TIP3    H118873   7.423   4.930   0.413
 6310TIP3    H218874   7.346   4.850   0.515
 6311TIP3   OH218875   1.103   3.172   0.899
 6311TIP3    H118876   1.079   3.239   0.834
 6311TIP3    H218877   1.084   3.089   0.855
 6312TIP3   OH218878   0.368   2.400   3.497
 6312TIP3    H118879   0.329   2.339   3.559
 6312TIP3    H218880   0.410   2.467   3.551
 6313TIP3   OH218881   2.023   7.484   4.285
 6313TIP3    H118882   2.100   7.436   4.254
 6313TIP3    H218883   1.967   7.492   4.208
 6314TIP3   OH218884   0.067   6.118   4.211
 6314TIP3    H118885   0.135   6.161   4.263
 6314TIP3    H218886   0.099   6.028   4.201
 6315TIP3   OH218887   4.232   4.655   1.615
 6315TIP3    H118888   4.161   4.702   1.658
 6315TIP3    H218889   4.293   4.634   1.685
 6316TIP3   OH218890   3.410   6.437   4.102
 6316TIP3    H118891   3.333   6.434   4.158
 6316TIP3    H218892   3.435   6.345   4.090
 6317TIP3   OH218893   4.135   1.402   0.420
 6317TIP3    H118894   4.049   1.430   0.450
 6317TIP3    H218895   4.129   1.406   0.324
 6318TIP3   OH218896   7.382   4.968   3.365
 6318TIP3    H118897   7.474   4.974   3.387
 6318TIP3    H218898   7.379   4.908   3.290
 6319TIP3   OH218899   2.684   5.153   3.302
 6319TIP3    H118900   2.739   5.081   3.274
 6319TIP3    H218901   2.599   5.135   3.261
 6320TIP3   OH218902   5.836   3.962   5.461
 6320TIP3    H118903   5.903   4.025   5.436
 6320TIP3    H218904   5.758   4.015   5.477
 6321TIP3   OH218905   1.544   6.355   0.160
 6321TIP3    H118906   1.612   6.288   0.152
 6321TIP3    H218907   1.516   6.349   0.251
 6322TIP3   OH218908   7.906   6.797   6.208
 6322TIP3    H118909   7.841   6.744   6.255
 6322TIP3    H218910   7.871   6.806   6.120
 6323TIP3   OH218911   6.966   5.017   0.039
 6323TIP3    H118912   6.873   4.993   0.039
 6323TIP3    H218913   6.979   5.063   0.122
 6324TIP3   OH218914   3.197   4.626   3.044
 6324TIP3    H118915   3.260   4.661   3.107
 6324TIP3    H218916   3.199   4.688   2.971
 6325TIP3   OH218917   4.391   5.777   1.597
 6325TIP3    H118918   4.361   5.689   1.574
 6325TIP3    H218919   4.323   5.811   1.655
 6326TIP3   OH218920   7.819   2.735   0.078
 6326TIP3    H118921   7.807   2.744   0.173
 6326TIP3    H218922   7.820   2.824   0.045
 6327TIP3   OH218923   8.175   0.739   3.209
 6327TIP3    H118924   8.163   0.787   3.127
 6327TIP3    H218925   8.117   0.663   3.202
 6328TIP3   OH218926   1.685   2.290   1.762
 6328TIP3    H118927   1.701   2.195   1.767
 6328TIP3    H218928   1.765   2.326   1.724
 6329TIP3   OH218929   8.143   6.632   5.264
 6329TIP3    H118930   8.164   6.541   5.285
 6329TIP3    H218931   8.059   6.628   5.220
 6330TIP3   OH218932   0.354   7.810   3.625
 6330TIP3    H118933   0.261   7.788   3.618
 6330TIP3    H218934   0.378   7.836   3.536
 6331TIP3   OH218935   6.360   1.182   2.777
 6331TIP3    H118936   6.283   1.126   2.787
 6331TIP3    H218937   6.348   1.225   2.692
 6332TIP3   OH218938   4.294   6.766   0.802
 6332TIP3    H118939   4.302   6.794   0.893
 6332TIP3    H218940   4.217   6.709   0.801
 6333TIP3   OH218941   4.492   0.011   0.383
 6333TIP3    H118942   4.573  -0.006   0.432
 6333TIP3    H218943   4.519   0.070   0.313
 6334TIP3   OH218944   8.099   0.470   1.724
 6334TIP3    H118945   8.035   0.454   1.655
 6334TIP3    H218946   8.049   0.456   1.805
 6335TIP3   OH218947   8.140   7.201   4.439
 6335TIP3    H118948   8.228   7.208   4.402
 6335TIP3    H218949   8.125   7.286   4.482
 6336TIP3   OH218950   0.637   3.747   6.142
 6336TIP3    H118951   0.682   3.703   6.214
 6336TIP3    H218952   0.572   3.802   6.186
 6337TIP3   OH218953   1.631   3.026   2.422
 6337TIP3    H118954   1.539   3.003   2.433
 6337TIP3    H218955   1.679   2.951   2.458
 6338TIP3   OH218956   5.608   0.038   4.392
 6338TIP3    H118957   5.634   0.003   4.477
 6338TIP3    H218958   5.553  -0.030   4.353
 6339TIP3   OH218959   1.409   4.875   4.762
 6339TIP3    H118960   1.321   4.903   4.785
 6339TIP3    H218961   1.457   4.957   4.750
 6340TIP3   OH218962   6.164   1.851   3.541
 6340TIP3    H118963   6.117   1.774   3.509
 6340TIP3    H218964   6.241   1.815   3.584
 6341TIP3   OH218965   3.534   4.683   0.416
 6341TIP3    H118966   3.561   4.725   0.334
 6341TIP3    H218967   3.611   4.692   0.473
 6342TIP3   OH218968   6.941   7.141   5.213
 6342TIP3    H118969   6.855   7.143   5.173
 6342TIP3    H218970   6.942   7.215   5.273
 6343TIP3   OH218971   5.932   6.104   0.998
 6343TIP3    H118972   5.971   6.026   1.038
 6343TIP3    H218973   5.914   6.078   0.907
 6344TIP3   OH218974   0.176   4.315   1.639
 6344TIP3    H118975   0.192   4.224   1.663
 6344TIP3    H218976   0.263   4.353   1.629
 6345TIP3   OH218977   8.030   0.750   4.294
 6345TIP3    H118978   8.086   0.821   4.322
 6345TIP3    H218979   8.062   0.726   4.207
 6346TIP3   OH218980   2.992   4.111   2.494
 6346TIP3    H118981   2.924   4.144   2.553
 6346TIP3    H218982   2.964   4.140   2.407
 6347TIP3   OH218983   7.854   5.832   3.555
 6347TIP3    H118984   7.871   5.788   3.638
 6347TIP3    H218985   7.939   5.867   3.529
 6348TIP3   OH218986   1.800   0.316   3.445
 6348TIP3    H118987   1.882   0.364   3.452
 6348TIP3    H218988   1.793   0.293   3.352
 6349TIP3   OH218989   8.023   1.514   4.797
 6349TIP3    H118990   8.102   1.554   4.763
 6349TIP3    H218991   7.956   1.530   4.730
 6350TIP3   OH218992   0.575   3.768   0.272
 6350TIP3    H118993   0.524   3.816   0.207
 6350TIP3    H218994   0.627   3.706   0.221
 6351TIP3   OH218995   4.938   0.536   1.922
 6351TIP3    H118996   4.972   0.447   1.917
 6351TIP3    H218997   4.884   0.546   1.843
 6352TIP3   OH218998   2.640   0.538   4.887
 6352TIP3    H118999   2.645   0.633   4.896
 6352TIP3    H219000   2.650   0.523   4.793
 6353TIP3   OH219001   3.135   7.021   6.141
 6353TIP3    H119002   3.220   7.056   6.168
 6353TIP3    H219003   3.146   6.926   6.145
 6354TIP3   OH219004   4.929   5.578   0.598
 6354TIP3    H119005   4.918   5.671   0.616
 6354TIP3    H219006   4.843   5.539   0.615
 6355TIP3   OH219007   1.260   5.921   3.901
 6355TIP3    H119008   1.332   5.971   3.939
 6355TIP3    H219009   1.232   5.973   3.826
 6356TIP3   OH219010   5.654   0.746   3.027
 6356TIP3    H119011   5.652   0.729   2.933
 6356TIP3    H219012   5.605   0.828   3.038
 6357TIP3   OH219013   6.238   6.908   3.121
 6357TIP3    H119014   6.254   6.816   3.098
 6357TIP3    H219015   6.203   6.904   3.210
 6358TIP3   OH219016   3.389   7.064   1.181
 6358TIP3    H119017   3.395   7.142   1.235
 6358TIP3    H219018   3.301   7.030   1.197
 6359TIP3   OH219019   3.393   2.008   2.938
 6359TIP3    H119020   3.371   1.917   2.958
 6359TIP3    H219021   3.478   2.021   2.980
 6360TIP3   OH219022   2.851   5.689   0.447
 6360TIP3    H119023   2.945   5.670   0.437
 6360TIP3    H219024   2.820   5.702   0.357
 6361TIP3   OH219025   4.795   2.019   6.452
 6361TIP3    H119026   4.788   1.975   6.537
 6361TIP3    H219027   4.756   2.105   6.466
 6362TIP3   OH219028   4.997   1.354   5.567
 6362TIP3    H119029   4.972   1.268   5.601
 6362TIP3    H219030   5.093   1.351   5.562
 6363TIP3   OH219031   2.006   5.413   3.435
 6363TIP3    H119032   1.990   5.325   3.470
 6363TIP3    H219033   2.017   5.468   3.513
 6364TIP3   OH219034   3.620   7.743   4.733
 6364TIP3    H119035   3.681   7.769   4.663
 6364TIP3    H219036   3.665   7.672   4.778
 6365TIP3   OH219037   3.567   3.080   4.810
 6365TIP3    H119038   3.596   3.156   4.861
 6365TIP3    H219039   3.639   3.017   4.818
 6366TIP3   OH219040   3.597   2.811   3.486
 6366TIP3    H119041   3.533   2.759   3.535
 6366TIP3    H219042   3.571   2.801   3.394
 6367TIP3   OH219043   2.486   6.836   2.134
 6367TIP3    H119044   2.541   6.782   2.077
 6367TIP3    H219045   2.531   6.921   2.137
 6368TIP3   OH219046   7.528   1.580   2.615
 6368TIP3    H119047   7.622   1.564   2.618
 6368TIP3    H219048   7.503   1.559   2.525
 6369TIP3   OH219049   2.571   7.380   4.632
 6369TIP3    H119050   2.595   7.323   4.706
 6369TIP3    H219051   2.476   7.370   4.624
 6370TIP3   OH219052   6.102   0.667   4.218
 6370TIP3    H119053   6.044   0.665   4.142
 6370TIP3    H219054   6.160   0.591   4.206
 6371TIP3   OH219055   7.978   2.473   1.821
 6371TIP3    H119056   8.047   2.471   1.887
 6371TIP3    H219057   7.968   2.566   1.801
 6372TIP3   OH219058   3.182   2.690   4.551
 6372TIP3    H119059   3.134   2.656   4.626
 6372TIP3    H219060   3.263   2.639   4.549
 6373TIP3   OH219061   7.570   4.397   5.721
 6373TIP3    H119062   7.601   4.419   5.809
 6373TIP3    H219063   7.634   4.334   5.688
 6374TIP3   OH219064   7.918   0.191   5.515
 6374TIP3    H119065   7.876   0.276   5.527
 6374TIP3    H219066   7.991   0.191   5.576
 6375TIP3   OH219067   6.285   5.276   5.454
 6375TIP3    H119068   6.360   5.335   5.445
 6375TIP3    H219069   6.210   5.333   5.468
 6376TIP3   OH219070   8.117   7.224   2.547
 6376TIP3    H119071   8.065   7.183   2.477
 6376TIP3    H219072   8.148   7.306   2.508
 6377TIP3   OH219073   4.306   6.617   5.388
 6377TIP3    H119074   4.231   6.662   5.427
 6377TIP3    H219075   4.381   6.650   5.437
 6378TIP3   OH219076   3.589   0.143   2.276
 6378TIP3    H119077   3.599   0.116   2.185
 6378TIP3    H219078   3.595   0.062   2.327
 6379TIP3   OH219079   5.316   3.999   4.734
 6379TIP3    H119080   5.333   3.908   4.757
 6379TIP3    H219081   5.256   4.030   4.801
 6380TIP3   OH219082   5.408   3.732   4.753
 6380TIP3    H119083   5.499   3.720   4.724
 6380TIP3    H219084   5.396   3.665   4.821
 6381TIP3   OH219085   3.751   3.746   2.775
 6381TIP3    H119086   3.828   3.801   2.787
 6381TIP3    H219087   3.767   3.670   2.832
 6382TIP3   OH219088   3.279   2.329   0.883
 6382TIP3    H119089   3.336   2.254   0.900
 6382TIP3    H219090   3.262   2.366   0.969
 6383TIP3   OH219091   7.208   0.846   1.345
 6383TIP3    H119092   7.173   0.795   1.418
 6383TIP3    H219093   7.133   0.865   1.290
 6384TIP3   OH219094   8.237   1.313   0.963
 6384TIP3    H119095   8.261   1.221   0.974
 6384TIP3    H219096   8.238   1.349   1.052
 6385TIP3   OH219097   2.782   5.409   0.838
 6385TIP3    H119098   2.828   5.326   0.827
 6385TIP3    H219099   2.689   5.386   0.834
 6386TIP3   OH219100   7.894   3.504   1.820
 6386TIP3    H119101   7.860   3.587   1.853
 6386TIP3    H219102   7.915   3.453   1.899
 6387TIP3   OH219103   0.363   7.167   0.972
 6387TIP3    H119104   0.341   7.086   0.927
 6387TIP3    H219105   0.403   7.221   0.904
 6388TIP3   OH219106   7.741   0.758   3.152
 6388TIP3    H119107   7.701   0.813   3.084
 6388TIP3    H219108   7.822   0.726   3.111
 6389TIP3   OH219109   4.531   0.578   1.062
 6389TIP3    H119110   4.482   0.642   1.010
 6389TIP3    H219111   4.473   0.558   1.135
 6390TIP3   OH219112   0.538   3.269   3.465
 6390TIP3    H119113   0.633   3.281   3.472
 6390TIP3    H219114   0.512   3.234   3.550
 6391TIP3   OH219115   4.589   6.175   4.977
 6391TIP3    H119116   4.678   6.146   4.999
 6391TIP3    H219117   4.579   6.153   4.885
 6392TIP3   OH219118   0.718   6.720   3.644
 6392TIP3    H119119   0.721   6.801   3.695
 6392TIP3    H219120   0.785   6.731   3.577
 6393TIP3   OH219121   3.198   3.259   2.268
 6393TIP3    H119122   3.212   3.345   2.308
 6393TIP3    H219123   3.249   3.263   2.187
 6394TIP3   OH219124   1.879   0.842   0.776
 6394TIP3    H119125   1.786   0.834   0.797
 6394TIP3    H219126   1.886   0.927   0.731
 6395TIP3   OH219127   7.905   5.904   2.309
 6395TIP3    H119128   7.851   5.923   2.233
 6395TIP3    H219129   7.963   5.980   2.317
 6396TIP3   OH219130   4.846   4.409   6.084
 6396TIP3    H119131   4.793   4.469   6.136
 6396TIP3    H219132   4.927   4.456   6.067
 6397TIP3   OH219133   1.471   6.088   5.083
 6397TIP3    H119134   1.549   6.074   5.136
 6397TIP3    H219135   1.408   6.024   5.117
 6398TIP3   OH219136   5.471   2.644   5.926
 6398TIP3    H119137   5.503   2.727   5.962
 6398TIP3    H219138   5.441   2.595   6.003
 6399TIP3   OH219139   1.880   2.066   1.814
 6399TIP3    H119140   1.843   1.983   1.785
 6399TIP3    H219141   1.974   2.049   1.824
 6400TIP3   OH219142   0.648   4.891   0.588
 6400TIP3    H119143   0.616   4.808   0.550
 6400TIP3    H219144   0.603   4.959   0.538
 6401TIP3   OH219145   7.032   2.366   3.664
 6401TIP3    H119146   6.988   2.450   3.666
 6401TIP3    H219147   6.961   2.301   3.673
 6402TIP3   OH219148   3.137   3.766   0.501
 6402TIP3    H119149   3.223   3.742   0.535
 6402TIP3    H219150   3.081   3.691   0.521
 6403TIP3   OH219151   7.464   1.947   0.169
 6403TIP3    H119152   7.449   1.987   0.254
 6403TIP3    H219153   7.411   1.998   0.108
 6404TIP3   OH219154   3.205   3.084   1.406
 6404TIP3    H119155   3.228   3.112   1.317
 6404TIP3    H219156   3.115   3.053   1.400
 6405TIP3   OH219157   1.185   4.294   2.871
 6405TIP3    H119158   1.191   4.390   2.872
 6405TIP3    H219159   1.111   4.276   2.812
 6406TIP3   OH219160   3.626   1.402   0.203
 6406TIP3    H119161   3.691   1.350   0.156
 6406TIP3    H219162   3.672   1.483   0.224
 6407TIP3   OH219163   0.492   1.622   3.850
 6407TIP3    H119164   0.516   1.545   3.799
 6407TIP3    H219165   0.404   1.604   3.881
 6408TIP3   OH219166   7.997   1.106   6.512
 6408TIP3    H119167   8.085   1.068   6.508
 6408TIP3    H219168   7.941   1.034   6.543
 6409TIP3   OH219169   8.234   0.165   6.537
 6409TIP3    H119170   8.259   0.201   6.452
 6409TIP3    H219171   8.143   0.193   6.550
 6410TIP3   OH219172   2.296   0.110   6.369
 6410TIP3    H119173   2.288   0.016   6.381
 6410TIP3    H219174   2.268   0.126   6.279
 6411TIP3   OH219175   4.683   0.728   1.265
 6411TIP3    H119176   4.661   0.819   1.243
 6411TIP3    H219177   4.665   0.680   1.184
 6412TIP3   OH219178   7.852   2.639   3.211
 6412TIP3    H119179   7.766   2.621   3.173
 6412TIP3    H219180   7.838   2.713   3.270
 6413TIP3   OH219181   0.518   2.487   6.465
 6413TIP3    H119182   0.578   2.524   6.530
 6413TIP3    H219183   0.543   2.530   6.383
 6414TIP3   OH219184   2.189   6.732   5.254
 6414TIP3    H119185   2.193   6.820   5.218
 6414TIP3    H219186   2.281   6.702   5.254
 6415TIP3   OH219187   3.229   2.477   1.706
 6415TIP3    H119188   3.298   2.534   1.672
 6415TIP3    H219189   3.165   2.471   1.635
 6416TIP3   OH219190   0.769   3.690   1.558
 6416TIP3    H119191   0.863   3.679   1.574
 6416TIP3    H219192   0.761   3.691   1.463
 6417TIP3   OH219193   4.812   3.276   1.854
 6417TIP3    H119194   4.794   3.283   1.760
 6417TIP3    H219195   4.731   3.304   1.896
 6418TIP3   OH219196   3.872   2.658   6.279
 6418TIP3    H119197   3.811   2.622   6.344
 6418TIP3    H219198   3.944   2.694   6.330
 6419TIP3   OH219199   1.554   6.170   6.686
 6419TIP3    H119200   1.600   6.103   6.736
 6419TIP3    H219201   1.559   6.248   6.740
 6420TIP3   OH219202   1.294   5.666   3.294
 6420TIP3    H119203   1.367   5.670   3.357
 6420TIP3    H219204   1.268   5.757   3.281
 6421TIP3   OH219205   2.433   4.712   2.431
 6421TIP3    H119206   2.518   4.673   2.410
 6421TIP3    H219207   2.434   4.797   2.387
 6422TIP3   OH219208   4.041   6.145   4.233
 6422TIP3    H119209   4.019   6.173   4.144
 6422TIP3    H219210   3.985   6.199   4.290
 6423TIP3   OH219211   6.577   4.484   0.523
 6423TIP3    H119212   6.604   4.470   0.432
 6423TIP3    H219213   6.510   4.418   0.539
 6424TIP3   OH219214   3.830   3.020   5.563
 6424TIP3    H119215   3.925   3.011   5.565
 6424TIP3    H219216   3.802   2.998   5.652
 6425TIP3   OH219217   8.083   0.407   6.298
 6425TIP3    H119218   8.013   0.342   6.301
 6425TIP3    H219219   8.118   0.402   6.209
 6426TIP3   OH219220   6.406   4.281   3.480
 6426TIP3    H119221   6.375   4.351   3.423
 6426TIP3    H219222   6.485   4.316   3.521
 6427TIP3   OH219223   0.138   4.555   6.098
 6427TIP3    H119224   0.091   4.591   6.022
 6427TIP3    H219225   0.131   4.623   6.165
 6428TIP3   OH219226   4.893   6.667   0.495
 6428TIP3    H119227   4.969   6.701   0.543
 6428TIP3    H219228   4.819   6.678   0.555
 6429TIP3   OH219229   8.238   4.230   0.655
 6429TIP3    H119230   8.149   4.219   0.689
 6429TIP3    H219231   8.226   4.275   0.572
 6430TIP3   OH219232   0.464   3.526   4.366
 6430TIP3    H119233   0.408   3.591   4.409
 6430TIP3    H219234   0.431   3.520   4.277
 6431TIP3   OH219235   5.120   0.922   4.498
 6431TIP3    H119236   5.033   0.919   4.536
 6431TIP3    H219237   5.150   0.831   4.496
 6432TIP3   OH219238   3.481   2.006   4.869
 6432TIP3    H119239   3.569   2.043   4.874
 6432TIP3    H219240   3.472   1.975   4.779
 6433TIP3   OH219241   5.975   2.289   5.900
 6433TIP3    H119242   6.033   2.214   5.884
 6433TIP3    H219243   5.972   2.335   5.817
 6434TIP3   OH219244   6.068   5.076   6.301
 6434TIP3    H119245   6.104   5.133   6.369
 6434TIP3    H219246   6.102   5.112   6.219
 6435TIP3   OH219247   7.146   5.095   2.065
 6435TIP3    H119248   7.086   5.026   2.094
 6435TIP3    H219249   7.090   5.173   2.055
 6436TIP3   OH219250   1.853   0.206   2.754
 6436TIP3    H119251   1.863   0.144   2.681
 6436TIP3    H219252   1.773   0.178   2.798
 6437TIP3   OH219253   0.099   1.416   0.044
 6437TIP3    H119254   0.035   1.385  -0.021
 6437TIP3    H219255   0.048   1.474   0.101
 6438TIP3   OH219256   2.300  -0.017   5.295
 6438TIP3    H119257   2.313   0.059   5.351
 6438TIP3    H219258   2.264   0.018   5.214
 6439TIP3   OH219259   6.825   6.623   5.356
 6439TIP3    H119260   6.798   6.575   5.435
 6439TIP3    H219261   6.841   6.712   5.386
 6440TIP3   OH219262   6.761   6.289   2.184
 6440TIP3    H119263   6.763   6.337   2.267
 6440TIP3    H219264   6.726   6.203   2.206
 6441TIP3   OH219265   3.548   1.467   2.833
 6441TIP3    H119266   3.540   1.438   2.924
 6441TIP3    H219267   3.486   1.412   2.785
 6442TIP3   OH219268   6.959   6.595   2.339
 6442TIP3    H119269   6.996   6.572   2.424
 6442TIP3    H219270   6.870   6.562   2.341
 6443TIP3   OH219271   3.456   1.185   4.094
 6443TIP3    H119272   3.404   1.134   4.031
 6443TIP3    H219273   3.490   1.258   4.043
 6444TIP3   OH219274   7.551   3.228   2.581
 6444TIP3    H119275   7.544   3.296   2.648
 6444TIP3    H219276   7.645   3.225   2.560
 6445TIP3   OH219277   0.795   6.263   2.687
 6445TIP3    H119278   0.821   6.171   2.692
 6445TIP3    H219279   0.866   6.311   2.729
 6446TIP3   OH219280   5.055   0.762   3.374
 6446TIP3    H119281   5.038   0.758   3.468
 6446TIP3    H219282   4.968   0.765   3.334
 6447TIP3   OH219283   1.608   6.151   5.537
 6447TIP3    H119284   1.634   6.233   5.580
 6447TIP3    H219285   1.625   6.083   5.602
 6448TIP3   OH219286   3.105   4.397   1.145
 6448TIP3    H119287   3.026   4.343   1.151
 6448TIP3    H219288   3.130   4.392   1.053
 6449TIP3   OH219289   3.320   0.442   2.384
 6449TIP3    H119290   3.301   0.439   2.290
 6449TIP3    H219291   3.409   0.405   2.391
 6450TIP3   OH219292   5.602   7.269   6.585
 6450TIP3    H119293   5.661   7.339   6.557
 6450TIP3    H219294   5.568   7.232   6.504
 6451TIP3   OH219295   2.230   4.613   5.361
 6451TIP3    H119296   2.171   4.640   5.431
 6451TIP3    H219297   2.245   4.520   5.377
 6452TIP3   OH219298   1.975   4.461   5.575
 6452TIP3    H119299   2.009   4.505   5.497
 6452TIP3    H219300   1.947   4.375   5.544
 6453TIP3   OH219301   6.753   6.340   0.779
 6453TIP3    H119302   6.747   6.245   0.768
 6453TIP3    H219303   6.671   6.365   0.820
 6454TIP3   OH219304   1.511   6.686   5.666
 6454TIP3    H119305   1.507   6.715   5.575
 6454TIP3    H219306   1.587   6.731   5.703
 6455TIP3   OH219307   2.920   7.006   4.868
 6455TIP3    H119308   2.950   7.096   4.886
 6455TIP3    H219309   3.001   6.954   4.868
 6456TIP3   OH219310   4.432   2.208   1.253
 6456TIP3    H119311   4.481   2.165   1.183
 6456TIP3    H219312   4.372   2.141   1.285
 6457TIP3   OH219313   7.976   2.927   6.728
 6457TIP3    H119314   7.933   2.905   6.645
 6457TIP3    H219315   8.061   2.883   6.723
 6458TIP3   OH219316   1.572   2.051   4.287
 6458TIP3    H119317   1.597   1.997   4.362
 6458TIP3    H219318   1.513   2.117   4.323
 6459TIP3   OH219319   1.217   5.486   4.986
 6459TIP3    H119320   1.123   5.469   4.978
 6459TIP3    H219321   1.258   5.419   4.930
 6460TIP3   OH219322   6.813   6.576   2.891
 6460TIP3    H119323   6.776   6.489   2.881
 6460TIP3    H219324   6.769   6.629   2.825
 6461TIP3   OH219325   1.059   4.692   1.665
 6461TIP3    H119326   1.040   4.599   1.651
 6461TIP3    H219327   1.045   4.705   1.759
 6462TIP3   OH219328   7.990   4.133   6.294
 6462TIP3    H119329   8.076   4.171   6.281
 6462TIP3    H219330   7.946   4.143   6.209
 6463TIP3   OH219331   3.198   0.493   0.026
 6463TIP3    H119332   3.226   0.559  -0.038
 6463TIP3    H219333   3.278   0.449   0.052
 6464TIP3   OH219334   6.167   6.073   2.947
 6464TIP3    H119335   6.081   6.042   2.918
 6464TIP3    H219336   6.227   6.051   2.876
 6465TIP3   OH219337   6.406   7.497   1.277
 6465TIP3    H119338   6.352   7.538   1.344
 6465TIP3    H219339   6.401   7.403   1.295
 6466TIP3   OH219340   4.058   1.299   3.542
 6466TIP3    H119341   3.999   1.356   3.492
 6466TIP3    H219342   4.143   1.308   3.498
 6467TIP3   OH219343   5.161   6.335   3.681
 6467TIP3    H119344   5.232   6.270   3.681
 6467TIP3    H219345   5.132   6.338   3.772
 6468TIP3   OH219346   6.099   1.386   0.334
 6468TIP3    H119347   6.062   1.366   0.248
 6468TIP3    H219348   6.155   1.463   0.320
 6469TIP3   OH219349   4.853   5.674   3.692
 6469TIP3    H119350   4.850   5.578   3.684
 6469TIP3    H219351   4.762   5.701   3.683
 6470TIP3   OH219352   6.884   1.126   2.996
 6470TIP3    H119353   6.811   1.166   2.950
 6470TIP3    H219354   6.846   1.051   3.041
 6471TIP3   OH219355   2.701   1.686   0.033
 6471TIP3    H119356   2.697   1.780   0.015
 6471TIP3    H219357   2.609   1.659   0.042
 6472TIP3   OH219358   2.122   2.654   6.464
 6472TIP3    H119359   2.055   2.670   6.530
 6472TIP3    H219360   2.084   2.686   6.382
 6473TIP3   OH219361   1.102   4.027   5.179
 6473TIP3    H119362   1.033   4.047   5.242
 6473TIP3    H219363   1.118   3.933   5.188
 6474TIP3   OH219364   2.334   3.250   3.196
 6474TIP3    H119365   2.351   3.284   3.284
 6474TIP3    H219366   2.389   3.302   3.139
 6475TIP3   OH219367   2.257   2.719   2.649
 6475TIP3    H119368   2.307   2.777   2.591
 6475TIP3    H219369   2.324   2.676   2.703
 6476TIP3   OH219370   5.788   7.394   0.421
 6476TIP3    H119371   5.699   7.407   0.453
 6476TIP3    H219372   5.816   7.480   0.390
 6477TIP3   OH219373   4.610   6.865   2.637
 6477TIP3    H119374   4.551   6.909   2.698
 6477TIP3    H219375   4.683   6.834   2.691
 6478TIP3   OH219376   1.253   4.269   6.223
 6478TIP3    H119377   1.300   4.194   6.260
 6478TIP3    H219378   1.204   4.304   6.297
 6479TIP3   OH219379   2.325   3.107   4.120
 6479TIP3    H119380   2.285   3.172   4.177
 6479TIP3    H219381   2.393   3.154   4.073
 6480TIP3   OH219382   1.322   0.465   4.477
 6480TIP3    H119383   1.366   0.414   4.409
 6480TIP3    H219384   1.237   0.423   4.489
 6481TIP3   OH219385   0.819   7.130   5.094
 6481TIP3    H119386   0.881   7.101   5.027
 6481TIP3    H219387   0.802   7.222   5.072
 6482TIP3   OH219388   2.031   0.629   6.728
 6482TIP3    H119389   2.060   0.586   6.648
 6482TIP3    H219390   1.938   0.648   6.714
 6483TIP3   OH219391   1.163   4.979   4.810
 6483TIP3    H119392   1.107   4.918   4.859
 6483TIP3    H219393   1.114   4.998   4.730
 6484TIP3   OH219394   0.073   1.648   2.643
 6484TIP3    H119395   0.130   1.576   2.615
 6484TIP3    H219396  -0.010   1.607   2.664
 6485TIP3   OH219397   0.151   6.225   1.638
 6485TIP3    H119398   0.235   6.271   1.643
 6485TIP3    H219399   0.090   6.282   1.685
 6486TIP3   OH219400   2.235   1.702   4.593
 6486TIP3    H119401   2.202   1.789   4.614
 6486TIP3    H219402   2.157   1.651   4.572
 6487TIP3   OH219403   4.061   5.033   3.090
 6487TIP3    H119404   4.016   5.108   3.050
 6487TIP3    H219405   4.150   5.064   3.106
 6488TIP3   OH219406   5.228   4.400   0.016
 6488TIP3    H119407   5.267   4.487   0.024
 6488TIP3    H219408   5.301   4.340   0.029
 6489TIP3   OH219409   4.575   2.606   1.261
 6489TIP3    H119410   4.656   2.656   1.268
 6489TIP3    H219411   4.592   2.525   1.309
 6490TIP3   OH219412   7.106   1.231   6.437
 6490TIP3    H119413   7.027   1.188   6.470
 6490TIP3    H219414   7.107   1.316   6.481
 6491TIP3   OH219415   3.108   3.650   6.179
 6491TIP3    H119416   3.081   3.598   6.103
 6491TIP3    H219417   3.150   3.588   6.238
 6492TIP3   OH219418   4.155   3.536   2.166
 6492TIP3    H119419   4.080   3.593   2.149
 6492TIP3    H219420   4.209   3.543   2.087
 6493TIP3   OH219421   5.654   5.645   0.987
 6493TIP3    H119422   5.568   5.659   0.947
 6493TIP3    H219423   5.634   5.614   1.076
 6494TIP3   OH219424   5.119   6.340   1.045
 6494TIP3    H119425   5.153   6.355   0.957
 6494TIP3    H219426   5.185   6.285   1.088
 6495TIP3   OH219427   3.083   2.044   5.965
 6495TIP3    H119428   3.004   2.081   5.925
 6495TIP3    H219429   3.152   2.059   5.900
 6496TIP3   OH219430   3.469   6.200   0.746
 6496TIP3    H119431   3.448   6.255   0.822
 6496TIP3    H219432   3.460   6.111   0.778
 6497TIP3   OH219433   6.112   1.230   5.472
 6497TIP3    H119434   6.081   1.149   5.431
 6497TIP3    H219435   6.061   1.299   5.429
 6498TIP3   OH219436   6.202   0.292   0.657
 6498TIP3    H119437   6.167   0.260   0.574
 6498TIP3    H219438   6.148   0.368   0.678
 6499TIP3   OH219439   3.722   6.015   4.979
 6499TIP3    H119440   3.809   5.995   5.016
 6499TIP3    H219441   3.734   6.100   4.937
 6500TIP3   OH219442   7.973   5.830   6.111
 6500TIP3    H119443   8.064   5.812   6.087
 6500TIP3    H219444   7.926   5.830   6.028
 6501TIP3   OH219445   4.227   0.150   4.515
 6501TIP3    H119446   4.135   0.143   4.493
 6501TIP3    H219447   4.271   0.167   4.432
 6502TIP3   OH219448   4.030   6.407   6.046
 6502TIP3    H119449   3.966   6.403   6.117
 6502TIP3    H219450   3.992   6.352   5.977
 6503TIP3   OH219451   6.874   2.474   4.170
 6503TIP3    H119452   6.900   2.382   4.166
 6503TIP3    H219453   6.937   2.519   4.114
 6504TIP3   OH219454   3.780   7.155   2.862
 6504TIP3    H119455   3.778   7.097   2.939
 6504TIP3    H219456   3.873   7.175   2.849
 6505TIP3   OH219457   5.319   1.079   0.996
 6505TIP3    H119458   5.366   1.010   0.949
 6505TIP3    H219459   5.382   1.151   1.001
 6506TIP3   OH219460   1.930   0.530   1.275
 6506TIP3    H119461   1.964   0.512   1.187
 6506TIP3    H219462   1.931   0.445   1.319
 6507TIP3   OH219463   4.631   6.287   6.643
 6507TIP3    H119464   4.594   6.202   6.668
 6507TIP3    H219465   4.556   6.344   6.633
 6508TIP3   OH219466   4.331   5.603   2.579
 6508TIP3    H119467   4.236   5.606   2.563
 6508TIP3    H219468   4.370   5.605   2.491
 6509TIP3   OH219469   1.418   5.628   5.437
 6509TIP3    H119470   1.412   5.534   5.422
 6509TIP3    H219471   1.327   5.657   5.441
 6510TIP3   OH219472   8.298   6.801   5.468
 6510TIP3    H119473   8.386   6.763   5.462
 6510TIP3    H219474   8.249   6.759   5.398
 6511TIP3   OH219475   3.507   7.358   6.210
 6511TIP3    H119476   3.539   7.407   6.286
 6511TIP3    H219477   3.465   7.423   6.154
 6512TIP3   OH219478   2.132   6.850   3.405
 6512TIP3    H119479   2.102   6.889   3.487
 6512TIP3    H219480   2.212   6.899   3.384
 6513TIP3   OH219481   5.168   7.338   0.791
 6513TIP3    H119482   5.258   7.371   0.799
 6513TIP3    H219483   5.174   7.271   0.722
 6514TIP3   OH219484   6.243   0.618   5.995
 6514TIP3    H119485   6.196   0.565   5.931
 6514TIP3    H219486   6.241   0.566   6.075
 6515TIP3   OH219487   1.414   0.229   5.236
 6515TIP3    H119488   1.453   0.304   5.191
 6515TIP3    H219489   1.334   0.264   5.276
 6516TIP3   OH219490   4.094   7.391   1.504
 6516TIP3    H119491   4.170   7.338   1.481
 6516TIP3    H219492   4.019   7.332   1.496
 6517TIP3   OH219493   2.647   0.332   5.446
 6517TIP3    H119494   2.578   0.279   5.487
 6517TIP3    H219495   2.720   0.329   5.508
 6518TIP3   OH219496   3.272   1.685   4.869
 6518TIP3    H119497   3.362   1.707   4.895
 6518TIP3    H219498   3.225   1.768   4.872
 6519TIP3   OH219499   1.853   5.809   0.626
 6519TIP3    H119500   1.797   5.732   0.626
 6519TIP3    H219501   1.911   5.797   0.550
 6520TIP3   OH219502   1.810   5.927   3.812
 6520TIP3    H119503   1.729   5.968   3.843
 6520TIP3    H219504   1.879   5.965   3.867
 6521TIP3   OH219505   6.659   3.674   3.360
 6521TIP3    H119506   6.692   3.700   3.274
 6521TIP3    H219507   6.581   3.727   3.373
 6522TIP3   OH219508   2.373   4.778   1.479
 6522TIP3    H119509   2.468   4.765   1.476
 6522TIP3    H219510   2.353   4.823   1.397
 6523TIP3   OH219511   7.039   2.990   6.621
 6523TIP3    H119512   7.092   2.956   6.549
 6523TIP3    H219513   7.095   3.056   6.663
 6524TIP3   OH219514   6.595   6.093   2.570
 6524TIP3    H119515   6.507   6.130   2.557
 6524TIP3    H219516   6.579   6.002   2.597
 6525TIP3   OH219517   0.969   0.534   2.527
 6525TIP3    H119518   0.886   0.580   2.517
 6525TIP3    H219519   0.958   0.482   2.607
 6526TIP3   OH219520   0.616   7.464   1.034
 6526TIP3    H119521   0.651   7.540   0.988
 6526TIP3    H219522   0.625   7.487   1.127
 6527TIP3   OH219523   4.449   2.832   4.463
 6527TIP3    H119524   4.460   2.914   4.416
 6527TIP3    H219525   4.514   2.772   4.425
 6528TIP3   OH219526   1.274   4.584   4.936
 6528TIP3    H119527   1.351   4.529   4.921
 6528TIP3    H219528   1.292   4.665   4.887
 6529TIP3   OH219529   5.908   4.995   4.634
 6529TIP3    H119530   5.850   4.925   4.605
 6529TIP3    H219531   5.856   5.047   4.695
 6530TIP3   OH219532   7.499   3.373   2.349
 6530TIP3    H119533   7.503   3.315   2.425
 6530TIP3    H219534   7.457   3.320   2.281
 6531TIP3   OH219535   6.852   7.018   0.592
 6531TIP3    H119536   6.874   6.969   0.671
 6531TIP3    H219537   6.781   6.968   0.551
 6532TIP3   OH219538   0.559   6.208   0.301
 6532TIP3    H119539   0.510   6.266   0.243
 6532TIP3    H219540   0.551   6.247   0.388
 6533TIP3   OH219541   1.332   6.449   6.489
 6533TIP3    H119542   1.260   6.482   6.543
 6533TIP3    H219543   1.326   6.353   6.498
 6534TIP3   OH219544   3.654   4.385   2.868
 6534TIP3    H119545   3.690   4.345   2.790
 6534TIP3    H219546   3.600   4.317   2.907
 6535TIP3   OH219547   3.671   3.234   3.909
 6535TIP3    H119548   3.617   3.160   3.882
 6535TIP3    H219549   3.651   3.246   4.001
 6536TIP3   OH219550   2.504   1.790   6.411
 6536TIP3    H119551   2.409   1.798   6.403
 6536TIP3    H219552   2.529   1.854   6.478
 6537TIP3   OH219553   3.315   2.902   2.333
 6537TIP3    H119554   3.306   2.811   2.303
 6537TIP3    H219555   3.261   2.952   2.272
 6538TIP3   OH219556   1.710   6.947   1.305
 6538TIP3    H119557   1.692   7.001   1.382
 6538TIP3    H219558   1.802   6.920   1.316
 6539TIP3   OH219559   5.123   7.502   5.302
 6539TIP3    H119560   5.096   7.528   5.390
 6539TIP3    H219561   5.044   7.461   5.264
 6540TIP3   OH219562   6.628   0.241   4.589
 6540TIP3    H119563   6.703   0.265   4.534
 6540TIP3    H219564   6.590   0.165   4.545
 6541TIP3   OH219565   8.129   1.095   2.818
 6541TIP3    H119566   8.139   1.146   2.737
 6541TIP3    H219567   8.100   1.159   2.883
 6542TIP3   OH219568   7.005   0.568   6.201
 6542TIP3    H119569   6.942   0.579   6.130
 6542TIP3    H219570   7.084   0.611   6.169
 6543TIP3   OH219571   4.839   7.192   3.517
 6543TIP3    H119572   4.894   7.128   3.564
 6543TIP3    H219573   4.901   7.240   3.462
 6544TIP3   OH219574   7.302   5.704   1.494
 6544TIP3    H119575   7.290   5.793   1.461
 6544TIP3    H219576   7.237   5.652   1.447
 6545TIP3   OH219577   7.262   5.116   0.279
 6545TIP3    H119578   7.167   5.129   0.282
 6545TIP3    H219579   7.278   5.041   0.336
 6546TIP3   OH219580   0.652   2.619   0.899
 6546TIP3    H119581   0.557   2.625   0.886
 6546TIP3    H219582   0.683   2.565   0.827
 6547TIP3   OH219583   5.234   7.438   1.732
 6547TIP3    H119584   5.148   7.480   1.724
 6547TIP3    H219585   5.296   7.510   1.741
 6548TIP3   OH219586   6.472   5.055   1.329
 6548TIP3    H119587   6.535   5.124   1.307
 6548TIP3    H219588   6.386   5.095   1.315
 6549TIP3   OH219589   6.449   5.440   0.430
 6549TIP3    H119590   6.391   5.387   0.486
 6549TIP3    H219591   6.520   5.466   0.489
 6550TIP3   OH219592   2.102   0.337   2.737
 6550TIP3    H119593   2.008   0.318   2.742
 6550TIP3    H219594   2.124   0.324   2.644
 6551TIP3   OH219595   7.575   1.559   2.038
 6551TIP3    H119596   7.586   1.479   1.987
 6551TIP3    H219597   7.662   1.600   2.036
 6552TIP3   OH219598   1.725   1.414   0.810
 6552TIP3    H119599   1.794   1.374   0.862
 6552TIP3    H219600   1.645   1.402   0.861
 6553TIP3   OH219601   2.134   2.654   2.296
 6553TIP3    H119602   2.138   2.742   2.331
 6553TIP3    H219603   2.225   2.628   2.284
 6554TIP3   OH219604   1.293   0.195   6.105
 6554TIP3    H119605   1.379   0.192   6.146
 6554TIP3    H219606   1.310   0.227   6.016
 6555TIP3   OH219607   6.804   2.659   6.297
 6555TIP3    H119608   6.812   2.661   6.393
 6555TIP3    H219609   6.890   2.629   6.267
 6556TIP3   OH219610   8.030   0.922   6.288
 6556TIP3    H119611   8.052   0.837   6.249
 6556TIP3    H219612   8.020   0.905   6.381
 6557TIP3   OH219613   5.856   7.609   2.605
 6557TIP3    H119614   5.801   7.666   2.659
 6557TIP3    H219615   5.920   7.572   2.667
 6558TIP3   OH219616   5.403   4.618   6.152
 6558TIP3    H119617   5.446   4.641   6.234
 6558TIP3    H219618   5.385   4.524   6.160
 6559TIP3   OH219619   1.850   7.283   5.436
 6559TIP3    H119620   1.878   7.276   5.345
 6559TIP3    H219621   1.754   7.282   5.431
 6560TIP3   OH219622   0.020   6.584   1.727
 6560TIP3    H119623   0.114   6.566   1.721
 6560TIP3    H219624   0.015   6.676   1.752
 6561TIP3   OH219625   6.870   0.622   2.195
 6561TIP3    H119626   6.869   0.676   2.273
 6561TIP3    H219627   6.866   0.532   2.227
 6562TIP3   OH219628   4.347   4.469   6.472
 6562TIP3    H119629   4.311   4.429   6.393
 6562TIP3    H219630   4.310   4.557   6.473
 6563TIP3   OH219631   5.422   5.744   4.190
 6563TIP3    H119632   5.327   5.738   4.197
 6563TIP3    H219633   5.451   5.656   4.168
 6564TIP3   OH219634   2.445   3.954   3.129
 6564TIP3    H119635   2.534   3.928   3.106
 6564TIP3    H219636   2.445   4.049   3.123
 6565TIP3   OH219637   0.632   1.450   5.531
 6565TIP3    H119638   0.685   1.493   5.599
 6565TIP3    H219639   0.554   1.505   5.524
 6566TIP3   OH219640   7.193   5.266   4.419
 6566TIP3    H119641   7.127   5.281   4.487
 6566TIP3    H219642   7.176   5.334   4.354
 6567TIP3   OH219643   0.144   4.701   2.167
 6567TIP3    H119644   0.136   4.684   2.261
 6567TIP3    H219645   0.193   4.783   2.162
 6568TIP3   OH219646   2.875   6.497   2.908
 6568TIP3    H119647   2.850   6.573   2.855
 6568TIP3    H219648   2.901   6.431   2.845
 6569TIP3   OH219649   1.162   6.724   2.486
 6569TIP3    H119650   1.199   6.693   2.569
 6569TIP3    H219651   1.168   6.648   2.428
 6570TIP3   OH219652   4.812   6.812   2.823
 6570TIP3    H119653   4.860   6.893   2.805
 6570TIP3    H219654   4.780   6.823   2.913
 6571TIP3   OH219655   0.256   0.957   4.248
 6571TIP3    H119656   0.183   0.944   4.189
 6571TIP3    H219657   0.249   1.048   4.277
 6572TIP3   OH219658   6.665   6.872   5.263
 6572TIP3    H119659   6.601   6.875   5.335
 6572TIP3    H219660   6.746   6.903   5.303
 6573TIP3   OH219661   3.542   6.876   0.495
 6573TIP3    H119662   3.554   6.811   0.565
 6573TIP3    H219663   3.571   6.958   0.535
 6574TIP3   OH219664   2.678   4.968   6.485
 6574TIP3    H119665   2.604   4.910   6.498
 6574TIP3    H219666   2.744   4.914   6.441
 6575TIP3   OH219667   2.414   1.105   1.468
 6575TIP3    H119668   2.322   1.079   1.473
 6575TIP3    H219669   2.453   1.074   1.549
 6576TIP3   OH219670   2.764   3.986   4.337
 6576TIP3    H119671   2.839   4.042   4.317
 6576TIP3    H219672   2.695   4.017   4.279
 6577TIP3   OH219673   7.070   5.652   3.551
 6577TIP3    H119674   7.132   5.601   3.499
 6577TIP3    H219675   7.038   5.592   3.618
 6578TIP3   OH219676   3.573   4.578   5.540
 6578TIP3    H119677   3.598   4.486   5.524
 6578TIP3    H219678   3.630   4.605   5.613
 6579TIP3   OH219679   1.001   4.684   1.937
 6579TIP3    H119680   1.052   4.725   2.007
 6579TIP3    H219681   0.922   4.652   1.980
 6580TIP3   OH219682   4.499   6.361   2.438
 6580TIP3    H119683   4.436   6.431   2.456
 6580TIP3    H219684   4.578   6.406   2.409
 6581TIP3   OH219685   6.056   5.497   6.221
 6581TIP3    H119686   5.966   5.477   6.196
 6581TIP3    H219687   6.104   5.498   6.138
 6582TIP3   OH219688   5.207   6.448   6.752
 6582TIP3    H119689   5.211   6.372   6.694
 6582TIP3    H219690   5.127   6.434   6.804
 6583TIP3   OH219691   4.172   7.049   0.383
 6583TIP3    H119692   4.223   7.065   0.303
 6583TIP3    H219693   4.236   7.016   0.446
 6584TIP3   OH219694   1.327   2.070   5.603
 6584TIP3    H119695   1.295   2.158   5.579
 6584TIP3    H219696   1.356   2.032   5.520
 6585TIP3   OH219697   0.435   3.239   3.725
 6585TIP3    H119698   0.452   3.281   3.809
 6585TIP3    H219699   0.474   3.152   3.732
 6586TIP3   OH219700   5.277   4.782   2.138
 6586TIP3    H119701   5.244   4.788   2.228
 6586TIP3    H219702   5.271   4.689   2.116
 6587TIP3   OH219703   4.826   3.965   2.689
 6587TIP3    H119704   4.904   3.970   2.634
 6587TIP3    H219705   4.810   3.872   2.701
 6588TIP3   OH219706   4.913   4.846   5.270
 6588TIP3    H119707   4.874   4.761   5.294
 6588TIP3    H219708   4.968   4.826   5.194
 6589TIP3   OH219709   6.272   7.693   5.377
 6589TIP3    H119710   6.302   7.775   5.415
 6589TIP3    H219711   6.343   7.631   5.395
 6590TIP3   OH219712   3.153   1.509   4.600
 6590TIP3    H119713   3.114   1.440   4.546
 6590TIP3    H219714   3.079   1.549   4.646
 6591TIP3   OH219715   6.111   7.363   1.459
 6591TIP3    H119716   6.113   7.268   1.470
 6591TIP3    H219717   6.082   7.376   1.369
 6592TIP3   OH219718   5.667   5.238   1.287
 6592TIP3    H119719   5.749   5.232   1.239
 6592TIP3    H219720   5.614   5.165   1.252
 6593TIP3   OH219721   5.244   6.360   2.988
 6593TIP3    H119722   5.172   6.366   2.926
 6593TIP3    H219723   5.204   6.326   3.069
 6594TIP3   OH219724   2.809   4.162   4.921
 6594TIP3    H119725   2.720   4.187   4.947
 6594TIP3    H219726   2.835   4.094   4.983
 6595TIP3   OH219727   6.453   3.211   6.626
 6595TIP3    H119728   6.406   3.135   6.661
 6595TIP3    H219729   6.544   3.181   6.617
 6596TIP3   OH219730   4.330   3.988   2.111
 6596TIP3    H119731   4.354   3.897   2.130
 6596TIP3    H219732   4.305   4.025   2.196
 6597TIP3   OH219733   6.492   0.160   0.693
 6597TIP3    H119734   6.480   0.135   0.601
 6597TIP3    H219735   6.420   0.116   0.739
 6598TIP3   OH219736   6.563   0.987   1.202
 6598TIP3    H119737   6.602   1.052   1.260
 6598TIP3    H219738   6.474   0.975   1.235
 6599TIP3   OH219739   4.028   1.170   1.012
 6599TIP3    H119740   4.122   1.165   1.032
 6599TIP3    H219741   3.996   1.244   1.064
 6600TIP3   OH219742   3.172   7.521   4.988
 6600TIP3    H119743   3.181   7.570   4.906
 6600TIP3    H219744   3.127   7.581   5.047
 6601TIP3   OH219745   5.448   2.154   6.078
 6601TIP3    H119746   5.434   2.138   6.171
 6601TIP3    H219747   5.536   2.121   6.060
 6602TIP3   OH219748   2.458   4.711   2.980
 6602TIP3    H119749   2.445   4.805   2.968
 6602TIP3    H219750   2.544   4.694   2.939
 6603TIP3   OH219751   6.751   2.865   0.035
 6603TIP3    H119752   6.745   2.954   0.069
 6603TIP3    H219753   6.754   2.809   0.112
 6604TIP3   OH219754   7.654   2.813   5.651
 6604TIP3    H119755   7.651   2.759   5.730
 6604TIP3    H219756   7.692   2.755   5.584
 6605TIP3   OH219757   2.159   5.278   5.315
 6605TIP3    H119758   2.189   5.234   5.236
 6605TIP3    H219759   2.235   5.329   5.345
 6606TIP3   OH219760   4.707   1.347   0.260
 6606TIP3    H119761   4.666   1.432   0.277
 6606TIP3    H219762   4.646   1.283   0.295
 6607TIP3   OH219763   2.885   3.774   0.230
 6607TIP3    H119764   2.848   3.801   0.146
 6607TIP3    H219765   2.977   3.798   0.225
 6608TIP3   OH219766   1.213   5.631   2.313
 6608TIP3    H119767   1.212   5.688   2.390
 6608TIP3    H219768   1.185   5.546   2.346
 6609TIP3   OH219769   1.359   2.970   1.377
 6609TIP3    H119770   1.405   3.044   1.337
 6609TIP3    H219771   1.268   2.999   1.382
 6610TIP3   OH219772   5.156   1.971   5.040
 6610TIP3    H119773   5.211   2.048   5.021
 6610TIP3    H219774   5.072   2.008   5.066
 6611TIP3   OH219775   2.323   5.396   6.693
 6611TIP3    H119776   2.408   5.414   6.652
 6611TIP3    H219777   2.345   5.375   6.784
 6612TIP3   OH219778   7.670   3.768   5.272
 6612TIP3    H119779   7.576   3.784   5.256
 6612TIP3    H219780   7.675   3.739   5.363
 6613TIP3   OH219781   8.111   6.155   6.054
 6613TIP3    H119782   8.112   6.064   6.024
 6613TIP3    H219783   8.019   6.181   6.051
 6614TIP3   OH219784   6.801   4.649   4.351
 6614TIP3    H119785   6.867   4.658   4.420
 6614TIP3    H219786   6.737   4.588   4.387
 6615TIP3   OH219787   7.292   3.965   4.732
 6615TIP3    H119788   7.249   4.047   4.758
 6615TIP3    H219789   7.221   3.903   4.721
 6616TIP3   OH219790   5.628   7.281   0.808
 6616TIP3    H119791   5.606   7.237   0.726
 6616TIP3    H219792   5.722   7.268   0.817
 6617TIP3   OH219793   0.225   1.879   3.096
 6617TIP3    H119794   0.149   1.933   3.074
 6617TIP3    H219795   0.225   1.810   3.030
 6618TIP3   OH219796   6.956   0.856   4.081
 6618TIP3    H119797   7.018   0.927   4.067
 6618TIP3    H219798   6.969   0.797   4.007
 6619TIP3   OH219799   4.029   0.707   1.252
 6619TIP3    H119800   4.010   0.766   1.179
 6619TIP3    H219801   4.105   0.745   1.295
 6620TIP3   OH219802   7.418   6.873   4.361
 6620TIP3    H119803   7.408   6.778   4.351
 6620TIP3    H219804   7.330   6.906   4.374
 6621TIP3   OH219805   0.151   6.249  -0.007
 6621TIP3    H119806   0.083   6.317  -0.006
 6621TIP3    H219807   0.194   6.257   0.078
 6622TIP3   OH219808   4.616   6.093   2.183
 6622TIP3    H119809   4.638   6.013   2.135
 6622TIP3    H219810   4.672   6.161   2.144
 6623TIP3   OH219811   8.035   3.168   1.253
 6623TIP3    H119812   8.000   3.086   1.286
 6623TIP3    H219813   8.107   3.143   1.195
 6624TIP3   OH219814   6.091   1.064   6.198
 6624TIP3    H119815   6.157   1.070   6.129
 6624TIP3    H219816   6.122   0.993   6.255
 6625TIP3   OH219817   0.645   5.321   2.153
 6625TIP3    H119818   0.656   5.262   2.078
 6625TIP3    H219819   0.689   5.276   2.225
 6626TIP3   OH219820   1.048   3.233   3.730
 6626TIP3    H119821   1.020   3.148   3.696
 6626TIP3    H219822   1.023   3.296   3.662
 6627TIP3   OH219823   0.146   6.647   0.345
 6627TIP3    H119824   0.133   6.637   0.439
 6627TIP3    H219825   0.230   6.693   0.337
 6628TIP3   OH219826   3.947   7.476   6.248
 6628TIP3    H119827   3.972   7.384   6.258
 6628TIP3    H219828   3.911   7.481   6.159
 6629TIP3   OH219829   1.740   3.770   0.758
 6629TIP3    H119830   1.741   3.799   0.667
 6629TIP3    H219831   1.685   3.692   0.758
 6630TIP3   OH219832   0.445   2.952   1.824
 6630TIP3    H119833   0.401   2.868   1.813
 6630TIP3    H219834   0.407   2.989   1.904
 6631TIP3   OH219835   1.381   0.978   6.665
 6631TIP3    H119836   1.426   0.950   6.744
 6631TIP3    H219837   1.381   0.900   6.609
 6632TIP3   OH219838   1.870   5.331   2.136
 6632TIP3    H119839   1.811   5.392   2.091
 6632TIP3    H219840   1.842   5.244   2.106
 6633TIP3   OH219841   4.466   1.690   4.703
 6633TIP3    H119842   4.461   1.750   4.777
 6633TIP3    H219843   4.550   1.709   4.662
 6634TIP3   OH219844   4.517   7.025   5.197
 6634TIP3    H119845   4.601   6.981   5.186
 6634TIP3    H219846   4.487   7.000   5.284
 6635TIP3   OH219847   3.564   6.788   1.338
 6635TIP3    H119848   3.477   6.777   1.301
 6635TIP3    H219849   3.602   6.700   1.333
 6636TIP3   OH219850   2.045   1.211   3.115
 6636TIP3    H119851   2.081   1.257   3.039
 6636TIP3    H219852   2.105   1.138   3.130
 6637TIP3   OH219853   4.369   2.016   3.038
 6637TIP3    H119854   4.430   1.977   2.976
 6637TIP3    H219855   4.363   1.953   3.110
 6638TIP3   OH219856   3.014   5.694   4.067
 6638TIP3    H119857   2.983   5.651   4.147
 6638TIP3    H219858   2.962   5.655   3.997
 6639TIP3   OH219859   3.054   2.362   2.794
 6639TIP3    H119860   3.136   2.315   2.781
 6639TIP3    H219861   3.079   2.454   2.803
 6640TIP3   OH219862   4.805   2.734   3.730
 6640TIP3    H119863   4.747   2.714   3.657
 6640TIP3    H219864   4.791   2.828   3.746
 6641TIP3   OH219865   0.740   4.149   0.308
 6641TIP3    H119866   0.657   4.196   0.316
 6641TIP3    H219867   0.807   4.216   0.317
 6642TIP3   OH219868   3.224   3.196   4.273
 6642TIP3    H119869   3.181   3.220   4.355
 6642TIP3    H219870   3.183   3.114   4.246
 6643TIP3   OH219871   6.267   0.641   1.191
 6643TIP3    H119872   6.177   0.639   1.159
 6643TIP3    H219873   6.305   0.560   1.157
 6644TIP3   OH219874   6.729   5.859   6.104
 6644TIP3    H119875   6.734   5.779   6.052
 6644TIP3    H219876   6.693   5.925   6.044
 6645TIP3   OH219877   5.287   2.856   1.245
 6645TIP3    H119878   5.362   2.884   1.193
 6645TIP3    H219879   5.259   2.774   1.203
 6646TIP3   OH219880   7.055   2.164   1.766
 6646TIP3    H119881   7.066   2.259   1.762
 6646TIP3    H219882   7.028   2.139   1.678
 6647TIP3   OH219883   6.135   1.805   0.298
 6647TIP3    H119884   6.064   1.795   0.234
 6647TIP3    H219885   6.178   1.720   0.299
 6648TIP3   OH219886   6.214   4.167   2.930
 6648TIP3    H119887   6.233   4.109   3.004
 6648TIP3    H219888   6.149   4.119   2.879
 6649TIP3   OH219889   7.396   7.817   2.543
 6649TIP3    H119890   7.303   7.809   2.523
 6649TIP3    H219891   7.409   7.761   2.620
 6650TIP3   OH219892   2.249   2.944   5.009
 6650TIP3    H119893   2.214   2.865   4.968
 6650TIP3    H219894   2.228   3.014   4.947
 6651TIP3   OH219895   0.624   2.200   3.833
 6651TIP3    H119896   0.595   2.270   3.775
 6651TIP3    H219897   0.715   2.183   3.808
 6652TIP3   OH219898   2.062   7.506   3.732
 6652TIP3    H119899   1.982   7.456   3.745
 6652TIP3    H219900   2.054   7.580   3.793
 6653TIP3   OH219901   6.632   1.499   5.336
 6653TIP3    H119902   6.640   1.565   5.267
 6653TIP3    H219903   6.601   1.421   5.291
 6654TIP3   OH219904   2.935   6.369   2.675
 6654TIP3    H119905   2.992   6.296   2.650
 6654TIP3    H219906   2.849   6.328   2.688
 6655TIP3   OH219907   7.894   1.457   2.889
 6655TIP3    H119908   7.817   1.421   2.933
 6655TIP3    H219909   7.968   1.415   2.933
 6656TIP3   OH219910   6.199   2.488   3.063
 6656TIP3    H119911   6.116   2.536   3.057
 6656TIP3    H219912   6.258   2.547   3.111
 6657TIP3   OH219913   7.074   0.759   5.482
 6657TIP3    H119914   7.015   0.827   5.515
 6657TIP3    H219915   7.051   0.751   5.389
 6658TIP3   OH219916   1.531   1.229   0.459
 6658TIP3    H119917   1.504   1.142   0.431
 6658TIP3    H219918   1.626   1.227   0.456
 6659TIP3   OH219919   3.913   0.138   6.035
 6659TIP3    H119920   3.866   0.199   5.977
 6659TIP3    H219921   3.928   0.060   5.981
 6660TIP3   OH219922   8.184   0.305   0.721
 6660TIP3    H119923   8.193   0.216   0.757
 6660TIP3    H219924   8.250   0.357   0.768
 6661TIP3   OH219925   5.300   3.016   5.997
 6661TIP3    H119926   5.298   2.934   6.046
 6661TIP3    H219927   5.292   2.989   5.905
 6662TIP3   OH219928   2.962   4.423   2.382
 6662TIP3    H119929   3.049   4.455   2.404
 6662TIP3    H219930   2.970   4.328   2.383
 6663TIP3   OH219931   2.542   3.212   3.994
 6663TIP3    H119932   2.519   3.301   4.019
 6663TIP3    H219933   2.626   3.195   4.037
 6664TIP3   OH219934   3.926   6.758   2.352
 6664TIP3    H119935   3.879   6.745   2.270
 6664TIP3    H219936   4.018   6.762   2.326
 6665TIP3   OH219937   6.674   0.652   3.851
 6665TIP3    H119938   6.583   0.663   3.879
 6665TIP3    H219939   6.709   0.585   3.910
 6666TIP3   OH219940   6.424   0.319   4.268
 6666TIP3    H119941   6.376   0.387   4.221
 6666TIP3    H219942   6.365   0.243   4.268
 6667TIP3   OH219943   2.910   2.397   0.319
 6667TIP3    H119944   2.969   2.443   0.377
 6667TIP3    H219945   2.864   2.466   0.270
 6668TIP3   OH219946   2.347   6.157   1.616
 6668TIP3    H119947   2.338   6.252   1.608
 6668TIP3    H219948   2.275   6.122   1.565
 6669TIP3   OH219949   4.086   1.139   6.533
 6669TIP3    H119950   4.172   1.137   6.491
 6669TIP3    H219951   4.100   1.102   6.620
 6670TIP3   OH219952   7.621   0.312   1.620
 6670TIP3    H119953   7.616   0.294   1.714
 6670TIP3    H219954   7.570   0.392   1.609
 6671TIP3   OH219955   7.382   6.320   2.030
 6671TIP3    H119956   7.356   6.328   2.122
 6671TIP3    H219957   7.369   6.408   1.994
 6672TIP3   OH219958   5.964   7.573   3.609
 6672TIP3    H119959   5.952   7.594   3.702
 6672TIP3    H219960   6.028   7.638   3.578
 6673TIP3   OH219961   7.248   2.847   2.536
 6673TIP3    H119962   7.310   2.899   2.486
 6673TIP3    H219963   7.162   2.877   2.507
 6674TIP3   OH219964   4.798   5.931   3.606
 6674TIP3    H119965   4.705   5.924   3.585
 6674TIP3    H219966   4.841   5.938   3.522
 6675TIP3   OH219967   2.164   6.021   5.356
 6675TIP3    H119968   2.107   6.084   5.311
 6675TIP3    H219969   2.211   5.976   5.285
 6676TIP3   OH219970   1.980   2.339   6.106
 6676TIP3    H119971   1.919   2.398   6.061
 6676TIP3    H219972   1.981   2.372   6.196
 6677TIP3   OH219973   3.124   6.774   4.364
 6677TIP3    H119974   3.134   6.737   4.277
 6677TIP3    H219975   3.213   6.795   4.392
 6678TIP3   OH219976   0.515   4.517   4.778
 6678TIP3    H119977   0.449   4.583   4.799
 6678TIP3    H219978   0.596   4.552   4.816
 6679TIP3   OH219979   3.420   1.303   5.264
 6679TIP3    H119980   3.417   1.220   5.216
 6679TIP3    H219981   3.496   1.294   5.323
 6680TIP3   OH219982   5.485   6.238   5.099
 6680TIP3    H119983   5.475   6.233   5.194
 6680TIP3    H219984   5.403   6.276   5.067
 6681TIP3   OH219985   4.449   1.357   4.350
 6681TIP3    H119986   4.399   1.371   4.430
 6681TIP3    H219987   4.390   1.309   4.292
 6682TIP3   OH219988   2.111   1.511   0.405
 6682TIP3    H119989   2.053   1.543   0.336
 6682TIP3    H219990   2.135   1.590   0.454
 6683TIP3   OH219991   7.183   5.723   5.448
 6683TIP3    H119992   7.219   5.650   5.498
 6683TIP3    H219993   7.250   5.743   5.384
 6684TIP3   OH219994   5.815   3.312   4.136
 6684TIP3    H119995   5.886   3.275   4.083
 6684TIP3    H219996   5.738   3.260   4.111
 6685TIP3   OH219997   2.234   6.359   6.516
 6685TIP3    H119998   2.187   6.275   6.520
 6685TIP3    H219999   2.321   6.339   6.550
 6686TIP3   OH220000   7.840   2.944   2.740
 6686TIP3    H120001   7.844   2.909   2.829
 6686TIP3    H220002   7.753   2.921   2.709
 6687TIP3   OH220003   4.112   5.993   6.354
 6687TIP3    H120004   4.155   6.017   6.272
 6687TIP3    H220005   4.056   5.918   6.331
 6688TIP3   OH220006   0.202   6.978   3.401
 6688TIP3    H120007   0.270   6.911   3.396
 6688TIP3    H220008   0.249   7.060   3.382
 6689TIP3   OH220009   7.999   0.841   6.566
 6689TIP3    H120010   7.983   0.763   6.514
 6689TIP3    H220011   7.950   0.826   6.647
 6690TIP3   OH220012   1.110   6.918   5.144
 6690TIP3    H120013   1.096   6.988   5.081
 6690TIP3    H220014   1.181   6.951   5.200
 6691TIP3   OH220015   0.446   4.075   2.313
 6691TIP3    H120016   0.458   4.018   2.389
 6691TIP3    H220017   0.412   4.017   2.245
 6692TIP3   OH220018   5.044   1.765   5.715
 6692TIP3    H120019   5.071   1.719   5.795
 6692TIP3    H220020   5.080   1.711   5.644
 6693TIP3   OH220021   0.270   7.513   5.016
 6693TIP3    H120022   0.309   7.582   5.068
 6693TIP3    H220023   0.208   7.470   5.075
 6694TIP3   OH220024   5.060   5.030   4.748
 6694TIP3    H120025   5.062   4.963   4.680
 6694TIP3    H220026   5.123   5.096   4.718
 6695TIP3   OH220027   7.620   2.383   4.537
 6695TIP3    H120028   7.552   2.375   4.470
 6695TIP3    H220029   7.701   2.397   4.487
 6696TIP3   OH220030   0.376   5.343   0.115
 6696TIP3    H120031   0.415   5.257   0.103
 6696TIP3    H220032   0.353   5.371   0.027
 6697TIP3   OH220033   2.395   2.172   4.315
 6697TIP3    H120034   2.331   2.178   4.386
 6697TIP3    H220035   2.466   2.229   4.343
 6698TIP3   OH220036   3.778   0.627   0.657
 6698TIP3    H120037   3.760   0.689   0.728
 6698TIP3    H220038   3.714   0.649   0.590
 6699TIP3   OH220039   1.761   3.094   0.199
 6699TIP3    H120040   1.751   3.078   0.292
 6699TIP3    H220041   1.706   3.027   0.157
 6700TIP3   OH220042   0.782   4.494   5.128
 6700TIP3    H120043   0.772   4.560   5.196
 6700TIP3    H220044   0.868   4.510   5.091
 6701TIP3   OH220045   1.292   2.343   5.549
 6701TIP3    H120046   1.374   2.385   5.522
 6701TIP3    H220047   1.225   2.410   5.532
 6702TIP3   OH220048   7.912   6.863   3.744
 6702TIP3    H120049   7.945   6.942   3.701
 6702TIP3    H220050   7.817   6.868   3.734
 6703TIP3   OH220051   1.549   2.538   4.476
 6703TIP3    H120052   1.520   2.461   4.427
 6703TIP3    H220053   1.639   2.518   4.500
 6704TIP3   OH220054   2.936   4.171   2.237
 6704TIP3    H120055   2.868   4.104   2.241
 6704TIP3    H220056   2.898   4.241   2.184
 6705TIP3   OH220057   1.815   3.268   5.759
 6705TIP3    H120058   1.911   3.261   5.760
 6705TIP3    H220059   1.788   3.207   5.690
 6706TIP3   OH220060   1.230   6.366   2.325
 6706TIP3    H120061   1.184   6.404   2.250
 6706TIP3    H220062   1.316   6.407   2.325
 6707TIP3   OH220063   4.965   2.892   1.611
 6707TIP3    H120064   4.942   2.873   1.520
 6707TIP3    H220065   5.039   2.952   1.605
 6708TIP3   OH220066   3.939   3.261   3.833
 6708TIP3    H120067   3.847   3.237   3.825
 6708TIP3    H220068   3.939   3.338   3.890
 6709TIP3   OH220069   0.909   5.527   5.399
 6709TIP3    H120070   0.841   5.505   5.336
 6709TIP3    H220071   0.962   5.447   5.406
 6710TIP3   OH220072   6.876   4.006   0.432
 6710TIP3    H120073   6.959   3.987   0.389
 6710TIP3    H220074   6.813   4.011   0.360
 6711TIP3   OH220075   4.361   2.798   3.269
 6711TIP3    H120076   4.298   2.841   3.327
 6711TIP3    H220077   4.351   2.704   3.287
 6712TIP3   OH220078   7.777   6.617   2.651
 6712TIP3    H120079   7.691   6.658   2.640
 6712TIP3    H220080   7.793   6.572   2.569
 6713TIP3   OH220081   6.394   3.089   2.605
 6713TIP3    H120082   6.344   3.128   2.534
 6713TIP3    H220083   6.338   3.019   2.638
 6714TIP3   OH220084   4.082   4.146   0.233
 6714TIP3    H120085   4.002   4.141   0.180
 6714TIP3    H220086   4.132   4.069   0.207
 6715TIP3   OH220087   6.620   6.306   0.539
 6715TIP3    H120088   6.640   6.391   0.578
 6715TIP3    H220089   6.692   6.249   0.565
 6716TIP3   OH220090   0.163   4.693   4.592
 6716TIP3    H120091   0.213   4.627   4.544
 6716TIP3    H220092   0.133   4.755   4.526
 6717TIP3   OH220093   6.174   5.569   5.624
 6717TIP3    H120094   6.084   5.602   5.614
 6717TIP3    H220095   6.229   5.642   5.596
 6718TIP3   OH220096   5.492   4.685   5.346
 6718TIP3    H120097   5.519   4.637   5.424
 6718TIP3    H220098   5.564   4.670   5.283
 6719TIP3   OH220099   4.065   2.427   6.216
 6719TIP3    H120100   3.998   2.495   6.228
 6719TIP3    H220101   4.144   2.475   6.191
 6720TIP3   OH220102   0.673   5.822   0.302
 6720TIP3    H120103   0.596   5.795   0.351
 6720TIP3    H220104   0.640   5.839   0.214
 6721TIP3   OH220105   1.160   4.616   3.575
 6721TIP3    H120106   1.090   4.627   3.639
 6721TIP3    H220107   1.141   4.531   3.534
 6722TIP3   OH220108   7.598   1.867   1.054
 6722TIP3    H120109   7.606   1.958   1.082
 6722TIP3    H220110   7.655   1.860   0.978
 6723TIP3   OH220111   3.410   5.643   0.261
 6723TIP3    H120112   3.498   5.682   0.263
 6723TIP3    H220113   3.377   5.653   0.351
 6724TIP3   OH220114   3.028   5.362   3.404
 6724TIP3    H120115   3.095   5.413   3.450
 6724TIP3    H220116   3.026   5.398   3.315
 6725TIP3   OH220117   6.744   1.008   2.327
 6725TIP3    H120118   6.679   0.961   2.275
 6725TIP3    H220119   6.758   1.090   2.279
 6726TIP3   OH220120   6.925   4.596   1.354
 6726TIP3    H120121   6.992   4.552   1.303
 6726TIP3    H220122   6.880   4.526   1.402
 6727TIP3   OH220123   7.976   1.867   0.105
 6727TIP3    H120124   7.896   1.914   0.128
 6727TIP3    H220125   7.978   1.792   0.164
 6728TIP3   OH220126   7.058   5.215   5.326
 6728TIP3    H120127   7.029   5.302   5.352
 6728TIP3    H220128   7.007   5.155   5.381
 6729TIP3   OH220129   7.545   1.244   0.243
 6729TIP3    H120130   7.581   1.332   0.252
 6729TIP3    H220131   7.452   1.253   0.260
 6730TIP3   OH220132   6.967   2.699   4.814
 6730TIP3    H120133   6.945   2.729   4.726
 6730TIP3    H220134   6.907   2.626   4.831
 6731TIP3   OH220135   1.242   4.796   3.355
 6731TIP3    H120136   1.248   4.720   3.413
 6731TIP3    H220137   1.333   4.816   3.333
 6732TIP3   OH220138   7.607   2.309   1.297
 6732TIP3    H120139   7.666   2.383   1.288
 6732TIP3    H220140   7.638   2.263   1.376
 6733TIP3   OH220141   6.937   0.249   5.612
 6733TIP3    H120142   6.924   0.163   5.651
 6733TIP3    H220143   6.889   0.309   5.669
 6734TIP3   OH220144   3.098   1.902   0.131
 6734TIP3    H120145   3.175   1.945   0.095
 6734TIP3    H220146   3.111   1.809   0.112
 6735TIP3   OH220147   8.014   7.618   6.157
 6735TIP3    H120148   8.069   7.575   6.091
 6735TIP3    H220149   7.940   7.652   6.108
 6736TIP3   OH220150   6.581   2.654   2.298
 6736TIP3    H120151   6.660   2.600   2.292
 6736TIP3    H220152   6.567   2.666   2.392
 6737TIP3   OH220153   5.683   1.093   2.912
 6737TIP3    H120154   5.630   1.021   2.876
 6737TIP3    H220155   5.668   1.166   2.852
 6738TIP3   OH220156   3.750   7.319   3.528
 6738TIP3    H120157   3.710   7.405   3.518
 6738TIP3    H220158   3.677   7.258   3.515
 6739TIP3   OH220159   0.151   4.439   2.048
 6739TIP3    H120160   0.220   4.425   1.984
 6739TIP3    H220161   0.177   4.520   2.093
 6740TIP3   OH220162   6.563   1.537   3.250
 6740TIP3    H120163   6.468   1.535   3.258
 6740TIP3    H220164   6.585   1.630   3.246
 6741TIP3   OH220165   5.556   6.028   5.383
 6741TIP3    H120166   5.506   6.110   5.386
 6741TIP3    H220167   5.551   5.994   5.473
 6742TIP3   OH220168   1.288   3.488   2.422
 6742TIP3    H120169   1.300   3.439   2.503
 6742TIP3    H220170   1.221   3.553   2.442
 6743TIP3   OH220171   0.333   0.148   1.302
 6743TIP3    H120172   0.322   0.128   1.209
 6743TIP3    H220173   0.373   0.069   1.340
 6744TIP3   OH220174   5.460   4.432   2.356
 6744TIP3    H120175   5.374   4.403   2.325
 6744TIP3    H220176   5.517   4.426   2.279
 6745TIP3   OH220177   5.278   4.990   2.523
 6745TIP3    H120178   5.354   5.036   2.487
 6745TIP3    H220179   5.236   5.054   2.581
 6746TIP3   OH220180   1.023   2.686   2.888
 6746TIP3    H120181   1.035   2.781   2.896
 6746TIP3    H220182   1.108   2.654   2.860
 6747TIP3   OH220183   6.786   0.946   0.288
 6747TIP3    H120184   6.750   0.867   0.329
 6747TIP3    H220185   6.823   0.995   0.362
 6748TIP3   OH220186   6.596   0.872   2.163
 6748TIP3    H120187   6.541   0.797   2.183
 6748TIP3    H220188   6.536   0.939   2.129
 6749TIP3   OH220189   6.176   1.007   5.043
 6749TIP3    H120190   6.224   0.932   5.008
 6749TIP3    H220191   6.142   1.053   4.966
 6750TIP3   OH220192   8.089   3.747   3.913
 6750TIP3    H120193   8.026   3.752   3.985
 6750TIP3    H220194   8.064   3.668   3.865
 6751TIP3   OH220195   5.779   4.747   2.805
 6751TIP3    H120196   5.725   4.669   2.817
 6751TIP3    H220197   5.740   4.812   2.864
 6752TIP3   OH220198   3.721   6.279   0.675
 6752TIP3    H120199   3.700   6.196   0.632
 6752TIP3    H220200   3.650   6.291   0.739
 6753TIP3   OH220201   4.732   3.276   2.877
 6753TIP3    H120202   4.669   3.274   2.804
 6753TIP3    H220203   4.691   3.333   2.942
 6754TIP3   OH220204   5.901   3.193   3.515
 6754TIP3    H120205   5.939   3.192   3.427
 6754TIP3    H220206   5.906   3.102   3.544
 6755TIP3   OH220207   2.132   4.731   4.380
 6755TIP3    H120208   2.194   4.672   4.422
 6755TIP3    H220209   2.056   4.677   4.360
 6756TIP3   OH220210   4.502   2.653   2.460
 6756TIP3    H120211   4.494   2.564   2.424
 6756TIP3    H220212   4.585   2.686   2.426
 6757TIP3   OH220213   8.097   6.985   1.617
 6757TIP3    H120214   8.167   7.039   1.654
 6757TIP3    H220215   8.126   6.965   1.528
 6758TIP3   OH220216   4.565   1.459   4.791
 6758TIP3    H120217   4.655   1.461   4.759
 6758TIP3    H220218   4.529   1.545   4.767
 6759TIP3   OH220219   7.727   7.761   0.552
 6759TIP3    H120220   7.768   7.738   0.635
 6759TIP3    H220221   7.765   7.701   0.489
 6760TIP3   OH220222   4.125   2.924   1.772
 6760TIP3    H120223   4.043   2.933   1.723
 6760TIP3    H220224   4.097   2.897   1.859
 6761TIP3   OH220225   7.628   3.917   6.427
 6761TIP3    H120226   7.536   3.891   6.419
 6761TIP3    H220227   7.628   3.986   6.493
 6762TIP3   OH220228   2.159   0.096   4.862
 6762TIP3    H120229   2.156   0.103   4.766
 6762TIP3    H220230   2.095   0.160   4.892
 6763TIP3   OH220231   3.753   0.797   3.544
 6763TIP3    H120232   3.809   0.767   3.472
 6763TIP3    H220233   3.785   0.885   3.565
 6764TIP3   OH220234   1.975   3.099   2.501
 6764TIP3    H120235   1.932   3.185   2.499
 6764TIP3    H220236   1.932   3.053   2.574
 6765TIP3   OH220237   4.905   3.056   2.986
 6765TIP3    H120238   4.995   3.059   2.953
 6765TIP3    H220239   4.877   3.147   2.989
 6766TIP3   OH220240   5.079   7.781   5.405
 6766TIP3    H120241   5.155   7.751   5.354
 6766TIP3    H220242   5.088   7.876   5.408
 6767TIP3   OH220243   0.436   3.003   2.792
 6767TIP3    H120244   0.489   2.931   2.761
 6767TIP3    H220245   0.404   2.975   2.878
 6768TIP3   OH220246   1.528   0.326   6.447
 6768TIP3    H120247   1.534   0.233   6.467
 6768TIP3    H220248   1.609   0.346   6.401
 6769TIP3   OH220249   6.002   2.423   0.696
 6769TIP3    H120250   6.018   2.359   0.627
 6769TIP3    H220251   5.910   2.449   0.684
 6770TIP3   OH220252   1.742   1.609   2.506
 6770TIP3    H120253   1.739   1.553   2.583
 6770TIP3    H220254   1.784   1.555   2.439
 6771TIP3   OH220255   4.130   3.872   1.722
 6771TIP3    H120256   4.202   3.833   1.671
 6771TIP3    H220257   4.120   3.960   1.686
 6772TIP3   OH220258   6.601   5.722   0.742
 6772TIP3    H120259   6.651   5.734   0.662
 6772TIP3    H220260   6.568   5.632   0.737
 6773TIP3   OH220261   5.307   2.187   4.969
 6773TIP3    H120262   5.366   2.190   4.894
 6773TIP3    H220263   5.326   2.268   5.017
 6774TIP3   OH220264   2.167   6.457   0.479
 6774TIP3    H120265   2.073   6.474   0.476
 6774TIP3    H220266   2.176   6.377   0.530
 6775TIP3   OH220267   3.392   3.354   4.096
 6775TIP3    H120268   3.300   3.336   4.116
 6775TIP3    H220269   3.390   3.401   4.012
 6776TIP3   OH220270   5.764   7.466   3.145
 6776TIP3    H120271   5.745   7.404   3.215
 6776TIP3    H220272   5.828   7.420   3.090
 6777TIP3   OH220273   7.244   5.692   4.532
 6777TIP3    H120274   7.280   5.696   4.444
 6777TIP3    H220275   7.154   5.723   4.522
 6778TIP3   OH220276   4.713   2.620   1.626
 6778TIP3    H120277   4.646   2.662   1.679
 6778TIP3    H220278   4.686   2.529   1.619
 6779TIP3   OH220279   5.540   7.342   6.221
 6779TIP3    H120280   5.480   7.397   6.271
 6779TIP3    H220281   5.535   7.256   6.263
 6780TIP3   OH220282   7.212   0.842   5.685
 6780TIP3    H120283   7.167   0.810   5.607
 6780TIP3    H220284   7.269   0.769   5.710
 6781TIP3   OH220285   4.112   4.586   0.672
 6781TIP3    H120286   4.065   4.565   0.753
 6781TIP3    H220287   4.049   4.636   0.620
 6782TIP3   OH220288   0.255   4.978   2.420
 6782TIP3    H120289   0.257   4.965   2.326
 6782TIP3    H220290   0.338   4.940   2.451
 6783TIP3   OH220291   2.438   0.258   3.209
 6783TIP3    H120292   2.511   0.276   3.149
 6783TIP3    H220293   2.383   0.195   3.162
 6784TIP3   OH220294   2.830   1.441   6.391
 6784TIP3    H120295   2.866   1.419   6.305
 6784TIP3    H220296   2.736   1.448   6.377
 6785TIP3   OH220297   1.441   5.264   5.764
 6785TIP3    H120298   1.424   5.183   5.811
 6785TIP3    H220299   1.395   5.331   5.814
 6786TIP3   OH220300   4.733   6.521   4.196
 6786TIP3    H120301   4.809   6.522   4.254
 6786TIP3    H220302   4.660   6.548   4.251
 6787TIP3   OH220303   5.596   3.183   2.147
 6787TIP3    H120304   5.530   3.220   2.206
 6787TIP3    H220305   5.581   3.227   2.064
 6788TIP3   OH220306   6.282   6.954   0.526
 6788TIP3    H120307   6.260   7.015   0.455
 6788TIP3    H220308   6.217   6.885   0.520
 6789TIP3   OH220309   4.299   4.800   4.271
 6789TIP3    H120310   4.394   4.809   4.268
 6789TIP3    H220311   4.266   4.884   4.240
 6790TIP3   OH220312   5.672   7.034   1.588
 6790TIP3    H120313   5.713   7.073   1.665
 6790TIP3    H220314   5.746   7.000   1.537
 6791TIP3   OH220315   3.239   2.784   2.616
 6791TIP3    H120316   3.264   2.803   2.525
 6791TIP3    H220317   3.151   2.821   2.624
 6792TIP3   OH220318   7.824   6.525   0.120
 6792TIP3    H120319   7.743   6.577   0.127
 6792TIP3    H220320   7.793   6.435   0.116
 6793TIP3   OH220321   5.861   4.268   0.112
 6793TIP3    H120322   5.791   4.254   0.049
 6793TIP3    H220323   5.916   4.335   0.072
 6794TIP3   OH220324   5.714   0.925   2.303
 6794TIP3    H120325   5.705   1.020   2.305
 6794TIP3    H220326   5.679   0.895   2.388
 6795TIP3   OH220327   4.301   6.048   3.364
 6795TIP3    H120328   4.216   6.092   3.366
 6795TIP3    H220329   4.287   5.970   3.310
 6796TIP3   OH220330   1.156   7.645   0.881
 6796TIP3    H120331   1.068   7.683   0.885
 6796TIP3    H220332   1.156   7.577   0.949
 6797TIP3   OH220333   0.061   5.535   4.066
 6797TIP3    H120334   0.156   5.521   4.063
 6797TIP3    H220335   0.024   5.447   4.060
 6798TIP3   OH220336   7.556   4.115   6.667
 6798TIP3    H120337   7.477   4.166   6.649
 6798TIP3    H220338   7.628   4.178   6.659
 6799TIP3   OH220339   5.119   6.208   1.710
 6799TIP3    H120340   5.187   6.274   1.698
 6799TIP3    H220341   5.066   6.213   1.630
 6800TIP3   OH220342   0.548   6.367   3.373
 6800TIP3    H120343   0.561   6.444   3.317
 6800TIP3    H220344   0.526   6.403   3.459
 6801TIP3   OH220345   5.793   1.396   0.448
 6801TIP3    H120346   5.722   1.415   0.387
 6801TIP3    H220347   5.862   1.358   0.394
 6802TIP3   OH220348   5.554   3.036   6.253
 6802TIP3    H120349   5.547   2.946   6.285
 6802TIP3    H220350   5.648   3.049   6.241
 6803TIP3   OH220351   0.723   7.076   1.565
 6803TIP3    H120352   0.782   7.135   1.610
 6803TIP3    H220353   0.777   7.036   1.496
 6804TIP3   OH220354   2.279   7.021   2.940
 6804TIP3    H120355   2.213   7.081   2.975
 6804TIP3    H220356   2.245   6.997   2.853
 6805TIP3   OH220357   4.191   0.998   2.713
 6805TIP3    H120358   4.260   0.953   2.762
 6805TIP3    H220359   4.186   0.951   2.630
 6806TIP3   OH220360   2.737   5.202   6.333
 6806TIP3    H120361   2.713   5.225   6.243
 6806TIP3    H220362   2.692   5.120   6.349
 6807TIP3   OH220363   0.866   2.323   4.264
 6807TIP3    H120364   0.827   2.287   4.344
 6807TIP3    H220365   0.828   2.271   4.193
 6808TIP3   OH220366   4.714   6.053   3.297
 6808TIP3    H120367   4.665   6.010   3.368
 6808TIP3    H220368   4.703   6.147   3.314
 6809TIP3   OH220369   1.445   6.318   2.124
 6809TIP3    H120370   1.458   6.383   2.193
 6809TIP3    H220371   1.531   6.278   2.112
 6810TIP3   OH220372   7.576   3.215   3.372
 6810TIP3    H120373   7.640   3.200   3.302
 6810TIP3    H220374   7.629   3.243   3.447
 6811TIP3   OH220375   0.265   2.528   6.384
 6811TIP3    H120376   0.221   2.450   6.352
 6811TIP3    H220377   0.351   2.497   6.414
 6812TIP3   OH220378   5.867   4.159   6.754
 6812TIP3    H120379   5.933   4.094   6.776
 6812TIP3    H220380   5.898   4.240   6.795
 6813TIP3   OH220381   5.187   5.898   5.122
 6813TIP3    H120382   5.279   5.896   5.146
 6813TIP3    H220383   5.150   5.821   5.166
 6814TIP3   OH220384   7.975   0.771   1.117
 6814TIP3    H120385   7.981   0.859   1.080
 6814TIP3    H220386   7.881   0.756   1.127
 6815TIP3   OH220387   6.480   6.397   4.813
 6815TIP3    H120388   6.408   6.383   4.751
 6815TIP3    H220389   6.438   6.430   4.892
 6816TIP3   OH220390   4.326   6.715   6.011
 6816TIP3    H120391   4.247   6.711   6.065
 6816TIP3    H220392   4.377   6.787   6.047
 6817TIP3   OH220393   6.442   7.006   0.755
 6817TIP3    H120394   6.434   7.102   0.751
 6817TIP3    H220395   6.397   6.975   0.676
 6818TIP3   OH220396   6.815   0.067   5.954
 6818TIP3    H120397   6.910   0.081   5.945
 6818TIP3    H220398   6.784   0.147   5.996
 6819TIP3   OH220399   5.165   1.188   6.140
 6819TIP3    H120400   5.207   1.266   6.106
 6819TIP3    H220401   5.223   1.116   6.116
 6820TIP3   OH220402   1.328   2.393   3.179
 6820TIP3    H120403   1.422   2.410   3.178
 6820TIP3    H220404   1.309   2.359   3.091
 6821TIP3   OH220405   6.145   4.075   5.539
 6821TIP3    H120406   6.060   4.118   5.539
 6821TIP3    H220407   6.208   4.146   5.549
 6822TIP3   OH220408   3.542   1.415   4.921
 6822TIP3    H120409   3.519   1.501   4.957
 6822TIP3    H220410   3.492   1.410   4.840
 6823TIP3   OH220411   2.292   2.140   4.567
 6823TIP3    H120412   2.368   2.104   4.613
 6823TIP3    H220413   2.231   2.067   4.559
 6824TIP3   OH220414   1.914   5.358   6.043
 6824TIP3    H120415   1.977   5.336   6.112
 6824TIP3    H220416   1.870   5.276   6.023
 6825TIP3   OH220417   4.263   4.058   2.359
 6825TIP3    H120418   4.340   4.077   2.412
 6825TIP3    H220419   4.189   4.091   2.410
 6826TIP3   OH220420   1.599   1.906   6.673
 6826TIP3    H120421   1.595   1.972   6.742
 6826TIP3    H220422   1.507   1.887   6.653
 6827TIP3   OH220423   4.833   2.903   5.443
 6827TIP3    H120424   4.834   2.875   5.534
 6827TIP3    H220425   4.836   2.999   5.446
 6828TIP3   OH220426   2.652   2.261   0.834
 6828TIP3    H120427   2.635   2.183   0.781
 6828TIP3    H220428   2.604   2.245   0.916
 6829TIP3   OH220429   5.022   2.752   6.271
 6829TIP3    H120430   4.929   2.772   6.257
 6829TIP3    H220431   5.021   2.690   6.344
 6830TIP3   OH220432   3.922   4.356   6.568
 6830TIP3    H120433   3.835   4.343   6.531
 6830TIP3    H220434   3.941   4.273   6.613
 6831TIP3   OH220435   2.985   4.260   0.819
 6831TIP3    H120436   2.974   4.191   0.885
 6831TIP3    H220437   3.016   4.213   0.741
 6832TIP3   OH220438   3.077   3.355   4.627
 6832TIP3    H120439   3.171   3.369   4.641
 6832TIP3    H220440   3.071   3.266   4.593
 6833TIP3   OH220441   4.273   2.193   5.852
 6833TIP3    H120442   4.344   2.254   5.872
 6833TIP3    H220443   4.221   2.237   5.785
 6834TIP3   OH220444   7.584   7.660   5.317
 6834TIP3    H120445   7.561   7.678   5.226
 6834TIP3    H220446   7.680   7.666   5.319
 6835TIP3   OH220447   2.932   4.860   6.345
 6835TIP3    H120448   2.956   4.791   6.283
 6835TIP3    H220449   2.963   4.940   6.304
 6836TIP3   OH220450   1.259   5.286   2.086
 6836TIP3    H120451   1.315   5.361   2.107
 6836TIP3    H220452   1.291   5.216   2.143
 6837TIP3   OH220453   6.891   1.006   6.357
 6837TIP3    H120454   6.860   1.090   6.322
 6837TIP3    H220455   6.838   0.992   6.435
 6838TIP3   OH220456   5.832   2.073   2.607
 6838TIP3    H120457   5.857   1.991   2.648
 6838TIP3    H220458   5.761   2.107   2.661
 6839TIP3   OH220459   5.566   2.837   0.828
 6839TIP3    H120460   5.640   2.897   0.839
 6839TIP3    H220461   5.604   2.750   0.840
 6840TIP3   OH220462   4.798   5.070   1.360
 6840TIP3    H120463   4.756   5.128   1.423
 6840TIP3    H220464   4.841   5.004   1.414
 6841TIP3   OH220465   5.391   3.097   0.089
 6841TIP3    H120466   5.396   3.145   0.006
 6841TIP3    H220467   5.370   3.164   0.154
 6842TIP3   OH220468   0.165   5.597   1.806
 6842TIP3    H120469   0.137   5.552   1.727
 6842TIP3    H220470   0.255   5.567   1.820
 6843TIP3   OH220471   0.471   6.181   0.974
 6843TIP3    H120472   0.387   6.222   0.995
 6843TIP3    H220473   0.458   6.142   0.888
 6844TIP3   OH220474   0.535   2.167   2.116
 6844TIP3    H120475   0.545   2.135   2.027
 6844TIP3    H220476   0.482   2.102   2.160
 6845TIP3   OH220477   1.009   6.949   0.969
 6845TIP3    H120478   0.931   6.967   0.917
 6845TIP3    H220479   1.029   7.031   1.013
 6846TIP3   OH220480   6.749   5.958   6.702
 6846TIP3    H120481   6.840   5.935   6.724
 6846TIP3    H220482   6.727   6.028   6.763
 6847TIP3   OH220483   2.066   0.741   5.037
 6847TIP3    H120484   1.977   0.737   5.072
 6847TIP3    H220485   2.109   0.810   5.087
 6848TIP3   OH220486   2.175   4.551   1.656
 6848TIP3    H120487   2.081   4.558   1.637
 6848TIP3    H220488   2.218   4.577   1.574
 6849TIP3   OH220489   3.299   4.592   6.370
 6849TIP3    H120490   3.213   4.605   6.412
 6849TIP3    H220491   3.349   4.670   6.394
 6850TIP3   OH220492   0.201   0.891   1.983
 6850TIP3    H120493   0.243   0.945   1.916
 6850TIP3    H220494   0.113   0.927   1.991
 6851TIP3   OH220495   6.550   7.508   0.687
 6851TIP3    H120496   6.586   7.426   0.654
 6851TIP3    H220497   6.541   7.563   0.610
 6852TIP3   OH220498   5.318   1.190   6.643
 6852TIP3    H120499   5.256   1.222   6.578
 6852TIP3    H220500   5.326   1.096   6.623
 6853TIP3   OH220501   6.950   6.846   3.016
 6853TIP3    H120502   6.935   6.771   3.073
 6853TIP3    H220503   6.866   6.862   2.973
 6854TIP3   OH220504   4.764   1.424   3.746
 6854TIP3    H120505   4.707   1.474   3.804
 6854TIP3    H220506   4.731   1.443   3.658
 6855TIP3   OH220507   4.416   0.577   2.800
 6855TIP3    H120508   4.343   0.609   2.748
 6855TIP3    H220509   4.469   0.525   2.739
 6856TIP3   OH220510   5.185   0.603   0.027
 6856TIP3    H120511   5.246   0.560   0.086
 6856TIP3    H220512   5.141   0.668   0.082
 6857TIP3   OH220513   1.420   2.703   0.062
 6857TIP3    H120514   1.388   2.664  -0.019
 6857TIP3    H220515   1.367   2.664   0.131
 6858TIP3   OH220516   2.492   0.424   4.142
 6858TIP3    H120517   2.553   0.497   4.136
 6858TIP3    H220518   2.466   0.407   4.051
 6859TIP3   OH220519   4.218   2.948   3.465
 6859TIP3    H120520   4.212   2.902   3.549
 6859TIP3    H220521   4.129   2.982   3.450
 6860TIP3   OH220522   8.193   2.761   6.669
 6860TIP3    H120523   8.129   2.720   6.611
 6860TIP3    H220524   8.278   2.746   6.627
 6861TIP3   OH220525   6.975   7.476   5.690
 6861TIP3    H120526   6.962   7.525   5.771
 6861TIP3    H220527   7.006   7.390   5.719
 6862TIP3   OH220528   4.716   2.281   6.376
 6862TIP3    H120529   4.797   2.284   6.327
 6862TIP3    H220530   4.649   2.314   6.316
 6863TIP3   OH220531   1.573   3.606   0.277
 6863TIP3    H120532   1.510   3.625   0.347
 6863TIP3    H220533   1.583   3.510   0.280
 6864TIP3   OH220534   4.145   7.598   4.862
 6864TIP3    H120535   4.169   7.682   4.901
 6864TIP3    H220536   4.112   7.620   4.775
 6865TIP3   OH220537   4.612   6.658   1.376
 6865TIP3    H120538   4.571   6.742   1.392
 6865TIP3    H220539   4.693   6.660   1.427
 6866TIP3   OH220540   3.437   3.763   6.362
 6866TIP3    H120541   3.448   3.855   6.338
 6866TIP3    H220542   3.343   3.752   6.372
 6867TIP3   OH220543   7.463   3.632   2.480
 6867TIP3    H120544   7.482   3.713   2.431
 6867TIP3    H220545   7.472   3.562   2.416
 6868TIP3   OH220546   2.989   2.722   4.923
 6868TIP3    H120547   3.023   2.798   4.875
 6868TIP3    H220548   2.894   2.727   4.913
 6869TIP3   OH220549   2.520   3.636   2.136
 6869TIP3    H120550   2.502   3.729   2.152
 6869TIP3    H220551   2.523   3.597   2.224
 6870TIP3   OH220552   2.631   7.024   4.780
 6870TIP3    H120553   2.722   7.031   4.752
 6870TIP3    H220554   2.611   7.107   4.822
 6871TIP3   OH220555   5.182   3.178   5.297
 6871TIP3    H120556   5.117   3.179   5.227
 6871TIP3    H220557   5.195   3.085   5.317
 6872TIP3   OH220558   1.201   3.968   0.993
 6872TIP3    H120559   1.270   4.023   1.031
 6872TIP3    H220560   1.160   4.022   0.926
 6873TIP3   OH220561   3.567   1.335   0.984
 6873TIP3    H120562   3.503   1.308   0.918
 6873TIP3    H220563   3.519   1.328   1.067
 6874TIP3   OH220564   6.713   4.054   0.229
 6874TIP3    H120565   6.648   4.114   0.267
 6874TIP3    H220566   6.737   4.096   0.146
 6875TIP3   OH220567   3.930   7.530   0.836
 6875TIP3    H120568   3.978   7.584   0.899
 6875TIP3    H220569   3.891   7.592   0.775
 6876TIP3   OH220570   6.718   4.784   1.060
 6876TIP3    H120571   6.699   4.820   1.147
 6876TIP3    H220572   6.781   4.714   1.077
 6877TIP3   OH220573   6.030   2.210   1.212
 6877TIP3    H120574   5.976   2.206   1.133
 6877TIP3    H220575   6.120   2.207   1.180
 6878TIP3   OH220576   5.203   7.291   4.570
 6878TIP3    H120577   5.151   7.251   4.500
 6878TIP3    H220578   5.254   7.218   4.606
 6879TIP3   OH220579   4.242   5.191   1.124
 6879TIP3    H120580   4.198   5.222   1.045
 6879TIP3    H220581   4.283   5.268   1.162
 6880TIP3   OH220582   1.791   6.667   4.140
 6880TIP3    H120583   1.822   6.668   4.049
 6880TIP3    H220584   1.737   6.745   4.147
 6881TIP3   OH220585   0.499   1.729   5.054
 6881TIP3    H120586   0.562   1.696   5.118
 6881TIP3    H220587   0.442   1.654   5.036
 6882TIP3   OH220588   2.522   2.895   1.467
 6882TIP3    H120589   2.490   2.881   1.378
 6882TIP3    H220590   2.587   2.964   1.459
 6883TIP3   OH220591   2.186   1.708   0.036
 6883TIP3    H120592   2.139   1.666   0.108
 6883TIP3    H220593   2.143   1.792   0.024
 6884TIP3   OH220594   4.753   1.818   5.131
 6884TIP3    H120595   4.760   1.726   5.154
 6884TIP3    H220596   4.659   1.836   5.133
 6885TIP3   OH220597   6.707   0.579   6.298
 6885TIP3    H120598   6.797   0.555   6.319
 6885TIP3    H220599   6.702   0.578   6.203
 6886TIP3   OH220600   5.781   2.302   5.004
 6886TIP3    H120601   5.867   2.268   4.977
 6886TIP3    H220602   5.769   2.268   5.092
 6887TIP3   OH220603   3.783   5.271   6.281
 6887TIP3    H120604   3.828   5.258   6.197
 6887TIP3    H220605   3.709   5.211   6.278
 6888TIP3   OH220606   6.302   6.688   1.162
 6888TIP3    H120607   6.232   6.734   1.115
 6888TIP3    H220608   6.372   6.753   1.169
 6889TIP3   OH220609   2.673   4.552   3.566
 6889TIP3    H120610   2.693   4.467   3.606
 6889TIP3    H220611   2.610   4.592   3.626
 6890TIP3   OH220612   4.685   7.182   2.577
 6890TIP3    H120613   4.742   7.181   2.501
 6890TIP3    H220614   4.646   7.094   2.579
 6891TIP3   OH220615   0.148   5.426   4.667
 6891TIP3    H120616   0.123   5.409   4.576
 6891TIP3    H220617   0.199   5.507   4.663
 6892TIP3   OH220618   0.501   1.373   3.686
 6892TIP3    H120619   0.406   1.382   3.690
 6892TIP3    H220620   0.521   1.358   3.594
 6893TIP3   OH220621   6.764   3.265   1.461
 6893TIP3    H120622   6.821   3.340   1.442
 6893TIP3    H220623   6.679   3.303   1.479
 6894TIP3   OH220624   8.008   0.851   2.513
 6894TIP3    H120625   7.943   0.786   2.489
 6894TIP3    H220626   7.968   0.935   2.491
 6895TIP3   OH220627   4.733   1.932   3.736
 6895TIP3    H120628   4.638   1.919   3.730
 6895TIP3    H220629   4.764   1.856   3.786
 6896TIP3   OH220630   4.266   0.336   6.354
 6896TIP3    H120631   4.220   0.352   6.272
 6896TIP3    H220632   4.348   0.383   6.346
 6897TIP3   OH220633   5.483   7.618   0.002
 6897TIP3    H120634   5.433   7.539   0.022
 6897TIP3    H220635   5.574   7.593   0.021
 6898TIP3   OH220636   6.181   3.656   6.302
 6898TIP3    H120637   6.131   3.736   6.317
 6898TIP3    H220638   6.271   3.686   6.291
 6899TIP3   OH220639   7.549   0.581   1.270
 6899TIP3    H120640   7.483   0.650   1.265
 6899TIP3    H220641   7.591   0.581   1.184
 6900TIP3   OH220642   3.037   2.017   5.442
 6900TIP3    H120643   3.103   2.086   5.447
 6900TIP3    H220644   3.020   1.994   5.533
 6901TIP3   OH220645   5.366   5.388   0.395
 6901TIP3    H120646   5.455   5.421   0.383
 6901TIP3    H220647   5.319   5.415   0.316
 6902TIP3   OH220648   1.615   5.638   3.564
 6902TIP3    H120649   1.690   5.638   3.623
 6902TIP3    H220650   1.566   5.717   3.589
 6903TIP3   OH220651   3.652   6.508   1.789
 6903TIP3    H120652   3.587   6.502   1.719
 6903TIP3    H220653   3.599   6.510   1.869
 6904TIP3   OH220654   7.295   6.557   0.124
 6904TIP3    H120655   7.272   6.648   0.143
 6904TIP3    H220656   7.272   6.510   0.204
 6905TIP3   OH220657   6.059   2.741   1.149
 6905TIP3    H120658   6.109   2.753   1.068
 6905TIP3    H220659   5.972   2.777   1.129
 6906TIP3   OH220660   1.197   0.142   3.142
 6906TIP3    H120661   1.240   0.216   3.184
 6906TIP3    H220662   1.183   0.079   3.214
 6907TIP3   OH220663   5.839   4.034   2.000
 6907TIP3    H120664   5.757   4.084   1.993
 6907TIP3    H220665   5.818   3.948   1.965
 6908TIP3   OH220666   6.005   1.712   6.594
 6908TIP3    H120667   6.010   1.616   6.594
 6908TIP3    H220668   5.943   1.733   6.663
 6909TIP3   OH220669   7.616   4.856   1.322
 6909TIP3    H120670   7.639   4.785   1.382
 6909TIP3    H220671   7.552   4.817   1.263
 6910TIP3   OH220672   5.199   5.809   2.457
 6910TIP3    H120673   5.135   5.739   2.470
 6910TIP3    H220674   5.146   5.889   2.451
 6911TIP3   OH220675   7.873   3.725   0.761
 6911TIP3    H120676   7.824   3.675   0.826
 6911TIP3    H220677   7.938   3.663   0.728
 6912TIP3   OH220678   4.068   4.520   3.483
 6912TIP3    H120679   4.149   4.534   3.532
 6912TIP3    H220680   4.096   4.497   3.395
 6913TIP3   OH220681   3.383   1.229   0.250
 6913TIP3    H120682   3.464   1.278   0.239
 6913TIP3    H220683   3.319   1.293   0.282
 6914TIP3   OH220684   3.855   3.637   0.331
 6914TIP3    H120685   3.851   3.576   0.257
 6914TIP3    H220686   3.765   3.643   0.362
 6915TIP3   OH220687   3.615   5.840   2.951
 6915TIP3    H120688   3.530   5.881   2.937
 6915TIP3    H220689   3.635   5.856   3.044
 6916TIP3   OH220690   6.429   3.042   2.252
 6916TIP3    H120691   6.345   3.046   2.296
 6916TIP3    H220692   6.443   3.131   2.219
 6917TIP3   OH220693   7.605   3.520   4.276
 6917TIP3    H120694   7.527   3.542   4.225
 6917TIP3    H220695   7.658   3.599   4.275
 6918TIP3   OH220696   2.306   0.762   5.734
 6918TIP3    H120697   2.246   0.822   5.776
 6918TIP3    H220698   2.393   0.796   5.755
 6919TIP3   OH220699   2.577   1.246   0.745
 6919TIP3    H120700   2.578   1.284   0.833
 6919TIP3    H220701   2.531   1.162   0.756
 6920TIP3   OH220702   0.737   6.019   2.044
 6920TIP3    H120703   0.703   5.951   1.985
 6920TIP3    H220704   0.826   5.990   2.066
 6921TIP3   OH220705   1.068   3.367   2.230
 6921TIP3    H120706   1.160   3.347   2.249
 6921TIP3    H220707   1.065   3.377   2.134
 6922TIP3   OH220708   7.834   7.636   4.755
 6922TIP3    H120709   7.804   7.575   4.822
 6922TIP3    H220710   7.928   7.645   4.771
 6923TIP3   OH220711   2.572   3.283   1.652
 6923TIP3    H120712   2.481   3.314   1.648
 6923TIP3    H220713   2.616   3.326   1.579
 6924TIP3   OH220714   0.993   0.126   1.492
 6924TIP3    H120715   0.916   0.079   1.461
 6924TIP3    H220716   0.987   0.121   1.587
 6925TIP3   OH220717   7.072   5.654   3.940
 6925TIP3    H120718   6.998   5.700   3.898
 6925TIP3    H220719   7.064   5.564   3.909
 6926TIP3   OH220720   4.930   0.387   0.622
 6926TIP3    H120721   5.009   0.387   0.676
 6926TIP3    H220722   4.961   0.371   0.533
 6927TIP3   OH220723   3.826   7.295   6.511
 6927TIP3    H120724   3.860   7.384   6.509
 6927TIP3    H220725   3.820   7.269   6.419
 6928TIP3   OH220726   7.287   1.659   3.416
 6928TIP3    H120727   7.263   1.630   3.327
 6928TIP3    H220728   7.382   1.670   3.413
 6929TIP3   OH220729   4.035   4.270   1.846
 6929TIP3    H120730   3.988   4.317   1.776
 6929TIP3    H220731   4.101   4.332   1.876
 6930TIP3   OH220732   7.586   6.672   0.077
 6930TIP3    H120733   7.585   6.675  -0.019
 6930TIP3    H220734   7.501   6.635   0.101
 6931TIP3   OH220735   8.290   6.915   4.663
 6931TIP3    H120736   8.313   7.007   4.677
 6931TIP3    H220737   8.221   6.918   4.597
 6932TIP3   OH220738   4.564   5.758   0.711
 6932TIP3    H120739   4.619   5.774   0.788
 6932TIP3    H220740   4.578   5.665   0.690
 6933TIP3   OH220741   7.089   1.440   5.270
 6933TIP3    H120742   7.093   1.385   5.348
 6933TIP3    H220743   7.063   1.526   5.302
 6934TIP3   OH220744   6.304   5.092   5.705
 6934TIP3    H120745   6.285   5.104   5.612
 6934TIP3    H220746   6.265   5.007   5.726
 6935TIP3   OH220747   5.102   6.642   2.545
 6935TIP3    H120748   5.193   6.620   2.563
 6935TIP3    H220749   5.088   6.726   2.588
 6936TIP3   OH220750   3.694   6.256   4.890
 6936TIP3    H120751   3.603   6.283   4.877
 6936TIP3    H220752   3.742   6.338   4.897
 6937TIP3   OH220753   7.764   0.052   1.231
 6937TIP3    H120754   7.729   0.126   1.283
 6937TIP3    H220755   7.763   0.084   1.141
 6938TIP3   OH220756   1.260   0.816   5.066
 6938TIP3    H120757   1.265   0.898   5.016
 6938TIP3    H220758   1.314   0.754   5.017
 6939TIP3   OH220759   1.535   1.923   0.837
 6939TIP3    H120760   1.628   1.902   0.832
 6939TIP3    H220761   1.491   1.853   0.788
 6940TIP3   OH220762   0.852   2.549   4.039
 6940TIP3    H120763   0.875   2.501   4.119
 6940TIP3    H220764   0.908   2.627   4.040
 6941TIP3   OH220765   1.134   0.089   4.190
 6941TIP3    H120766   1.106   0.012   4.140
 6941TIP3    H220767   1.135   0.060   4.281
 6942TIP3   OH220768   3.466   6.313   5.938
 6942TIP3    H120769   3.501   6.256   5.870
 6942TIP3    H220770   3.485   6.267   6.020
 6943TIP3   OH220771   5.910   2.602   6.256
 6943TIP3    H120772   5.903   2.677   6.197
 6943TIP3    H220773   6.000   2.605   6.288
 6944TIP3   OH220774   0.850   7.800   2.002
 6944TIP3    H120775   0.870   7.713   1.968
 6944TIP3    H220776   0.758   7.815   1.979
 6945TIP3   OH220777   3.791   4.345   2.364
 6945TIP3    H120778   3.840   4.426   2.375
 6945TIP3    H220779   3.742   4.358   2.282
 6946TIP3   OH220780   2.828   6.718   5.811
 6946TIP3    H120781   2.870   6.643   5.852
 6946TIP3    H220782   2.880   6.794   5.840
 6947TIP3   OH220783   4.254   7.329   6.424
 6947TIP3    H120784   4.285   7.358   6.509
 6947TIP3    H220785   4.176   7.278   6.442
 6948TIP3   OH220786   6.560   4.527   1.280
 6948TIP3    H120787   6.600   4.521   1.367
 6948TIP3    H220788   6.635   4.532   1.221
 6949TIP3   OH220789   2.112   5.418   2.190
 6949TIP3    H120790   2.133   5.350   2.255
 6949TIP3    H220791   2.017   5.410   2.178
 6950TIP3   OH220792   4.567   3.503   6.141
 6950TIP3    H120793   4.622   3.561   6.089
 6950TIP3    H220794   4.486   3.553   6.155
 6951TIP3   OH220795   3.181   5.355   1.475
 6951TIP3    H120796   3.235   5.414   1.526
 6951TIP3    H220797   3.156   5.406   1.398
 6952TIP3   OH220798   2.215   7.479   2.971
 6952TIP3    H120799   2.300   7.523   2.981
 6952TIP3    H220800   2.154   7.535   3.019
 6953TIP3   OH220801   0.981   3.357   4.928
 6953TIP3    H120802   0.891   3.329   4.909
 6953TIP3    H220803   0.974   3.450   4.946
 6954TIP3   OH220804   2.023   5.064   1.716
 6954TIP3    H120805   1.968   5.138   1.691
 6954TIP3    H220806   2.021   5.006   1.640
 6955TIP3   OH220807   4.760   3.733   1.149
 6955TIP3    H120808   4.790   3.810   1.197
 6955TIP3    H220809   4.717   3.678   1.215
 6956TIP3   OH220810   3.245   7.407   0.189
 6956TIP3    H120811   3.224   7.500   0.200
 6956TIP3    H220812   3.337   7.406   0.163
 6957TIP3   OH220813   6.247   6.369   2.702
 6957TIP3    H120814   6.289   6.454   2.685
 6957TIP3    H220815   6.155   6.390   2.714
 6958TIP3   OH220816   6.889   1.564   4.638
 6958TIP3    H120817   6.840   1.597   4.563
 6958TIP3    H220818   6.826   1.509   4.685
 6959TIP3   OH220819   7.686   5.474   5.934
 6959TIP3    H120820   7.625   5.544   5.955
 6959TIP3    H220821   7.724   5.449   6.018
 6960TIP3   OH220822   6.811   3.581   2.162
 6960TIP3    H120823   6.866   3.642   2.210
 6960TIP3    H220824   6.840   3.589   2.071
 6961TIP3   OH220825   7.405   0.994   2.713
 6961TIP3    H120826   7.460   1.061   2.754
 6961TIP3    H220827   7.403   0.923   2.777
 6962TIP3   OH220828   4.377   0.905   3.355
 6962TIP3    H120829   4.389   0.810   3.346
 6962TIP3    H220830   4.400   0.923   3.446
 6963TIP3   OH220831   3.537   0.395   1.136
 6963TIP3    H120832   3.537   0.463   1.068
 6963TIP3    H220833   3.543   0.444   1.218
 6964TIP3   OH220834   1.913   6.643   0.429
 6964TIP3    H120835   1.873   6.688   0.503
 6964TIP3    H220836   1.906   6.550   0.450
 6965TIP3   OH220837   7.558   7.270   1.164
 6965TIP3    H120838   7.616   7.194   1.158
 6965TIP3    H220839   7.478   7.243   1.118
 6966TIP3   OH220840   3.130   5.563   5.014
 6966TIP3    H120841   3.222   5.539   4.998
 6966TIP3    H220842   3.088   5.551   4.929
 6967TIP3   OH220843   4.056   1.664   6.616
 6967TIP3    H120844   4.020   1.739   6.663
 6967TIP3    H220845   4.143   1.692   6.589
 6968TIP3   OH220846   3.871   4.831   0.248
 6968TIP3    H120847   3.918   4.828   0.165
 6968TIP3    H220848   3.779   4.818   0.225
 6969TIP3   OH220849   3.335   2.566   5.540
 6969TIP3    H120850   3.283   2.515   5.478
 6969TIP3    H220851   3.410   2.597   5.489
 6970TIP3   OH220852   7.507   7.472   0.954
 6970TIP3    H120853   7.518   7.396   1.012
 6970TIP3    H220854   7.433   7.520   0.991
 6971TIP3   OH220855   7.907   7.186   3.935
 6971TIP3    H120856   7.827   7.188   3.987
 6971TIP3    H220857   7.975   7.216   3.995
 6972TIP3   OH220858   2.041   0.778   0.130
 6972TIP3    H120859   2.054   0.871   0.111
 6972TIP3    H220860   2.070   0.733   0.051
 6973TIP3   OH220861   2.049   1.910   5.293
 6973TIP3    H120862   2.055   1.874   5.204
 6973TIP3    H220863   2.030   1.834   5.348
 6974TIP3   OH220864   1.330   0.025   3.590
 6974TIP3    H120865   1.308   0.119   3.592
 6974TIP3    H220866   1.286  -0.011   3.667
 6975TIP3   OH220867   7.598   4.871   5.132
 6975TIP3    H120868   7.573   4.925   5.056
 6975TIP3    H220869   7.670   4.816   5.100
 6976TIP3   OH220870   3.130   2.379   5.013
 6976TIP3    H120871   3.191   2.309   5.035
 6976TIP3    H220872   3.043   2.338   5.021
 6977TIP3   OH220873   3.342   4.929   2.604
 6977TIP3    H120874   3.429   4.945   2.567
 6977TIP3    H220875   3.296   5.012   2.594
 6978TIP3   OH220876   0.545   6.882   6.189
 6978TIP3    H120877   0.523   6.918   6.275
 6978TIP3    H220878   0.543   6.957   6.130
 6979TIP3   OH220879   6.607   1.602   4.722
 6979TIP3    H120880   6.599   1.517   4.679
 6979TIP3    H220881   6.537   1.655   4.684
 6980TIP3   OH220882   3.730   4.653   6.102
 6980TIP3    H120883   3.766   4.672   6.015
 6980TIP3    H220884   3.734   4.737   6.148
 6981TIP3   OH220885   3.549   6.214   5.148
 6981TIP3    H120886   3.597   6.158   5.086
 6981TIP3    H220887   3.476   6.160   5.178
 6982TIP3   OH220888   1.887   1.012   1.795
 6982TIP3    H120889   1.917   1.036   1.707
 6982TIP3    H220890   1.895   1.093   1.846
 6983TIP3   OH220891   5.751   4.594   0.991
 6983TIP3    H120892   5.796   4.561   1.069
 6983TIP3    H220893   5.687   4.526   0.970
 6984TIP3   OH220894   6.391   0.415   3.254
 6984TIP3    H120895   6.358   0.477   3.189
 6984TIP3    H220896   6.415   0.470   3.329
 6985TIP3   OH220897   6.587   0.065   2.531
 6985TIP3    H120898   6.554   0.144   2.573
 6985TIP3    H220899   6.654   0.095   2.471
 6986TIP3   OH220900   0.840   2.367   6.475
 6986TIP3    H120901   0.927   2.330   6.488
 6986TIP3    H220902   0.790   2.339   6.551
 6987TIP3   OH220903   0.255   3.551   3.102
 6987TIP3    H120904   0.292   3.475   3.147
 6987TIP3    H220905   0.218   3.604   3.172
 6988TIP3   OH220906   4.142   2.529   5.052
 6988TIP3    H120907   4.139   2.577   5.134
 6988TIP3    H220908   4.073   2.464   5.060
 6989TIP3   OH220909   3.767   4.395   4.320
 6989TIP3    H120910   3.827   4.464   4.349
 6989TIP3    H220911   3.722   4.367   4.400
 6990TIP3   OH220912   0.218   4.656   1.108
 6990TIP3    H120913   0.150   4.723   1.098
 6990TIP3    H220914   0.269   4.661   1.028
 6991TIP3   OH220915   5.125   2.183   1.260
 6991TIP3    H120916   5.070   2.187   1.339
 6991TIP3    H220917   5.094   2.256   1.206
 6992TIP3   OH220918   5.103   5.018   5.372
 6992TIP3    H120919   5.039   4.957   5.335
 6992TIP3    H220920   5.143   4.970   5.444
 6993TIP3   OH220921   2.381   3.263   5.727
 6993TIP3    H120922   2.360   3.338   5.783
 6993TIP3    H220923   2.355   3.290   5.639
 6994TIP3   OH220924   2.991   4.745   3.211
 6994TIP3    H120925   3.080   4.719   3.190
 6994TIP3    H220926   2.937   4.706   3.143
 6995TIP3   OH220927   5.557   7.216   3.714
 6995TIP3    H120928   5.541   7.311   3.710
 6995TIP3    H220929   5.497   7.185   3.781
 6996TIP3   OH220930   7.198   1.364   1.399
 6996TIP3    H120931   7.278   1.312   1.401
 6996TIP3    H220932   7.163   1.359   1.488
 6997TIP3   OH220933   7.316   1.141   3.896
 6997TIP3    H120934   7.293   1.176   3.810
 6997TIP3    H220935   7.395   1.089   3.880
 6998TIP3   OH220936   6.973   0.477   0.850
 6998TIP3    H120937   7.019   0.399   0.881
 6998TIP3    H220938   6.880   0.458   0.867
 6999TIP3   OH220939   4.794   0.049   4.617
 6999TIP3    H120940   4.714   0.081   4.574
 6999TIP3    H220941   4.783   0.074   4.709
 7000TIP3   OH220942   8.234   2.480   2.331
 7000TIP3    H120943   8.311   2.537   2.330
 7000TIP3    H220944   8.211   2.471   2.238
 7001TIP3   OH220945   1.908   0.201   2.342
 7001TIP3    H120946   1.840   0.156   2.392
 7001TIP3    H220947   1.989   0.154   2.362
 7002TIP3   OH220948   3.020   0.911   5.563
 7002TIP3    H120949   3.114   0.893   5.561
 7002TIP3    H220950   2.989   0.863   5.640
 7003TIP3   OH220951   7.668   2.233   0.747
 7003TIP3    H120952   7.721   2.175   0.802
 7003TIP3    H220953   7.580   2.227   0.783
 7004TIP3   OH220954   4.559   0.542   5.296
 7004TIP3    H120955   4.512   0.608   5.348
 7004TIP3    H220956   4.650   0.553   5.322
 7005TIP3   OH220957   7.760   6.108   6.319
 7005TIP3    H120958   7.834   6.057   6.352
 7005TIP3    H220959   7.717   6.050   6.256
 7006TIP3   OH220960   3.514   2.419   5.334
 7006TIP3    H120961   3.430   2.406   5.290
 7006TIP3    H220962   3.529   2.514   5.329
 7007TIP3   OH220963   6.389   5.026   3.519
 7007TIP3    H120964   6.388   5.059   3.429
 7007TIP3    H220965   6.478   4.992   3.531
 7008TIP3   OH220966   5.045   1.445   4.564
 7008TIP3    H120967   5.049   1.419   4.472
 7008TIP3    H220968   5.064   1.365   4.613
 7009TIP3   OH220969   7.433   0.463   6.376
 7009TIP3    H120970   7.456   0.465   6.468
 7009TIP3    H220971   7.406   0.553   6.356
 7010TIP3   OH220972   3.800   0.578   4.670
 7010TIP3    H120973   3.734   0.645   4.648
 7010TIP3    H220974   3.882   0.627   4.676
 7011TIP3   OH220975   6.032   0.321   3.753
 7011TIP3    H120976   6.123   0.320   3.783
 7011TIP3    H220977   6.037   0.305   3.659
 7012TIP3   OH220978   6.452   1.625   0.801
 7012TIP3    H120979   6.490   1.552   0.850
 7012TIP3    H220980   6.363   1.596   0.780
 7013TIP3   OH220981   7.949   5.691   2.501
 7013TIP3    H120982   8.043   5.699   2.518
 7013TIP3    H220983   7.930   5.762   2.440
 7014TIP3   OH220984   2.965   6.839   2.894
 7014TIP3    H120985   2.954   6.859   2.801
 7014TIP3    H220986   3.005   6.752   2.895
 7015TIP3   OH220987   1.230   6.355   0.663
 7015TIP3    H120988   1.255   6.268   0.632
 7015TIP3    H220989   1.309   6.390   0.704
 7016TIP3   OH220990   6.067   6.657   5.223
 7016TIP3    H120991   6.074   6.579   5.168
 7016TIP3    H220992   6.156   6.693   5.224
 7017TIP3   OH220993   6.683   5.463   4.399
 7017TIP3    H120994   6.708   5.379   4.361
 7017TIP3    H220995   6.653   5.441   4.487
 7018TIP3   OH220996   8.154   0.189   4.363
 7018TIP3    H120997   8.069   0.147   4.354
 7018TIP3    H220998   8.136   0.282   4.347
 7019TIP3   OH220999   1.064   5.599   0.074
 7019TIP3    H121000   0.979   5.596   0.117
 7019TIP3    H221001   1.066   5.522   0.018
 7020TIP3   OH221002   1.505   5.308   0.792
 7020TIP3    H121003   1.498   5.322   0.698
 7020TIP3    H221004   1.424   5.264   0.816
 7021TIP3   OH221005   2.664   0.133   5.188
 7021TIP3    H121006   2.641   0.206   5.130
 7021TIP3    H221007   2.722   0.172   5.253
 7022TIP3   OH221008   6.312   5.276   6.605
 7022TIP3    H121009   6.237   5.219   6.591
 7022TIP3    H221010   6.381   5.219   6.638
 7023TIP3   OH221011   1.463   3.189   6.594
 7023TIP3    H121012   1.479   3.281   6.616
 7023TIP3    H221013   1.389   3.164   6.649
 7024TIP3   OH221014   4.711   1.105   6.659
 7024TIP3    H121015   4.679   1.017   6.678
 7024TIP3    H221016   4.641   1.163   6.689
 7025TIP3   OH221017   3.057   0.710   3.316
 7025TIP3    H121018   3.107   0.779   3.273
 7025TIP3    H221019   3.023   0.750   3.395
 7026TIP3   OH221020   6.482   5.855   4.173
 7026TIP3    H121021   6.506   5.781   4.229
 7026TIP3    H221022   6.474   5.929   4.234
 7027TIP3   OH221023   5.776   3.782   1.907
 7027TIP3    H121024   5.686   3.751   1.913
 7027TIP3    H221025   5.829   3.702   1.912
 7028TIP3   OH221026   6.045   4.645   2.902
 7028TIP3    H121027   5.977   4.634   2.969
 7028TIP3    H221028   6.122   4.602   2.938
 7029TIP3   OH221029   3.459   7.476   0.504
 7029TIP3    H121030   3.478   7.499   0.595
 7029TIP3    H221031   3.367   7.501   0.491
 7030TIP3   OH221032   3.211   4.240   2.201
 7030TIP3    H121033   3.176   4.311   2.147
 7030TIP3    H221034   3.136   4.182   2.216
 7031TIP3   OH221035   1.814   5.196   5.080
 7031TIP3    H121036   1.798   5.204   5.174
 7031TIP3    H221037   1.900   5.154   5.074
 7032TIP3   OH221038   5.820   6.119   4.899
 7032TIP3    H121039   5.808   6.100   4.992
 7032TIP3    H221040   5.855   6.208   4.897
 7033TIP3   OH221041   5.436   1.699   6.014
 7033TIP3    H121042   5.492   1.750   6.072
 7033TIP3    H221043   5.394   1.765   5.958
 7034TIP3   OH221044   1.727   6.892   5.302
 7034TIP3    H121045   1.734   6.894   5.207
 7034TIP3    H221046   1.815   6.871   5.333
 7035TIP3   OH221047   3.879   0.936   0.455
 7035TIP3    H121048   3.958   0.888   0.478
 7035TIP3    H221049   3.830   0.943   0.538
 7036TIP3   OH221050   6.267   5.906   0.812
 7036TIP3    H121051   6.343   5.948   0.772
 7036TIP3    H221052   6.262   5.820   0.771
 7037TIP3   OH221053   2.586   5.799   2.770
 7037TIP3    H121054   2.669   5.793   2.817
 7037TIP3    H221055   2.559   5.708   2.758
 7038TIP3   OH221056   4.780   0.929   5.877
 7038TIP3    H121057   4.760   1.022   5.872
 7038TIP3    H221058   4.783   0.910   5.971
 7039TIP3   OH221059   1.920   2.842   0.947
 7039TIP3    H121060   1.979   2.917   0.955
 7039TIP3    H221061   1.892   2.843   0.855
 7040TIP3   OH221062   0.961   3.467   2.623
 7040TIP3    H121063   0.930   3.553   2.652
 7040TIP3    H221064   0.883   3.427   2.584
 7041TIP3   OH221065   4.051   4.587   6.387
 7041TIP3    H121066   4.034   4.538   6.468
 7041TIP3    H221067   4.046   4.679   6.413
 7042TIP3   OH221068   7.898   5.481   2.194
 7042TIP3    H121069   7.974   5.540   2.193
 7042TIP3    H221070   7.869   5.477   2.103
 7043TIP3   OH221071   2.007   2.160   4.949
 7043TIP3    H121072   2.080   2.104   4.924
 7043TIP3    H221073   2.021   2.178   5.042
 7044TIP3   OH221074   4.863   2.681   4.495
 7044TIP3    H121075   4.830   2.690   4.585
 7044TIP3    H221076   4.900   2.767   4.475
 7045TIP3   OH221077   2.637   5.509   2.032
 7045TIP3    H121078   2.678   5.552   1.957
 7045TIP3    H221079   2.683   5.425   2.039
 7046TIP3   OH221080   2.660   3.664   4.289
 7046TIP3    H121081   2.584   3.708   4.252
 7046TIP3    H221082   2.716   3.736   4.320
 7047TIP3   OH221083   4.219   5.824   3.597
 7047TIP3    H121084   4.270   5.852   3.521
 7047TIP3    H221085   4.214   5.729   3.589
 7048TIP3   OH221086   3.640   1.969   5.694
 7048TIP3    H121087   3.603   1.892   5.736
 7048TIP3    H221088   3.566   2.010   5.649
 7049TIP3   OH221089   7.290   2.845   1.136
 7049TIP3    H121090   7.379   2.819   1.159
 7049TIP3    H221091   7.235   2.809   1.205
 7050TIP3   OH221092   8.136   3.248   3.543
 7050TIP3    H121093   8.056   3.202   3.515
 7050TIP3    H221094   8.116   3.279   3.631
 7051TIP3   OH221095   7.746   3.366   4.017
 7051TIP3    H121096   7.813   3.337   4.079
 7051TIP3    H221097   7.783   3.444   3.975
 7052TIP3   OH221098   3.105   6.338   3.031
 7052TIP3    H121099   3.034   6.402   3.028
 7052TIP3    H221100   3.168   6.374   3.094
 7053TIP3   OH221101   3.717   6.861   3.968
 7053TIP3    H121102   3.662   6.792   3.933
 7053TIP3    H221103   3.786   6.815   4.016
 7054TIP3   OH221104   7.661   1.952   2.105
 7054TIP3    H121105   7.744   1.905   2.109
 7054TIP3    H221106   7.674   2.018   2.036
 7055TIP3   OH221107   1.492   6.242   0.439
 7055TIP3    H121108   1.557   6.249   0.509
 7055TIP3    H221109   1.521   6.165   0.389
 7056TIP3   OH221110   6.864   1.637   5.155
 7056TIP3    H121111   6.915   1.711   5.122
 7056TIP3    H221112   6.917   1.560   5.133
 7057TIP3   OH221113   2.741   2.541   6.478
 7057TIP3    H121114   2.784   2.458   6.457
 7057TIP3    H221115   2.742   2.590   6.396
 7058TIP3   OH221116   0.722   0.196   5.588
 7058TIP3    H121117   0.656   0.128   5.596
 7058TIP3    H221118   0.722   0.240   5.673
 7059TIP3   OH221119   7.825   5.439   0.190
 7059TIP3    H121120   7.888   5.369   0.210
 7059TIP3    H221121   7.868   5.519   0.221
 7060TIP3   OH221122   5.118   7.346   0.153
 7060TIP3    H121123   5.031   7.316   0.180
 7060TIP3    H221124   5.109   7.440   0.144
 7061TIP3   OH221125   2.988   1.748   5.192
 7061TIP3    H121126   2.954   1.834   5.216
 7061TIP3    H221127   3.055   1.730   5.258
 7062TIP3   OH221128   3.717   0.547   6.001
 7062TIP3    H121129   3.775   0.487   5.954
 7062TIP3    H221130   3.667   0.490   6.060
 7063TIP3   OH221131   4.280   5.346   1.529
 7063TIP3    H121132   4.324   5.409   1.472
 7063TIP3    H221133   4.218   5.399   1.580
 7064TIP3   OH221134   3.172   0.578   4.720
 7064TIP3    H121135   3.236   0.550   4.653
 7064TIP3    H221136   3.225   0.622   4.786
 7065TIP3   OH221137   2.993   6.558   0.328
 7065TIP3    H121138   3.044   6.581   0.406
 7065TIP3    H221139   2.975   6.642   0.286
 7066TIP3   OH221140   4.690   3.502   4.938
 7066TIP3    H121141   4.632   3.572   4.968
 7066TIP3    H221142   4.778   3.538   4.949
 7067TIP3   OH221143   4.356   2.103   4.637
 7067TIP3    H121144   4.348   2.165   4.710
 7067TIP3    H221145   4.450   2.087   4.629
 7068TIP3   OH221146   6.837   1.344   4.847
 7068TIP3    H121147   6.915   1.320   4.798
 7068TIP3    H221148   6.786   1.263   4.852
 7069TIP3   OH221149   5.152   2.433   0.054
 7069TIP3    H121150   5.222   2.460  -0.006
 7069TIP3    H221151   5.093   2.380  -0.001
 7070TIP3   OH221152   3.845   2.368   3.959
 7070TIP3    H121153   3.850   2.427   4.034
 7070TIP3    H221154   3.807   2.288   3.994
 7071TIP3   OH221155   0.485   1.284   0.595
 7071TIP3    H121156   0.544   1.231   0.650
 7071TIP3    H221157   0.401   1.281   0.641
 7072TIP3   OH221158   4.601   0.743   0.783
 7072TIP3    H121159   4.684   0.751   0.735
 7072TIP3    H221160   4.550   0.819   0.757
 7073TIP3   OH221161   7.197   2.660   3.096
 7073TIP3    H121162   7.254   2.737   3.102
 7073TIP3    H221163   7.202   2.620   3.183
 7074TIP3   OH221164   0.351   0.989   6.232
 7074TIP3    H121165   0.421   1.053   6.244
 7074TIP3    H221166   0.280   1.040   6.191
 7075TIP3   OH221167   1.825   3.362   3.988
 7075TIP3    H121168   1.765   3.395   3.922
 7075TIP3    H221169   1.856   3.440   4.034
 7076TIP3   OH221170   3.356   0.459   5.698
 7076TIP3    H121171   3.415   0.534   5.688
 7076TIP3    H221172   3.409   0.383   5.677
 7077TIP3   OH221173   7.165   0.326   3.963
 7077TIP3    H121174   7.176   0.358   3.874
 7077TIP3    H221175   7.097   0.382   4.001
 7078TIP3   OH221176   0.915   1.000   5.540
 7078TIP3    H121177   0.929   0.985   5.633
 7078TIP3    H221178   0.823   0.977   5.525
 7079TIP3   OH221179   4.697   0.960   2.124
 7079TIP3    H121180   4.662   1.021   2.188
 7079TIP3    H221181   4.769   1.007   2.082
 7080TIP3   OH221182   6.950   0.764   3.774
 7080TIP3    H121183   6.975   0.717   3.695
 7080TIP3    H221184   6.896   0.702   3.824
 7081TIP3   OH221185   3.978   6.059   5.078
 7081TIP3    H121186   3.978   6.154   5.090
 7081TIP3    H221187   4.049   6.044   5.014
 7082TIP3   OH221188   0.611   0.527   3.020
 7082TIP3    H121189   0.550   0.453   3.022
 7082TIP3    H221190   0.583   0.579   2.945
 7083TIP3   OH221191   5.296   6.918   1.964
 7083TIP3    H121192   5.268   6.974   1.891
 7083TIP3    H221193   5.214   6.884   2.000
 7084TIP3   OH221194   1.834   6.299   3.376
 7084TIP3    H121195   1.799   6.213   3.401
 7084TIP3    H221196   1.927   6.283   3.359
 7085TIP3   OH221197   1.196   4.772   4.271
 7085TIP3    H121198   1.130   4.832   4.238
 7085TIP3    H221199   1.272   4.827   4.289
 7086TIP3   OH221200   5.470   1.999   3.610
 7086TIP3    H121201   5.442   1.975   3.699
 7086TIP3    H221202   5.530   1.929   3.584
 7087TIP3   OH221203   3.130   7.027   5.228
 7087TIP3    H121204   3.156   7.016   5.319
 7087TIP3    H221205   3.048   6.978   5.220
 7088TIP3   OH221206   7.809   0.739   6.048
 7088TIP3    H121207   7.802   0.644   6.057
 7088TIP3    H221208   7.857   0.767   6.126
 7089TIP3   OH221209   6.147   5.617   4.006
 7089TIP3    H121210   6.093   5.618   3.927
 7089TIP3    H221211   6.180   5.528   4.012
 7090TIP3   OH221212   7.866   1.059   1.557
 7090TIP3    H121213   7.928   0.997   1.595
 7090TIP3    H221214   7.911   1.143   1.559
 7091TIP3   OH221215   0.804   7.035   0.768
 7091TIP3    H121216   0.712   7.009   0.759
 7091TIP3    H221217   0.819   7.094   0.694
 7092TIP3   OH221218   6.645   1.354   6.450
 7092TIP3    H121219   6.674   1.294   6.381
 7092TIP3    H221220   6.577   1.307   6.497
 7093TIP3   OH221221   7.096   2.192   6.319
 7093TIP3    H121222   7.007   2.158   6.332
 7093TIP3    H221223   7.148   2.148   6.386
 7094TIP3   OH221224   0.182   4.958   5.932
 7094TIP3    H121225   0.105   4.904   5.948
 7094TIP3    H221226   0.225   4.964   6.018
 7095TIP3   OH221227   2.940   2.142   3.554
 7095TIP3    H121228   2.980   2.175   3.474
 7095TIP3    H221229   3.014   2.127   3.613
 7096TIP3   OH221230   5.205   1.234   0.587
 7096TIP3    H121231   5.199   1.140   0.571
 7096TIP3    H221232   5.276   1.263   0.529
 7097TIP3   OH221233   2.280   6.155   6.096
 7097TIP3    H121234   2.200   6.114   6.063
 7097TIP3    H221235   2.263   6.249   6.092
 7098TIP3   OH221236   6.768  -0.006   1.879
 7098TIP3    H121237   6.845  -0.041   1.922
 7098TIP3    H221238   6.802   0.044   1.805
 7099TIP3   OH221239   6.288   5.386   1.687
 7099TIP3    H121240   6.295   5.368   1.594
 7099TIP3    H221241   6.220   5.453   1.694
 7100TIP3   OH221242   3.828   6.772   3.441
 7100TIP3    H121243   3.734   6.777   3.457
 7100TIP3    H221244   3.839   6.691   3.390
 7101TIP3   OH221245   3.981   7.445   2.633
 7101TIP3    H121246   3.893   7.455   2.669
 7101TIP3    H221247   3.975   7.483   2.545
 7102TIP3   OH221248   7.981   0.510   5.581
 7102TIP3    H121249   8.039   0.562   5.637
 7102TIP3    H221250   7.906   0.491   5.636
 7103TIP3   OH221251   1.751   2.620   1.793
 7103TIP3    H121252   1.728   2.623   1.700
 7103TIP3    H221253   1.685   2.675   1.836
 7104TIP3   OH221254   5.426   1.359   0.488
 7104TIP3    H121255   5.496   1.370   0.552
 7104TIP3    H221256   5.440   1.429   0.425
 7105TIP3   OH221257   2.336   1.633   5.262
 7105TIP3    H121258   2.298   1.678   5.186
 7105TIP3    H221259   2.409   1.688   5.288
 7106TIP3   OH221260   1.864   6.757   3.515
 7106TIP3    H121261   1.934   6.740   3.578
 7106TIP3    H221262   1.809   6.679   3.519
 7107TIP3   OH221263   7.416   2.968   0.852
 7107TIP3    H121264   7.510   2.977   0.868
 7107TIP3    H221265   7.375   3.005   0.930
 7108TIP3   OH221266   0.323   5.640   5.756
 7108TIP3    H121267   0.298   5.580   5.686
 7108TIP3    H221268   0.247   5.698   5.766
 7109TIP3   OH221269   3.232   3.957   3.860
 7109TIP3    H121270   3.194   4.002   3.784
 7109TIP3    H221271   3.196   3.868   3.855
 7110TIP3   OH221272   5.431   5.859   0.473
 7110TIP3    H121273   5.497   5.902   0.418
 7110TIP3    H221274   5.480   5.791   0.519
 7111TIP3   OH221275   1.010   3.198   2.642
 7111TIP3    H121276   1.032   3.144   2.566
 7111TIP3    H221277   1.037   3.287   2.618
 7112TIP3   OH221278   3.138   7.344   6.379
 7112TIP3    H121279   3.058   7.396   6.380
 7112TIP3    H221280   3.201   7.397   6.429
 7113TIP3   OH221281   2.256   0.953   4.781
 7113TIP3    H121282   2.216   1.022   4.834
 7113TIP3    H221283   2.182   0.902   4.749
 7114TIP3   OH221284   0.732   2.606   0.082
 7114TIP3    H121285   0.679   2.532   0.111
 7114TIP3    H221286   0.687   2.639   0.005
 7115TIP3   OH221287   2.940   7.327   4.709
 7115TIP3    H121288   3.033   7.317   4.690
 7115TIP3    H221289   2.928   7.287   4.795
 7116TIP3   OH221290   6.106   0.710   6.396
 7116TIP3    H121291   6.048   0.646   6.355
 7116TIP3    H221292   6.100   0.692   6.490
 7117TIP3   OH221293   8.130   4.441   6.178
 7117TIP3    H121294   8.143   4.444   6.272
 7117TIP3    H221295   8.214   4.411   6.143
 7118TIP3   OH221296   1.121   6.186   1.705
 7118TIP3    H121297   1.047   6.224   1.751
 7118TIP3    H221298   1.197   6.236   1.735
 7119TIP3   OH221299   7.972   3.104   0.793
 7119TIP3    H121300   8.021   3.166   0.847
 7119TIP3    H221301   7.956   3.029   0.850
 7120TIP3   OH221302   7.600   5.954   0.013
 7120TIP3    H121303   7.617   6.042   0.045
 7120TIP3    H221304   7.505   5.946   0.014
 7121TIP3   OH221305   5.120   2.357   1.028
 7121TIP3    H121306   5.100   2.272   0.990
 7121TIP3    H221307   5.065   2.419   0.979
 7122TIP3   OH221308   6.715   3.228   4.742
 7122TIP3    H121309   6.716   3.152   4.684
 7122TIP3    H221310   6.794   3.277   4.720
 7123TIP3   OH221311   5.090   6.730   2.125
 7123TIP3    H121312   5.033   6.781   2.183
 7123TIP3    H221313   5.051   6.740   2.038
 7124TIP3   OH221314   0.342   6.021   0.275
 7124TIP3    H121315   0.398   6.001   0.200
 7124TIP3    H221316   0.399   6.071   0.334
 7125TIP3   OH221317   0.317   4.721   6.339
 7125TIP3    H121318   0.359   4.651   6.288
 7125TIP3    H221319   0.239   4.681   6.376
 7126TIP3   OH221320   7.472   1.850   2.694
 7126TIP3    H121321   7.533   1.914   2.656
 7126TIP3    H221322   7.495   1.767   2.653
 7127TIP3   OH221323   5.104   4.435   2.469
 7127TIP3    H121324   5.070   4.404   2.553
 7127TIP3    H221325   5.065   4.376   2.404
 7128TIP3   OH221326   3.224   1.977   3.874
 7128TIP3    H121327   3.187   1.907   3.928
 7128TIP3    H221328   3.160   1.990   3.804
 7129TIP3   OH221329   4.878   5.720   3.300
 7129TIP3    H121330   4.918   5.647   3.253
 7129TIP3    H221331   4.931   5.729   3.379
 7130TIP3   OH221332   2.309   0.919   1.979
 7130TIP3    H121333   2.259   0.952   1.904
 7130TIP3    H221334   2.332   0.830   1.955
 7131TIP3   OH221335   5.276   0.434   3.006
 7131TIP3    H121336   5.270   0.508   3.067
 7131TIP3    H221337   5.297   0.359   3.061
 7132TIP3   OH221338   2.785   7.060   0.886
 7132TIP3    H121339   2.849   6.991   0.866
 7132TIP3    H221340   2.832   7.141   0.869
 7133TIP3   OH221341   3.975   2.620   2.206
 7133TIP3    H121342   4.035   2.656   2.271
 7133TIP3    H221343   3.922   2.557   2.255
 7134TIP3   OH221344   3.073   3.904   5.400
 7134TIP3    H121345   3.046   3.851   5.325
 7134TIP3    H221346   3.058   3.994   5.372
 7135TIP3   OH221347   2.039   2.577   2.664
 7135TIP3    H121348   1.964   2.625   2.628
 7135TIP3    H221349   2.108   2.643   2.671
 7136TIP3   OH221350   0.263   3.802   0.534
 7136TIP3    H121351   0.353   3.813   0.566
 7136TIP3    H221352   0.273   3.751   0.454
 7137TIP3   OH221353   2.797   7.124   3.205
 7137TIP3    H121354   2.887   7.123   3.236
 7137TIP3    H221355   2.803   7.098   3.113
 7138TIP3   OH221356   7.346   4.901   2.099
 7138TIP3    H121357   7.302   4.986   2.103
 7138TIP3    H221358   7.383   4.897   2.011
 7139TIP3   OH221359   3.056   6.804   0.187
 7139TIP3    H121360   2.972   6.831   0.223
 7139TIP3    H221361   3.103   6.886   0.172
 7140TIP3   OH221362   0.933   5.171   0.822
 7140TIP3    H121363   0.904   5.238   0.885
 7140TIP3    H221364   0.871   5.099   0.834
 7141TIP3   OH221365   1.906   7.031   1.049
 7141TIP3    H121366   1.912   7.054   1.141
 7141TIP3    H221367   1.962   7.096   1.005
 7142TIP3   OH221368   0.310   1.058   3.715
 7142TIP3    H121369   0.265   0.975   3.705
 7142TIP3    H221370   0.402   1.039   3.694
 7143TIP3   OH221371   7.605   6.189   5.356
 7143TIP3    H121372   7.562   6.104   5.355
 7143TIP3    H221373   7.538   6.250   5.326
 7144TIP3   OH221374   2.042   5.644   2.413
 7144TIP3    H121375   1.987   5.567   2.429
 7144TIP3    H221376   2.002   5.686   2.336
 7145TIP3   OH221377   3.806   2.484   4.592
 7145TIP3    H121378   3.720   2.526   4.584
 7145TIP3    H221379   3.821   2.478   4.687
 7146TIP3   OH221380   2.429   6.308   3.048
 7146TIP3    H121381   2.480   6.249   3.104
 7146TIP3    H221382   2.486   6.383   3.035
 7147TIP3   OH221383   6.765   7.395   6.696
 7147TIP3    H121384   6.741   7.437   6.613
 7147TIP3    H221385   6.848   7.351   6.677
 7148TIP3   OH221386   6.600   2.327   4.237
 7148TIP3    H121387   6.669   2.391   4.220
 7148TIP3    H221388   6.519   2.372   4.217
 7149TIP3   OH221389   7.720   5.222   4.916
 7149TIP3    H121390   7.725   5.305   4.963
 7149TIP3    H221391   7.646   5.176   4.955
 7150TIP3   OH221392   0.084   4.204   2.137
 7150TIP3    H121393   0.077   4.151   2.057
 7150TIP3    H221394   0.123   4.286   2.107
 7151TIP3   OH221395   7.047   0.874   2.165
 7151TIP3    H121396   6.985   0.801   2.165
 7151TIP3    H221397   6.996   0.950   2.136
 7152TIP3   OH221398   4.868   1.514   5.971
 7152TIP3    H121399   4.943   1.574   5.975
 7152TIP3    H221400   4.905   1.432   5.938
 7153TIP3   OH221401   1.636   2.850   2.130
 7153TIP3    H121402   1.661   2.782   2.194
 7153TIP3    H221403   1.694   2.923   2.149
 7154TIP3   OH221404   6.440   3.100   4.981
 7154TIP3    H121405   6.352   3.136   4.991
 7154TIP3    H221406   6.479   3.152   4.911
 7155TIP3   OH221407   6.663   0.375   4.834
 7155TIP3    H121408   6.730   0.314   4.865
 7155TIP3    H221409   6.645   0.348   4.744
 7156TIP3   OH221410   6.946   3.803   3.083
 7156TIP3    H121411   6.998   3.763   3.153
 7156TIP3    H221412   6.859   3.765   3.092
 7157TIP3   OH221413   4.368   0.298   2.538
 7157TIP3    H121414   4.308   0.371   2.554
 7157TIP3    H221415   4.454   0.332   2.562
 7158TIP3   OH221416   4.040   0.786   2.355
 7158TIP3    H121417   4.086   0.731   2.292
 7158TIP3    H221418   4.015   0.726   2.426
 7159TIP3   OH221419   4.954   3.023   6.061
 7159TIP3    H121420   4.891   3.007   6.131
 7159TIP3    H221421   5.028   3.064   6.104
 7160TIP3   OH221422   4.079   6.353   5.102
 7160TIP3    H121423   4.149   6.332   5.039
 7160TIP3    H221424   4.098   6.442   5.131
 7161TIP3   OH221425   6.892   2.269   3.198
 7161TIP3    H121426   6.870   2.280   3.290
 7161TIP3    H221427   6.972   2.217   3.198
 7162TIP3   OH221428   5.738   1.648   1.683
 7162TIP3    H121429   5.680   1.668   1.609
 7162TIP3    H221430   5.737   1.552   1.690
 7163TIP3   OH221431   4.395   6.365   0.728
 7163TIP3    H121432   4.399   6.274   0.759
 7163TIP3    H221433   4.364   6.358   0.638
 7164TIP3   OH221434   2.052   1.936   4.620
 7164TIP3    H121435   1.993   1.972   4.553
 7164TIP3    H221436   2.012   1.963   4.703
 7165TIP3   OH221437   6.929   0.765   1.816
 7165TIP3    H121438   6.929   0.672   1.792
 7165TIP3    H221439   6.836   0.786   1.826
 7166TIP3   OH221440   4.817   6.962   1.383
 7166TIP3    H121441   4.833   6.990   1.293
 7166TIP3    H221442   4.792   6.870   1.376
 7167TIP3   OH221443   6.188   7.181   2.778
 7167TIP3    H121444   6.164   7.272   2.762
 7167TIP3    H221445   6.120   7.149   2.838
 7168TIP3   OH221446   7.272   4.281   2.753
 7168TIP3    H121447   7.252   4.343   2.823
 7168TIP3    H221448   7.327   4.214   2.795
 7169TIP3   OH221449   2.974   1.532   0.440
 7169TIP3    H121450   2.938   1.484   0.514
 7169TIP3    H221451   2.973   1.624   0.468
 7170TIP3   OH221452   6.159   2.310   0.906
 7170TIP3    H121453   6.204   2.390   0.932
 7170TIP3    H221454   6.083   2.341   0.855
 7171TIP3   OH221455   4.900   7.523   3.005
 7171TIP3    H121456   4.923   7.575   3.082
 7171TIP3    H221457   4.872   7.439   3.041
 7172TIP3   OH221458   8.095   1.757   2.971
 7172TIP3    H121459   8.153   1.828   2.942
 7172TIP3    H221460   8.144   1.713   3.040
 7173TIP3   OH221461   4.442   6.212   1.196
 7173TIP3    H121462   4.533   6.222   1.224
 7173TIP3    H221463   4.409   6.302   1.193
 7174TIP3   OH221464   4.563   5.977   1.459
 7174TIP3    H121465   4.614   5.926   1.396
 7174TIP3    H221466   4.507   5.912   1.502
 7175TIP3   OH221467   7.870   6.444   2.441
 7175TIP3    H121468   7.951   6.433   2.490
 7175TIP3    H221469   7.870   6.371   2.379
 7176TIP3   OH221470   1.014   5.386   2.447
 7176TIP3    H121471   0.992   5.472   2.484
 7176TIP3    H221472   1.063   5.342   2.516
 7177TIP3   OH221473   6.122   3.852   0.125
 7177TIP3    H121474   6.040   3.874   0.167
 7177TIP3    H221475   6.114   3.886   0.036
 7178TIP3   OH221476   2.372   2.013   2.352
 7178TIP3    H121477   2.283   2.033   2.380
 7178TIP3    H221478   2.414   1.975   2.429
 7179TIP3   OH221479   0.102   7.500   0.403
 7179TIP3    H121480   0.142   7.426   0.357
 7179TIP3    H221481   0.088   7.468   0.492
 7180TIP3   OH221482   8.241   5.980   3.159
 7180TIP3    H121483   8.311   5.964   3.221
 7180TIP3    H221484   8.282   6.028   3.087
 7181TIP3   OH221485   8.260   3.947   2.291
 7181TIP3    H121486   8.233   4.039   2.300
 7181TIP3    H221487   8.339   3.950   2.237
 7182TIP3   OH221488   1.692   3.851   2.038
 7182TIP3    H121489   1.669   3.944   2.038
 7182TIP3    H221490   1.608   3.806   2.050
 7183TIP3   OH221491   6.142   1.915   2.426
 7183TIP3    H121492   6.189   1.981   2.375
 7183TIP3    H221493   6.060   1.957   2.451
 7184TIP3   OH221494   4.692   2.444   2.120
 7184TIP3    H121495   4.766   2.469   2.174
 7184TIP3    H221496   4.668   2.356   2.151
 7185TIP3   OH221497   1.755   6.028   0.468
 7185TIP3    H121498   1.813   5.956   0.492
 7185TIP3    H221499   1.667   5.992   0.477
 7186TIP3   OH221500   2.581   4.789   2.009
 7186TIP3    H121501   2.517   4.733   2.052
 7186TIP3    H221502   2.534   4.870   1.990
 7187TIP3   OH221503   6.464   0.521   4.927
 7187TIP3    H121504   6.394   0.457   4.930
 7187TIP3    H221505   6.540   0.472   4.894
 7188TIP3   OH221506   4.325   0.050   1.075
 7188TIP3    H121507   4.419   0.070   1.081
 7188TIP3    H221508   4.321  -0.029   1.022
 7189TIP3   OH221509   5.311   0.358   3.268
 7189TIP3    H121510   5.246   0.313   3.322
 7189TIP3    H221511   5.299   0.451   3.288
 7190TIP3   OH221512   2.013   2.277   1.040
 7190TIP3    H121513   2.070   2.214   1.085
 7190TIP3    H221514   1.941   2.225   1.006
 7191TIP3   OH221515   4.692   2.217   3.057
 7191TIP3    H121516   4.700   2.201   3.151
 7191TIP3    H221517   4.602   2.248   3.045
 7192TIP3   OH221518   0.423   5.883   1.985
 7192TIP3    H121519   0.487   5.869   1.915
 7192TIP3    H221520   0.348   5.924   1.941
 7193TIP3   OH221521   1.853   1.742   4.054
 7193TIP3    H121522   1.793   1.807   4.091
 7193TIP3    H221523   1.867   1.772   3.964
 7194TIP3   OH221524   6.683   1.544   2.989
 7194TIP3    H121525   6.608   1.569   2.934
 7194TIP3    H221526   6.646   1.538   3.077
 7195TIP3   OH221527   2.117   0.402   4.554
 7195TIP3    H121528   2.191   0.412   4.494
 7195TIP3    H221529   2.071   0.486   4.549
 7196TIP3   OH221530   8.298   3.003   0.298
 7196TIP3    H121531   8.309   3.063   0.224
 7196TIP3    H221532   8.236   2.938   0.266
 7197TIP3   OH221533   6.659   3.721   1.606
 7197TIP3    H121534   6.622   3.801   1.643
 7197TIP3    H221535   6.593   3.691   1.544
 7198TIP3   OH221536   7.442   7.608   1.332
 7198TIP3    H121537   7.395   7.525   1.345
 7198TIP3    H221538   7.515   7.585   1.274
 7199TIP3   OH221539   5.456   4.338   5.917
 7199TIP3    H121540   5.447   4.323   6.012
 7199TIP3    H221541   5.367   4.359   5.888
 7200TIP3   OH221542   1.252   5.589   1.055
 7200TIP3    H121543   1.241   5.652   0.983
 7200TIP3    H221544   1.347   5.581   1.064
 7201TIP3   OH221545   4.384   6.895   4.511
 7201TIP3    H121546   4.386   6.943   4.593
 7201TIP3    H221547   4.297   6.855   4.509
 7202TIP3   OH221548   4.614   4.703   2.812
 7202TIP3    H121549   4.599   4.651   2.891
 7202TIP3    H221550   4.529   4.741   2.791
 7203TIP3   OH221551   7.459   0.310   0.113
 7203TIP3    H121552   7.390   0.278   0.054
 7203TIP3    H221553   7.440   0.267   0.197
 7204TIP3   OH221554   6.761   2.519   4.864
 7204TIP3    H121555   6.733   2.484   4.779
 7204TIP3    H221556   6.691   2.580   4.889
 7205TIP3   OH221557   5.950   3.627   4.759
 7205TIP3    H121558   5.927   3.712   4.722
 7205TIP3    H221559   5.875   3.601   4.812
 7206TIP3   OH221560   6.160   6.224   4.411
 7206TIP3    H121561   6.214   6.262   4.341
 7206TIP3    H221562   6.181   6.131   4.409
 7207TIP3   OH221563   6.573   2.543   0.418
 7207TIP3    H121564   6.598   2.502   0.501
 7207TIP3    H221565   6.520   2.478   0.374
 7208TIP3   OH221566   5.053   4.510   0.916
 7208TIP3    H121567   4.959   4.490   0.924
 7208TIP3    H221568   5.057   4.580   0.851
 7209TIP3   OH221569   0.598   2.582   2.510
 7209TIP3    H121570   0.670   2.629   2.552
 7209TIP3    H221571   0.524   2.595   2.568
 7210TIP3   OH221572   0.997   4.587   4.087
 7210TIP3    H121573   0.960   4.500   4.074
 7210TIP3    H221574   0.942   4.626   4.156
 7211TIP3   OH221575   0.884   2.991   4.435
 7211TIP3    H121576   0.945   2.930   4.477
 7211TIP3    H221577   0.939   3.051   4.386
 7212TIP3   OH221578   3.853   1.686   1.668
 7212TIP3    H121579   3.820   1.759   1.721
 7212TIP3    H221580   3.823   1.608   1.715
 7213TIP3   OH221581   6.562   2.807   6.337
 7213TIP3    H121582   6.528   2.859   6.264
 7213TIP3    H221583   6.611   2.736   6.296
 7214TIP3   OH221584   3.720   5.128   4.217
 7214TIP3    H121585   3.789   5.176   4.170
 7214TIP3    H221586   3.658   5.196   4.244
 7215TIP3   OH221587   1.622   6.705   2.670
 7215TIP3    H121588   1.707   6.709   2.627
 7215TIP3    H221589   1.574   6.781   2.637
 7216TIP3   OH221590   2.093   7.808   0.640
 7216TIP3    H121591   2.033   7.859   0.586
 7216TIP3    H221592   2.081   7.718   0.612
 7217TIP3   OH221593   2.486   7.701   0.927
 7217TIP3    H121594   2.454   7.780   0.883
 7217TIP3    H221595   2.440   7.629   0.884
 7218TIP3   OH221596   3.070   7.191   4.225
 7218TIP3    H121597   3.096   7.205   4.316
 7218TIP3    H221598   3.012   7.115   4.228
 7219TIP3   OH221599   1.208   2.320   6.158
 7219TIP3    H121600   1.260   2.353   6.232
 7219TIP3    H221601   1.237   2.229   6.147
 7220TIP3   OH221602   5.868   1.919   3.562
 7220TIP3    H121603   5.963   1.904   3.557
 7220TIP3    H221604   5.842   1.876   3.643
 7221TIP3   OH221605   7.455   2.011   3.950
 7221TIP3    H121606   7.505   2.019   3.870
 7221TIP3    H221607   7.520   2.007   4.020
 7222TIP3   OH221608   1.158   1.028  -0.019
 7222TIP3    H121609   1.063   1.014  -0.018
 7222TIP3    H221610   1.192   0.965   0.045
 7223TIP3   OH221611   3.804   4.960   0.615
 7223TIP3    H121612   3.764   4.966   0.702
 7223TIP3    H221613   3.808   5.051   0.585
 7224TIP3   OH221614   3.294   5.316   5.303
 7224TIP3    H121615   3.236   5.279   5.370
 7224TIP3    H221616   3.307   5.407   5.330
 7225TIP3   OH221617   1.478   4.733   0.256
 7225TIP3    H121618   1.406   4.783   0.294
 7225TIP3    H221619   1.475   4.648   0.301
 7226TIP3   OH221620   0.441   5.625   6.800
 7226TIP3    H121621   0.430   5.708   6.755
 7226TIP3    H221622   0.492   5.571   6.739
 7227TIP3   OH221623   2.809   1.954   5.272
 7227TIP3    H121624   2.762   2.029   5.234
 7227TIP3    H221625   2.874   1.993   5.331
 7228TIP3   OH221626   2.665   2.633   2.009
 7228TIP3    H121627   2.595   2.698   2.009
 7228TIP3    H221628   2.660   2.593   2.096
 7229TIP3   OH221629   4.223   2.929   0.530
 7229TIP3    H121630   4.181   3.014   0.540
 7229TIP3    H221631   4.270   2.935   0.447
 7230TIP3   OH221632   0.289   2.797   2.100
 7230TIP3    H121633   0.295   2.777   2.006
 7230TIP3    H221634   0.381   2.804   2.128
 7231TIP3   OH221635   6.504   1.761   5.893
 7231TIP3    H121636   6.577   1.805   5.936
 7231TIP3    H221637   6.516   1.779   5.799
 7232TIP3   OH221638   5.019   0.128   2.294
 7232TIP3    H121639   5.017   0.097   2.203
 7232TIP3    H221640   4.955   0.074   2.339
 7233TIP3   OH221641   2.423   2.439   4.079
 7233TIP3    H121642   2.330   2.452   4.062
 7233TIP3    H221643   2.438   2.347   4.055
 7234TIP3   OH221644   3.530   3.138   0.390
 7234TIP3    H121645   3.528   3.207   0.457
 7234TIP3    H221646   3.553   3.058   0.438
 7235TIP3   OH221647   6.711   4.969   2.736
 7235TIP3    H121648   6.691   4.878   2.760
 7235TIP3    H221649   6.625   5.011   2.730
 7236TIP3   OH221650   5.491   0.462   2.396
 7236TIP3    H121651   5.488   0.367   2.401
 7236TIP3    H221652   5.436   0.484   2.321
 7237TIP3   OH221653   8.228   5.401   2.984
 7237TIP3    H121654   8.278   5.482   2.972
 7237TIP3    H221655   8.138   5.425   2.961
 7238TIP3   OH221656   5.015   2.902   5.240
 7238TIP3    H121657   4.946   2.882   5.304
 7238TIP3    H221658   5.097   2.890   5.287
 7239TIP3   OH221659   6.405   2.288   4.649
 7239TIP3    H121660   6.430   2.228   4.579
 7239TIP3    H221661   6.376   2.367   4.604
 7240TIP3   OH221662   2.926   5.002   3.237
 7240TIP3    H121663   2.950   4.910   3.248
 7240TIP3    H221664   2.982   5.049   3.299
 7241TIP3   OH221665   2.529   3.914   0.879
 7241TIP3    H121666   2.477   3.861   0.818
 7241TIP3    H221667   2.601   3.857   0.906
 7242TIP3   OH221668   8.044   5.842   0.830
 7242TIP3    H121669   8.038   5.890   0.748
 7242TIP3    H221670   8.059   5.751   0.803
 7243TIP3   OH221671   0.417   3.660   1.069
 7243TIP3    H121672   0.383   3.750   1.069
 7243TIP3    H221673   0.380   3.621   1.148
 7244TIP3   OH221674   0.391   7.120   1.962
 7244TIP3    H121675   0.431   7.034   1.981
 7244TIP3    H221676   0.357   7.111   1.873
 7245TIP3   OH221677   3.831   4.065   2.426
 7245TIP3    H121678   3.822   4.160   2.418
 7245TIP3    H221679   3.756   4.037   2.477
 7246TIP3   OH221680   7.042   5.662   0.913
 7246TIP3    H121681   7.084   5.585   0.874
 7246TIP3    H221682   7.109   5.699   0.970
 7247TIP3   OH221683   0.475   6.568   0.538
 7247TIP3    H121684   0.514   6.616   0.465
 7247TIP3    H221685   0.515   6.605   0.616
 7248TIP3   OH221686   8.116   4.718   4.494
 7248TIP3    H121687   8.191   4.721   4.435
 7248TIP3    H221688   8.135   4.646   4.554
 7249TIP3   OH221689   0.452   5.548   3.511
 7249TIP3    H121690   0.511   5.545   3.436
 7249TIP3    H221691   0.398   5.626   3.496
 7250TIP3   OH221692   0.946   5.884   1.322
 7250TIP3    H121693   0.902   5.846   1.246
 7250TIP3    H221694   1.010   5.818   1.348
 7251TIP3   OH221695   2.281   1.672   6.194
 7251TIP3    H121696   2.269   1.690   6.101
 7251TIP3    H221697   2.328   1.588   6.196
 7252TIP3   OH221698   1.672   7.547   2.210
 7252TIP3    H121699   1.607   7.484   2.239
 7252TIP3    H221700   1.710   7.508   2.131
 7253TIP3   OH221701   7.172   1.373   4.069
 7253TIP3    H121702   7.250   1.320   4.053
 7253TIP3    H221703   7.108   1.341   4.005
 7254TIP3   OH221704   4.816   1.542   5.493
 7254TIP3    H121705   4.877   1.475   5.524
 7254TIP3    H221706   4.871   1.606   5.448
 7255TIP3   OH221707   1.206   7.666   4.926
 7255TIP3    H121708   1.268   7.687   4.996
 7255TIP3    H221709   1.254   7.608   4.868
 7256TIP3   OH221710   1.856   2.429   0.471
 7256TIP3    H121711   1.904   2.387   0.542
 7256TIP3    H221712   1.773   2.455   0.510
 7257TIP3   OH221713   0.275   4.869   5.585
 7257TIP3    H121714   0.266   4.795   5.645
 7257TIP3    H221715   0.231   4.941   5.630
 7258TIP3   OH221716   5.001   5.482   0.355
 7258TIP3    H121717   4.992   5.492   0.450
 7258TIP3    H221718   5.050   5.400   0.344
 7259TIP3   OH221719   2.803   0.148   3.856
 7259TIP3    H121720   2.877   0.198   3.822
 7259TIP3    H221721   2.808   0.159   3.951
 7260TIP3   OH221722   2.013   2.094   5.989
 7260TIP3    H121723   2.017   2.183   6.023
 7260TIP3    H221724   2.085   2.049   6.033
 7261TIP3   OH221725   4.576   5.945   0.986
 7261TIP3    H121726   4.584   5.967   1.079
 7261TIP3    H221727   4.508   6.004   0.953
 7262TIP3   OH221728   2.276   1.123   0.834
 7262TIP3    H121729   2.217   1.142   0.761
 7262TIP3    H221730   2.281   1.205   0.883
 7263TIP3   OH221731   6.683   5.231   4.260
 7263TIP3    H121732   6.646   5.151   4.296
 7263TIP3    H221733   6.747   5.201   4.196
 7264TIP3   OH221734   6.186   1.133   4.257
 7264TIP3    H121735   6.144   1.153   4.341
 7264TIP3    H221736   6.175   1.213   4.205
 7265TIP3   OH221737   3.774   5.218   3.182
 7265TIP3    H121738   3.827   5.217   3.103
 7265TIP3    H221739   3.683   5.220   3.152
 7266TIP3   OH221740   4.091   1.573   3.269
 7266TIP3    H121741   4.146   1.495   3.274
 7266TIP3    H221742   4.152   1.647   3.272
 7267TIP3   OH221743   0.065   7.672   6.025
 7267TIP3    H121744  -0.012   7.621   6.001
 7267TIP3    H221745   0.034   7.762   6.031
 7268TIP3   OH221746   2.310   2.218   3.729
 7268TIP3    H121747   2.349   2.161   3.796
 7268TIP3    H221748   2.345   2.185   3.646
 7269TIP3   OH221749   8.285   4.254   3.630
 7269TIP3    H121750   8.219   4.323   3.625
 7269TIP3    H221751   8.235   4.172   3.635
 7270TIP3   OH221752   8.061   5.162   0.836
 7270TIP3    H121753   8.024   5.123   0.757
 7270TIP3    H221754   7.986   5.198   0.883
 7271TIP3   OH221755   4.403   1.296   1.474
 7271TIP3    H121756   4.475   1.239   1.500
 7271TIP3    H221757   4.333   1.236   1.448
 7272TIP3   OH221758   7.334   2.322   5.514
 7272TIP3    H121759   7.423   2.287   5.519
 7272TIP3    H221760   7.301   2.292   5.430
 7273TIP3   OH221761   7.886   4.091   0.374
 7273TIP3    H121762   7.816   4.084   0.438
 7273TIP3    H221763   7.960   4.046   0.414
 7274TIP3   OH221764   1.544   2.669   2.708
 7274TIP3    H121765   1.587   2.696   2.789
 7274TIP3    H221766   1.502   2.749   2.676
 7275TIP3   OH221767   7.436   5.957   0.959
 7275TIP3    H121768   7.418   6.004   1.040
 7275TIP3    H221769   7.486   5.880   0.985
 7276TIP3   OH221770   5.515   7.586   0.955
 7276TIP3    H121771   5.439   7.537   0.987
 7276TIP3    H221772   5.494   7.606   0.863
 7277TIP3   OH221773   1.658   7.509   5.257
 7277TIP3    H121774   1.626   7.582   5.310
 7277TIP3    H221775   1.745   7.536   5.228
 7278TIP3   OH221776   2.277   3.305   0.231
 7278TIP3    H121777   2.298   3.317   0.138
 7278TIP3    H221778   2.183   3.321   0.236
 7279TIP3   OH221779   0.116   3.815   1.178
 7279TIP3    H121780   0.109   3.745   1.243
 7279TIP3    H221781   0.209   3.834   1.173
 7280TIP3   OH221782   2.860   0.611   3.688
 7280TIP3    H121783   2.948   0.647   3.692
 7280TIP3    H221784   2.833   0.623   3.597
 7281TIP3   OH221785   1.266   3.390   4.775
 7281TIP3    H121786   1.321   3.397   4.697
 7281TIP3    H221787   1.322   3.346   4.840
 7282TIP3   OH221788   4.635   0.331   4.687
 7282TIP3    H121789   4.625   0.410   4.740
 7282TIP3    H221790   4.549   0.318   4.647
 7283TIP3   OH221791   0.076   2.012   0.285
 7283TIP3    H121792   0.134   2.027   0.210
 7283TIP3    H221793   0.126   1.953   0.342
 7284TIP3   OH221794   2.459   5.773   6.087
 7284TIP3    H121795   2.412   5.722   6.021
 7284TIP3    H221796   2.395   5.788   6.156
 7285TIP3   OH221797   0.443   3.337   6.140
 7285TIP3    H121798   0.435   3.330   6.045
 7285TIP3    H221799   0.354   3.354   6.171
 7286TIP3   OH221800   6.186   4.379   1.545
 7286TIP3    H121801   6.202   4.474   1.546
 7286TIP3    H221802   6.262   4.342   1.500
 7287TIP3   OH221803   1.507   4.876   3.495
 7287TIP3    H121804   1.440   4.941   3.516
 7287TIP3    H221805   1.493   4.806   3.559
 7288TIP3   OH221806   1.175   1.378   2.514
 7288TIP3    H121807   1.150   1.467   2.541
 7288TIP3    H221808   1.267   1.371   2.540
 7289TIP3   OH221809   3.722   2.270   0.896
 7289TIP3    H121810   3.685   2.251   0.983
 7289TIP3    H221811   3.815   2.282   0.912
 7290TIP3   OH221812   4.775   1.642   3.304
 7290TIP3    H121813   4.857   1.618   3.347
 7290TIP3    H221814   4.721   1.679   3.373
 7291TIP3   OH221815   7.688   5.669   5.624
 7291TIP3    H121816   7.746   5.744   5.616
 7291TIP3    H221817   7.672   5.641   5.534
 7292TIP3   OH221818   1.027   4.712   4.518
 7292TIP3    H121819   1.034   4.630   4.469
 7292TIP3    H221820   1.085   4.773   4.472
 7293TIP3   OH221821   6.279   0.963   4.491
 7293TIP3    H121822   6.183   0.963   4.495
 7293TIP3    H221823   6.303   0.870   4.497
 7294TIP3   OH221824   6.547   5.415   0.798
 7294TIP3    H121825   6.458   5.411   0.834
 7294TIP3    H221826   6.591   5.338   0.836
 7295TIP3   OH221827   2.752   5.222   4.917
 7295TIP3    H121828   2.774   5.277   4.842
 7295TIP3    H221829   2.701   5.279   4.975
 7296TIP3   OH221830   6.553   7.689   4.062
 7296TIP3    H121831   6.497   7.631   4.113
 7296TIP3    H221832   6.506   7.700   3.979
 7297TIP3   OH221833   4.573   1.213   5.740
 7297TIP3    H121834   4.565   1.305   5.718
 7297TIP3    H221835   4.668   1.197   5.741
 7298TIP3   OH221836   6.496   1.388   4.507
 7298TIP3    H121837   6.472   1.324   4.440
 7298TIP3    H221838   6.412   1.422   4.539
 7299TIP3   OH221839   6.891   6.838   0.787
 7299TIP3    H121840   6.803   6.811   0.811
 7299TIP3    H221841   6.948   6.790   0.847
 7300TIP3   OH221842   6.288   7.453   4.926
 7300TIP3    H121843   6.251   7.498   4.850
 7300TIP3    H221844   6.292   7.519   4.994
 7301TIP3   OH221845   2.919   2.657   4.457
 7301TIP3    H121846   2.884   2.708   4.530
 7301TIP3    H221847   3.014   2.662   4.468
 7302TIP3   OH221848   7.865   6.012   1.293
 7302TIP3    H121849   7.879   6.030   1.386
 7302TIP3    H221850   7.937   5.954   1.269
 7303TIP3   OH221851   7.749   7.401   1.584
 7303TIP3    H121852   7.676   7.347   1.556
 7303TIP3    H221853   7.749   7.393   1.680
 7304TIP3   OH221854   5.730   5.226   3.371
 7304TIP3    H121855   5.821   5.247   3.349
 7304TIP3    H221856   5.732   5.206   3.464
 7305TIP3   OH221857   0.773   1.131   4.959
 7305TIP3    H121858   0.776   1.178   4.875
 7305TIP3    H221859   0.838   1.062   4.950
 7306TIP3   OH221860   5.494   3.344   6.663
 7306TIP3    H121861   5.401   3.344   6.685
 7306TIP3    H221862   5.496   3.354   6.567
 7307TIP3   OH221863   0.699   3.056   6.589
 7307TIP3    H121864   0.658   2.995   6.650
 7307TIP3    H221865   0.775   3.007   6.554
 7308TIP3   OH221866   5.791   6.241   6.499
 7308TIP3    H121867   5.823   6.328   6.524
 7308TIP3    H221868   5.708   6.258   6.456
 7309TIP3   OH221869   4.257   3.201   0.188
 7309TIP3    H121870   4.274   3.295   0.192
 7309TIP3    H221871   4.327   3.162   0.240
 7310TIP3   OH221872   1.336   7.531   2.159
 7310TIP3    H121873   1.362   7.585   2.233
 7310TIP3    H221874   1.403   7.463   2.153
 7311TIP3   OH221875   0.564   7.593   5.969
 7311TIP3    H121876   0.628   7.608   5.899
 7311TIP3    H221877   0.515   7.675   5.975
 7312TIP3   OH221878   0.479   1.344   6.571
 7312TIP3    H121879   0.559   1.294   6.587
 7312TIP3    H221880   0.507   1.418   6.517
 7313TIP3   OH221881   4.625   0.044   5.308
 7313TIP3    H121882   4.613  -0.045   5.276
 7313TIP3    H221883   4.667   0.034   5.393
 7314TIP3   OH221884   0.991   5.938   1.843
 7314TIP3    H121885   0.991   5.903   1.932
 7314TIP3    H221886   1.031   6.024   1.851
 7315TIP3   OH221887   2.579   4.279   4.667
 7315TIP3    H121888   2.671   4.299   4.682
 7315TIP3    H221889   2.533   4.312   4.744
 7316TIP3   OH221890   7.279   7.752   0.414
 7316TIP3    H121891   7.248   7.776   0.501
 7316TIP3    H221892   7.238   7.667   0.396
 7317TIP3   OH221893   6.215   0.046   5.399
 7317TIP3    H121894   6.119   0.045   5.403
 7317TIP3    H221895   6.239   0.133   5.430
 7318TIP3   OH221896   5.222   1.751   4.901
 7318TIP3    H121897   5.211   1.838   4.939
 7318TIP3    H221898   5.208   1.691   4.974
 7319TIP3   OH221899   2.532   7.851   5.343
 7319TIP3    H121900   2.611   7.847   5.397
 7319TIP3    H221901   2.549   7.790   5.271
 7320TIP3   OH221902   5.192   0.417   6.599
 7320TIP3    H121903   5.184   0.342   6.657
 7320TIP3    H221904   5.136   0.396   6.524
 7321TIP3   OH221905   6.248   2.119   2.232
 7321TIP3    H121906   6.174   2.169   2.198
 7321TIP3    H221907   6.322   2.180   2.227
 7322TIP3   OH221908   2.066   2.841   3.273
 7322TIP3    H121909   2.056   2.917   3.331
 7322TIP3    H221910   2.124   2.782   3.321
 7323TIP3   OH221911   2.765   2.816   4.606
 7323TIP3    H121912   2.740   2.775   4.689
 7323TIP3    H221913   2.761   2.910   4.624
 7324TIP3   OH221914   6.401   1.465   1.919
 7324TIP3    H121915   6.441   1.440   1.836
 7324TIP3    H221916   6.356   1.547   1.900
 7325TIP3   OH221917   1.190   2.247   1.346
 7325TIP3    H121918   1.213   2.335   1.317
 7325TIP3    H221919   1.275   2.204   1.360
 7326TIP3   OH221920   3.501   5.027   0.076
 7326TIP3    H121921   3.517   5.118   0.053
 7326TIP3    H221922   3.412   5.010   0.045
 7327TIP3   OH221923   1.875   5.694   3.065
 7327TIP3    H121924   1.802   5.633   3.079
 7327TIP3    H221925   1.880   5.746   3.145
 7328TIP3   OH221926   3.650   1.590   5.159
 7328TIP3    H121927   3.702   1.658   5.201
 7328TIP3    H221928   3.679   1.509   5.200
 7329TIP3   OH221929   8.107   2.832   2.860
 7329TIP3    H121930   8.056   2.847   2.780
 7329TIP3    H221931   8.047   2.785   2.918
 7330TIP3   OH221932   4.199   1.084   3.110
 7330TIP3    H121933   4.163   1.111   3.025
 7330TIP3    H221934   4.285   1.048   3.088
 7331TIP3   OH221935   2.658   0.852   3.499
 7331TIP3    H121936   2.629   0.943   3.508
 7331TIP3    H221937   2.605   0.803   3.562
 7332TIP3   OH221938   2.894   4.239   1.304
 7332TIP3    H121939   2.834   4.310   1.326
 7332TIP3    H221940   2.926   4.207   1.388
 7333TIP3   OH221941   4.078   1.730   4.288
 7333TIP3    H121942   4.132   1.727   4.367
 7333TIP3    H221943   4.092   1.645   4.246
 7334TIP3   OH221944   5.724   1.741   0.547
 7334TIP3    H121945   5.702   1.796   0.622
 7334TIP3    H221946   5.647   1.686   0.534
 7335TIP3   OH221947   2.306   4.721   4.919
 7335TIP3    H121948   2.325   4.647   4.978
 7335TIP3    H221949   2.290   4.795   4.979
 7336TIP3   OH221950   5.570   7.089   0.990
 7336TIP3    H121951   5.564   7.142   1.069
 7336TIP3    H221952   5.585   7.152   0.919
 7337TIP3   OH221953   7.641   6.649   2.256
 7337TIP3    H121954   7.719   6.614   2.297
 7337TIP3    H221955   7.568   6.610   2.304
 7338TIP3   OH221956   4.712   5.854   2.085
 7338TIP3    H121957   4.714   5.793   2.012
 7338TIP3    H221958   4.802   5.856   2.118
 7339TIP3   OH221959   5.920   2.346   2.946
 7339TIP3    H121960   6.009   2.313   2.942
 7339TIP3    H221961   5.929   2.442   2.942
 7340TIP3   OH221962   8.003   4.571   0.124
 7340TIP3    H121963   8.064   4.589   0.195
 7340TIP3    H221964   7.984   4.478   0.132
 7341TIP3   OH221965   2.302   1.424   4.671
 7341TIP3    H121966   2.268   1.509   4.642
 7341TIP3    H221967   2.395   1.439   4.684
 7342TIP3   OH221968   0.572   6.311   0.553
 7342TIP3    H121969   0.627   6.335   0.628
 7342TIP3    H221970   0.535   6.393   0.523
 7343TIP3   OH221971   5.834   4.130   0.845
 7343TIP3    H121972   5.831   4.051   0.899
 7343TIP3    H221973   5.791   4.105   0.763
 7344TIP3   OH221974   1.839   6.946   6.686
 7344TIP3    H121975   1.931   6.923   6.692
 7344TIP3    H221976   1.823   7.004   6.762
 7345TIP3   OH221977   1.227   0.336   0.495
 7345TIP3    H121978   1.228   0.350   0.590
 7345TIP3    H221979   1.223   0.241   0.485
 7346TIP3   OH221980   1.027   4.525   6.696
 7346TIP3    H121981   1.097   4.589   6.708
 7346TIP3    H221982   0.968   4.540   6.770
 7347TIP3   OH221983   2.873   1.769   2.103
 7347TIP3    H121984   2.816   1.698   2.076
 7347TIP3    H221985   2.935   1.729   2.165
 7348TIP3   OH221986   1.149   3.731   2.437
 7348TIP3    H121987   1.149   3.764   2.526
 7348TIP3    H221988   1.136   3.808   2.382
 7349TIP3   OH221989   0.449   0.702   4.482
 7349TIP3    H121990   0.399   0.745   4.552
 7349TIP3    H221991   0.386   0.695   4.410
 7350TIP3   OH221992   4.191   5.772   6.660
 7350TIP3    H121993   4.102   5.762   6.694
 7350TIP3    H221994   4.203   5.696   6.603
 7351TIP3   OH221995   3.501   6.826   5.907
 7351TIP3    H121996   3.552   6.769   5.965
 7351TIP3    H221997   3.448   6.766   5.855
 7352TIP3   OH221998   5.772   2.144   1.971
 7352TIP3    H121999   5.831   2.068   1.974
 7352TIP3    H222000   5.701   2.117   1.912
 7353TIP3   OH222001   7.545   4.011   6.052
 7353TIP3    H122002   7.626   4.042   6.092
 7353TIP3    H222003   7.505   4.089   6.014
 7354TIP3   OH222004   2.912   5.629   6.265
 7354TIP3    H122005   2.851   5.565   6.228
 7354TIP3    H222006   2.999   5.596   6.241
 7355TIP3   OH222007   6.663   6.602   0.614
 7355TIP3    H122008   6.630   6.653   0.688
 7355TIP3    H222009   6.611   6.631   0.540
 7356TIP3   OH222010   0.629   7.440   5.578
 7356TIP3    H122011   0.587   7.356   5.556
 7356TIP3    H222012   0.556   7.501   5.585
 7357TIP3   OH222013   4.624   4.559   4.294
 7357TIP3    H122014   4.701   4.553   4.238
 7357TIP3    H222015   4.556   4.511   4.246
 7358TIP3   OH222016   5.336   0.736   1.508
 7358TIP3    H122017   5.414   0.760   1.559
 7358TIP3    H222018   5.351   0.776   1.422
 7359TIP3   OH222019   6.091   4.887   5.770
 7359TIP3    H122020   6.108   4.808   5.718
 7359TIP3    H222021   5.997   4.883   5.789
 7360TIP3   OH222022   3.692   0.072   6.233
 7360TIP3    H122023   3.731  -0.015   6.228
 7360TIP3    H222024   3.686   0.100   6.142
 7361TIP3   OH222025   4.701   0.251   0.583
 7361TIP3    H122026   4.636   0.321   0.573
 7361TIP3    H222027   4.778   0.295   0.619
 7362TIP3   OH222028   3.841   0.196   5.072
 7362TIP3    H122029   3.746   0.191   5.087
 7362TIP3    H222030   3.851   0.261   5.003
 7363TIP3   OH222031   7.994   4.116   6.562
 7363TIP3    H122032   7.941   4.192   6.588
 7363TIP3    H222033   7.972   4.103   6.470
 7364TIP3   OH222034   3.886   5.309   5.108
 7364TIP3    H122035   3.948   5.380   5.090
 7364TIP3    H222036   3.822   5.348   5.168
 7365TIP3   OH222037   7.580   1.021   5.769
 7365TIP3    H122038   7.506   1.079   5.790
 7365TIP3    H222039   7.556   0.981   5.685
 7366TIP3   OH222040   5.691   4.839   1.454
 7366TIP3    H122041   5.751   4.791   1.511
 7366TIP3    H222042   5.688   4.927   1.491
 7367TIP3   OH222043   4.791   5.649   0.247
 7367TIP3    H122044   4.702   5.613   0.251
 7367TIP3    H222045   4.847   5.580   0.283
 7368TIP3   OH222046   2.165   3.962   5.195
 7368TIP3    H122047   2.146   4.055   5.180
 7368TIP3    H222048   2.083   3.917   5.175
 7369TIP3   OH222049   7.400   1.640   4.634
 7369TIP3    H122050   7.488   1.603   4.626
 7369TIP3    H222051   7.349   1.596   4.566
 7370TIP3   OH222052   1.142   7.474   4.699
 7370TIP3    H122053   1.235   7.471   4.720
 7370TIP3    H222054   1.140   7.493   4.605
 7371TIP3   OH222055   3.481   7.087   3.881
 7371TIP3    H122056   3.543   7.022   3.914
 7371TIP3    H222057   3.405   7.078   3.938
 7372TIP3   OH222058   3.669   1.704   2.775
 7372TIP3    H122059   3.657   1.609   2.787
 7372TIP3    H222060   3.610   1.726   2.703
 7373TIP3   OH222061   4.678   0.457   1.448
 7373TIP3    H122062   4.722   0.388   1.398
 7373TIP3    H222063   4.601   0.480   1.396
 7374TIP3   OH222064   0.730   4.855   1.851
 7374TIP3    H122065   0.766   4.773   1.884
 7374TIP3    H222066   0.694   4.832   1.765
 7375TIP3   OH222067   7.765   0.082   0.941
 7375TIP3    H122068   7.825   0.141   0.896
 7375TIP3    H222069   7.678   0.109   0.909
 7376TIP3   OH222070   0.164   0.330   5.447
 7376TIP3    H122071   0.163   0.240   5.478
 7376TIP3    H222072   0.185   0.323   5.354
 7377TIP3   OH222073   3.808   4.553   1.274
 7377TIP3    H122074   3.782   4.555   1.182
 7377TIP3    H222075   3.730   4.580   1.322
 7378TIP3   OH222076   5.066   2.654   0.501
 7378TIP3    H122077   4.980   2.682   0.534
 7378TIP3    H222078   5.053   2.564   0.472
 7379TIP3   OH222079   0.392   6.694   5.535
 7379TIP3    H122080   0.394   6.779   5.579
 7379TIP3    H222081   0.399   6.630   5.605
 7380TIP3   OH222082   5.344   0.715   6.009
 7380TIP3    H122083   5.387   0.686   6.089
 7380TIP3    H222084   5.375   0.805   5.996
 7381TIP3   OH222085   6.423   0.442   6.682
 7381TIP3    H122086   6.379   0.369   6.724
 7381TIP3    H222087   6.448   0.500   6.754
 7382TIP3   OH222088   2.657   5.695   3.480
 7382TIP3    H122089   2.686   5.761   3.417
 7382TIP3    H222090   2.679   5.732   3.566
 7383TIP3   OH222091   2.732   6.131   4.933
 7383TIP3    H122092   2.684   6.083   5.001
 7383TIP3    H222093   2.741   6.219   4.968
 7384TIP3   OH222094   5.286   7.466   2.552
 7384TIP3    H122095   5.196   7.466   2.520
 7384TIP3    H222096   5.337   7.501   2.478
 7385TIP3   OH222097   4.504   6.076   3.811
 7385TIP3    H122098   4.536   5.994   3.848
 7385TIP3    H222099   4.449   6.049   3.737
 7386TIP3   OH222100   5.168   1.250   6.406
 7386TIP3    H122101   5.155   1.343   6.385
 7386TIP3    H222102   5.161   1.205   6.322
 7387TIP3   OH222103   5.712   6.516   6.000
 7387TIP3    H122104   5.667   6.433   6.008
 7387TIP3    H222105   5.686   6.565   6.078
 7388TIP3   OH222106   0.711   7.652   0.861
 7388TIP3    H122107   0.740   7.636   0.772
 7388TIP3    H222108   0.647   7.723   0.853
 7389TIP3   OH222109   5.985   0.525   6.240
 7389TIP3    H122110   5.940   0.513   6.156
 7389TIP3    H222111   6.069   0.481   6.228
 7390TIP3   OH222112   8.140   6.418   6.679
 7390TIP3    H122113   8.208   6.478   6.710
 7390TIP3    H222114   8.100   6.463   6.605
 7391TIP3   OH222115   3.500   4.107   5.785
 7391TIP3    H122116   3.429   4.088   5.722
 7391TIP3    H222117   3.455   4.115   5.869
 7392TIP3   OH222118   4.581   3.705   3.571
 7392TIP3    H122119   4.531   3.786   3.577
 7392TIP3    H222120   4.556   3.667   3.487
 7393TIP3   OH222121   7.699   3.692   5.522
 7393TIP3    H122122   7.637   3.639   5.572
 7393TIP3    H222123   7.783   3.678   5.566
 7394TIP3   OH222124   7.890   1.881   6.468
 7394TIP3    H122125   7.905   1.831   6.387
 7394TIP3    H222126   7.798   1.905   6.464
 7395TIP3   OH222127   7.817   4.028   2.174
 7395TIP3    H122128   7.871   4.099   2.139
 7395TIP3    H222129   7.780   4.064   2.254
 7396TIP3   OH222130   7.102   5.919   0.113
 7396TIP3    H122131   7.069   5.831   0.133
 7396TIP3    H222132   7.189   5.921   0.153
 7397TIP3   OH222133   6.821   3.591   3.778
 7397TIP3    H122134   6.726   3.589   3.775
 7397TIP3    H222135   6.849   3.557   3.693
 7398TIP3   OH222136   3.369   6.790   4.476
 7398TIP3    H122137   3.437   6.779   4.409
 7398TIP3    H222138   3.415   6.829   4.550
 7399TIP3   OH222139   6.448   5.095   5.938
 7399TIP3    H122140   6.423   5.099   5.846
 7399TIP3    H222141   6.540   5.120   5.939
 7400TIP3   OH222142   5.800   0.495   4.729
 7400TIP3    H122143   5.838   0.432   4.667
 7400TIP3    H222144   5.787   0.575   4.677
 7401TIP3   OH222145   4.950   4.236   4.881
 7401TIP3    H122146   4.952   4.317   4.829
 7401TIP3    H222147   4.923   4.168   4.819
 7402TIP3   OH222148   1.816   1.411   0.204
 7402TIP3    H122149   1.779   1.347   0.143
 7402TIP3    H222150   1.791   1.379   0.291
 7403TIP3   OH222151   6.439   0.222   3.602
 7403TIP3    H122152   6.381   0.204   3.528
 7403TIP3    H222153   6.514   0.268   3.564
 7404TIP3   OH222154   2.670   3.995   5.853
 7404TIP3    H122155   2.641   4.059   5.788
 7404TIP3    H222156   2.589   3.957   5.887
 7405TIP3   OH222157   2.709   6.441   4.782
 7405TIP3    H122158   2.724   6.465   4.874
 7405TIP3    H222159   2.618   6.414   4.779
 7406TIP3   OH222160   7.297   1.339   3.197
 7406TIP3    H122161   7.386   1.366   3.177
 7406TIP3    H222162   7.241   1.401   3.150
 7407TIP3   OH222163   5.143   0.636   1.265
 7407TIP3    H122164   5.207   0.582   1.310
 7407TIP3    H222165   5.184   0.722   1.259
 7408TIP3   OH222166   6.092   5.893   6.766
 7408TIP3    H122167   6.109   5.851   6.682
 7408TIP3    H222168   6.073   5.985   6.744
 7409TIP3   OH222169   6.884   7.635   5.870
 7409TIP3    H122170   6.796   7.665   5.847
 7409TIP3    H222171   6.914   7.695   5.938
 7410TIP3   OH222172   0.219   7.717   5.792
 7410TIP3    H122173   0.210   7.693   5.884
 7410TIP3    H222174   0.157   7.789   5.779
 7411TIP3   OH222175   7.335   3.205   1.407
 7411TIP3    H122176   7.262   3.229   1.464
 7411TIP3    H222177   7.367   3.122   1.443
 7412TIP3   OH222178   6.701   6.079   2.326
 7412TIP3    H122179   6.777   6.022   2.330
 7412TIP3    H222180   6.672   6.087   2.417
 7413TIP3   OH222181   8.273   3.091   0.050
 7413TIP3    H122182   8.308   3.128  -0.031
 7413TIP3    H222183   8.224   3.014   0.021
 7414TIP3   OH222184   7.613   4.835   4.176
 7414TIP3    H122185   7.642   4.863   4.263
 7414TIP3    H222186   7.646   4.746   4.168
 7415TIP3   OH222187   0.385   6.184   2.577
 7415TIP3    H122188   0.328   6.157   2.505
 7415TIP3    H222189   0.375   6.115   2.642
 7416TIP3   OH222190   2.045   5.024   5.079
 7416TIP3    H122191   2.025   5.038   4.987
 7416TIP3    H222192   2.126   5.073   5.094
 7417TIP3   OH222193   6.767   5.745   0.423
 7417TIP3    H122194   6.802   5.783   0.342
 7417TIP3    H222195   6.839   5.692   0.457
 7418TIP3   OH222196   0.437   3.146   6.497
 7418TIP3    H122197   0.389   3.224   6.470
 7418TIP3    H222198   0.529   3.172   6.490
 7419TIP3   OH222199   3.797   5.705   6.564
 7419TIP3    H122200   3.753   5.768   6.621
 7419TIP3    H222201   3.728   5.642   6.541
 7420TIP3   OH222202   1.508   1.319   5.279
 7420TIP3    H122203   1.507   1.332   5.374
 7420TIP3    H222204   1.595   1.349   5.252
 7421TIP3   OH222205   0.491   5.828   5.892
 7421TIP3    H122206   0.538   5.858   5.814
 7421TIP3    H222207   0.444   5.750   5.863
 7422TIP3   OH222208   5.881   3.553   1.472
 7422TIP3    H122209   5.942   3.559   1.546
 7422TIP3    H222210   5.927   3.499   1.408
 7423TIP3   OH222211   7.622   1.112   0.495
 7423TIP3    H122212   7.611   1.199   0.457
 7423TIP3    H222213   7.548   1.062   0.461
 7424TIP3   OH222214   7.558   1.282   6.495
 7424TIP3    H122215   7.542   1.208   6.436
 7424TIP3    H222216   7.605   1.244   6.569
 7425TIP3   OH222217   4.676   1.207   1.316
 7425TIP3    H122218   4.751   1.162   1.277
 7425TIP3    H222219   4.694   1.300   1.301
 7426TIP3   OH222220   6.061   6.494   6.740
 7426TIP3    H122221   6.087   6.585   6.727
 7426TIP3    H222222   6.140   6.451   6.773
 7427TIP3   OH222223   2.590   4.159   0.970
 7427TIP3    H122224   2.569   4.075   0.930
 7427TIP3    H222225   2.686   4.161   0.975
 7428TIP3   OH222226   7.413   5.560   4.163
 7428TIP3    H122227   7.389   5.650   4.141
 7428TIP3    H222228   7.482   5.538   4.099
 7429TIP3   OH222229   4.272   5.592   5.217
 7429TIP3    H122230   4.299   5.500   5.221
 7429TIP3    H222231   4.188   5.590   5.171
 7430TIP3   OH222232   7.971   5.325   5.558
 7430TIP3    H122233   7.900   5.322   5.494
 7430TIP3    H222234   8.006   5.236   5.560
 7431TIP3   OH222235   5.597   0.301   0.590
 7431TIP3    H122236   5.691   0.287   0.595
 7431TIP3    H222237   5.559   0.219   0.622
 7432TIP3   OH222238   4.064   7.178   2.813
 7432TIP3    H122239   4.150   7.158   2.849
 7432TIP3    H222240   4.074   7.168   2.718
 7433TIP3   OH222241   6.739   5.652   4.109
 7433TIP3    H122242   6.791   5.621   4.183
 7433TIP3    H222243   6.722   5.573   4.057
 7434TIP3   OH222244   2.891   1.820   0.320
 7434TIP3    H122245   2.850   1.808   0.405
 7434TIP3    H222246   2.826   1.788   0.257
 7435TIP3   OH222247   4.900   3.627   4.753
 7435TIP3    H122248   4.829   3.689   4.773
 7435TIP3    H222249   4.964   3.678   4.704
 7436TIP3   OH222250   5.947   0.915   4.347
 7436TIP3    H122251   5.982   0.854   4.282
 7436TIP3    H222252   5.969   1.002   4.312
 7437TIP3   OH222253   4.091   7.797   5.229
 7437TIP3    H122254   4.005   7.787   5.269
 7437TIP3    H222255   4.129   7.873   5.273
 7438TIP3   OH222256   7.210   5.936   3.243
 7438TIP3    H122257   7.265   6.010   3.268
 7438TIP3    H222258   7.272   5.867   3.220
 7439TIP3   OH222259   5.622   7.091   5.062
 7439TIP3    H122260   5.564   7.090   5.138
 7439TIP3    H222261   5.667   7.006   5.065
 7440TIP3   OH222262   7.840   0.314   3.057
 7440TIP3    H122263   7.763   0.359   3.092
 7440TIP3    H222264   7.817   0.296   2.966
 7441TIP3   OH222265   1.413   2.337   1.773
 7441TIP3    H122266   1.507   2.347   1.782
 7441TIP3    H222267   1.402   2.293   1.688
 7442TIP3   OH222268   6.985   0.541   4.015
 7442TIP3    H122269   6.988   0.551   4.110
 7442TIP3    H222270   6.899   0.502   3.998
 7443TIP3   OH222271   5.102   7.226   1.036
 7443TIP3    H122272   5.134   7.136   1.045
 7443TIP3    H222273   5.125   7.251   0.946
 7444TIP3   OH222274   4.654   7.432   0.916
 7444TIP3    H122275   4.716   7.390   0.974
 7444TIP3    H222276   4.697   7.433   0.831
 7445TIP3   OH222277   5.079   2.711   2.158
 7445TIP3    H122278   5.014   2.679   2.220
 7445TIP3    H222279   5.148   2.645   2.159
 7446TIP3   OH222280   3.352   0.096   6.677
 7446TIP3    H122281   3.418   0.120   6.612
 7446TIP3    H222282   3.318   0.181   6.708
 7447TIP3   OH222283   3.859   6.901   1.730
 7447TIP3    H122284   3.852   6.822   1.785
 7447TIP3    H222285   3.771   6.911   1.693
 7448TIP3   OH222286   6.383   7.326   2.128
 7448TIP3    H122287   6.407   7.343   2.219
 7448TIP3    H222288   6.424   7.242   2.107
 7449TIP3   OH222289   8.063   6.958   4.040
 7449TIP3    H122290   7.984   6.936   3.992
 7449TIP3    H222291   8.038   7.032   4.096
 7450TIP3   OH222292   0.486   6.626   6.037
 7450TIP3    H122293   0.494   6.690   6.107
 7450TIP3    H222294   0.554   6.651   5.974
 7451TIP3   OH222295   5.804   2.347   2.134
 7451TIP3    H122296   5.789   2.280   2.067
 7451TIP3    H222297   5.770   2.428   2.095
 7452TIP3   OH222298   3.186   4.347   0.382
 7452TIP3    H122299   3.134   4.409   0.434
 7452TIP3    H222300   3.132   4.330   0.305
 7453TIP3   OH222301   0.583   5.639   0.918
 7453TIP3    H122302   0.624   5.558   0.887
 7453TIP3    H222303   0.653   5.684   0.967
 7454TIP3   OH222304   7.440   6.519   6.606
 7454TIP3    H122305   7.488   6.519   6.688
 7454TIP3    H222306   7.360   6.568   6.626
 7455TIP3   OH222307   4.248   4.381   1.003
 7455TIP3    H122308   4.238   4.377   1.098
 7455TIP3    H222309   4.313   4.449   0.988
 7456TIP3   OH222310   0.535   1.652   5.740
 7456TIP3    H122311   0.494   1.639   5.655
 7456TIP3    H222312   0.507   1.577   5.793
 7457TIP3   OH222313   1.620   1.109   6.334
 7457TIP3    H122314   1.674   1.180   6.368
 7457TIP3    H222315   1.533   1.125   6.370
 7458TIP3   OH222316   4.816   3.816   5.010
 7458TIP3    H122317   4.828   3.732   5.053
 7458TIP3    H222318   4.905   3.847   4.992
 7459TIP3   OH222319   6.819   7.693   0.944
 7459TIP3    H122320   6.747   7.631   0.932
 7459TIP3    H222321   6.813   7.751   0.868
 7460TIP3   OH222322   2.004   0.456   5.491
 7460TIP3    H122323   1.921   0.473   5.446
 7460TIP3    H222324   2.065   0.433   5.420
 7461TIP3   OH222325   2.689   5.732   1.709
 7461TIP3    H122326   2.672   5.641   1.684
 7461TIP3    H222327   2.784   5.737   1.717
 7462TIP3   OH222328   1.634   3.171   4.494
 7462TIP3    H122329   1.643   3.249   4.440
 7462TIP3    H222330   1.694   3.107   4.456
 7463TIP3   OH222331   0.839   3.651   0.399
 7463TIP3    H122332   0.803   3.649   0.311
 7463TIP3    H222333   0.858   3.744   0.415
 7464TIP3   OH222334   6.241   7.171   0.325
 7464TIP3    H122335   6.169   7.221   0.287
 7464TIP3    H222336   6.296   7.147   0.250
 7465TIP3   OH222337   7.480   2.357   4.243
 7465TIP3    H122338   7.531   2.279   4.220
 7465TIP3    H222339   7.544   2.416   4.282
 7466TIP3   OH222340   6.197   1.410   1.012
 7466TIP3    H122341   6.193   1.363   0.929
 7466TIP3    H222342   6.234   1.495   0.990
 7467TIP3   OH222343   4.674   3.596   3.000
 7467TIP3    H122344   4.755   3.548   3.021
 7467TIP3    H222345   4.685   3.681   3.043
 7468TIP3   OH222346   6.196   2.675   4.229
 7468TIP3    H122347   6.178   2.696   4.137
 7468TIP3    H222348   6.109   2.670   4.269
 7469TIP3   OH222349   3.691   2.142   2.485
 7469TIP3    H122350   3.699   2.211   2.550
 7469TIP3    H222351   3.713   2.184   2.402
 7470TIP3   OH222352   4.815   6.461   5.651
 7470TIP3    H122353   4.794   6.456   5.558
 7470TIP3    H222354   4.886   6.398   5.663
 7471TIP3   OH222355   2.139   5.293   1.103
 7471TIP3    H122356   2.226   5.270   1.073
 7471TIP3    H222357   2.128   5.246   1.186
 7472TIP3   OH222358   2.818   5.662   1.189
 7472TIP3    H122359   2.761   5.602   1.141
 7472TIP3    H222360   2.775   5.675   1.273
 7473TIP3   OH222361   0.418   6.683   3.257
 7473TIP3    H122362   0.405   6.671   3.163
 7473TIP3    H222363   0.471   6.762   3.264
 7474TIP3   OH222364   0.342   5.578   2.434
 7474TIP3    H122365   0.259   5.619   2.460
 7474TIP3    H222366   0.323   5.484   2.433
 7475TIP3   OH222367   7.414   6.027   3.035
 7475TIP3    H122368   7.466   6.016   3.114
 7475TIP3    H222369   7.364   5.945   3.028
 7476TIP3   OH222370   3.851   5.108   0.357
 7476TIP3    H122371   3.935   5.152   0.350
 7476TIP3    H222372   3.869   5.017   0.334
 7477TIP3   OH222373   3.947   4.789   4.077
 7477TIP3    H122374   3.910   4.701   4.079
 7477TIP3    H222375   3.937   4.821   4.167
 7478TIP3   OH222376   0.200   0.340   6.434
 7478TIP3    H122377   0.287   0.305   6.449
 7478TIP3    H222378   0.211   0.402   6.361
 7479TIP3   OH222379   1.556   7.732   1.703
 7479TIP3    H122380   1.511   7.765   1.781
 7479TIP3    H222381   1.643   7.708   1.733
 7480TIP3   OH222382   4.809   1.884   5.801
 7480TIP3    H122383   4.898   1.865   5.770
 7480TIP3    H222384   4.764   1.800   5.794
 7481TIP3   OH222385   6.848   5.974   2.669
 7481TIP3    H122386   6.905   5.936   2.602
 7481TIP3    H222387   6.772   6.006   2.620
 7482TIP3   OH222388   5.103   0.828   0.776
 7482TIP3    H122389   5.053   0.784   0.846
 7482TIP3    H222390   5.037   0.878   0.728
 7483TIP3   OH222391   3.734   6.512   6.632
 7483TIP3    H122392   3.708   6.595   6.593
 7483TIP3    H222393   3.668   6.495   6.700
 7484TIP3   OH222394   2.122   1.515   6.399
 7484TIP3    H122395   2.149   1.578   6.333
 7484TIP3    H222396   2.029   1.500   6.382
 7485TIP3   OH222397   1.124   2.426   1.021
 7485TIP3    H122398   1.099   2.333   1.020
 7485TIP3    H222399   1.207   2.427   1.068
 7486TIP3   OH222400   1.170   6.429   6.002
 7486TIP3    H122401   1.104   6.418   5.934
 7486TIP3    H222402   1.181   6.523   6.010
 7487TIP3   OH222403   0.808   1.497   1.354
 7487TIP3    H122404   0.884   1.443   1.333
 7487TIP3    H222405   0.737   1.435   1.366
 7488TIP3   OH222406   5.302   4.918   5.613
 7488TIP3    H122407   5.350   4.932   5.695
 7488TIP3    H222408   5.361   4.950   5.545
 7489TIP3   OH222409   4.014   1.092   0.753
 7489TIP3    H122410   3.994   1.119   0.843
 7489TIP3    H222411   3.931   1.056   0.721
 7490TIP3   OH222412   1.592   4.762   2.487
 7490TIP3    H122413   1.582   4.693   2.421
 7490TIP3    H222414   1.682   4.752   2.518
 7491TIP3   OH222415   7.946   5.621   3.759
 7491TIP3    H122416   7.950   5.622   3.855
 7491TIP3    H222417   8.031   5.587   3.732
 7492TIP3   OH222418   1.948   6.621   1.434
 7492TIP3    H122419   2.039   6.615   1.463
 7492TIP3    H222420   1.900   6.562   1.491
 7493TIP3   OH222421   3.228   3.161   1.130
 7493TIP3    H122422   3.234   3.252   1.101
 7493TIP3    H222423   3.289   3.114   1.074
 7494TIP3   OH222424   6.195   4.638   1.903
 7494TIP3    H122425   6.267   4.695   1.876
 7494TIP3    H222426   6.126   4.655   1.839
 7495TIP3   OH222427   1.893   2.993   1.371
 7495TIP3    H122428   1.815   2.981   1.424
 7495TIP3    H222429   1.879   3.075   1.324
 7496TIP3   OH222430  -0.022   6.470   4.138
 7496TIP3    H122431   0.028   6.503   4.063
 7496TIP3    H222432   0.042   6.465   4.209
 7497TIP3   OH222433   4.311   6.754   1.102
 7497TIP3    H122434   4.303   6.770   1.196
 7497TIP3    H222435   4.223   6.731   1.073
 7498TIP3   OH222436   2.662   7.504   5.621
 7498TIP3    H122437   2.747   7.518   5.579
 7498TIP3    H222438   2.655   7.575   5.684
 7499TIP3   OH222439   3.842   2.690   2.425
 7499TIP3    H122440   3.789   2.705   2.346
 7499TIP3    H222441   3.810   2.755   2.487
 7500TIP3   OH222442   5.124   3.471   6.447
 7500TIP3    H122443   5.036   3.435   6.431
 7500TIP3    H222444   5.163   3.475   6.360
 7501TIP3   OH222445   1.024   0.598   5.821
 7501TIP3    H122446   1.028   0.511   5.861
 7501TIP3    H222447   0.943   0.637   5.855
 7502TIP3   OH222448   2.479   6.034   0.867
 7502TIP3    H122449   2.532   5.956   0.850
 7502TIP3    H222450   2.441   6.018   0.954
 7503TIP3   OH222451   4.569   7.387   5.704
 7503TIP3    H122452   4.555   7.311   5.648
 7503TIP3    H222453   4.481   7.413   5.732
 7504TIP3   OH222454   7.281   1.473   0.743
 7504TIP3    H122455   7.240   1.518   0.817
 7504TIP3    H222456   7.261   1.528   0.667
 7505TIP3   OH222457   8.023   4.662   5.807
 7505TIP3    H122458   7.969   4.651   5.728
 7505TIP3    H222459   7.994   4.590   5.864
 7506TIP3   OH222460   3.903   4.233   3.551
 7506TIP3    H122461   3.945   4.315   3.574
 7506TIP3    H222462   3.810   4.254   3.545
 7507TIP3   OH222463   8.143   1.541   5.747
 7507TIP3    H122464   8.193   1.615   5.711
 7507TIP3    H222465   8.072   1.528   5.684
 7508TIP3   OH222466   4.093   3.699   6.293
 7508TIP3    H122467   4.095   3.772   6.231
 7508TIP3    H222468   4.087   3.742   6.379
 7509TIP3   OH222469   0.222   6.637   4.378
 7509TIP3    H122470   0.245   6.606   4.290
 7509TIP3    H222471   0.168   6.714   4.364
 7510TIP3   OH222472   7.408   5.596   4.944
 7510TIP3    H122473   7.421   5.552   4.860
 7510TIP3    H222474   7.388   5.687   4.922
 7511TIP3   OH222475   1.774   6.283   3.751
 7511TIP3    H122476   1.759   6.222   3.679
 7511TIP3    H222477   1.856   6.253   3.791
 7512TIP3   OH222478   0.426   6.955   4.406
 7512TIP3    H122479   0.433   6.971   4.312
 7512TIP3    H222480   0.335   6.927   4.419
 7513TIP3   OH222481   2.154   1.666   1.402
 7513TIP3    H122482   2.150   1.758   1.376
 7513TIP3    H222483   2.189   1.621   1.325
 7514TIP3   OH222484   2.199   3.907   0.700
 7514TIP3    H122485   2.174   3.967   0.771
 7514TIP3    H222486   2.155   3.825   0.722
 7515TIP3   OH222487   2.362   6.405   4.600
 7515TIP3    H122488   2.404   6.412   4.686
 7515TIP3    H222489   2.342   6.311   4.591
 7516TIP3   OH222490   0.117   2.266   5.790
 7516TIP3    H122491   0.187   2.320   5.826
 7516TIP3    H222492   0.149   2.237   5.705
 7517TIP3   OH222493   3.247   4.319   3.383
 7517TIP3    H122494   3.271   4.226   3.371
 7517TIP3    H222495   3.253   4.355   3.294
 7518TIP3   OH222496   7.689   5.996   1.539
 7518TIP3    H122497   7.738   5.937   1.596
 7518TIP3    H222498   7.721   6.083   1.561
 7519TIP3   OH222499   2.805   5.316   2.484
 7519TIP3    H122500   2.842   5.252   2.423
 7519TIP3    H222501   2.868   5.388   2.485
 7520TIP3   OH222502   4.501   3.559   3.372
 7520TIP3    H122503   4.508   3.468   3.341
 7520TIP3    H222504   4.406   3.574   3.378
 7521TIP3   OH222505   5.567   5.322   5.436
 7521TIP3    H122506   5.516   5.304   5.357
 7521TIP3    H222507   5.655   5.290   5.415
 7522TIP3   OH222508   0.121   1.679   2.212
 7522TIP3    H122509   0.191   1.693   2.276
 7522TIP3    H222510   0.139   1.742   2.142
 7523TIP3   OH222511   7.833   4.158   1.089
 7523TIP3    H122512   7.922   4.192   1.103
 7523TIP3    H222513   7.778   4.209   1.149
 7524TIP3   OH222514   3.568   0.903   3.337
 7524TIP3    H122515   3.597   0.844   3.267
 7524TIP3    H222516   3.623   0.879   3.412
 7525TIP3   OH222517   0.159   1.382   2.242
 7525TIP3    H122518   0.210   1.310   2.205
 7525TIP3    H222519   0.158   1.449   2.174
 7526TIP3   OH222520   3.039   1.499   0.741
 7526TIP3    H122521   2.945   1.482   0.728
 7526TIP3    H222522   3.082   1.417   0.716
 7527TIP3   OH222523   7.936   4.195   3.463
 7527TIP3    H122524   7.997   4.129   3.494
 7527TIP3    H222525   7.952   4.272   3.517
 7528TIP3   OH222526   5.803   4.334   5.729
 7528TIP3    H122527   5.782   4.343   5.821
 7528TIP3    H222528   5.858   4.256   5.724
 7529TIP3   OH222529   2.323   7.606   5.667
 7529TIP3    H122530   2.245   7.599   5.722
 7529TIP3    H222531   2.299   7.670   5.601
 7530TIP3   OH222532   2.550   1.510   6.406
 7530TIP3    H122533   2.558   1.605   6.393
 7530TIP3    H222534   2.478   1.484   6.349
 7531TIP3   OH222535   7.797   0.476   6.173
 7531TIP3    H122536   7.797   0.414   6.246
 7531TIP3    H222537   7.810   0.421   6.096
 7532TIP3   OH222538   7.343   4.012   5.771
 7532TIP3    H122539   7.330   4.069   5.847
 7532TIP3    H222540   7.293   3.933   5.791
 7533TIP3   OH222541   7.096   6.521   3.344
 7533TIP3    H122542   7.144   6.592   3.301
 7533TIP3    H222543   7.056   6.473   3.272
 7534TIP3   OH222544   7.701   3.064   0.667
 7534TIP3    H122545   7.780   3.116   0.655
 7534TIP3    H222546   7.716   2.985   0.615
 7535TIP3   OH222547   7.664   7.416   0.229
 7535TIP3    H122548   7.736   7.446   0.285
 7535TIP3    H222549   7.617   7.496   0.205
 7536TIP3   OH222550   3.263   4.256   4.641
 7536TIP3    H122551   3.317   4.233   4.565
 7536TIP3    H222552   3.320   4.309   4.697
 7537TIP3   OH222553   5.401   2.335   1.904
 7537TIP3    H122554   5.307   2.339   1.890
 7537TIP3    H222555   5.427   2.248   1.872
 7538TIP3   OH222556   1.411   7.641   1.247
 7538TIP3    H122557   1.392   7.734   1.236
 7538TIP3    H222558   1.507   7.637   1.248
 7539TIP3   OH222559   2.441   5.361   4.863
 7539TIP3    H122560   2.476   5.388   4.948
 7539TIP3    H222561   2.451   5.265   4.862
 7540TIP3   OH222562   4.181   4.598   4.134
 7540TIP3    H122563   4.096   4.615   4.175
 7540TIP3    H222564   4.242   4.656   4.179
 7541TIP3   OH222565   4.473   5.342   4.942
 7541TIP3    H122566   4.509   5.343   5.031
 7541TIP3    H222567   4.489   5.252   4.911
 7542TIP3   OH222568   0.313   6.744   2.552
 7542TIP3    H122569   0.313   6.660   2.598
 7542TIP3    H222570   0.378   6.796   2.598
 7543TIP3   OH222571   3.557   7.731   0.151
 7543TIP3    H122572   3.484   7.793   0.149
 7543TIP3    H222573   3.520   7.650   0.116
 7544TIP3   OH222574   7.033   6.569   5.012
 7544TIP3    H122575   7.021   6.575   4.917
 7544TIP3    H222576   6.963   6.509   5.040
 7545TIP3   OH222577   7.974   2.838   0.889
 7545TIP3    H122578   7.923   2.775   0.838
 7545TIP3    H222579   8.054   2.790   0.913
 7546TIP3   OH222580   0.560   7.449   0.050
 7546TIP3    H122581   0.620   7.445  -0.025
 7546TIP3    H222582   0.489   7.389   0.026
 7547TIP3   OH222583   7.059   7.070   6.205
 7547TIP3    H122584   6.992   7.052   6.271
 7547TIP3    H222585   7.133   7.104   6.255
 7548TIP3   OH222586   2.846   7.034   6.101
 7548TIP3    H122587   2.931   7.045   6.144
 7548TIP3    H222588   2.864   7.050   6.008
 7549TIP3   OH222589   0.864   5.272   4.357
 7549TIP3    H122590   0.899   5.347   4.406
 7549TIP3    H222591   0.882   5.197   4.414
 7550TIP3   OH222592   6.777   6.271   2.668
 7550TIP3    H122593   6.779   6.184   2.627
 7550TIP3    H222594   6.707   6.266   2.733
 7551TIP3   OH222595   1.016   2.230   5.473
 7551TIP3    H122596   0.923   2.227   5.494
 7551TIP3    H222597   1.061   2.217   5.557
 7552TIP3   OH222598   1.458   6.381   1.057
 7552TIP3    H122599   1.474   6.322   1.130
 7552TIP3    H222600   1.378   6.428   1.081
 7553TIP3   OH222601   2.539   6.373   5.489
 7553TIP3    H122602   2.550   6.405   5.579
 7553TIP3    H222603   2.445   6.371   5.476
 7554TIP3   OH222604   3.361  -0.017   4.571
 7554TIP3    H122605   3.452   0.010   4.584
 7554TIP3    H222606   3.310   0.057   4.602
 7555TIP3   OH222607   5.809   7.198   5.586
 7555TIP3    H122608   5.892   7.208   5.632
 7555TIP3    H222609   5.773   7.115   5.617
 7556TIP3   OH222610   2.266   4.367   0.288
 7556TIP3    H122611   2.266   4.384   0.382
 7556TIP3    H222612   2.321   4.436   0.252
 7557TIP3   OH222613   0.324   5.900   1.000
 7557TIP3    H122614   0.319   5.885   1.094
 7557TIP3    H222615   0.373   5.982   0.991
 7558TIP3   OH222616   3.345   1.202   5.619
 7558TIP3    H122617   3.437   1.217   5.641
 7558TIP3    H222618   3.346   1.131   5.555
 7559TIP3   OH222619   5.558   6.110   1.776
 7559TIP3    H122620   5.493   6.093   1.708
 7559TIP3    H222621   5.525   6.188   1.821
 7560TIP3   OH222622   1.002   2.766   1.891
 7560TIP3    H122623   0.939   2.830   1.859
 7560TIP3    H222624   1.059   2.749   1.816
 7561TIP3   OH222625   4.111   5.229   1.895
 7561TIP3    H122626   4.047   5.202   1.829
 7561TIP3    H222627   4.076   5.309   1.932
 7562TIP3   OH222628   7.189   5.126   2.885
 7562TIP3    H122629   7.109   5.127   2.938
 7562TIP3    H222630   7.253   5.173   2.938
 7563TIP3   OH222631   4.231   5.571   5.729
 7563TIP3    H122632   4.264   5.562   5.818
 7563TIP3    H222633   4.287   5.639   5.690
 7564TIP3   OH222634   1.815   5.571   4.803
 7564TIP3    H122635   1.734   5.558   4.853
 7564TIP3    H222636   1.826   5.490   4.754
 7565TIP3   OH222637   5.271   3.315   3.962
 7565TIP3    H122638   5.211   3.383   3.930
 7565TIP3    H222639   5.218   3.236   3.965
 7566TIP3   OH222640   6.851   6.025   4.755
 7566TIP3    H122641   6.907   6.090   4.797
 7566TIP3    H222642   6.762   6.049   4.782
 7567TIP3   OH222643   5.370   3.382  -0.009
 7567TIP3    H122644   5.300   3.444   0.009
 7567TIP3    H222645   5.445   3.416   0.040
 7568TIP3   OH222646   4.436   2.288   1.562
 7568TIP3    H122647   4.366   2.339   1.602
 7568TIP3    H222648   4.395   2.205   1.538
 7569TIP3   OH222649   4.036   0.036   6.312
 7569TIP3    H122650   3.992   0.062   6.231
 7569TIP3    H222651   4.125   0.013   6.285
 7570TIP3   OH222652   3.525   6.115   5.736
 7570TIP3    H122653   3.435   6.102   5.704
 7570TIP3    H222654   3.576   6.129   5.657
 7571TIP3   OH222655   2.484   6.355   3.983
 7571TIP3    H122656   2.555   6.341   3.921
 7571TIP3    H222657   2.416   6.294   3.955
 7572TIP3   OH222658   3.623   4.165   5.035
 7572TIP3    H122659   3.546   4.222   5.025
 7572TIP3    H222660   3.684   4.217   5.086
 7573TIP3   OH222661   0.359   6.419   0.210
 7573TIP3    H122662   0.289   6.444   0.150
 7573TIP3    H222663   0.411   6.499   0.221
 7574TIP3   OH222664   5.336   6.870   5.948
 7574TIP3    H122665   5.265   6.847   6.008
 7574TIP3    H222666   5.334   6.801   5.881
 7575TIP3   OH222667   4.096   2.144   0.364
 7575TIP3    H122668   4.024   2.085   0.389
 7575TIP3    H222669   4.090   2.150   0.269
 7576TIP3   OH222670   7.391   6.093   0.438
 7576TIP3    H122671   7.318   6.155   0.440
 7576TIP3    H222672   7.381   6.041   0.518
 7577TIP3   OH222673   1.866   6.479   3.156
 7577TIP3    H122674   1.886   6.572   3.150
 7577TIP3    H222675   1.861   6.461   3.250
 7578TIP3   OH222676   3.816   5.477   0.889
 7578TIP3    H122677   3.866   5.422   0.829
 7578TIP3    H222678   3.877   5.495   0.961
 7579TIP3   OH222679   3.182   7.771   5.291
 7579TIP3    H122680   3.182   7.859   5.256
 7579TIP3    H222681   3.100   7.732   5.260
 7580TIP3   OH222682   2.582   2.140   0.056
 7580TIP3    H122683   2.552   2.185  -0.022
 7580TIP3    H222684   2.622   2.059   0.024
 7581TIP3   OH222685   2.084   2.847   1.626
 7581TIP3    H122686   2.027   2.879   1.697
 7581TIP3    H222687   2.151   2.795   1.670
 7582TIP3   OH222688   6.543   2.201   0.791
 7582TIP3    H122689   6.456   2.174   0.822
 7582TIP3    H222690   6.600   2.189   0.867
 7583TIP3   OH222691   0.832   1.299   2.742
 7583TIP3    H122692   0.897   1.257   2.685
 7583TIP3    H222693   0.884   1.347   2.807
 7584TIP3   OH222694   4.223   3.173   1.710
 7584TIP3    H122695   4.202   3.086   1.744
 7584TIP3    H222696   4.300   3.200   1.760
 7585TIP3   OH222697   7.692   3.041   0.946
 7585TIP3    H122698   7.702   3.131   0.977
 7585TIP3    H222699   7.704   3.047   0.851
 7586TIP3   OH222700   6.722   0.294   0.871
 7586TIP3    H122701   6.735   0.229   0.802
 7586TIP3    H222702   6.679   0.367   0.828
 7587TIP3   OH222703   2.166   6.103   6.399
 7587TIP3    H122704   2.227   6.055   6.344
 7587TIP3    H222705   2.089   6.115   6.344
 7588TIP3   OH222706   5.913   1.912   1.944
 7588TIP3    H122707   5.875   1.834   1.984
 7588TIP3    H222708   5.987   1.935   2.000
 7589TIP3   OH222709   6.416   0.543   1.507
 7589TIP3    H122710   6.423   0.467   1.448
 7589TIP3    H222711   6.476   0.523   1.579
 7590TIP3   OH222712   4.241   7.610   1.303
 7590TIP3    H122713   4.292   7.534   1.274
 7590TIP3    H222714   4.203   7.583   1.386
 7591TIP3   OH222715   3.980   4.655   0.441
 7591TIP3    H122716   3.953   4.726   0.383
 7591TIP3    H222717   3.971   4.576   0.387
 7592TIP3   OH222718   2.673   4.750   1.433
 7592TIP3    H122719   2.696   4.831   1.388
 7592TIP3    H222720   2.634   4.695   1.364
 7593TIP3   OH222721   1.247   5.627   6.616
 7593TIP3    H122722   1.210   5.587   6.537
 7593TIP3    H222723   1.340   5.638   6.596
 7594TIP3   OH222724   3.943   0.358   6.279
 7594TIP3    H122725   3.886   0.435   6.287
 7594TIP3    H222726   3.906   0.309   6.206
 7595TIP3   OH222727   7.413   0.113   2.263
 7595TIP3    H122728   7.329   0.075   2.238
 7595TIP3    H222729   7.397   0.154   2.348
 7596TIP3   OH222730   7.571   0.133   6.431
 7596TIP3    H122731   7.546   0.193   6.361
 7596TIP3    H222732   7.561   0.183   6.512
 7597TIP3   OH222733   1.805   3.074   1.764
 7597TIP3    H122734   1.752   3.092   1.841
 7597TIP3    H222735   1.832   2.982   1.775
 7598TIP3   OH222736   6.320   1.230   0.453
 7598TIP3    H122737   6.245   1.279   0.419
 7598TIP3    H222738   6.395   1.264   0.404
 7599TIP3   OH222739   2.316   2.000   5.333
 7599TIP3    H122740   2.227   1.965   5.320
 7599TIP3    H222741   2.362   1.931   5.381
 7600TIP3   OH222742   6.933   7.110   1.475
 7600TIP3    H122743   7.003   7.088   1.414
 7600TIP3    H222744   6.978   7.142   1.553
 7601TIP3   OH222745   1.718   0.454   1.446
 7601TIP3    H122746   1.751   0.373   1.483
 7601TIP3    H222747   1.764   0.464   1.363
 7602TIP3   OH222748   6.070   3.574   2.555
 7602TIP3    H122749   6.056   3.528   2.473
 7602TIP3    H222750   6.085   3.665   2.530
 7603TIP3   OH222751   3.228   3.504   2.395
 7603TIP3    H122752   3.231   3.599   2.381
 7603TIP3    H222753   3.174   3.493   2.473
 7604TIP3   OH222754   2.071   7.660   2.099
 7604TIP3    H122755   2.086   7.752   2.078
 7604TIP3    H222756   2.012   7.662   2.174
 7605TIP3   OH222757   0.149   1.088   0.905
 7605TIP3    H122758   0.234   1.044   0.910
 7605TIP3    H222759   0.106   1.065   0.988
 7606TIP3   OH222760   6.250   1.428   2.832
 7606TIP3    H122761   6.199   1.425   2.913
 7606TIP3    H222762   6.283   1.339   2.821
 7607TIP3   OH222763   3.087   2.149   4.169
 7607TIP3    H122764   3.173   2.185   4.191
 7607TIP3    H222765   3.081   2.069   4.222
 7608TIP3   OH222766   3.494   4.690   3.801
 7608TIP3    H122767   3.524   4.600   3.817
 7608TIP3    H222768   3.501   4.702   3.707
 7609TIP3   OH222769   6.970   0.680   1.169
 7609TIP3    H122770   6.988   0.774   1.172
 7609TIP3    H222771   6.891   0.672   1.116
 7610TIP3   OH222772   5.068   0.438   5.972
 7610TIP3    H122773   5.044   0.526   5.943
 7610TIP3    H222774   5.047   0.381   5.898
 7611TIP3   OH222775   7.563   7.608   6.101
 7611TIP3    H122776   7.649   7.624   6.061
 7611TIP3    H222777   7.577   7.533   6.159
 7612TIP3   OH222778   6.990   7.184   0.086
 7612TIP3    H122779   7.035   7.269   0.078
 7612TIP3    H222780   6.962   7.180   0.177
 7613TIP3   OH222781   4.062   0.534   5.525
 7613TIP3    H122782   4.000   0.542   5.598
 7613TIP3    H222783   4.070   0.439   5.511
 7614TIP3   OH222784   5.711   5.164   4.762
 7614TIP3    H122785   5.745   5.226   4.825
 7614TIP3    H222786   5.681   5.218   4.689
 7615TIP3   OH222787   8.143   5.755   5.708
 7615TIP3    H122788   8.082   5.684   5.730
 7615TIP3    H222789   8.099   5.804   5.639
 7616TIP3   OH222790   7.711   2.577   1.347
 7616TIP3    H122791   7.639   2.617   1.396
 7616TIP3    H222792   7.787   2.631   1.367
 7617TIP3   OH222793   5.316   3.275   5.086
 7617TIP3    H122794   5.342   3.189   5.053
 7617TIP3    H222795   5.284   3.258   5.174
 7618TIP3   OH222796   4.311   5.367   4.113
 7618TIP3    H122797   4.222   5.396   4.130
 7618TIP3    H222798   4.336   5.318   4.191
 7619TIP3   OH222799   0.851   1.757   6.035
 7619TIP3    H122800   0.861   1.816   6.110
 7619TIP3    H222801   0.858   1.813   5.958
 7620TIP3   OH222802   2.149   7.073   5.800
 7620TIP3    H122803   2.068   7.069   5.749
 7620TIP3    H222804   2.128   7.127   5.876
 7621TIP3   OH222805   0.184   1.566   4.809
 7621TIP3    H122806   0.217   1.636   4.752
 7621TIP3    H222807   0.203   1.485   4.761
 7622TIP3   OH222808   7.610   3.972   4.601
 7622TIP3    H122809   7.670   4.037   4.639
 7622TIP3    H222810   7.604   3.904   4.668
 7623TIP3   OH222811   8.167   7.707   2.441
 7623TIP3    H122812   8.138   7.677   2.527
 7623TIP3    H222813   8.228   7.778   2.460
 7624TIP3   OH222814   7.733   3.762   4.433
 7624TIP3    H122815   7.719   3.823   4.506
 7624TIP3    H222816   7.660   3.779   4.374
 7625TIP3   OH222817   0.378   2.417   0.960
 7625TIP3    H122818   0.438   2.397   0.888
 7625TIP3    H222819   0.306   2.355   0.949
 7626TIP3   OH222820   5.774   3.473   3.633
 7626TIP3    H122821   5.766   3.544   3.697
 7626TIP3    H222822   5.692   3.474   3.586
 7627TIP3   OH222823   6.647   1.142   1.915
 7627TIP3    H122824   6.574   1.082   1.930
 7627TIP3    H222825   6.657   1.144   1.820
 7628TIP3   OH222826   5.964   6.936   5.269
 7628TIP3    H122827   5.927   6.904   5.187
 7628TIP3    H222828   6.016   6.863   5.302
 7629TIP3   OH222829   3.855   1.202   5.456
 7629TIP3    H122830   3.890   1.239   5.537
 7629TIP3    H222831   3.782   1.260   5.433
 7630TIP3   OH222832   1.755   2.072   6.114
 7630TIP3    H122833   1.847   2.063   6.091
 7630TIP3    H222834   1.739   2.166   6.111
 7631TIP3   OH222835   3.595   7.437   5.337
 7631TIP3    H122836   3.557   7.493   5.270
 7631TIP3    H222837   3.573   7.348   5.309
 7632TIP3   OH222838   3.027   5.560   1.034
 7632TIP3    H122839   3.037   5.613   0.954
 7632TIP3    H222840   2.943   5.589   1.071
 7633TIP3   OH222841   1.393   2.861   2.531
 7633TIP3    H122842   1.416   2.773   2.502
 7633TIP3    H222843   1.301   2.855   2.556
 7634TIP3   OH222844   0.179   1.598   6.741
 7634TIP3    H122845   0.260   1.597   6.792
 7634TIP3    H222846   0.179   1.515   6.693
 7635TIP3   OH222847   0.238   1.887   6.094
 7635TIP3    H122848   0.182   1.909   6.020
 7635TIP3    H222849   0.179   1.853   6.160
 7636TIP3   OH222850   8.223   3.712   3.451
 7636TIP3    H122851   8.236   3.650   3.523
 7636TIP3    H222852   8.305   3.707   3.401
 7637TIP3   OH222853   1.250   7.049   3.774
 7637TIP3    H122854   1.199   6.974   3.747
 7637TIP3    H222855   1.187   7.109   3.813
 7638TIP3   OH222856   1.633   1.271   2.474
 7638TIP3    H122857   1.660   1.203   2.536
 7638TIP3    H222858   1.715   1.303   2.436
 7639TIP3   OH222859   7.354   0.802   6.683
 7639TIP3    H122860   7.447   0.805   6.706
 7639TIP3    H222861   7.354   0.798   6.587
 7640TIP3   OH222862   4.154   4.018   3.660
 7640TIP3    H122863   4.171   4.112   3.667
 7640TIP3    H222864   4.060   4.010   3.668
 7641TIP3   OH222865   5.881   7.339   4.397
 7641TIP3    H122866   5.965   7.381   4.417
 7641TIP3    H222867   5.821   7.373   4.464
 7642TIP3   OH222868   4.647   0.712   2.512
 7642TIP3    H122869   4.704   0.763   2.570
 7642TIP3    H222870   4.607   0.778   2.455
 7643TIP3   OH222871   7.784   5.513   1.078
 7643TIP3    H122872   7.791   5.515   0.982
 7643TIP3    H222873   7.804   5.423   1.102
 7644TIP3   OH222874   1.121   2.772   6.031
 7644TIP3    H122875   1.105   2.682   6.060
 7644TIP3    H222876   1.034   2.809   6.020
 7645TIP3   OH222877   4.213  -0.001   6.763
 7645TIP3    H122878   4.287   0.034   6.714
 7645TIP3    H222879   4.140   0.000   6.701
 7646TIP3   OH222880   3.213   4.216   3.032
 7646TIP3    H122881   3.173   4.164   2.962
 7646TIP3    H222882   3.307   4.202   3.022
 7647TIP3   OH222883   6.928   0.143   1.692
 7647TIP3    H122884   6.938   0.205   1.764
 7647TIP3    H222885   6.995   0.168   1.629
 7648TIP3   OH222886   4.434   0.898   2.812
 7648TIP3    H122887   4.448   0.905   2.907
 7648TIP3    H222888   4.479   0.818   2.787
 7649TIP3   OH222889   7.078   0.480   6.478
 7649TIP3    H122890   7.099   0.387   6.483
 7649TIP3    H222891   7.059   0.495   6.386
 7650TIP3   OH222892   5.257   0.029   3.930
 7650TIP3    H122893   5.318   0.028   3.856
 7650TIP3    H222894   5.313   0.045   4.006
 7651TIP3   OH222895   0.105   7.543   4.754
 7651TIP3    H122896   0.149   7.624   4.778
 7651TIP3    H222897   0.146   7.476   4.809
 7652TIP3   OH222898   3.514   6.529   2.026
 7652TIP3    H122899   3.555   6.588   2.089
 7652TIP3    H222900   3.421   6.529   2.050
 7653TIP3   OH222901   0.772   4.818   4.639
 7653TIP3    H122902   0.748   4.769   4.718
 7653TIP3    H222903   0.834   4.761   4.593
 7654TIP3   OH222904   8.222   5.056   6.348
 7654TIP3    H122905   8.219   5.132   6.289
 7654TIP3    H222906   8.274   5.086   6.423
 7655TIP3   OH222907   2.411   3.561   0.524
 7655TIP3    H122908   2.377   3.611   0.450
 7655TIP3    H222909   2.348   3.489   0.535
 7656TIP3   OH222910   6.746   3.664   6.126
 7656TIP3    H122911   6.821   3.661   6.185
 7656TIP3    H222912   6.681   3.717   6.172
 7657TIP3   OH222913   0.548   1.223   5.364
 7657TIP3    H122914   0.571   1.253   5.451
 7657TIP3    H222915   0.631   1.215   5.318
 7658TIP3   OH222916   7.237   2.025   4.125
 7658TIP3    H122917   7.205   1.935   4.128
 7658TIP3    H222918   7.287   2.031   4.044
 7659TIP3   OH222919   5.870   6.446   0.322
 7659TIP3    H122920   5.831   6.531   0.340
 7659TIP3    H222921   5.829   6.387   0.386
 7660TIP3   OH222922   4.519   4.423   5.378
 7660TIP3    H122923   4.524   4.506   5.331
 7660TIP3    H222924   4.560   4.440   5.462
 7661TIP3   OH222925   0.137   0.827   6.014
 7661TIP3    H122926   0.099   0.885   6.081
 7661TIP3    H222927   0.207   0.878   5.974
 7662TIP3   OH222928   0.042   4.146   2.855
 7662TIP3    H122929   0.128   4.180   2.880
 7662TIP3    H222930   0.010   4.208   2.789
 7663TIP3   OH222931   1.285   6.500   1.522
 7663TIP3    H122932   1.230   6.573   1.494
 7663TIP3    H222933   1.283   6.439   1.448
 7664TIP3   OH222934   3.650   2.281   5.524
 7664TIP3    H122935   3.674   2.194   5.493
 7664TIP3    H222936   3.612   2.324   5.447
 7665TIP3   OH222937   0.559   0.880   5.913
 7665TIP3    H122938   0.514   0.964   5.900
 7665TIP3    H222939   0.500   0.815   5.876
 7666TIP3   OH222940   0.191   3.517   4.661
 7666TIP3    H122941   0.189   3.612   4.673
 7666TIP3    H222942   0.106   3.495   4.624
 7667TIP3   OH222943   2.042   7.510   2.700
 7667TIP3    H122944   2.107   7.483   2.765
 7667TIP3    H222945   2.080   7.482   2.616
 7668TIP3   OH222946   2.300   3.411   1.043
 7668TIP3    H122947   2.308   3.318   1.064
 7668TIP3    H222948   2.216   3.419   0.997
 7669TIP3   OH222949   7.372   0.235   1.069
 7669TIP3    H122950   7.377   0.285   1.151
 7669TIP3    H222951   7.341   0.149   1.095
 7670TIP3   OH222952   6.061   5.811   2.785
 7670TIP3    H122953   6.036   5.748   2.853
 7670TIP3    H222954   6.025   5.775   2.704
 7671TIP3   OH222955   8.178   6.850   2.557
 7671TIP3    H122956   8.104   6.872   2.615
 7671TIP3    H222957   8.246   6.912   2.582
 7672TIP3   OH222958   2.638   7.368   2.497
 7672TIP3    H122959   2.660   7.281   2.529
 7672TIP3    H222960   2.722   7.408   2.475
 7673TIP3   OH222961   3.947   1.773   4.574
 7673TIP3    H122962   4.004   1.850   4.576
 7673TIP3    H222963   3.922   1.764   4.482
 7674TIP3   OH222964   7.898   4.546   1.122
 7674TIP3    H122965   7.992   4.528   1.118
 7674TIP3    H222966   7.858   4.461   1.137
 7675TIP3   OH222967   7.253   2.792   5.444
 7675TIP3    H122968   7.234   2.707   5.405
 7675TIP3    H222969   7.344   2.809   5.421
 7676TIP3   OH222970   1.751   1.360   1.169
 7676TIP3    H122971   1.758   1.275   1.213
 7676TIP3    H222972   1.795   1.348   1.085
 7677TIP3   OH222973   3.921   6.609   1.822
 7677TIP3    H122974   3.940   6.626   1.914
 7677TIP3    H222975   3.830   6.579   1.820
 7678TIP3   OH222976   7.751   3.553   4.797
 7678TIP3    H122977   7.674   3.590   4.752
 7678TIP3    H222978   7.757   3.603   4.878
 7679TIP3   OH222979   3.412   2.852   6.484
 7679TIP3    H122980   3.383   2.786   6.421
 7679TIP3    H222981   3.507   2.838   6.492
 7680TIP3   OH222982   0.326   6.148   3.535
 7680TIP3    H122983   0.269   6.202   3.482
 7680TIP3    H222984   0.360   6.207   3.603
 7681TIP3   OH222985   7.329   4.583   6.337
 7681TIP3    H122986   7.351   4.549   6.250
 7681TIP3    H222987   7.327   4.505   6.393
 7682TIP3   OH222988   0.262   4.320   4.213
 7682TIP3    H122989   0.179   4.279   4.189
 7682TIP3    H222990   0.285   4.374   4.137
 7683TIP3   OH222991   1.897   1.396   3.676
 7683TIP3    H122992   1.822   1.445   3.708
 7683TIP3    H222993   1.859   1.321   3.629
 7684TIP3   OH222994   2.975   5.016   6.633
 7684TIP3    H122995   2.966   5.101   6.675
 7684TIP3    H222996   2.968   5.034   6.539
 7685TIP3   OH222997   5.063   3.964   2.468
 7685TIP3    H122998   5.152   3.991   2.449
 7685TIP3    H222999   5.071   3.875   2.503
 7686TIP3   OH223000   3.342   3.650   2.125
 7686TIP3    H123001   3.343   3.689   2.213
 7686TIP3    H223002   3.426   3.603   2.120
 7687TIP3   OH223003   0.052   0.032   4.720
 7687TIP3    H123004   0.023   0.117   4.755
 7687TIP3    H223005   0.092   0.053   4.636
 7688TIP3   OH223006   2.814   4.977   2.987
 7688TIP3    H123007   2.746   4.934   3.038
 7688TIP3    H223008   2.881   5.002   3.052
 7689TIP3   OH223009   7.291   3.717   0.607
 7689TIP3    H123010   7.344   3.769   0.547
 7689TIP3    H223011   7.201   3.748   0.592
 7690TIP3   OH223012   3.794   6.372   4.229
 7690TIP3    H123013   3.846   6.376   4.309
 7690TIP3    H223014   3.723   6.312   4.250
 7691TIP3   OH223015   7.620   3.418   5.530
 7691TIP3    H123016   7.661   3.452   5.451
 7691TIP3    H223017   7.533   3.456   5.530
 7692TIP3   OH223018   3.373   6.539   5.533
 7692TIP3    H123019   3.432   6.464   5.522
 7692TIP3    H223020   3.322   6.541   5.453
 7693TIP3   OH223021   2.125   2.848   1.331
 7693TIP3    H123022   2.153   2.848   1.423
 7693TIP3    H223023   2.044   2.897   1.331
 7694TIP3   OH223024   4.861   4.802   2.130
 7694TIP3    H123025   4.889   4.823   2.041
 7694TIP3    H223026   4.929   4.838   2.186
 7695TIP3   OH223027   5.041   7.350   5.609
 7695TIP3    H123028   4.976   7.412   5.642
 7695TIP3    H223029   5.053   7.287   5.680
 7696TIP3   OH223030   2.478   0.054   1.515
 7696TIP3    H123031   2.451   0.019   1.430
 7696TIP3    H223032   2.396   0.071   1.561
 7697TIP3   OH223033   2.063   6.538   0.840
 7697TIP3    H123034   2.014   6.457   0.824
 7697TIP3    H223035   2.070   6.578   0.753
 7698TIP3   OH223036   3.910   6.893   4.681
 7698TIP3    H123037   3.910   6.882   4.776
 7698TIP3    H223038   3.892   6.987   4.668
 7699TIP3   OH223039   7.859   6.071   5.171
 7699TIP3    H123040   7.812   6.124   5.107
 7699TIP3    H223041   7.828   6.102   5.256
 7700TIP3   OH223042   0.325   2.084   2.539
 7700TIP3    H123043   0.310   2.014   2.604
 7700TIP3    H223044   0.266   2.062   2.467
 7701TIP3   OH223045   7.397   6.675   6.052
 7701TIP3    H123046   7.388   6.733   5.977
 7701TIP3    H223047   7.454   6.723   6.113
 7702TIP3   OH223048   2.041   5.963   4.432
 7702TIP3    H123049   1.968   6.009   4.474
 7702TIP3    H223050   2.065   5.895   4.495
 7703TIP3   OH223051   0.383   3.274   1.217
 7703TIP3    H123052   0.393   3.258   1.123
 7703TIP3    H223053   0.368   3.188   1.255
 7704TIP3   OH223054   7.883   7.043   6.361
 7704TIP3    H123055   7.947   7.091   6.307
 7704TIP3    H223056   7.896   6.951   6.337
 7705TIP3   OH223057   0.038   1.521   4.216
 7705TIP3    H123058   0.028   1.443   4.162
 7705TIP3    H223059   0.044   1.593   4.153
 7706TIP3   OH223060   8.111   4.611   2.427
 7706TIP3    H123061   8.164   4.539   2.461
 7706TIP3    H223062   8.175   4.675   2.395
 7707TIP3   OH223063   3.251   5.857   0.877
 7707TIP3    H123064   3.264   5.826   0.966
 7707TIP3    H223065   3.323   5.817   0.827
 7708TIP3   OH223066   1.220   3.745   1.828
 7708TIP3    H123067   1.181   3.713   1.746
 7708TIP3    H223068   1.150   3.793   1.871
 7709TIP3   OH223069   4.494   6.319   4.419
 7709TIP3    H123070   4.486   6.362   4.334
 7709TIP3    H223071   4.547   6.241   4.402
 7710TIP3   OH223072   7.332   7.266   0.301
 7710TIP3    H123073   7.278   7.195   0.337
 7710TIP3    H223074   7.380   7.226   0.228
 7711TIP3   OH223075   7.315   5.633   3.779
 7711TIP3    H123076   7.233   5.671   3.811
 7711TIP3    H223077   7.348   5.697   3.716
 7712TIP3   OH223078   3.795   6.029   2.562
 7712TIP3    H123079   3.722   5.975   2.592
 7712TIP3    H223080   3.841   6.054   2.642
 7713TIP3   OH223081   5.357   6.689   4.935
 7713TIP3    H123082   5.286   6.635   4.970
 7713TIP3    H223083   5.319   6.777   4.931
 7714TIP3   OH223084   7.705   0.305   2.329
 7714TIP3    H123085   7.718   0.212   2.347
 7714TIP3    H223086   7.761   0.350   2.392
 7715TIP3   OH223087   7.609   3.956   5.690
 7715TIP3    H123088   7.530   4.003   5.716
 7715TIP3    H223089   7.620   3.978   5.598
 7716TIP3   OH223090   1.966   7.595   4.031
 7716TIP3    H123091   2.039   7.657   4.031
 7716TIP3    H223092   1.888   7.650   4.024
 7717TIP3   OH223093   7.655   1.527   4.624
 7717TIP3    H123094   7.724   1.501   4.563
 7717TIP3    H223095   7.613   1.445   4.650
 7718TIP3   OH223096   3.668   0.776   5.377
 7718TIP3    H123097   3.679   0.698   5.324
 7718TIP3    H223098   3.654   0.847   5.314
 7719TIP3   OH223099   7.302   1.147   0.611
 7719TIP3    H123100   7.324   1.203   0.685
 7719TIP3    H223101   7.270   1.066   0.651
 7720TIP3   OH223102   3.384   7.358   5.107
 7720TIP3    H123103   3.384   7.272   5.064
 7720TIP3    H223104   3.325   7.411   5.054
 7721TIP3   OH223105   7.634   6.331   0.719
 7721TIP3    H123106   7.541   6.337   0.700
 7721TIP3    H223107   7.674   6.308   0.635
 7722TIP3   OH223108   6.273   7.545   1.985
 7722TIP3    H123109   6.310   7.475   2.040
 7722TIP3    H223110   6.317   7.534   1.900
 7723TIP3   OH223111   1.880   4.326   2.014
 7723TIP3    H123112   1.911   4.379   2.087
 7723TIP3    H223113   1.958   4.314   1.959
 7724TIP3   OH223114   2.828   4.421   4.656
 7724TIP3    H123115   2.879   4.473   4.718
 7724TIP3    H223116   2.893   4.366   4.611
 7725TIP3   OH223117   0.429   6.804   1.980
 7725TIP3    H123118   0.336   6.786   1.973
 7725TIP3    H223119   0.440   6.841   2.068
 7726TIP3   OH223120   1.317   3.636   5.469
 7726TIP3    H123121   1.323   3.588   5.551
 7726TIP3    H223122   1.293   3.725   5.495
 7727TIP3   OH223123   5.425   2.370   5.172
 7727TIP3    H123124   5.477   2.439   5.131
 7727TIP3    H223125   5.490   2.313   5.214
 7728TIP3   OH223126   5.534   6.928   2.704
 7728TIP3    H123127   5.557   6.905   2.794
 7728TIP3    H223128   5.438   6.919   2.700
 7729TIP3   OH223129   7.906   7.002   0.498
 7729TIP3    H123130   7.862   6.997   0.413
 7729TIP3    H223131   7.865   6.934   0.551
 7730TIP3   OH223132   0.491   1.621   0.200
 7730TIP3    H123133   0.544   1.700   0.207
 7730TIP3    H223134   0.514   1.569   0.277
 7731TIP3   OH223135   0.911   5.023   3.211
 7731TIP3    H123136   0.845   5.091   3.198
 7731TIP3    H223137   0.863   4.941   3.202
 7732TIP3   OH223138   1.247   4.260   2.087
 7732TIP3    H123139   1.243   4.322   2.160
 7732TIP3    H223140   1.306   4.191   2.117
 7733TIP3   OH223141   2.586   2.013   3.886
 7733TIP3    H123142   2.525   2.047   3.951
 7733TIP3    H223143   2.597   1.920   3.909
 7734TIP3   OH223144   8.329   3.774   4.137
 7734TIP3    H123145   8.285   3.859   4.147
 7734TIP3    H223146   8.296   3.739   4.055
 7735TIP3   OH223147   3.347   4.374   6.572
 7735TIP3    H123148   3.312   4.394   6.659
 7735TIP3    H223149   3.326   4.451   6.519
 7736TIP3   OH223150   4.896   7.247   2.392
 7736TIP3    H123151   4.941   7.205   2.465
 7736TIP3    H223152   4.932   7.204   2.314
 7737TIP3   OH223153   1.204   5.653   0.318
 7737TIP3    H123154   1.242   5.736   0.291
 7737TIP3    H223155   1.140   5.632   0.251
 7738TIP3   OH223156   6.998   5.567   4.781
 7738TIP3    H123157   6.977   5.576   4.688
 7738TIP3    H223158   7.021   5.655   4.810
 7739TIP3   OH223159   6.019   7.713   5.919
 7739TIP3    H123160   6.061   7.666   5.847
 7739TIP3    H223161   5.954   7.769   5.877
 7740TIP3   OH223162   1.840   3.535   0.615
 7740TIP3    H123163   1.840   3.517   0.709
 7740TIP3    H223164   1.748   3.543   0.591
 7741TIP3   OH223165   4.495   3.907   3.958
 7741TIP3    H123166   4.525   3.858   4.034
 7741TIP3    H223167   4.426   3.963   3.991
 7742TIP3   OH223168   0.366   3.212   2.578
 7742TIP3    H123169   0.405   3.139   2.625
 7742TIP3    H223170   0.272   3.203   2.594
 7743TIP3   OH223171   4.284   7.628   3.821
 7743TIP3    H123172   4.341   7.569   3.771
 7743TIP3    H223173   4.257   7.577   3.898
 7744TIP3   OH223174   6.842   1.178   5.901
 7744TIP3    H123175   6.899   1.153   5.974
 7744TIP3    H223176   6.862   1.270   5.886
 7745TIP3   OH223177   2.381   7.461   1.394
 7745TIP3    H123178   2.384   7.524   1.322
 7745TIP3    H223179   2.288   7.447   1.410
 7746TIP3   OH223180   1.865   6.812   2.981
 7746TIP3    H123181   1.911   6.819   3.065
 7746TIP3    H223182   1.799   6.881   2.984
 7747TIP3   OH223183   1.681   6.987   2.924
 7747TIP3    H123184   1.645   7.068   2.960
 7747TIP3    H223185   1.605   6.929   2.915
 7748TIP3   OH223186   3.454   1.419   6.468
 7748TIP3    H123187   3.424   1.421   6.559
 7748TIP3    H223188   3.492   1.332   6.457
 7749TIP3   OH223189   2.122   6.266   2.647
 7749TIP3    H123190   2.045   6.293   2.697
 7749TIP3    H223191   2.116   6.170   2.645
 7750TIP3   OH223192   1.011   7.814   6.680
 7750TIP3    H123193   1.100   7.788   6.659
 7750TIP3    H223194   1.008   7.814   6.776
 7751TIP3   OH223195   3.088   7.755   2.116
 7751TIP3    H123196   3.094   7.664   2.148
 7751TIP3    H223197   2.996   7.767   2.095
 7752TIP3   OH223198   3.456   5.391   0.516
 7752TIP3    H123199   3.503   5.318   0.477
 7752TIP3    H223200   3.369   5.388   0.476
 7753TIP3   OH223201   6.929   4.299   3.519
 7753TIP3    H123202   7.023   4.301   3.502
 7753TIP3    H223203   6.920   4.330   3.609
 7754TIP3   OH223204   3.111   2.081   5.130
 7754TIP3    H123205   3.078   2.098   5.219
 7754TIP3    H223206   3.036   2.100   5.073
 7755TIP3   OH223207   4.732   6.103   4.063
 7755TIP3    H123208   4.819   6.095   4.103
 7755TIP3    H223209   4.736   6.047   3.986
 7756TIP3   OH223210   3.749   6.872   2.901
 7756TIP3    H123211   3.685   6.889   2.832
 7756TIP3    H223212   3.790   6.789   2.877
 7757TIP3   OH223213   5.297   1.192   2.578
 7757TIP3    H123214   5.345   1.245   2.641
 7757TIP3    H223215   5.206   1.221   2.586
 7758TIP3   OH223216   3.213   1.164   1.919
 7758TIP3    H123217   3.150   1.235   1.902
 7758TIP3    H223218   3.164   1.100   1.970
 7759TIP3   OH223219   3.011   5.743   0.812
 7759TIP3    H123220   2.966   5.791   0.743
 7759TIP3    H223221   3.085   5.798   0.836
 7760TIP3   OH223222   5.817   7.141   2.274
 7760TIP3    H123223   5.796   7.135   2.367
 7760TIP3    H223224   5.912   7.155   2.272
 7761TIP3   OH223225   6.354   5.152   6.205
 7761TIP3    H123226   6.404   5.124   6.129
 7761TIP3    H223227   6.419   5.196   6.261
 7762TIP3   OH223228   4.978   5.935   4.684
 7762TIP3    H123229   4.987   5.891   4.768
 7762TIP3    H223230   4.884   5.937   4.667
 7763TIP3   OH223231   3.008   1.734   3.926
 7763TIP3    H123232   2.934   1.744   3.987
 7763TIP3    H223233   3.002   1.644   3.895
 7764TIP3   OH223234   0.707   2.318   6.737
 7764TIP3    H123235   0.800   2.304   6.757
 7764TIP3    H223236   0.664   2.319   6.822
 7765TIP3   OH223237   6.898   6.936   5.398
 7765TIP3    H123238   6.971   6.933   5.460
 7765TIP3    H223239   6.917   7.011   5.342
 7766TIP3   OH223240   8.196   3.291   2.866
 7766TIP3    H123241   8.156   3.361   2.917
 7766TIP3    H223242   8.268   3.333   2.818
 7767TIP3   OH223243   5.058   5.514   4.831
 7767TIP3    H123244   5.080   5.604   4.855
 7767TIP3    H223245   5.099   5.501   4.746
 7768TIP3   OH223246   8.002   4.790   0.452
 7768TIP3    H123247   8.091   4.822   0.467
 7768TIP3    H223248   8.004   4.754   0.363
 7769TIP3   OH223249   3.622   2.597   2.930
 7769TIP3    H123250   3.664   2.511   2.925
 7769TIP3    H223251   3.638   2.637   2.845
 7770TIP3   OH223252   7.154   3.797   5.832
 7770TIP3    H123253   7.143   3.750   5.914
 7770TIP3    H223254   7.064   3.810   5.800
 7771TIP3   OH223255   4.837   7.582   4.342
 7771TIP3    H123256   4.871   7.656   4.293
 7771TIP3    H223257   4.758   7.556   4.295
 7772TIP3   OH223258   1.857   4.505   2.238
 7772TIP3    H123259   1.946   4.537   2.221
 7772TIP3    H223260   1.869   4.431   2.297
 7773TIP3   OH223261   7.362   1.873   5.131
 7773TIP3    H123262   7.324   1.791   5.100
 7773TIP3    H223263   7.371   1.926   5.052
 7774TIP3   OH223264   2.058   4.371   4.154
 7774TIP3    H123265   1.993   4.434   4.184
 7774TIP3    H223266   2.073   4.393   4.063
 7775TIP3   OH223267   4.463   1.582   1.955
 7775TIP3    H123268   4.405   1.621   2.020
 7775TIP3    H223269   4.544   1.564   2.003
 7776TIP3   OH223270   2.459   6.403   4.852
 7776TIP3    H123271   2.392   6.445   4.906
 7776TIP3    H223272   2.479   6.322   4.898
 7777TIP3   OH223273   5.365   2.088   4.369
 7777TIP3    H123274   5.390   2.124   4.454
 7777TIP3    H223275   5.316   2.158   4.327
 7778TIP3   OH223276   6.328   5.157   4.793
 7778TIP3    H123277   6.335   5.131   4.701
 7778TIP3    H223278   6.373   5.241   4.798
 7779TIP3   OH223279   5.102   2.096   2.120
 7779TIP3    H123280   5.094   2.136   2.207
 7779TIP3    H223281   5.083   2.003   2.135
 7780TIP3   OH223282   1.874   2.693   3.172
 7780TIP3    H123283   1.795   2.669   3.221
 7780TIP3    H223284   1.913   2.763   3.223
 7781TIP3   OH223285   1.474   5.652   1.959
 7781TIP3    H123286   1.482   5.680   1.868
 7781TIP3    H223287   1.427   5.569   1.955
 7782TIP3   OH223288   0.250   6.480   3.655
 7782TIP3    H123289   0.306   6.403   3.659
 7782TIP3    H223290   0.294   6.544   3.711
 7783TIP3   OH223291   6.857   0.816   0.714
 7783TIP3    H123292   6.850   0.739   0.769
 7783TIP3    H223293   6.767   0.833   0.685
 7784TIP3   OH223294   0.744   0.985   6.465
 7784TIP3    H123295   0.762   0.934   6.545
 7784TIP3    H223296   0.676   0.936   6.420
 7785TIP3   OH223297   6.473   1.574   2.834
 7785TIP3    H123298   6.440   1.656   2.797
 7785TIP3    H223299   6.397   1.517   2.839
 7786TIP3   OH223300   4.094   2.487   3.151
 7786TIP3    H123301   4.093   2.397   3.118
 7786TIP3    H223302   4.128   2.538   3.078
 7787TIP3   OH223303   7.806   1.506   1.506
 7787TIP3    H123304   7.802   1.573   1.574
 7787TIP3    H223305   7.715   1.497   1.476
 7788TIP3   OH223306   3.997   2.270   1.926
 7788TIP3    H123307   4.045   2.255   2.007
 7788TIP3    H223308   4.036   2.210   1.862
 7789TIP3   OH223309   4.760   0.658   5.447
 7789TIP3    H123310   4.738   0.668   5.540
 7789TIP3    H223311   4.826   0.725   5.430
 7790TIP3   OH223312   1.766   4.528   2.937
 7790TIP3    H123313   1.710   4.496   3.007
 7790TIP3    H223314   1.854   4.531   2.975
 7791TIP3   OH223315   6.849   5.626   3.061
 7791TIP3    H123316   6.925   5.634   3.119
 7791TIP3    H223317   6.830   5.715   3.033
 7792TIP3   OH223318   2.876   2.797   3.686
 7792TIP3    H123319   2.832   2.774   3.605
 7792TIP3    H223320   2.935   2.724   3.703
 7793TIP3   OH223321   8.174   6.829   6.213
 7793TIP3    H123322   8.170   6.923   6.233
 7793TIP3    H223323   8.088   6.809   6.177
 7794TIP3   OH223324   6.004   5.086   0.995
 7794TIP3    H123325   6.082   5.031   1.000
 7794TIP3    H223326   5.932   5.024   0.976
 7795TIP3   OH223327   2.996   6.300   0.261
 7795TIP3    H123328   3.050   6.326   0.186
 7795TIP3    H223329   2.967   6.383   0.300
 7796TIP3   OH223330   0.522   7.095   6.458
 7796TIP3    H123331   0.615   7.091   6.438
 7796TIP3    H223332   0.516   7.158   6.530
 7797TIP3   OH223333   5.796   3.103   2.798
 7797TIP3    H123334   5.879   3.075   2.837
 7797TIP3    H223335   5.805   3.081   2.705
 7798TIP3   OH223336   7.975   6.563   1.902
 7798TIP3    H123337   7.926   6.640   1.874
 7798TIP3    H223338   8.047   6.598   1.955
 7799TIP3   OH223339   1.863   1.774   5.099
 7799TIP3    H123340   1.913   1.752   5.020
 7799TIP3    H223341   1.791   1.711   5.100
 7800TIP3   OH223342   8.313   7.231   0.448
 7800TIP3    H123343   8.229   7.192   0.471
 7800TIP3    H223344   8.327   7.206   0.356
 7801TIP3   OH223345   4.728   6.797   3.347
 7801TIP3    H123346   4.641   6.758   3.349
 7801TIP3    H223347   4.731   6.853   3.424
 7802TIP3   OH223348   2.968   6.657   3.133
 7802TIP3    H123349   2.926   6.739   3.107
 7802TIP3    H223350   2.933   6.591   3.073
 7803TIP3   OH223351   0.766   6.832   2.666
 7803TIP3    H123352   0.853   6.807   2.698
 7803TIP3    H223353   0.780   6.855   2.574
 7804TIP3   OH223354   1.438   5.404   4.568
 7804TIP3    H123355   1.370   5.416   4.503
 7804TIP3    H223356   1.501   5.474   4.552
 7805TIP3   OH223357   3.755   2.413   6.711
 7805TIP3    H123358   3.703   2.488   6.685
 7805TIP3    H223359   3.826   2.449   6.764
 7806TIP3   OH223360   6.681   3.939   0.963
 7806TIP3    H123361   6.616   3.975   1.023
 7806TIP3    H223362   6.759   3.993   0.978
 7807TIP3   OH223363   3.263   5.228   5.034
 7807TIP3    H123364   3.266   5.230   5.130
 7807TIP3    H223365   3.177   5.192   5.013
 7808TIP3   OH223366   5.355   5.386   2.540
 7808TIP3    H123367   5.398   5.306   2.512
 7808TIP3    H223368   5.400   5.456   2.492
 7809TIP3   OH223369   4.099   5.433   6.378
 7809TIP3    H123370   4.160   5.467   6.444
 7809TIP3    H223371   4.017   5.420   6.426
 7810TIP3   OH223372   1.031   2.802   0.504
 7810TIP3    H123373   0.941   2.815   0.474
 7810TIP3    H223374   1.051   2.711   0.482
 7811TIP3   OH223375   6.707   0.445   5.672
 7811TIP3    H123376   6.735   0.491   5.592
 7811TIP3    H223377   6.777   0.461   5.735
 7812TIP3   OH223378   2.783   6.639   2.202
 7812TIP3    H123379   2.824   6.558   2.232
 7812TIP3    H223380   2.716   6.611   2.140
 7813TIP3   OH223381   1.341   7.373   5.562
 7813TIP3    H123382   1.306   7.377   5.473
 7813TIP3    H223383   1.334   7.462   5.595
 7814TIP3   OH223384   1.877   4.389   3.720
 7814TIP3    H123385   1.913   4.463   3.769
 7814TIP3    H223386   1.805   4.356   3.774
 7815TIP3   OH223387   0.632   7.202   5.459
 7815TIP3    H123388   0.722   7.170   5.453
 7815TIP3    H223389   0.592   7.177   5.375
 7816TIP3   OH223390   0.630   5.348   4.020
 7816TIP3    H123391   0.614   5.329   3.928
 7816TIP3    H223392   0.696   5.418   4.019
 7817TIP3   OH223393   7.621   0.837   4.613
 7817TIP3    H123394   7.699   0.821   4.560
 7817TIP3    H223395   7.554   0.864   4.550
 7818TIP3   OH223396   8.150   2.897   1.371
 7818TIP3    H123397   8.173   2.911   1.463
 7818TIP3    H223398   8.232   2.908   1.324
 7819TIP3   OH223399   2.120   3.038   2.059
 7819TIP3    H123400   2.162   3.112   2.016
 7819TIP3    H223401   2.072   2.993   1.990
 7820TIP3   OH223402   1.608   1.246   2.801
 7820TIP3    H123403   1.553   1.174   2.831
 7820TIP3    H223404   1.696   1.223   2.830
 7821TIP3   OH223405   5.090   6.130   2.035
 7821TIP3    H123406   5.171   6.106   2.080
 7821TIP3    H223407   5.102   6.098   1.946
 7822TIP3   OH223408   6.655   3.008   4.488
 7822TIP3    H123409   6.666   2.986   4.395
 7822TIP3    H223410   6.561   3.005   4.503
 7823TIP3   OH223411   6.109   4.729   1.265
 7823TIP3    H123412   6.074   4.816   1.283
 7823TIP3    H223413   6.203   4.743   1.255
 7824TIP3   OH223414   7.174   5.391   6.702
 7824TIP3    H123415   7.119   5.326   6.658
 7824TIP3    H223416   7.207   5.346   6.780
 7825TIP3   OH223417   3.847   3.981   3.745
 7825TIP3    H123418   3.828   3.890   3.719
 7825TIP3    H223419   3.786   4.034   3.693
 7826TIP3   OH223420   7.584   5.418   5.683
 7826TIP3    H123421   7.627   5.497   5.651
 7826TIP3    H223422   7.613   5.410   5.774
 7827TIP3   OH223423   7.189   3.209   2.564
 7827TIP3    H123424   7.167   3.130   2.515
 7827TIP3    H223425   7.285   3.213   2.561
 7828TIP3   OH223426   5.981   6.430   4.465
 7828TIP3    H123427   6.029   6.407   4.385
 7828TIP3    H223428   5.996   6.355   4.523
 7829TIP3   OH223429   5.279   5.856   0.090
 7829TIP3    H123430   5.366   5.889   0.114
 7829TIP3    H223431   5.224   5.873   0.166
 7830TIP3   OH223432   5.016   2.661   2.508
 7830TIP3    H123433   4.972   2.650   2.592
 7830TIP3    H223434   5.083   2.728   2.525
 7831TIP3   OH223435   4.979   4.736   1.236
 7831TIP3    H123436   5.025   4.817   1.255
 7831TIP3    H223437   4.910   4.760   1.174
 7832TIP3   OH223438   5.324   5.949   3.844
 7832TIP3    H123439   5.325   5.863   3.801
 7832TIP3    H223440   5.351   6.010   3.775
 7833TIP3   OH223441   6.902   0.113   3.501
 7833TIP3    H123442   6.969   0.087   3.437
 7833TIP3    H223443   6.906   0.209   3.501
 7834TIP3   OH223444   5.603   7.536   0.668
 7834TIP3    H123445   5.665   7.598   0.707
 7834TIP3    H223446   5.622   7.453   0.711
 7835TIP3   OH223447   5.711   7.631   3.552
 7835TIP3    H123448   5.725   7.697   3.484
 7835TIP3    H223449   5.794   7.628   3.599
 7836TIP3   OH223450   3.350   2.867   0.005
 7836TIP3    H123451   3.439   2.843   0.029
 7836TIP3    H223452   3.331   2.946   0.056
 7837TIP3   OH223453   3.135   7.322   1.111
 7837TIP3    H123454   3.158   7.261   1.181
 7837TIP3    H223455   3.200   7.304   1.043
 7838TIP3   OH223456   4.988   7.503   0.460
 7838TIP3    H123457   4.932   7.504   0.382
 7838TIP3    H223458   5.056   7.568   0.442
 7839TIP3   OH223459   2.134   5.912   0.961
 7839TIP3    H123460   2.172   5.854   1.027
 7839TIP3    H223461   2.203   5.921   0.894
 7840TIP3   OH223462   3.794   6.784   6.258
 7840TIP3    H123463   3.774   6.733   6.179
 7840TIP3    H223464   3.726   6.852   6.259
 7841TIP3   OH223465   2.557   1.540   4.684
 7841TIP3    H123466   2.633   1.586   4.719
 7841TIP3    H223467   2.541   1.581   4.599
 7842TIP3   OH223468   6.673   6.245   3.349
 7842TIP3    H123469   6.753   6.287   3.381
 7842TIP3    H223470   6.694   6.151   3.347
 7843TIP3   OH223471   0.120   1.179   3.505
 7843TIP3    H123472   0.179   1.119   3.550
 7843TIP3    H223473   0.042   1.127   3.487
 7844TIP3   OH223474   6.937   5.348   4.539
 7844TIP3    H123475   6.958   5.434   4.503
 7844TIP3    H223476   6.901   5.366   4.625
 7845TIP3   OH223477   6.737   0.892   5.856
 7845TIP3    H123478   6.665   0.910   5.796
 7845TIP3    H223479   6.749   0.973   5.905
 7846TIP3   OH223480   3.790   5.276   2.029
 7846TIP3    H123481   3.703   5.316   2.031
 7846TIP3    H223482   3.850   5.351   2.024
 7847TIP3   OH223483   7.603   0.952   4.036
 7847TIP3    H123484   7.588   0.864   4.003
 7847TIP3    H223485   7.660   0.940   4.112
 7848TIP3   OH223486   1.894   2.439   6.441
 7848TIP3    H123487   1.892   2.471   6.531
 7848TIP3    H223488   1.903   2.344   6.450
 7849TIP3   OH223489   0.612   4.013   3.410
 7849TIP3    H123490   0.666   3.951   3.459
 7849TIP3    H223491   0.612   3.979   3.320
 7850TIP3   OH223492   4.143   3.119   2.152
 7850TIP3    H123493   4.075   3.187   2.149
 7850TIP3    H223494   4.130   3.076   2.236
 7851TIP3   OH223495   5.239   2.749   4.472
 7851TIP3    H123496   5.275   2.665   4.501
 7851TIP3    H223497   5.176   2.773   4.540
 7852TIP3   OH223498   4.682   6.387   3.950
 7852TIP3    H123499   4.684   6.450   4.022
 7852TIP3    H223500   4.706   6.303   3.990
 7853TIP3   OH223501   7.132   0.087   2.863
 7853TIP3    H123502   7.174   0.010   2.901
 7853TIP3    H223503   7.201   0.154   2.862
 7854TIP3   OH223504   7.091   4.768   2.387
 7854TIP3    H123505   7.060   4.682   2.416
 7854TIP3    H223506   7.049   4.830   2.447
 7855TIP3   OH223507   1.328   6.721   6.398
 7855TIP3    H123508   1.419   6.719   6.370
 7855TIP3    H223509   1.320   6.645   6.456
 7856TIP3   OH223510   2.739   6.448   6.661
 7856TIP3    H123511   2.643   6.448   6.663
 7856TIP3    H223512   2.761   6.477   6.573
 7857TIP3   OH223513   2.206   5.095   3.469
 7857TIP3    H123514   2.112   5.101   3.487
 7857TIP3    H223515   2.229   5.179   3.430
 7858TIP3   OH223516   4.135   1.970   5.400
 7858TIP3    H123517   4.043   1.994   5.394
 7858TIP3    H223518   4.147   1.903   5.333
 7859TIP3   OH223519   2.894   4.032   1.851
 7859TIP3    H123520   2.941   4.019   1.933
 7859TIP3    H223521   2.928   3.964   1.793
 7860TIP3   OH223522   4.569   3.308   4.809
 7860TIP3    H123523   4.525   3.367   4.749
 7860TIP3    H223524   4.607   3.365   4.876
 7861TIP3   OH223525   2.533   1.038   3.285
 7861TIP3    H123526   2.561   0.957   3.241
 7861TIP3    H223527   2.451   1.061   3.242
 7862TIP3   OH223528   6.969   5.589   6.480
 7862TIP3    H123529   6.963   5.559   6.389
 7862TIP3    H223530   7.062   5.607   6.493
 7863TIP3   OH223531   2.220   5.105   0.535
 7863TIP3    H123532   2.205   5.013   0.558
 7863TIP3    H223533   2.202   5.109   0.441
 7864TIP3   OH223534   7.535   3.454   2.742
 7864TIP3    H123535   7.491   3.503   2.672
 7864TIP3    H223536   7.615   3.505   2.759
 7865TIP3   OH223537   6.404   5.463   1.452
 7865TIP3    H123538   6.483   5.449   1.504
 7865TIP3    H223539   6.419   5.411   1.372
 7866TIP3   OH223540   5.090   7.292   6.209
 7866TIP3    H123541   5.136   7.322   6.287
 7866TIP3    H223542   5.065   7.201   6.229
 7867TIP3   OH223543   3.701   3.577   3.871
 7867TIP3    H123544   3.674   3.643   3.935
 7867TIP3    H223545   3.722   3.500   3.924
 7868TIP3   OH223546   5.708   5.545   5.694
 7868TIP3    H123547   5.625   5.569   5.654
 7868TIP3    H223548   5.771   5.545   5.622
 7869TIP3   OH223549   0.952   2.568   1.225
 7869TIP3    H123550   0.985   2.486   1.190
 7869TIP3    H223551   1.031   2.619   1.246
 7870TIP3   OH223552   3.232   5.538   4.733
 7870TIP3    H123553   3.307   5.554   4.792
 7870TIP3    H223554   3.214   5.445   4.742
 7871TIP3   OH223555   3.580   5.162   0.380
 7871TIP3    H123556   3.667   5.195   0.404
 7871TIP3    H223557   3.597   5.100   0.308
 7872TIP3   OH223558   7.166   2.075   2.911
 7872TIP3    H123559   7.123   2.067   2.997
 7872TIP3    H223560   7.133   1.999   2.861
 7873TIP3   OH223561   6.919   3.614   3.511
 7873TIP3    H123562   6.935   3.699   3.552
 7873TIP3    H223563   6.836   3.624   3.466
 7874TIP3   OH223564   0.318   7.710   4.662
 7874TIP3    H123565   0.407   7.692   4.693
 7874TIP3    H223566   0.317   7.679   4.572
 7875TIP3   OH223567   2.882   1.086   1.518
 7875TIP3    H123568   2.863   1.172   1.554
 7875TIP3    H223569   2.797   1.055   1.485
 7876TIP3   OH223570   3.507   6.612   4.841
 7876TIP3    H123571   3.523   6.540   4.902
 7876TIP3    H223572   3.420   6.644   4.865
 7877TIP3   OH223573   0.332   0.498   1.909
 7877TIP3    H123574   0.325   0.403   1.898
 7877TIP3    H223575   0.357   0.530   1.822
 7878TIP3   OH223576   3.634   1.228   3.781
 7878TIP3    H123577   3.543   1.256   3.780
 7878TIP3    H223578   3.673   1.267   3.703
 7879TIP3   OH223579   3.937   5.090   1.034
 7879TIP3    H123580   4.013   5.050   0.991
 7879TIP3    H223581   3.956   5.081   1.128
 7880TIP3   OH223582   4.115   5.298   5.381
 7880TIP3    H123583   4.126   5.315   5.475
 7880TIP3    H223584   4.104   5.385   5.343
 7881TIP3   OH223585   3.907   1.374   5.165
 7881TIP3    H123586   3.981   1.411   5.117
 7881TIP3    H223587   3.916   1.409   5.254
 7882TIP3   OH223588   6.188   1.040   2.467
 7882TIP3    H123589   6.121   1.082   2.414
 7882TIP3    H223590   6.260   1.103   2.470
 7883TIP3   OH223591   6.205   4.669   4.361
 7883TIP3    H123592   6.214   4.630   4.448
 7883TIP3    H223593   6.181   4.596   4.304
 7884TIP3   OH223594   1.194   2.861   0.891
 7884TIP3    H123595   1.209   2.773   0.857
 7884TIP3    H223596   1.115   2.891   0.847
 7885TIP3   OH223597   7.504   3.709   4.725
 7885TIP3    H123598   7.458   3.721   4.808
 7885TIP3    H223599   7.441   3.665   4.668
 7886TIP3   OH223600   4.690   1.829   4.650
 7886TIP3    H123601   4.677   1.918   4.616
 7886TIP3    H223602   4.741   1.841   4.730
 7887TIP3   OH223603   6.717   0.364   2.908
 7887TIP3    H123604   6.713   0.290   2.848
 7887TIP3    H223605   6.798   0.350   2.958
 7888TIP3   OH223606   5.658   0.972   6.738
 7888TIP3    H123607   5.694   0.989   6.651
 7888TIP3    H223608   5.637   1.059   6.773
 7889TIP3   OH223609   2.811   3.658   5.711
 7889TIP3    H123610   2.758   3.631   5.636
 7889TIP3    H223611   2.837   3.748   5.690
 7890TIP3   OH223612   6.211   5.853   3.851
 7890TIP3    H123613   6.218   5.813   3.938
 7890TIP3    H223614   6.127   5.898   3.852
 7891TIP3   OH223615   0.278   2.063   0.061
 7891TIP3    H123616   0.339   2.055  -0.013
 7891TIP3    H223617   0.328   2.109   0.128
 7892TIP3   OH223618   4.012   3.866   4.495
 7892TIP3    H123619   4.038   3.891   4.583
 7892TIP3    H223620   3.930   3.913   4.480
 7893TIP3   OH223621   8.211   2.486   6.794
 7893TIP3    H123622   8.234   2.579   6.801
 7893TIP3    H223623   8.283   2.447   6.745
 7894TIP3   OH223624   3.354   7.206   3.162
 7894TIP3    H123625   3.440   7.165   3.170
 7894TIP3    H223626   3.350   7.236   3.071
 7895TIP3   OH223627   7.708   0.910   2.471
 7895TIP3    H123628   7.774   0.975   2.495
 7895TIP3    H223629   7.718   0.841   2.536
 7896TIP3   OH223630   7.334   1.912   0.982
 7896TIP3    H123631   7.277   1.879   1.052
 7896TIP3    H223632   7.421   1.878   1.005
 7897TIP3   OH223633   4.252   2.216   3.502
 7897TIP3    H123634   4.323   2.268   3.540
 7897TIP3    H223635   4.213   2.171   3.576
 7898TIP3   OH223636   4.024   5.434   3.821
 7898TIP3    H123637   4.022   5.409   3.728
 7898TIP3    H223638   3.954   5.498   3.830
 7899TIP3   OH223639   0.260   4.713   1.636
 7899TIP3    H123640   0.220   4.646   1.692
 7899TIP3    H223641   0.272   4.788   1.694
 7900TIP3   OH223642   1.120   3.188   1.387
 7900TIP3    H123643   1.027   3.177   1.370
 7900TIP3    H223644   1.135   3.282   1.377
 7901TIP3   OH223645   0.684   7.018   4.442
 7901TIP3    H123646   0.589   7.006   4.439
 7901TIP3    H223647   0.696   7.099   4.491
 7902TIP3   OH223648   0.157   6.968   0.583
 7902TIP3    H123649   0.214   6.997   0.512
 7902TIP3    H223650   0.070   6.966   0.544
 7903TIP3   OH223651   8.146   1.885   3.844
 7903TIP3    H123652   8.145   1.880   3.748
 7903TIP3    H223653   8.239   1.894   3.866
 7904TIP3   OH223654   7.645   7.309   3.136
 7904TIP3    H123655   7.576   7.346   3.081
 7904TIP3    H223656   7.703   7.265   3.075
 7905TIP3   OH223657   4.002   4.074   6.518
 7905TIP3    H123658   3.932   4.020   6.482
 7905TIP3    H223659   4.075   4.061   6.458
 7906TIP3   OH223660   3.319   6.519   0.517
 7906TIP3    H123661   3.312   6.425   0.503
 7906TIP3    H223662   3.244   6.541   0.572
 7907TIP3   OH223663   2.414   6.670   3.726
 7907TIP3    H123664   2.375   6.633   3.805
 7907TIP3    H223665   2.476   6.603   3.696
 7908TIP3   OH223666   2.300   4.995   0.180
 7908TIP3    H123667   2.233   4.966   0.242
 7908TIP3    H223668   2.251   5.025   0.103
 7909TIP3   OH223669   5.709   6.082   5.144
 7909TIP3    H123670   5.630   6.119   5.105
 7909TIP3    H223671   5.677   6.020   5.209
 7910TIP3   OH223672   4.299   4.674   3.388
 7910TIP3    H123673   4.365   4.713   3.332
 7910TIP3    H223674   4.218   4.718   3.364
 7911TIP3   OH223675   0.725   0.706   4.443
 7911TIP3    H123676   0.754   0.793   4.473
 7911TIP3    H223677   0.630   0.707   4.455
 7912TIP3   OH223678   0.429   5.430   4.942
 7912TIP3    H123679   0.410   5.379   4.864
 7912TIP3    H223680   0.381   5.386   5.012
 7913TIP3   OH223681   7.290   5.066   6.666
 7913TIP3    H123682   7.261   5.052   6.756
 7913TIP3    H223683   7.209   5.082   6.617
 7914TIP3   OH223684   5.070   5.492   5.830
 7914TIP3    H123685   5.161   5.464   5.841
 7914TIP3    H223686   5.066   5.530   5.742
 7915TIP3   OH223687   6.854   4.660   3.354
 7915TIP3    H123688   6.824   4.572   3.379
 7915TIP3    H223689   6.851   4.710   3.435
 7916TIP3   OH223690   4.031   6.090   3.323
 7916TIP3    H123691   3.982   6.169   3.304
 7916TIP3    H223692   4.005   6.029   3.253
 7917TIP3   OH223693   4.292   7.530   0.496
 7917TIP3    H123694   4.383   7.517   0.525
 7917TIP3    H223695   4.260   7.442   0.479
 7918TIP3   OH223696   0.276   5.890   3.244
 7918TIP3    H123697   0.322   5.824   3.192
 7918TIP3    H223698   0.256   5.960   3.182
 7919TIP3   OH223699   6.766   1.297   0.142
 7919TIP3    H123700   6.782   1.381   0.100
 7919TIP3    H223701   6.828   1.237   0.100
 7920TIP3   OH223702   3.760   3.977   2.098
 7920TIP3    H123703   3.829   4.044   2.093
 7920TIP3    H223704   3.779   3.929   2.179
 7921TIP3   OH223705   0.926   7.466   2.450
 7921TIP3    H123706   0.928   7.398   2.518
 7921TIP3    H223707   1.013   7.461   2.410
 7922TIP3   OH223708   6.517   6.919   5.503
 7922TIP3    H123709   6.430   6.878   5.505
 7922TIP3    H223710   6.499   7.013   5.502
 7923TIP3   OH223711   2.418   6.365   6.278
 7923TIP3    H123712   2.442   6.301   6.344
 7923TIP3    H223713   2.337   6.404   6.311
 7924TIP3   OH223714   3.830   0.009   1.577
 7924TIP3    H123715   3.921  -0.020   1.586
 7924TIP3    H223716   3.821   0.080   1.642
 7925TIP3   OH223717   4.619   5.757   1.759
 7925TIP3    H123718   4.569   5.750   1.677
 7925TIP3    H223719   4.710   5.746   1.731
 7926TIP3   OH223720   5.468   1.388   3.239
 7926TIP3    H123721   5.496   1.308   3.196
 7926TIP3    H223722   5.461   1.365   3.332
 7927TIP3   OH223723   0.647   2.629   1.966
 7927TIP3    H123724   0.724   2.666   2.008
 7927TIP3    H223725   0.580   2.629   2.035
 7928TIP3   OH223726   6.107   4.314   3.648
 7928TIP3    H123727   6.157   4.239   3.617
 7928TIP3    H223728   6.173   4.377   3.676
 7929TIP3   OH223729   0.338   5.067   1.365
 7929TIP3    H123730   0.265   5.123   1.393
 7929TIP3    H223731   0.301   4.979   1.364
 7930TIP3   OH223732   4.560   7.515   3.752
 7930TIP3    H123733   4.622   7.511   3.825
 7930TIP3    H223734   4.568   7.430   3.709
 7931TIP3   OH223735   4.641   7.663   3.303
 7931TIP3    H123736   4.665   7.585   3.355
 7931TIP3    H223737   4.677   7.736   3.353
 7932TIP3   OH223738   7.858   3.786   1.968
 7932TIP3    H123739   7.917   3.733   2.021
 7932TIP3    H223740   7.782   3.801   2.024
 7933TIP3   OH223741   1.045   7.367   0.715
 7933TIP3    H123742   0.995   7.340   0.792
 7933TIP3    H223743   1.137   7.354   0.740
 7934TIP3   OH223744   2.512   0.852   2.770
 7934TIP3    H123745   2.606   0.833   2.776
 7934TIP3    H223746   2.488   0.823   2.682
 7935TIP3   OH223747   5.600   0.275   3.581
 7935TIP3    H123748   5.619   0.366   3.606
 7935TIP3    H223749   5.685   0.232   3.583
 7936TIP3   OH223750   6.813   2.886   2.017
 7936TIP3    H123751   6.726   2.847   2.009
 7936TIP3    H223752   6.797   2.980   2.023
 7937TIP3   OH223753   0.595   6.130   5.399
 7937TIP3    H123754   0.523   6.117   5.460
 7937TIP3    H223755   0.650   6.197   5.440
 7938TIP3   OH223756   0.911   3.737   3.460
 7938TIP3    H123757   0.880   3.703   3.544
 7938TIP3    H223758   0.878   3.675   3.395
 7939TIP3   OH223759   7.949   4.464   5.971
 7939TIP3    H123760   7.954   4.378   5.929
 7939TIP3    H223761   8.017   4.462   6.039
 7940TIP3   OH223762   3.248   0.456   5.313
 7940TIP3    H123763   3.291   0.541   5.325
 7940TIP3    H223764   3.185   0.470   5.243
 7941TIP3   OH223765   7.895   3.458   5.388
 7941TIP3    H123766   7.824   3.447   5.324
 7941TIP3    H223767   7.898   3.375   5.435
 7942TIP3   OH223768   2.073   0.748   2.945
 7942TIP3    H123769   2.142   0.683   2.929
 7942TIP3    H223770   2.037   0.724   3.031
 7943TIP3   OH223771   7.137   3.071   6.043
 7943TIP3    H123772   7.215   3.037   5.998
 7943TIP3    H223773   7.078   3.095   5.972
 7944TIP3   OH223774   5.589   3.937   2.852
 7944TIP3    H123775   5.653   4.004   2.831
 7944TIP3    H223776   5.509   3.963   2.806
 7945TIP3   OH223777   2.727   7.677   1.710
 7945TIP3    H123778   2.677   7.599   1.685
 7945TIP3    H223779   2.782   7.695   1.634
 7946TIP3   OH223780   7.172   5.553   1.693
 7946TIP3    H123781   7.081   5.582   1.706
 7946TIP3    H223782   7.208   5.614   1.629
 7947TIP3   OH223783   8.267   2.283   5.026
 7947TIP3    H123784   8.253   2.311   4.935
 7947TIP3    H223785   8.266   2.187   5.022
 7948TIP3   OH223786   6.859   1.455   1.425
 7948TIP3    H123787   6.795   1.414   1.367
 7948TIP3    H223788   6.832   1.427   1.513
 7949TIP3   OH223789   0.024   7.645   0.138
 7949TIP3    H123790  -0.052   7.642   0.080
 7949TIP3    H223791   0.092   7.599   0.089
 7950TIP3   OH223792   7.873   0.395   1.578
 7950TIP3    H123793   7.865   0.451   1.501
 7950TIP3    H223794   7.783   0.386   1.610
 7951TIP3   OH223795   4.483   5.728   1.194
 7951TIP3    H123796   4.432   5.808   1.207
 7951TIP3    H223797   4.541   5.747   1.120
 7952TIP3   OH223798   7.149   5.885   2.960
 7952TIP3    H123799   7.185   5.861   3.045
 7952TIP3    H223800   7.130   5.801   2.917
 7953TIP3   OH223801   6.989   3.924   4.599
 7953TIP3    H123802   6.916   3.867   4.624
 7953TIP3    H223803   7.067   3.871   4.613
 7954TIP3   OH223804   1.089   4.708   2.213
 7954TIP3    H123805   1.042   4.694   2.295
 7954TIP3    H223806   1.178   4.677   2.231
 7955TIP3   OH223807   6.123   0.136   0.147
 7955TIP3    H123808   6.118   0.134   0.242
 7955TIP3    H223809   6.036   0.166   0.119
 7956TIP3   OH223810   7.506   7.341   5.829
 7956TIP3    H123811   7.518   7.296   5.746
 7956TIP3    H223812   7.415   7.323   5.854
 7957TIP3   OH223813   5.640   1.110   4.779
 7957TIP3    H123814   5.685   1.036   4.821
 7957TIP3    H223815   5.617   1.168   4.852
 7958TIP3   OH223816   6.492   6.226   4.449
 7958TIP3    H123817   6.419   6.275   4.411
 7958TIP3    H223818   6.485   6.139   4.412
 7959TIP3   OH223819   1.690   4.236   1.416
 7959TIP3    H123820   1.660   4.227   1.507
 7959TIP3    H223821   1.753   4.165   1.404
 7960TIP3   OH223822   4.580   4.903   0.306
 7960TIP3    H123823   4.580   4.887   0.400
 7960TIP3    H223824   4.652   4.965   0.292
 7961TIP3   OH223825   5.449   1.879   0.008
 7961TIP3    H123826   5.385   1.928   0.059
 7961TIP3    H223827   5.396   1.815  -0.041
 7962TIP3   OH223828   7.812   3.169   1.525
 7962TIP3    H123829   7.772   3.154   1.439
 7962TIP3    H223830   7.851   3.256   1.518
 7963TIP3   OH223831   8.196   1.192   3.801
 7963TIP3    H123832   8.135   1.238   3.743
 7963TIP3    H223833   8.191   1.240   3.884
 7964TIP3   OH223834   0.645   0.688   0.202
 7964TIP3    H123835   0.667   0.710   0.111
 7964TIP3    H223836   0.701   0.743   0.255
 7965TIP3   OH223837   3.233   3.486   5.862
 7965TIP3    H123838   3.247   3.580   5.864
 7965TIP3    H223839   3.260   3.459   5.774
 7966TIP3   OH223840   4.779   7.561   5.695
 7966TIP3    H123841   4.763   7.591   5.606
 7966TIP3    H223842   4.706   7.502   5.714
 7967TIP3   OH223843   3.688   1.671   1.291
 7967TIP3    H123844   3.611   1.652   1.344
 7967TIP3    H223845   3.720   1.755   1.324
 7968TIP3   OH223846   2.431   4.083   1.563
 7968TIP3    H123847   2.503   4.052   1.618
 7968TIP3    H223848   2.413   4.171   1.595
 7969TIP3   OH223849   2.449   2.844   2.089
 7969TIP3    H123850   2.503   2.923   2.084
 7969TIP3    H223851   2.366   2.869   2.049
 7970TIP3   OH223852   0.591   5.026   2.252
 7970TIP3    H123853   0.590   4.938   2.290
 7970TIP3    H223854   0.661   5.071   2.300
 7971TIP3   OH223855   3.028   0.518   6.371
 7971TIP3    H123856   3.005   0.433   6.410
 7971TIP3    H223857   3.028   0.502   6.277
 7972TIP3   OH223858   1.218   5.010   1.689
 7972TIP3    H123859   1.214   4.968   1.775
 7972TIP3    H223860   1.312   5.016   1.669
 7973TIP3   OH223861   6.520   2.525   3.480
 7973TIP3    H123862   6.430   2.519   3.449
 7973TIP3    H223863   6.526   2.462   3.551
 7974TIP3   OH223864   5.238   2.735   2.661
 7974TIP3    H123865   5.287   2.788   2.598
 7974TIP3    H223866   5.305   2.702   2.721
 7975TIP3   OH223867   3.001   1.568   4.217
 7975TIP3    H123868   2.969   1.491   4.171
 7975TIP3    H223869   2.939   1.637   4.194
 7976TIP3   OH223870   7.468   2.044   5.802
 7976TIP3    H123871   7.392   2.068   5.855
 7976TIP3    H223872   7.479   1.951   5.817
 7977TIP3   OH223873   1.930   4.186   5.514
 7977TIP3    H123874   1.938   4.169   5.420
 7977TIP3    H223875   1.979   4.115   5.555
 7978TIP3   OH223876   0.478   6.800   4.881
 7978TIP3    H123877   0.398   6.818   4.831
 7978TIP3    H223878   0.471   6.857   4.958
 7979TIP3   OH223879   3.764   5.860   0.720
 7979TIP3    H123880   3.858   5.854   0.734
 7979TIP3    H223881   3.732   5.771   0.735
 7980TIP3   OH223882   2.113   5.100  -0.024
 7980TIP3    H123883   2.038   5.093   0.035
 7980TIP3    H223884   2.129   5.194  -0.031
 7981TIP3   OH223885   5.933   6.887   0.334
 7981TIP3    H123886   5.972   6.852   0.414
 7981TIP3    H223887   5.930   6.982   0.348
 7982TIP3   OH223888   5.145   2.851   0.340
 7982TIP3    H123889   5.099   2.815   0.265
 7982TIP3    H223890   5.133   2.786   0.409
 7983TIP3   OH223891   1.504   3.314   4.228
 7983TIP3    H123892   1.432   3.253   4.246
 7983TIP3    H223893   1.471   3.370   4.158
 7984TIP3   OH223894   1.762   6.550   5.369
 7984TIP3    H123895   1.707   6.604   5.312
 7984TIP3    H223896   1.709   6.473   5.387
 7985TIP3   OH223897   0.307   4.327   2.644
 7985TIP3    H123898   0.283   4.252   2.590
 7985TIP3    H223899   0.388   4.300   2.688
 7986TIP3   OH223900   7.260   5.499   3.438
 7986TIP3    H123901   7.329   5.519   3.500
 7986TIP3    H223902   7.249   5.404   3.443
 7987TIP3   OH223903   7.657   5.496   5.001
 7987TIP3    H123904   7.588   5.556   4.976
 7987TIP3    H223905   7.733   5.523   4.949
 7988TIP3   OH223906   0.697   3.134   2.403
 7988TIP3    H123907   0.680   3.077   2.479
 7988TIP3    H223908   0.627   3.113   2.341
 7989TIP3   OH223909   0.906   1.711   3.114
 7989TIP3    H123910   0.819   1.670   3.120
 7989TIP3    H223911   0.967   1.642   3.142
 7990TIP3   OH223912   1.815   7.499   3.091
 7990TIP3    H123913   1.804   7.427   3.028
 7990TIP3    H223914   1.796   7.459   3.176
 7991TIP3   OH223915   2.569   1.759   3.073
 7991TIP3    H123916   2.516   1.811   3.134
 7991TIP3    H223917   2.635   1.718   3.127
 7992TIP3   OH223918   1.120   3.445   2.873
 7992TIP3    H123919   1.163   3.529   2.884
 7992TIP3    H223920   1.069   3.454   2.793
 7993TIP3   OH223921   7.469   7.010   5.419
 7993TIP3    H123922   7.389   6.985   5.372
 7993TIP3    H223923   7.540   6.968   5.369
 7994TIP3   OH223924   7.236   3.817   5.529
 7994TIP3    H123925   7.294   3.792   5.601
 7994TIP3    H223926   7.152   3.775   5.550
 7995TIP3   OH223927   8.197   3.718   1.815
 7995TIP3    H123928   8.135   3.668   1.868
 7995TIP3    H223929   8.265   3.654   1.792
 7996TIP3   OH223930   4.939   2.421   3.351
 7996TIP3    H123931   4.854   2.457   3.323
 7996TIP3    H223932   4.985   2.497   3.388
 7997TIP3   OH223933   0.886   3.463   6.149
 7997TIP3    H123934   0.875   3.529   6.217
 7997TIP3    H223935   0.810   3.406   6.157
 7998TIP3   OH223936   0.888   6.400   6.726
 7998TIP3    H123937   0.949   6.472   6.740
 7998TIP3    H223938   0.810   6.441   6.688
 7999TIP3   OH223939   7.280   3.647   1.706
 7999TIP3    H123940   7.327   3.610   1.632
 7999TIP3    H223941   7.344   3.645   1.778
 8000TIP3   OH223942   1.588   3.679   5.097
 8000TIP3    H123943   1.658   3.624   5.133
 8000TIP3    H223944   1.510   3.623   5.099
 8001TIP3   OH223945   4.878   5.149   2.045
 8001TIP3    H123946   4.936   5.076   2.026
 8001TIP3    H223947   4.797   5.108   2.076
 8002TIP3   OH223948   0.612   6.325   2.485
 8002TIP3    H123949   0.690   6.296   2.531
 8002TIP3    H223950   0.539   6.283   2.532
 8003TIP3   OH223951   0.546   4.095   1.015
 8003TIP3    H123952   0.532   4.171   1.072
 8003TIP3    H223953   0.563   4.132   0.929
 8004TIP3   OH223954   6.818   7.260   5.443
 8004TIP3    H123955   6.840   7.206   5.519
 8004TIP3    H223956   6.724   7.275   5.451
 8005TIP3   OH223957   6.993   1.301   3.895
 8005TIP3    H123958   7.006   1.328   3.804
 8005TIP3    H223959   6.944   1.219   3.889
 8006TIP3   OH223960   1.076   2.361   0.540
 8006TIP3    H123961   1.062   2.407   0.623
 8006TIP3    H223962   1.167   2.331   0.544
 8007TIP3   OH223963   1.555   1.875   6.096
 8007TIP3    H123964   1.578   1.876   6.189
 8007TIP3    H223965   1.615   1.938   6.056
 8008TIP3   OH223966   2.486   3.594   2.418
 8008TIP3    H123967   2.486   3.654   2.493
 8008TIP3    H223968   2.396   3.560   2.415
 8009TIP3   OH223969   5.838   1.733   6.207
 8009TIP3    H123970   5.880   1.716   6.123
 8009TIP3    H223971   5.902   1.785   6.256
 8010TIP3   OH223972   5.711   3.172   2.503
 8010TIP3    H123973   5.670   3.127   2.430
 8010TIP3    H223974   5.638   3.202   2.557
 8011TIP3   OH223975   4.314   3.193   4.027
 8011TIP3    H123976   4.282   3.145   3.951
 8011TIP3    H223977   4.360   3.269   3.990
 8012TIP3   OH223978   4.351   0.354   4.650
 8012TIP3    H123979   4.293   0.294   4.602
 8012TIP3    H223980   4.318   0.353   4.740
 8013TIP3   OH223981   7.157   2.755   0.584
 8013TIP3    H123982   7.119   2.785   0.666
 8013TIP3    H223983   7.085   2.715   0.536
 8014TIP3   OH223984   5.067   4.657   1.776
 8014TIP3    H123985   5.106   4.661   1.688
 8014TIP3    H223986   5.117   4.590   1.822
 8015TIP3   OH223987   2.311   2.602   5.884
 8015TIP3    H123988   2.337   2.656   5.809
 8015TIP3    H223989   2.336   2.654   5.960
 8016TIP3   OH223990   4.619   3.784   1.773
 8016TIP3    H123991   4.559   3.722   1.732
 8016TIP3    H223992   4.562   3.847   1.817
 8017TIP3   OH223993   0.202   6.046   1.264
 8017TIP3    H123994   0.125   5.994   1.284
 8017TIP3    H223995   0.273   6.005   1.312
 8018TIP3   OH223996   6.541   6.852   3.632
 8018TIP3    H123997   6.598   6.884   3.561
 8018TIP3    H223998   6.545   6.757   3.624
 8019TIP3   OH223999   6.957   3.705   5.537
 8019TIP3    H124000   6.929   3.783   5.489
 8019TIP3    H224001   6.882   3.646   5.534
 8020TIP3   OH224002   1.867   4.811   5.005
 8020TIP3    H124003   1.925   4.876   5.044
 8020TIP3    H224004   1.780   4.833   5.037
 8021TIP3   OH224005   8.060   2.124   5.742
 8021TIP3    H124006   7.976   2.155   5.777
 8021TIP3    H224007   8.080   2.045   5.792
 8022TIP3   OH224008   6.536   5.004   3.917
 8022TIP3    H124009   6.629   5.024   3.906
 8022TIP3    H224010   6.532   4.959   4.001
 8023TIP3   OH224011   0.504   4.288   0.260
 8023TIP3    H124012   0.478   4.200   0.285
 8023TIP3    H224013   0.434   4.345   0.292
 8024TIP3   OH224014   6.731   6.883   5.658
 8024TIP3    H124015   6.725   6.978   5.671
 8024TIP3    H224016   6.662   6.864   5.594
 8025TIP3   OH224017   6.475   5.990   0.650
 8025TIP3    H124018   6.552   5.962   0.600
 8025TIP3    H224019   6.455   6.077   0.617
 8026TIP3   OH224020   1.657   2.158   5.456
 8026TIP3    H124021   1.744   2.198   5.464
 8026TIP3    H224022   1.667   2.091   5.388
 8027TIP3   OH224023   5.341   0.964   6.495
 8027TIP3    H124024   5.266   0.923   6.452
 8027TIP3    H224025   5.391   0.890   6.531
 8028TIP3   OH224026   4.248   4.049   6.360
 8028TIP3    H124027   4.305   4.026   6.286
 8028TIP3    H224028   4.295   4.019   6.437
 8029TIP3   OH224029   3.117   1.114   3.515
 8029TIP3    H124030   3.166   1.180   3.564
 8029TIP3    H224031   3.183   1.049   3.491
 8030TIP3   OH224032   4.201   0.965   2.062
 8030TIP3    H124033   4.277   1.011   2.098
 8030TIP3    H224034   4.183   1.011   1.980
 8031TIP3   OH224035   3.489   3.707   6.644
 8031TIP3    H124036   3.502   3.712   6.549
 8031TIP3    H224037   3.394   3.714   6.656
 8032TIP3   OH224038   7.751   6.787   5.567
 8032TIP3    H124039   7.675   6.779   5.625
 8032TIP3    H224040   7.734   6.723   5.498
 8033TIP3   OH224041   2.629   0.879   1.825
 8033TIP3    H124042   2.633   0.785   1.842
 8033TIP3    H224043   2.652   0.919   1.909
 8034TIP3   OH224044   6.205   4.360   6.153
 8034TIP3    H124045   6.287   4.337   6.110
 8034TIP3    H224046   6.137   4.332   6.091
 8035TIP3   OH224047   0.229   3.386   5.245
 8035TIP3    H124048   0.254   3.451   5.180
 8035TIP3    H224049   0.247   3.302   5.204
 8036TIP3   OH224050   6.305   5.110   4.270
 8036TIP3    H124051   6.327   5.196   4.235
 8036TIP3    H224052   6.338   5.048   4.206
 8037TIP3   OH224053   2.128   5.622   2.007
 8037TIP3    H124054   2.143   5.565   2.082
 8037TIP3    H224055   2.214   5.658   1.986
 8038TIP3   OH224056   5.551   3.421   4.566
 8038TIP3    H124057   5.593   3.494   4.611
 8038TIP3    H224058   5.548   3.351   4.630
 8039TIP3   OH224059   7.323   0.571   5.293
 8039TIP3    H124060   7.304   0.567   5.386
 8039TIP3    H224061   7.386   0.642   5.284
 8040TIP3   OH224062   1.076   4.003   4.235
 8040TIP3    H124063   0.997   4.024   4.185
 8040TIP3    H224064   1.070   3.909   4.252
 8041TIP3   OH224065   4.150   0.312   3.692
 8041TIP3    H124066   4.153   0.237   3.752
 8041TIP3    H224067   4.215   0.374   3.727
 8042TIP3   OH224068   5.196   6.704   0.979
 8042TIP3    H124069   5.138   6.645   0.931
 8042TIP3    H224070   5.272   6.715   0.922
 8043TIP3   OH224071   2.372   5.428   2.498
 8043TIP3    H124072   2.419   5.468   2.425
 8043TIP3    H224073   2.295   5.387   2.458
 8044TIP3   OH224074   2.842   4.983   2.509
 8044TIP3    H124075   2.916   5.038   2.485
 8044TIP3    H224076   2.821   5.008   2.599
 8045TIP3   OH224077   0.780   0.343   1.008
 8045TIP3    H124078   0.839   0.318   0.937
 8045TIP3    H224079   0.813   0.428   1.038
 8046TIP3   OH224080   7.343   7.023   5.705
 8046TIP3    H124081   7.407   7.005   5.636
 8046TIP3    H224082   7.384   7.090   5.760
 8047TIP3   OH224083   1.009   6.902   3.745
 8047TIP3    H124084   1.050   6.822   3.712
 8047TIP3    H224085   0.950   6.871   3.814
 8048TIP3   OH224086   0.005   4.278   6.742
 8048TIP3    H124087  -0.052   4.270   6.818
 8048TIP3    H224088   0.082   4.324   6.774
 8049TIP3   OH224089   2.847   1.763   2.822
 8049TIP3    H124090   2.899   1.804   2.891
 8049TIP3    H224091   2.757   1.793   2.838
 8050TIP3   OH224092   4.656   4.794   6.167
 8050TIP3    H124093   4.611   4.871   6.134
 8050TIP3    H224094   4.627   4.723   6.111
 8051TIP3   OH224095   6.798   0.194   6.616
 8051TIP3    H124096   6.769   0.279   6.647
 8051TIP3    H224097   6.852   0.160   6.687
 8052TIP3   OH224098   5.183   1.389   0.311
 8052TIP3    H124099   5.219   1.300   0.307
 8052TIP3    H224100   5.093   1.376   0.341
 8053TIP3   OH224101   1.713   5.696   0.370
 8053TIP3    H124102   1.703   5.610   0.330
 8053TIP3    H224103   1.625   5.735   0.365
 8054TIP3   OH224104   8.262   4.165   1.496
 8054TIP3    H124105   8.338   4.211   1.532
 8054TIP3    H224106   8.235   4.105   1.564
 8055TIP3   OH224107   5.911   3.524   5.957
 8055TIP3    H124108   5.977   3.593   5.957
 8055TIP3    H224109   5.888   3.512   5.865
 8056TIP3   OH224110   6.471   4.542   4.098
 8056TIP3    H124111   6.518   4.509   4.174
 8056TIP3    H224112   6.437   4.464   4.055
 8057TIP3   OH224113   3.658   3.893   5.068
 8057TIP3    H124114   3.650   3.987   5.050
 8057TIP3    H224115   3.723   3.862   5.005
 8058TIP3   OH224116   5.414   2.741   3.897
 8058TIP3    H124117   5.507   2.762   3.906
 8058TIP3    H224118   5.399   2.671   3.960
 8059TIP3   OH224119   2.564   0.646   0.696
 8059TIP3    H124120   2.478   0.677   0.725
 8059TIP3    H224121   2.571   0.557   0.731
 8060TIP3   OH224122   2.871   6.770   0.740
 8060TIP3    H124123   2.809   6.699   0.723
 8060TIP3    H224124   2.851   6.836   0.674
 8061TIP3   OH224125   7.241   0.194   3.434
 8061TIP3    H124126   7.335   0.179   3.448
 8061TIP3    H224127   7.203   0.106   3.432
 8062TIP3   OH224128   7.302   5.338   3.043
 8062TIP3    H124129   7.352   5.337   3.125
 8062TIP3    H224130   7.360   5.381   2.980
 8063TIP3   OH224131   1.133   7.489   5.375
 8063TIP3    H124132   1.055   7.525   5.418
 8063TIP3    H224133   1.151   7.550   5.304
 8064TIP3   OH224134   3.578   5.552   3.597
 8064TIP3    H124135   3.558   5.516   3.511
 8064TIP3    H224136   3.546   5.487   3.659
 8065TIP3   OH224137   5.605   3.750   3.425
 8065TIP3    H124138   5.642   3.670   3.388
 8065TIP3    H224139   5.680   3.808   3.439
 8066TIP3   OH224140   4.402   4.057   6.133
 8066TIP3    H124141   4.463   4.129   6.113
 8066TIP3    H224142   4.435   3.983   6.083
 8067TIP3   OH224143   7.181   6.772   6.396
 8067TIP3    H124144   7.193   6.819   6.314
 8067TIP3    H224145   7.092   6.792   6.423
 8068TIP3   OH224146   3.295   6.026   3.698
 8068TIP3    H124147   3.354   6.091   3.736
 8068TIP3    H224148   3.215   6.032   3.750
 8069TIP3   OH224149   5.943   2.038   6.176
 8069TIP3    H124150   6.007   2.108   6.186
 8069TIP3    H224151   5.943   1.993   6.260
 8070TIP3   OH224152   0.209   5.446   2.725
 8070TIP3    H124153   0.260   5.433   2.645
 8070TIP3    H224154   0.121   5.414   2.703
 8071TIP3   OH224155   0.951   2.174   6.703
 8071TIP3    H124156   1.036   2.171   6.659
 8071TIP3    H224157   0.910   2.090   6.680
 8072TIP3   OH224158   3.095   6.880   1.110
 8072TIP3    H124159   3.135   6.800   1.145
 8072TIP3    H224160   3.078   6.934   1.187
 8073TIP3   OH224161   2.287   5.806   0.729
 8073TIP3    H124162   2.264   5.882   0.676
 8073TIP3    H224163   2.260   5.731   0.675
 8074TIP3   OH224164   5.588   1.211   1.075
 8074TIP3    H124165   5.672   1.256   1.084
 8074TIP3    H224166   5.584   1.184   0.984
 8075TIP3   OH224167   0.279   0.088   3.573
 8075TIP3    H124168   0.222   0.113   3.500
 8075TIP3    H224169   0.228   0.025   3.623
 8076TIP3   OH224170   0.469   6.857   3.044
 8076TIP3    H124171   0.479   6.844   2.949
 8076TIP3    H224172   0.399   6.922   3.052
 8077TIP3   OH224173   5.318   3.667   2.007
 8077TIP3    H124174   5.259   3.605   2.051
 8077TIP3    H224175   5.355   3.720   2.078
 8078TIP3   OH224176   3.286   4.498   1.786
 8078TIP3    H124177   3.372   4.461   1.765
 8078TIP3    H224178   3.224   4.434   1.751
 8079TIP3   OH224179   7.404   2.729   2.278
 8079TIP3    H124180   7.369   2.664   2.217
 8079TIP3    H224181   7.333   2.793   2.287
 8080TIP3   OH224182   2.579   4.456   1.937
 8080TIP3    H124183   2.517   4.521   1.969
 8080TIP3    H224184   2.581   4.469   1.842
 8081TIP3   OH224185   4.661   1.211   0.686
 8081TIP3    H124186   4.635   1.285   0.740
 8081TIP3    H224187   4.742   1.178   0.726
 8082TIP3   OH224188   7.517   3.595   1.879
 8082TIP3    H124189   7.539   3.515   1.927
 8082TIP3    H224190   7.541   3.666   1.938
 8083TIP3   OH224191   2.454   7.235   6.476
 8083TIP3    H124192   2.534   7.273   6.439
 8083TIP3    H224193   2.393   7.231   6.402
 8084TIP3   OH224194   2.798   5.894   6.238
 8084TIP3    H124195   2.850   5.816   6.255
 8084TIP3    H224196   2.856   5.967   6.262
 8085TIP3   OH224197   2.545   0.253   6.043
 8085TIP3    H124198   2.456   0.264   6.077
 8085TIP3    H224199   2.568   0.338   6.007
 8086TIP3   OH224200   0.109   0.944   5.151
 8086TIP3    H124201   0.043   0.895   5.200
 8086TIP3    H224202   0.084   1.036   5.163
 8087TIP3   OH224203   7.678   5.835   3.994
 8087TIP3    H124204   7.621   5.852   4.068
 8087TIP3    H224205   7.664   5.743   3.973
 8088TIP3   OH224206   4.022   2.783   0.417
 8088TIP3    H124207   4.085   2.712   0.424
 8088TIP3    H224208   4.064   2.857   0.461
 8089TIP3   OH224209   6.914   5.062   4.446
 8089TIP3    H124210   6.945   5.153   4.442
 8089TIP3    H224211   6.940   5.024   4.362
 8090TIP3   OH224212   2.025   4.566   3.089
 8090TIP3    H124213   2.009   4.504   3.160
 8090TIP3    H224214   2.021   4.652   3.131
 8091TIP3   OH224215   6.680   4.499   1.863
 8091TIP3    H124216   6.702   4.408   1.883
 8091TIP3    H224217   6.610   4.493   1.799
 8092TIP3   OH224218   1.100   2.721   5.269
 8092TIP3    H124219   1.073   2.792   5.327
 8092TIP3    H224220   1.025   2.707   5.211
 8093TIP3   OH224221   1.467   3.374   6.343
 8093TIP3    H124222   1.415   3.365   6.263
 8093TIP3    H224223   1.402   3.368   6.413
 8094TIP3   OH224224   0.783   7.088   6.433
 8094TIP3    H124225   0.781   6.993   6.429
 8094TIP3    H224226   0.863   7.109   6.481
 8095TIP3   OH224227   5.461   5.868   5.148
 8095TIP3    H124228   5.503   5.910   5.223
 8095TIP3    H224229   5.476   5.774   5.161
 8096TIP3   OH224230   7.445   0.360   3.095
 8096TIP3    H124231   7.490   0.276   3.103
 8096TIP3    H224232   7.513   0.425   3.114
 8097TIP3   OH224233   2.976   6.959   2.172
 8097TIP3    H124234   2.979   6.895   2.243
 8097TIP3    H224235   2.957   6.908   2.094
 8098TIP3   OH224236   4.463   5.976   6.464
 8098TIP3    H124237   4.411   5.910   6.420
 8098TIP3    H224238   4.510   6.021   6.394
 8099TIP3   OH224239   1.407   3.602   1.672
 8099TIP3    H124240   1.374   3.616   1.760
 8099TIP3    H224241   1.330   3.610   1.616
 8100TIP3   OH224242   2.381   2.814   1.212
 8100TIP3    H124243   2.372   2.753   1.139
 8100TIP3    H224244   2.303   2.799   1.266
 8101TIP3   OH224245   1.480   7.034   6.521
 8101TIP3    H124246   1.388   7.048   6.500
 8101TIP3    H224247   1.524   7.030   6.436
 8102TIP3   OH224248   2.362   4.749   4.645
 8102TIP3    H124249   2.270   4.761   4.621
 8102TIP3    H224250   2.361   4.731   4.739
 8103TIP3   OH224251   8.223   4.156   6.157
 8103TIP3    H124252   8.289   4.117   6.215
 8103TIP3    H224253   8.212   4.091   6.087
 8104TIP3   OH224254   7.115   3.975   5.244
 8104TIP3    H124255   7.154   3.987   5.330
 8104TIP3    H224256   7.189   3.980   5.183
 8105TIP3   OH224257   5.547   0.149   3.311
 8105TIP3    H124258   5.527   0.204   3.387
 8105TIP3    H224259   5.465   0.105   3.291
 8106TIP3   OH224260   6.131   4.205   0.264
 8106TIP3    H124261   6.162   4.293   0.289
 8106TIP3    H224262   6.046   4.221   0.222
 8107TIP3   OH224263   0.523   1.484   1.433
 8107TIP3    H124264   0.552   1.469   1.523
 8107TIP3    H224265   0.525   1.579   1.422
 8108TIP3   OH224266   5.584   1.294   5.692
 8108TIP3    H124267   5.595   1.368   5.752
 8108TIP3    H224268   5.618   1.219   5.741
 8109TIP3   OH224269   0.505   0.208   6.479
 8109TIP3    H124270   0.567   0.153   6.432
 8109TIP3    H224271   0.558   0.253   6.545
 8110TIP3   OH224272   3.464   1.756   2.045
 8110TIP3    H124273   3.381   1.737   2.000
 8110TIP3    H224274   3.446   1.734   2.137
 8111TIP3   OH224275   6.203   3.132   0.064
 8111TIP3    H124276   6.263   3.109   0.135
 8111TIP3    H224277   6.232   3.220   0.037
 8112TIP3   OH224278   1.123   2.742   1.336
 8112TIP3    H124279   1.096   2.824   1.294
 8112TIP3    H224280   1.101   2.754   1.428
 8113TIP3   OH224281   3.985   6.673   5.763
 8113TIP3    H124282   3.957   6.595   5.811
 8113TIP3    H224283   3.962   6.746   5.820
 8114TIP3   OH224284   6.515   2.134   3.420
 8114TIP3    H124285   6.568   2.072   3.471
 8114TIP3    H224286   6.579   2.192   3.380
 8115TIP3   OH224287   6.265   5.432   3.473
 8115TIP3    H124288   6.248   5.351   3.520
 8115TIP3    H224289   6.266   5.499   3.541
 8116TIP3   OH224290   7.399   7.122   4.275
 8116TIP3    H124291   7.426   7.030   4.282
 8116TIP3    H224292   7.481   7.170   4.262
 8117TIP3   OH224293   1.487   1.030   0.269
 8117TIP3    H124294   1.462   0.939   0.288
 8117TIP3    H224295   1.568   1.022   0.219
 8118TIP3   OH224296   1.120   1.707   1.850
 8118TIP3    H124297   1.085   1.653   1.921
 8118TIP3    H224298   1.210   1.725   1.875
 8119TIP3   OH224299   0.025   0.562   1.876
 8119TIP3    H124300   0.093   0.620   1.911
 8119TIP3    H224301  -0.023   0.532   1.953
 8120TIP3   OH224302   7.463   7.438   6.656
 8120TIP3    H124303   7.558   7.449   6.649
 8120TIP3    H224304   7.427   7.495   6.588
 8121TIP3   OH224305   3.979   4.569   4.345
 8121TIP3    H124306   3.912   4.610   4.400
 8121TIP3    H224307   4.034   4.520   4.406
 8122TIP3   OH224308   4.867   0.454   4.629
 8122TIP3    H124309   4.793   0.396   4.645
 8122TIP3    H224310   4.846   0.497   4.546
 8123TIP3   OH224311   7.387   5.906   1.797
 8123TIP3    H124312   7.369   5.959   1.718
 8123TIP3    H224313   7.445   5.837   1.766
 8124TIP3   OH224314   3.977   6.849   4.937
 8124TIP3    H124315   4.014   6.883   5.019
 8124TIP3    H224316   4.050   6.807   4.892
 8125TIP3   OH224317   4.355   5.395   3.407
 8125TIP3    H124318   4.288   5.384   3.340
 8125TIP3    H224319   4.437   5.399   3.357
 8126TIP3   OH224320   2.547   5.478   6.547
 8126TIP3    H124321   2.530   5.572   6.541
 8126TIP3    H224322   2.642   5.472   6.559
 8127TIP3   OH224323   7.942   2.554   5.751
 8127TIP3    H124324   7.938   2.647   5.773
 8127TIP3    H224325   7.906   2.549   5.662
 8128TIP3   OH224326   7.879   7.270   2.989
 8128TIP3    H124327   7.890   7.365   2.996
 8128TIP3    H224328   7.891   7.252   2.895
 8129TIP3   OH224329   5.622   6.279   3.578
 8129TIP3    H124330   5.663   6.218   3.516
 8129TIP3    H224331   5.696   6.316   3.627
 8130TIP3   OH224332   1.544   5.751   3.064
 8130TIP3    H124333   1.547   5.663   3.103
 8130TIP3    H224334   1.631   5.764   3.027
 8131TIP3   OH224335   3.027   7.717   5.947
 8131TIP3    H124336   3.053   7.732   5.856
 8131TIP3    H224337   3.018   7.622   5.955
 8132TIP3   OH224338   3.790   4.834   1.649
 8132TIP3    H124339   3.746   4.789   1.721
 8132TIP3    H224340   3.878   4.852   1.683
 8133TIP3   OH224341   1.878   5.146   0.600
 8133TIP3    H124342   1.836   5.061   0.601
 8133TIP3    H224343   1.936   5.143   0.523
 8134TIP3   OH224344   1.189   3.340   6.393
 8134TIP3    H124345   1.146   3.389   6.463
 8134TIP3    H224346   1.154   3.251   6.401
 8135TIP3   OH224347   0.485   3.515   2.518
 8135TIP3    H124348   0.573   3.478   2.518
 8135TIP3    H224349   0.441   3.476   2.593
 8136TIP3   OH224350   5.993   1.652   3.495
 8136TIP3    H124351   5.939   1.668   3.417
 8136TIP3    H224352   6.035   1.568   3.478
 8137TIP3   OH224353   0.396   2.255   4.970
 8137TIP3    H124354   0.362   2.255   4.881
 8137TIP3    H224355   0.423   2.164   4.985
 8138TIP3   OH224356   2.797   4.733   0.684
 8138TIP3    H124357   2.732   4.777   0.738
 8138TIP3    H224358   2.807   4.646   0.723
 8139TIP3   OH224359   0.728   6.183   4.701
 8139TIP3    H124360   0.721   6.244   4.628
 8139TIP3    H224361   0.663   6.214   4.764
 8140TIP3   OH224362   8.018   6.972   1.108
 8140TIP3    H124363   8.066   6.981   1.025
 8140TIP3    H224364   8.024   6.878   1.128
 8141TIP3   OH224365   1.368   5.255   6.121
 8141TIP3    H124366   1.432   5.326   6.123
 8141TIP3    H224367   1.417   5.179   6.091
 8142TIP3   OH224368   1.015   5.951   4.572
 8142TIP3    H124369   0.999   6.009   4.646
 8142TIP3    H224370   0.930   5.910   4.554
 8143TIP3   OH224371   6.348   2.075   0.050
 8143TIP3    H124372   6.441   2.093   0.038
 8143TIP3    H224373   6.304   2.132  -0.012
 8144TIP3   OH224374   1.208   0.910   0.484
 8144TIP3    H124375   1.217   0.990   0.536
 8144TIP3    H224376   1.205   0.839   0.549
 8145TIP3   OH224377   7.638   6.954   1.184
 8145TIP3    H124378   7.621   6.923   1.095
 8145TIP3    H224379   7.551   6.974   1.220
 8146TIP3   OH224380   5.484   5.664   6.486
 8146TIP3    H124381   5.401   5.635   6.524
 8146TIP3    H224382   5.541   5.588   6.490
 8147TIP3   OH224383   6.668   6.618   1.056
 8147TIP3    H124384   6.741   6.642   1.000
 8147TIP3    H224385   6.702   6.627   1.145
 8148TIP3   OH224386   3.191   3.284   1.832
 8148TIP3    H124387   3.275   3.305   1.873
 8148TIP3    H224388   3.127   3.288   1.904
 8149TIP3   OH224389   6.732   3.759   0.288
 8149TIP3    H124390   6.686   3.689   0.241
 8149TIP3    H224391   6.722   3.836   0.233
 8150TIP3   OH224392   1.405   3.057   0.909
 8150TIP3    H124393   1.328   3.009   0.939
 8150TIP3    H224394   1.380   3.092   0.823
 8151TIP3   OH224395   3.316   7.562   3.565
 8151TIP3    H124396   3.240   7.514   3.532
 8151TIP3    H224397   3.377   7.564   3.491
 8152TIP3   OH224398   7.624   5.942   3.500
 8152TIP3    H124399   7.699   5.884   3.486
 8152TIP3    H224400   7.620   5.996   3.421
 8153TIP3   OH224401   2.441   3.115   4.890
 8153TIP3    H124402   2.534   3.136   4.898
 8153TIP3    H224403   2.434   3.025   4.921
 8154TIP3   OH224404   1.279   6.273   3.492
 8154TIP3    H124405   1.317   6.280   3.404
 8154TIP3    H224406   1.195   6.317   3.485
 8155TIP3   OH224407   6.017   4.114   2.635
 8155TIP3    H124408   6.089   4.172   2.658
 8155TIP3    H224409   5.996   4.069   2.717
 8156TIP3   OH224410   5.048   0.340   0.313
 8156TIP3    H124411   5.002   0.423   0.304
 8156TIP3    H224412   5.015   0.287   0.240
 8157TIP3   OH224413   0.826   5.653   4.225
 8157TIP3    H124414   0.901   5.593   4.229
 8157TIP3    H224415   0.861   5.738   4.252
 8158TIP3   OH224416   7.315   6.320   0.305
 8158TIP3    H124417   7.224   6.289   0.307
 8158TIP3    H224418   7.328   6.361   0.391
 8159TIP3   OH224419   2.845   7.200   0.334
 8159TIP3    H124420   2.922   7.163   0.291
 8159TIP3    H224421   2.867   7.291   0.349
 8160TIP3   OH224422   4.151   1.597   5.571
 8160TIP3    H124423   4.188   1.534   5.633
 8160TIP3    H224424   4.163   1.682   5.613
 8161TIP3   OH224425   1.010   1.283   6.111
 8161TIP3    H124426   1.037   1.335   6.186
 8161TIP3    H224427   0.917   1.303   6.100
 8162TIP3   OH224428   2.004   5.521   4.455
 8162TIP3    H124429   1.958   5.477   4.383
 8162TIP3    H224430   2.090   5.542   4.420
 8163TIP3   OH224431   4.621   5.471   0.722
 8163TIP3    H124432   4.695   5.413   0.736
 8163TIP3    H224433   4.545   5.413   0.716
 8164TIP3   OH224434   4.735   0.268   5.141
 8164TIP3    H124435   4.714   0.304   5.227
 8164TIP3    H224436   4.770   0.181   5.159
 8165TIP3   OH224437   1.445   0.350   4.273
 8165TIP3    H124438   1.435   0.270   4.223
 8165TIP3    H224439   1.443   0.420   4.207
 8166TIP3   OH224440   8.045   2.210   4.484
 8166TIP3    H124441   8.094   2.285   4.449
 8166TIP3    H224442   7.975   2.250   4.536
 8167TIP3   OH224443   2.290   2.189   6.513
 8167TIP3    H124444   2.294   2.153   6.602
 8167TIP3    H224445   2.381   2.206   6.490
 8168TIP3   OH224446   4.588   6.023   0.591
 8168TIP3    H124447   4.548   6.055   0.672
 8168TIP3    H224448   4.596   5.929   0.605
 8169TIP3   OH224449   6.491   0.552   5.534
 8169TIP3    H124450   6.487   0.603   5.615
 8169TIP3    H224451   6.519   0.615   5.467
 8170TIP3   OH224452   3.982   5.262   2.315
 8170TIP3    H124453   4.022   5.320   2.380
 8170TIP3    H224454   4.002   5.302   2.231
 8171TIP3   OH224455   0.249   0.410   1.405
 8171TIP3    H124456   0.290   0.484   1.361
 8171TIP3    H224457   0.268   0.335   1.349
 8172TIP3   OH224458   7.966   4.191   0.730
 8172TIP3    H124459   7.994   4.106   0.763
 8172TIP3    H224460   7.886   4.210   0.778
 8173TIP3   OH224461   0.512   5.674   6.345
 8173TIP3    H124462   0.565   5.729   6.288
 8173TIP3    H224463   0.424   5.713   6.342
 8174TIP3   OH224464   6.765   2.377   5.101
 8174TIP3    H124465   6.804   2.289   5.094
 8174TIP3    H224466   6.777   2.415   5.014
 8175TIP3   OH224467   5.622   7.312   4.163
 8175TIP3    H124468   5.623   7.386   4.224
 8175TIP3    H224469   5.603   7.236   4.218
 8176TIP3   OH224470   7.076   7.749   2.552
 8176TIP3    H124471   7.092   7.659   2.524
 8176TIP3    H224472   6.983   7.764   2.535
 8177TIP3   OH224473   5.485   3.291   6.372
 8177TIP3    H124474   5.429   3.322   6.300
 8177TIP3    H224475   5.503   3.200   6.350
 8178TIP3   OH224476   0.519   0.433   6.327
 8178TIP3    H124477   0.478   0.439   6.240
 8178TIP3    H224478   0.481   0.354   6.366
 8179TIP3   OH224479   5.772   5.732   2.194
 8179TIP3    H124480   5.738   5.661   2.139
 8179TIP3    H224481   5.849   5.764   2.147
 8180TIP3   OH224482   6.625   4.712   6.256
 8180TIP3    H124483   6.599   4.686   6.345
 8180TIP3    H224484   6.717   4.737   6.265
 8181TIP3   OH224485   3.033   4.805   2.806
 8181TIP3    H124486   3.112   4.853   2.832
 8181TIP3    H224487   2.969   4.826   2.874
 8182TIP3   OH224488   4.001   1.796   0.740
 8182TIP3    H124489   4.000   1.765   0.830
 8182TIP3    H224490   3.910   1.818   0.721
 8183TIP3   OH224491   3.087   7.556   1.259
 8183TIP3    H124492   3.136   7.561   1.341
 8183TIP3    H224493   3.154   7.539   1.192
 8184TIP3   OH224494   2.040   1.184   5.261
 8184TIP3    H124495   2.074   1.249   5.200
 8184TIP3    H224496   1.965   1.145   5.215
 8185TIP3   OH224497   0.875   1.204   0.591
 8185TIP3    H124498   0.922   1.198   0.674
 8185TIP3    H224499   0.790   1.163   0.608
 8186TIP3   OH224500   7.317   3.903   1.983
 8186TIP3    H124501   7.257   3.847   1.933
 8186TIP3    H224502   7.276   3.990   1.980
 8187TIP3   OH224503   0.882   1.060   1.069
 8187TIP3    H124504   0.927   0.978   1.091
 8187TIP3    H224505   0.795   1.031   1.038
 8188TIP3   OH224506   3.242   6.995   5.837
 8188TIP3    H124507   3.270   6.903   5.843
 8188TIP3    H224508   3.254   7.029   5.926
 8189TIP3   OH224509   4.788   3.620   3.385
 8189TIP3    H124510   4.796   3.560   3.459
 8189TIP3    H224511   4.694   3.633   3.374
 8190TIP3   OH224512   3.293   5.572   5.864
 8190TIP3    H124513   3.286   5.659   5.824
 8190TIP3    H224514   3.316   5.590   5.955
 8191TIP3   OH224515   7.805   4.571   4.656
 8191TIP3    H124516   7.824   4.662   4.677
 8191TIP3    H224517   7.879   4.521   4.692
 8192TIP3   OH224518   4.374   4.278   6.668
 8192TIP3    H124519   4.296   4.227   6.690
 8192TIP3    H224520   4.345   4.336   6.598
 8193TIP3   OH224521   6.624   6.994   0.187
 8193TIP3    H124522   6.534   6.994   0.154
 8193TIP3    H224523   6.617   7.029   0.276
 8194TIP3   OH224524   0.359   4.349   3.586
 8194TIP3    H124525   0.317   4.325   3.669
 8194TIP3    H224526   0.439   4.296   3.584
 8195TIP3   OH224527   5.258   3.141   3.056
 8195TIP3    H124528   5.208   3.069   3.016
 8195TIP3    H224529   5.342   3.139   3.011
 8196TIP3   OH224530   1.671   1.819  -0.003
 8196TIP3    H124531   1.591   1.846  -0.047
 8196TIP3    H224532   1.642   1.757   0.064
 8197TIP3   OH224533   3.223   2.082   3.159
 8197TIP3    H124534   3.263   2.077   3.072
 8197TIP3    H224535   3.293   2.054   3.219
 8198TIP3   OH224536   1.656   4.625   3.811
 8198TIP3    H124537   1.687   4.565   3.880
 8198TIP3    H224538   1.582   4.670   3.850
 8199TIP3   OH224539   2.215   7.464   3.998
 8199TIP3    H124540   2.201   7.378   3.959
 8199TIP3    H224541   2.138   7.478   4.052
 8200TIP3   OH224542   6.573   6.461   6.194
 8200TIP3    H124543   6.634   6.472   6.121
 8200TIP3    H224544   6.578   6.368   6.216
 8201TIP3   OH224545   0.455   7.391   0.846
 8201TIP3    H124546   0.493   7.416   0.931
 8201TIP3    H224547   0.531   7.372   0.791
 8202TIP3   OH224548   5.910   2.262   4.200
 8202TIP3    H124549   5.891   2.283   4.109
 8202TIP3    H224550   6.005   2.248   4.202
 8203TIP3   OH224551   5.898   1.243   1.204
 8203TIP3    H124552   5.872   1.300   1.133
 8203TIP3    H224553   5.856   1.280   1.282
 8204TIP3   OH224554   4.001   3.103   3.345
 8204TIP3    H124555   3.984   3.189   3.306
 8204TIP3    H224556   3.982   3.041   3.275
 8205TIP3   OH224557   0.773   4.256   1.688
 8205TIP3    H124558   0.844   4.276   1.749
 8205TIP3    H224559   0.694   4.257   1.741
 8206TIP3   OH224560   5.718   7.257   0.044
 8206TIP3    H124561   5.783   7.226  -0.018
 8206TIP3    H224562   5.653   7.301  -0.011
 8207TIP3   OH224563   5.932   5.041   3.017
 8207TIP3    H124564   5.837   5.029   3.015
 8207TIP3    H224565   5.961   5.013   2.930
 8208TIP3   OH224566   4.952   4.049   4.390
 8208TIP3    H124567   5.004   3.985   4.342
 8208TIP3    H224568   4.920   4.110   4.323
 8209TIP3   OH224569   5.604   6.600   5.017
 8209TIP3    H124570   5.524   6.626   4.972
 8209TIP3    H224571   5.574   6.569   5.103
 8210TIP3   OH224572   3.187   1.518   2.699
 8210TIP3    H124573   3.129   1.494   2.771
 8210TIP3    H224574   3.129   1.522   2.623
 8211TIP3   OH224575   1.746   7.804   2.498
 8211TIP3    H124576   1.786   7.816   2.583
 8211TIP3    H224577   1.653   7.822   2.512
 8212TIP3   OH224578   4.904   0.127   5.571
 8212TIP3    H124579   4.951   0.059   5.523
 8212TIP3    H224580   4.812   0.100   5.568
 8213TIP3   OH224581   6.281   0.677   0.748
 8213TIP3    H124582   6.326   0.737   0.808
 8213TIP3    H224583   6.351   0.622   0.713
 8214TIP3   OH224584   3.794   2.545   4.163
 8214TIP3    H124585   3.840   2.623   4.194
 8214TIP3    H224586   3.810   2.479   4.230
 8215TIP3   OH224587   7.020   0.360   2.729
 8215TIP3    H124588   7.004   0.400   2.814
 8215TIP3    H224589   7.024   0.266   2.746
 8216TIP3   OH224590   0.850   4.680   3.560
 8216TIP3    H124591   0.897   4.681   3.643
 8216TIP3    H224592   0.882   4.757   3.513
 8217TIP3   OH224593   2.658   2.848   5.575
 8217TIP3    H124594   2.645   2.902   5.653
 8217TIP3    H224595   2.589   2.781   5.580
 8218TIP3   OH224596   2.164   2.091   1.163
 8218TIP3    H124597   2.224   2.022   1.136
 8218TIP3    H224598   2.120   2.056   1.240
 8219TIP3   OH224599   6.074   2.922   0.607
 8219TIP3    H124600   6.022   2.981   0.552
 8219TIP3    H224601   6.025   2.840   0.607
 8220TIP3   OH224602   4.348   7.797   5.874
 8220TIP3    H124603   4.377   7.807   5.784
 8220TIP3    H224604   4.387   7.715   5.904
 8221TIP3   OH224605   6.875   4.356   5.865
 8221TIP3    H124606   6.793   4.308   5.874
 8221TIP3    H224607   6.850   4.440   5.825
 8222TIP3   OH224608   1.784   1.725   6.123
 8222TIP3    H124609   1.696   1.760   6.140
 8222TIP3    H224610   1.809   1.765   6.039
 8223TIP3   OH224611   5.203   3.690   5.972
 8223TIP3    H124612   5.206   3.769   5.919
 8223TIP3    H224613   5.220   3.619   5.911
 8224TIP3   OH224614   1.310   7.509   0.213
 8224TIP3    H124615   1.309   7.460   0.131
 8224TIP3    H224616   1.257   7.457   0.273
 8225TIP3   OH224617   5.277   4.496   2.045
 8225TIP3    H124618   5.250   4.433   2.112
 8225TIP3    H224619   5.360   4.462   2.012
 8226TIP3   OH224620   2.614   3.693   1.289
 8226TIP3    H124621   2.540   3.743   1.322
 8226TIP3    H224622   2.580   3.647   1.212
 8227TIP3   OH224623   1.828   6.101   4.113
 8227TIP3    H124624   1.834   6.012   4.147
 8227TIP3    H224625   1.912   6.141   4.135
 8228TIP3   OH224626   5.034   0.979   2.913
 8228TIP3    H124627   4.977   0.903   2.902
 8228TIP3    H224628   5.026   1.028   2.830
 8229TIP3   OH224629   6.541   3.608   4.093
 8229TIP3    H124630   6.622   3.601   4.144
 8229TIP3    H224631   6.562   3.569   4.009
 8230TIP3   OH224632   1.905   4.352   2.748
 8230TIP3    H124633   1.866   4.265   2.745
 8230TIP3    H224634   1.874   4.390   2.831
 8231TIP3   OH224635   4.933   2.984   0.191
 8231TIP3    H124636   4.969   3.063   0.151
 8231TIP3    H224637   4.997   2.958   0.256
 8232TIP3   OH224638   5.759   0.061   2.841
 8232TIP3    H124639   5.696   0.114   2.793
 8232TIP3    H224640   5.842   0.109   2.832
 8233TIP3   OH224641   3.940   7.324   4.935
 8233TIP3    H124642   3.920   7.383   5.008
 8233TIP3    H224643   4.026   7.351   4.906
 8234TIP3   OH224644   3.378   2.892   4.540
 8234TIP3    H124645   3.354   2.984   4.547
 8234TIP3    H224646   3.294   2.845   4.547
 8235TIP3   OH224647   6.932   6.940   6.662
 8235TIP3    H124648   6.994   7.012   6.649
 8235TIP3    H224649   6.894   6.925   6.576
 8236TIP3   OH224650   3.318   3.391   5.082
 8236TIP3    H124651   3.348   3.411   5.171
 8236TIP3    H224652   3.256   3.461   5.062
 8237TIP3   OH224653   6.640   3.103   5.853
 8237TIP3    H124654   6.571   3.038   5.843
 8237TIP3    H224655   6.654   3.137   5.765
 8238TIP3   OH224656   7.041   0.820   5.196
 8238TIP3    H124657   7.033   0.736   5.151
 8238TIP3    H224658   7.133   0.846   5.183
 8239TIP3   OH224659   2.015   6.458   4.161
 8239TIP3    H124660   2.066   6.536   4.143
 8239TIP3    H224661   1.925   6.483   4.144
 8240TIP3   OH224662   4.014   6.289   1.169
 8240TIP3    H124663   4.032   6.264   1.260
 8240TIP3    H224664   3.971   6.375   1.176
 8241TIP3   OH224665   4.125   6.248   6.444
 8241TIP3    H124666   4.220   6.260   6.451
 8241TIP3    H224667   4.115   6.159   6.410
 8242TIP3   OH224668   7.696   5.871   6.206
 8242TIP3    H124669   7.670   5.799   6.263
 8242TIP3    H224670   7.718   5.830   6.123
 8243TIP3   OH224671   4.530   6.579   4.718
 8243TIP3    H124672   4.471   6.563   4.792
 8243TIP3    H224673   4.610   6.532   4.740
 8244TIP3   OH224674   1.350   2.873   6.329
 8244TIP3    H124675   1.394   2.793   6.299
 8244TIP3    H224676   1.377   2.881   6.421
 8245TIP3   OH224677   3.807   2.983   4.904
 8245TIP3    H124678   3.804   2.986   5.000
 8245TIP3    H224679   3.817   3.074   4.877
 8246TIP3   OH224680   5.103   3.598   0.633
 8246TIP3    H124681   5.095   3.692   0.645
 8246TIP3    H224682   5.041   3.577   0.563
 8247TIP3   OH224683   2.382   7.611   1.165
 8247TIP3    H124684   2.308   7.594   1.108
 8247TIP3    H224685   2.445   7.658   1.110
 8248TIP3   OH224686   1.685   0.762   0.029
 8248TIP3    H124687   1.765   0.716   0.001
 8248TIP3    H224688   1.717   0.844   0.067
 8249TIP3   OH224689   1.761   7.754   5.908
 8249TIP3    H124690   1.667   7.768   5.896
 8249TIP3    H224691   1.802   7.833   5.875
 8250TIP3   OH224692   7.721   7.718   3.081
 8250TIP3    H124693   7.655   7.693   3.016
 8250TIP3    H224694   7.747   7.635   3.121
 8251TIP3   OH224695   3.321   2.261   1.868
 8251TIP3    H124696   3.367   2.311   1.936
 8251TIP3    H224697   3.279   2.327   1.814
 8252TIP3   OH224698   5.917   0.417   2.588
 8252TIP3    H124699   5.958   0.488   2.538
 8252TIP3    H224700   5.832   0.452   2.614
 8253TIP3   OH224701   7.302   3.806   2.255
 8253TIP3    H124702   7.280   3.844   2.340
 8253TIP3    H224703   7.398   3.810   2.252
 8254TIP3   OH224704   7.463   5.007   6.219
 8254TIP3    H124705   7.374   4.997   6.186
 8254TIP3    H224706   7.456   5.076   6.285
 8255TIP3   OH224707   6.301   3.383   3.259
 8255TIP3    H124708   6.369   3.334   3.213
 8255TIP3    H224709   6.305   3.471   3.222
 8256TIP3   OH224710   5.868   2.793   1.958
 8256TIP3    H124711   5.935   2.753   1.903
 8256TIP3    H224712   5.859   2.882   1.924
 8257TIP3   OH224713   7.762   0.948   3.743
 8257TIP3    H124714   7.797   0.964   3.655
 8257TIP3    H224715   7.721   0.862   3.738
 8258TIP3   OH224716   0.845   7.536   3.978
 8258TIP3    H124717   0.856   7.628   3.957
 8258TIP3    H224718   0.918   7.492   3.934
 8259TIP3   OH224719   6.922   5.330   0.053
 8259TIP3    H124720   6.984   5.402   0.066
 8259TIP3    H224721   6.929   5.278   0.132
 8260TIP3   OH224722   7.626   2.196   5.151
 8260TIP3    H124723   7.617   2.112   5.105
 8260TIP3    H224724   7.541   2.239   5.141
 8261TIP3   OH224725   4.787   5.538   5.294
 8261TIP3    H124726   4.819   5.533   5.204
 8261TIP3    H224727   4.821   5.460   5.337
 8262TIP3   OH224728   6.625   2.047   2.885
 8262TIP3    H124729   6.654   2.127   2.928
 8262TIP3    H224730   6.635   2.064   2.791
 8263TIP3   OH224731   3.412   5.324   1.833
 8263TIP3    H124732   3.407   5.406   1.783
 8263TIP3    H224733   3.435   5.258   1.768
 8264TIP3   OH224734   4.660   5.693   6.270
 8264TIP3    H124735   4.754   5.695   6.287
 8264TIP3    H224736   4.621   5.668   6.354
 8265TIP3   OH224737   7.868   1.053   5.745
 8265TIP3    H124738   7.773   1.066   5.749
 8265TIP3    H224739   7.880   0.960   5.762
 8266TIP3   OH224740   0.104   7.179   4.696
 8266TIP3    H124741   0.050   7.245   4.740
 8266TIP3    H224742   0.171   7.156   4.760
 8267TIP3   OH224743   0.473   2.313   4.394
 8267TIP3    H124744   0.483   2.375   4.466
 8267TIP3    H224745   0.413   2.356   4.333
 8268TIP3   OH224746   4.011   4.118   1.226
 8268TIP3    H124747   4.083   4.182   1.224
 8268TIP3    H224748   3.994   4.098   1.134
 8269TIP3   OH224749   5.064   6.867   5.263
 8269TIP3    H124750   5.057   6.838   5.354
 8269TIP3    H224751   4.976   6.855   5.227
 8270TIP3   OH224752   6.851   1.584   0.185
 8270TIP3    H124753   6.762   1.612   0.162
 8270TIP3    H224754   6.907   1.627   0.121
 8271TIP3   OH224755   7.010   0.164   2.182
 8271TIP3    H124756   6.940   0.216   2.223
 8271TIP3    H224757   7.044   0.110   2.254
 8272TIP3   OH224758   1.512   4.368   2.006
 8272TIP3    H124759   1.420   4.344   2.017
 8272TIP3    H224760   1.561   4.288   2.023
 8273TIP3   OH224761   7.114   6.213   0.581
 8273TIP3    H124762   7.112   6.119   0.563
 8273TIP3    H224763   7.024   6.243   0.566
 8274TIP3   OH224764   4.577   7.515   4.250
 8274TIP3    H124765   4.521   7.535   4.324
 8274TIP3    H224766   4.534   7.556   4.175
 8275TIP3   OH224767   1.658   7.267   1.370
 8275TIP3    H124768   1.708   7.248   1.449
 8275TIP3    H224769   1.716   7.241   1.298
 8276TIP3   OH224770   3.879   7.062   5.645
 8276TIP3    H124771   3.809   7.035   5.705
 8276TIP3    H224772   3.939   7.113   5.700
 8277TIP3   OH224773   7.826   4.335   6.616
 8277TIP3    H124774   7.815   4.400   6.547
 8277TIP3    H224775   7.864   4.384   6.689
 8278TIP3   OH224776   2.180   7.262   5.366
 8278TIP3    H124777   2.196   7.258   5.460
 8278TIP3    H224778   2.216   7.180   5.332
 8279TIP3   OH224779   4.476   4.934   3.417
 8279TIP3    H124780   4.430   4.953   3.335
 8279TIP3    H224781   4.446   5.000   3.478
 8280TIP3   OH224782   7.870   4.631   3.455
 8280TIP3    H124783   7.916   4.562   3.502
 8280TIP3    H224784   7.873   4.707   3.514
 8281TIP3   OH224785   2.323   3.517   1.991
 8281TIP3    H124786   2.315   3.563   1.908
 8281TIP3    H224787   2.397   3.558   2.034
 8282TIP3   OH224788   3.263   0.832   5.922
 8282TIP3    H124789   3.222   0.843   6.008
 8282TIP3    H224790   3.334   0.895   5.921
 8283TIP3   OH224791   3.508   7.482   0.054
 8283TIP3    H124792   3.568   7.407   0.057
 8283TIP3    H224793   3.504   7.506  -0.038
 8284TIP3   OH224794   8.134   4.673   0.737
 8284TIP3    H124795   8.043   4.687   0.711
 8284TIP3    H224796   8.167   4.761   0.755
 8285TIP3   OH224797   4.455   1.989   5.715
 8285TIP3    H124798   4.415   1.935   5.784
 8285TIP3    H224799   4.521   2.040   5.761
 8286TIP3   OH224800   6.784   6.236   6.557
 8286TIP3    H124801   6.743   6.292   6.623
 8286TIP3    H224802   6.864   6.204   6.599
 8287TIP3   OH224803   3.457   0.111   3.436
 8287TIP3    H124804   3.370   0.075   3.415
 8287TIP3    H224805   3.460   0.193   3.388
 8288TIP3   OH224806   6.662   1.452   6.709
 8288TIP3    H124807   6.689   1.430   6.620
 8288TIP3    H224808   6.657   1.368   6.755
 8289TIP3   OH224809   1.307   1.846   6.618
 8289TIP3    H124810   1.322   1.939   6.603
 8289TIP3    H224811   1.311   1.807   6.531
 8290TIP3   OH224812   1.834   1.729   4.625
 8290TIP3    H124813   1.886   1.801   4.662
 8290TIP3    H224814   1.899   1.663   4.601
 8291TIP3   OH224815   4.182   4.426   2.470
 8291TIP3    H124816   4.149   4.336   2.468
 8291TIP3    H224817   4.112   4.477   2.428
 8292TIP3   OH224818   6.304   6.628   3.099
 8292TIP3    H124819   6.316   6.598   3.009
 8292TIP3    H224820   6.357   6.568   3.151
 8293TIP3   OH224821   7.487   7.467   2.541
 8293TIP3    H124822   7.511   7.538   2.600
 8293TIP3    H224823   7.535   7.391   2.573
 8294TIP3   OH224824   3.341   4.571   2.733
 8294TIP3    H124825   3.262   4.603   2.689
 8294TIP3    H224826   3.378   4.507   2.673
 8295TIP3   OH224827   5.420   2.537   6.163
 8295TIP3    H124828   5.347   2.481   6.139
 8295TIP3    H224829   5.474   2.483   6.220
 8296TIP3   OH224830   7.118   1.627   2.509
 8296TIP3    H124831   7.169   1.704   2.534
 8296TIP3    H224832   7.034   1.639   2.553
 8297TIP3   OH224833   6.597   4.161   4.443
 8297TIP3    H124834   6.693   4.156   4.446
 8297TIP3    H224835   6.579   4.231   4.380
 8298TIP3   OH224836   5.420   7.486   4.956
 8298TIP3    H124837   5.512   7.470   4.975
 8298TIP3    H224838   5.416   7.578   4.928
 8299TIP3   OH224839   2.326   0.442   0.905
 8299TIP3    H124840   2.257   0.437   0.972
 8299TIP3    H224841   2.309   0.524   0.860
 8300TIP3   OH224842   4.527   2.780   3.047
 8300TIP3    H124843   4.542   2.699   2.998
 8300TIP3    H224844   4.473   2.754   3.122
 8301TIP3   OH224845   2.882   6.329   5.511
 8301TIP3    H124846   2.821   6.318   5.584
 8301TIP3    H224847   2.954   6.381   5.548
 8302TIP3   OH224848   4.232   6.412   4.496
 8302TIP3    H124849   4.210   6.435   4.405
 8302TIP3    H224850   4.314   6.364   4.489
 8303TIP3   OH224851   2.381   6.940   0.950
 8303TIP3    H124852   2.310   6.926   0.887
 8303TIP3    H224853   2.391   6.856   0.994
 8304TIP3   OH224854   6.327   3.470   6.633
 8304TIP3    H124855   6.252   3.476   6.574
 8304TIP3    H224856   6.359   3.381   6.622
 8305TIP3   OH224857   6.106   0.308   3.461
 8305TIP3    H124858   6.071   0.247   3.397
 8305TIP3    H224859   6.193   0.331   3.428
 8306TIP3   OH224860   1.414   6.564   2.332
 8306TIP3    H124861   1.389   6.631   2.269
 8306TIP3    H224862   1.509   6.564   2.332
 8307TIP3   OH224863   4.698   2.689   2.015
 8307TIP3    H124864   4.720   2.604   2.054
 8307TIP3    H224865   4.602   2.689   2.012
 8308TIP3   OH224866   6.095   3.223   3.297
 8308TIP3    H124867   6.139   3.138   3.304
 8308TIP3    H224868   6.165   3.285   3.278
 8309TIP3   OH224869   6.625   3.175   0.919
 8309TIP3    H124870   6.549   3.232   0.931
 8309TIP3    H224871   6.697   3.221   0.962
 8310TIP3   OH224872   3.934   4.298   0.661
 8310TIP3    H124873   3.852   4.332   0.698
 8310TIP3    H224874   3.955   4.359   0.590
 8311TIP3   OH224875   3.853   1.323   2.213
 8311TIP3    H124876   3.779   1.381   2.226
 8311TIP3    H224877   3.838   1.283   2.127
 8312TIP3   OH224878   1.443   6.831   1.411
 8312TIP3    H124879   1.476   6.906   1.460
 8312TIP3    H224880   1.497   6.827   1.332
 8313TIP3   OH224881   0.389   0.060   2.422
 8313TIP3    H124882   0.323   0.035   2.487
 8313TIP3    H224883   0.338   0.092   2.348
 8314TIP3   OH224884   0.367   5.290   2.500
 8314TIP3    H124885   0.326   5.216   2.545
 8314TIP3    H224886   0.456   5.260   2.483
 8315TIP3   OH224887   3.764   2.706   3.174
 8315TIP3    H124888   3.734   2.666   3.093
 8315TIP3    H224889   3.693   2.766   3.200
 8316TIP3   OH224890   1.539   6.096   5.833
 8316TIP3    H124891   1.584   6.031   5.887
 8316TIP3    H224892   1.528   6.172   5.890
 8317TIP3   OH224893   4.876   6.375   6.462
 8317TIP3    H124894   4.944   6.309   6.475
 8317TIP3    H224895   4.817   6.365   6.537
 8318TIP3   OH224896   6.361   2.672   0.743
 8318TIP3    H124897   6.319   2.668   0.828
 8318TIP3    H224898   6.371   2.765   0.725
 8319TIP3   OH224899   7.389   4.548   1.246
 8319TIP3    H124900   7.426   4.529   1.332
 8319TIP3    H224901   7.462   4.537   1.186
 8320TIP3   OH224902   7.508   0.575   0.535
 8320TIP3    H124903   7.428   0.570   0.587
 8320TIP3    H224904   7.478   0.572   0.444
 8321TIP3   OH224905   4.734   4.544   0.374
 8321TIP3    H124906   4.664   4.573   0.433
 8321TIP3    H224907   4.704   4.570   0.287
 8322TIP3   OH224908   6.990   3.878   3.555
 8322TIP3    H124909   6.930   3.902   3.625
 8322TIP3    H224910   7.011   3.961   3.512
 8323TIP3   OH224911   3.880   4.769   1.048
 8323TIP3    H124912   3.793   4.732   1.034
 8323TIP3    H224913   3.863   4.857   1.082
 8324TIP3   OH224914   4.160   4.317   4.830
 8324TIP3    H124915   4.251   4.327   4.801
 8324TIP3    H224916   4.131   4.235   4.790
 8325TIP3   OH224917   1.879   4.616   4.295
 8325TIP3    H124918   1.872   4.679   4.366
 8325TIP3    H224919   1.812   4.642   4.232
 8326TIP3   OH224920   2.202   1.527   3.120
 8326TIP3    H124921   2.297   1.538   3.123
 8326TIP3    H224922   2.177   1.515   3.212
 8327TIP3   OH224923   6.273   4.944   3.889
 8327TIP3    H124924   6.255   4.898   3.971
 8327TIP3    H224925   6.364   4.974   3.898
 8328TIP3   OH224926   1.415   6.291   6.000
 8328TIP3    H124927   1.487   6.347   6.028
 8328TIP3    H224928   1.336   6.343   6.015
 8329TIP3   OH224929   3.605   4.943   3.316
 8329TIP3    H124930   3.589   4.957   3.223
 8329TIP3    H224931   3.689   4.896   3.319
 8330TIP3   OH224932   4.176   1.632   0.047
 8330TIP3    H124933   4.148   1.556   0.098
 8330TIP3    H224934   4.267   1.613   0.023
 8331TIP3   OH224935   4.743   6.888   4.364
 8331TIP3    H124936   4.801   6.894   4.440
 8331TIP3    H224937   4.696   6.971   4.362
 8332TIP3   OH224938   0.026   5.618   1.240
 8332TIP3    H124939  -0.038   5.661   1.184
 8332TIP3    H224940   0.054   5.687   1.301
 8333TIP3   OH224941   0.497   7.053   1.715
 8333TIP3    H124942   0.420   7.091   1.672
 8333TIP3    H224943   0.569   7.069   1.655
 8334TIP3   OH224944   2.764   2.945   3.895
 8334TIP3    H124945   2.792   2.885   3.964
 8334TIP3    H224946   2.808   2.912   3.816
 8335TIP3   OH224947   6.182   4.900   4.692
 8335TIP3    H124948   6.254   4.948   4.650
 8335TIP3    H224949   6.103   4.940   4.657
 8336TIP3   OH224950   5.816   4.216   5.154
 8336TIP3    H124951   5.848   4.260   5.075
 8336TIP3    H224952   5.741   4.268   5.182
 8337TIP3   OH224953   6.537   2.200   5.324
 8337TIP3    H124954   6.448   2.218   5.357
 8337TIP3    H224955   6.546   2.259   5.249
 8338TIP3   OH224956   2.792   0.580   4.390
 8338TIP3    H124957   2.870   0.635   4.388
 8338TIP3    H224958   2.824   0.492   4.370
 8339TIP3   OH224959   6.334   2.793   2.597
 8339TIP3    H124960   6.279   2.724   2.634
 8339TIP3    H224961   6.422   2.755   2.598
 8340TIP3   OH224962   5.609   2.077   2.801
 8340TIP3    H124963   5.587   1.989   2.831
 8340TIP3    H224964   5.615   2.129   2.882
 8341TIP3   OH224965   7.610   0.102   3.076
 8341TIP3    H124966   7.675   0.040   3.110
 8341TIP3    H224967   7.557   0.050   3.015
 8342TIP3   OH224968   6.566   7.789   2.311
 8342TIP3    H124969   6.593   7.752   2.227
 8342TIP3    H224970   6.476   7.817   2.297
 8343TIP3   OH224971   3.522   3.788   3.326
 8343TIP3    H124972   3.520   3.774   3.421
 8343TIP3    H224973   3.431   3.795   3.300
 8344TIP3   OH224974   5.279   1.804   3.756
 8344TIP3    H124975   5.196   1.852   3.759
 8344TIP3    H224976   5.288   1.766   3.843
 8345TIP3   OH224977   2.366   1.142   3.088
 8345TIP3    H124978   2.301   1.082   3.051
 8345TIP3    H224979   2.432   1.150   3.019
 8346TIP3   OH224980   7.525   3.891   3.545
 8346TIP3    H124981   7.490   3.802   3.551
 8346TIP3    H224982   7.448   3.947   3.537
 8347TIP3   OH224983   5.371   4.300   4.640
 8347TIP3    H124984   5.457   4.274   4.671
 8347TIP3    H224985   5.325   4.217   4.623
 8348TIP3   OH224986   5.078   1.377   2.885
 8348TIP3    H124987   5.074   1.311   2.953
 8348TIP3    H224988   5.039   1.455   2.925
 8349TIP3   OH224989   4.940   5.464   5.078
 8349TIP3    H124990   4.962   5.373   5.102
 8349TIP3    H224991   4.966   5.471   4.986
 8350TIP3   OH224992   2.906   1.524   4.773
 8350TIP3    H124993   2.953   1.583   4.832
 8350TIP3    H224994   2.875   1.453   4.830
 8351TIP3   OH224995   2.901   3.303   1.051
 8351TIP3    H124996   2.891   3.302   1.146
 8351TIP3    H224997   2.889   3.395   1.026
 8352TIP3   OH224998   3.168   4.528   5.249
 8352TIP3    H124999   3.261   4.507   5.254
 8352TIP3    H225000   3.160   4.613   5.292
 8353TIP3   OH225001   0.667   2.846   3.207
 8353TIP3    H125002   0.654   2.931   3.164
 8353TIP3    H225003   0.672   2.783   3.135
 8354TIP3   OH225004   3.966   2.183   1.606
 8354TIP3    H125005   3.920   2.108   1.644
 8354TIP3    H225006   3.905   2.219   1.542
 8355TIP3   OH225007   1.785   0.079   1.791
 8355TIP3    H125008   1.813   0.028   1.715
 8355TIP3    H225009   1.752   0.014   1.853
 8356TIP3   OH225010   0.063   0.089   5.558
 8356TIP3    H125011   0.139   0.031   5.560
 8356TIP3    H225012   0.013   0.061   5.481
 8357TIP3   OH225013   6.032   6.557   0.892
 8357TIP3    H125014   6.051   6.484   0.951
 8357TIP3    H225015   5.936   6.563   0.892
 8358TIP3   OH225016   4.244   3.545   3.502
 8358TIP3    H125017   4.255   3.536   3.596
 8358TIP3    H225018   4.150   3.532   3.487
 8359TIP3   OH225019   0.950   2.552   0.370
 8359TIP3    H125020   1.004   2.485   0.413
 8359TIP3    H225021   0.972   2.544   0.277
 8360TIP3   OH225022   5.115   3.354   5.515
 8360TIP3    H125023   5.123   3.289   5.444
 8360TIP3    H225024   5.021   3.360   5.531
 8361TIP3   OH225025   2.990   3.618   1.691
 8361TIP3    H125026   2.917   3.647   1.635
 8361TIP3    H225027   3.033   3.699   1.718
 8362TIP3   OH225028   4.649   0.367   3.749
 8362TIP3    H125029   4.697   0.305   3.803
 8362TIP3    H225030   4.685   0.453   3.771
 8363TIP3   OH225031   7.950   2.165   2.872
 8363TIP3    H125032   8.044   2.183   2.879
 8363TIP3    H225033   7.923   2.144   2.962
 8364TIP3   OH225034   2.466   5.439   3.799
 8364TIP3    H125035   2.378   5.412   3.773
 8364TIP3    H225036   2.516   5.440   3.717
 8365TIP3   OH225037   4.561   2.131   2.616
 8365TIP3    H125038   4.466   2.145   2.625
 8365TIP3    H225039   4.572   2.037   2.627
 8366TIP3   OH225040   7.088   2.989   4.730
 8366TIP3    H125041   7.164   2.941   4.761
 8366TIP3    H225042   7.013   2.936   4.757
 8367TIP3   OH225043   7.707   7.654   2.569
 8367TIP3    H125044   7.705   7.695   2.655
 8367TIP3    H225045   7.766   7.580   2.579
 8368TIP3   OH225046   5.804   7.744   4.409
 8368TIP3    H125047   5.752   7.825   4.402
 8368TIP3    H225048   5.878   7.767   4.465
 8369TIP3   OH225049   4.481   4.899   5.308
 8369TIP3    H125050   4.410   4.863   5.361
 8369TIP3    H225051   4.437   4.952   5.242
 8370TIP3   OH225052   6.625   4.241   5.834
 8370TIP3    H125053   6.538   4.282   5.836
 8370TIP3    H225054   6.609   4.156   5.791
 8371TIP3   OH225055   6.594   1.747   5.154
 8371TIP3    H125056   6.686   1.722   5.159
 8371TIP3    H225057   6.586   1.794   5.071
 8372TIP3   OH225058   5.962   2.237   2.446
 8372TIP3    H125059   6.001   2.300   2.506
 8372TIP3    H225060   5.907   2.182   2.502
 8373TIP3   OH225061   5.208   1.136   3.798
 8373TIP3    H125062   5.147   1.209   3.797
 8373TIP3    H225063   5.192   1.092   3.882
 8374TIP3   OH225064   7.860   1.216   0.979
 8374TIP3    H125065   7.831   1.269   1.053
 8374TIP3    H225066   7.876   1.278   0.909
 8375TIP3   OH225067   4.241   0.327   3.415
 8375TIP3    H125068   4.274   0.409   3.379
 8375TIP3    H225069   4.203   0.352   3.499
 8376TIP3   OH225070   1.055   3.752   0.738
 8376TIP3    H125071   1.143   3.728   0.711
 8376TIP3    H225072   1.061   3.846   0.757
 8377TIP3   OH225073   5.211   0.206   6.760
 8377TIP3    H125074   5.302   0.175   6.760
 8377TIP3    H225075   5.159   0.128   6.780
 8378TIP3   OH225076   2.611   2.944   3.585
 8378TIP3    H125077   2.594   3.030   3.624
 8378TIP3    H225078   2.600   2.882   3.658
 8379TIP3   OH225079   3.133   7.123   1.326
 8379TIP3    H125080   3.116   7.197   1.384
 8379TIP3    H225081   3.076   7.054   1.358
 8380TIP3   OH225082   2.419   6.467   5.748
 8380TIP3    H125083   2.449   6.551   5.784
 8380TIP3    H225084   2.332   6.485   5.714
 8381TIP3   OH225085   5.061   6.116   0.028
 8381TIP3    H125086   5.142   6.165   0.017
 8381TIP3    H225087   5.090   6.027   0.051
 8382TIP3   OH225088   8.001   4.034   4.431
 8382TIP3    H125089   7.946   4.023   4.353
 8382TIP3    H225090   7.984   4.124   4.459
 8383TIP3   OH225091   1.065   6.629   0.661
 8383TIP3    H125092   1.142   6.605   0.610
 8383TIP3    H225093   1.092   6.617   0.752
 8384TIP3   OH225094   0.265   0.407   4.199
 8384TIP3    H125095   0.309   0.438   4.119
 8384TIP3    H225096   0.332   0.357   4.245
 8385TIP3   OH225097   6.978   2.744   2.595
 8385TIP3    H125098   7.002   2.758   2.686
 8385TIP3    H225099   6.943   2.828   2.566
 8386TIP3   OH225100   1.062   5.280   5.359
 8386TIP3    H125101   1.133   5.248   5.414
 8386TIP3    H225102   1.015   5.201   5.332
 8387TIP3   OH225103   1.469   5.142   4.651
 8387TIP3    H125104   1.449   5.226   4.611
 8387TIP3    H225105   1.564   5.134   4.644
 8388TIP3   OH225106   7.879   1.669   5.906
 8388TIP3    H125107   7.851   1.744   5.959
 8388TIP3    H225108   7.893   1.705   5.819
 8389TIP3   OH225109   4.085   6.794   0.146
 8389TIP3    H125110   4.019   6.733   0.113
 8389TIP3    H225111   4.079   6.870   0.087
 8390TIP3   OH225112   6.268   4.341   3.210
 8390TIP3    H125113   6.342   4.280   3.213
 8390TIP3    H225114   6.195   4.292   3.249
 8391TIP3   OH225115   5.014   2.930   1.316
 8391TIP3    H125116   5.020   3.019   1.280
 8391TIP3    H225117   5.096   2.889   1.292
 8392TIP3   OH225118   6.263   1.744   1.528
 8392TIP3    H125119   6.252   1.649   1.526
 8392TIP3    H225120   6.174   1.779   1.523
 8393TIP3   OH225121   2.266   4.229   4.848
 8393TIP3    H125122   2.234   4.279   4.923
 8393TIP3    H225123   2.211   4.150   4.847
 8394TIP3   OH225124   7.125   4.896   4.574
 8394TIP3    H125125   7.062   4.967   4.563
 8394TIP3    H225126   7.171   4.892   4.490
 8395TIP3   OH225127   5.777   6.498   4.294
 8395TIP3    H125128   5.783   6.461   4.382
 8395TIP3    H225129   5.836   6.445   4.241
 8396TIP3   OH225130   3.271   3.758   5.821
 8396TIP3    H125131   3.341   3.765   5.756
 8396TIP3    H225132   3.216   3.835   5.806
 8397TIP3   OH225133   7.795   5.110   5.322
 8397TIP3    H125134   7.724   5.045   5.324
 8397TIP3    H225135   7.857   5.078   5.388
 8398TIP3   OH225136   1.701   1.757   3.400
 8398TIP3    H125137   1.656   1.817   3.460
 8398TIP3    H225138   1.642   1.750   3.325
 8399TIP3   OH225139   3.209   7.682   0.166
 8399TIP3    H125140   3.153   7.739   0.113
 8399TIP3    H225141   3.249   7.740   0.230
 8400TIP3   OH225142   4.427   5.058   3.731
 8400TIP3    H125143   4.349   5.110   3.715
 8400TIP3    H225144   4.402   4.969   3.708
 8401TIP3   OH225145   1.360   4.037   1.827
 8401TIP3    H125146   1.365   3.951   1.785
 8401TIP3    H225147   1.273   4.070   1.805
 8402TIP3   OH225148   6.994   6.435   0.900
 8402TIP3    H125149   6.945   6.411   0.821
 8402TIP3    H225150   6.971   6.368   0.964
 8403TIP3   OH225151   3.519   3.470   1.815
 8403TIP3    H125152   3.564   3.390   1.843
 8403TIP3    H225153   3.586   3.538   1.819
 8404TIP3   OH225154   4.901   1.315   4.144
 8404TIP3    H125155   4.823   1.371   4.149
 8404TIP3    H225156   4.974   1.374   4.156
 8405TIP3   OH225157   3.880   5.027   6.398
 8405TIP3    H125158   3.904   5.028   6.305
 8405TIP3    H225159   3.830   5.108   6.411
 8406TIP3   OH225160   6.266   7.235   3.527
 8406TIP3    H125161   6.263   7.235   3.431
 8406TIP3    H225162   6.353   7.201   3.549
 8407TIP3   OH225163   4.960   4.656   0.189
 8407TIP3    H125164   4.907   4.607   0.252
 8407TIP3    H225165   5.050   4.628   0.206
 8408TIP3   OH225166   5.068   7.554   3.466
 8408TIP3    H125167   5.122   7.632   3.471
 8408TIP3    H225168   4.994   7.572   3.524
 8409TIP3   OH225169   7.954   7.550   2.981
 8409TIP3    H125170   8.039   7.521   3.015
 8409TIP3    H225171   7.920   7.610   3.048
 8410TIP3   OH225172   1.488   0.886   3.533
 8410TIP3    H125173   1.434   0.957   3.499
 8410TIP3    H225174   1.483   0.818   3.466
 8411TIP3   OH225175   0.358   2.489   0.228
 8411TIP3    H125176   0.277   2.472   0.180
 8411TIP3    H225177   0.351   2.580   0.256
 8412TIP3   OH225178   4.727   2.971   5.892
 8412TIP3    H125179   4.795   2.981   5.958
 8412TIP3    H225180   4.645   2.983   5.939
 8413TIP3   OH225181   4.077   1.836   2.574
 8413TIP3    H125182   4.026   1.906   2.615
 8413TIP3    H225183   4.011   1.776   2.539
 8414TIP3   OH225184   4.410   7.517   4.504
 8414TIP3    H125185   4.320   7.489   4.489
 8414TIP3    H225186   4.404   7.611   4.522
 8415TIP3   OH225187   1.592   6.698   4.667
 8415TIP3    H125188   1.550   6.687   4.582
 8415TIP3    H225189   1.571   6.617   4.715
 8416TIP3   OH225190   0.953   5.020   0.577
 8416TIP3    H125191   0.952   5.076   0.655
 8416TIP3    H225192   1.036   4.972   0.584
 8417TIP3   OH225193   1.886   5.827   4.895
 8417TIP3    H125194   1.865   5.735   4.875
 8417TIP3    H225195   1.801   5.871   4.894
 8418TIP3   OH225196   0.986   1.002   2.961
 8418TIP3    H125197   0.993   1.074   2.898
 8418TIP3    H225198   0.963   0.926   2.908
 8419TIP3   OH225199   2.466   6.665   4.327
 8419TIP3    H125200   2.512   6.596   4.375
 8419TIP3    H225201   2.530   6.697   4.264
 8420TIP3   OH225202   2.649   3.606   5.480
 8420TIP3    H125203   2.562   3.567   5.483
 8420TIP3    H225204   2.697   3.551   5.417
 8421TIP3   OH225205   7.591   4.168   3.080
 8421TIP3    H125206   7.656   4.200   3.142
 8421TIP3    H225207   7.512   4.219   3.100
 8422TIP3   OH225208   6.045   3.013   0.244
 8422TIP3    H125209   6.075   3.047   0.160
 8422TIP3    H225210   5.967   2.962   0.224
 8423TIP3   OH225211   5.275   7.203   0.530
 8423TIP3    H125212   5.312   7.282   0.489
 8423TIP3    H225213   5.185   7.200   0.498
 8424TIP3   OH225214   3.703   6.061   5.955
 8424TIP3    H125215   3.620   6.096   5.924
 8424TIP3    H225216   3.730   6.120   6.025
 8425TIP3   OH225217   1.906   6.402   0.554
 8425TIP3    H125218   1.913   6.366   0.642
 8425TIP3    H225219   1.813   6.420   0.542
 8426TIP3   OH225220   7.380   3.508   5.580
 8426TIP3    H125221   7.289   3.479   5.576
 8426TIP3    H225222   7.382   3.572   5.652
 8427TIP3   OH225223   7.903   3.758   0.339
 8427TIP3    H125224   7.934   3.723   0.255
 8427TIP3    H225225   7.981   3.794   0.381
 8428TIP3   OH225226   5.359   4.896   6.048
 8428TIP3    H125227   5.390   4.911   6.137
 8428TIP3    H225228   5.351   4.800   6.041
 8429TIP3   OH225229   0.234   1.192   4.358
 8429TIP3    H125230   0.283   1.155   4.431
 8429TIP3    H225231   0.209   1.280   4.387
 8430TIP3   OH225232   2.242   6.566   2.165
 8430TIP3    H125233   2.207   6.496   2.222
 8430TIP3    H225234   2.328   6.534   2.139
 8431TIP3   OH225235   7.482   1.858   2.309
 8431TIP3    H125236   7.464   1.766   2.287
 8431TIP3    H225237   7.521   1.895   2.230
 8432TIP3   OH225238   2.286   6.441   5.439
 8432TIP3    H125239   2.245   6.476   5.518
 8432TIP3    H225240   2.214   6.430   5.378
 8433TIP3   OH225241   5.856   4.780   6.442
 8433TIP3    H125242   5.795   4.753   6.373
 8433TIP3    H225243   5.940   4.787   6.398
 8434TIP3   OH225244   3.970   3.460   6.222
 8434TIP3    H125245   3.900   3.428   6.279
 8434TIP3    H225246   3.994   3.545   6.259
 8435TIP3   OH225247   5.859   0.998   0.338
 8435TIP3    H125248   5.878   1.034   0.425
 8435TIP3    H225249   5.812   1.068   0.293
 8436TIP3   OH225250   6.996   3.071   1.725
 8436TIP3    H125251   6.905   3.046   1.740
 8436TIP3    H225252   7.018   3.030   1.641
 8437TIP3   OH225253   1.155   7.602   1.488
 8437TIP3    H125254   1.217   7.662   1.447
 8437TIP3    H225255   1.094   7.659   1.535
 8438TIP3   OH225256   5.855   4.897   3.313
 8438TIP3    H125257   5.760   4.884   3.307
 8438TIP3    H225258   5.877   4.948   3.235
 8439TIP3   OH225259   3.027   4.484   1.476
 8439TIP3    H125260   2.992   4.559   1.526
 8439TIP3    H225261   2.956   4.461   1.416
 8440TIP3   OH225262   1.589   6.387   5.669
 8440TIP3    H125263   1.501   6.351   5.662
 8440TIP3    H225264   1.576   6.482   5.671
 8441TIP3   OH225265   5.784   3.757   6.630
 8441TIP3    H125266   5.876   3.757   6.656
 8441TIP3    H225267   5.751   3.672   6.658
 8442TIP3   OH225268   5.068   3.009   2.490
 8442TIP3    H125269   4.990   3.040   2.444
 8442TIP3    H225270   5.084   3.075   2.557
 8443TIP3   OH225271   1.518   7.152   0.758
 8443TIP3    H125272   1.594   7.175   0.811
 8443TIP3    H225273   1.554   7.103   0.684
 8444TIP3   OH225274   4.500   4.653   3.964
 8444TIP3    H125275   4.567   4.585   3.975
 8444TIP3    H225276   4.546   4.735   3.986
 8445TIP3   OH225277   7.899   6.023   6.628
 8445TIP3    H125278   7.969   6.078   6.594
 8445TIP3    H225279   7.908   5.941   6.580
 8446TIP3   OH225280   6.162   4.827   5.436
 8446TIP3    H125281   6.150   4.917   5.406
 8446TIP3    H225282   6.105   4.775   5.380
 8447TIP3   OH225283   3.597   6.663   2.263
 8447TIP3    H125284   3.548   6.593   2.307
 8447TIP3    H225285   3.621   6.723   2.334
 8448TIP3   OH225286   0.977   2.468   1.955
 8448TIP3    H125287   0.976   2.563   1.968
 8448TIP3    H225288   0.936   2.455   1.869
 8449TIP3   OH225289   6.177   7.479   0.278
 8449TIP3    H125290   6.114   7.499   0.208
 8449TIP3    H225291   6.211   7.565   0.305
 8450TIP3   OH225292   5.112   1.652   6.311
 8450TIP3    H125293   5.100   1.596   6.235
 8450TIP3    H225294   5.140   1.736   6.274
 8451TIP3   OH225295   1.637   1.027   4.036
 8451TIP3    H125296   1.565   1.008   4.096
 8451TIP3    H225297   1.616   1.112   3.999
 8452TIP3   OH225298   6.450   5.074   2.729
 8452TIP3    H125299   6.384   5.021   2.774
 8452TIP3    H225300   6.426   5.069   2.636
 8453TIP3   OH225301   5.908   5.672   0.336
 8453TIP3    H125302   5.860   5.710   0.410
 8453TIP3    H225303   5.950   5.747   0.294
 8454TIP3   OH225304   0.062   5.412   6.667
 8454TIP3    H125305  -0.010   5.475   6.672
 8454TIP3    H225306   0.138   5.459   6.700
 8455TIP3   OH225307   3.062   6.162   1.143
 8455TIP3    H125308   3.137   6.138   1.089
 8455TIP3    H225309   3.014   6.080   1.157
 8456TIP3   OH225310   2.797   4.198   5.542
 8456TIP3    H125311   2.715   4.150   5.550
 8456TIP3    H225312   2.783   4.277   5.595
 8457TIP3   OH225313   2.664   0.601   1.813
 8457TIP3    H125314   2.758   0.593   1.824
 8457TIP3    H225315   2.629   0.613   1.901
 8458TIP3   OH225316   1.861   6.995   0.758
 8458TIP3    H125317   1.882   6.974   0.849
 8458TIP3    H225318   1.946   7.004   0.715
 8459TIP3   OH225319   4.914   5.435   1.401
 8459TIP3    H125320   4.985   5.498   1.418
 8459TIP3    H225321   4.947   5.352   1.434
 8460TIP3   OH225322   8.015   6.713   1.165
 8460TIP3    H125323   7.936   6.660   1.167
 8460TIP3    H225324   8.086   6.650   1.156
 8461TIP3   OH225325   5.244   3.753   4.484
 8461TIP3    H125326   5.306   3.754   4.557
 8461TIP3    H225327   5.250   3.665   4.448
 8462TIP3   OH225328   5.254   2.980   1.547
 8462TIP3    H125329   5.336   3.023   1.572
 8462TIP3    H225330   5.253   2.985   1.451
 8463TIP3   OH225331   5.379   0.399   0.184
 8463TIP3    H125332   5.400   0.324   0.240
 8463TIP3    H225333   5.340   0.463   0.244
 8464TIP3   OH225334   7.650   0.705   3.655
 8464TIP3    H125335   7.665   0.756   3.575
 8464TIP3    H225336   7.585   0.640   3.629
 8465TIP3   OH225337   2.162   3.850   6.054
 8465TIP3    H125338   2.181   3.766   6.096
 8465TIP3    H225339   2.117   3.827   5.973
 8466TIP3   OH225340   5.462   6.902   1.700
 8466TIP3    H125341   5.541   6.930   1.654
 8466TIP3    H225342   5.401   6.975   1.690
 8467TIP3   OH225343   0.823   6.777   4.519
 8467TIP3    H125344   0.753   6.839   4.498
 8467TIP3    H225345   0.832   6.723   4.441
 8468TIP3   OH225346   2.167   5.254   1.949
 8468TIP3    H125347   2.179   5.295   2.035
 8468TIP3    H225348   2.100   5.306   1.906
 8469TIP3   OH225349   6.114   3.868   0.630
 8469TIP3    H125350   6.095   3.774   0.628
 8469TIP3    H225351   6.178   3.882   0.561
 8470TIP3   OH225352   5.569   3.833   1.044
 8470TIP3    H125353   5.519   3.782   1.108
 8470TIP3    H225354   5.505   3.891   1.004
 8471TIP3   OH225355   2.129   6.736   3.677
 8471TIP3    H125356   2.223   6.736   3.695
 8471TIP3    H225357   2.100   6.648   3.701
 8472TIP3   OH225358   4.259   7.566   6.254
 8472TIP3    H125359   4.345   7.594   6.284
 8472TIP3    H225360   4.240   7.486   6.304
 8473TIP3   OH225361   1.494   6.751   4.422
 8473TIP3    H125362   1.427   6.749   4.354
 8473TIP3    H225363   1.514   6.844   4.433
 8474TIP3   OH225364   4.505   1.866   2.676
 8474TIP3    H125365   4.555   1.858   2.757
 8474TIP3    H225366   4.449   1.789   2.673
 8475TIP3   OH225367   6.548   4.499   0.813
 8475TIP3    H125368   6.563   4.506   0.719
 8475TIP3    H225369   6.510   4.412   0.825
 8476TIP3   OH225370   4.748   3.119   1.257
 8476TIP3    H125371   4.731   3.136   1.165
 8476TIP3    H225372   4.774   3.027   1.260
 8477TIP3   OH225373   1.133   0.688   2.351
 8477TIP3    H125374   1.074   0.628   2.397
 8477TIP3    H225375   1.181   0.632   2.289
 8478TIP3   OH225376   6.789   6.411   1.928
 8478TIP3    H125377   6.720   6.477   1.933
 8478TIP3    H225378   6.777   6.358   2.006
 8479TIP3   OH225379   8.201   6.178   0.952
 8479TIP3    H125380   8.223   6.087   0.930
 8479TIP3    H225381   8.262   6.201   1.022
 8480TIP3   OH225382   2.183   5.718   3.707
 8480TIP3    H125383   2.127   5.642   3.687
 8480TIP3    H225384   2.231   5.734   3.625
 8481TIP3   OH225385   2.163   6.959   1.908
 8481TIP3    H125386   2.079   6.923   1.936
 8481TIP3    H225387   2.192   6.900   1.838
 8482TIP3   OH225388   3.113   5.714   5.434
 8482TIP3    H125389   3.098   5.650   5.365
 8482TIP3    H225390   3.107   5.799   5.390
 8483TIP3   OH225391   6.342   7.483   6.557
 8483TIP3    H125392   6.338   7.413   6.621
 8483TIP3    H225393   6.423   7.467   6.508
 8484TIP3   OH225394   5.079   5.160   5.007
 8484TIP3    H125395   5.004   5.153   5.066
 8484TIP3    H225396   5.047   5.129   4.922
 8485TIP3   OH225397   4.566   7.488   6.773
 8485TIP3    H125398   4.647   7.449   6.807
 8485TIP3    H225399   4.596   7.559   6.717
 8486TIP3   OH225400   3.913   3.939   1.407
 8486TIP3    H125401   3.980   3.874   1.386
 8486TIP3    H225402   3.926   4.008   1.343
 8487TIP3   OH225403   0.525   7.162   5.006
 8487TIP3    H125404   0.507   7.241   4.956
 8487TIP3    H225405   0.591   7.115   4.954
 8488TIP3   OH225406   6.047   4.492   4.174
 8488TIP3    H125407   5.958   4.464   4.152
 8488TIP3    H225408   6.091   4.501   4.090
 8489TIP3   OH225409   7.168   1.477   5.798
 8489TIP3    H125410   7.124   1.447   5.718
 8489TIP3    H225411   7.127   1.561   5.818
 8490TIP3   OH225412   7.947   6.666   3.496
 8490TIP3    H125413   7.884   6.701   3.559
 8490TIP3    H225414   7.915   6.696   3.411
 8491TIP3   OH225415   1.396   4.613   0.989
 8491TIP3    H125416   1.372   4.703   1.013
 8491TIP3    H225417   1.488   4.619   0.965
 8492TIP3   OH225418   5.743   6.759   3.309
 8492TIP3    H125419   5.820   6.745   3.253
 8492TIP3    H225420   5.778   6.803   3.387
 8493TIP3   OH225421   6.498   2.093   2.037
 8493TIP3    H125422   6.506   2.188   2.036
 8493TIP3    H225423   6.493   2.070   2.129
 8494TIP3   OH225424   7.694   4.208   0.817
 8494TIP3    H125425   7.712   4.209   0.911
 8494TIP3    H225426   7.629   4.277   0.804
 8495TIP3   OH225427   5.781   5.403   0.925
 8495TIP3    H125428   5.855   5.429   0.871
 8495TIP3    H225429   5.743   5.486   0.956
 8496TIP3   OH225430   5.044   2.611   4.132
 8496TIP3    H125431   5.139   2.599   4.134
 8496TIP3    H225432   5.008   2.522   4.141
 8497TIP3   OH225433   4.444   7.295   2.555
 8497TIP3    H125434   4.537   7.272   2.546
 8497TIP3    H225435   4.445   7.387   2.582
 8498TIP3   OH225436   8.242   1.056   0.336
 8498TIP3    H125437   8.180   1.098   0.275
 8498TIP3    H225438   8.197   0.977   0.365
 8499TIP3   OH225439   0.889   0.944   1.614
 8499TIP3    H125440   0.972   0.900   1.597
 8499TIP3    H225441   0.888   0.961   1.708
 8500TIP3   OH225442   7.497   2.716   0.063
 8500TIP3    H125443   7.546   2.640   0.094
 8500TIP3    H225444   7.459   2.753   0.143
 8501TIP3   OH225445   6.503   2.170   4.031
 8501TIP3    H125446   6.566   2.201   4.097
 8501TIP3    H225447   6.434   2.236   4.032
 8502TIP3   OH225448   3.009   3.645   0.742
 8502TIP3    H125449   3.077   3.578   0.729
 8502TIP3    H225450   2.948   3.630   0.670
 8503TIP3   OH225451   1.350   1.061   2.717
 8503TIP3    H125452   1.396   1.022   2.791
 8503TIP3    H225453   1.399   1.032   2.640
 8504TIP3   OH225454   0.266   0.170   2.172
 8504TIP3    H125455   0.228   0.184   2.085
 8504TIP3    H225456   0.324   0.245   2.184
 8505TIP3   OH225457   8.225   5.207   1.752
 8505TIP3    H125458   8.199   5.186   1.662
 8505TIP3    H225459   8.143   5.216   1.800
 8506TIP3   OH225460   6.187   4.856   4.968
 8506TIP3    H125461   6.191   4.899   4.883
 8506TIP3    H225462   6.279   4.846   4.994
 8507TIP3   OH225463   3.851   4.231   4.642
 8507TIP3    H125464   3.837   4.314   4.687
 8507TIP3    H225465   3.928   4.193   4.685
 8508TIP3   OH225466   0.232   6.165   2.022
 8508TIP3    H125467   0.247   6.257   2.046
 8508TIP3    H225468   0.316   6.135   1.987
 8509TIP3   OH225469   4.398   3.725   5.578
 8509TIP3    H125470   4.332   3.793   5.559
 8509TIP3    H225471   4.472   3.747   5.520
 8510TIP3   OH225472   7.688   3.928   1.067
 8510TIP3    H125473   7.684   3.925   1.163
 8510TIP3    H225474   7.739   4.006   1.047
 8511TIP3   OH225475  -0.004   0.741   0.820
 8511TIP3    H125476   0.060   0.809   0.803
 8511TIP3    H225477  -0.018   0.699   0.735
 8512TIP3   OH225478   5.869   4.567   3.093
 8512TIP3    H125479   5.865   4.472   3.096
 8512TIP3    H225480   5.780   4.595   3.076
 8513TIP3   OH225481   5.127   7.007   3.982
 8513TIP3    H125482   5.128   6.914   3.959
 8513TIP3    H225483   5.037   7.035   3.967
 8514TIP3   OH225484   2.493   1.569   1.467
 8514TIP3    H125485   2.430   1.536   1.530
 8514TIP3    H225486   2.517   1.655   1.501
 8515TIP3   OH225487   2.353   6.888   0.217
 8515TIP3    H125488   2.349   6.806   0.267
 8515TIP3    H225489   2.385   6.861   0.131
 8516TIP3   OH225490   6.087   5.471   3.213
 8516TIP3    H125491   6.017   5.408   3.194
 8516TIP3    H225492   6.056   5.553   3.176
 8517TIP3   OH225493   1.107   2.996   3.919
 8517TIP3    H125494   1.068   3.077   3.887
 8517TIP3    H225495   1.069   2.928   3.864
 8518TIP3   OH225496   6.811   3.878   3.796
 8518TIP3    H125497   6.755   3.879   3.873
 8518TIP3    H225498   6.838   3.786   3.788
 8519TIP3   OH225499   2.576   3.605   2.949
 8519TIP3    H125500   2.537   3.639   3.029
 8519TIP3    H225501   2.582   3.681   2.891
 8520TIP3   OH225502   7.769   3.474   4.528
 8520TIP3    H125503   7.732   3.551   4.485
 8520TIP3    H225504   7.786   3.502   4.618
 8521TIP3   OH225505   4.490   4.471   0.828
 8521TIP3    H125506   4.541   4.513   0.897
 8521TIP3    H225507   4.539   4.490   0.747
 8522TIP3   OH225508   5.831   1.812   1.210
 8522TIP3    H125509   5.736   1.815   1.207
 8522TIP3    H225510   5.856   1.896   1.248
 8523TIP3   OH225511   5.611   1.199   4.510
 8523TIP3    H125512   5.600   1.125   4.450
 8523TIP3    H225513   5.619   1.159   4.596
 8524TIP3   OH225514   2.474   3.137   4.584
 8524TIP3    H125515   2.535   3.122   4.656
 8524TIP3    H225516   2.530   3.158   4.509
 8525TIP3   OH225517   1.479   4.806   3.932
 8525TIP3    H125518   1.440   4.772   3.851
 8525TIP3    H225519   1.407   4.803   3.996
 8526TIP3   OH225520   5.045   4.951   5.692
 8526TIP3    H125521   5.135   4.928   5.669
 8526TIP3    H225522   5.025   4.899   5.769
 8527TIP3   OH225523   6.367   2.934   1.994
 8527TIP3    H125524   6.388   2.966   2.081
 8527TIP3    H225525   6.322   3.007   1.951
 8528TIP3   OH225526   2.968   5.934   4.655
 8528TIP3    H125527   2.916   6.004   4.617
 8528TIP3    H225528   2.993   5.967   4.742
 8529TIP3   OH225529   4.544   2.950   2.818
 8529TIP3    H125530   4.627   2.928   2.775
 8529TIP3    H225531   4.535   2.884   2.886
 8530TIP3   OH225532   2.818   3.209   0.796
 8530TIP3    H125533   2.838   3.280   0.858
 8530TIP3    H225534   2.833   3.129   0.846
 8531TIP3   OH225535   7.613   2.251   2.152
 8531TIP3    H125536   7.685   2.265   2.090
 8531TIP3    H225537   7.560   2.183   2.111
 8532TIP3   OH225538   1.254   4.372   1.022
 8532TIP3    H125539   1.290   4.294   1.065
 8532TIP3    H225540   1.331   4.423   0.996
 8533TIP3   OH225541   2.594   5.735   5.303
 8533TIP3    H125542   2.531   5.694   5.243
 8533TIP3    H225543   2.541   5.764   5.378
 8534TIP3   OH225544   0.060   7.361   0.980
 8534TIP3    H125545   0.073   7.304   0.904
 8534TIP3    H225546   0.147   7.374   1.016
 8535TIP3   OH225547   7.291   4.649   2.221
 8535TIP3    H125548   7.197   4.634   2.229
 8535TIP3    H225549   7.299   4.740   2.190
 8536TIP3   OH225550   1.627   7.061   2.163
 8536TIP3    H125551   1.622   7.050   2.258
 8536TIP3    H225552   1.578   6.988   2.127
 8537TIP3   OH225553   2.451   4.580   0.257
 8537TIP3    H125554   2.514   4.516   0.223
 8537TIP3    H225555   2.488   4.609   0.340
 8538TIP3   OH225556   2.724   3.078   1.425
 8538TIP3    H125557   2.683   3.153   1.384
 8538TIP3    H225558   2.770   3.114   1.501
 8539TIP3   OH225559   1.266   0.696   4.348
 8539TIP3    H125560   1.288   0.633   4.417
 8539TIP3    H225561   1.348   0.708   4.300
 8540TIP3   OH225562   5.162   4.334   4.245
 8540TIP3    H125563   5.223   4.402   4.217
 8540TIP3    H225564   5.212   4.252   4.236
 8541TIP3   OH225565   3.412   5.509   1.572
 8541TIP3    H125566   3.386   5.583   1.517
 8541TIP3    H225567   3.492   5.477   1.532
 8542TIP3   OH225568   5.946   2.454   3.725
 8542TIP3    H125569   6.013   2.502   3.677
 8542TIP3    H225570   5.945   2.368   3.684
 8543TIP3   OH225571   2.246   5.893   4.100
 8543TIP3    H125572   2.321   5.887   4.042
 8543TIP3    H225573   2.187   5.824   4.070
 8544TIP3   OH225574   7.037   4.295   3.885
 8544TIP3    H125575   7.047   4.202   3.908
 8544TIP3    H225576   7.123   4.333   3.899
 8545TIP3   OH225577   3.814   1.975   1.721
 8545TIP3    H125578   3.828   1.963   1.815
 8545TIP3    H225579   3.723   2.001   1.713
 8546TIP3   OH225580   4.176   1.212   2.868
 8546TIP3    H125581   4.140   1.277   2.808
 8546TIP3    H225582   4.207   1.142   2.811
 8547TIP3   OH225583   1.293   5.956   1.687
 8547TIP3    H125584   1.233   6.021   1.649
 8547TIP3    H225585   1.323   5.905   1.612
 8548TIP3   OH225586   2.988   5.426   4.583
 8548TIP3    H125587   3.055   5.439   4.650
 8548TIP3    H225588   3.018   5.350   4.534
 8549TIP3   OH225589   4.917   2.008   3.265
 8549TIP3    H125590   4.835   2.038   3.306
 8549TIP3    H225591   4.968   1.972   3.338
 8550TIP3   OH225592   7.745   5.939   2.056
 8550TIP3    H125593   7.792   6.015   2.021
 8550TIP3    H225594   7.777   5.865   2.004
 8551TIP3   OH225595   2.946   3.406   0.059
 8551TIP3    H125596   2.931   3.344   0.130
 8551TIP3    H225597   2.932   3.354  -0.021
 8552TIP3   OH225598   2.519   7.193   3.433
 8552TIP3    H125599   2.473   7.183   3.517
 8552TIP3    H225600   2.450   7.214   3.370
 8553TIP3   OH225601   3.336   5.001   0.691
 8553TIP3    H125602   3.300   4.952   0.765
 8553TIP3    H225603   3.290   5.085   0.692
 8554TIP3   OH225604   8.225   2.698   5.127
 8554TIP3    H125605   8.215   2.790   5.102
 8554TIP3    H225606   8.315   2.676   5.102
 8555TIP3   OH225607   0.702   7.381   3.178
 8555TIP3    H125608   0.796   7.361   3.185
 8555TIP3    H225609   0.676   7.399   3.269
 8556TIP3   OH225610   2.571   3.481   6.774
 8556TIP3    H125611   2.510   3.444   6.837
 8556TIP3    H225612   2.623   3.407   6.745
 8557TIP3   OH225613   3.906   3.767   3.233
 8557TIP3    H125614   3.856   3.812   3.165
 8557TIP3    H225615   3.939   3.688   3.191
 8558TIP3   OH225616   4.278   0.626   0.080
 8558TIP3    H125617   4.301   0.606   0.171
 8558TIP3    H225618   4.210   0.562   0.057
 8559TIP3   OH225619   5.819   2.874   5.515
 8559TIP3    H125620   5.911   2.879   5.488
 8559TIP3    H225621   5.801   2.781   5.523
 8560TIP3   OH225622   7.983   5.570   1.524
 8560TIP3    H125623   7.944   5.560   1.437
 8560TIP3    H225624   7.979   5.664   1.542
 8561TIP3   OH225625   3.405   2.378   6.099
 8561TIP3    H125626   3.436   2.308   6.156
 8561TIP3    H225627   3.460   2.371   6.021
 8562TIP3   OH225628   3.704   7.119   1.003
 8562TIP3    H125629   3.705   7.209   0.970
 8562TIP3    H225630   3.620   7.109   1.046
 8563TIP3   OH225631   6.284   4.584   5.742
 8563TIP3    H125632   6.195   4.562   5.713
 8563TIP3    H225633   6.340   4.558   5.669
 8564TIP3   OH225634   0.231   6.440   5.176
 8564TIP3    H125635   0.223   6.390   5.095
 8564TIP3    H225636   0.322   6.469   5.177
 8565TIP3   OH225637   5.592   3.202   0.269
 8565TIP3    H125638   5.609   3.110   0.289
 8565TIP3    H225639   5.514   3.224   0.319
 8566TIP3   OH225640   4.611   6.515   1.927
 8566TIP3    H125641   4.585   6.513   1.835
 8566TIP3    H225642   4.544   6.568   1.971
 8567TIP3   OH225643   7.082   6.918   5.628
 8567TIP3    H125644   7.080   6.853   5.698
 8567TIP3    H225645   7.169   6.958   5.635
 8568TIP3   OH225646   0.346   2.373   2.366
 8568TIP3    H125647   0.329   2.287   2.405
 8568TIP3    H225648   0.343   2.434   2.439
 8569TIP3   OH225649   7.125   2.584   5.027
 8569TIP3    H125650   7.163   2.532   4.955
 8569TIP3    H225651   7.052   2.631   4.987
 8570TIP3   OH225652   6.896   7.689   6.560
 8570TIP3    H125653   6.817   7.639   6.536
 8570TIP3    H225654   6.961   7.664   6.494
 8571TIP3   OH225655   8.283   3.841   6.194
 8571TIP3    H125656   8.259   3.876   6.109
 8571TIP3    H225657   8.336   3.910   6.235
 8572TIP3   OH225658   3.703   4.176   6.413
 8572TIP3    H125659   3.688   4.099   6.359
 8572TIP3    H225660   3.730   4.141   6.498
 8573TIP3   OH225661   1.619   7.302   0.251
 8573TIP3    H125662   1.709   7.289   0.223
 8573TIP3    H225663   1.611   7.396   0.267
 8574TIP3   OH225664   1.642   3.488   3.767
 8574TIP3    H125665   1.665   3.534   3.686
 8574TIP3    H225666   1.575   3.543   3.808
 8575TIP3   OH225667   6.421   3.355   2.833
 8575TIP3    H125668   6.446   3.333   2.743
 8575TIP3    H225669   6.345   3.412   2.824
 8576TIP3   OH225670   8.121   0.673   6.190
 8576TIP3    H125671   8.103   0.595   6.242
 8576TIP3    H225672   8.168   0.640   6.113
 8577TIP3   OH225673   1.844   7.253   2.946
 8577TIP3    H125674   1.760   7.258   2.992
 8577TIP3    H225675   1.828   7.191   2.875
 8578TIP3   OH225676   1.755   0.257   3.970
 8578TIP3    H125677   1.665   0.281   3.946
 8578TIP3    H225678   1.809   0.293   3.899
 8579TIP3   OH225679   4.779   7.085   0.392
 8579TIP3    H125680   4.720   7.148   0.351
 8579TIP3    H225681   4.801   7.023   0.322
 8580TIP3   OH225682   0.400   3.401   6.712
 8580TIP3    H125683   0.473   3.340   6.705
 8580TIP3    H225684   0.406   3.436   6.801
 8581TIP3   OH225685   5.651   5.929   1.008
 8581TIP3    H125686   5.722   5.993   1.016
 8581TIP3    H225687   5.691   5.846   1.033
 8582TIP3   OH225688   1.387   2.709   1.293
 8582TIP3    H125689   1.297   2.703   1.325
 8582TIP3    H225690   1.413   2.799   1.313
 8583TIP3   OH225691   3.325   7.423   2.709
 8583TIP3    H125692   3.250   7.471   2.745
 8583TIP3    H225693   3.377   7.489   2.664
 8584TIP3   OH225694   2.863   1.340   4.171
 8584TIP3    H125695   2.895   1.257   4.135
 8584TIP3    H225696   2.844   1.320   4.263
 8585TIP3   OH225697   7.233   4.174   1.951
 8585TIP3    H125698   7.192   4.193   2.036
 8585TIP3    H225699   7.292   4.247   1.935
 8586TIP3   OH225700   5.967   6.084   5.221
 8586TIP3    H125701   5.875   6.086   5.194
 8586TIP3    H225702   6.010   6.028   5.156
 8587TIP3   OH225703   6.359   5.543   6.620
 8587TIP3    H125704   6.356   5.461   6.570
 8587TIP3    H225705   6.449   5.574   6.610
 8588TIP3   OH225706   1.035   4.638   4.784
 8588TIP3    H125707   1.122   4.602   4.799
 8588TIP3    H225708   1.027   4.642   4.688
 8589TIP3   OH225709   7.147   4.042   0.550
 8589TIP3    H125710   7.207   4.075   0.483
 8589TIP3    H225711   7.186   4.071   0.633
 8590TIP3   OH225712   6.056   3.061   2.904
 8590TIP3    H125713   6.059   3.147   2.945
 8590TIP3    H225714   6.143   3.024   2.921
 8591TIP3   OH225715   7.670   0.764   2.716
 8591TIP3    H125716   7.760   0.731   2.723
 8591TIP3    H225717   7.647   0.790   2.805
 8592TIP3   OH225718   7.853   5.068   3.097
 8592TIP3    H125719   7.873   4.990   3.149
 8592TIP3    H225720   7.884   5.047   3.009
 8593TIP3   OH225721   4.184   7.105   5.466
 8593TIP3    H125722   4.275   7.112   5.494
 8593TIP3    H225723   4.146   7.040   5.525
 8594TIP3   OH225724   0.069   4.884   4.084
 8594TIP3    H125725   0.105   4.848   4.003
 8594TIP3    H225726  -0.025   4.889   4.068
 8595TIP3   OH225727   2.678   0.273   0.225
 8595TIP3    H125728   2.691   0.184   0.192
 8595TIP3    H225729   2.617   0.313   0.162
 8596TIP3   OH225730   4.477   5.168   6.039
 8596TIP3    H125731   4.414   5.231   6.004
 8596TIP3    H225732   4.467   5.090   5.984
 8597TIP3   OH225733   1.831   6.760   0.970
 8597TIP3    H125734   1.874   6.844   0.989
 8597TIP3    H225735   1.827   6.715   1.054
 8598TIP3   OH225736   2.770   1.698   3.257
 8598TIP3    H125737   2.779   1.792   3.275
 8598TIP3    H225738   2.849   1.675   3.209
 8599TIP3   OH225739   3.159   5.115   3.395
 8599TIP3    H125740   3.108   5.190   3.426
 8599TIP3    H225741   3.230   5.106   3.458
 8600TIP3   OH225742   2.790   1.081   0.262
 8600TIP3    H125743   2.827   1.169   0.256
 8600TIP3    H225744   2.820   1.048   0.347
 8601TIP3   OH225745   1.733   4.758   4.107
 8601TIP3    H125746   1.809   4.784   4.056
 8601TIP3    H225747   1.660   4.759   4.045
 8602TIP3   OH225748   2.632   7.789   3.532
 8602TIP3    H125749   2.665   7.828   3.613
 8602TIP3    H225750   2.580   7.859   3.492
 8603TIP3   OH225751   2.402   0.385   2.106
 8603TIP3    H125752   2.358   0.322   2.049
 8603TIP3    H225753   2.354   0.381   2.188
 8604TIP3   OH225754   6.475   0.017   1.684
 8604TIP3    H125755   6.480  -0.053   1.619
 8604TIP3    H225756   6.401   0.071   1.656
 8605TIP3   OH225757   5.827   4.178   2.460
 8605TIP3    H125758   5.787   4.260   2.490
 8605TIP3    H225759   5.895   4.159   2.525
 8606TIP3   OH225760   3.776   3.828   1.638
 8606TIP3    H125761   3.803   3.889   1.707
 8606TIP3    H225762   3.834   3.849   1.564
 8607TIP3   OH225763   4.160   2.231   2.183
 8607TIP3    H125764   4.161   2.326   2.198
 8607TIP3    H225765   4.114   2.195   2.259
 8608TIP3   OH225766   0.847   7.642   4.814
 8608TIP3    H125767   0.837   7.722   4.763
 8608TIP3    H225768   0.918   7.595   4.771
 8609TIP3   OH225769   3.016   0.817   2.431
 8609TIP3    H125770   3.027   0.809   2.526
 8609TIP3    H225771   3.100   0.852   2.400
 8610TIP3   OH225772   6.301   1.571   0.332
 8610TIP3    H125773   6.368   1.553   0.398
 8610TIP3    H225774   6.349   1.597   0.254
 8611TIP3   OH225775   4.361   3.035   3.116
 8611TIP3    H125776   4.390   2.948   3.143
 8611TIP3    H225777   4.332   3.023   3.026
 8612TIP3   OH225778   3.001   3.693   4.691
 8612TIP3    H125779   3.051   3.730   4.618
 8612TIP3    H225780   3.068   3.663   4.752
 8613TIP3   OH225781   7.911   2.312   2.093
 8613TIP3    H125782   7.980   2.328   2.028
 8613TIP3    H225783   7.946   2.240   2.146
 8614TIP3   OH225784   3.695   5.009   2.159
 8614TIP3    H125785   3.645   4.982   2.082
 8614TIP3    H225786   3.721   5.100   2.141
 8615TIP3   OH225787   0.178   0.181   0.199
 8615TIP3    H125788   0.091   0.193   0.163
 8615TIP3    H225789   0.167   0.196   0.293
 8616TIP3   OH225790   4.578   6.661   5.189
 8616TIP3    H125791   4.489   6.633   5.209
 8616TIP3    H225792   4.594   6.630   5.100
 8617TIP3   OH225793   7.802   6.886   6.652
 8617TIP3    H125794   7.863   6.906   6.581
 8617TIP3    H225795   7.817   6.955   6.717
 8618TIP3   OH225796   3.259   0.680   4.949
 8618TIP3    H125797   3.296   0.762   4.979
 8618TIP3    H225798   3.203   0.650   5.021
 8619TIP3   OH225799   5.689   3.495   6.131
 8619TIP3    H125800   5.770   3.518   6.085
 8619TIP3    H225801   5.665   3.409   6.097
 8620TIP3   OH225802   3.952   6.646   3.117
 8620TIP3    H125803   3.857   6.651   3.128
 8620TIP3    H225804   3.966   6.654   3.023
 8621TIP3   OH225805   6.248   0.683   0.036
 8621TIP3    H125806   6.334   0.704   0.072
 8621TIP3    H225807   6.187   0.700   0.108
 8622TIP3   OH225808   0.285   2.629   3.076
 8622TIP3    H125809   0.238   2.594   3.152
 8622TIP3    H225810   0.216   2.646   3.011
 8623TIP3   OH225811   0.611   1.166   4.349
 8623TIP3    H125812   0.538   1.198   4.403
 8623TIP3    H225813   0.593   1.072   4.339
 8624TIP3   OH225814   2.736   4.281   6.750
 8624TIP3    H125815   2.702   4.194   6.772
 8624TIP3    H225816   2.683   4.342   6.802
 8625TIP3   OH225817   0.201   2.080   2.834
 8625TIP3    H125818   0.198   1.988   2.808
 8625TIP3    H225819   0.279   2.087   2.890
 8626TIP3   OH225820   7.476   4.213   1.358
 8626TIP3    H125821   7.433   4.189   1.276
 8626TIP3    H225822   7.524   4.135   1.385
 8627TIP3   OH225823   2.356   6.214   2.758
 8627TIP3    H125824   2.271   6.216   2.713
 8627TIP3    H225825   2.344   6.273   2.833
 8628TIP3   OH225826   0.711   5.902   4.633
 8628TIP3    H125827   0.754   5.988   4.641
 8628TIP3    H225828   0.708   5.868   4.722
 8629TIP3   OH225829   4.819   4.098   6.304
 8629TIP3    H125830   4.736   4.050   6.310
 8629TIP3    H225831   4.797   4.188   6.326
 8630TIP3   OH225832   0.232   0.909   3.479
 8630TIP3    H125833   0.240   0.873   3.391
 8630TIP3    H225834   0.237   0.833   3.537
 8631TIP3   OH225835   0.108   5.939  -0.006
 8631TIP3    H125836   0.094   5.935   0.089
 8631TIP3    H225837   0.160   6.019  -0.019
 8632TIP3   OH225838   3.072   6.475   4.449
 8632TIP3    H125839   2.983   6.460   4.481
 8632TIP3    H225840   3.074   6.567   4.425
 8633TIP3   OH225841   4.167   5.166   6.052
 8633TIP3    H125842   4.119   5.247   6.036
 8633TIP3    H225843   4.240   5.192   6.109
 8634TIP3   OH225844   2.844   2.351   2.497
 8634TIP3    H125845   2.844   2.398   2.580
 8634TIP3    H225846   2.754   2.323   2.485
 8635TIP3   OH225847   4.499   6.901   1.365
 8635TIP3    H125848   4.518   6.943   1.281
 8635TIP3    H225849   4.403   6.905   1.373
 8636TIP3   OH225850   1.221   2.144   5.284
 8636TIP3    H125851   1.166   2.167   5.359
 8636TIP3    H225852   1.256   2.228   5.253
 8637TIP3   OH225853   6.770   7.482   2.410
 8637TIP3    H125854   6.834   7.445   2.348
 8637TIP3    H225855   6.794   7.574   2.418
 8638TIP3   OH225856   8.151   7.681   5.685
 8638TIP3    H125857   8.244   7.667   5.665
 8638TIP3    H225858   8.105   7.646   5.609
 8639TIP3   OH225859   2.917   4.508   0.259
 8639TIP3    H125860   2.972   4.583   0.239
 8639TIP3    H225861   2.961   4.434   0.216
 8640TIP3   OH225862   4.955   7.032   2.532
 8640TIP3    H125863   5.027   7.060   2.475
 8640TIP3    H225864   4.994   6.966   2.590
 8641TIP3   OH225865   6.660   1.820   0.494
 8641TIP3    H125866   6.607   1.897   0.475
 8641TIP3    H225867   6.721   1.849   0.562
 8642TIP3   OH225868   0.356   0.234   1.750
 8642TIP3    H125869   0.402   0.170   1.803
 8642TIP3    H225870   0.390   0.222   1.662
 8643TIP3   OH225871   4.570   5.437   2.177
 8643TIP3    H125872   4.500   5.483   2.225
 8643TIP3    H225873   4.583   5.356   2.226
 8644TIP3   OH225874   3.659   7.277   0.180
 8644TIP3    H125875   3.685   7.327   0.257
 8644TIP3    H225876   3.611   7.202   0.215
 8645TIP3   OH225877   3.550   5.347   1.373
 8645TIP3    H125878   3.505   5.264   1.357
 8645TIP3    H225879   3.585   5.372   1.287
 8646TIP3   OH225880   0.495   5.048   0.419
 8646TIP3    H125881   0.441   5.121   0.448
 8646TIP3    H225882   0.447   5.011   0.344
 8647TIP3   OH225883   2.924   6.616   1.556
 8647TIP3    H125884   2.945   6.684   1.620
 8647TIP3    H225885   2.830   6.622   1.543
 8648TIP3   OH225886   7.288   6.292   2.282
 8648TIP3    H125887   7.312   6.384   2.293
 8648TIP3    H225888   7.311   6.251   2.366
 8649TIP3   OH225889   5.360   1.456   4.819
 8649TIP3    H125890   5.350   1.461   4.914
 8649TIP3    H225891   5.372   1.547   4.792
 8650TIP3   OH225892   2.127   3.640   0.712
 8650TIP3    H125893   2.050   3.619   0.658
 8650TIP3    H225894   2.194   3.577   0.684
 8651TIP3   OH225895   2.698   2.864   5.263
 8651TIP3    H125896   2.781   2.820   5.247
 8651TIP3    H225897   2.654   2.810   5.329
 8652TIP3   OH225898   8.049   3.921   5.466
 8652TIP3    H125899   8.085   3.835   5.443
 8652TIP3    H225900   7.992   3.944   5.392
 8653TIP3   OH225901   5.554   6.955   3.631
 8653TIP3    H125902   5.564   7.047   3.655
 8653TIP3    H225903   5.468   6.951   3.589
 8654TIP3   OH225904   1.828   0.899   2.083
 8654TIP3    H125905   1.863   0.939   2.003
 8654TIP3    H225906   1.746   0.857   2.055
 8655TIP3   OH225907   0.892   0.973   0.002
 8655TIP3    H125908   0.877   0.878  -0.001
 8655TIP3    H225909   0.815   1.008   0.046
 8656TIP3   OH225910   0.507   6.844   2.716
 8656TIP3    H125911   0.600   6.851   2.695
 8656TIP3    H225912   0.501   6.767   2.773
 8657TIP3   OH225913   6.459   0.821   1.490
 8657TIP3    H125914   6.441   0.727   1.484
 8657TIP3    H225915   6.415   0.859   1.413
 8658TIP3   OH225916   5.407   6.378   5.605
 8658TIP3    H125917   5.420   6.292   5.646
 8658TIP3    H225918   5.486   6.427   5.627
 8659TIP3   OH225919   6.839   3.642   0.522
 8659TIP3    H125920   6.785   3.680   0.591
 8659TIP3    H225921   6.803   3.676   0.440
 8660TIP3   OH225922   4.535   1.900   2.190
 8660TIP3    H125923   4.569   1.875   2.276
 8660TIP3    H225924   4.454   1.849   2.181
 8661TIP3   OH225925   2.874   7.685   6.743
 8661TIP3    H125926   2.844   7.621   6.679
 8661TIP3    H225927   2.880   7.637   6.825
 8662TIP3   OH225928   5.620   6.632   4.120
 8662TIP3    H125929   5.621   6.722   4.154
 8662TIP3    H225930   5.688   6.587   4.171
 8663TIP3   OH225931   6.572   3.594   0.160
 8663TIP3    H125932   6.483   3.601   0.123
 8663TIP3    H225933   6.615   3.529   0.104
 8664TIP3   OH225934   5.883   3.532   0.878
 8664TIP3    H125935   5.840   3.557   0.959
 8664TIP3    H225936   5.969   3.501   0.905
 8665TIP3   OH225937   3.658   2.100   6.457
 8665TIP3    H125938   3.742   2.088   6.412
 8665TIP3    H225939   3.595   2.116   6.387
 8666TIP3   OH225940   2.885   3.211   1.611
 8666TIP3    H125941   2.962   3.158   1.632
 8666TIP3    H225942   2.863   3.255   1.694
 8667TIP3   OH225943   8.154   4.466   2.070
 8667TIP3    H125944   8.124   4.472   1.980
 8667TIP3    H225945   8.250   4.468   2.063
 8668TIP3   OH225946   8.069   2.677   4.017
 8668TIP3    H125947   7.983   2.714   4.039
 8668TIP3    H225948   8.132   2.738   4.054
 8669TIP3   OH225949   4.794   5.210   4.875
 8669TIP3    H125950   4.703   5.195   4.852
 8669TIP3    H225951   4.804   5.170   4.962
 8670TIP3   OH225952   5.038   4.366   1.826
 8670TIP3    H125953   5.116   4.347   1.878
 8670TIP3    H225954   4.965   4.338   1.881
 8671TIP3   OH225955   3.746   6.318   1.354
 8671TIP3    H125956   3.675   6.291   1.412
 8671TIP3    H225957   3.821   6.264   1.380
 8672TIP3   OH225958   1.007   0.386   1.991
 8672TIP3    H125959   1.092   0.404   2.031
 8672TIP3    H225960   0.964   0.325   2.051
 8673TIP3   OH225961   3.729   7.642   6.756
 8673TIP3    H125962   3.814   7.612   6.786
 8673TIP3    H225963   3.748   7.708   6.690
 8674TIP3   OH225964   7.446   0.820   1.225
 8674TIP3    H125965   7.422   0.874   1.150
 8674TIP3    H225966   7.371   0.827   1.285
 8675TIP3   OH225967   7.097   0.222   0.935
 8675TIP3    H125968   7.180   0.238   0.980
 8675TIP3    H225969   7.076   0.131   0.956
 8676TIP3   OH225970   2.030   1.978   0.624
 8676TIP3    H125971   2.054   1.935   0.542
 8676TIP3    H225972   2.097   2.046   0.634
 8677TIP3   OH225973   4.841   1.125   0.896
 8677TIP3    H125974   4.927   1.166   0.884
 8677TIP3    H225975   4.829   1.122   0.991
 8678TIP3   OH225976   5.824   1.646   2.001
 8678TIP3    H125977   5.803   1.637   1.908
 8678TIP3    H225978   5.750   1.605   2.046
 8679TIP3   OH225979   7.046   5.254   5.696
 8679TIP3    H125980   7.021   5.291   5.781
 8679TIP3    H225981   7.127   5.299   5.673
 8680TIP3   OH225982   2.096   3.618   5.342
 8680TIP3    H125983   2.136   3.636   5.257
 8680TIP3    H225984   2.117   3.527   5.361
 8681TIP3   OH225985   0.712   6.599   4.734
 8681TIP3    H125986   0.759   6.614   4.816
 8681TIP3    H225987   0.654   6.674   4.725
 8682TIP3   OH225988   3.392   4.548   4.121
 8682TIP3    H125989   3.390   4.510   4.033
 8682TIP3    H225990   3.464   4.611   4.117
 8683TIP3   OH225991   0.718   2.050   5.088
 8683TIP3    H125992   0.750   2.006   5.010
 8683TIP3    H225993   0.623   2.039   5.084
 8684TIP3   OH225994   2.606   4.830   1.684
 8684TIP3    H125995   2.636   4.789   1.603
 8684TIP3    H225996   2.575   4.757   1.737
 8685TIP3   OH225997   1.894   7.534   4.761
 8685TIP3    H125998   1.817   7.590   4.751
 8685TIP3    H225999   1.910   7.499   4.674
 8686TIP3   OH226000   1.247   3.209   2.835
 8686TIP3    H126001   1.192   3.132   2.819
 8686TIP3    H226002   1.186   3.282   2.844
 8687TIP3   OH226003   4.884   7.320   2.714
 8687TIP3    H126004   4.876   7.352   2.804
 8687TIP3    H226005   4.798   7.283   2.695
 8688TIP3   OH226006   0.041   3.212   6.183
 8688TIP3    H126007  -0.009   3.240   6.107
 8688TIP3    H226008   0.070   3.124   6.163
 8689TIP3   OH226009   7.224   1.878   2.448
 8689TIP3    H126010   7.184   1.912   2.368
 8689TIP3    H226011   7.317   1.900   2.440
 8690TIP3   OH226012   4.929   5.599   6.056
 8690TIP3    H126013   4.938   5.692   6.035
 8690TIP3    H226014   4.999   5.556   6.007
 8691TIP3   OH226015   4.108   5.060   1.479
 8691TIP3    H126016   4.058   5.077   1.559
 8691TIP3    H226017   4.182   5.121   1.484
 8692TIP3   OH226018   6.687   0.657   5.029
 8692TIP3    H126019   6.670   0.751   5.031
 8692TIP3    H226020   6.619   0.621   4.972
 8693TIP3   OH226021   2.493   1.495   3.038
 8693TIP3    H126022   2.563   1.454   3.089
 8693TIP3    H226023   2.507   1.589   3.049
 8694TIP3   OH226024   8.153   1.937   6.245
 8694TIP3    H126025   8.087   1.879   6.283
 8694TIP3    H226026   8.107   2.019   6.229
 8695TIP3   OH226027   3.868   6.487   0.570
 8695TIP3    H126028   3.852   6.554   0.636
 8695TIP3    H226029   3.808   6.416   0.594
 8696TIP3   OH226030   1.680   0.396   6.210
 8696TIP3    H126031   1.628   0.408   6.130
 8696TIP3    H226032   1.751   0.460   6.202
 8697TIP3   OH226033   5.049   2.349   2.812
 8697TIP3    H126034   5.113   2.312   2.872
 8697TIP3    H226035   4.997   2.409   2.865
 8698TIP3   OH226036   1.938   6.805   1.243
 8698TIP3    H126037   2.024   6.836   1.273
 8698TIP3    H226038   1.914   6.736   1.304
 8699TIP3   OH226039   5.588   6.713   0.815
 8699TIP3    H126040   5.614   6.768   0.889
 8699TIP3    H226041   5.541   6.639   0.855
 8700TIP3   OH226042   4.831   4.387   2.029
 8700TIP3    H126043   4.762   4.392   2.095
 8700TIP3    H226044   4.787   4.358   1.950
 8701TIP3   OH226045   6.211   0.166   1.621
 8701TIP3    H126046   6.143   0.113   1.578
 8701TIP3    H226047   6.258   0.208   1.549
 8702TIP3   OH226048   0.784   3.968   3.163
 8702TIP3    H126049   0.772   4.012   3.079
 8702TIP3    H226050   0.878   3.952   3.169
 8703TIP3   OH226051   4.646   2.563   2.932
 8703TIP3    H126052   4.635   2.483   2.880
 8703TIP3    H226053   4.724   2.547   2.985
 8704TIP3   OH226054   3.298   6.897   3.809
 8704TIP3    H126055   3.350   6.900   3.729
 8704TIP3    H226056   3.246   6.977   3.808
 8705TIP3   OH226057   5.040   2.034   5.645
 8705TIP3    H126058   5.130   2.059   5.668
 8705TIP3    H226059   5.037   1.939   5.660
 8706TIP3   OH226060   1.667   4.677   0.958
 8706TIP3    H126061   1.730   4.612   0.928
 8706TIP3    H226062   1.717   4.734   1.016
 8707TIP3   OH226063   4.050   2.422   3.660
 8707TIP3    H126064   3.988   2.478   3.707
 8707TIP3    H226065   4.075   2.355   3.724
 8708TIP3   OH226066   2.671   1.337   3.652
 8708TIP3    H126067   2.613   1.284   3.598
 8708TIP3    H226068   2.613   1.386   3.710
 8709TIP3   OH226069   1.927   4.614   5.999
 8709TIP3    H126070   2.014   4.582   6.021
 8709TIP3    H226071   1.889   4.544   5.945
 8710TIP3   OH226072   7.049   3.343   3.839
 8710TIP3    H126073   7.125   3.298   3.875
 8710TIP3    H226074   7.066   3.435   3.855
 8711TIP3   OH226075   4.048   0.144   5.245
 8711TIP3    H126076   3.983   0.148   5.175
 8711TIP3    H226077   4.129   0.175   5.204
 8712TIP3   OH226078   2.153   3.341   5.313
 8712TIP3    H126079   2.063   3.323   5.283
 8712TIP3    H226080   2.202   3.262   5.290
 8713TIP3   OH226081   0.873   4.520   5.742
 8713TIP3    H126082   0.875   4.427   5.760
 8713TIP3    H226083   0.959   4.552   5.770
 8714TIP3   OH226084   1.975   0.301   4.169
 8714TIP3    H126085   1.941   0.250   4.095
 8714TIP3    H226086   1.898   0.324   4.220
 8715TIP3   OH226087   1.852   1.815   6.610
 8715TIP3    H126088   1.849   1.722   6.634
 8715TIP3    H226089   1.775   1.853   6.652
 8716TIP3   OH226090   2.582   3.335   3.249
 8716TIP3    H126091   2.601   3.257   3.302
 8716TIP3    H226092   2.636   3.324   3.171
 8717TIP3   OH226093   5.402   4.134   6.515
 8717TIP3    H126094   5.435   4.065   6.458
 8717TIP3    H226095   5.437   4.112   6.602
 8718TIP3   OH226096   2.853   3.571   3.485
 8718TIP3    H126097   2.824   3.607   3.401
 8718TIP3    H226098   2.800   3.492   3.497
 8719TIP3   OH226099   5.621   2.372   5.604
 8719TIP3    H126100   5.648   2.301   5.663
 8719TIP3    H226101   5.604   2.330   5.521
 8720TIP3   OH226102   0.957   1.705   5.371
 8720TIP3    H126103   0.956   1.615   5.403
 8720TIP3    H226104   0.865   1.727   5.356
 8721TIP3   OH226105   3.522   5.593   3.226
 8721TIP3    H126106   3.594   5.556   3.276
 8721TIP3    H226107   3.515   5.684   3.256
 8722TIP3   OH226108   6.687   0.649   4.620
 8722TIP3    H126109   6.662   0.566   4.580
 8722TIP3    H226110   6.632   0.656   4.697
 8723TIP3   OH226111   0.340   1.852   2.697
 8723TIP3    H126112   0.334   1.768   2.651
 8723TIP3    H226113   0.414   1.841   2.756
 8724TIP3   OH226114   2.179   0.711   1.149
 8724TIP3    H126115   2.153   0.621   1.128
 8724TIP3    H226116   2.184   0.756   1.065
 8725TIP3   OH226117   0.458   4.244   4.501
 8725TIP3    H126118   0.450   4.157   4.462
 8725TIP3    H226119   0.468   4.227   4.595
 8726TIP3   OH226120   5.702   6.584   3.546
 8726TIP3    H126121   5.635   6.536   3.497
 8726TIP3    H226122   5.661   6.603   3.630
 8727TIP3   OH226123   2.333   5.216   2.179
 8727TIP3    H126124   2.273   5.150   2.214
 8727TIP3    H226125   2.412   5.208   2.233
 8728TIP3   OH226126   0.918   7.454   5.964
 8728TIP3    H126127   0.897   7.373   6.011
 8728TIP3    H226128   0.919   7.428   5.872
 8729TIP3   OH226129   2.245   5.202   5.057
 8729TIP3    H126130   2.311   5.148   5.014
 8729TIP3    H226131   2.210   5.257   4.987
 8730TIP3   OH226132   3.807   2.224   0.363
 8730TIP3    H126133   3.740   2.277   0.320
 8730TIP3    H226134   3.832   2.275   0.440
 8731TIP3   OH226135   6.164   4.531   3.931
 8731TIP3    H126136   6.175   4.620   3.966
 8731TIP3    H226137   6.216   4.530   3.851
 8732TIP3   OH226138   7.312   1.592   2.038
 8732TIP3    H126139   7.407   1.586   2.035
 8732TIP3    H226140   7.286   1.534   2.109
 8733TIP3   OH226141   0.452   1.822   0.479
 8733TIP3    H126142   0.461   1.758   0.549
 8733TIP3    H226143   0.378   1.877   0.505
 8734TIP3   OH226144   5.829   5.739   6.502
 8734TIP3    H126145   5.922   5.760   6.511
 8734TIP3    H226146   5.816   5.665   6.562
 8735TIP3   OH226147   5.308   7.212   2.860
 8735TIP3    H126148   5.295   7.306   2.853
 8735TIP3    H226149   5.238   7.174   2.807
 8736TIP3   OH226150   2.038   4.734   5.496
 8736TIP3    H126151   2.050   4.720   5.590
 8736TIP3    H226152   2.013   4.826   5.488
 8737TIP3   OH226153   4.558   0.188   0.175
 8737TIP3    H126154   4.476   0.228   0.148
 8737TIP3    H226155   4.602   0.255   0.227
 8738TIP3   OH226156   5.868   0.662   4.976
 8738TIP3    H126157   5.878   0.757   4.972
 8738TIP3    H226158   5.827   0.639   4.893
 8739TIP3   OH226159   5.665   2.016   3.147
 8739TIP3    H126160   5.678   1.935   3.196
 8739TIP3    H226161   5.746   2.025   3.096
 8740TIP3   OH226162   1.782   2.839   6.115
 8740TIP3    H126163   1.716   2.771   6.100
 8740TIP3    H226164   1.783   2.890   6.034
 8741TIP3   OH226165   7.027   3.706   2.322
 8741TIP3    H126166   6.996   3.745   2.404
 8741TIP3    H226167   7.120   3.729   2.318
 8742TIP3   OH226168   5.171   1.987   4.685
 8742TIP3    H126169   5.175   1.898   4.649
 8742TIP3    H226170   5.164   2.044   4.608
 8743TIP3   OH226171   2.658   4.924   5.813
 8743TIP3    H126172   2.706   4.848   5.781
 8743TIP3    H226173   2.726   4.986   5.839
 8744TIP3   OH226174   7.316   7.135   6.253
 8744TIP3    H126175   7.367   7.065   6.211
 8744TIP3    H226176   7.371   7.164   6.326
 8745TIP3   OH226177   2.246   2.221   6.249
 8745TIP3    H126178   2.244   2.316   6.237
 8745TIP3    H226179   2.250   2.209   6.343
 8746TIP3   OH226180   5.561   4.372   6.582
 8746TIP3    H126181   5.602   4.373   6.496
 8746TIP3    H226182   5.486   4.314   6.573
 8747TIP3   OH226183   2.869   4.962   4.272
 8747TIP3    H126184   2.782   4.935   4.244
 8747TIP3    H226185   2.898   4.894   4.332
 8748TIP3   OH226186   5.396   7.728   6.618
 8748TIP3    H126187   5.437   7.810   6.590
 8748TIP3    H226188   5.384   7.738   6.712
 8749TIP3   OH226189   3.945   3.145   4.574
 8749TIP3    H126190   3.919   3.198   4.649
 8749TIP3    H226191   3.923   3.199   4.498
 8750TIP3   OH226192   3.569   4.062   2.554
 8750TIP3    H126193   3.517   4.096   2.482
 8750TIP3    H226194   3.530   3.977   2.575
 8751TIP3   OH226195   4.192   5.529   1.728
 8751TIP3    H126196   4.134   5.600   1.701
 8751TIP3    H226197   4.202   5.541   1.823
 8752TIP3   OH226198   0.864   7.772   3.602
 8752TIP3    H126199   0.805   7.825   3.548
 8752TIP3    H226200   0.943   7.762   3.548
 8753TIP3   OH226201   5.514   5.605   5.507
 8753TIP3    H126202   5.424   5.628   5.483
 8753TIP3    H226203   5.553   5.572   5.426
 8754TIP3   OH226204   6.089   5.821   4.441
 8754TIP3    H126205   6.075   5.742   4.388
 8754TIP3    H226206   6.007   5.869   4.433
 8755TIP3   OH226207   5.158   2.988   2.850
 8755TIP3    H126208   5.181   3.053   2.783
 8755TIP3    H226209   5.170   2.904   2.806
 8756TIP3   OH226210   2.257   4.707   4.121
 8756TIP3    H126211   2.258   4.733   4.213
 8756TIP3    H226212   2.185   4.756   4.082
 8757TIP3   OH226213   1.249   2.422   3.689
 8757TIP3    H126214   1.229   2.464   3.773
 8757TIP3    H226215   1.254   2.328   3.710
 8758TIP3   OH226216   7.266   0.107   4.082
 8758TIP3    H126217   7.246   0.177   4.021
 8758TIP3    H226218   7.349   0.132   4.122
 8759TIP3   OH226219   6.982   1.205   1.350
 8759TIP3    H126220   7.062   1.237   1.309
 8759TIP3    H226221   6.949   1.280   1.400
 8760TIP3   OH226222   7.777   1.395   5.917
 8760TIP3    H126223   7.825   1.477   5.927
 8760TIP3    H226224   7.701   1.404   5.975
 8761TIP3   OH226225   2.506   0.240   6.486
 8761TIP3    H126226   2.578   0.182   6.512
 8761TIP3    H226227   2.433   0.181   6.467
 8762TIP3   OH226228   0.005   2.791   4.761
 8762TIP3    H126229  -0.030   2.880   4.752
 8762TIP3    H226230   0.082   2.801   4.817
 8763TIP3   OH226231   5.271   3.538   1.166
 8763TIP3    H126232   5.276   3.546   1.071
 8763TIP3    H226233   5.254   3.627   1.196
 8764TIP3   OH226234   6.569   2.625   2.579
 8764TIP3    H126235   6.574   2.642   2.673
 8764TIP3    H226236   6.537   2.535   2.572
 8765TIP3   OH226237   3.378   0.209   5.406
 8765TIP3    H126238   3.418   0.260   5.476
 8765TIP3    H226239   3.336   0.274   5.350
 8766TIP3   OH226240   1.021   3.393   5.215
 8766TIP3    H126241   1.005   3.435   5.131
 8766TIP3    H226242   1.058   3.308   5.193
 8767TIP3   OH226243   3.862   3.696   6.058
 8767TIP3    H126244   3.872   3.791   6.056
 8767TIP3    H226245   3.866   3.673   6.151
 8768TIP3   OH226246   0.629   1.616   6.185
 8768TIP3    H126247   0.687   1.660   6.122
 8768TIP3    H226248   0.543   1.617   6.142
 8769TIP3   OH226249   6.902   0.666   6.651
 8769TIP3    H126250   6.949   0.593   6.611
 8769TIP3    H226251   6.971   0.723   6.686
 8770TIP3   OH226252   5.266   2.888   5.352
 8770TIP3    H126253   5.343   2.889   5.409
 8770TIP3    H226254   5.277   2.810   5.298
 8771TIP3   OH226255   3.430   2.249   6.432
 8771TIP3    H126256   3.427   2.220   6.523
 8771TIP3    H226257   3.340   2.241   6.402
 8772TIP3   OH226258   5.737   5.607   6.278
 8772TIP3    H126259   5.779   5.664   6.342
 8772TIP3    H226260   5.683   5.548   6.330
 8773TIP3   OH226261   2.231   3.085   3.640
 8773TIP3    H126262   2.185   3.054   3.718
 8773TIP3    H226263   2.317   3.110   3.671
 8774TIP3   OH226264   5.117   3.985   3.069
 8774TIP3    H126265   5.084   3.975   3.158
 8774TIP3    H226266   5.054   4.044   3.027
 8775TIP3   OH226267   4.970   1.633   4.832
 8775TIP3    H126268   4.999   1.607   4.745
 8775TIP3    H226269   4.971   1.729   4.830
 8776TIP3   OH226270   3.715   2.556   1.568
 8776TIP3    H126271   3.661   2.596   1.500
 8776TIP3    H226272   3.706   2.461   1.553
 8777TIP3   OH226273   7.048   1.413   3.655
 8777TIP3    H126274   7.129   1.459   3.676
 8777TIP3    H226275   7.074   1.347   3.591
 8778TIP3   OH226276   4.600   3.583   3.827
 8778TIP3    H126277   4.572   3.651   3.888
 8778TIP3    H226278   4.598   3.625   3.741
 8779TIP3   OH226279   2.600   0.456   2.488
 8779TIP3    H126280   2.586   0.417   2.574
 8779TIP3    H226281   2.605   0.382   2.428
 8780TIP3   OH226282   0.163   3.885   3.709
 8780TIP3    H126283   0.084   3.851   3.667
 8780TIP3    H226284   0.235   3.848   3.659
 8781TIP3   OH226285   3.146   5.284   4.366
 8781TIP3    H126286   3.203   5.237   4.426
 8781TIP3    H226287   3.180   5.264   4.279
 8782TIP3   OH226288   0.475   6.462   4.452
 8782TIP3    H126289   0.401   6.517   4.427
 8782TIP3    H226290   0.437   6.391   4.502
 8783TIP3   OH226291   5.535   1.213   6.782
 8783TIP3    H126292   5.551   1.306   6.766
 8783TIP3    H226293   5.467   1.188   6.720
 8784TIP3   OH226294   0.534   2.945   3.453
 8784TIP3    H126295   0.568   2.966   3.366
 8784TIP3    H226296   0.612   2.932   3.507
 8785TIP3   OH226297   0.785   3.957   1.116
 8785TIP3    H126298   0.855   4.010   1.154
 8785TIP3    H226299   0.723   4.020   1.079
 8786TIP3   OH226300   2.069   0.495   6.439
 8786TIP3    H126301   2.037   0.584   6.451
 8786TIP3    H226302   2.002   0.440   6.479
 8787TIP3   OH226303   8.296   1.885   1.533
 8787TIP3    H126304   8.205   1.858   1.525
 8787TIP3    H226305   8.305   1.958   1.472
 8788TIP3   OH226306   3.169   5.308   0.172
 8788TIP3    H126307   3.258   5.342   0.160
 8788TIP3    H226308   3.165   5.232   0.113
 8789TIP3   OH226309   7.344   7.146   0.895
 8789TIP3    H126310   7.305   7.234   0.898
 8789TIP3    H226311   7.397   7.146   0.816
 8790TIP3   OH226312   5.192   5.475   5.350
 8790TIP3    H126313   5.267   5.460   5.292
 8790TIP3    H226314   5.184   5.394   5.400
 8791TIP3   OH226315   5.732   3.325   5.454
 8791TIP3    H126316   5.662   3.260   5.446
 8791TIP3    H226317   5.687   3.406   5.476
 8792TIP3   OH226318   0.145   1.135   6.080
 8792TIP3    H126319   0.105   1.208   6.032
 8792TIP3    H226320   0.140   1.161   6.172
 8793TIP3   OH226321   0.600   1.287   3.376
 8793TIP3    H126322   0.668   1.226   3.403
 8793TIP3    H226323   0.553   1.243   3.306
 8794TIP3   OH226324   4.659   2.248   5.305
 8794TIP3    H126325   4.726   2.180   5.304
 8794TIP3    H226326   4.607   2.231   5.226
 8795TIP3   OH226327   6.563   3.908   6.098
 8795TIP3    H126328   6.578   3.991   6.053
 8795TIP3    H226329   6.638   3.899   6.157
 8796TIP3   OH226330   2.597   4.590   4.605
 8796TIP3    H126331   2.676   4.538   4.586
 8796TIP3    H226332   2.556   4.544   4.679
 8797TIP3   OH226333   4.564   2.281   5.789
 8797TIP3    H126334   4.649   2.246   5.764
 8797TIP3    H226335   4.520   2.298   5.705
 8798TIP3   OH226336   7.595   3.374   2.050
 8798TIP3    H126337   7.651   3.307   2.090
 8798TIP3    H226338   7.562   3.424   2.124
 8799TIP3   OH226339   2.627   2.393   1.844
 8799TIP3    H126340   2.642   2.485   1.866
 8799TIP3    H226341   2.664   2.383   1.756
 8800TIP3   OH226342   3.879   6.054   5.347
 8800TIP3    H126343   3.840   6.140   5.360
 8800TIP3    H226344   3.888   6.046   5.252
 8801TIP3   OH226345   2.368   0.201   4.582
 8801TIP3    H126346   2.383   0.244   4.498
 8801TIP3    H226347   2.353   0.273   4.644
 8802TIP3   OH226348   6.846   6.166   5.125
 8802TIP3    H126349   6.753   6.167   5.099
 8802TIP3    H226350   6.854   6.236   5.190
 8803TIP3   OH226351   3.790   2.089   3.627
 8803TIP3    H126352   3.714   2.032   3.641
 8803TIP3    H226353   3.848   2.070   3.701
 8804TIP3   OH226354   6.470   4.822   4.115
 8804TIP3    H126355   6.464   4.809   4.209
 8804TIP3    H226356   6.455   4.736   4.077
 8805TIP3   OH226357   3.905   3.263   5.703
 8805TIP3    H126358   3.837   3.196   5.698
 8805TIP3    H226359   3.906   3.289   5.795
 8806TIP3   OH226360   4.178   1.334   5.371
 8806TIP3    H126361   4.124   1.332   5.451
 8806TIP3    H226362   4.148   1.259   5.320
 8807TIP3   OH226363   5.865   2.117   5.488
 8807TIP3    H126364   5.914   2.037   5.470
 8807TIP3    H226365   5.798   2.120   5.420
 8808TIP3   OH226366   5.040   1.048   6.707
 8808TIP3    H126367   5.026   1.142   6.697
 8808TIP3    H226368   4.983   1.008   6.641
 8809TIP3   OH226369   6.259   6.650   2.049
 8809TIP3    H126370   6.216   6.625   2.131
 8809TIP3    H226371   6.336   6.699   2.076
 8810TIP3   OH226372   1.706   6.630   5.983
 8810TIP3    H126373   1.615   6.636   6.013
 8810TIP3    H226374   1.719   6.537   5.964
 8811TIP3   OH226375   7.548   0.056   1.507
 8811TIP3    H126376   7.555   0.144   1.543
 8811TIP3    H226377   7.512   0.069   1.419
 8812TIP3   OH226378   4.788   1.410   4.618
 8812TIP3    H126379   4.882   1.404   4.604
 8812TIP3    H226380   4.757   1.319   4.609
 8813TIP3   OH226381   2.333   0.477   6.151
 8813TIP3    H126382   2.356   0.481   6.244
 8813TIP3    H226383   2.364   0.560   6.115
 8814TIP3   OH226384   7.459   5.203   6.421
 8814TIP3    H126385   7.413   5.175   6.500
 8814TIP3    H226386   7.500   5.286   6.445
 8815TIP3   OH226387   4.366   5.561   1.384
 8815TIP3    H126388   4.423   5.592   1.314
 8815TIP3    H226389   4.288   5.616   1.377
 8816TIP3   OH226390   1.929   5.549   6.672
 8816TIP3    H126391   1.915   5.489   6.745
 8816TIP3    H226392   1.847   5.598   6.665
 8817TIP3   OH226393   7.411   1.014   4.210
 8817TIP3    H126394   7.399   0.937   4.266
 8817TIP3    H226395   7.464   0.982   4.137
 8818TIP3   OH226396   5.574   0.855   1.493
 8818TIP3    H126397   5.651   0.817   1.451
 8818TIP3    H226398   5.531   0.905   1.423
 8819TIP3   OH226399   6.053   3.621   3.535
 8819TIP3    H126400   5.967   3.635   3.574
 8819TIP3    H226401   6.082   3.537   3.569
 8820TIP3   OH226402   3.739   3.475   3.136
 8820TIP3    H126403   3.789   3.400   3.101
 8820TIP3    H226404   3.728   3.454   3.229
 8821TIP3   OH226405   4.304   0.287   0.110
 8821TIP3    H126406   4.258   0.323   0.034
 8821TIP3    H226407   4.252   0.315   0.185
 8822TIP3   OH226408   7.050   4.510   2.028
 8822TIP3    H126409   6.962   4.522   2.062
 8822TIP3    H226410   7.062   4.582   1.966
 8823TIP3   OH226411   2.251   2.053   1.592
 8823TIP3    H126412   2.262   2.010   1.677
 8823TIP3    H226413   2.229   2.144   1.615
 8824TIP3   OH226414   7.406   6.628   1.057
 8824TIP3    H126415   7.498   6.615   1.035
 8824TIP3    H226416   7.364   6.544   1.038
 8825TIP3   OH226417   0.089   4.005   0.492
 8825TIP3    H126418   0.115   4.088   0.531
 8825TIP3    H226419   0.149   3.941   0.530
 8826TIP3   OH226420   1.267   6.543   1.147
 8826TIP3    H126421   1.249   6.601   1.073
 8826TIP3    H226422   1.201   6.566   1.213
 8827TIP3   OH226423   1.850   5.440   0.576
 8827TIP3    H126424   1.772   5.495   0.589
 8827TIP3    H226425   1.816   5.351   0.577
 8828TIP3   OH226426   1.476   7.614   2.730
 8828TIP3    H126427   1.453   7.698   2.692
 8828TIP3    H226428   1.571   7.617   2.741
 8829TIP3   OH226429   6.363   1.763   3.685
 8829TIP3    H126430   6.449   1.785   3.720
 8829TIP3    H226431   6.359   1.667   3.689
 8830TIP3   OH226432   7.722   2.288   3.524
 8830TIP3    H126433   7.686   2.278   3.436
 8830TIP3    H226434   7.803   2.237   3.522
 8831TIP3   OH226435   7.023   6.944   1.900
 8831TIP3    H126436   7.110   6.941   1.860
 8831TIP3    H226437   6.993   6.853   1.898
 8832TIP3   OH226438   7.824   7.490   3.255
 8832TIP3    H126439   7.855   7.456   3.339
 8832TIP3    H226440   7.765   7.421   3.222
 8833TIP3   OH226441   2.002   6.660   5.935
 8833TIP3    H126442   2.056   6.580   5.933
 8833TIP3    H226443   1.927   6.636   5.990
 8834TIP3   OH226444   0.784   1.576   4.476
 8834TIP3    H126445   0.757   1.662   4.509
 8834TIP3    H226446   0.822   1.532   4.552
 8835TIP3   OH226447   1.152   2.772   2.576
 8835TIP3    H126448   1.161   2.680   2.599
 8835TIP3    H226449   1.087   2.773   2.505
 8836TIP3   OH226450   3.691   6.066   4.292
 8836TIP3    H126451   3.674   6.126   4.365
 8836TIP3    H226452   3.704   5.981   4.334
 8837TIP3   OH226453   1.554   5.596   3.901
 8837TIP3    H126454   1.635   5.553   3.928
 8837TIP3    H226455   1.563   5.685   3.936
 8838TIP3   OH226456   6.510   0.460   0.333
 8838TIP3    H126457   6.417   0.468   0.312
 8838TIP3    H226458   6.546   0.404   0.264
 8839TIP3   OH226459   5.270   6.318   4.014
 8839TIP3    H126460   5.254   6.224   4.015
 8839TIP3    H226461   5.200   6.355   4.066
 8840TIP3   OH226462   0.957   3.536   1.140
 8840TIP3    H126463   1.040   3.531   1.093
 8840TIP3    H226464   0.972   3.487   1.221
 8841TIP3   OH226465   3.894   7.692   3.384
 8841TIP3    H126466   3.918   7.736   3.465
 8841TIP3    H226467   3.951   7.615   3.380
 8842TIP3   OH226468   4.875   3.722   1.887
 8842TIP3    H126469   4.796   3.750   1.842
 8842TIP3    H226470   4.851   3.722   1.980
 8843TIP3   OH226471   1.106   7.382   2.246
 8843TIP3    H126472   1.175   7.429   2.198
 8843TIP3    H226473   1.146   7.297   2.268
 8844TIP3   OH226474   0.833   4.982   5.880
 8844TIP3    H126475   0.760   4.923   5.860
 8844TIP3    H226476   0.792   5.068   5.893
 8845TIP3   OH226477   7.071   1.347   1.656
 8845TIP3    H126478   6.981   1.378   1.663
 8845TIP3    H226479   7.110   1.366   1.741
 8846TIP3   OH226480   4.952   1.065   4.014
 8846TIP3    H126481   5.036   1.050   4.057
 8846TIP3    H226482   4.915   1.141   4.060
 8847TIP3   OH226483   7.358   4.874   1.088
 8847TIP3    H126484   7.436   4.889   1.034
 8847TIP3    H226485   7.319   4.961   1.099
 8848TIP3   OH226486   3.879   1.994   5.069
 8848TIP3    H126487   3.868   2.079   5.112
 8848TIP3    H226488   3.839   1.932   5.130
 8849TIP3   OH226489   7.094   5.511   6.193
 8849TIP3    H126490   7.187   5.502   6.214
 8849TIP3    H226491   7.089   5.589   6.139
 8850TIP3   OH226492   7.271   2.242   2.712
 8850TIP3    H126493   7.230   2.186   2.778
 8850TIP3    H226494   7.289   2.324   2.758
 8851TIP3   OH226495   1.711   1.301   6.067
 8851TIP3    H126496   1.697   1.207   6.053
 8851TIP3    H226497   1.800   1.307   6.102
 8852TIP3   OH226498   2.684   4.612   2.408
 8852TIP3    H126499   2.746   4.594   2.337
 8852TIP3    H226500   2.732   4.588   2.488
 8853TIP3   OH226501   2.474   1.066   4.586
 8853TIP3    H126502   2.470   1.055   4.681
 8853TIP3    H226503   2.385   1.046   4.556
 8854TIP3   OH226504   1.804   7.437   2.006
 8854TIP3    H126505   1.892   7.411   1.978
 8854TIP3    H226506   1.745   7.397   1.942
 8855TIP3   OH226507   7.654   3.678   1.636
 8855TIP3    H126508   7.737   3.636   1.661
 8855TIP3    H226509   7.614   3.702   1.719
 8856TIP3   OH226510   3.783   7.520   5.986
 8856TIP3    H126511   3.717   7.503   5.919
 8856TIP3    H226512   3.773   7.612   6.008
 8857TIP3   OH226513   7.647   2.140   1.080
 8857TIP3    H126514   7.626   2.182   1.163
 8857TIP3    H226515   7.612   2.199   1.013
 8858TIP3   OH226516   0.474   4.023   5.887
 8858TIP3    H126517   0.409   3.956   5.866
 8858TIP3    H226518   0.479   4.022   5.983
 8859TIP3   OH226519   5.367   7.176   3.922
 8859TIP3    H126520   5.309   7.138   3.856
 8859TIP3    H226521   5.349   7.126   4.001
 8860TIP3   OH226522   5.405   1.755   3.319
 8860TIP3    H126523   5.491   1.733   3.283
 8860TIP3    H226524   5.346   1.690   3.280
 8861TIP3   OH226525   6.716   2.286   0.211
 8861TIP3    H126526   6.776   2.351   0.248
 8861TIP3    H226527   6.629   2.322   0.227
 8862TIP3   OH226528   3.152   7.152   4.757
 8862TIP3    H126529   3.128   7.069   4.716
 8862TIP3    H226530   3.247   7.159   4.744
 8863TIP3   OH226531   0.353   3.287   3.236
 8863TIP3    H126532   0.427   3.258   3.290
 8863TIP3    H226533   0.278   3.241   3.273
 8864TIP3   OH226534   7.171   4.540   3.506
 8864TIP3    H126535   7.233   4.603   3.542
 8864TIP3    H226536   7.103   4.531   3.573
 8865TIP3   OH226537   6.592   5.452   5.739
 8865TIP3    H126538   6.631   5.410   5.662
 8865TIP3    H226539   6.502   5.419   5.741
 8866TIP3   OH226540   7.728   2.352   0.504
 8866TIP3    H126541   7.677   2.297   0.564
 8866TIP3    H226542   7.665   2.415   0.469
 8867TIP3   OH226543   2.889   5.258   2.781
 8867TIP3    H126544   2.840   5.177   2.766
 8867TIP3    H226545   2.828   5.315   2.828
 8868TIP3   OH226546   5.267   1.807   4.323
 8868TIP3    H126547   5.229   1.775   4.404
 8868TIP3    H226548   5.262   1.902   4.329
 8869TIP3   OH226549   6.863   1.527   6.356
 8869TIP3    H126550   6.827   1.438   6.354
 8869TIP3    H226551   6.905   1.534   6.442
 8870TIP3   OH226552   1.753   4.977   5.726
 8870TIP3    H126553   1.752   4.951   5.634
 8870TIP3    H226554   1.731   5.071   5.725
 8871TIP3   OH226555   5.031   3.348   4.610
 8871TIP3    H126556   5.086   3.297   4.669
 8871TIP3    H226557   5.090   3.410   4.569
 8872TIP3   OH226558   4.673   5.378   4.647
 8872TIP3    H126559   4.650   5.444   4.713
 8872TIP3    H226560   4.756   5.343   4.678
 8873TIP3   OH226561   2.998   5.015   4.008
 8873TIP3    H126562   2.961   4.928   3.994
 8873TIP3    H226563   2.978   5.035   4.099
 8874TIP3   OH226564   2.965   3.204   3.502
 8874TIP3    H126565   3.000   3.221   3.415
 8874TIP3    H226566   3.027   3.141   3.541
 8875TIP3   OH226567   7.459   2.567   2.520
 8875TIP3    H126568   7.460   2.647   2.467
 8875TIP3    H226569   7.451   2.496   2.456
 8876TIP3   OH226570   0.548   1.899   0.260
 8876TIP3    H126571   0.589   1.985   0.269
 8876TIP3    H226572   0.508   1.883   0.345
 8877TIP3   OH226573   3.355   2.384   1.193
 8877TIP3    H126574   3.346   2.478   1.178
 8877TIP3    H226575   3.281   2.361   1.250
 8878TIP3   OH226576   3.928   0.923   6.538
 8878TIP3    H126577   3.956   0.950   6.451
 8878TIP3    H226578   3.998   0.866   6.570
 8879TIP3   OH226579   6.022   7.172   3.655
 8879TIP3    H126580   6.115   7.182   3.636
 8879TIP3    H226581   6.014   7.086   3.696
 8880TIP3   OH226582   4.532   0.476   0.629
 8880TIP3    H126583   4.571   0.536   0.693
 8880TIP3    H226584   4.475   0.419   0.681
 8881TIP3   OH226585   2.703   1.800   4.741
 8881TIP3    H126586   2.799   1.804   4.734
 8881TIP3    H226587   2.684   1.835   4.828
 8882TIP3   OH226588   5.357   5.169   0.983
 8882TIP3    H126589   5.347   5.076   0.999
 8882TIP3    H226590   5.435   5.176   0.928
 8883TIP3   OH226591   3.168   6.600   3.581
 8883TIP3    H126592   3.114   6.653   3.523
 8883TIP3    H226593   3.166   6.646   3.665
 8884TIP3   OH226594   5.735   1.364   1.390
 8884TIP3    H126595   5.659   1.315   1.422
 8884TIP3    H226596   5.698   1.428   1.330
 8885TIP3   OH226597   4.931   7.638   1.004
 8885TIP3    H126598   4.928   7.602   0.916
 8885TIP3    H226599   4.953   7.731   0.991
 8886TIP3   OH226600   6.364   5.539   3.743
 8886TIP3    H126601   6.402   5.610   3.795
 8886TIP3    H226602   6.351   5.467   3.805
 8887TIP3   OH226603   3.460   3.202   6.474
 8887TIP3    H126604   3.371   3.183   6.505
 8887TIP3    H226605   3.452   3.209   6.379
 8888TIP3   OH226606   2.022   5.621   0.110
 8888TIP3    H126607   2.093   5.565   0.079
 8888TIP3    H226608   1.984   5.657   0.030
 8889TIP3   OH226609   6.555   3.879   3.648
 8889TIP3    H126610   6.614   3.915   3.715
 8889TIP3    H226611   6.590   3.912   3.565
 8890TIP3   OH226612   7.396   0.763   4.076
 8890TIP3    H126613   7.354   0.715   4.147
 8890TIP3    H226614   7.330   0.768   4.008
 8891TIP3   OH226615   6.445   3.977   0.718
 8891TIP3    H126616   6.425   3.928   0.798
 8891TIP3    H226617   6.530   3.945   0.690
 8892TIP3   OH226618   7.608   2.995   3.825
 8892TIP3    H126619   7.621   2.902   3.809
 8892TIP3    H226620   7.515   3.010   3.811
 8893TIP3   OH226621   4.783   4.001   5.594
 8893TIP3    H126622   4.871   4.013   5.629
 8893TIP3    H226623   4.782   4.053   5.514
 8894TIP3   OH226624   1.570   3.436   6.630
 8894TIP3    H126625   1.592   3.495   6.702
 8894TIP3    H226626   1.654   3.416   6.588
 8895TIP3   OH226627   4.595   5.968   3.073
 8895TIP3    H126628   4.636   6.012   3.148
 8895TIP3    H226629   4.605   5.875   3.092
 8896TIP3   OH226630   6.381   5.062   4.543
 8896TIP3    H126631   6.473   5.040   4.532
 8896TIP3    H226632   6.350   5.082   4.454
 8897TIP3   OH226633   2.911   2.994   2.255
 8897TIP3    H126634   2.953   2.989   2.169
 8897TIP3    H226635   2.978   3.031   2.312
 8898TIP3   OH226636   8.131   5.832   2.750
 8898TIP3    H126637   8.150   5.834   2.656
 8898TIP3    H226638   8.117   5.740   2.770
 8899TIP3   OH226639   2.178   5.460   3.019
 8899TIP3    H126640   2.158   5.398   3.090
 8899TIP3    H226641   2.098   5.512   3.010
 8900TIP3   OH226642   8.269   5.088   3.787
 8900TIP3    H126643   8.257   5.023   3.718
 8900TIP3    H226644   8.363   5.107   3.787
 8901TIP3   OH226645   7.093   5.383   3.200
 8901TIP3    H126646   7.154   5.363   3.129
 8901TIP3    H226647   7.043   5.303   3.212
 8902TIP3   OH226648   5.256   1.744   4.029
 8902TIP3    H126649   5.248   1.838   4.046
 8902TIP3    H226650   5.324   1.715   4.090
 8903TIP3   OH226651   0.125   2.548   0.791
 8903TIP3    H126652   0.112   2.632   0.746
 8903TIP3    H226653   0.054   2.493   0.759
 8904TIP3   OH226654   3.033   4.983   0.615
 8904TIP3    H126655   2.987   4.936   0.545
 8904TIP3    H226656   3.068   4.914   0.670
 8905TIP3   OH226657   1.057   2.314   2.660
 8905TIP3    H126658   1.013   2.281   2.738
 8905TIP3    H226659   0.996   2.297   2.589
 8906TIP3   OH226660   0.608   3.811   1.768
 8906TIP3    H126661   0.668   3.769   1.706
 8906TIP3    H226662   0.526   3.820   1.720
 8907TIP3   OH226663   1.785   2.424   4.565
 8907TIP3    H126664   1.850   2.388   4.504
 8907TIP3    H226665   1.734   2.348   4.593
 8908TIP3   OH226666   2.429   5.992   0.055
 8908TIP3    H126667   2.511   5.962   0.095
 8908TIP3    H226668   2.362   5.936   0.094
 8909TIP3   OH226669   7.617   0.781   0.208
 8909TIP3    H126670   7.628   0.687   0.223
 8909TIP3    H226671   7.566   0.812   0.284
 8910TIP3   OH226672   7.812   7.271   5.518
 8910TIP3    H126673   7.840   7.181   5.536
 8910TIP3    H226674   7.893   7.319   5.501
 8911TIP3   OH226675   3.140   3.507   1.290
 8911TIP3    H126676   3.184   3.494   1.206
 8911TIP3    H226677   3.187   3.450   1.351
 8912TIP3   OH226678   5.674   6.963   5.719
 8912TIP3    H126679   5.656   6.879   5.761
 8912TIP3    H226680   5.704   7.019   5.791
 8913TIP3   OH226681   4.034   6.278   6.748
 8913TIP3    H126682   4.047   6.214   6.678
 8913TIP3    H226683   4.050   6.363   6.705
 8914TIP3   OH226684   2.808   5.403   1.365
 8914TIP3    H126685   2.722   5.399   1.407
 8914TIP3    H226686   2.804   5.336   1.297
 8915TIP3   OH226687   1.973   4.117   5.865
 8915TIP3    H126688   1.956   4.024   5.855
 8915TIP3    H226689   2.066   4.127   5.847
 8916TIP3   OH226690   5.909   1.341   2.847
 8916TIP3    H126691   5.946   1.285   2.778
 8916TIP3    H226692   5.815   1.327   2.841
 8917TIP3   OH226693   6.099   6.331   6.189
 8917TIP3    H126694   6.147   6.317   6.270
 8917TIP3    H226695   6.013   6.293   6.205
 8918TIP3   OH226696   5.248   1.408   3.977
 8918TIP3    H126697   5.160   1.431   4.007
 8918TIP3    H226698   5.307   1.446   4.042
 8919TIP3   OH226699   5.826   4.243   4.323
 8919TIP3    H126700   5.822   4.332   4.289
 8919TIP3    H226701   5.736   4.223   4.348
 8920TIP3   OH226702   8.174   2.544   1.415
 8920TIP3    H126703   8.093   2.498   1.438
 8920TIP3    H226704   8.243   2.492   1.455
 8921TIP3   OH226705   0.659   6.765   5.859
 8921TIP3    H126706   0.673   6.772   5.764
 8921TIP3    H226707   0.589   6.828   5.877
 8922TIP3   OH226708   5.576   2.396   6.323
 8922TIP3    H126709   5.596   2.456   6.394
 8922TIP3    H226710   5.660   2.381   6.279
 8923TIP3   OH226711   2.994   1.462   2.462
 8923TIP3    H126712   3.011   1.369   2.474
 8923TIP3    H226713   2.916   1.479   2.516
 8924TIP3   OH226714   5.794   1.796   3.801
 8924TIP3    H126715   5.711   1.782   3.846
 8924TIP3    H226716   5.828   1.877   3.839
 8925TIP3   OH226717   3.992   6.321   0.786
 8925TIP3    H126718   3.900   6.300   0.770
 8925TIP3    H226719   3.995   6.416   0.788
 8926TIP3   OH226720   7.036   1.547   4.906
 8926TIP3    H126721   7.007   1.579   4.821
 8926TIP3    H226722   7.002   1.457   4.911
 8927TIP3   OH226723   3.249   2.818   0.396
 8927TIP3    H126724   3.312   2.773   0.453
 8927TIP3    H226725   3.229   2.754   0.328
 8928TIP3   OH226726   4.795   3.236   1.006
 8928TIP3    H126727   4.709   3.277   1.006
 8928TIP3    H226728   4.815   3.221   0.914
 8929TIP3   OH226729   7.250   2.575   5.644
 8929TIP3    H126730   7.276   2.641   5.580
 8929TIP3    H226731   7.269   2.491   5.602
 8930TIP3   OH226732   7.878   0.763   5.150
 8930TIP3    H126733   7.943   0.693   5.157
 8930TIP3    H226734   7.855   0.765   5.057
 8931TIP3   OH226735   3.335   6.012   2.416
 8931TIP3    H126736   3.285   5.930   2.415
 8931TIP3    H226737   3.340   6.038   2.324
 8932TIP3   OH226738   7.717   2.707   2.261
 8932TIP3    H126739   7.723   2.766   2.186
 8932TIP3    H226740   7.628   2.718   2.294
 8933TIP3   OH226741   2.350   4.445   3.358
 8933TIP3    H126742   2.368   4.436   3.264
 8933TIP3    H226743   2.327   4.538   3.369
 8934TIP3   OH226744   2.327   3.825   5.387
 8934TIP3    H126745   2.259   3.873   5.339
 8934TIP3    H226746   2.395   3.809   5.322
 8935TIP3   OH226747   2.472   7.162   0.235
 8935TIP3    H126748   2.476   7.140   0.328
 8935TIP3    H226749   2.448   7.080   0.192
 8936TIP3   OH226750   5.106   1.652   5.950
 8936TIP3    H126751   5.170   1.580   5.953
 8936TIP3    H226752   5.151   1.725   5.992
 8937TIP3   OH226753   1.517   5.945   1.995
 8937TIP3    H126754   1.439   6.001   1.995
 8937TIP3    H226755   1.483   5.856   1.999
 8938TIP3   OH226756   3.359   7.120   6.253
 8938TIP3    H126757   3.346   7.139   6.346
 8938TIP3    H226758   3.413   7.193   6.222
 8939TIP3   OH226759   5.436   2.244   4.580
 8939TIP3    H126760   5.398   2.331   4.594
 8939TIP3    H226761   5.525   2.250   4.615
 8940TIP3   OH226762   5.014   7.675   1.438
 8940TIP3    H126763   4.989   7.742   1.375
 8940TIP3    H226764   5.103   7.651   1.415
 8941TIP3   OH226765   0.825   3.037   3.812
 8941TIP3    H126766   0.772   2.968   3.772
 8941TIP3    H226767   0.819   3.021   3.906
 8942TIP3   OH226768   1.638   2.874   0.078
 8942TIP3    H126769   1.707   2.826   0.123
 8942TIP3    H226770   1.563   2.814   0.077
 8943TIP3   OH226771   5.114   7.063   1.811
 8943TIP3    H126772   5.060   7.057   1.731
 8943TIP3    H226773   5.158   7.148   1.804
 8944TIP3   OH226774   3.714   0.670   6.625
 8944TIP3    H126775   3.622   0.643   6.630
 8944TIP3    H226776   3.731   0.710   6.711
 8945TIP3   OH226777   8.264   2.609   2.607
 8945TIP3    H126778   8.189   2.613   2.667
 8945TIP3    H226779   8.240   2.542   2.542
 8946TIP3   OH226780   4.333   5.031   0.590
 8946TIP3    H126781   4.237   5.029   0.585
 8946TIP3    H226782   4.360   5.084   0.515
 8947TIP3   OH226783   1.177   2.751   3.348
 8947TIP3    H126784   1.104   2.806   3.378
 8947TIP3    H226785   1.243   2.813   3.319
 8948TIP3   OH226786   7.053   7.174   3.808
 8948TIP3    H126787   6.959   7.171   3.793
 8948TIP3    H226788   7.067   7.120   3.886
 8949TIP3   OH226789   7.307   6.019   4.424
 8949TIP3    H126790   7.255   6.065   4.490
 8949TIP3    H226791   7.351   5.950   4.473
 8950TIP3   OH226792   2.363   1.872   1.415
 8950TIP3    H126793   2.409   1.842   1.493
 8950TIP3    H226794   2.307   1.943   1.446
 8951TIP3   OH226795   3.631   6.820   1.892
 8951TIP3    H126796   3.569   6.887   1.920
 8951TIP3    H226797   3.587   6.774   1.821
 8952TIP3   OH226798   6.112   5.095   5.381
 8952TIP3    H126799   6.161   5.165   5.425
 8952TIP3    H226800   6.125   5.112   5.288
 8953TIP3   OH226801   4.360   0.374   1.530
 8953TIP3    H126802   4.424   0.316   1.488
 8953TIP3    H226803   4.319   0.422   1.458
 8954TIP3   OH226804   6.615   5.893   3.744
 8954TIP3    H126805   6.584   5.983   3.753
 8954TIP3    H226806   6.558   5.842   3.802
 8955TIP3   OH226807   1.891   6.382   4.784
 8955TIP3    H126808   1.897   6.431   4.866
 8955TIP3    H226809   1.939   6.435   4.721
 8956TIP3   OH226810   7.958   0.405   4.651
 8956TIP3    H126811   7.892   0.464   4.687
 8956TIP3    H226812   7.929   0.388   4.562
 8957TIP3   OH226813   0.126   0.060   0.692
 8957TIP3    H126814   0.126   0.141   0.743
 8957TIP3    H226815   0.046   0.014   0.719
 8958TIP3   OH226816   0.763   2.886   1.280
 8958TIP3    H126817   0.811   2.833   1.217
 8958TIP3    H226818   0.694   2.928   1.228
 8959TIP3   OH226819   4.615   5.286   6.241
 8959TIP3    H126820   4.705   5.252   6.241
 8959TIP3    H226821   4.572   5.240   6.169
 8960TIP3   OH226822   1.742   1.057   0.130
 8960TIP3    H126823   1.789   1.088   0.207
 8960TIP3    H226824   1.734   1.135   0.074
 8961TIP3   OH226825   3.656   5.464   5.288
 8961TIP3    H126826   3.625   5.375   5.306
 8961TIP3    H226827   3.626   5.482   5.199
 8962TIP3   OH226828   8.210   4.359   2.617
 8962TIP3    H126829   8.221   4.351   2.523
 8962TIP3    H226830   8.120   4.329   2.634
 8963TIP3   OH226831   1.477   6.731   0.063
 8963TIP3    H126832   1.490   6.783   0.142
 8963TIP3    H226833   1.467   6.796  -0.007
 8964TIP3   OH226834   5.578   4.346   4.334
 8964TIP3    H126835   5.582   4.412   4.404
 8964TIP3    H226836   5.548   4.396   4.257
 8965TIP3   OH226837   1.580   3.789   6.547
 8965TIP3    H126838   1.600   3.744   6.465
 8965TIP3    H226839   1.506   3.740   6.583
 8966TIP3   OH226840   0.253   4.530   3.129
 8966TIP3    H126841   0.162   4.531   3.100
 8966TIP3    H226842   0.248   4.545   3.223
 8967TIP3   OH226843   0.386   0.146   0.014
 8967TIP3    H126844   0.313   0.139   0.076
 8967TIP3    H226845   0.414   0.238   0.020
 8968TIP3   OH226846   7.592   6.696   3.536
 8968TIP3    H126847   7.567   6.654   3.454
 8968TIP3    H226848   7.566   6.787   3.525
 8969TIP3   OH226849   5.699   6.068   4.650
 8969TIP3    H126850   5.661   6.147   4.612
 8969TIP3    H226851   5.751   6.099   4.724
 8970TIP3   OH226852   1.068   4.260   5.565
 8970TIP3    H126853   1.158   4.283   5.545
 8970TIP3    H226854   1.058   4.278   5.658
 8971TIP3   OH226855   8.100   2.714   3.563
 8971TIP3    H126856   8.074   2.638   3.616
 8971TIP3    H226857   8.036   2.781   3.586
 8972TIP3   OH226858   4.269   4.803   4.540
 8972TIP3    H126859   4.273   4.833   4.449
 8972TIP3    H226860   4.181   4.827   4.570
 8973TIP3   OH226861   1.958   7.222   5.199
 8973TIP3    H126862   1.990   7.242   5.111
 8973TIP3    H226863   2.034   7.233   5.256
 8974TIP3   OH226864   7.774   0.138   2.847
 8974TIP3    H126865   7.826   0.059   2.864
 8974TIP3    H226866   7.700   0.132   2.907
 8975TIP3   OH226867   5.714   0.124   5.431
 8975TIP3    H126868   5.801   0.088   5.448
 8975TIP3    H226869   5.730   0.199   5.374
 8976TIP3   OH226870   3.122   7.586   4.735
 8976TIP3    H126871   3.119   7.643   4.658
 8976TIP3    H226872   3.166   7.507   4.703
 8977TIP3   OH226873   5.376   4.080   3.187
 8977TIP3    H126874   5.370   3.996   3.141
 8977TIP3    H226875   5.339   4.063   3.274
 8978TIP3   OH226876   0.747   7.575   0.566
 8978TIP3    H126877   0.698   7.568   0.484
 8978TIP3    H226878   0.839   7.568   0.540
 8979TIP3   OH226879   5.286   6.519   4.706
 8979TIP3    H126880   5.212   6.577   4.721
 8979TIP3    H226881   5.356   6.576   4.674
 8980TIP3   OH226882   6.953   2.231   2.797
 8980TIP3    H126883   6.945   2.286   2.719
 8980TIP3    H226884   7.033   2.180   2.782
 8981TIP3   OH226885   5.396   3.775   1.279
 8981TIP3    H126886   5.395   3.782   1.375
 8981TIP3    H226887   5.314   3.816   1.251
 8982TIP3   OH226888   3.692   3.840   6.715
 8982TIP3    H126889   3.611   3.790   6.721
 8982TIP3    H226890   3.715   3.837   6.623
 8983TIP3   OH226891   2.937   1.906   5.668
 8983TIP3    H126892   2.955   1.814   5.686
 8983TIP3    H226893   2.923   1.945   5.755
 8984TIP3   OH226894   8.144   7.386   1.158
 8984TIP3    H126895   8.066   7.398   1.104
 8984TIP3    H226896   8.215   7.378   1.094
 8985TIP3   OH226897   0.785   1.377   1.712
 8985TIP3    H126898   0.755   1.292   1.680
 8985TIP3    H226899   0.871   1.388   1.672
 8986TIP3   OH226900   6.673   5.929   5.272
 8986TIP3    H126901   6.639   5.980   5.345
 8986TIP3    H226902   6.689   5.842   5.309
 8987TIP3   OH226903   2.621   2.501   5.818
 8987TIP3    H126904   2.685   2.436   5.847
 8987TIP3    H226905   2.567   2.455   5.754
 8988TIP3   OH226906   5.034   1.586   4.019
 8988TIP3    H126907   5.113   1.632   3.992
 8988TIP3    H226908   5.026   1.604   4.112
 8989TIP3   OH226909   0.283   3.889   4.116
 8989TIP3    H126910   0.198   3.846   4.109
 8989TIP3    H226911   0.263   3.972   4.160
 8990TIP3   OH226912   2.835   3.820   1.180
 8990TIP3    H126913   2.756   3.784   1.221
 8990TIP3    H226914   2.846   3.768   1.100
 8991TIP3   OH226915   8.128   1.844   2.065
 8991TIP3    H126916   8.078   1.881   1.992
 8991TIP3    H226917   8.218   1.868   2.047
 8992TIP3   OH226918   7.213   4.370   5.360
 8992TIP3    H126919   7.226   4.280   5.391
 8992TIP3    H226920   7.258   4.424   5.425
 8993TIP3   OH226921   3.046   7.451   3.556
 8993TIP3    H126922   2.986   7.501   3.611
 8993TIP3    H226923   3.005   7.450   3.470
 8994TIP3   OH226924   2.134   3.062   3.109
 8994TIP3    H126925   2.099   2.973   3.116
 8994TIP3    H226926   2.188   3.072   3.188
 8995TIP3   OH226927   3.627   5.650   0.815
 8995TIP3    H126928   3.694   5.583   0.833
 8995TIP3    H226929   3.551   5.622   0.865
 8996TIP3   OH226930   4.487   2.300   0.969
 8996TIP3    H126931   4.411   2.327   1.021
 8996TIP3    H226932   4.455   2.229   0.914
 8997TIP3   OH226933   4.445   2.587   1.780
 8997TIP3    H126934   4.358   2.563   1.750
 8997TIP3    H226935   4.462   2.529   1.854
 8998TIP3   OH226936   2.271   1.217   4.202
 8998TIP3    H126937   2.248   1.250   4.115
 8998TIP3    H226938   2.335   1.148   4.186
 8999TIP3   OH226939   5.187   2.239   4.198
 8999TIP3    H126940   5.240   2.319   4.207
 8999TIP3    H226941   5.097   2.271   4.200
 9000TIP3   OH226942   5.024   4.218   5.414
 9000TIP3    H126943   5.073   4.298   5.396
 9000TIP3    H226944   4.953   4.218   5.350
 9001TIP3   OH226945   0.506   5.938   0.067
 9001TIP3    H126946   0.523   5.984  -0.015
 9001TIP3    H226947   0.453   5.862   0.042
 9002TIP3   OH226948   0.493   6.113   6.078
 9002TIP3    H126949   0.565   6.116   6.016
 9002TIP3    H226950   0.516   6.178   6.145
 9003TIP3   OH226951   0.529   6.186   1.951
 9003TIP3    H126952   0.612   6.155   1.986
 9003TIP3    H226953   0.547   6.203   1.858
 9004TIP3   OH226954   5.004   0.131   3.723
 9004TIP3    H126955   4.939   0.143   3.654
 9004TIP3    H226956   5.034   0.041   3.713
 9005TIP3   OH226957   4.575   3.844   6.038
 9005TIP3    H126958   4.616   3.758   6.034
 9005TIP3    H226959   4.575   3.875   5.948
 9006TIP3   OH226960   5.096   5.298   2.537
 9006TIP3    H126961   5.183   5.335   2.520
 9006TIP3    H226962   5.109   5.237   2.609
 9007TIP3   OH226963   7.146   2.362   6.114
 9007TIP3    H126964   7.109   2.318   6.037
 9007TIP3    H226965   7.160   2.292   6.177
 9008TIP3   OH226966   3.098   5.005   6.063
 9008TIP3    H126967   3.045   5.044   6.132
 9008TIP3    H226968   3.186   4.997   6.101
 9009TIP3   OH226969   6.371   3.024   4.437
 9009TIP3    H126970   6.354   3.002   4.345
 9009TIP3    H226971   6.362   3.119   4.440
 9010TIP3   OH226972   1.664   5.358   4.031
 9010TIP3    H126973   1.647   5.363   4.125
 9010TIP3    H226974   1.683   5.265   4.015
 9011TIP3   OH226975   1.921   2.915   5.063
 9011TIP3    H126976   1.923   2.961   4.979
 9011TIP3    H226977   1.959   2.829   5.045
 9012TIP3   OH226978   7.878   1.868   4.342
 9012TIP3    H126979   7.888   1.960   4.319
 9012TIP3    H226980   7.799   1.864   4.395
 9013TIP3   OH226981   6.027   3.852   3.888
 9013TIP3    H126982   6.073   3.791   3.945
 9013TIP3    H226983   6.037   3.938   3.930
 9014TIP3   OH226984   2.694   3.138   3.415
 9014TIP3    H126985   2.781   3.159   3.448
 9014TIP3    H226986   2.675   3.051   3.450
 9015TIP3   OH226987   3.336   4.809   1.892
 9015TIP3    H126988   3.337   4.725   1.937
 9015TIP3    H226989   3.279   4.864   1.945
 9016TIP3   OH226990   3.341   2.323   2.442
 9016TIP3    H126991   3.317   2.383   2.513
 9016TIP3    H226992   3.306   2.364   2.363
 9017TIP3   OH226993   3.643   4.415   5.884
 9017TIP3    H126994   3.695   4.361   5.944
 9017TIP3    H226995   3.708   4.459   5.830
 9018TIP3   OH226996   4.460   6.659   0.582
 9018TIP3    H126997   4.479   6.581   0.530
 9018TIP3    H226998   4.382   6.636   0.632
 9019TIP3   OH226999   3.766   3.553   5.808
 9019TIP3    H127000   3.853   3.519   5.829
 9019TIP3    H227001   3.717   3.547   5.890
 9020TIP3   OH227002   4.902   1.142   4.381
 9020TIP3    H127003   4.834   1.143   4.314
 9020TIP3    H227004   4.975   1.188   4.341
 9021TIP3   OH227005   7.526   1.461   2.355
 9021TIP3    H127006   7.436   1.472   2.323
 9021TIP3    H227007   7.534   1.367   2.371
 9022TIP3   OH227008   1.843   7.524   6.634
 9022TIP3    H127009   1.795   7.595   6.593
 9022TIP3    H227010   1.782   7.486   6.697
 9023TIP3   OH227011   1.225   6.940   3.355
 9023TIP3    H127012   1.268   6.870   3.404
 9023TIP3    H227013   1.272   6.944   3.272
 9024TIP3   OH227014   3.609   0.402   2.377
 9024TIP3    H127015   3.703   0.396   2.394
 9024TIP3    H227016   3.586   0.318   2.336
 9025TIP3   OH227017   5.580   0.456   5.063
 9025TIP3    H127018   5.604   0.394   4.994
 9025TIP3    H227019   5.562   0.401   5.139
 9026TIP3   OH227020   4.334   7.795   6.595
 9026TIP3    H127021   4.407   7.758   6.643
 9026TIP3    H227022   4.274   7.827   6.662
 9027TIP3   OH227023   4.028   2.646   1.152
 9027TIP3    H127024   3.965   2.584   1.190
 9027TIP3    H227025   4.050   2.704   1.225
 9028TIP3   OH227026   3.058   3.910   3.071
 9028TIP3    H127027   2.994   3.853   3.113
 9028TIP3    H227028   3.025   3.922   2.982
 9029TIP3   OH227029   5.978   6.334   2.521
 9029TIP3    H127030   5.927   6.343   2.440
 9029TIP3    H227031   6.063   6.301   2.492
 9030TIP3   OH227032   3.242   5.319   6.479
 9030TIP3    H127033   3.224   5.280   6.565
 9030TIP3    H227034   3.194   5.402   6.480
 9031TIP3   OH227035   3.526   4.578   4.358
 9031TIP3    H127036   3.528   4.507   4.423
 9031TIP3    H227037   3.476   4.541   4.285
 9032TIP3   OH227038   5.003   1.314   3.761
 9032TIP3    H127039   4.911   1.329   3.742
 9032TIP3    H227040   5.046   1.398   3.742
 9033TIP3   OH227041   2.054   2.001   1.375
 9033TIP3    H127042   1.997   1.951   1.434
 9033TIP3    H227043   2.075   2.081   1.424
 9034TIP3   OH227044   0.779   2.852   2.101
 9034TIP3    H127045   0.872   2.859   2.124
 9034TIP3    H227046   0.775   2.880   2.009
 9035TIP3   OH227047   8.119   2.497   4.583
 9035TIP3    H127048   8.212   2.517   4.570
 9035TIP3    H227049   8.074   2.560   4.527
 9036TIP3   OH227050   4.543   6.261   5.328
 9036TIP3    H127051   4.604   6.218   5.388
 9036TIP3    H227052   4.515   6.191   5.268
 9037TIP3   OH227053   4.127   6.451   4.754
 9037TIP3    H127054   4.166   6.534   4.781
 9037TIP3    H227055   4.168   6.432   4.669
 9038TIP3   OH227056   5.259   1.617   0.797
 9038TIP3    H127057   5.238   1.567   0.718
 9038TIP3    H227058   5.232   1.561   0.869
 9039TIP3   OH227059   2.057   5.469   0.386
 9039TIP3    H127060   2.112   5.531   0.434
 9039TIP3    H227061   1.982   5.454   0.444
 9040TIP3   OH227062   0.711   1.464   0.780
 9040TIP3    H127063   0.798   1.500   0.762
 9040TIP3    H227064   0.650   1.531   0.748
 9041TIP3   OH227065   3.727   6.190   2.839
 9041TIP3    H127066   3.717   6.172   2.933
 9041TIP3    H227067   3.798   6.131   2.812
 9042TIP3   OH227068   4.621   4.227   1.035
 9042TIP3    H127069   4.693   4.195   1.089
 9042TIP3    H227070   4.655   4.307   0.995
 9043TIP3   OH227071   5.006   2.196   3.516
 9043TIP3    H127072   5.098   2.178   3.536
 9043TIP3    H227073   5.007   2.277   3.467
 9044TIP3   OH227074   0.543   6.585   0.087
 9044TIP3    H127075   0.608   6.516   0.105
 9044TIP3    H227076   0.586   6.666   0.114
 9045TIP3   OH227077   3.494   0.152   4.130
 9045TIP3    H127078   3.556   0.110   4.071
 9045TIP3    H227079   3.411   0.153   4.081
 9046TIP3   OH227080   4.249   1.699   0.975
 9046TIP3    H127081   4.272   1.614   1.013
 9046TIP3    H227082   4.155   1.709   0.994
 9047TIP3   OH227083   3.820   5.231   0.068
 9047TIP3    H127084   3.832   5.185   0.151
 9047TIP3    H227085   3.895   5.205   0.015
 9048TIP3   OH227086   3.166   0.228   4.353
 9048TIP3    H127087   3.177   0.319   4.323
 9048TIP3    H227088   3.213   0.225   4.436
 9049TIP3   OH227089   6.006   3.345   1.759
 9049TIP3    H127090   5.975   3.284   1.692
 9049TIP3    H227091   6.093   3.313   1.782
 9050TIP3   OH227092   2.220   5.215   0.797
 9050TIP3    H127093   2.153   5.283   0.790
 9050TIP3    H227094   2.228   5.179   0.709
 9051TIP3   OH227095   2.414   5.647   0.935
 9051TIP3    H127096   2.347   5.651   1.002
 9051TIP3    H227097   2.377   5.694   0.860
 9052TIP3   OH227098   1.125   2.456   3.933
 9052TIP3    H127099   1.051   2.493   3.886
 9052TIP3    H227100   1.101   2.365   3.949
 9053TIP3   OH227101   3.856   5.458   2.624
 9053TIP3    H127102   3.788   5.460   2.691
 9053TIP3    H227103   3.832   5.527   2.563
 9054TIP3   OH227104   1.997   5.054   2.602
 9054TIP3    H127105   1.917   5.010   2.630
 9054TIP3    H227106   2.067   5.011   2.651
 9055TIP3   OH227107   7.046   0.513   5.258
 9055TIP3    H127108   7.140   0.532   5.265
 9055TIP3    H227109   7.039   0.420   5.278
 9056TIP3   OH227110   2.510   4.991   2.408
 9056TIP3    H127111   2.584   4.947   2.366
 9056TIP3    H227112   2.535   5.084   2.407
 9057TIP3   OH227113   2.073   4.426   0.102
 9057TIP3    H127114   2.137   4.386   0.161
 9057TIP3    H227115   2.012   4.471   0.161
 9058TIP3   OH227116   5.124   2.199   3.809
 9058TIP3    H127117   5.058   2.262   3.780
 9058TIP3    H227118   5.207   2.238   3.783
 9059TIP3   OH227119   0.198   5.169   1.805
 9059TIP3    H127120   0.107   5.196   1.816
 9059TIP3    H227121   0.222   5.200   1.718
 9060TIP3   OH227122   4.557   5.979   2.418
 9060TIP3    H127123   4.641   5.936   2.439
 9060TIP3    H227124   4.578   6.038   2.346
 9061TIP3   OH227125   8.006   4.298   4.104
 9061TIP3    H127126   8.091   4.323   4.070
 9061TIP3    H227127   7.997   4.348   4.185
 9062TIP3   OH227128   4.487   0.531   1.751
 9062TIP3    H127129   4.428   0.481   1.694
 9062TIP3    H227130   4.574   0.516   1.713
 9063TIP3   OH227131   4.240   2.377   1.305
 9063TIP3    H127132   4.257   2.448   1.367
 9063TIP3    H227133   4.327   2.344   1.283
 9064TIP3   OH227134   3.962   4.565   3.151
 9064TIP3    H127135   4.032   4.628   3.133
 9064TIP3    H227136   4.008   4.481   3.156
 9065TIP3   OH227137   1.174   6.809   3.972
 9065TIP3    H127138   1.082   6.835   3.971
 9065TIP3    H227139   1.221   6.890   3.995
 9066TIP3   OH227140   7.756   1.716   4.105
 9066TIP3    H127141   7.841   1.705   4.148
 9066TIP3    H227142   7.768   1.679   4.018
 9067TIP3   OH227143   4.737   6.461   5.345
 9067TIP3    H127144   4.725   6.556   5.351
 9067TIP3    H227145   4.657   6.430   5.303
 9068TIP3   OH227146   7.568   6.432   4.131
 9068TIP3    H127147   7.624   6.410   4.056
 9068TIP3    H227148   7.550   6.526   4.120
 9069TIP3   OH227149   2.644   5.066   0.601
 9069TIP3    H127150   2.703   5.119   0.547
 9069TIP3    H227151   2.569   5.047   0.544
 9070TIP3   OH227152   3.399   3.239   2.060
 9070TIP3    H127153   3.437   3.201   1.981
 9070TIP3    H227154   3.474   3.273   2.109
 9071TIP3   OH227155   3.776   5.971   1.348
 9071TIP3    H127156   3.748   5.890   1.389
 9071TIP3    H227157   3.775   6.035   1.419
 9072TIP3   OH227158   6.883   3.302   2.971
 9072TIP3    H127159   6.945   3.256   2.915
 9072TIP3    H227160   6.890   3.394   2.944
 9073TIP3   OH227161   7.142   6.817   2.681
 9073TIP3    H127162   7.186   6.766   2.612
 9073TIP3    H227163   7.156   6.766   2.761
 9074TIP3   OH227164   1.054   3.805   1.162
 9074TIP3    H127165   1.082   3.870   1.098
 9074TIP3    H227166   0.999   3.744   1.112
 9075TIP3   OH227167   0.891   3.002   5.716
 9075TIP3    H127168   0.866   3.091   5.744
 9075TIP3    H227169   0.986   3.000   5.726
 9076TIP3   OH227170   0.822   3.681   4.714
 9076TIP3    H127171   0.795   3.746   4.650
 9076TIP3    H227172   0.915   3.697   4.728
 9077TIP3   OH227173   1.486   4.435   0.155
 9077TIP3    H127174   1.541   4.424   0.232
 9077TIP3    H227175   1.545   4.467   0.088
 9078TIP3   OH227176   2.835   0.035   2.525
 9078TIP3    H127177   2.812   0.127   2.513
 9078TIP3    H227178   2.925   0.037   2.558
 9079TIP3   OH227179   8.079   5.585   0.741
 9079TIP3    H127180   8.010   5.571   0.675
 9079TIP3    H227181   8.057   5.523   0.811
 9080TIP3   OH227182   5.846   4.109   1.480
 9080TIP3    H127183   5.842   4.063   1.564
 9080TIP3    H227184   5.875   4.042   1.418
 9081TIP3   OH227185   0.133   3.475   6.597
 9081TIP3    H127186   0.170   3.552   6.641
 9081TIP3    H227187   0.099   3.421   6.668
 9082TIP3   OH227188   4.071   1.386   1.193
 9082TIP3    H127189   4.057   1.446   1.267
 9082TIP3    H227190   4.150   1.420   1.150
 9083TIP3   OH227191   1.580   2.037   1.824
 9083TIP3    H127192   1.612   2.027   1.913
 9083TIP3    H227193   1.621   1.965   1.775
 9084TIP3   OH227194   0.269   0.619   2.999
 9084TIP3    H127195   0.332   0.662   2.942
 9084TIP3    H227196   0.274   0.526   2.974
 9085TIP3   OH227197   7.696   4.773   3.259
 9085TIP3    H127198   7.775   4.821   3.230
 9085TIP3    H227199   7.680   4.806   3.347
 9086TIP3   OH227200   4.360   0.338   5.958
 9086TIP3    H127201   4.299   0.403   5.992
 9086TIP3    H227202   4.433   0.389   5.923
 9087TIP3   OH227203   2.512   7.194   1.005
 9087TIP3    H127204   2.463   7.232   1.077
 9087TIP3    H227205   2.478   7.104   0.998
 9088TIP3   OH227206   3.188   6.791   4.897
 9088TIP3    H127207   3.188   6.753   4.810
 9088TIP3    H227208   3.261   6.853   4.897
 9089TIP3   OH227209   4.331   7.533   3.009
 9089TIP3    H127210   4.405   7.478   2.983
 9089TIP3    H227211   4.371   7.610   3.048
 9090TIP3   OH227212   5.968   6.015   5.767
 9090TIP3    H127213   5.950   6.069   5.844
 9090TIP3    H227214   5.886   6.015   5.718
 9091TIP3   OH227215   2.609   1.733   0.774
 9091TIP3    H127216   2.524   1.710   0.814
 9091TIP3    H227217   2.673   1.709   0.840
 9092TIP3   OH227218   3.332   7.247   2.903
 9092TIP3    H127219   3.328   7.320   2.841
 9092TIP3    H227220   3.243   7.211   2.903
 9093TIP3   OH227221   8.144   6.289   0.144
 9093TIP3    H127222   8.142   6.202   0.105
 9093TIP3    H227223   8.213   6.285   0.210
 9094TIP3   OH227224   4.777   2.673   3.988
 9094TIP3    H127225   4.863   2.665   4.029
 9094TIP3    H227226   4.793   2.664   3.895
 9095TIP3   OH227227   2.041   1.247   0.519
 9095TIP3    H127228   2.076   1.334   0.502
 9095TIP3    H227229   2.116   1.188   0.511
 9096TIP3   OH227230   2.354   0.649   1.887
 9096TIP3    H127231   2.300   0.613   1.816
 9096TIP3    H227232   2.364   0.576   1.948
 9097TIP3   OH227233   1.568   6.552   6.571
 9097TIP3    H127234   1.495   6.497   6.542
 9097TIP3    H227235   1.532   6.607   6.640
 9098TIP3   OH227236   0.233   7.081   0.312
 9098TIP3    H127237   0.239   7.167   0.354
 9098TIP3    H227238   0.152   7.084   0.262
 9099TIP3   OH227239   0.860   4.274   4.635
 9099TIP3    H127240   0.808   4.250   4.712
 9099TIP3    H227241   0.826   4.359   4.608
 9100TIP3   OH227242   5.024   2.653   0.160
 9100TIP3    H127243   5.086   2.582   0.145
 9100TIP3    H227244   4.942   2.622   0.121
 9101TIP3   OH227245   0.496   4.280   1.791
 9101TIP3    H127246   0.495   4.367   1.752
 9101TIP3    H227247   0.451   4.291   1.875
 9102TIP3   OH227248   6.705   0.644   1.042
 9102TIP3    H127249   6.693   0.620   0.950
 9102TIP3    H227250   6.694   0.739   1.044
 9103TIP3   OH227251   2.266   2.509   3.772
 9103TIP3    H127252   2.314   2.431   3.745
 9103TIP3    H227253   2.240   2.491   3.862
 9104TIP3   OH227254   8.123   6.180   5.668
 9104TIP3    H127255   8.074   6.164   5.749
 9104TIP3    H227256   8.215   6.170   5.693
 9105TIP3   OH227257   3.541   5.103   0.956
 9105TIP3    H127258   3.612   5.115   0.893
 9105TIP3    H227259   3.463   5.136   0.911
 9106TIP3   OH227260   3.690   4.850   5.093
 9106TIP3    H127261   3.728   4.938   5.083
 9106TIP3    H227262   3.764   4.791   5.077
 9107TIP3   OH227263   7.046   4.560   3.139
 9107TIP3    H127264   7.008   4.608   3.213
 9107TIP3    H227265   7.006   4.600   3.062
 9108TIP3   OH227266   0.841   3.855   5.101
 9108TIP3    H127267   0.769   3.914   5.123
 9108TIP3    H227268   0.890   3.846   5.183
 9109TIP3   OH227269   3.571   2.695   5.424
 9109TIP3    H127270   3.655   2.737   5.441
 9109TIP3    H227271   3.512   2.768   5.402
 9110TIP3   OH227272   4.047   3.831   0.245
 9110TIP3    H127273   3.970   3.888   0.234
 9110TIP3    H227274   4.014   3.757   0.296
 9111TIP3   OH227275   6.879   0.540   1.664
 9111TIP3    H127276   6.870   0.455   1.707
 9111TIP3    H227277   6.836   0.529   1.580
 9112TIP3   OH227278   5.825   3.688   0.640
 9112TIP3    H127279   5.747   3.735   0.668
 9112TIP3    H227280   5.842   3.626   0.711
 9113TIP3   OH227281   7.356   6.359   0.598
 9113TIP3    H127282   7.323   6.449   0.590
 9113TIP3    H227283   7.278   6.306   0.614
 9114TIP3   OH227284   5.139   5.730   4.179
 9114TIP3    H127285   5.142   5.727   4.275
 9114TIP3    H227286   5.053   5.692   4.158
 9115TIP3   OH227287   4.487   0.224   2.936
 9115TIP3    H127288   4.557   0.260   2.990
 9115TIP3    H227289   4.409   0.226   2.991
 9116TIP3   OH227290   6.075   6.339   0.604
 9116TIP3    H127291   6.136   6.402   0.566
 9116TIP3    H227292   6.127   6.293   0.670
 9117TIP3   OH227293   2.498   6.916   3.673
 9117TIP3    H127294   2.469   6.825   3.685
 9117TIP3    H227295   2.422   6.960   3.634
 9118TIP3   OH227296   5.432   4.386   4.095
 9118TIP3    H127297   5.417   4.299   4.058
 9118TIP3    H227298   5.419   4.446   4.022
 9119TIP3   OH227299   7.434   5.415   2.807
 9119TIP3    H127300   7.398   5.451   2.725
 9119TIP3    H227301   7.519   5.380   2.781
 9120TIP3   OH227302   5.725   3.588   4.896
 9120TIP3    H127303   5.674   3.507   4.889
 9120TIP3    H227304   5.706   3.621   4.983
 9121TIP3   OH227305   0.888   4.265   6.382
 9121TIP3    H127306   0.968   4.295   6.426
 9121TIP3    H227307   0.851   4.344   6.343
 9122TIP3   OH227308   2.242   0.202   0.105
 9122TIP3    H127309   2.170   0.154   0.064
 9122TIP3    H227310   2.273   0.144   0.174
 9123TIP3   OH227311   7.478   6.148   4.632
 9123TIP3    H127312   7.523   6.135   4.549
 9123TIP3    H227313   7.520   6.088   4.692
 9124TIP3   OH227314   4.040   0.515   4.972
 9124TIP3    H127315   3.952   0.516   5.009
 9124TIP3    H227316   4.037   0.578   4.900
 9125TIP3   OH227317   3.418   7.244   6.513
 9125TIP3    H127318   3.384   7.245   6.602
 9125TIP3    H227319   3.469   7.325   6.505
 9126TIP3   OH227320   5.019   6.511   2.321
 9126TIP3    H127321   5.021   6.545   2.410
 9126TIP3    H227322   5.070   6.574   2.270
 9127TIP3   OH227323   1.506   6.613   0.346
 9127TIP3    H127324   1.514   6.707   0.327
 9127TIP3    H227325   1.537   6.571   0.266
 9128TIP3   OH227326   0.773   2.473   3.474
 9128TIP3    H127327   0.711   2.484   3.401
 9128TIP3    H227328   0.850   2.523   3.448
 9129TIP3   OH227329   2.097   0.269   5.795
 9129TIP3    H127330   2.047   0.344   5.762
 9129TIP3    H227331   2.166   0.309   5.849
 9130TIP3   OH227332   2.371   1.059   1.164
 9130TIP3    H127333   2.427   1.034   1.090
 9130TIP3    H227334   2.431   1.100   1.227
 9131TIP3   OH227335   7.021   6.116   1.412
 9131TIP3    H127336   7.100   6.063   1.415
 9131TIP3    H227337   7.014   6.154   1.500
 9132TIP3   OH227338   4.273   2.518   2.151
 9132TIP3    H127339   4.207   2.586   2.170
 9132TIP3    H227340   4.309   2.495   2.237
 9133TIP3   OH227341   5.910   6.910   3.442
 9133TIP3    H127342   5.878   6.930   3.530
 9133TIP3    H227343   5.995   6.869   3.456
 9134TIP3   OH227344   6.971   0.382   0.110
 9134TIP3    H127345   7.015   0.318   0.165
 9134TIP3    H227346   7.026   0.390   0.033
 9135TIP3   OH227347   3.674   6.641   3.234
 9135TIP3    H127348   3.629   6.720   3.265
 9135TIP3    H227349   3.613   6.602   3.170
 9136TIP3   OH227350   3.880   2.033   5.531
 9136TIP3    H127351   3.821   2.020   5.605
 9136TIP3    H227352   3.867   1.956   5.476
 9137TIP3   OH227353   4.490   6.074   4.186
 9137TIP3    H127354   4.434   6.131   4.133
 9137TIP3    H227355   4.574   6.074   4.140
 9138TIP3   OH227356   6.032   3.093   3.741
 9138TIP3    H127357   6.080   3.031   3.796
 9138TIP3    H227358   6.100   3.148   3.702
 9139TIP3   OH227359   4.315   6.298   4.986
 9139TIP3    H127360   4.319   6.246   4.906
 9139TIP3    H227361   4.402   6.290   5.025
 9140TIP3   OH227362   3.992   7.135   1.746
 9140TIP3    H127363   3.943   7.054   1.728
 9140TIP3    H227364   4.079   7.105   1.770
 9141TIP3   OH227365   1.039   0.369   5.949
 9141TIP3    H127366   1.049   0.296   5.887
 9141TIP3    H227367   1.005   0.328   6.029
 9142TIP3   OH227368   2.738   7.198   4.446
 9142TIP3    H127369   2.834   7.190   4.451
 9142TIP3    H227370   2.706   7.109   4.461
 9143TIP3   OH227371   4.011   4.543   4.733
 9143TIP3    H127372   4.031   4.524   4.641
 9143TIP3    H227373   4.034   4.463   4.779
 9144TIP3   OH227374   6.699   3.566   2.584
 9144TIP3    H127375   6.637   3.494   2.570
 9144TIP3    H227376   6.730   3.587   2.496
 9145TIP3   OH227377   2.182   6.552   5.672
 9145TIP3    H127378   2.179   6.644   5.698
 9145TIP3    H227379   2.090   6.525   5.671
 9146TIP3   OH227380   5.793   2.691   3.511
 9146TIP3    H127381   5.768   2.612   3.463
 9146TIP3    H227382   5.813   2.660   3.599
 9147TIP3   OH227383   6.101   2.987   6.138
 9147TIP3    H127384   6.128   2.933   6.213
 9147TIP3    H227385   6.035   2.934   6.093
 9148TIP3   OH227386   0.165   5.862   5.287
 9148TIP3    H127387   0.176   5.938   5.344
 9148TIP3    H227388   0.129   5.794   5.343
 9149TIP3   OH227389   6.255   5.525   4.433
 9149TIP3    H127390   6.232   5.467   4.361
 9149TIP3    H227391   6.333   5.572   4.402
 9150TIP3   OH227392   2.605   2.962   5.825
 9150TIP3    H127393   2.578   2.888   5.880
 9150TIP3    H227394   2.526   3.015   5.816
 9151TIP3   OH227395   1.904   5.175   3.499
 9151TIP3    H127396   1.882   5.091   3.460
 9151TIP3    H227397   1.877   5.168   3.590
 9152TIP3   OH227398   4.325   2.562   6.159
 9152TIP3    H127399   4.305   2.578   6.067
 9152TIP3    H227400   4.420   2.568   6.164
 9153TIP3   OH227401   0.255   5.821   0.484
 9153TIP3    H127402   0.200   5.896   0.506
 9153TIP3    H227403   0.325   5.822   0.550
 9154TIP3   OH227404   1.957   6.782   5.407
 9154TIP3    H127405   2.038   6.739   5.382
 9154TIP3    H227406   1.894   6.711   5.415
 9155TIP3   OH227407   2.980   1.398   6.133
 9155TIP3    H127408   3.075   1.400   6.145
 9155TIP3    H227409   2.968   1.391   6.038
 9156TIP3   OH227410   4.336   7.124   6.249
 9156TIP3    H127411   4.377   7.175   6.179
 9156TIP3    H227412   4.300   7.190   6.309
 9157TIP3   OH227413   0.835   0.941   4.513
 9157TIP3    H127414   0.917   0.906   4.478
 9157TIP3    H227415   0.851   1.035   4.520
 9158TIP3   OH227416   1.257   4.765   2.632
 9158TIP3    H127417   1.214   4.714   2.563
 9158TIP3    H227418   1.332   4.712   2.658
 9159TIP3   OH227419   1.617   4.302   1.699
 9159TIP3    H127420   1.525   4.324   1.711
 9159TIP3    H227421   1.665   4.379   1.729
 9160TIP3   OH227422   2.066   7.493   6.147
 9160TIP3    H127423   2.042   7.403   6.166
 9160TIP3    H227424   2.036   7.543   6.223
 9161TIP3   OH227425   1.569   5.334   4.284
 9161TIP3    H127426   1.610   5.399   4.340
 9161TIP3    H227427   1.589   5.250   4.325
 9162TIP3   OH227428   1.190   0.496   4.989
 9162TIP3    H127429   1.101   0.460   4.988
 9162TIP3    H227430   1.206   0.519   5.080
 9163TIP3   OH227431   2.072   1.539   4.080
 9163TIP3    H127432   1.999   1.597   4.062
 9163TIP3    H227433   2.111   1.522   3.995
 9164TIP3   OH227434   0.380   5.306   6.543
 9164TIP3    H127435   0.399   5.254   6.621
 9164TIP3    H227436   0.419   5.392   6.561
 9165TIP3   OH227437   5.662   3.325   2.778
 9165TIP3    H127438   5.750   3.289   2.768
 9165TIP3    H227439   5.649   3.331   2.873
 9166TIP3   OH227440   5.585   1.495   5.880
 9166TIP3    H127441   5.624   1.449   5.955
 9166TIP3    H227442   5.565   1.582   5.915
 9167TIP3   OH227443   6.600   5.747   1.273
 9167TIP3    H127444   6.612   5.653   1.285
 9167TIP3    H227445   6.688   5.781   1.263
 9168TIP3   OH227446   4.866   6.848   3.098
 9168TIP3    H127447   4.832   6.799   3.173
 9168TIP3    H227448   4.926   6.912   3.136
 9169TIP3   OH227449   6.293   0.559   1.862
 9169TIP3    H127450   6.254   0.646   1.857
 9169TIP3    H227451   6.381   0.570   1.827
 9170TIP3   OH227452   0.417   3.547   3.481
 9170TIP3    H127453   0.408   3.463   3.436
 9170TIP3    H227454   0.489   3.534   3.542
 9171TIP3   OH227455   5.014   2.692   2.812
 9171TIP3    H127456   5.107   2.685   2.793
 9171TIP3    H227457   5.003   2.642   2.893
 9172TIP3   OH227458   4.106   5.214   0.380
 9172TIP3    H127459   4.200   5.214   0.398
 9172TIP3    H227460   4.091   5.296   0.332
 9173TIP3   OH227461   1.125   4.360   6.477
 9173TIP3    H127462   1.087   4.434   6.523
 9173TIP3    H227463   1.170   4.309   6.545
 9174TIP3   OH227464   7.390   5.729   5.233
 9174TIP3    H127465   7.464   5.736   5.172
 9174TIP3    H227466   7.314   5.711   5.177
 9175TIP3   OH227467   7.402   1.091   4.906
 9175TIP3    H127468   7.355   1.165   4.868
 9175TIP3    H227469   7.392   1.020   4.842
 9176TIP3   OH227470   7.473   5.150   0.767
 9176TIP3    H127471   7.481   5.055   0.778
 9176TIP3    H227472   7.489   5.186   0.855
 9177TIP3   OH227473   3.517   5.782   6.038
 9177TIP3    H127474   3.536   5.794   5.945
 9177TIP3    H227475   3.577   5.841   6.083
 9178TIP3   OH227476   3.519   2.650   0.969
 9178TIP3    H127477   3.589   2.681   0.912
 9178TIP3    H227478   3.442   2.644   0.912
 9179TIP3   OH227479   7.758   4.715   0.111
 9179TIP3    H127480   7.775   4.803   0.077
 9179TIP3    H227481   7.832   4.662   0.079
 9180TIP3   OH227482   6.977   7.165   2.079
 9180TIP3    H127483   6.991   7.082   2.032
 9180TIP3    H227484   7.051   7.171   2.140
 9181TIP3   OH227485   3.416   0.814   0.712
 9181TIP3    H127486   3.322   0.797   0.721
 9181TIP3    H227487   3.455   0.728   0.704
 9182TIP3   OH227488   3.353   7.516   6.007
 9182TIP3    H127489   3.411   7.576   5.960
 9182TIP3    H227490   3.273   7.513   5.954
 9183TIP3   OH227491   1.148   2.145   4.396
 9183TIP3    H127492   1.218   2.107   4.449
 9183TIP3    H227493   1.071   2.091   4.414
 9184TIP3   OH227494   2.601   5.370   5.099
 9184TIP3    H127495   2.663   5.442   5.090
 9184TIP3    H227496   2.603   5.349   5.192
 9185TIP3   OH227497   0.538   1.792   4.264
 9185TIP3    H127498   0.539   1.799   4.169
 9185TIP3    H227499   0.550   1.699   4.282
 9186TIP3   OH227500   4.427   1.541   3.620
 9186TIP3    H127501   4.443   1.532   3.714
 9186TIP3    H227502   4.511   1.520   3.579
 9187TIP3   OH227503   8.221   1.930   3.589
 9187TIP3    H127504   8.269   2.006   3.557
 9187TIP3    H227505   8.288   1.861   3.596
 9188TIP3   OH227506   1.089   2.374   3.281
 9188TIP3    H127507   1.079   2.414   3.367
 9188TIP3    H227508   1.175   2.403   3.251
 9189TIP3   OH227509   3.260   4.957   2.885
 9189TIP3    H127510   3.282   5.022   2.952
 9189TIP3    H227511   3.304   4.989   2.806
 9190TIP3   OH227512   4.955   6.954   1.620
 9190TIP3    H127513   4.904   6.934   1.541
 9190TIP3    H227514   5.010   6.876   1.633
 9191TIP3   OH227515   8.097   1.151   0.116
 9191TIP3    H127516   8.129   1.215   0.053
 9191TIP3    H227517   8.023   1.109   0.072
 9192TIP3   OH227518   5.440   4.184   4.962
 9192TIP3    H127519   5.357   4.231   4.947
 9192TIP3    H227520   5.507   4.241   4.924
 9193TIP3   OH227521   1.116   7.527   1.884
 9193TIP3    H127522   1.034   7.570   1.860
 9193TIP3    H227523   1.144   7.573   1.964
 9194TIP3   OH227524   4.608   1.270   1.758
 9194TIP3    H127525   4.585   1.192   1.707
 9194TIP3    H227526   4.558   1.261   1.839
 9195TIP3   OH227527   2.766   2.548   1.240
 9195TIP3    H127528   2.691   2.576   1.188
 9195TIP3    H227529   2.740   2.464   1.277
 9196TIP3   OH227530   5.262   0.586   0.354
 9196TIP3    H127531   5.296   0.538   0.430
 9196TIP3    H227532   5.173   0.611   0.380
 9197TIP3   OH227533   2.580   1.799   1.590
 9197TIP3    H127534   2.660   1.828   1.545
 9197TIP3    H227535   2.591   1.832   1.679
 9198TIP3   OH227536   0.591   1.973   6.460
 9198TIP3    H127537   0.508   1.929   6.444
 9198TIP3    H227538   0.566   2.061   6.488
 9199TIP3   OH227539   8.086   4.188   5.618
 9199TIP3    H127540   8.070   4.105   5.574
 9199TIP3    H227541   8.169   4.219   5.580
 9200TIP3   OH227542   8.100   4.022   2.871
 9200TIP3    H127543   8.192   4.048   2.865
 9200TIP3    H227544   8.064   4.076   2.942
 9201TIP3   OH227545   7.099   7.748   5.344
 9201TIP3    H127546   7.044   7.782   5.414
 9201TIP3    H227547   7.126   7.826   5.295
 9202TIP3   OH227548   7.841   4.387   1.452
 9202TIP3    H127549   7.839   4.322   1.522
 9202TIP3    H227550   7.934   4.393   1.427
 9203TIP3   OH227551   5.049   3.980   1.014
 9203TIP3    H127552   5.131   3.963   0.968
 9203TIP3    H227553   4.985   3.923   0.972
 9204TIP3   OH227554   1.357   6.129   1.123
 9204TIP3    H127555   1.398   6.176   1.050
 9204TIP3    H227556   1.300   6.065   1.081
 9205TIP3   OH227557   7.107   5.402   2.101
 9205TIP3    H127558   7.178   5.433   2.044
 9205TIP3    H227559   7.134   5.428   2.189
 9206TIP3   OH227560   2.889   0.764   2.032
 9206TIP3    H127561   2.802   0.743   2.066
 9206TIP3    H227562   2.949   0.710   2.084
 9207TIP3   OH227563   5.439   4.214   0.051
 9207TIP3    H127564   5.529   4.246   0.043
 9207TIP3    H227565   5.443   4.124   0.019
 9208TIP3   OH227566   2.046   6.030   2.261
 9208TIP3    H127567   2.125   6.064   2.303
 9208TIP3    H227568   2.059   5.936   2.257
 9209TIP3   OH227569   6.382   2.995   0.250
 9209TIP3    H127570   6.468   3.009   0.210
 9209TIP3    H227571   6.391   2.913   0.299
 9210TIP3   OH227572   6.655   2.456   3.902
 9210TIP3    H127573   6.671   2.457   3.996
 9210TIP3    H227574   6.693   2.538   3.870
 9211TIP3   OH227575   6.288   1.813   3.029
 9211TIP3    H127576   6.300   1.884   3.093
 9211TIP3    H227577   6.295   1.733   3.081
 9212TIP3   OH227578   7.813   3.210   3.203
 9212TIP3    H127579   7.898   3.226   3.244
 9212TIP3    H227580   7.829   3.138   3.142
 9213TIP3   OH227581   5.742   5.484   5.142
 9213TIP3    H127582   5.677   5.438   5.090
 9213TIP3    H227583   5.818   5.426   5.143
 9214TIP3   OH227584   6.030   0.208   4.186
 9214TIP3    H127585   5.961   0.174   4.242
 9214TIP3    H227586   6.084   0.263   4.244
 9215TIP3   OH227587   3.331   4.049   3.357
 9215TIP3    H127588   3.328   4.006   3.272
 9215TIP3    H227589   3.422   4.042   3.385
 9216TIP3   OH227590   7.547   0.364   3.542
 9216TIP3    H127591   7.576   0.327   3.458
 9216TIP3    H227592   7.491   0.437   3.518
 9217TIP3   OH227593   4.067   5.708   6.118
 9217TIP3    H127594   4.018   5.735   6.195
 9217TIP3    H227595   4.013   5.735   6.044
 9218TIP3   OH227596   5.522   0.490   5.902
 9218TIP3    H127597   5.549   0.441   5.980
 9218TIP3    H227598   5.450   0.545   5.931
 9219TIP3   OH227599   1.560   6.151   0.742
 9219TIP3    H127600   1.598   6.096   0.810
 9219TIP3    H227601   1.596   6.238   0.758
 9220TIP3   OH227602   0.894   5.936  -0.002
 9220TIP3    H127603   0.811   5.889  -0.011
 9220TIP3    H227604   0.954   5.871   0.035
 9221TIP3   OH227605   4.979   2.992   6.777
 9221TIP3    H127606   4.919   2.920   6.799
 9221TIP3    H227607   5.013   2.969   6.690
 9222TIP3   OH227608   3.407   2.153   3.936
 9222TIP3    H127609   3.372   2.171   4.023
 9222TIP3    H227610   3.350   2.084   3.901
 9223TIP3   OH227611   7.154   3.029   2.985
 9223TIP3    H127612   7.236   3.077   2.977
 9223TIP3    H227613   7.121   3.053   3.072
 9224TIP3   OH227614   7.634   7.087   3.804
 9224TIP3    H127615   7.620   7.180   3.818
 9224TIP3    H227616   7.646   7.051   3.892
 9225TIP3   OH227617   5.138   6.238   5.967
 9225TIP3    H127618   5.048   6.225   5.999
 9225TIP3    H227619   5.150   6.169   5.902
 9226TIP3   OH227620   4.148   4.441   4.516
 9226TIP3    H127621   4.190   4.356   4.519
 9226TIP3    H227622   4.216   4.503   4.544
 9227TIP3   OH227623   4.737   2.986   2.528
 9227TIP3    H127624   4.735   3.082   2.523
 9227TIP3    H227625   4.779   2.968   2.612
 9228TIP3   OH227626   3.256   2.264   4.740
 9228TIP3    H127627   3.263   2.231   4.829
 9228TIP3    H227628   3.290   2.194   4.685
 9229TIP3   OH227629   0.118   3.190   1.016
 9229TIP3    H127630   0.189   3.201   1.079
 9229TIP3    H227631   0.134   3.104   0.977
 9230TIP3   OH227632   4.476   4.231   2.021
 9230TIP3    H127633   4.463   4.297   2.089
 9230TIP3    H227634   4.414   4.162   2.043
 9231TIP3   OH227635   1.541   3.206   1.890
 9231TIP3    H127636   1.469   3.221   1.829
 9231TIP3    H227637   1.499   3.177   1.971
 9232TIP3   OH227638   5.116   4.951   0.224
 9232TIP3    H127639   5.051   4.886   0.200
 9232TIP3    H227640   5.198   4.902   0.229
 9233TIP3   OH227641   6.093   0.853   0.673
 9233TIP3    H127642   6.111   0.914   0.744
 9233TIP3    H227643   6.174   0.805   0.661
 9234TIP3   OH227644   0.995   3.703   2.011
 9234TIP3    H127645   0.983   3.658   2.095
 9234TIP3    H227646   0.971   3.794   2.029
 9235TIP3   OH227647   2.957   0.777   4.757
 9235TIP3    H127648   2.957   0.816   4.844
 9235TIP3    H227649   3.020   0.706   4.762
 9236TIP3   OH227650   6.268   4.888   5.978
 9236TIP3    H127651   6.284   4.982   5.982
 9236TIP3    H227652   6.202   4.878   5.909
 9237TIP3   OH227653   2.605   1.522   0.463
 9237TIP3    H127654   2.592   1.616   0.449
 9237TIP3    H227655   2.524   1.492   0.504
 9238TIP3   OH227656   2.054   0.646   0.653
 9238TIP3    H127657   1.965   0.673   0.674
 9238TIP3    H227658   2.043   0.575   0.590
 9239TIP3   OH227659   5.137   5.285   0.832
 9239TIP3    H127660   5.135   5.220   0.761
 9239TIP3    H227661   5.196   5.247   0.897
 9240TIP3   OH227662   4.966   4.253   2.672
 9240TIP3    H127663   5.002   4.207   2.748
 9240TIP3    H227664   4.877   4.219   2.664
 9241TIP3   OH227665   3.641   3.680   2.091
 9241TIP3    H127666   3.621   3.703   2.181
 9241TIP3    H227667   3.692   3.755   2.058
 9242TIP3   OH227668   7.063   2.238   0.549
 9242TIP3    H127669   7.115   2.258   0.626
 9242TIP3    H227670   6.975   2.271   0.569
 9243TIP3   OH227671   0.519   3.537   1.514
 9243TIP3    H127672   0.550   3.463   1.566
 9243TIP3    H227673   0.587   3.604   1.525
 9244TIP3   OH227674   7.172   0.327   3.664
 9244TIP3    H127675   7.176   0.295   3.574
 9244TIP3    H227676   7.264   0.342   3.688
 9245TIP3   OH227677   6.108   7.253   6.101
 9245TIP3    H127678   6.051   7.180   6.124
 9245TIP3    H227679   6.049   7.316   6.058
 9246TIP3   OH227680   0.644   6.621   6.302
 9246TIP3    H127681   0.588   6.691   6.269
 9246TIP3    H227682   0.601   6.593   6.383
 9247TIP3   OH227683   2.625   3.088   1.829
 9247TIP3    H127684   2.712   3.060   1.856
 9247TIP3    H227685   2.639   3.140   1.751
 9248TIP3   OH227686   4.080   5.252   4.810
 9248TIP3    H127687   3.985   5.260   4.798
 9248TIP3    H227688   4.112   5.342   4.802
 9249TIP3   OH227689   7.905   2.689   5.099
 9249TIP3    H127690   7.937   2.711   5.186
 9249TIP3    H227691   7.958   2.742   5.039
 9250TIP3   OH227692   8.181   4.398   6.462
 9250TIP3    H127693   8.185   4.355   6.547
 9250TIP3    H227694   8.138   4.482   6.479
 9251TIP3   OH227695   0.006   5.060   4.642
 9251TIP3    H127696   0.039   5.119   4.709
 9251TIP3    H227697   0.050   5.088   4.562
 9252TIP3   OH227698   0.690   5.489   5.235
 9252TIP3    H127699   0.641   5.528   5.307
 9252TIP3    H227700   0.659   5.535   5.157
 9253TIP3   OH227701   1.250   5.219   0.306
 9253TIP3    H127702   1.293   5.278   0.367
 9253TIP3    H227703   1.159   5.249   0.303
 9254TIP3   OH227704   3.795   7.097   6.029
 9254TIP3    H127705   3.703   7.114   6.050
 9254TIP3    H227706   3.814   7.156   5.956
 9255TIP3   OH227707   3.216   5.524   1.214
 9255TIP3    H127708   3.211   5.613   1.250
 9255TIP3    H227709   3.163   5.528   1.135
 9256TIP3   OH227710   0.196   3.392   6.320
 9256TIP3    H127711   0.131   3.335   6.278
 9256TIP3    H227712   0.149   3.431   6.394
 9257TIP3   OH227713   6.884   0.434   5.887
 9257TIP3    H127714   6.923   0.372   5.949
 9257TIP3    H227715   6.878   0.516   5.936
 9258TIP3   OH227716   6.650   0.488   4.326
 9258TIP3    H127717   6.668   0.473   4.233
 9258TIP3    H227718   6.566   0.445   4.341
 9259TIP3   OH227719   5.902   6.369   4.934
 9259TIP3    H127720   5.879   6.447   4.882
 9259TIP3    H227721   5.982   6.394   4.980
 9260TIP3   OH227722   1.180   1.864   5.205
 9260TIP3    H127723   1.118   1.925   5.245
 9260TIP3    H227724   1.202   1.803   5.275
 9261TIP3   OH227725   0.445   2.003   4.510
 9261TIP3    H127726   0.406   2.023   4.425
 9261TIP3    H227727   0.406   2.066   4.570
 9262TIP3   OH227728   4.016   2.135   2.407
 9262TIP3    H127729   3.924   2.122   2.383
 9262TIP3    H227730   4.020   2.112   2.500
 9263TIP3   OH227731   6.340   0.353   5.846
 9263TIP3    H127732   6.305   0.285   5.787
 9263TIP3    H227733   6.324   0.435   5.799
 9264TIP3   OH227734   6.412   1.108   3.950
 9264TIP3    H127735   6.371   1.041   4.005
 9264TIP3    H227736   6.495   1.128   3.994
 9265TIP3   OH227737   4.052   0.709   0.874
 9265TIP3    H127738   4.131   0.757   0.850
 9265TIP3    H227739   4.005   0.768   0.933
 9266TIP3   OH227740   5.286   6.576   3.553
 9266TIP3    H127741   5.366   6.580   3.606
 9266TIP3    H227742   5.256   6.486   3.561
 9267TIP3   OH227743   6.301   6.363   3.832
 9267TIP3    H127744   6.344   6.300   3.890
 9267TIP3    H227745   6.255   6.309   3.768
 9268TIP3   OH227746   1.740   4.379   2.527
 9268TIP3    H127747   1.782   4.299   2.497
 9268TIP3    H227748   1.795   4.410   2.599
 9269TIP3   OH227749   2.753   5.399   4.721
 9269TIP3    H127750   2.751   5.484   4.766
 9269TIP3    H227751   2.831   5.403   4.665
 9270TIP3   OH227752   2.299   0.046   0.330
 9270TIP3    H127753   2.334   0.107   0.395
 9270TIP3    H227754   2.227   0.003   0.375
 9271TIP3   OH227755   3.328   7.574   0.949
 9271TIP3    H127756   3.297   7.623   0.872
 9271TIP3    H227757   3.336   7.641   1.018
 9272TIP3   OH227758   7.402   0.393   5.057
 9272TIP3    H127759   7.349   0.314   5.057
 9272TIP3    H227760   7.373   0.442   5.134
 9273TIP3   OH227761   6.771   3.295   3.220
 9273TIP3    H127762   6.811   3.313   3.135
 9273TIP3    H227763   6.846   3.279   3.278
 9274TIP3   OH227764   6.788   1.502   1.028
 9274TIP3    H127765   6.869   1.544   1.058
 9274TIP3    H227766   6.765   1.442   1.098
 9275TIP3   OH227767   3.083   0.995   3.836
 9275TIP3    H127768   3.080   0.901   3.853
 9275TIP3    H227769   3.084   1.002   3.740
 9276TIP3   OH227770   7.471   5.924   5.427
 9276TIP3    H127771   7.441   5.868   5.497
 9276TIP3    H227772   7.491   5.864   5.355
 9277TIP3   OH227773   3.371   2.864   5.794
 9277TIP3    H127774   3.283   2.827   5.790
 9277TIP3    H227775   3.361   2.953   5.760
 9278TIP3   OH227776   1.112   0.030   5.264
 9278TIP3    H127777   1.081   0.045   5.353
 9278TIP3    H227778   1.052   0.082   5.209
 9279TIP3   OH227779   7.879   1.903   2.747
 9279TIP3    H127780   7.928   1.973   2.791
 9279TIP3    H227781   7.798   1.946   2.718
 9280TIP3   OH227782   3.874   0.135   2.273
 9280TIP3    H127783   3.798   0.130   2.331
 9280TIP3    H227784   3.947   0.155   2.331
 9281TIP3   OH227785   2.934   0.517   0.743
 9281TIP3    H127786   2.890   0.579   0.685
 9281TIP3    H227787   2.863   0.465   0.781
 9282TIP3   OH227788   3.720   5.212   2.485
 9282TIP3    H127789   3.647   5.151   2.472
 9282TIP3    H227790   3.774   5.202   2.406
 9283TIP3   OH227791   2.023   2.131   2.093
 9283TIP3    H127792   2.061   2.196   2.034
 9283TIP3    H227793   2.081   2.131   2.169
 9284TIP3   OH227794   7.732   7.720   0.846
 9284TIP3    H127795   7.637   7.725   0.835
 9284TIP3    H227796   7.752   7.785   0.913
 9285TIP3   OH227797   6.439   0.326   1.992
 9285TIP3    H127798   6.371   0.367   1.938
 9285TIP3    H227799   6.507   0.302   1.929
 9286TIP3   OH227800   3.283   4.463   0.781
 9286TIP3    H127801   3.320   4.404   0.848
 9286TIP3    H227802   3.339   4.450   0.705
 9287TIP3   OH227803   3.965   1.943   6.673
 9287TIP3    H127804   3.936   1.919   6.585
 9287TIP3    H227805   4.027   2.015   6.659
 9288TIP3   OH227806   6.716   1.595   5.643
 9288TIP3    H127807   6.712   1.565   5.552
 9288TIP3    H227808   6.767   1.527   5.687
 9289TIP3   OH227809   3.573   4.103   3.754
 9289TIP3    H127810   3.562   4.012   3.784
 9289TIP3    H227811   3.538   4.156   3.825
 9290TIP3   OH227812   6.691   7.616   4.750
 9290TIP3    H127813   6.654   7.544   4.698
 9290TIP3    H227814   6.741   7.572   4.819
 9291TIP3   OH227815   4.572   0.826   1.492
 9291TIP3    H127816   4.616   0.796   1.412
 9291TIP3    H227817   4.491   0.775   1.495
 9292TIP3   OH227818   7.526   1.718   4.263
 9292TIP3    H127819   7.527   1.798   4.316
 9292TIP3    H227820   7.615   1.710   4.229
 9293TIP3   OH227821   0.511   4.453   6.418
 9293TIP3    H127822   0.571   4.474   6.346
 9293TIP3    H227823   0.565   4.455   6.496
 9294TIP3   OH227824   2.146   3.244   6.120
 9294TIP3    H127825   2.072   3.191   6.151
 9294TIP3    H227826   2.131   3.254   6.026
 9295TIP3   OH227827   1.498   2.621   4.139
 9295TIP3    H127828   1.416   2.670   4.147
 9295TIP3    H227829   1.544   2.663   4.067
 9296TIP3   OH227830   4.884   3.672   0.217
 9296TIP3    H127831   4.943   3.735   0.177
 9296TIP3    H227832   4.809   3.669   0.157
 9297TIP3   OH227833   4.253   2.469   1.016
 9297TIP3    H127834   4.208   2.514   0.945
 9297TIP3    H227835   4.199   2.486   1.094
 9298TIP3   OH227836   6.111   6.024   4.846
 9298TIP3    H127837   6.094   5.935   4.814
 9298TIP3    H227838   6.025   6.055   4.873
 9299TIP3   OH227839   5.823   2.849   0.239
 9299TIP3    H127840   5.820   2.794   0.161
 9299TIP3    H227841   5.733   2.880   0.250
 9300TIP3   OH227842   1.440   5.009   2.608
 9300TIP3    H127843   1.509   4.943   2.599
 9300TIP3    H227844   1.358   4.959   2.599
 9301TIP3   OH227845   0.164   0.216   4.454
 9301TIP3    H127846   0.094   0.281   4.459
 9301TIP3    H227847   0.243   0.263   4.479
 9302TIP3   OH227848   6.694   7.806   0.464
 9302TIP3    H127849   6.599   7.797   0.454
 9302TIP3    H227850   6.728   7.806   0.374
 9303TIP3   OH227851   6.623   5.493   3.015
 9303TIP3    H127852   6.705   5.541   3.017
 9303TIP3    H227853   6.627   5.442   2.933
 9304TIP3   OH227854   3.892   7.208   1.484
 9304TIP3    H127855   3.847   7.146   1.427
 9304TIP3    H227856   3.907   7.160   1.565
 9305TIP3   OH227857   5.339   5.254   4.908
 9305TIP3    H127858   5.336   5.237   4.814
 9305TIP3    H227859   5.246   5.259   4.934
 9306TIP3   OH227860   6.471   3.329   4.734
 9306TIP3    H127861   6.559   3.292   4.728
 9306TIP3    H227862   6.472   3.381   4.815
 9307TIP3   OH227863   3.302   0.775   2.416
 9307TIP3    H127864   3.318   0.683   2.436
 9307TIP3    H227865   3.386   0.817   2.429
 9308TIP3   OH227866   4.303   5.101   2.136
 9308TIP3    H127867   4.298   5.143   2.222
 9308TIP3    H227868   4.337   5.013   2.154
 9309TIP3   OH227869   1.088   6.092   5.065
 9309TIP3    H127870   1.162   6.035   5.086
 9309TIP3    H227871   1.076   6.082   4.970
 9310TIP3   OH227872   7.698   2.983   1.714
 9310TIP3    H127873   7.699   3.033   1.795
 9310TIP3    H227874   7.713   3.049   1.645
 9311TIP3   OH227875   5.520   5.609   5.218
 9311TIP3    H127876   5.614   5.592   5.211
 9311TIP3    H227877   5.482   5.565   5.142
 9312TIP3   OH227878   0.137   0.650   5.519
 9312TIP3    H127879   0.069   0.714   5.540
 9312TIP3    H227880   0.184   0.688   5.445
 9313TIP3   OH227881   2.791   1.716   1.317
 9313TIP3    H127882   2.853   1.788   1.300
 9313TIP3    H227883   2.705   1.757   1.311
 9314TIP3   OH227884   8.182   6.843   3.473
 9314TIP3    H127885   8.102   6.799   3.502
 9314TIP3    H227886   8.247   6.773   3.467
 9315TIP3   OH227887   1.794   4.967   6.546
 9315TIP3    H127888   1.790   4.881   6.588
 9315TIP3    H227889   1.846   4.954   6.467
 9316TIP3   OH227890   3.104   0.628   2.159
 9316TIP3    H127891   3.124   0.537   2.180
 9316TIP3    H227892   3.169   0.679   2.208
 9317TIP3   OH227893   1.769   4.408   0.203
 9317TIP3    H127894   1.722   4.385   0.123
 9317TIP3    H227895   1.819   4.329   0.225
 9318TIP3   OH227896   0.521   0.896   4.266
 9318TIP3    H127897   0.430   0.923   4.281
 9318TIP3    H227898   0.515   0.802   4.246
 9319TIP3   OH227899   7.098   6.474   2.638
 9319TIP3    H127900   7.077   6.438   2.725
 9319TIP3    H227901   7.100   6.398   2.580
 9320TIP3   OH227902   0.924   1.038   5.829
 9320TIP3    H127903   0.915   0.951   5.869
 9320TIP3    H227904   1.007   1.071   5.864
 9321TIP3   OH227905   5.212   7.662   0.865
 9321TIP3    H127906   5.118   7.653   0.847
 9321TIP3    H227907   5.254   7.613   0.794
 9322TIP3   OH227908   3.660   6.436   2.912
 9322TIP3    H127909   3.595   6.419   2.980
 9322TIP3    H227910   3.708   6.354   2.902
 9323TIP3   OH227911   5.727   7.448   5.288
 9323TIP3    H127912   5.669   7.378   5.317
 9323TIP3    H227913   5.753   7.493   5.369
 9324TIP3   OH227914   2.328   4.390   5.537
 9324TIP3    H127915   2.380   4.448   5.592
 9324TIP3    H227916   2.248   4.375   5.588
 9325TIP3   OH227917   5.905   3.850   4.616
 9325TIP3    H127918   5.868   3.875   4.532
 9325TIP3    H227919   5.924   3.933   4.660
 9326TIP3   OH227920   0.212   2.961   6.569
 9326TIP3    H127921   0.234   2.880   6.614
 9326TIP3    H227922   0.290   3.016   6.581
 9327TIP3   OH227923   1.388   1.986   2.659
 9327TIP3    H127924   1.387   2.077   2.629
 9327TIP3    H227925   1.420   1.936   2.583
 9328TIP3   OH227926   7.195   3.496   3.522
 9328TIP3    H127927   7.233   3.425   3.575
 9328TIP3    H227928   7.100   3.483   3.530
 9329TIP3   OH227929   4.604   2.600   4.421
 9329TIP3    H127930   4.695   2.614   4.447
 9329TIP3    H227931   4.609   2.534   4.351
 9330TIP3   OH227932   3.987   1.220   6.027
 9330TIP3    H127933   3.943   1.285   6.082
 9330TIP3    H227934   4.056   1.268   5.982
 9331TIP3   OH227935   7.164   4.895   5.595
 9331TIP3    H127936   7.233   4.863   5.653
 9331TIP3    H227937   7.131   4.817   5.551
 9332TIP3   OH227938   5.122   7.817   4.566
 9332TIP3    H127939   5.171   7.737   4.586
 9332TIP3    H227940   5.033   7.787   4.550
 9333TIP3   OH227941   4.253   2.668   0.164
 9333TIP3    H127942   4.347   2.665   0.183
 9333TIP3    H227943   4.228   2.758   0.186
 9334TIP3   OH227944   8.084   5.362   0.417
 9334TIP3    H127945   8.103   5.283   0.368
 9334TIP3    H227946   8.123   5.347   0.503
 9335TIP3   OH227947   7.612   1.335   1.903
 9335TIP3    H127948   7.547   1.273   1.935
 9335TIP3    H227949   7.609   1.324   1.808
 9336TIP3   OH227950   5.367   5.221   5.273
 9336TIP3    H127951   5.357   5.157   5.344
 9336TIP3    H227952   5.317   5.184   5.200
 9337TIP3   OH227953   2.466   4.533   0.739
 9337TIP3    H127954   2.549   4.516   0.694
 9337TIP3    H227955   2.458   4.628   0.740
 9338TIP3   OH227956   7.659   4.119   0.539
 9338TIP3    H127957   7.661   4.169   0.620
 9338TIP3    H227958   7.647   4.028   0.566
 9339TIP3   OH227959   6.335   7.268   4.747
 9339TIP3    H127960   6.288   7.327   4.806
 9339TIP3    H227961   6.306   7.180   4.774
 9340TIP3   OH227962   0.428   1.248   1.967
 9340TIP3    H127963   0.497   1.212   1.911
 9340TIP3    H227964   0.469   1.322   2.012
 9341TIP3   OH227965   6.511   6.122   6.477
 9341TIP3    H127966   6.518   6.028   6.461
 9341TIP3    H227967   6.600   6.149   6.499
 9342TIP3   OH227968   0.125   3.572   3.938
 9342TIP3    H127969   0.095   3.483   3.918
 9342TIP3    H227970   0.162   3.604   3.856
 9343TIP3   OH227971   1.139   0.963   6.754
 9343TIP3    H127972   1.221   0.998   6.720
 9343TIP3    H227973   1.107   0.905   6.685
 9344TIP3   OH227974   3.482   0.707   5.714
 9344TIP3    H127975   3.407   0.742   5.666
 9344TIP3    H227976   3.558   0.733   5.662
 9345TIP3   OH227977   3.417   3.808   5.524
 9345TIP3    H127978   3.471   3.859   5.463
 9345TIP3    H227979   3.480   3.772   5.587
 9346TIP3   OH227980   7.025   6.472   6.598
 9346TIP3    H127981   7.051   6.390   6.640
 9346TIP3    H227982   6.951   6.503   6.650
 9347TIP3   OH227983   7.405   2.648   4.588
 9347TIP3    H127984   7.353   2.624   4.511
 9347TIP3    H227985   7.479   2.696   4.553
 9348TIP3   OH227986   7.468   1.622   1.424
 9348TIP3    H127987   7.489   1.529   1.422
 9348TIP3    H227988   7.529   1.662   1.361
 9349TIP3   OH227989   0.325   2.247   6.331
 9349TIP3    H127990   0.373   2.175   6.288
 9349TIP3    H227991   0.242   2.208   6.357
 9350TIP3   OH227992   0.357   7.339   4.317
 9350TIP3    H127993   0.440   7.383   4.297
 9350TIP3    H227994   0.366   7.311   4.408
 9351TIP3   OH227995   8.155   0.524   5.360
 9351TIP3    H127996   8.133   0.437   5.326
 9351TIP3    H227997   8.087   0.542   5.425
 9352TIP3   OH227998   1.639   5.326   4.940
 9352TIP3    H127999   1.661   5.240   4.902
 9352TIP3    H228000   1.681   5.326   5.026
 9353TIP3   OH228001   2.381   4.977   3.641
 9353TIP3    H128002   2.315   5.021   3.588
 9353TIP3    H228003   2.339   4.897   3.672
 9354TIP3   OH228004   3.960   7.630   4.651
 9354TIP3    H128005   3.899   7.666   4.585
 9354TIP3    H228006   3.954   7.691   4.724
 9355TIP3   OH228007   7.641   2.523   1.634
 9355TIP3    H128008   7.632   2.605   1.586
 9355TIP3    H228009   7.552   2.498   1.656
 9356TIP3   OH228010   4.631   4.225   6.011
 9356TIP3    H128011   4.703   4.250   6.069
 9356TIP3    H228012   4.556   4.276   6.042
 9357TIP3   OH228013   0.735   3.055   4.986
 9357TIP3    H128014   0.788   3.051   5.066
 9357TIP3    H228015   0.744   2.968   4.947
 9358TIP3   OH228016   0.542   4.374   6.027
 9358TIP3    H128017   0.457   4.338   6.051
 9358TIP3    H228018   0.600   4.297   6.024
 9359TIP3   OH228019   5.513   7.653   4.503
 9359TIP3    H128020   5.556   7.693   4.579
 9359TIP3    H228021   5.421   7.648   4.529
 9360TIP3   OH228022   6.660   7.014   2.860
 9360TIP3    H128023   6.597   7.077   2.825
 9360TIP3    H228024   6.718   6.994   2.787
 9361TIP3   OH228025   0.527   5.161   0.733
 9361TIP3    H128026   0.432   5.161   0.750
 9361TIP3    H228027   0.553   5.070   0.741
 9362TIP3   OH228028   7.925   6.051   5.855
 9362TIP3    H128029   7.896   6.135   5.890
 9362TIP3    H228030   7.848   6.016   5.810
 9363TIP3   OH228031   5.643   3.754   2.228
 9363TIP3    H128032   5.613   3.664   2.218
 9363TIP3    H228033   5.737   3.751   2.208
 9364TIP3   OH228034   3.407   4.830   4.388
 9364TIP3    H128035   3.416   4.863   4.298
 9364TIP3    H228036   3.469   4.758   4.393
 9365TIP3   OH228037   2.278   5.379   6.384
 9365TIP3    H128038   2.239   5.314   6.443
 9365TIP3    H228039   2.304   5.451   6.442
 9366TIP3   OH228040   2.151   0.849   0.915
 9366TIP3    H128041   2.059   0.873   0.906
 9366TIP3    H228042   2.199   0.931   0.897
 9367TIP3   OH228043   3.232   6.330   2.052
 9367TIP3    H128044   3.178   6.308   1.976
 9367TIP3    H228045   3.219   6.424   2.064
 9368TIP3   OH228046   4.082   4.517   5.969
 9368TIP3    H128047   4.080   4.423   5.951
 9368TIP3    H228048   4.066   4.558   5.884
 9369TIP3   OH228049   4.831   4.755   0.942
 9369TIP3    H128050   4.899   4.732   0.879
 9369TIP3    H228051   4.767   4.804   0.892
 9370TIP3   OH228052   4.691   5.920   4.572
 9370TIP3    H128053   4.691   6.000   4.519
 9370TIP3    H228054   4.668   5.850   4.510
 9371TIP3   OH228055   4.386   7.169   6.676
 9371TIP3    H128056   4.378   7.264   6.667
 9371TIP3    H228057   4.439   7.142   6.601
 9372TIP3   OH228058   1.701   4.672   3.280
 9372TIP3    H128059   1.661   4.647   3.196
 9372TIP3    H228060   1.683   4.598   3.338
 9373TIP3   OH228061   3.473   2.294   0.388
 9373TIP3    H128062   3.456   2.220   0.330
 9373TIP3    H228063   3.434   2.268   0.472
 9374TIP3   OH228064   3.130   0.066   4.156
 9374TIP3    H128065   3.038   0.046   4.171
 9374TIP3    H228066   3.151   0.129   4.226
 9375TIP3   OH228067   6.670   5.985   3.322
 9375TIP3    H128068   6.614   5.912   3.296
 9375TIP3    H228069   6.758   5.948   3.324
 9376TIP3   OH228070   5.638   2.939   3.129
 9376TIP3    H128071   5.658   3.027   3.159
 9376TIP3    H228072   5.710   2.885   3.161
 9377TIP3   OH228073   1.974   4.445   3.341
 9377TIP3    H128074   1.903   4.391   3.375
 9377TIP3    H228075   1.978   4.520   3.400
 9378TIP3   OH228076   0.731   0.906   5.221
 9378TIP3    H128077   0.816   0.942   5.245
 9378TIP3    H228078   0.687   0.887   5.304
 9379TIP3   OH228079   1.228   7.259   3.992
 9379TIP3    H128080   1.183   7.324   3.937
 9379TIP3    H228081   1.315   7.296   4.007
 9380TIP3   OH228082   3.908   4.644   2.833
 9380TIP3    H128083   3.874   4.727   2.868
 9380TIP3    H228084   3.831   4.588   2.826
 9381TIP3   OH228085   1.219   2.645   4.133
 9381TIP3    H128086   1.195   2.586   4.205
 9381TIP3    H228087   1.181   2.605   4.055
 9382TIP3   OH228088   6.498   0.634   2.625
 9382TIP3    H128089   6.552   0.712   2.610
 9382TIP3    H228090   6.465   0.644   2.714
 9383TIP3   OH228091   7.773   2.736   0.333
 9383TIP3    H128092   7.687   2.775   0.348
 9383TIP3    H228093   7.826   2.768   0.406
 9384TIP3   OH228094   8.133   7.697   0.411
 9384TIP3    H128095   8.043   7.694   0.379
 9384TIP3    H228096   8.125   7.717   0.505
 9385TIP3   OH228097   6.552   4.048   6.691
 9385TIP3    H128098   6.535   3.976   6.630
 9385TIP3    H228099   6.647   4.047   6.704
 9386TIP3   OH228100   4.885   6.202   1.081
 9386TIP3    H128101   4.917   6.117   1.110
 9386TIP3    H228102   4.965   6.252   1.063
 9387TIP3   OH228103   4.697   2.537   3.238
 9387TIP3    H128104   4.620   2.480   3.230
 9387TIP3    H228105   4.665   2.614   3.286
 9388TIP3   OH228106   0.520   2.221   6.576
 9388TIP3    H128107   0.581   2.251   6.644
 9388TIP3    H228108   0.511   2.296   6.517
 9389TIP3   OH228109   3.666   0.540   3.604
 9389TIP3    H128110   3.693   0.631   3.592
 9389TIP3    H228111   3.748   0.491   3.610
 9390TIP3   OH228112  -0.005   6.475   6.264
 9390TIP3    H128113   0.079   6.520   6.250
 9390TIP3    H228114  -0.031   6.446   6.177
 9391TIP3   OH228115   4.293   6.004   0.396
 9391TIP3    H128116   4.242   6.084   0.400
 9391TIP3    H228117   4.384   6.033   0.390
 9392TIP3   OH228118   7.843   1.237   3.582
 9392TIP3    H128119   7.926   1.269   3.617
 9392TIP3    H228120   7.793   1.316   3.563
 9393TIP3   OH228121   0.093   6.149   6.651
 9393TIP3    H128122   0.112   6.071   6.599
 9393TIP3    H228123   0.001   6.140   6.675
 9394TIP3   OH228124   6.052   6.384   4.175
 9394TIP3    H128125   6.018   6.307   4.131
 9394TIP3    H228126   6.146   6.385   4.154
 9395TIP3   OH228127   1.505   1.151   2.286
 9395TIP3    H128128   1.423   1.198   2.272
 9395TIP3    H228129   1.540   1.188   2.367
 9396TIP3   OH228130   7.863   4.118   6.059
 9396TIP3    H128131   7.840   4.036   6.017
 9396TIP3    H228132   7.941   4.149   6.012
 9397TIP3   OH228133   8.221   6.141   6.304
 9397TIP3    H128134   8.315   6.163   6.301
 9397TIP3    H228135   8.189   6.164   6.216
 9398TIP3   OH228136   0.328   3.748   4.468
 9398TIP3    H128137   0.337   3.759   4.373
 9398TIP3    H228138   0.235   3.765   4.485
 9399TIP3   OH228139   0.242   0.072   3.013
 9399TIP3    H128140   0.152   0.089   2.983
 9399TIP3    H228141   0.275   0.006   2.952
 9400TIP3   OH228142   1.834   6.592   6.266
 9400TIP3    H128143   1.853   6.652   6.338
 9400TIP3    H228144   1.918   6.551   6.246
 9401TIP3   OH228145   8.230   5.164   0.286
 9401TIP3    H128146   8.240   5.137   0.195
 9401TIP3    H228147   8.303   5.224   0.301
 9402TIP3   OH228148   0.086   2.565   1.073
 9402TIP3    H128149   0.121   2.552   0.985
 9402TIP3    H228150   0.143   2.511   1.129
 9403TIP3   OH228151   4.523   2.522   3.515
 9403TIP3    H128152   4.551   2.610   3.491
 9403TIP3    H228153   4.445   2.534   3.569
 9404TIP3   OH228154   7.422   2.446   3.939
 9404TIP3    H128155   7.351   2.402   3.892
 9404TIP3    H228156   7.445   2.386   4.009
 9405TIP3   OH228157   4.149   1.017   3.636
 9405TIP3    H128158   4.088   0.944   3.651
 9405TIP3    H228159   4.102   1.075   3.576
 9406TIP3   OH228160   2.348   5.194   1.490
 9406TIP3    H128161   2.256   5.200   1.465
 9406TIP3    H228162   2.347   5.150   1.575
 9407TIP3   OH228163   7.905   6.277   2.227
 9407TIP3    H128164   7.912   6.276   2.131
 9407TIP3    H228165   7.969   6.211   2.256
 9408TIP3   OH228166   2.691   2.223   3.713
 9408TIP3    H128167   2.772   2.191   3.674
 9408TIP3    H228168   2.661   2.151   3.769
 9409TIP3   OH228169   4.518   0.815   0.287
 9409TIP3    H128170   4.448   0.865   0.331
 9409TIP3    H228171   4.502   0.828   0.194
 9410TIP3   OH228172   1.039   2.317   5.764
 9410TIP3    H128173   0.960   2.343   5.812
 9410TIP3    H228174   1.090   2.397   5.755
 9411TIP3   OH228175   2.741   1.981   3.280
 9411TIP3    H128176   2.775   2.065   3.249
 9411TIP3    H228177   2.649   1.997   3.297
 9412TIP3   OH228178   3.316   4.368   5.820
 9412TIP3    H128179   3.276   4.319   5.892
 9412TIP3    H228180   3.410   4.357   5.833
 9413TIP3   OH228181   3.471   7.056   0.268
 9413TIP3    H128182   3.435   7.134   0.312
 9413TIP3    H228183   3.465   6.987   0.334
 9414TIP3   OH228184   4.487   0.578   4.058
 9414TIP3    H128185   4.453   0.665   4.079
 9414TIP3    H228186   4.525   0.546   4.140
 9415TIP3   OH228187   0.174   7.393   1.935
 9415TIP3    H128188   0.101   7.372   1.993
 9415TIP3    H228189   0.193   7.311   1.889
 9416TIP3   OH228190   1.901   5.454   1.450
 9416TIP3    H128191   1.878   5.362   1.465
 9416TIP3    H228192   1.817   5.498   1.439
 9417TIP3   OH228193   3.535   6.986   5.136
 9417TIP3    H128194   3.535   6.904   5.086
 9417TIP3    H228195   3.455   7.030   5.108
 9418TIP3   OH228196   3.745   0.191   3.270
 9418TIP3    H128197   3.823   0.247   3.266
 9418TIP3    H228198   3.685   0.236   3.328
 9419TIP3   OH228199   1.998   6.151   1.267
 9419TIP3    H128200   1.916   6.117   1.230
 9419TIP3    H228201   1.972   6.231   1.312
 9420TIP3   OH228202   0.386   2.475   4.205
 9420TIP3    H128203   0.454   2.494   4.139
 9420TIP3    H228204   0.328   2.413   4.161
 9421TIP3   OH228205   6.125   3.695   6.009
 9421TIP3    H128206   6.151   3.696   6.101
 9421TIP3    H228207   6.077   3.777   5.996
 9422TIP3   OH228208   7.376   1.264   2.582
 9422TIP3    H128209   7.342   1.179   2.554
 9422TIP3    H228210   7.298   1.320   2.590
 9423TIP3   OH228211   3.051   0.737   0.560
 9423TIP3    H128212   2.970   0.751   0.511
 9423TIP3    H228213   3.112   0.699   0.496
 9424TIP3   OH228214   1.577   1.853   4.481
 9424TIP3    H128215   1.647   1.796   4.450
 9424TIP3    H228216   1.528   1.799   4.543
 9425TIP3   OH228217   5.333   6.821   5.192
 9425TIP3    H128218   5.325   6.738   5.145
 9425TIP3    H228219   5.243   6.844   5.215
 9426TIP3   OH228220   6.047   4.440   3.389
 9426TIP3    H128221   6.069   4.444   3.482
 9426TIP3    H228222   6.067   4.528   3.356
 9427TIP3   OH228223   0.957   1.924   5.806
 9427TIP3    H128224   1.022   1.970   5.860
 9427TIP3    H228225   0.983   1.943   5.716
 9428TIP3   OH228226   4.780   0.528   1.698
 9428TIP3    H128227   4.834   0.449   1.706
 9428TIP3    H228228   4.764   0.537   1.604
 9429TIP3   OH228229   7.112   5.943   0.546
 9429TIP3    H128230   7.061   5.881   0.598
 9429TIP3    H228231   7.151   5.890   0.477
 9430TIP3   OH228232   1.378   4.729   3.694
 9430TIP3    H128233   1.312   4.676   3.651
 9430TIP3    H228234   1.334   4.811   3.714
 9431TIP3   OH228235   0.640   4.184   6.393
 9431TIP3    H128236   0.619   4.260   6.448
 9431TIP3    H228237   0.734   4.190   6.379
 9432TIP3   OH228238   3.479   2.368   5.018
 9432TIP3    H128239   3.424   2.290   5.031
 9432TIP3    H228240   3.549   2.339   4.960
 9433TIP3   OH228241   1.648   4.225   4.355
 9433TIP3    H128242   1.568   4.278   4.351
 9433TIP3    H228243   1.674   4.228   4.447
 9434TIP3   OH228244   3.682   0.904   1.133
 9434TIP3    H128245   3.682   0.994   1.166
 9434TIP3    H228246   3.612   0.861   1.183
 9435TIP3   OH228247   5.097   5.307   2.924
 9435TIP3    H128248   5.104   5.214   2.899
 9435TIP3    H228249   5.169   5.350   2.879
 9436TIP3   OH228250   3.940   7.079   3.385
 9436TIP3    H128251   3.931   6.991   3.348
 9436TIP3    H228252   3.887   7.134   3.328
 9437TIP3   OH228253   7.296   5.175   1.125
 9437TIP3    H128254   7.218   5.201   1.174
 9437TIP3    H228255   7.364   5.235   1.155
 9438TIP3   OH228256   4.700   5.161   4.478
 9438TIP3    H128257   4.716   5.082   4.530
 9438TIP3    H228258   4.662   5.224   4.540
 9439TIP3   OH228259   5.342   6.750   1.441
 9439TIP3    H128260   5.368   6.838   1.418
 9439TIP3    H228261   5.296   6.759   1.525
 9440TIP3   OH228262   2.289   4.223   2.100
 9440TIP3    H128263   2.297   4.276   2.179
 9440TIP3    H228264   2.224   4.268   2.047
 9441TIP3   OH228265   7.906   5.617   4.918
 9441TIP3    H128266   7.970   5.563   4.965
 9441TIP3    H228267   7.894   5.693   4.973
 9442TIP3   OH228268   3.541   0.613   6.269
 9442TIP3    H128269   3.492   0.564   6.202
 9442TIP3    H228270   3.549   0.551   6.341
 9443TIP3   OH228271   6.140   2.224   0.484
 9443TIP3    H128272   6.194   2.156   0.444
 9443TIP3    H228273   6.166   2.305   0.440
 9444TIP3   OH228274   4.099   7.451   1.869
 9444TIP3    H128275   4.153   7.513   1.819
 9444TIP3    H228276   4.129   7.364   1.839
 9445TIP3   OH228277   3.686   4.474   0.771
 9445TIP3    H128278   3.603   4.434   0.743
 9445TIP3    H228279   3.703   4.542   0.706
 9446TIP3   OH228280   7.217   2.900   5.697
 9446TIP3    H128281   7.250   2.947   5.619
 9446TIP3    H228282   7.136   2.859   5.668
 9447TIP3   OH228283   4.833   2.298   5.014
 9447TIP3    H128284   4.891   2.280   4.941
 9447TIP3    H228285   4.851   2.228   5.077
 9448TIP3   OH228286  -0.001   0.596   3.407
 9448TIP3    H128287  -0.014   0.651   3.329
 9448TIP3    H228288   0.041   0.653   3.471
 9449TIP3   OH228289   7.648   0.746   2.232
 9449TIP3    H128290   7.643   0.788   2.318
 9449TIP3    H228291   7.739   0.719   2.223
 9450TIP3   OH228292   6.975   2.640   1.228
 9450TIP3    H128293   7.041   2.694   1.272
 9450TIP3    H228294   6.932   2.591   1.299
 9451TIP3   OH228295   5.264   3.471   4.461
 9451TIP3    H128296   5.287   3.453   4.370
 9451TIP3    H228297   5.344   3.450   4.511
 9452TIP3   OH228298   0.181   6.701   1.505
 9452TIP3    H128299   0.171   6.744   1.420
 9452TIP3    H228300   0.233   6.763   1.557
 9453TIP3   OH228301   2.960   6.045   5.991
 9453TIP3    H128302   2.958   6.103   6.067
 9453TIP3    H228303   2.883   6.070   5.940
 9454TIP3   OH228304   1.290   5.946   5.674
 9454TIP3    H128305   1.311   5.980   5.587
 9454TIP3    H228306   1.364   5.971   5.728
 9455TIP3   OH228307   5.514   0.339   5.683
 9455TIP3    H128308   5.540   0.411   5.741
 9455TIP3    H228309   5.526   0.260   5.736
 9456TIP3   OH228310   7.773   0.457   4.009
 9456TIP3    H128311   7.680   0.480   4.005
 9456TIP3    H228312   7.787   0.430   4.100
 9457TIP3   OH228313   6.998   1.869   5.055
 9457TIP3    H128314   7.042   1.895   5.136
 9457TIP3    H228315   6.935   1.940   5.039
 9458TIP3   OH228316   2.365   4.608   2.126
 9458TIP3    H128317   2.384   4.533   2.183
 9458TIP3    H228318   2.276   4.635   2.149
 9459TIP3   OH228319   0.390   6.614   3.854
 9459TIP3    H128320   0.434   6.698   3.867
 9459TIP3    H228321   0.363   6.587   3.942
 9460TIP3   OH228322   4.918   3.558   1.533
 9460TIP3    H128323   5.005   3.518   1.524
 9460TIP3    H228324   4.857   3.486   1.521
 9461TIP3   OH228325   5.796   3.011   6.521
 9461TIP3    H128326   5.815   3.079   6.456
 9461TIP3    H228327   5.866   2.947   6.509
 9462TIP3   OH228328   2.084   4.203   0.812
 9462TIP3    H128329   2.080   4.118   0.855
 9462TIP3    H228330   2.163   4.244   0.848
 9463TIP3   OH228331   7.660   2.103   1.884
 9463TIP3    H128332   7.669   2.055   1.802
 9463TIP3    H228333   7.663   2.195   1.858
 9464TIP3   OH228334   2.157   7.773   6.111
 9464TIP3    H128335   2.145   7.819   6.194
 9464TIP3    H228336   2.096   7.699   6.116
 9465TIP3   OH228337   8.212   0.375   2.751
 9465TIP3    H128338   8.146   0.309   2.731
 9465TIP3    H228339   8.241   0.406   2.666
 9466TIP3   OH228340   7.213   3.447   6.637
 9466TIP3    H128341   7.206   3.357   6.669
 9466TIP3    H228342   7.186   3.442   6.545
 9467TIP3   OH228343   4.321   4.246   5.777
 9467TIP3    H128344   4.266   4.245   5.698
 9467TIP3    H228345   4.410   4.230   5.745
 9468TIP3   OH228346   0.935   4.869   4.919
 9468TIP3    H128347   0.986   4.798   4.880
 9468TIP3    H228348   0.868   4.825   4.971
 9469TIP3   OH228349   6.789   7.674   6.210
 9469TIP3    H128350   6.862   7.618   6.182
 9469TIP3    H228351   6.745   7.624   6.278
 9470TIP3   OH228352   2.300   0.657   0.758
 9470TIP3    H128353   2.237   0.650   0.687
 9470TIP3    H228354   2.261   0.721   0.819
 9471TIP3   OH228355   8.311   7.298   2.127
 9471TIP3    H128356   8.243   7.243   2.088
 9471TIP3    H228357   8.263   7.372   2.166
 9472TIP3   OH228358   2.546   4.167   2.472
 9472TIP3    H128359   2.618   4.188   2.531
 9472TIP3    H228360   2.475   4.138   2.529
 9473TIP3   OH228361   4.698   3.113   3.644
 9473TIP3    H128362   4.696   3.139   3.552
 9473TIP3    H228363   4.621   3.057   3.655
 9474TIP3   OH228364   7.478   1.684   4.894
 9474TIP3    H128365   7.400   1.728   4.928
 9474TIP3    H228366   7.461   1.675   4.800
 9475TIP3   OH228367   2.024   4.740   6.724
 9475TIP3    H128368   2.046   4.709   6.812
 9475TIP3    H228369   1.933   4.714   6.712
 9476TIP3   OH228370   2.720   2.612   0.550
 9476TIP3    H128371   2.787   2.623   0.483
 9476TIP3    H228372   2.744   2.674   0.619
 9477TIP3   OH228373   5.465   0.685   4.002
 9477TIP3    H128374   5.429   0.624   3.938
 9477TIP3    H228375   5.492   0.630   4.076
 9478TIP3   OH228376   4.219   5.047   6.476
 9478TIP3    H128377   4.187   5.113   6.537
 9478TIP3    H228378   4.263   5.097   6.407
 9479TIP3   OH228379   2.463   4.981   5.306
 9479TIP3    H128380   2.387   4.968   5.250
 9479TIP3    H228381   2.428   4.975   5.395
 9480TIP3   OH228382   2.568   6.173   3.393
 9480TIP3    H128383   2.484   6.154   3.351
 9480TIP3    H228384   2.579   6.268   3.381
 9481TIP3   OH228385   0.444   0.672   1.422
 9481TIP3    H128386   0.470   0.589   1.384
 9481TIP3    H228387   0.487   0.738   1.368
 9482TIP3   OH228388   6.138   0.435   2.301
 9482TIP3    H128389   6.131   0.346   2.269
 9482TIP3    H228390   6.215   0.435   2.358
 9483TIP3   OH228391   3.973   1.590   3.029
 9483TIP3    H128392   3.910   1.525   2.999
 9483TIP3    H228393   4.007   1.555   3.111
 9484TIP3   OH228394   5.603   4.414   5.558
 9484TIP3    H128395   5.636   4.501   5.579
 9484TIP3    H228396   5.643   4.357   5.623
 9485TIP3   OH228397   1.423   3.544   3.514
 9485TIP3    H128398   1.356   3.547   3.582
 9485TIP3    H228399   1.374   3.554   3.432
 9486TIP3   OH228400   4.124   6.818   4.487
 9486TIP3    H128401   4.057   6.865   4.537
 9486TIP3    H228402   4.088   6.811   4.399
 9487TIP3   OH228403   7.374   5.834   2.452
 9487TIP3    H128404   7.411   5.832   2.364
 9487TIP3    H228405   7.428   5.773   2.502
 9488TIP3   OH228406   7.884   3.950   2.635
 9488TIP3    H128407   7.948   4.013   2.669
 9488TIP3    H228408   7.804   3.967   2.686
 9489TIP3   OH228409   0.708   1.059   6.054
 9489TIP3    H128410   0.731   1.137   6.004
 9489TIP3    H228411   0.673   0.998   5.989
 9490TIP3   OH228412   0.867   3.223   4.178
 9490TIP3    H128413   0.835   3.288   4.242
 9490TIP3    H228414   0.955   3.201   4.208
 9491TIP3   OH228415   1.151   6.267   3.015
 9491TIP3    H128416   1.072   6.247   3.065
 9491TIP3    H228417   1.169   6.188   2.964
 9492TIP3   OH228418   0.860   0.461   4.373
 9492TIP3    H128419   0.941   0.477   4.422
 9492TIP3    H228420   0.815   0.545   4.373
 9493TIP3   OH228421   6.106   1.461   3.827
 9493TIP3    H128422   6.100   1.395   3.757
 9493TIP3    H228423   6.024   1.509   3.821
 9494TIP3   OH228424   3.825   5.528   1.259
 9494TIP3    H128425   3.899   5.483   1.301
 9494TIP3    H228426   3.780   5.460   1.209
 9495TIP3   OH228427   6.270   0.732   2.840
 9495TIP3    H128428   6.243   0.645   2.809
 9495TIP3    H228429   6.262   0.788   2.764
 9496TIP3   OH228430   1.903   1.055   5.071
 9496TIP3    H128431   1.838   0.985   5.064
 9496TIP3    H228432   1.861   1.132   5.033
 9497TIP3   OH228433   3.317   6.765   1.218
 9497TIP3    H128434   3.267   6.746   1.298
 9497TIP3    H228435   3.349   6.680   1.190
 9498TIP3   OH228436   6.735   6.072   0.719
 9498TIP3    H128437   6.661   6.016   0.744
 9498TIP3    H228438   6.808   6.011   0.709
 9499TIP3   OH228439   6.699   4.487   1.044
 9499TIP3    H128440   6.646   4.507   0.966
 9499TIP3    H228441   6.775   4.439   1.009
 9500TIP3   OH228442   4.916   3.165   3.794
 9500TIP3    H128443   4.849   3.167   3.726
 9500TIP3    H228444   4.870   3.136   3.873
 9501TIP3   OH228445   2.647   0.624   5.456
 9501TIP3    H128446   2.594   0.593   5.382
 9501TIP3    H228447   2.646   0.550   5.518
 9502TIP3   OH228448   8.096   5.883   4.663
 9502TIP3    H128449   8.155   5.916   4.595
 9502TIP3    H228450   8.049   5.810   4.622
 9503TIP3   OH228451   7.303   0.937   3.623
 9503TIP3    H128452   7.232   0.980   3.576
 9503TIP3    H228453   7.382   0.961   3.575
 9504TIP3   OH228454   5.449   3.934   4.018
 9504TIP3    H128455   5.398   3.987   4.080
 9504TIP3    H228456   5.395   3.856   4.004
 9505TIP3   OH228457   1.972   0.581   3.157
 9505TIP3    H128458   2.025   0.518   3.206
 9505TIP3    H228459   1.911   0.528   3.107
 9506TIP3   OH228460   6.212   7.687   3.568
 9506TIP3    H128461   6.266   7.766   3.565
 9506TIP3    H228462   6.267   7.622   3.611
 9507TIP3   OH228463   6.830   7.033   6.333
 9507TIP3    H128464   6.776   6.975   6.279
 9507TIP3    H228465   6.773   7.108   6.350
 9508TIP3   OH228466   5.051   7.140   1.357
 9508TIP3    H128467   4.980   7.202   1.373
 9508TIP3    H228468   5.033   7.067   1.416
 9509TIP3   OH228469   1.018   6.420   2.772
 9509TIP3    H128470   1.021   6.515   2.763
 9509TIP3    H228471   1.021   6.405   2.867
 9510TIP3   OH228472   7.719   3.651   1.020
 9510TIP3    H128473   7.743   3.744   1.024
 9510TIP3    H228474   7.782   3.607   1.077
 9511TIP3   OH228475   3.482   5.084   1.666
 9511TIP3    H128476   3.401   5.085   1.614
 9511TIP3    H228477   3.539   5.022   1.621
 9512TIP3   OH228478   4.424   2.348   4.058
 9512TIP3    H128479   4.375   2.270   4.032
 9512TIP3    H228480   4.361   2.420   4.052
 9513TIP3   OH228481   6.307   0.317   3.837
 9513TIP3    H128482   6.317   0.256   3.764
 9513TIP3    H228483   6.396   0.332   3.868
 9514TIP3   OH228484   5.479   0.167   6.667
 9514TIP3    H128485   5.498   0.073   6.662
 9514TIP3    H228486   5.557   0.206   6.707
 9515TIP3   OH228487   7.486   7.186   0.669
 9515TIP3    H128488   7.525   7.263   0.627
 9515TIP3    H228489   7.515   7.112   0.615
 9516TIP3   OH228490   7.935   1.400   6.521
 9516TIP3    H128491   7.937   1.305   6.515
 9516TIP3    H228492   8.022   1.424   6.550
 9517TIP3   OH228493   4.456   3.788   2.292
 9517TIP3    H128494   4.515   3.746   2.355
 9517TIP3    H228495   4.369   3.756   2.315
 9518TIP3   OH228496   7.309   7.185   4.006
 9518TIP3    H128497   7.218   7.156   4.016
 9518TIP3    H228498   7.348   7.172   4.092
 9519TIP3   OH228499   5.048   7.807   2.275
 9519TIP3    H128500   5.018   7.853   2.197
 9519TIP3    H228501   5.138   7.781   2.254
 9520TIP3   OH228502   0.915   6.900   4.751
 9520TIP3    H128503   0.866   6.979   4.731
 9520TIP3    H228504   0.916   6.851   4.668
 9521TIP3   OH228505   5.820   5.963   2.666
 9521TIP3    H128506   5.871   6.012   2.601
 9521TIP3    H228507   5.799   5.880   2.623
 9522TIP3   OH228508   3.969   7.619   1.597
 9522TIP3    H128509   3.981   7.642   1.690
 9522TIP3    H228510   4.029   7.545   1.583
 9523TIP3   OH228511   3.159   7.257   0.396
 9523TIP3    H128512   3.172   7.301   0.312
 9523TIP3    H228513   3.188   7.320   0.462
 9524TIP3   OH228514   5.906   2.609   4.109
 9524TIP3    H128515   5.889   2.526   4.066
 9524TIP3    H228516   5.872   2.675   4.048
 9525TIP3   OH228517   1.596   7.033   4.460
 9525TIP3    H128518   1.684   7.069   4.452
 9525TIP3    H228519   1.588   7.007   4.552
 9526TIP3   OH228520   3.611   5.015   5.578
 9526TIP3    H128521   3.534   4.959   5.583
 9526TIP3    H228522   3.625   5.045   5.668
 9527TIP3   OH228523   4.116   3.862   6.078
 9527TIP3    H128524   4.133   3.803   6.005
 9527TIP3    H228525   4.140   3.948   6.045
 9528TIP3   OH228526   7.680   6.135   2.497
 9528TIP3    H128527   7.723   6.165   2.417
 9528TIP3    H228528   7.587   6.140   2.478
 9529TIP3   OH228529   4.434   5.707   2.833
 9529TIP3    H128530   4.404   5.632   2.781
 9529TIP3    H228531   4.472   5.767   2.769
 9530TIP3   OH228532   7.439   2.096   2.983
 9530TIP3    H128533   7.348   2.071   2.964
 9530TIP3    H228534   7.492   2.034   2.933
 9531TIP3   OH228535   0.285   7.459   0.659
 9531TIP3    H128536   0.206   7.410   0.684
 9531TIP3    H228537   0.346   7.446   0.731
 9532TIP3   OH228538   1.470   5.800   6.573
 9532TIP3    H128539   1.461   5.845   6.658
 9532TIP3    H228540   1.393   5.827   6.523
 9533TIP3   OH228541   0.163   3.010   2.411
 9533TIP3    H128542   0.153   3.066   2.488
 9533TIP3    H228543   0.255   2.985   2.412
 9534TIP3   OH228544   3.023   4.275   4.518
 9534TIP3    H128545   3.043   4.210   4.451
 9534TIP3    H228546   3.099   4.274   4.576
 9535TIP3   OH228547   6.525   5.632   4.981
 9535TIP3    H128548   6.537   5.705   4.921
 9535TIP3    H228549   6.430   5.619   4.984
 9536TIP3   OH228550   1.812   1.187   0.394
 9536TIP3    H128551   1.895   1.223   0.426
 9536TIP3    H228552   1.822   1.092   0.401
 9537TIP3   OH228553   1.984   2.054   3.627
 9537TIP3    H128554   2.043   2.106   3.572
 9537TIP3    H228555   1.897   2.087   3.606
 9538TIP3   OH228556   6.361   0.418   2.474
 9538TIP3    H128557   6.390   0.333   2.507
 9538TIP3    H228558   6.399   0.482   2.535
 9539TIP3   OH228559   7.668   4.639   3.807
 9539TIP3    H128560   7.695   4.637   3.899
 9539TIP3    H228561   7.646   4.548   3.787
 9540TIP3   OH228562   4.286   5.138   3.459
 9540TIP3    H128563   4.214   5.182   3.504
 9540TIP3    H228564   4.347   5.209   3.436
 9541TIP3   OH228565   3.616   1.043   2.832
 9541TIP3    H128566   3.632   0.959   2.874
 9541TIP3    H228567   3.702   1.073   2.804
 9542TIP3   OH228568   7.257   4.153   0.793
 9542TIP3    H128569   7.342   4.117   0.821
 9542TIP3    H228570   7.200   4.139   0.869
 9543TIP3   OH228571   5.323   7.116   2.148
 9543TIP3    H128572   5.311   7.028   2.113
 9543TIP3    H228573   5.402   7.110   2.201
 9544TIP3   OH228574   0.045   4.850   1.431
 9544TIP3    H128575   0.101   4.782   1.467
 9544TIP3    H228576  -0.013   4.805   1.370
 9545TIP3   OH228577   6.458   1.627   0.079
 9545TIP3    H128578   6.547   1.593   0.066
 9545TIP3    H228579   6.472   1.716   0.112
 9546TIP3   OH228580   6.603   2.769   3.291
 9546TIP3    H128581   6.614   2.687   3.338
 9546TIP3    H228582   6.638   2.835   3.351
 9547TIP3   OH228583   8.239   0.511   6.511
 9547TIP3    H128584   8.214   0.466   6.430
 9547TIP3    H228585   8.161   0.506   6.566
 9548TIP3   OH228586   0.849   0.244   1.786
 9548TIP3    H128587   0.937   0.274   1.811
 9548TIP3    H228588   0.792   0.271   1.858
 9549TIP3   OH228589   3.902   3.243   3.041
 9549TIP3    H128590   3.904   3.147   3.045
 9549TIP3    H228591   3.971   3.270   3.102
 9550TIP3   OH228592   4.260   5.569   0.790
 9550TIP3    H128593   4.203   5.517   0.734
 9550TIP3    H228594   4.272   5.652   0.743
 9551TIP3   OH228595   3.928   5.257   4.058
 9551TIP3    H128596   3.979   5.284   3.981
 9551TIP3    H228597   3.947   5.324   4.124
 9552TIP3   OH228598   8.006   3.404   4.846
 9552TIP3    H128599   8.061   3.400   4.768
 9552TIP3    H228600   7.943   3.473   4.826
 9553TIP3   OH228601   4.018   6.563   2.581
 9553TIP3    H128602   3.962   6.600   2.512
 9553TIP3    H228603   4.029   6.634   2.644
 9554TIP3   OH228604   2.440   1.162   0.130
 9554TIP3    H128605   2.394   1.242   0.156
 9554TIP3    H228606   2.527   1.192   0.104
 9555TIP3   OH228607   1.702   4.533   5.697
 9555TIP3    H128608   1.709   4.451   5.746
 9555TIP3    H228609   1.788   4.545   5.657
 9556TIP3   OH228610   3.531   4.654   1.273
 9556TIP3    H128611   3.445   4.695   1.277
 9556TIP3    H228612   3.581   4.708   1.211
 9557TIP3   OH228613   1.366   5.008   4.376
 9557TIP3    H128614   1.328   5.082   4.330
 9557TIP3    H228615   1.377   5.038   4.466
 9558TIP3   OH228616   2.100   7.487   3.241
 9558TIP3    H128617   2.117   7.538   3.320
 9558TIP3    H228618   2.053   7.547   3.183
 9559TIP3   OH228619   5.560   3.454   0.154
 9559TIP3    H128620   5.656   3.462   0.146
 9559TIP3    H228621   5.547   3.380   0.212
 9560TIP3   OH228622   5.358   1.150   3.004
 9560TIP3    H128623   5.354   1.243   2.983
 9560TIP3    H228624   5.277   1.133   3.052
 9561TIP3   OH228625   0.268   5.973   1.744
 9561TIP3    H128626   0.217   6.049   1.714
 9561TIP3    H228627   0.321   5.949   1.669
 9562TIP3   OH228628   8.072   1.807   1.332
 9562TIP3    H128629   8.055   1.779   1.422
 9562TIP3    H228630   8.032   1.894   1.326
 9563TIP3   OH228631   0.691   5.212   5.842
 9563TIP3    H128632   0.601   5.192   5.814
 9563TIP3    H228633   0.711   5.295   5.800
 9564TIP3   OH228634   7.376   5.492   4.709
 9564TIP3    H128635   7.353   5.555   4.641
 9564TIP3    H228636   7.409   5.416   4.662
 9565TIP3   OH228637   2.760   4.457   1.407
 9565TIP3    H128638   2.717   4.542   1.393
 9565TIP3    H228639   2.688   4.394   1.415
 9566TIP3   OH228640   4.005   6.039   6.615
 9566TIP3    H128641   4.047   5.958   6.642
 9566TIP3    H228642   4.051   6.065   6.535
 9567TIP3   OH228643   4.537   5.941   3.479
 9567TIP3    H128644   4.462   5.984   3.437
 9567TIP3    H228645   4.526   5.848   3.459
 9568TIP3   OH228646   2.122   4.627   2.589
 9568TIP3    H128647   2.100   4.655   2.679
 9568TIP3    H228648   2.102   4.534   2.588
 9569TIP3   OH228649   6.464   2.780   4.592
 9569TIP3    H128650   6.396   2.841   4.562
 9569TIP3    H228651   6.511   2.829   4.660
 9570TIP3   OH228652   0.995   4.931   4.200
 9570TIP3    H128653   0.948   4.850   4.216
 9570TIP3    H228654   0.927   4.996   4.181
 9571TIP3   OH228655   2.254   0.226   4.202
 9571TIP3    H128656   2.170   0.270   4.210
 9571TIP3    H228657   2.319   0.295   4.216
 9572TIP3   OH228658   1.179   4.301   0.576
 9572TIP3    H128659   1.175   4.252   0.494
 9572TIP3    H228660   1.111   4.368   0.568
 9573TIP3   OH228661   5.663   0.851   0.125
 9573TIP3    H128662   5.721   0.922   0.098
 9573TIP3    H228663   5.595   0.848   0.057
 9574TIP3   OH228664   3.437   7.756   6.575
 9574TIP3    H128665   3.450   7.838   6.528
 9574TIP3    H228666   3.448   7.779   6.668
 9575TIP3   OH228667   2.849   1.583   6.699
 9575TIP3    H128668   2.890   1.642   6.636
 9575TIP3    H228669   2.817   1.509   6.647
 9576TIP3   OH228670   3.321   7.623   5.464
 9576TIP3    H128671   3.400   7.676   5.455
 9576TIP3    H228672   3.262   7.656   5.396
 9577TIP3   OH228673   5.954   6.704   4.416
 9577TIP3    H128674   5.869   6.662   4.405
 9577TIP3    H228675   6.017   6.632   4.407
 9578TIP3   OH228676   4.554   3.279   0.909
 9578TIP3    H128677   4.526   3.203   0.960
 9578TIP3    H228678   4.508   3.353   0.949
 9579TIP3   OH228679   7.560   5.555   2.560
 9579TIP3    H128680   7.630   5.491   2.545
 9579TIP3    H228681   7.603   5.629   2.603
 9580TIP3   OH228682   2.598   2.919   6.466
 9580TIP3    H128683   2.626   3.010   6.456
 9580TIP3    H228684   2.602   2.883   6.378
 9581TIP3   OH228685   4.989   6.408   0.244
 9581TIP3    H128686   5.046   6.469   0.290
 9581TIP3    H228687   4.953   6.458   0.171
 9582TIP3   OH228688   7.537   7.282   1.448
 9582TIP3    H128689   7.549   7.308   1.357
 9582TIP3    H228690   7.505   7.192   1.444
 9583TIP3   OH228691   3.067   7.262   2.549
 9583TIP3    H128692   3.012   7.291   2.622
 9583TIP3    H228693   3.116   7.340   2.524
 9584TIP3   OH228694   6.359   6.358   4.236
 9584TIP3    H128695   6.454   6.346   4.239
 9584TIP3    H228696   6.346   6.450   4.213
 9585TIP3   OH228697   5.429   2.681   1.875
 9585TIP3    H128698   5.477   2.638   1.946
 9585TIP3    H228699   5.377   2.610   1.835
 9586TIP3   OH228700   7.815   2.303   2.632
 9586TIP3    H128701   7.872   2.272   2.703
 9586TIP3    H228702   7.726   2.293   2.666
 9587TIP3   OH228703   4.525   4.044   2.411
 9587TIP3    H128704   4.616   4.060   2.435
 9587TIP3    H228705   4.528   3.967   2.354
 9588TIP3   OH228706   1.202   1.044   3.385
 9588TIP3    H128707   1.260   1.016   3.314
 9588TIP3    H228708   1.131   1.091   3.342
 9589TIP3   OH228709   0.928   1.453   5.479
 9589TIP3    H128710   0.968   1.413   5.556
 9589TIP3    H228711   0.836   1.425   5.482
 9590TIP3   OH228712   0.425   3.308   2.293
 9590TIP3    H128713   0.369   3.385   2.293
 9590TIP3    H228714   0.443   3.292   2.385
 9591TIP3   OH228715   1.722   7.436   0.473
 9591TIP3    H128716   1.756   7.355   0.512
 9591TIP3    H228717   1.791   7.466   0.415
 9592TIP3   OH228718   5.060   0.805   2.225
 9592TIP3    H128719   5.003   0.730   2.239
 9592TIP3    H228720   5.148   0.767   2.213
 9593TIP3   OH228721   7.078   7.073   4.076
 9593TIP3    H128722   6.994   7.098   4.114
 9593TIP3    H228723   7.090   6.982   4.103
 9594TIP3   OH228724   6.052   1.708   1.082
 9594TIP3    H128725   6.081   1.623   1.116
 9594TIP3    H228726   5.983   1.735   1.143
 9595TIP3   OH228727   0.582   0.198   0.895
 9595TIP3    H128728   0.645   0.247   0.949
 9595TIP3    H228729   0.564   0.119   0.946
 9596TIP3   OH228730   1.924   1.829   3.805
 9596TIP3    H128731   1.882   1.775   3.738
 9596TIP3    H228732   1.957   1.905   3.757
 9597TIP3   OH228733   5.460   4.374   1.853
 9597TIP3    H128734   5.447   4.444   1.789
 9597TIP3    H228735   5.407   4.302   1.819
 9598TIP3   OH228736   8.089   5.421   1.224
 9598TIP3    H128737   8.135   5.468   1.294
 9598TIP3    H228738   8.026   5.366   1.270
 9599TIP3   OH228739   4.395   7.744   4.729
 9599TIP3    H128740   4.349   7.764   4.810
 9599TIP3    H228741   4.482   7.716   4.757
 9600TIP3   OH228742   4.814   5.984   1.670
 9600TIP3    H128743   4.844   5.982   1.761
 9600TIP3    H228744   4.720   5.995   1.676
 9601TIP3   OH228745   6.029   7.268   0.571
 9601TIP3    H128746   6.002   7.258   0.662
 9601TIP3    H228747   5.947   7.285   0.524
 9602TIP3   OH228748   7.568   3.156   4.515
 9602TIP3    H128749   7.645   3.121   4.470
 9602TIP3    H228750   7.506   3.174   4.444
 9603TIP3   OH228751   7.557   5.406   6.575
 9603TIP3    H128752   7.640   5.357   6.576
 9603TIP3    H228753   7.572   5.478   6.513
 9604TIP3   OH228754   2.725   5.674   4.017
 9604TIP3    H128755   2.777   5.595   4.002
 9604TIP3    H228756   2.673   5.653   4.095
 9605TIP3   OH228757   2.824   3.629   2.552
 9605TIP3    H128758   2.832   3.669   2.465
 9605TIP3    H228759   2.803   3.703   2.610
 9606TIP3   OH228760   5.225   1.656   6.563
 9606TIP3    H128761   5.268   1.591   6.508
 9606TIP3    H228762   5.180   1.714   6.501
 9607TIP3   OH228763   0.587   2.508   5.508
 9607TIP3    H128764   0.549   2.559   5.437
 9607TIP3    H228765   0.538   2.425   5.507
 9608TIP3   OH228766   7.599   4.201   5.258
 9608TIP3    H128767   7.543   4.151   5.318
 9608TIP3    H228768   7.613   4.143   5.184
 9609TIP3   OH228769   7.432   3.362   6.190
 9609TIP3    H128770   7.521   3.331   6.177
 9609TIP3    H228771   7.435   3.410   6.273
 9610TIP3   OH228772   0.899   4.977   3.732
 9610TIP3    H128773   0.930   5.055   3.688
 9610TIP3    H228774   0.895   4.910   3.663
 9611TIP3   OH228775   2.837   5.846   3.164
 9611TIP3    H128776   2.770   5.863   3.230
 9611TIP3    H228777   2.899   5.787   3.207
 9612TIP3   OH228778   7.069   1.442   0.321
 9612TIP3    H128779   6.991   1.489   0.294
 9612TIP3    H228780   7.078   1.370   0.258
 9613TIP3   OH228781   4.881   1.155   2.736
 9613TIP3    H128782   4.855   1.098   2.664
 9613TIP3    H228783   4.947   1.213   2.699
 9614TIP3   OH228784   0.656   0.333   2.504
 9614TIP3    H128785   0.652   0.395   2.577
 9614TIP3    H228786   0.631   0.249   2.543
 9615TIP3   OH228787   7.753   2.868   6.542
 9615TIP3    H128788   7.716   2.893   6.457
 9615TIP3    H228789   7.677   2.858   6.599
 9616TIP3   OH228790   3.758  -0.014   0.703
 9616TIP3    H128791   3.665   0.006   0.701
 9616TIP3    H228792   3.798   0.060   0.748
 9617TIP3   OH228793   7.186   4.802   1.307
 9617TIP3    H128794   7.194   4.736   1.376
 9617TIP3    H228795   7.267   4.795   1.257
 9618TIP3   OH228796   8.030   5.092   2.520
 9618TIP3    H128797   8.105   5.061   2.470
 9618TIP3    H228798   8.057   5.177   2.554
 9619TIP3   OH228799   7.681   1.916   2.488
 9619TIP3    H128800   7.772   1.938   2.473
 9619TIP3    H228801   7.640   1.921   2.402
 9620TIP3   OH228802   2.309   0.766   6.401
 9620TIP3    H128803   2.303   0.671   6.413
 9620TIP3    H228804   2.384   0.792   6.454
 9621TIP3   OH228805   0.242   5.697   3.434
 9621TIP3    H128806   0.256   5.753   3.357
 9621TIP3    H228807   0.186   5.626   3.402
 9622TIP3   OH228808   8.240   2.011   1.121
 9622TIP3    H128809   8.280   1.931   1.087
 9622TIP3    H228810   8.185   2.042   1.049
 9623TIP3   OH228811   7.945   1.342   1.847
 9623TIP3    H128812   7.883   1.269   1.837
 9623TIP3    H228813   7.959   1.373   1.758
 9624TIP3   OH228814   7.819   1.054   1.868
 9624TIP3    H128815   7.729   1.056   1.836
 9624TIP3    H228816   7.815   1.096   1.954
 9625TIP3   OH228817   2.779   3.133   6.125
 9625TIP3    H128818   2.711   3.176   6.073
 9625TIP3    H228819   2.846   3.110   6.062
 9626TIP3   OH228820   6.946   4.513   2.348
 9626TIP3    H128821   6.862   4.540   2.310
 9626TIP3    H228822   6.956   4.422   2.321
 9627TIP3   OH228823   4.868   7.065   3.896
 9627TIP3    H128824   4.784   7.104   3.920
 9627TIP3    H228825   4.846   7.004   3.825
 9628TIP3   OH228826   7.122   7.501   4.220
 9628TIP3    H128827   7.054   7.556   4.180
 9628TIP3    H228828   7.201   7.519   4.168
 9629TIP3   OH228829   0.714   1.382   1.062
 9629TIP3    H128830   0.629   1.350   1.032
 9629TIP3    H228831   0.738   1.449   0.998
 9630TIP3   OH228832   4.986   2.662   1.767
 9630TIP3    H128833   4.908   2.607   1.767
 9630TIP3    H228834   4.964   2.735   1.708
 9631TIP3   OH228835   6.607   6.590   1.628
 9631TIP3    H128836   6.586   6.682   1.643
 9631TIP3    H228837   6.583   6.546   1.709
 9632TIP3   OH228838   0.042   0.313   3.191
 9632TIP3    H128839   0.101   0.333   3.264
 9632TIP3    H228840  -0.046   0.316   3.230
 9633TIP3   OH228841   1.761   4.329   5.085
 9633TIP3    H128842   1.682   4.328   5.139
 9633TIP3    H228843   1.741   4.270   5.012
 9634TIP3   OH228844   7.684   5.139   0.524
 9634TIP3    H128845   7.599   5.155   0.563
 9634TIP3    H228846   7.686   5.044   0.509
 9635TIP3   OH228847   6.034   6.677   3.201
 9635TIP3    H128848   6.040   6.641   3.112
 9635TIP3    H228849   6.114   6.648   3.244
 9636TIP3   OH228850   5.280   0.041   3.237
 9636TIP3    H128851   5.199   0.057   3.188
 9636TIP3    H228852   5.258  -0.027   3.300
 9637TIP3   OH228853   7.898   2.376   5.957
 9637TIP3    H128854   7.919   2.422   6.038
 9637TIP3    H228855   7.914   2.440   5.888
 9638TIP3   OH228856   3.651   0.934   4.937
 9638TIP3    H128857   3.722   0.992   4.965
 9638TIP3    H228858   3.646   0.946   4.842
 9639TIP3   OH228859   3.262   5.091   1.498
 9639TIP3    H128860   3.264   5.071   1.404
 9639TIP3    H228861   3.248   5.186   1.501
 9640TIP3   OH228862   3.926   3.500   3.489
 9640TIP3    H128863   3.889   3.565   3.549
 9640TIP3    H228864   3.853   3.441   3.471
 9641TIP3   OH228865   0.333   5.900   3.874
 9641TIP3    H128866   0.241   5.924   3.867
 9641TIP3    H228867   0.366   5.902   3.784
 9642TIP3   OH228868   4.299   7.326   0.745
 9642TIP3    H128869   4.205   7.304   0.744
 9642TIP3    H228870   4.340   7.250   0.785
 9643TIP3   OH228871   6.269   2.261   5.536
 9643TIP3    H128872   6.251   2.180   5.584
 9643TIP3    H228873   6.257   2.330   5.602
 9644TIP3   OH228874   0.316   2.199   4.659
 9644TIP3    H128875   0.275   2.285   4.670
 9644TIP3    H228876   0.248   2.136   4.684
 9645TIP3   OH228877   6.892   1.152   1.049
 9645TIP3    H128878   6.975   1.162   1.096
 9645TIP3    H228879   6.894   1.220   0.982
 9646TIP3   OH228880   2.359   0.451   4.386
 9646TIP3    H128881   2.414   0.485   4.457
 9646TIP3    H228882   2.413   0.458   4.308
 9647TIP3   OH228883   1.873   3.069   3.633
 9647TIP3    H128884   1.935   3.075   3.706
 9647TIP3    H228885   1.789   3.093   3.672
 9648TIP3   OH228886   0.491   1.318   4.788
 9648TIP3    H128887   0.538   1.369   4.854
 9648TIP3    H228888   0.555   1.254   4.756
 9649TIP3   OH228889   5.616   1.982   4.494
 9649TIP3    H128890   5.568   2.007   4.415
 9649TIP3    H228891   5.699   2.030   4.487
 9650TIP3   OH228892   1.758   2.194   6.761
 9650TIP3    H128893   1.742   2.152   6.846
 9650TIP3    H228894   1.760   2.287   6.782
 9651TIP3   OH228895   2.552   7.519   2.035
 9651TIP3    H128896   2.473   7.574   2.031
 9651TIP3    H228897   2.554   7.486   2.125
 9652TIP3   OH228898   5.617   1.355   0.679
 9652TIP3    H128899   5.693   1.355   0.619
 9652TIP3    H228900   5.649   1.399   0.758
 9653TIP3   OH228901   7.814   1.539   3.885
 9653TIP3    H128902   7.867   1.506   3.957
 9653TIP3    H228903   7.859   1.508   3.806
 9654TIP3   OH228904   3.136   0.179   0.582
 9654TIP3    H128905   3.076   0.105   0.577
 9654TIP3    H228906   3.148   0.194   0.675
 9655TIP3   OH228907   4.659   3.305   2.487
 9655TIP3    H128908   4.654   3.278   2.395
 9655TIP3    H228909   4.570   3.330   2.510
 9656TIP3   OH228910   4.760   5.854   1.219
 9656TIP3    H128911   4.846   5.823   1.191
 9656TIP3    H228912   4.721   5.778   1.264
 9657TIP3   OH228913   3.423   3.070   1.843
 9657TIP3    H128914   3.405   3.067   1.749
 9657TIP3    H228915   3.512   3.037   1.852
 9658TIP3   OH228916   4.461   4.998   2.958
 9658TIP3    H128917   4.464   4.920   2.903
 9658TIP3    H228918   4.392   4.980   3.022
 9659TIP3   OH228919   3.196   1.775   5.920
 9659TIP3    H128920   3.278   1.781   5.872
 9659TIP3    H228921   3.194   1.855   5.973
 9660TIP3   OH228922   6.092   1.368   3.046
 9660TIP3    H128923   6.044   1.346   3.126
 9660TIP3    H228924   6.028   1.356   2.976
 9661TIP3   OH228925   5.122   6.618   5.043
 9661TIP3    H128926   5.035   6.625   5.004
 9661TIP3    H228927   5.106   6.602   5.136
 9662TIP3   OH228928   5.681   0.804   6.283
 9662TIP3    H128929   5.629   0.724   6.272
 9662TIP3    H228930   5.725   0.792   6.368
 9663TIP3   OH228931   6.250   5.750   3.025
 9663TIP3    H128932   6.156   5.763   3.034
 9663TIP3    H228933   6.274   5.799   2.947
 9664TIP3   OH228934   1.301   1.473   5.222
 9664TIP3    H128935   1.326   1.543   5.282
 9664TIP3    H228936   1.359   1.400   5.244
 9665TIP3   OH228937   6.436   1.930   1.410
 9665TIP3    H128938   6.361   1.876   1.435
 9665TIP3    H228939   6.502   1.910   1.477
 9666TIP3   OH228940   2.659   5.303   5.832
 9666TIP3    H128941   2.578   5.260   5.804
 9666TIP3    H228942   2.663   5.383   5.780
 9667TIP3   OH228943   6.370   2.991   4.162
 9667TIP3    H128944   6.310   2.950   4.100
 9667TIP3    H228945   6.371   3.083   4.139
 9668TIP3   OH228946   6.743   6.411   2.422
 9668TIP3    H128947   6.660   6.458   2.413
 9668TIP3    H228948   6.753   6.397   2.516
 9669TIP3   OH228949   2.871   1.904   2.565
 9669TIP3    H128950   2.907   1.822   2.532
 9669TIP3    H228951   2.835   1.882   2.650
 9670TIP3   OH228952   1.199   7.600   3.447
 9670TIP3    H128953   1.186   7.688   3.484
 9670TIP3    H228954   1.288   7.603   3.411
 9671TIP3   OH228955   1.155   5.382   0.906
 9671TIP3    H128956   1.060   5.391   0.917
 9671TIP3    H228957   1.193   5.453   0.957
 9672TIP3   OH228958   1.348   3.544   3.119
 9672TIP3    H128959   1.316   3.594   3.043
 9672TIP3    H228960   1.270   3.503   3.156
 9673TIP3   OH228961   0.951   6.099   4.803
 9673TIP3    H128962   0.916   6.062   4.884
 9673TIP3    H228963   0.874   6.132   4.757
 9674TIP3   OH228964   6.130   0.294   4.679
 9674TIP3    H128965   6.062   0.227   4.685
 9674TIP3    H228966   6.205   0.256   4.725
 9675TIP3   OH228967   4.588   7.824   2.546
 9675TIP3    H128968   4.682   7.844   2.544
 9675TIP3    H228969   4.579   7.759   2.616
 9676TIP3   OH228970   6.326   6.735   5.269
 9676TIP3    H128971   6.407   6.685   5.277
 9676TIP3    H228972   6.352   6.817   5.227
 9677TIP3   OH228973   4.327   0.486   3.806
 9677TIP3    H128974   4.416   0.483   3.841
 9677TIP3    H228975   4.280   0.545   3.864
 9678TIP3   OH228976   1.487   5.667   0.168
 9678TIP3    H128977   1.413   5.619   0.204
 9678TIP3    H228978   1.505   5.624   0.084
 9679TIP3   OH228979   7.915   7.563   5.164
 9679TIP3    H128980   7.849   7.621   5.200
 9679TIP3    H228981   7.986   7.564   5.228
 9680TIP3   OH228982   7.388   3.034   2.376
 9680TIP3    H128983   7.386   3.100   2.306
 9680TIP3    H228984   7.480   3.009   2.383
 9681TIP3   OH228985   4.896   6.070   1.427
 9681TIP3    H128986   4.890   6.037   1.516
 9681TIP3    H228987   4.837   6.012   1.377
 9682TIP3   OH228988   3.889   2.600   3.819
 9682TIP3    H128989   3.852   2.627   3.735
 9682TIP3    H228990   3.823   2.543   3.857
 9683TIP3   OH228991   6.171   2.823   0.911
 9683TIP3    H128992   6.231   2.897   0.919
 9683TIP3    H228993   6.111   2.847   0.841
 9684TIP3   OH228994   0.995   0.773   2.766
 9684TIP3    H128995   0.922   0.711   2.762
 9684TIP3    H228996   0.984   0.829   2.690
 9685TIP3   OH228997   2.413   6.588   5.228
 9685TIP3    H128998   2.505   6.561   5.228
 9685TIP3    H228999   2.377   6.547   5.307
 9686TIP3   OH229000   1.901   3.706   4.820
 9686TIP3    H129001   1.827   3.684   4.763
 9686TIP3    H229002   1.965   3.747   4.762
 9687TIP3   OH229003   1.066   1.180   5.424
 9687TIP3    H129004   1.014   1.102   5.446
 9687TIP3    H229005   1.014   1.253   5.456
 9688TIP3   OH229006   5.396   6.247   5.362
 9688TIP3    H129007   5.322   6.187   5.372
 9688TIP3    H229008   5.390   6.304   5.438
 9689TIP3   OH229009   4.128   6.145   0.953
 9689TIP3    H129010   4.099   6.181   1.037
 9689TIP3    H229011   4.095   6.207   0.888
 9690TIP3   OH229012   0.616   4.380   4.039
 9690TIP3    H129013   0.704   4.415   4.053
 9690TIP3    H229014   0.592   4.342   4.124
 9691TIP3   OH229015   6.640   2.577   0.142
 9691TIP3    H129016   6.716   2.535   0.103
 9691TIP3    H229017   6.666   2.592   0.233
 9692TIP3   OH229018   0.731   4.597   1.953
 9692TIP3    H129019   0.638   4.617   1.966
 9692TIP3    H229020   0.733   4.502   1.942
 9693TIP3   OH229021   3.094   5.221   5.444
 9693TIP3    H129022   3.114   5.288   5.509
 9693TIP3    H229023   3.040   5.157   5.491
 9694TIP3   OH229024   2.143   1.540   1.129
 9694TIP3    H129025   2.059   1.522   1.087
 9694TIP3    H229026   2.201   1.470   1.098
 9695TIP3   OH229027   5.723   0.544   0.086
 9695TIP3    H129028   5.649   0.603   0.077
 9695TIP3    H229029   5.793   0.585   0.035
 9696TIP3   OH229030   1.838   1.491   3.028
 9696TIP3    H129031   1.888   1.540   3.094
 9696TIP3    H229032   1.849   1.543   2.947
 9697TIP3   OH229033   6.682   4.725   0.543
 9697TIP3    H129034   6.639   4.760   0.621
 9697TIP3    H229035   6.623   4.656   0.512
 9698TIP3   OH229036   6.501   0.431   6.423
 9698TIP3    H129037   6.591   0.446   6.395
 9698TIP3    H229038   6.500   0.457   6.516
 9699TIP3   OH229039   1.026   4.974   5.302
 9699TIP3    H129040   0.968   5.014   5.237
 9699TIP3    H229041   0.974   4.904   5.340
 9700TIP3   OH229042   5.176   3.261   1.595
 9700TIP3    H129043   5.181   3.188   1.534
 9700TIP3    H229044   5.122   3.228   1.667
 9701TIP3   OH229045   4.372   0.606   5.633
 9701TIP3    H129046   4.280   0.601   5.606
 9701TIP3    H229047   4.413   0.664   5.569
 9702TIP3   OH229048   1.982   0.095   0.862
 9702TIP3    H129049   1.900   0.143   0.853
 9702TIP3    H229050   2.045   0.145   0.809
 9703TIP3   OH229051  -0.014   0.556   2.943
 9703TIP3    H129052   0.078   0.557   2.968
 9703TIP3    H229053  -0.019   0.490   2.873
 9704TIP3   OH229054   0.917   1.671   2.798
 9704TIP3    H129055   0.824   1.656   2.780
 9704TIP3    H229056   0.940   1.605   2.862
 9705TIP3   OH229057   5.529   5.490   1.225
 9705TIP3    H129058   5.453   5.451   1.183
 9705TIP3    H229059   5.589   5.417   1.239
 9706TIP3   OH229060   3.385   1.247   3.480
 9706TIP3    H129061   3.383   1.235   3.386
 9706TIP3    H229062   3.344   1.333   3.494
 9707TIP3   OH229063   5.599   3.673   0.330
 9707TIP3    H129064   5.586   3.656   0.237
 9707TIP3    H229065   5.620   3.587   0.368
 9708TIP3   OH229066   0.604   7.252   0.407
 9708TIP3    H129067   0.671   7.193   0.371
 9708TIP3    H229068   0.618   7.249   0.502
 9709TIP3   OH229069   5.188   5.376   6.128
 9709TIP3    H129070   5.127   5.311   6.162
 9709TIP3    H229071   5.241   5.329   6.064
 9710TIP3   OH229072   4.320   6.514   3.836
 9710TIP3    H129073   4.401   6.542   3.793
 9710TIP3    H229074   4.331   6.541   3.928
 9711TIP3   OH229075   8.227   0.494   1.478
 9711TIP3    H129076   8.243   0.403   1.452
 9711TIP3    H229077   8.203   0.539   1.397
 9712TIP3   OH229078   7.159   0.290   2.473
 9712TIP3    H129079   7.127   0.214   2.521
 9712TIP3    H229080   7.085   0.350   2.469
 9713TIP3   OH229081   5.526   5.832   4.522
 9713TIP3    H129082   5.505   5.863   4.433
 9713TIP3    H229083   5.587   5.897   4.556
 9714TIP3   OH229084   7.334   3.112   1.667
 9714TIP3    H129085   7.260   3.129   1.726
 9714TIP3    H229086   7.409   3.149   1.713
 9715TIP3   OH229087   4.025   6.916   3.788
 9715TIP3    H129088   3.948   6.960   3.753
 9715TIP3    H229089   4.016   6.826   3.758
 9716TIP3   OH229090   5.562   2.890   1.148
 9716TIP3    H129091   5.518   2.964   1.106
 9716TIP3    H229092   5.627   2.931   1.206
 9717TIP3   OH229093   5.963   2.779   6.478
 9717TIP3    H129094   6.047   2.794   6.435
 9717TIP3    H229095   5.966   2.687   6.504
 9718TIP3   OH229096   4.011   1.109   4.453
 9718TIP3    H129097   4.093   1.142   4.490
 9718TIP3    H229098   3.983   1.178   4.392
 9719TIP3   OH229099   4.085   5.486   5.042
 9719TIP3    H129100   4.163   5.456   4.996
 9719TIP3    H229101   4.053   5.559   4.990
 9720TIP3   OH229102   0.290   1.509   2.009
 9720TIP3    H129103   0.384   1.497   2.022
 9720TIP3    H229104   0.283   1.571   1.937
 9721TIP3   OH229105   1.962   7.039   5.567
 9721TIP3    H129106   1.927   7.107   5.510
 9721TIP3    H229107   2.005   6.978   5.507
 9722TIP3   OH229108   0.172   7.663   1.881
 9722TIP3    H129109   0.169   7.674   1.976
 9722TIP3    H229110   0.176   7.569   1.867
 9723TIP3   OH229111   4.894   5.110   2.431
 9723TIP3    H129112   4.953   5.045   2.392
 9723TIP3    H229113   4.948   5.188   2.442
 9724TIP3   OH229114   7.424   2.300   0.374
 9724TIP3    H129115   7.483   2.364   0.414
 9724TIP3    H229116   7.393   2.341   0.294
 9725TIP3   OH229117   7.629   0.825   3.407
 9725TIP3    H129118   7.681   0.850   3.330
 9725TIP3    H229119   7.589   0.906   3.436
 9726TIP3   OH229120   1.964   2.485   3.362
 9726TIP3    H129121   2.021   2.549   3.402
 9726TIP3    H229122   1.913   2.534   3.298
 9727TIP3   OH229123   7.614   4.580   1.065
 9727TIP3    H129124   7.657   4.655   1.024
 9727TIP3    H229125   7.680   4.545   1.124
 9728TIP3   OH229126   0.481   0.782   6.714
 9728TIP3    H129127   0.435   0.707   6.676
 9728TIP3    H229128   0.454   0.783   6.806
 9729TIP3   OH229129   1.523   0.745   6.006
 9729TIP3    H129130   1.453   0.680   6.015
 9729TIP3    H229131   1.482   0.817   5.958
 9730TIP3   OH229132   6.587   5.291   6.763
 9730TIP3    H129133   6.635   5.351   6.705
 9730TIP3    H229134   6.555   5.223   6.704
 9731TIP3   OH229135   3.010   1.178   2.510
 9731TIP3    H129136   2.948   1.126   2.561
 9731TIP3    H229137   3.079   1.116   2.486
 9732TIP3   OH229138   0.289   3.028   1.285
 9732TIP3    H129139   0.230   2.953   1.275
 9732TIP3    H229140   0.314   3.027   1.377
 9733TIP3   OH229141   1.631   5.896   4.880
 9733TIP3    H129142   1.603   5.972   4.931
 9733TIP3    H229143   1.550   5.847   4.863
 9734TIP3   OH229144   5.376   4.984   4.270
 9734TIP3    H129145   5.307   5.022   4.324
 9734TIP3    H229146   5.424   4.926   4.329
 9735TIP3   OH229147   7.907   5.787   6.509
 9735TIP3    H129148   7.910   5.839   6.429
 9735TIP3    H229149   7.823   5.743   6.506
 9736TIP3   OH229150   1.012   0.799   6.501
 9736TIP3    H129151   0.961   0.821   6.423
 9736TIP3    H229152   0.949   0.804   6.573
 9737TIP3   OH229153   0.140   0.163   1.058
 9737TIP3    H129154   0.208   0.104   1.025
 9737TIP3    H229155   0.139   0.235   0.994
 9738TIP3   OH229156   8.072   0.868   2.966
 9738TIP3    H129157   8.034   0.805   2.904
 9738TIP3    H229158   8.120   0.930   2.911
 9739TIP3   OH229159   1.349   7.556   4.141
 9739TIP3    H129160   1.393   7.623   4.090
 9739TIP3    H229161   1.362   7.475   4.091
 9740TIP3   OH229162   3.082   4.104   2.820
 9740TIP3    H129163   3.022   4.029   2.812
 9740TIP3    H229164   3.067   4.156   2.741
 9741TIP3   OH229165   1.766   3.511   2.182
 9741TIP3    H129166   1.717   3.525   2.101
 9741TIP3    H229167   1.857   3.503   2.154
 9742TIP3   OH229168   5.882   2.753   3.831
 9742TIP3    H129169   5.958   2.809   3.849
 9742TIP3    H229170   5.917   2.664   3.832
 9743TIP3   OH229171   1.792   7.421   6.329
 9743TIP3    H129172   1.778   7.516   6.329
 9743TIP3    H229173   1.844   7.405   6.407
 9744TIP3   OH229174   2.200   3.765   4.090
 9744TIP3    H129175   2.190   3.676   4.124
 9744TIP3    H229176   2.166   3.761   4.001
 9745TIP3   OH229177   6.834   4.933   3.030
 9745TIP3    H129178   6.818   4.860   2.971
 9745TIP3    H229179   6.753   4.984   3.028
 9746TIP3   OH229180   1.446   2.132   3.322
 9746TIP3    H129181   1.451   2.130   3.226
 9746TIP3    H229182   1.537   2.129   3.352
 9747TIP3   OH229183   6.132   7.217   6.570
 9747TIP3    H129184   6.200   7.226   6.503
 9747TIP3    H229185   6.057   7.182   6.524
 9748TIP3   OH229186   7.898   3.359   2.093
 9748TIP3    H129187   7.895   3.389   2.184
 9748TIP3    H229188   7.991   3.358   2.070
 9749TIP3   OH229189   0.735   5.727   5.477
 9749TIP3    H129190   0.817   5.680   5.463
 9749TIP3    H229191   0.690   5.676   5.544
 9750TIP3   OH229192   0.428   0.476   0.989
 9750TIP3    H129193   0.343   0.444   0.959
 9750TIP3    H229194   0.484   0.470   0.912
 9751TIP3   OH229195   8.000   7.161   2.780
 9751TIP3    H129196   7.953   7.087   2.741
 9751TIP3    H229197   8.049   7.199   2.708
 9752TIP3   OH229198   6.258   6.361   1.997
 9752TIP3    H129199   6.184   6.317   2.039
 9752TIP3    H229200   6.237   6.455   2.005
 9753TIP3   OH229201   6.333   6.162   2.565
 9753TIP3    H129202   6.298   6.187   2.479
 9753TIP3    H229203   6.323   6.241   2.618
 9754TIP3   OH229204   6.356   5.249   3.254
 9754TIP3    H129205   6.292   5.179   3.239
 9754TIP3    H229206   6.441   5.204   3.253
 9755TIP3   OH229207   7.074   2.930   1.475
 9755TIP3    H129208   7.038   2.841   1.478
 9755TIP3    H229209   7.158   2.921   1.431
 9756TIP3   OH229210   2.637   3.618   0.733
 9756TIP3    H129211   2.689   3.588   0.658
 9756TIP3    H229212   2.596   3.699   0.703
 9757TIP3   OH229213   2.690   0.316   3.106
 9757TIP3    H129214   2.758   0.349   3.165
 9757TIP3    H229215   2.735   0.303   3.022
 9758TIP3   OH229216   6.507   5.669   4.360
 9758TIP3    H129217   6.525   5.713   4.444
 9758TIP3    H229218   6.572   5.599   4.356
 9759TIP3   OH229219   7.822   1.332   5.109
 9759TIP3    H129220   7.773   1.405   5.071
 9759TIP3    H229221   7.777   1.254   5.076
 9760TIP3   OH229222   5.264   0.647   3.227
 9760TIP3    H129223   5.191   0.675   3.283
 9760TIP3    H229224   5.262   0.707   3.153
 9761TIP3   OH229225   1.000   3.999   6.631
 9761TIP3    H129226   0.916   4.041   6.647
 9761TIP3    H229227   1.064   4.070   6.635
 9762TIP3   OH229228   0.876   5.607   0.473
 9762TIP3    H129229   0.783   5.628   0.472
 9762TIP3    H229230   0.899   5.596   0.380
 9763TIP3   OH229231   1.244   6.277   6.705
 9763TIP3    H129232   1.160   6.253   6.667
 9763TIP3    H229233   1.273   6.199   6.752
 9764TIP3   OH229234   4.366   2.855   5.934
 9764TIP3    H129235   4.432   2.914   5.898
 9764TIP3    H229236   4.390   2.769   5.902
 9765TIP3   OH229237   2.377   6.750   1.199
 9765TIP3    H129238   2.312   6.782   1.261
 9765TIP3    H229239   2.460   6.787   1.230
 9766TIP3   OH229240   1.726   3.688   4.609
 9766TIP3    H129241   1.633   3.684   4.632
 9766TIP3    H229242   1.744   3.781   4.597
 9767TIP3   OH229243   7.568   7.398   0.497
 9767TIP3    H129244   7.630   7.469   0.477
 9767TIP3    H229245   7.572   7.341   0.420
 9768TIP3   OH229246   3.305   4.765   1.353
 9768TIP3    H129247   3.287   4.761   1.447
 9768TIP3    H229248   3.259   4.844   1.324
 9769TIP3   OH229249   7.402   7.528   0.697
 9769TIP3    H129250   7.465   7.500   0.631
 9769TIP3    H229251   7.427   7.480   0.776
 9770TIP3   OH229252   4.061   4.105   2.810
 9770TIP3    H129253   4.102   4.153   2.882
 9770TIP3    H229254   3.972   4.086   2.841
 9771TIP3   OH229255   8.216   1.315   5.427
 9771TIP3    H129256   8.145   1.377   5.445
 9771TIP3    H229257   8.174   1.229   5.428
 9772TIP3   OH229258   6.110   4.133   1.299
 9772TIP3    H129259   6.123   4.205   1.362
 9772TIP3    H229260   6.078   4.176   1.220
 9773TIP3   OH229261   6.607   0.225   1.805
 9773TIP3    H129262   6.679   0.170   1.836
 9773TIP3    H229263   6.547   0.164   1.761
 9774TIP3   OH229264   0.206   6.296   4.012
 9774TIP3    H129265   0.210   6.242   3.933
 9774TIP3    H229266   0.143   6.251   4.068
 9775TIP3   OH229267   2.227   3.516   2.341
 9775TIP3    H129268   2.155   3.486   2.286
 9775TIP3    H229269   2.202   3.605   2.366
 9776TIP3   OH229270   4.164   6.815   4.089
 9776TIP3    H129271   4.162   6.839   3.997
 9776TIP3    H229272   4.072   6.816   4.116
 9777TIP3   OH229273   7.382   1.978   6.149
 9777TIP3    H129274   7.352   1.947   6.064
 9777TIP3    H229275   7.314   1.951   6.210
 9778TIP3   OH229276   3.574   7.832   0.501
 9778TIP3    H129277   3.496   7.872   0.462
 9778TIP3    H229278   3.542   7.750   0.538
 9779TIP3   OH229279   6.426   6.103   5.995
 9779TIP3    H129280   6.356   6.167   6.009
 9779TIP3    H229281   6.383   6.030   5.950
 9780TIP3   OH229282   1.037   3.730   6.606
 9780TIP3    H129283   1.039   3.825   6.616
 9780TIP3    H229284   0.946   3.707   6.623
 9781TIP3   OH229285   2.997   2.549   3.633
 9781TIP3    H129286   3.079   2.510   3.604
 9781TIP3    H229287   2.945   2.559   3.553
 9782TIP3   OH229288   5.279   6.115   6.207
 9782TIP3    H129289   5.363   6.069   6.209
 9782TIP3    H229290   5.272   6.147   6.117
 9783TIP3   OH229291   7.331   0.298   1.683
 9783TIP3    H129292   7.403   0.265   1.738
 9783TIP3    H229293   7.336   0.393   1.692
 9784TIP3   OH229294   7.193   1.811   4.886
 9784TIP3    H129295   7.111   1.811   4.936
 9784TIP3    H229296   7.217   1.904   4.880
 9785TIP3   OH229297   2.030   1.765   2.368
 9785TIP3    H129298   2.088   1.724   2.432
 9785TIP3    H229299   2.067   1.742   2.283
 9786TIP3   OH229300   0.267   4.450   3.963
 9786TIP3    H129301   0.215   4.499   3.900
 9786TIP3    H229302   0.270   4.361   3.928
 9787TIP3   OH229303   4.992   6.008   2.419
 9787TIP3    H129304   4.909   5.974   2.387
 9787TIP3    H229305   5.013   6.081   2.360
 9788TIP3   OH229306   0.737   2.269   6.231
 9788TIP3    H129307   0.813   2.211   6.228
 9788TIP3    H229308   0.750   2.323   6.309
 9789TIP3   OH229309   7.046   7.728   2.955
 9789TIP3    H129310   7.081   7.701   3.040
 9789TIP3    H229311   7.029   7.646   2.909
 9790TIP3   OH229312   2.081   2.943   5.853
 9790TIP3    H129313   1.990   2.956   5.880
 9790TIP3    H229314   2.093   2.848   5.853
 9791TIP3   OH229315   1.945   2.297   5.469
 9791TIP3    H129316   1.880   2.331   5.408
 9791TIP3    H229317   2.019   2.270   5.414
 9792TIP3   OH229318   7.294   0.565   3.222
 9792TIP3    H129319   7.242   0.640   3.192
 9792TIP3    H229320   7.284   0.500   3.152
 9793TIP3   OH229321   4.445   4.726   3.167
 9793TIP3    H129322   4.472   4.656   3.109
 9793TIP3    H229323   4.526   4.772   3.190
 9794TIP3   OH229324   1.959   7.151   3.302
 9794TIP3    H129325   1.912   7.233   3.293
 9794TIP3    H229326   2.006   7.140   3.219
 9795TIP3   OH229327   7.059   5.151   3.715
 9795TIP3    H129328   7.154   5.143   3.714
 9795TIP3    H229329   7.038   5.206   3.640
 9796TIP3   OH229330   1.950   3.649   6.330
 9796TIP3    H129331   1.865   3.646   6.374
 9796TIP3    H229332   1.930   3.683   6.243
 9797TIP3   OH229333   1.936   2.825   1.860
 9797TIP3    H129334   2.000   2.803   1.928
 9797TIP3    H229335   1.881   2.748   1.853
 9798TIP3   OH229336   0.327   4.145   0.609
 9798TIP3    H129337   0.325   4.213   0.541
 9798TIP3    H229338   0.416   4.148   0.643
 9799TIP3   OH229339   7.518   7.507   2.022
 9799TIP3    H129340   7.544   7.474   2.108
 9799TIP3    H229341   7.440   7.457   1.999
 9800TIP3   OH229342   5.250   3.904   0.856
 9800TIP3    H129343   5.215   3.878   0.771
 9800TIP3    H229344   5.315   3.972   0.835
 9801TIP3   OH229345   2.515   6.725   6.212
 9801TIP3    H129346   2.444   6.728   6.276
 9801TIP3    H229347   2.574   6.795   6.238
 9802TIP3   OH229348   5.734   0.843   3.795
 9802TIP3    H129349   5.694   0.916   3.841
 9802TIP3    H229350   5.756   0.878   3.709
 9803TIP3   OH229351   3.533   5.754   4.616
 9803TIP3    H129352   3.536   5.803   4.699
 9803TIP3    H229353   3.453   5.785   4.573
 9804TIP3   OH229354   2.331   0.807   5.437
 9804TIP3    H129355   2.279   0.766   5.506
 9804TIP3    H229356   2.394   0.862   5.484
 9805TIP3   OH229357   1.674   0.950   5.162
 9805TIP3    H129358   1.585   0.965   5.194
 9805TIP3    H229359   1.701   0.868   5.205
 9806TIP3   OH229360   1.945   4.117   4.578
 9806TIP3    H129361   1.989   4.196   4.546
 9806TIP3    H229362   2.001   4.085   4.648
 9807TIP3   OH229363   3.273   0.240   4.625
 9807TIP3    H129364   3.295   0.327   4.593
 9807TIP3    H229365   3.251   0.253   4.717
 9808TIP3   OH229366   6.462   3.148   1.642
 9808TIP3    H129367   6.438   3.062   1.608
 9808TIP3    H229368   6.394   3.168   1.707
 9809TIP3   OH229369   1.675   3.098   0.995
 9809TIP3    H129370   1.587   3.082   0.960
 9809TIP3    H229371   1.722   3.141   0.923
 9810TIP3   OH229372   1.112   0.544   5.256
 9810TIP3    H129373   1.072   0.631   5.249
 9810TIP3    H229374   1.119   0.530   5.351
 9811TIP3   OH229375   1.210   3.464   1.852
 9811TIP3    H129376   1.241   3.543   1.895
 9811TIP3    H229377   1.168   3.495   1.772
 9812TIP3   OH229378   8.288   0.386   5.686
 9812TIP3    H129379   8.264   0.396   5.778
 9812TIP3    H229380   8.233   0.315   5.654
 9813TIP3   OH229381   5.199   1.333   5.300
 9813TIP3    H129382   5.258   1.282   5.245
 9813TIP3    H229383   5.119   1.280   5.304
 9814TIP3   OH229384   0.657   5.755   2.856
 9814TIP3    H129385   0.720   5.827   2.847
 9814TIP3    H229386   0.632   5.733   2.767
 9815TIP3   OH229387   2.510   2.639   1.600
 9815TIP3    H129388   2.511   2.586   1.521
 9815TIP3    H229389   2.500   2.729   1.570
 9816TIP3   OH229390   7.954   3.769   5.688
 9816TIP3    H129391   8.023   3.704   5.701
 9816TIP3    H229392   7.991   3.832   5.626
 9817TIP3   OH229393   3.656   6.786   5.407
 9817TIP3    H129394   3.680   6.708   5.357
 9817TIP3    H229395   3.577   6.819   5.364
 9818TIP3   OH229396   3.205   1.680   4.382
 9818TIP3    H129397   3.210   1.632   4.464
 9818TIP3    H229398   3.148   1.627   4.326
 9819TIP3   OH229399   4.121   2.492   5.849
 9819TIP3    H129400   4.073   2.459   5.924
 9819TIP3    H229401   4.071   2.463   5.773
 9820TIP3   OH229402   3.930   1.541   5.407
 9820TIP3    H129403   4.002   1.559   5.467
 9820TIP3    H229404   3.886   1.625   5.396
 9821TIP3   OH229405   6.864   4.155   0.844
 9821TIP3    H129406   6.926   4.141   0.772
 9821TIP3    H229407   6.906   4.222   0.899
 9822TIP3   OH229408   2.503   6.241   6.522
 9822TIP3    H129409   2.530   6.288   6.601
 9822TIP3    H229410   2.555   6.161   6.522
 9823TIP3   OH229411   5.939   2.622   3.012
 9823TIP3    H129412   5.939   2.686   2.940
 9823TIP3    H229413   5.904   2.669   3.087
 9824TIP3   OH229414   7.527   5.662   0.596
 9824TIP3    H129415   7.505   5.570   0.607
 9824TIP3    H229416   7.616   5.670   0.629
 9825TIP3   OH229417   2.222   0.622   4.828
 9825TIP3    H129418   2.193   0.688   4.765
 9825TIP3    H229419   2.185   0.652   4.912
 9826TIP3   OH229420   4.384   1.273   2.512
 9826TIP3    H129421   4.393   1.359   2.471
 9826TIP3    H229422   4.289   1.259   2.517
 9827TIP3   OH229423   6.983   6.143   3.665
 9827TIP3    H129424   7.045   6.073   3.644
 9827TIP3    H229425   6.928   6.150   3.587
 9828TIP3   OH229426   0.443   0.994   0.487
 9828TIP3    H129427   0.462   1.087   0.490
 9828TIP3    H229428   0.375   0.986   0.419
 9829TIP3   OH229429   4.512   5.683   3.109
 9829TIP3    H129430   4.479   5.691   3.020
 9829TIP3    H229431   4.587   5.624   3.102
 9830TIP3   OH229432   3.259   7.815   1.494
 9830TIP3    H129433   3.260   7.722   1.516
 9830TIP3    H229434   3.177   7.848   1.531
 9831TIP3   OH229435   6.860   7.717   1.657
 9831TIP3    H129436   6.798   7.790   1.664
 9831TIP3    H229437   6.818   7.656   1.597
 9832TIP3   OH229438   3.708   0.448   1.487
 9832TIP3    H129439   3.638   0.499   1.527
 9832TIP3    H229440   3.716   0.484   1.399
 9833TIP3   OH229441   4.369   4.218   0.743
 9833TIP3    H129442   4.364   4.304   0.785
 9833TIP3    H229443   4.391   4.158   0.814
 9834TIP3   OH229444   6.565   6.565   4.247
 9834TIP3    H129445   6.506   6.638   4.262
 9834TIP3    H229446   6.650   6.606   4.229
 9835TIP3   OH229447   6.507   7.109   2.013
 9835TIP3    H129448   6.463   7.044   1.958
 9835TIP3    H229449   6.543   7.172   1.951
 9836TIP3   OH229450   2.654   2.274   5.989
 9836TIP3    H129451   2.638   2.229   6.072
 9836TIP3    H229452   2.583   2.245   5.932
 9837TIP3   OH229453   1.870   4.759   2.559
 9837TIP3    H129454   1.901   4.707   2.633
 9837TIP3    H229455   1.947   4.765   2.501
 9838TIP3   OH229456   1.395   4.684   5.762
 9838TIP3    H129457   1.479   4.703   5.805
 9838TIP3    H229458   1.362   4.606   5.806
 9839TIP3   OH229459   6.579   3.978   5.718
 9839TIP3    H129460   6.654   3.921   5.737
 9839TIP3    H229461   6.503   3.920   5.723
 9840TIP3   OH229462   5.562   5.824   3.424
 9840TIP3    H129463   5.509   5.828   3.345
 9840TIP3    H229464   5.537   5.741   3.465
 9841TIP3   OH229465   1.626   0.432   1.773
 9841TIP3    H129466   1.586   0.405   1.691
 9841TIP3    H229467   1.552   0.443   1.833
 9842TIP3   OH229468   3.254   4.039   2.451
 9842TIP3    H129469   3.170   4.022   2.493
 9842TIP3    H229470   3.252   4.131   2.428
 9843TIP3   OH229471   1.551   5.360   2.609
 9843TIP3    H129472   1.633   5.330   2.646
 9843TIP3    H229473   1.484   5.327   2.668
 9844TIP3   OH229474   1.967   3.955   0.848
 9844TIP3    H129475   1.955   3.950   0.942
 9844TIP3    H229476   1.921   3.879   0.813
 9845TIP3   OH229477   1.631   2.801   4.354
 9845TIP3    H129478   1.687   2.792   4.431
 9845TIP3    H229479   1.573   2.725   4.357
 9846TIP3   OH229480   0.894   7.489   4.267
 9846TIP3    H129481   0.923   7.399   4.277
 9846TIP3    H229482   0.871   7.496   4.174
 9847TIP3   OH229483   6.821   7.275   3.465
 9847TIP3    H129484   6.878   7.338   3.509
 9847TIP3    H229485   6.865   7.191   3.478
 9848TIP3   OH229486   6.650   5.950   1.553
 9848TIP3    H129487   6.560   5.972   1.531
 9848TIP3    H229488   6.645   5.862   1.590
 9849TIP3   OH229489   2.652   0.162   4.342
 9849TIP3    H129490   2.674   0.075   4.376
 9849TIP3    H229491   2.684   0.223   4.408
 9850TIP3   OH229492   2.815   5.611   5.891
 9850TIP3    H129493   2.762   5.589   5.814
 9850TIP3    H229494   2.776   5.692   5.924
 9851TIP3   OH229495   1.038   6.895   2.158
 9851TIP3    H129496   1.028   6.906   2.063
 9851TIP3    H229497   0.948   6.891   2.191
 9852TIP3   OH229498   8.300   0.884   6.242
 9852TIP3    H129499   8.263   0.796   6.234
 9852TIP3    H229500   8.228   0.936   6.278
 9853TIP3   OH229501   5.492   1.450   4.152
 9853TIP3    H129502   5.566   1.493   4.195
 9853TIP3    H229503   5.450   1.400   4.221
 9854TIP3   OH229504   0.773   5.978   3.820
 9854TIP3    H129505   0.745   5.997   3.731
 9854TIP3    H229506   0.691   5.967   3.869
 9855TIP3   OH229507   1.264   1.168   5.225
 9855TIP3    H129508   1.192   1.181   5.287
 9855TIP3    H229509   1.342   1.192   5.274
 9856TIP3   OH229510   4.056   2.485   6.579
 9856TIP3    H129511   4.050   2.570   6.622
 9856TIP3    H229512   4.061   2.422   6.652
 9857TIP3   OH229513   8.239   6.746   6.570
 9857TIP3    H129514   8.204   6.707   6.649
 9857TIP3    H229515   8.165   6.751   6.510
 9858TIP3   OH229516   7.870   2.663   0.704
 9858TIP3    H129517   7.881   2.568   0.713
 9858TIP3    H229518   7.776   2.674   0.689
 9859TIP3   OH229519   1.489   4.426   2.980
 9859TIP3    H129520   1.525   4.346   3.020
 9859TIP3    H229521   1.451   4.397   2.897
 9860TIP3   OH229522   4.281   7.617   5.548
 9860TIP3    H129523   4.190   7.634   5.525
 9860TIP3    H229524   4.312   7.699   5.585
 9861TIP3   OH229525   6.766   0.904   3.161
 9861TIP3    H129526   6.789   0.815   3.186
 9861TIP3    H229527   6.681   0.896   3.119
 9862TIP3   OH229528   1.148   3.602   6.107
 9862TIP3    H129529   1.209   3.529   6.098
 9862TIP3    H229530   1.073   3.567   6.155
 9863TIP3   OH229531   7.233   2.867   0.081
 9863TIP3    H129532   7.146   2.886   0.046
 9863TIP3    H229533   7.292   2.919   0.026
 9864TIP3   OH229534   0.964   6.462   5.378
 9864TIP3    H129535   0.969   6.557   5.392
 9864TIP3    H229536   1.027   6.445   5.308
 9865TIP3   OH229537   7.826   3.712   5.051
 9865TIP3    H129538   7.771   3.712   5.130
 9865TIP3    H229539   7.914   3.729   5.084
 9866TIP3   OH229540   6.267   6.165   5.028
 9866TIP3    H129541   6.340   6.191   4.972
 9866TIP3    H229542   6.209   6.114   4.971
 9867TIP3   OH229543   1.424   1.431   0.275
 9867TIP3    H129544   1.472   1.369   0.329
 9867TIP3    H229545   1.394   1.379   0.200
 9868TIP3   OH229546   3.728   6.320   5.346
 9868TIP3    H129547   3.711   6.332   5.440
 9868TIP3    H229548   3.643   6.298   5.309
 9869TIP3   OH229549   5.546   5.686   3.775
 9869TIP3    H129550   5.507   5.668   3.861
 9869TIP3    H229551   5.503   5.625   3.716
 9870TIP3   OH229552   7.562   6.884   1.890
 9870TIP3    H129553   7.616   6.942   1.836
 9870TIP3    H229554   7.593   6.900   1.980
 9871TIP3   OH229555   7.614   5.085   0.232
 9871TIP3    H129556   7.606   5.085   0.136
 9871TIP3    H229557   7.632   4.994   0.254
 9872TIP3   OH229558   3.659   7.122   5.333
 9872TIP3    H129559   3.631   7.076   5.254
 9872TIP3    H229560   3.754   7.133   5.323
 9873TIP3   OH229561   0.808   4.178   2.967
 9873TIP3    H129562   0.880   4.177   2.905
 9873TIP3    H229563   0.748   4.245   2.934
 9874TIP3   OH229564   4.084   2.859   2.028
 9874TIP3    H129565   4.072   2.953   2.044
 9874TIP3    H229566   4.111   2.823   2.112
 9875TIP3   OH229567   2.200   4.445   1.329
 9875TIP3    H129568   2.258   4.391   1.275
 9875TIP3    H229569   2.147   4.381   1.377
 9876TIP3   OH229570   4.307   5.966   1.260
 9876TIP3    H129571   4.358   6.042   1.232
 9876TIP3    H229572   4.235   6.003   1.312
 9877TIP3   OH229573   7.594   2.213   5.623
 9877TIP3    H129574   7.566   2.140   5.678
 9877TIP3    H229575   7.623   2.280   5.685
 9878TIP3   OH229576   1.557   3.535   0.666
 9878TIP3    H129577   1.522   3.520   0.754
 9878TIP3    H229578   1.489   3.585   0.621
 9879TIP3   OH229579   1.573   5.137   0.150
 9879TIP3    H129580   1.506   5.094   0.096
 9879TIP3    H229581   1.614   5.066   0.198
 9880TIP3   OH229582   3.752   5.574   4.719
 9880TIP3    H129583   3.697   5.631   4.665
 9880TIP3    H229584   3.743   5.488   4.680
 9881TIP3   OH229585   8.280   5.356   4.946
 9881TIP3    H129586   8.317   5.404   4.872
 9881TIP3    H229587   8.320   5.269   4.941
 9882TIP3   OH229588   6.831   1.003   2.034
 9882TIP3    H129589   6.772   1.049   1.974
 9882TIP3    H229590   6.777   0.937   2.076
 9883TIP3   OH229591   3.649   0.354   6.210
 9883TIP3    H129592   3.563   0.319   6.185
 9883TIP3    H229593   3.701   0.276   6.229
 9884TIP3   OH229594   4.160   7.245   4.653
 9884TIP3    H129595   4.209   7.312   4.701
 9884TIP3    H229596   4.152   7.279   4.564
 9885TIP3   OH229597   1.802   3.900   1.743
 9885TIP3    H129598   1.777   3.808   1.756
 9885TIP3    H229599   1.727   3.950   1.774
 9886TIP3   OH229600   5.628   5.598   4.623
 9886TIP3    H129601   5.565   5.670   4.633
 9886TIP3    H229602   5.706   5.627   4.671
 9887TIP3   OH229603   1.142   4.144   6.002
 9887TIP3    H129604   1.177   4.055   6.008
 9887TIP3    H229605   1.173   4.187   6.081
 9888TIP3   OH229606   3.756   7.142   4.017
 9888TIP3    H129607   3.757   7.048   4.003
 9888TIP3    H229608   3.839   7.173   3.979
 9889TIP3   OH229609   3.449   3.980   2.209
 9889TIP3    H129610   3.471   3.968   2.117
 9889TIP3    H229611   3.420   4.071   2.215
 9890TIP3   OH229612   4.048   5.783   2.091
 9890TIP3    H129613   3.961   5.814   2.068
 9890TIP3    H229614   4.037   5.690   2.108
 9891TIP3   OH229615   7.042   4.681   0.269
 9891TIP3    H129616   7.129   4.656   0.297
 9891TIP3    H229617   6.990   4.601   0.275
 9892TIP3   OH229618   0.997   5.546   2.080
 9892TIP3    H129619   0.983   5.454   2.100
 9892TIP3    H229620   1.075   5.570   2.131
 9893TIP3   OH229621   2.515   1.129   2.857
 9893TIP3    H129622   2.478   1.041   2.847
 9893TIP3    H229623   2.559   1.146   2.774
 9894TIP3   OH229624   5.552   0.973   2.555
 9894TIP3    H129625   5.491   0.934   2.493
 9894TIP3    H229626   5.506   0.972   2.639
 9895TIP3   OH229627   5.285   6.294   2.525
 9895TIP3    H129628   5.342   6.286   2.448
 9895TIP3    H229629   5.198   6.313   2.489
 9896TIP3   OH229630   7.675   1.493   4.942
 9896TIP3    H129631   7.714   1.492   4.854
 9896TIP3    H229632   7.627   1.575   4.946
 9897TIP3   OH229633   8.195   6.263   4.875
 9897TIP3    H129634   8.169   6.224   4.792
 9897TIP3    H229635   8.248   6.339   4.850
 9898TIP3   OH229636   7.317   1.475   1.139
 9898TIP3    H129637   7.404   1.481   1.101
 9898TIP3    H229638   7.332   1.472   1.233
 9899TIP3   OH229639   4.292   5.825   0.664
 9899TIP3    H129640   4.285   5.863   0.576
 9899TIP3    H229641   4.383   5.794   0.669
 9900TIP3   OH229642   1.329   2.258   2.642
 9900TIP3    H129643   1.240   2.274   2.674
 9900TIP3    H229644   1.330   2.297   2.555
 9901TIP3   OH229645   0.213   0.409   4.840
 9901TIP3    H129646   0.186   0.485   4.891
 9901TIP3    H229647   0.131   0.369   4.812
 9902TIP3   OH229648   7.200   2.666   6.682
 9902TIP3    H129649   7.146   2.692   6.756
 9902TIP3    H229650   7.265   2.606   6.719
 9903TIP3   OH229651   0.617   7.384   4.020
 9903TIP3    H129652   0.543   7.445   4.008
 9903TIP3    H229653   0.695   7.438   4.006
 9904TIP3   OH229654   7.570   5.303   1.024
 9904TIP3    H129655   7.541   5.256   1.103
 9904TIP3    H229656   7.526   5.388   1.029
 9905TIP3   OH229657   0.262   4.057   4.351
 9905TIP3    H129658   0.248   4.149   4.373
 9905TIP3    H229659   0.187   4.012   4.389
 9906TIP3   OH229660   2.361   6.526   0.005
 9906TIP3    H129661   2.404   6.590   0.061
 9906TIP3    H229662   2.401   6.442   0.031
 9907TIP3   OH229663   3.299   6.294   1.431
 9907TIP3    H129664   3.282   6.202   1.413
 9907TIP3    H229665   3.211   6.333   1.439
 9908TIP3   OH229666   3.449   6.231   1.825
 9908TIP3    H129667   3.369   6.281   1.840
 9908TIP3    H229668   3.517   6.298   1.815
 9909TIP3   OH229669   6.534   5.756   6.378
 9909TIP3    H129670   6.621   5.761   6.418
 9909TIP3    H229671   6.538   5.819   6.305
 9910TIP3   OH229672   2.775   1.883   4.424
 9910TIP3    H129673   2.720   1.900   4.500
 9910TIP3    H229674   2.792   1.789   4.427
 9911TIP3   OH229675   3.245   6.349   3.539
 9911TIP3    H129676   3.251   6.314   3.628
 9911TIP3    H229677   3.234   6.443   3.550
 9912TIP3   OH229678   4.849   6.053   6.706
 9912TIP3    H129679   4.923   6.054   6.767
 9912TIP3    H229680   4.819   6.143   6.703
 9913TIP3   OH229681   1.842   1.171   2.922
 9913TIP3    H129682   1.927   1.153   2.882
 9913TIP3    H229683   1.861   1.233   2.992
 9914TIP3   OH229684   6.061   5.169   4.877
 9914TIP3    H129685   6.152   5.151   4.854
 9914TIP3    H229686   6.055   5.264   4.881
 9915TIP3   OH229687   4.159   1.876   5.662
 9915TIP3    H129688   4.114   1.940   5.607
 9915TIP3    H229689   4.247   1.913   5.675
 9916TIP3   OH229690   2.842   7.363   1.437
 9916TIP3    H129691   2.861   7.450   1.403
 9916TIP3    H229692   2.831   7.309   1.359
 9917TIP3   OH229693   3.535   3.260   3.253
 9917TIP3    H129694   3.478   3.184   3.269
 9917TIP3    H229695   3.572   3.245   3.166
 9918TIP3   OH229696   2.537   4.071   0.098
 9918TIP3    H129697   2.624   4.040   0.070
 9918TIP3    H229698   2.526   4.035   0.186
 9919TIP3   OH229699   6.923   5.149   2.764
 9919TIP3    H129700   6.858   5.093   2.721
 9919TIP3    H229701   7.004   5.098   2.762
 9920TIP3   OH229702   4.091   3.755   5.573
 9920TIP3    H129703   4.067   3.749   5.666
 9920TIP3    H229704   4.125   3.844   5.563
 9921TIP3   OH229705   7.997   6.494   1.476
 9921TIP3    H129706   7.986   6.440   1.398
 9921TIP3    H229707   8.086   6.530   1.468
 9922TIP3   OH229708   7.013   7.709   0.504
 9922TIP3    H129709   7.054   7.624   0.520
 9922TIP3    H229710   6.950   7.692   0.434
 9923TIP3   OH229711   5.498   1.724   2.683
 9923TIP3    H129712   5.492   1.806   2.634
 9923TIP3    H229713   5.492   1.752   2.775
 9924TIP3   OH229714   6.426   6.065   3.468
 9924TIP3    H129715   6.444   6.134   3.531
 9924TIP3    H229716   6.502   6.063   3.410
 9925TIP3   OH229717   2.360   7.063   5.325
 9925TIP3    H129718   2.385   6.989   5.380
 9925TIP3    H229719   2.439   7.085   5.276
 9926TIP3   OH229720   2.507   3.121   5.477
 9926TIP3    H129721   2.544   3.184   5.415
 9926TIP3    H229722   2.583   3.086   5.523
 9927TIP3   OH229723   4.064   4.710   6.145
 9927TIP3    H129724   4.074   4.654   6.222
 9927TIP3    H229725   4.066   4.650   6.071
 9928TIP3   OH229726   1.403   1.501   1.120
 9928TIP3    H129727   1.484   1.553   1.118
 9928TIP3    H229728   1.411   1.440   1.048
 9929TIP3   OH229729   0.711   2.196   1.613
 9929TIP3    H129730   0.755   2.190   1.528
 9929TIP3    H229731   0.617   2.189   1.592
 9930TIP3   OH229732   6.697   3.228   2.562
 9930TIP3    H129733   6.778   3.238   2.612
 9930TIP3    H229734   6.700   3.298   2.497
 9931TIP3   OH229735   8.099   4.974   4.022
 9931TIP3    H129736   8.163   5.012   3.963
 9931TIP3    H229737   8.054   5.050   4.060
 9932TIP3   OH229738   4.823   2.825  -0.010
 9932TIP3    H129739   4.896   2.823  -0.073
 9932TIP3    H229740   4.860   2.866   0.068
 9933TIP3   OH229741   1.152   5.403   6.755
 9933TIP3    H129742   1.141   5.323   6.703
 9933TIP3    H229743   1.164   5.472   6.690
 9934TIP3   OH229744   2.206   5.650   1.084
 9934TIP3    H129745   2.194   5.640   1.178
 9934TIP3    H229746   2.128   5.612   1.045
 9935TIP3   OH229747  -0.004   0.570   2.274
 9935TIP3    H129748   0.083   0.570   2.235
 9935TIP3    H229749  -0.031   0.662   2.272
 9936TIP3   OH229750   1.090   5.786   0.562
 9936TIP3    H129751   1.002   5.754   0.539
 9936TIP3    H229752   1.139   5.781   0.480
 9937TIP3   OH229753   3.815   4.181   0.144
 9937TIP3    H129754   3.769   4.107   0.185
 9937TIP3    H229755   3.764   4.200   0.066
 9938TIP3   OH229756   5.073   4.386   5.855
 9938TIP3    H129757   5.121   4.317   5.902
 9938TIP3    H229758   5.062   4.456   5.919
 9939TIP3   OH229759   4.324   5.544   2.277
 9939TIP3    H129760   4.259   5.516   2.213
 9939TIP3    H229761   4.355   5.629   2.244
 9940TIP3   OH229762   7.557   0.318   5.333
 9940TIP3    H129763   7.630   0.366   5.372
 9940TIP3    H229764   7.497   0.386   5.303
 9941TIP3   OH229765   5.984   0.163   6.068
 9941TIP3    H129766   5.935   0.101   6.122
 9941TIP3    H229767   6.065   0.179   6.117
 9942TIP3   OH229768   3.186   1.862   2.490
 9942TIP3    H129769   3.195   1.958   2.487
 9942TIP3    H229770   3.185   1.841   2.583
 9943TIP3   OH229771   3.594   6.921   6.785
 9943TIP3    H129772   3.504   6.931   6.755
 9943TIP3    H229773   3.628   7.010   6.791
 9944TIP3   OH229774   1.971   6.259   5.806
 9944TIP3    H129775   1.942   6.207   5.731
 9944TIP3    H229776   2.054   6.297   5.777
 9945TIP3   OH229777   1.754   5.491   5.213
 9945TIP3    H129778   1.736   5.584   5.222
 9945TIP3    H229779   1.681   5.447   5.256
 9946TIP3   OH229780   1.633   1.865   4.103
 9946TIP3    H129781   1.557   1.808   4.112
 9946TIP3    H229782   1.609   1.944   4.150
 9947TIP3   OH229783   5.584   4.119   2.246
 9947TIP3    H129784   5.578   4.205   2.204
 9947TIP3    H229785   5.642   4.132   2.320
 9948TIP3   OH229786   6.694   2.915   1.127
 9948TIP3    H129787   6.754   2.958   1.188
 9948TIP3    H229788   6.607   2.940   1.157
 9949TIP3   OH229789   2.500   7.130   3.845
 9949TIP3    H129790   2.489   7.111   3.939
 9949TIP3    H229791   2.514   7.045   3.805
 9950TIP3   OH229792   1.847   1.328   3.282
 9950TIP3    H129793   1.916   1.279   3.238
 9950TIP3    H229794   1.827   1.401   3.223
 9951TIP3   OH229795   2.162   0.062   5.645
 9951TIP3    H129796   2.074   0.044   5.612
 9951TIP3    H229797   2.149   0.120   5.719
 9952TIP3   OH229798   6.142   7.575   2.957
 9952TIP3    H129799   6.217   7.634   2.970
 9952TIP3    H229800   6.155   7.505   3.021
 9953TIP3   OH229801   5.235   3.303   3.502
 9953TIP3    H129802   5.167   3.235   3.506
 9953TIP3    H229803   5.195   3.374   3.453
 9954TIP3   OH229804   6.943   4.942   2.563
 9954TIP3    H129805   6.870   4.909   2.615
 9954TIP3    H229806   6.907   5.020   2.520
 9955TIP3   OH229807   6.757   1.994   3.827
 9955TIP3    H129808   6.701   1.975   3.902
 9955TIP3    H229809   6.778   1.908   3.790
 9956TIP3   OH229810   0.658   1.672   6.654
 9956TIP3    H129811   0.726   1.733   6.626
 9956TIP3    H229812   0.620   1.639   6.572
 9957TIP3   OH229813   3.298   1.735   1.206
 9957TIP3    H129814   3.349   1.800   1.255
 9957TIP3    H229815   3.272   1.671   1.272
 9958TIP3   OH229816   4.682   5.848   4.898
 9958TIP3    H129817   4.595   5.865   4.934
 9958TIP3    H229818   4.742   5.895   4.956
 9959TIP3   OH229819   1.203   0.176   1.720
 9959TIP3    H129820   1.280   0.185   1.776
 9959TIP3    H229821   1.184   0.266   1.692
 9960TIP3   OH229822   1.530   1.202   6.751
 9960TIP3    H129823   1.464   1.150   6.706
 9960TIP3    H229824   1.537   1.164   6.838
 9961TIP3   OH229825   0.547   6.274   4.924
 9961TIP3    H129826   0.519   6.358   4.889
 9961TIP3    H229827   0.566   6.291   5.016
 9962TIP3   OH229828   2.982   4.385   5.125
 9962TIP3    H129829   3.021   4.367   5.040
 9962TIP3    H229830   3.054   4.419   5.178
 9963TIP3   OH229831   2.062   6.166   2.017
 9963TIP3    H129832   2.007   6.242   2.038
 9963TIP3    H229833   2.054   6.109   2.093
 9964TIP3   OH229834   0.192   1.450   2.512
 9964TIP3    H129835   0.184   1.446   2.417
 9964TIP3    H229836   0.170   1.362   2.541
 9965TIP3   OH229837   1.630   2.377   4.147
 9965TIP3    H129838   1.593   2.459   4.113
 9965TIP3    H229839   1.682   2.343   4.075
 9966TIP3   OH229840   6.960   1.778   1.142
 9966TIP3    H129841   6.871   1.762   1.174
 9966TIP3    H229842   6.990   1.853   1.193
 9967TIP3   OH229843   1.272   0.338   6.606
 9967TIP3    H129844   1.299   0.349   6.515
 9967TIP3    H229845   1.319   0.261   6.637
 9968TIP3   OH229846   5.741   1.388   1.812
 9968TIP3    H129847   5.696   1.313   1.772
 9968TIP3    H229848   5.830   1.356   1.829
 9969TIP3   OH229849   5.400   0.079   1.815
 9969TIP3    H129850   5.440   0.006   1.768
 9969TIP3    H229851   5.310   0.050   1.831
 9970TIP3   OH229852   5.784   3.050   4.669
 9970TIP3    H129853   5.820   3.114   4.607
 9970TIP3    H229854   5.703   3.090   4.700
 9971TIP3   OH229855   3.264   0.106   3.877
 9971TIP3    H129856   3.213   0.083   3.955
 9971TIP3    H229857   3.200   0.104   3.806
 9972TIP3   OH229858   6.180   1.234   0.788
 9972TIP3    H129859   6.098   1.265   0.749
 9972TIP3    H229860   6.158   1.148   0.823
 9973TIP3   OH229861   3.196   1.418   0.348
 9973TIP3    H129862   3.108   1.457   0.351
 9973TIP3    H229863   3.254   1.489   0.375
 9974TIP3   OH229864   6.080   1.313   0.047
 9974TIP3    H129865   6.171   1.337   0.065
 9974TIP3    H229866   6.082   1.218   0.038
 9975TIP3   OH229867   0.947  -0.014   1.790
 9975TIP3    H129868   0.891   0.063   1.790
 9975TIP3    H229869   1.033   0.018   1.763
 9976TIP3   OH229870   2.722   0.834   0.825
 9976TIP3    H129871   2.678   0.750   0.813
 9976TIP3    H229872   2.668   0.897   0.777
 9977TIP3   OH229873   0.929   2.681   4.388
 9977TIP3    H129874   0.934   2.707   4.297
 9977TIP3    H229875   0.998   2.616   4.399
 9978TIP3   OH229876   2.107   6.434   1.126
 9978TIP3    H129877   2.125   6.499   1.057
 9978TIP3    H229878   2.094   6.352   1.078
 9979TIP3   OH229879   3.022   1.557   1.005
 9979TIP3    H129880   3.041   1.554   0.911
 9979TIP3    H229881   2.986   1.644   1.020
 9980TIP3   OH229882   2.198   2.350   2.137
 9980TIP3    H129883   2.170   2.432   2.176
 9980TIP3    H229884   2.271   2.373   2.080
 9981TIP3   OH229885   1.230   3.919   2.630
 9981TIP3    H129886   1.242   3.994   2.573
 9981TIP3    H229887   1.222   3.956   2.718
 9982TIP3   OH229888   6.624   4.349   4.237
 9982TIP3    H129889   6.717   4.348   4.217
 9982TIP3    H229890   6.581   4.323   4.155
 9983TIP3   OH229891   4.202   3.715   0.050
 9983TIP3    H129892   4.154   3.716  -0.032
 9983TIP3    H229893   4.150   3.770   0.109
 9984TIP3   OH229894   1.621   2.937   1.518
 9984TIP3    H129895   1.529   2.949   1.496
 9984TIP3    H229896   1.639   3.002   1.587
 9985TIP3   OH229897   0.113   1.765   0.432
 9985TIP3    H129898   0.161   1.685   0.413
 9985TIP3    H229899   0.131   1.782   0.524
 9986TIP3   OH229900   3.407   1.848   4.301
 9986TIP3    H129901   3.458   1.777   4.341
 9986TIP3    H229902   3.316   1.820   4.310
 9987TIP3   OH229903   0.387   7.046   1.230
 9987TIP3    H129904   0.378   7.065   1.136
 9987TIP3    H229905   0.413   7.129   1.269
 9988TIP3   OH229906   4.798   2.044   4.334
 9988TIP3    H129907   4.876   2.084   4.371
 9988TIP3    H229908   4.828   2.002   4.254
 9989TIP3   OH229909   7.561   4.681   0.695
 9989TIP3    H129910   7.600   4.717   0.616
 9989TIP3    H229911   7.570   4.586   0.684
 9990TIP3   OH229912   2.471   2.076   5.117
 9990TIP3    H129913   2.484   2.166   5.144
 9990TIP3    H229914   2.418   2.037   5.187
 9991TIP3   OH229915   7.710   7.303   3.570
 9991TIP3    H129916   7.692   7.356   3.648
 9991TIP3    H229917   7.658   7.344   3.501
 9992TIP3   OH229918   4.941   7.596   4.784
 9992TIP3    H129919   4.972   7.508   4.761
 9992TIP3    H229920   4.909   7.587   4.874
 9993TIP3   OH229921   5.976   0.716   3.945
 9993TIP3    H129922   5.991   0.805   3.977
 9993TIP3    H229923   6.039   0.706   3.873
 9994TIP3   OH229924   0.696   2.988   4.075
 9994TIP3    H129925   0.743   3.065   4.107
 9994TIP3    H229926   0.638   2.963   4.147
 9995TIP3   OH229927   6.576   5.070   0.641
 9995TIP3    H129928   6.660   5.061   0.686
 9995TIP3    H229929   6.515   5.101   0.708
 9996TIP3   OH229930   6.583   1.855   4.306
 9996TIP3    H129931   6.509   1.858   4.245
 9996TIP3    H229932   6.657   1.889   4.256
 9997TIP3   OH229933   6.854   4.252   1.944
 9997TIP3    H129934   6.833   4.205   1.863
 9997TIP3    H229935   6.933   4.209   1.976
 9998TIP3   OH229936   1.525   6.465   3.133
 9998TIP3    H129937   1.597   6.509   3.088
 9998TIP3    H229938   1.519   6.510   3.218
 9999TIP3   OH229939   3.440   3.027   4.197
 9999TIP3    H129940   3.366   3.081   4.227
 9999TIP3    H229941   3.517   3.080   4.219
10000TIP3   OH229942   3.046   3.795   2.538
10000TIP3    H129943   3.033   3.752   2.623
10000TIP3    H229944   2.970   3.853   2.529
10001TIP3   OH229945   4.549   7.388   2.882
10001TIP3    H129946   4.590   7.359   2.963
10001TIP3    H229947   4.489   7.317   2.859
10002TIP3   OH229948   5.535   0.307   5.289
10002TIP3    H129949   5.462   0.368   5.305
10002TIP3    H229950   5.528   0.242   5.359
10003TIP3   OH229951   8.293   1.641   3.680
10003TIP3    H129952   8.229   1.570   3.683
10003TIP3    H229953   8.333   1.642   3.767
10004TIP3   OH229954   5.593   0.195   3.062
10004TIP3    H129955   5.638   0.116   3.031
10004TIP3    H229956   5.563   0.173   3.150
10005TIP3   OH229957   3.807   4.455   1.937
10005TIP3    H129958   3.878   4.390   1.939
10005TIP3    H229959   3.758   4.439   2.018
10006TIP3   OH229960   4.761   2.073   0.351
10006TIP3    H129961   4.759   2.082   0.256
10006TIP3    H229962   4.742   1.981   0.367
10007TIP3   OH229963   0.819   6.129   0.218
10007TIP3    H129964   0.730   6.160   0.235
10007TIP3    H229965   0.808   6.053   0.161
10008TIP3   OH229966   5.996   7.598   1.981
10008TIP3    H129967   6.091   7.592   1.970
10008TIP3    H229968   5.979   7.554   2.064
10009TIP3   OH229969   1.234   4.666   0.769
10009TIP3    H129970   1.268   4.579   0.751
10009TIP3    H229971   1.277   4.693   0.850
10010TIP3   OH229972   3.787   0.929   1.885
10010TIP3    H129973   3.857   0.895   1.829
10010TIP3    H229974   3.791   0.875   1.964
10011TIP3   OH229975   4.477   2.158   1.888
10011TIP3    H129976   4.572   2.148   1.892
10011TIP3    H229977   4.461   2.247   1.919
10012TIP3   OH229978   2.852   1.044   2.723
10012TIP3    H129979   2.832   0.994   2.802
10012TIP3    H229980   2.797   1.122   2.729
10013TIP3   OH229981   2.817   2.784   4.161
10013TIP3    H129982   2.883   2.758   4.226
10013TIP3    H229983   2.828   2.720   4.090
10014TIP3   OH229984   5.799   2.679   5.810
10014TIP3    H129985   5.801   2.660   5.716
10014TIP3    H229986   5.706   2.689   5.831
10015TIP3   OH229987   0.359   5.290   5.353
10015TIP3    H129988   0.399   5.231   5.417
10015TIP3    H229989   0.304   5.233   5.300
10016TIP3   OH229990   8.132   0.796   2.207
10016TIP3    H129991   8.072   0.868   2.224
10016TIP3    H229992   8.179   0.822   2.129
10017TIP3   OH229993   1.798   0.970   4.782
10017TIP3    H129994   1.823   0.965   4.690
10017TIP3    H229995   1.770   0.881   4.805
10018TIP3   OH229996   8.078   5.334   3.459
10018TIP3    H129997   8.062   5.382   3.378
10018TIP3    H229998   8.089   5.402   3.526
10019TIP3   OH229999   7.971   0.285   6.645
10019TIP3    H130000   7.973   0.242   6.730
10019TIP3    H230001   7.965   0.378   6.665
10020TIP3   OH230002   6.356   3.329   5.357
10020TIP3    H130003   6.424   3.270   5.325
10020TIP3    H230004   6.385   3.352   5.446
10021TIP3   OH230005   1.563   1.957   2.403
10021TIP3    H130006   1.632   1.910   2.355
10021TIP3    H230007   1.483   1.936   2.355
10022TIP3   OH230008   2.030   1.405   5.420
10022TIP3    H130009   2.001   1.396   5.511
10022TIP3    H230010   1.965   1.357   5.369
10023TIP3   OH230011   7.251   7.526   2.990
10023TIP3    H130012   7.321   7.573   2.944
10023TIP3    H230013   7.214   7.468   2.923
10024TIP3   OH230014   2.596   5.215   1.833
10024TIP3    H130015   2.657   5.265   1.887
10024TIP3    H230016   2.651   5.172   1.768
10025TIP3   OH230017   4.951   2.438   6.698
10025TIP3    H130018   5.014   2.368   6.687
10025TIP3    H230019   4.886   2.403   6.760
10026TIP3   OH230020   5.214   5.208   4.643
10026TIP3    H130021   5.197   5.296   4.609
10026TIP3    H230022   5.284   5.174   4.589
10027TIP3   OH230023   3.380   2.082   0.914
10027TIP3    H130024   3.449   2.034   0.960
10027TIP3    H230025   3.303   2.024   0.920
10028TIP3   OH230026   0.914   4.048   3.697
10028TIP3    H130027   0.875   4.075   3.780
10028TIP3    H230028   0.908   3.952   3.697
10029TIP3   OH230029   5.813   2.500   2.377
10029TIP3    H130030   5.744   2.543   2.427
10029TIP3    H230031   5.875   2.570   2.355
10030TIP3   OH230032   1.465   3.752   3.259
10030TIP3    H130033   1.435   3.674   3.213
10030TIP3    H230034   1.560   3.743   3.263
10031TIP3   OH230035   2.570   1.906   2.753
10031TIP3    H130036   2.534   1.895   2.841
10031TIP3    H230037   2.598   1.998   2.750
10032TIP3   OH230038   3.116   2.445   0.546
10032TIP3    H130039   3.086   2.395   0.622
10032TIP3    H230040   3.210   2.429   0.542
10033TIP3   OH230041   6.383   2.982   0.903
10033TIP3    H130042   6.460   3.032   0.875
10033TIP3    H230043   6.398   2.967   0.996
10034TIP3   OH230044   0.473   2.652   6.057
10034TIP3    H130045   0.454   2.576   6.111
10034TIP3    H230046   0.551   2.691   6.096
10035TIP3   OH230047   5.316   6.424   1.661
10035TIP3    H130048   5.324   6.507   1.707
10035TIP3    H230049   5.385   6.426   1.595
10036TIP3   OH230050   6.469   1.165   4.326
10036TIP3    H130051   6.383   1.130   4.304
10036TIP3    H230052   6.530   1.116   4.271
10037TIP3   OH230053   6.596   1.639   3.530
10037TIP3    H130054   6.600   1.579   3.455
10037TIP3    H230055   6.643   1.593   3.600
10038TIP3   OH230056   5.169   6.962   1.075
10038TIP3    H130057   5.155   6.874   1.040
10038TIP3    H230058   5.144   6.955   1.167
10039TIP3   OH230059   6.090   0.859   0.198
10039TIP3    H130060   6.097   0.929   0.132
10039TIP3    H230061   6.058   0.904   0.277
10040TIP3   OH230062   7.928   4.292   0.184
10040TIP3    H130063   7.929   4.225   0.252
10040TIP3    H230064   7.941   4.244   0.102
10041TIP3   OH230065   2.723   5.066   5.269
10041TIP3    H130066   2.635   5.028   5.272
10041TIP3    H230067   2.713   5.153   5.309
10042TIP3   OH230068   5.577   1.926   6.490
10042TIP3    H130069   5.598   1.958   6.578
10042TIP3    H230070   5.634   1.976   6.432
10043TIP3   OH230071   6.670   5.493   3.883
10043TIP3    H130072   6.617   5.418   3.855
10043TIP3    H230073   6.737   5.501   3.815
10044TIP3   OH230074   2.006   1.954   2.949
10044TIP3    H130075   2.095   1.923   2.965
10044TIP3    H230076   1.991   2.018   3.019
10045TIP3   OH230077   3.430   6.605   6.307
10045TIP3    H130078   3.353   6.548   6.306
10045TIP3    H230079   3.396   6.693   6.295
10046TIP3   OH230080   7.458   7.248   5.584
10046TIP3    H130081   7.476   7.167   5.536
10046TIP3    H230082   7.481   7.318   5.522
10047TIP3   OH230083   6.100   6.477   1.629
10047TIP3    H130084   6.110   6.539   1.701
10047TIP3    H230085   6.093   6.392   1.671
10048TIP3   OH230086   1.049   6.420   3.479
10048TIP3    H130087   0.998   6.469   3.414
10048TIP3    H230088   0.996   6.425   3.559
10049TIP3   OH230089   4.301   0.269   3.124
10049TIP3    H130090   4.327   0.361   3.136
10049TIP3    H230091   4.316   0.229   3.210
10050TIP3   OH230092   2.330   6.115   3.896
10050TIP3    H130093   2.250   6.065   3.881
10050TIP3    H230094   2.399   6.048   3.900
10051TIP3   OH230095   0.087   1.744   4.378
10051TIP3    H130096  -0.004   1.731   4.351
10051TIP3    H230097   0.138   1.689   4.318
10052TIP3   OH230098   4.498   5.917   2.685
10052TIP3    H130099   4.515   5.942   2.594
10052TIP3    H230100   4.573   5.952   2.733
10053TIP3   OH230101   1.312   4.307   5.479
10053TIP3    H130102   1.383   4.371   5.476
10053TIP3    H230103   1.349   4.229   5.438
10054TIP3   OH230104   7.069   4.957   6.449
10054TIP3    H130105   7.043   4.866   6.431
10054TIP3    H230106   7.047   5.004   6.369
10055TIP3   OH230107   0.211   2.808   5.085
10055TIP3    H130108   0.248   2.801   5.173
10055TIP3    H230109   0.163   2.891   5.086
10056TIP3   OH230110   6.623   6.257   5.709
10056TIP3    H130111   6.598   6.345   5.739
10056TIP3    H230112   6.699   6.272   5.653
10057TIP3   OH230113   3.627   7.263   1.791
10057TIP3    H130114   3.670   7.206   1.727
10057TIP3    H230115   3.640   7.219   1.875
10058TIP3   OH230116   6.354   3.712   6.740
10058TIP3    H130117   6.350   3.632   6.688
10058TIP3    H230118   6.425   3.696   6.802
10059TIP3   OH230119   7.996   4.207   2.047
10059TIP3    H130120   7.962   4.297   2.052
10059TIP3    H230121   8.069   4.206   2.109
10060TIP3   OH230122   8.246   0.036   5.303
10060TIP3    H130123   8.159   0.005   5.277
10060TIP3    H230124   8.269   0.101   5.236
10061TIP3   OH230125   8.026   5.945   0.551
10061TIP3    H130126   8.058   5.908   0.468
10061TIP3    H230127   8.050   6.037   0.547
10062TIP3   OH230128   3.650   3.969   3.158
10062TIP3    H130129   3.659   4.039   3.222
10062TIP3    H230130   3.609   3.897   3.206
10063TIP3   OH230131   2.587   3.604   4.839
10063TIP3    H130132   2.622   3.624   4.752
10063TIP3    H230133   2.604   3.683   4.891
10064TIP3   OH230134   2.125   0.984   5.771
10064TIP3    H130135   2.057   1.031   5.819
10064TIP3    H230136   2.135   1.034   5.690
10065TIP3   OH230137   0.027   7.286   1.364
10065TIP3    H130138  -0.045   7.282   1.300
10065TIP3    H230139   0.106   7.288   1.310
10066TIP3   OH230140   7.227   4.180   4.327
10066TIP3    H130141   7.290   4.166   4.397
10066TIP3    H230142   7.168   4.247   4.360
10067TIP3   OH230143   0.082   0.882   2.834
10067TIP3    H130144   0.070   0.796   2.874
10067TIP3    H230145   0.007   0.892   2.775
10068TIP3   OH230146   4.632   5.562   4.056
10068TIP3    H130147   4.600   5.479   4.021
10068TIP3    H230148   4.647   5.545   4.149
10069TIP3   OH230149   6.702   5.111   6.500
10069TIP3    H130150   6.658   5.187   6.462
10069TIP3    H230151   6.631   5.058   6.537
10070TIP3   OH230152   2.250   1.986   6.084
10070TIP3    H130153   2.292   2.062   6.123
10070TIP3    H230154   2.254   1.918   6.152
10071TIP3   OH230155   2.317   6.969   3.238
10071TIP3    H130156   2.323   6.976   3.143
10071TIP3    H230157   2.406   6.948   3.266
10072TIP3   OH230158   7.697   3.609   3.300
10072TIP3    H130159   7.649   3.689   3.323
10072TIP3    H230160   7.663   3.585   3.214
10073TIP3   OH230161   0.988   3.696   3.893
10073TIP3    H130162   0.972   3.606   3.921
10073TIP3    H230163   1.065   3.724   3.942
10074TIP3   OH230164   1.869   5.371   4.640
10074TIP3    H130165   1.934   5.408   4.581
10074TIP3    H230166   1.852   5.284   4.605
10075TIP3   OH230167   4.124   1.028   4.039
10075TIP3    H130168   4.086   0.948   4.077
10075TIP3    H230169   4.076   1.041   3.958
10076TIP3   OH230170   1.388   2.811   5.957
10076TIP3    H130171   1.309   2.788   6.006
10076TIP3    H230172   1.362   2.805   5.865
10077TIP3   OH230173   8.185   1.526   2.806
10077TIP3    H130174   8.104   1.574   2.827
10077TIP3    H230175   8.226   1.511   2.891
10078TIP3   OH230176   7.647   4.978   3.455
10078TIP3    H130177   7.623   4.969   3.548
10078TIP3    H230178   7.717   5.042   3.455
10079TIP3   OH230179   1.075   5.763   5.252
10079TIP3    H130180   1.106   5.727   5.335
10079TIP3    H230181   0.993   5.806   5.274
10080TIP3   OH230182   3.462   5.317   3.119
10080TIP3    H130183   3.485   5.301   3.028
10080TIP3    H230184   3.484   5.409   3.133
10081TIP3   OH230185   4.651   4.172   2.947
10081TIP3    H130186   4.597   4.102   2.983
10081TIP3    H230187   4.625   4.251   2.995
10082TIP3   OH230188   5.042   2.036   1.845
10082TIP3    H130189   5.063   1.973   1.776
10082TIP3    H230190   5.114   2.028   1.908
10083TIP3   OH230191   1.195   3.362   4.165
10083TIP3    H130192   1.221   3.425   4.232
10083TIP3    H230193   1.173   3.283   4.212
10084TIP3   OH230194   5.482   4.536   0.442
10084TIP3    H130195   5.481   4.545   0.346
10084TIP3    H230196   5.537   4.607   0.473
10085TIP3   OH230197   6.033   6.474   0.088
10085TIP3    H130198   5.975   6.462   0.163
10085TIP3    H230199   6.102   6.408   0.100
10086TIP3   OH230200   0.051   2.171   3.140
10086TIP3    H130201   0.137   2.145   3.173
10086TIP3    H230202   0.016   2.230   3.207
10087TIP3   OH230203   5.944   4.044   0.420
10087TIP3    H130204   5.998   4.028   0.498
10087TIP3    H230205   6.002   4.091   0.361
10088TIP3   OH230206   3.636   3.220   4.175
10088TIP3    H130207   3.546   3.249   4.162
10088TIP3    H230208   3.687   3.301   4.178
10089TIP3   OH230209   3.770   3.888   6.408
10089TIP3    H130210   3.786   3.926   6.322
10089TIP3    H230211   3.719   3.809   6.390
10090TIP3   OH230212   5.963   0.624   2.861
10090TIP3    H130213   5.964   0.687   2.933
10090TIP3    H230214   5.887   0.650   2.809
10091TIP3   OH230215   7.835   0.835   0.631
10091TIP3    H130216   7.807   0.841   0.540
10091TIP3    H230217   7.922   0.875   0.631
10092TIP3   OH230218   6.730   4.688   3.664
10092TIP3    H130219   6.705   4.689   3.756
10092TIP3    H230220   6.821   4.658   3.664
10093TIP3   OH230221   7.460   7.822   4.293
10093TIP3    H130222   7.549   7.826   4.258
10093TIP3    H230223   7.405   7.853   4.222
10094TIP3   OH230224   2.776   5.002   0.236
10094TIP3    H130225   2.835   4.940   0.279
10094TIP3    H230226   2.693   4.956   0.231
10095TIP3   OH230227   1.092   5.538   4.207
10095TIP3    H130228   1.160   5.543   4.275
10095TIP3    H230229   1.121   5.597   4.139
10096TIP3   OH230230   5.298   2.184   3.517
10096TIP3    H130231   5.350   2.126   3.573
10096TIP3    H230232   5.288   2.134   3.435
10097TIP3   OH230233   2.401   7.589   3.330
10097TIP3    H130234   2.347   7.536   3.272
10097TIP3    H230235   2.490   7.557   3.317
10098TIP3   OH230236   2.463   7.305   2.229
10098TIP3    H130237   2.378   7.347   2.246
10098TIP3    H230238   2.510   7.311   2.312
10099TIP3   OH230239   2.771   3.150   0.537
10099TIP3    H130240   2.751   3.057   0.546
10099TIP3    H230241   2.793   3.178   0.626
10100TIP3   OH230242   6.031   1.090   1.516
10100TIP3    H130243   6.059   1.043   1.595
10100TIP3    H230244   6.037   1.024   1.447
10101TIP3   OH230245   0.213   1.804   1.352
10101TIP3    H130246   0.163   1.733   1.312
10101TIP3    H230247   0.160   1.833   1.426
10102TIP3   OH230248   5.972   5.860   1.313
10102TIP3    H130249   5.967   5.771   1.349
10102TIP3    H230250   6.026   5.852   1.235
10103TIP3   OH230251   0.348   3.378   4.860
10103TIP3    H130252   0.314   3.428   4.786
10103TIP3    H230253   0.356   3.442   4.931
10104TIP3   OH230254   6.890   1.529   5.994
10104TIP3    H130255   6.952   1.513   6.066
10104TIP3    H230256   6.804   1.513   6.033
10105TIP3   OH230257   0.771   2.205   4.496
10105TIP3    H130258   0.762   2.110   4.497
10105TIP3    H230259   0.698   2.236   4.551
10106TIP3   OH230260   4.925   1.755   6.692
10106TIP3    H130261   4.908   1.718   6.779
10106TIP3    H230262   4.923   1.850   6.705
10107TIP3   OH230263   2.539   4.732   6.752
10107TIP3    H130264   2.621   4.768   6.784
10107TIP3    H230265   2.475   4.802   6.763
10108TIP3   OH230266   1.110   4.590   5.845
10108TIP3    H130267   1.085   4.635   5.926
10108TIP3    H230268   1.183   4.533   5.870
10109TIP3   OH230269   3.251   6.681   5.155
10109TIP3    H130270   3.203   6.737   5.093
10109TIP3    H230271   3.298   6.742   5.212
10110TIP3   OH230272   0.326   7.308   0.427
10110TIP3    H130273   0.326   7.347   0.515
10110TIP3    H230274   0.414   7.271   0.417
10111TIP3   OH230275   1.504   1.373   3.099
10111TIP3    H130276   1.415   1.344   3.074
10111TIP3    H230277   1.557   1.294   3.089
10112TIP3   OH230278   7.243   4.305   2.209
10112TIP3    H130279   7.265   4.358   2.286
10112TIP3    H230280   7.326   4.266   2.182
10113TIP3   OH230281   5.658   2.235   3.664
10113TIP3    H130282   5.605   2.207   3.590
10113TIP3    H230283   5.735   2.179   3.661
10114TIP3   OH230284   8.120   6.080   2.259
10114TIP3    H130285   8.169   6.149   2.215
10114TIP3    H230286   8.183   6.043   2.322
10115TIP3   OH230287   2.775   0.097   2.241
10115TIP3    H130288   2.723   0.071   2.317
10115TIP3    H230289   2.719   0.078   2.166
10116TIP3   OH230290   1.110   3.946   2.281
10116TIP3    H130291   1.200   3.974   2.263
10116TIP3    H230292   1.065   3.953   2.196
10117TIP3   OH230293   5.269   7.774   3.382
10117TIP3    H130294   5.205   7.841   3.357
10117TIP3    H230295   5.313   7.752   3.301
10118TIP3   OH230296   3.358   2.644   6.320
10118TIP3    H130297   3.264   2.640   6.335
10118TIP3    H230298   3.367   2.641   6.225
10119TIP3   OH230299   3.000   2.303   6.094
10119TIP3    H130300   3.030   2.253   6.018
10119TIP3    H230301   3.037   2.390   6.082
10120TIP3   OH230302   5.562   4.597   2.951
10120TIP3    H130303   5.499   4.622   2.883
10120TIP3    H230304   5.508   4.573   3.026
10121TIP3   OH230305   0.807   5.224   5.219
10121TIP3    H130306   0.778   5.262   5.302
10121TIP3    H230307   0.725   5.203   5.173
10122TIP3   OH230308   1.731   5.143   0.823
10122TIP3    H130309   1.787   5.156   0.747
10122TIP3    H230310   1.685   5.226   0.834
10123TIP3   OH230311   6.775   5.774   6.504
10123TIP3    H130312   6.790   5.828   6.582
10123TIP3    H230313   6.860   5.733   6.486
10124TIP3   OH230314   5.282   7.476   2.833
10124TIP3    H130315   5.332   7.549   2.870
10124TIP3    H230316   5.286   7.489   2.739
10125TIP3   OH230317   6.061   7.456   5.142
10125TIP3    H130318   6.099   7.406   5.214
10125TIP3    H230319   6.021   7.390   5.085
10126TIP3   OH230320   6.409   4.558   3.438
10126TIP3    H130321   6.482   4.507   3.404
10126TIP3    H230322   6.380   4.611   3.364
10127TIP3   OH230323   4.217   0.688   3.548
10127TIP3    H130324   4.149   0.697   3.614
10127TIP3    H230325   4.288   0.641   3.592
10128TIP3   OH230326   5.938   4.428   1.386
10128TIP3    H130327   5.855   4.384   1.369
10128TIP3    H230328   5.973   4.385   1.464
10129TIP3   OH230329   0.219   7.461   5.344
10129TIP3    H130330   0.314   7.449   5.345
10129TIP3    H230331   0.186   7.394   5.285
10130TIP3   OH230332   7.500   3.669   1.424
10130TIP3    H130333   7.560   3.679   1.498
10130TIP3    H230334   7.460   3.583   1.437
10131TIP3   OH230335   7.700   3.286   0.157
10131TIP3    H130336   7.788   3.249   0.166
10131TIP3    H230337   7.708   3.374   0.195
10132TIP3   OH230338   0.098   2.102   6.778
10132TIP3    H130339   0.139   2.183   6.749
10132TIP3    H230340   0.005   2.113   6.757
10133TIP3   OH230341   7.234   0.608   2.841
10133TIP3    H130342   7.303   0.674   2.847
10133TIP3    H230343   7.271   0.539   2.786
10134TIP3   OH230344   0.336   3.891   6.380
10134TIP3    H130345   0.322   3.816   6.438
10134TIP3    H230346   0.249   3.931   6.371
10135TIP3   OH230347   6.108   4.501   4.808
10135TIP3    H130348   6.153   4.442   4.747
10135TIP3    H230349   6.099   4.583   4.760
10136TIP3   OH230350   7.907   4.305   4.495
10136TIP3    H130351   7.932   4.354   4.573
10136TIP3    H230352   7.893   4.372   4.428
10137TIP3   OH230353   7.808   3.215   2.449
10137TIP3    H130354   7.886   3.197   2.501
10137TIP3    H230355   7.833   3.287   2.392
10138TIP3   OH230356   2.491   4.635   6.234
10138TIP3    H130357   2.520   4.628   6.325
10138TIP3    H230358   2.519   4.722   6.206
10139TIP3   OH230359   1.097   4.164   4.707
10139TIP3    H130360   1.019   4.205   4.670
10139TIP3    H230361   1.064   4.112   4.780
10140TIP3   OH230362   6.872   2.546   2.445
10140TIP3    H130363   6.928   2.470   2.461
10140TIP3    H230364   6.908   2.614   2.501
10141TIP3   OH230365   4.298   5.199   2.391
10141TIP3    H130366   4.382   5.237   2.417
10141TIP3    H230367   4.233   5.248   2.441
10142TIP3   OH230368   4.693   1.731   0.656
10142TIP3    H130369   4.726   1.804   0.709
10142TIP3    H230370   4.601   1.724   0.680
10143TIP3   OH230371   7.313   7.297   3.582
10143TIP3    H130372   7.340   7.205   3.584
10143TIP3    H230373   7.377   7.340   3.525
10144TIP3   OH230374   4.570   7.223   2.139
10144TIP3    H130375   4.589   7.282   2.212
10144TIP3    H230376   4.579   7.278   2.061
10145TIP3   OH230377   7.564   0.175   6.721
10145TIP3    H130378   7.577   0.179   6.816
10145TIP3    H230379   7.615   0.098   6.694
10146TIP3   OH230380   6.691   6.966   2.153
10146TIP3    H130381   6.712   6.999   2.240
10146TIP3    H230382   6.649   7.039   2.108
10147TIP3   OH230383   4.545   3.405   1.673
10147TIP3    H130384   4.609   3.358   1.619
10147TIP3    H230385   4.571   3.386   1.763
10148TIP3   OH230386   3.886   2.970   3.100
10148TIP3    H130387   3.925   2.889   3.067
10148TIP3    H230388   3.792   2.951   3.102
10149TIP3   OH230389   0.760   0.586   6.323
10149TIP3    H130390   0.669   0.557   6.328
10149TIP3    H230391   0.759   0.657   6.259
10150TIP3   OH230392   7.909   5.142   0.316
10150TIP3    H130393   7.847   5.105   0.254
10150TIP3    H230394   7.866   5.132   0.401
10151TIP3   OH230395   7.568   1.526   1.024
10151TIP3    H130396   7.596   1.595   0.963
10151TIP3    H230397   7.642   1.514   1.083
10152TIP3   OH230398   2.585   5.410   3.553
10152TIP3    H130399   2.625   5.495   3.535
10152TIP3    H230400   2.657   5.348   3.542
10153TIP3   OH230401   1.566   4.477   0.433
10153TIP3    H130402   1.642   4.471   0.376
10153TIP3    H230403   1.580   4.408   0.498
10154TIP3   OH230404   4.289   2.501   4.819
10154TIP3    H130405   4.230   2.527   4.891
10154TIP3    H230406   4.233   2.453   4.758
10155TIP3   OH230407   6.746   4.142   5.442
10155TIP3    H130408   6.822   4.197   5.465
10155TIP3    H230409   6.678   4.171   5.502
10156TIP3   OH230410   4.651   4.600   2.174
10156TIP3    H130411   4.668   4.516   2.218
10156TIP3    H230412   4.734   4.647   2.181
10157TIP3   OH230413   6.161   6.655   2.713
10157TIP3    H130414   6.228   6.669   2.646
10157TIP3    H230415   6.158   6.737   2.761
10158TIP3   OH230416   3.318   0.841   2.087
10158TIP3    H130417   3.356   0.769   2.036
10158TIP3    H230418   3.390   0.902   2.099
10159TIP3   OH230419   3.721   7.519   3.893
10159TIP3    H130420   3.805   7.487   3.925
10159TIP3    H230421   3.657   7.454   3.923
10160TIP3   OH230422   7.791   0.026   5.023
10160TIP3    H130423   7.840   0.063   4.949
10160TIP3    H230424   7.858   0.000   5.086
10161TIP3   OH230425   2.641   7.273   4.916
10161TIP3    H130426   2.611   7.345   4.971
10161TIP3    H230427   2.686   7.214   4.976
10162TIP3   OH230428   0.240   0.331   3.422
10162TIP3    H130429   0.164   0.371   3.463
10162TIP3    H230430   0.306   0.329   3.491
10163TIP3   OH230431   0.451   1.369   1.681
10163TIP3    H130432   0.507   1.301   1.718
10163TIP3    H230433   0.388   1.321   1.627
10164TIP3   OH230434   3.580   4.647   2.124
10164TIP3    H130435   3.500   4.597   2.110
10164TIP3    H230436   3.625   4.601   2.194
10165TIP3   OH230437   4.471   3.002   2.418
10165TIP3    H130438   4.440   3.050   2.494
10165TIP3    H230439   4.566   3.008   2.423
10166TIP3   OH230440   4.570   4.504   1.523
10166TIP3    H130441   4.549   4.585   1.477
10166TIP3    H230442   4.663   4.489   1.504
10167TIP3   OH230443   0.680   4.239   2.266
10167TIP3    H130444   0.705   4.260   2.356
10167TIP3    H230445   0.633   4.156   2.274
10168TIP3   OH230446   0.190   1.354   5.464
10168TIP3    H130447   0.101   1.351   5.429
10168TIP3    H230448   0.230   1.273   5.435
10169TIP3   OH230449   7.202   7.005   1.516
10169TIP3    H130450   7.297   7.019   1.523
10169TIP3    H230451   7.193   6.931   1.457
10170TIP3   OH230452   1.897   0.055   4.685
10170TIP3    H130453   1.843   0.134   4.682
10170TIP3    H230454   1.907   0.030   4.593
10171TIP3   OH230455   4.340   2.056   0.936
10171TIP3    H130456   4.418   2.020   0.978
10171TIP3    H230457   4.340   2.019   0.848
10172TIP3   OH230458   7.877   7.664   6.388
10172TIP3    H130459   7.947   7.658   6.453
10172TIP3    H230460   7.919   7.639   6.306
10173TIP3   OH230461   7.359   3.682   1.177
10173TIP3    H130462   7.432   3.697   1.238
10173TIP3    H230463   7.396   3.625   1.110
10174TIP3   OH230464   7.364   7.524   4.061
10174TIP3    H130465   7.361   7.471   3.982
10174TIP3    H230466   7.393   7.610   4.031
10175TIP3   OH230467   0.560   0.276   1.522
10175TIP3    H130468   0.513   0.276   1.439
10175TIP3    H230469   0.648   0.306   1.500
10176TIP3   OH230470   2.260   2.484   6.200
10176TIP3    H130471   2.184   2.542   6.189
10176TIP3    H230472   2.334   2.537   6.169
10177TIP3   OH230473   1.009   1.401   5.159
10177TIP3    H130474   1.084   1.424   5.214
10177TIP3    H230475   0.972   1.486   5.133
10178TIP3   OH230476   1.867   1.369   5.633
10178TIP3    H130477   1.844   1.428   5.705
10178TIP3    H230478   1.831   1.284   5.660
10179TIP3   OH230479   4.511   7.408   6.346
10179TIP3    H130480   4.421   7.376   6.340
10179TIP3    H230481   4.522   7.464   6.269
10180TIP3   OH230482   2.055   0.370   4.828
10180TIP3    H130483   2.094   0.345   4.744
10180TIP3    H230484   1.996   0.442   4.806
10181TIP3   OH230485   6.458   6.795   2.154
10181TIP3    H130486   6.527   6.848   2.113
10181TIP3    H230487   6.418   6.854   2.218
10182TIP3   OH230488   8.101   6.751   2.066
10182TIP3    H130489   8.077   6.735   2.157
10182TIP3    H230490   8.071   6.840   2.048
10183TIP3   OH230491   4.792   5.060   5.681
10183TIP3    H130492   4.884   5.034   5.689
10183TIP3    H230493   4.763   5.022   5.598
10184TIP3   OH230494   8.150   6.917   1.355
10184TIP3    H130495   8.166   6.974   1.280
10184TIP3    H230496   8.100   6.844   1.320
10185TIP3   OH230497   2.496   1.354   4.897
10185TIP3    H130498   2.528   1.378   4.810
10185TIP3    H230499   2.445   1.274   4.882
10186TIP3   OH230500   7.437   4.562   1.536
10186TIP3    H130501   7.456   4.478   1.577
10186TIP3    H230502   7.342   4.570   1.539
10187TIP3   OH230503   7.459   2.034   4.608
10187TIP3    H130504   7.504   1.951   4.594
10187TIP3    H230505   7.443   2.068   4.519
10188TIP3   OH230506   4.699   5.858   6.577
10188TIP3    H130507   4.622   5.900   6.540
10188TIP3    H230508   4.746   5.928   6.622
10189TIP3   OH230509   7.451   2.972   2.006
10189TIP3    H130510   7.360   2.990   1.983
10189TIP3    H230511   7.463   2.879   1.983
10190TIP3   OH230512   7.638   4.355   3.759
10190TIP3    H130513   7.581   4.311   3.822
10190TIP3    H230514   7.726   4.322   3.778
10191TIP3   OH230515   6.287   0.094   4.235
10191TIP3    H130516   6.223   0.062   4.172
10191TIP3    H230517   6.247   0.079   4.320
10192TIP3   OH230518   1.197   6.227   4.387
10192TIP3    H130519   1.106   6.237   4.416
10192TIP3    H230520   1.238   6.176   4.457
10193TIP3   OH230521   6.685   2.981   0.427
10193TIP3    H130522   6.641   2.914   0.479
10193TIP3    H230523   6.695   3.055   0.487
10194TIP3   OH230524   5.213   3.646   3.874
10194TIP3    H130525   5.289   3.675   3.825
10194TIP3    H230526   5.161   3.597   3.811
10195TIP3   OH230527   8.161   7.170   5.193
10195TIP3    H130528   8.152   7.075   5.185
10195TIP3    H230529   8.078   7.205   5.161
10196TIP3   OH230530   1.825   5.632   3.733
10196TIP3    H130531   1.828   5.724   3.760
10196TIP3    H230532   1.911   5.597   3.757
10197TIP3   OH230533   1.565   2.268   1.267
10197TIP3    H130534   1.602   2.290   1.182
10197TIP3    H230535   1.634   2.219   1.312
10198TIP3   OH230536   1.931   1.291   0.952
10198TIP3    H130537   1.940   1.232   0.877
10198TIP3    H230538   1.989   1.254   1.019
10199TIP3   OH230539   2.416   3.974   5.055
10199TIP3    H130540   2.338   3.965   5.110
10199TIP3    H230541   2.389   3.936   4.971
10200TIP3   OH230542   5.210   0.143   0.059
10200TIP3    H130543   5.292   0.176   0.095
10200TIP3    H230544   5.216   0.161  -0.035
10201TIP3   OH230545   2.140   0.152   6.134
10201TIP3    H130546   2.057   0.140   6.086
10201TIP3    H230547   2.208   0.135   6.068
10202TIP3   OH230548   4.508   3.754   0.794
10202TIP3    H130549   4.539   3.844   0.780
10202TIP3    H230550   4.431   3.747   0.738
10203TIP3   OH230551   7.747   3.873   3.752
10203TIP3    H130552   7.660   3.902   3.726
10203TIP3    H230553   7.804   3.901   3.680
10204TIP3   OH230554   6.288   4.079   3.649
10204TIP3    H130555   6.363   4.114   3.601
10204TIP3    H230556   6.298   3.984   3.643
10205TIP3   OH230557   8.018   0.425   5.071
10205TIP3    H130558   7.923   0.432   5.059
10205TIP3    H230559   8.054   0.493   5.014
10206TIP3   OH230560   3.081   2.327   3.784
10206TIP3    H130561   3.024   2.393   3.746
10206TIP3    H230562   3.161   2.331   3.732
10207TIP3   OH230563   2.387   2.753   5.672
10207TIP3    H130564   2.354   2.842   5.675
10207TIP3    H230565   2.387   2.730   5.579
10208TIP3   OH230566   4.068   2.048   5.981
10208TIP3    H130567   4.137   2.078   5.921
10208TIP3    H230568   4.075   2.105   6.057
10209TIP3   OH230569   0.177   7.046   2.164
10209TIP3    H130570   0.271   7.051   2.146
10209TIP3    H230571   0.145   7.135   2.146
10210TIP3   OH230572   0.613   6.384   1.260
10210TIP3    H130573   0.607   6.289   1.257
10210TIP3    H230574   0.704   6.403   1.239
10211TIP3   OH230575   8.209   2.205   2.892
10211TIP3    H130576   8.262   2.176   2.967
10211TIP3    H230577   8.235   2.296   2.879
10212TIP3   OH230578   2.536   1.337   1.329
10212TIP3    H130579   2.501   1.258   1.369
10212TIP3    H230580   2.490   1.409   1.372
10213TIP3   OH230581   4.901   1.715   1.100
10213TIP3    H130582   4.899   1.675   1.187
10213TIP3    H230583   4.970   1.781   1.106
10214TIP3   OH230584   2.690   1.283   0.053
10214TIP3    H130585   2.764   1.248   0.003
10214TIP3    H230586   2.725   1.298   0.141
10215TIP3   OH230587   5.639   3.132   5.847
10215TIP3    H130588   5.634   3.202   5.913
10215TIP3    H230589   5.706   3.161   5.786
10216TIP3   OH230590   1.714   1.009   1.506
10216TIP3    H130591   1.781   1.006   1.439
10216TIP3    H230592   1.687   0.918   1.517
10217TIP3   OH230593   1.250   7.126   5.603
10217TIP3    H130594   1.215   7.134   5.692
10217TIP3    H230595   1.286   7.212   5.584
10218TIP3   OH230596   5.256   2.437   2.501
10218TIP3    H130597   5.255   2.524   2.461
10218TIP3    H230598   5.270   2.454   2.595
10219TIP3   OH230599   3.967   1.644   3.890
10219TIP3    H130600   3.957   1.590   3.968
10219TIP3    H230601   4.053   1.621   3.855
10220TIP3   OH230602   2.443   6.340   2.339
10220TIP3    H130603   2.433   6.370   2.248
10220TIP3    H230604   2.531   6.366   2.364
10221TIP3   OH230605   7.171   7.411   5.039
10221TIP3    H130606   7.091   7.463   5.033
10221TIP3    H230607   7.160   7.342   4.974
10222TIP3   OH230608   2.002   2.371   4.343
10222TIP3    H130609   1.986   2.454   4.299
10222TIP3    H230610   2.063   2.393   4.413
10223TIP3   OH230611   8.206   4.813   5.566
10223TIP3    H130612   8.229   4.739   5.622
10223TIP3    H230613   8.186   4.884   5.627
10224TIP3   OH230614   7.360   6.934   4.882
10224TIP3    H130615   7.288   6.902   4.827
10224TIP3    H230616   7.383   6.859   4.937
10225TIP3   OH230617   3.315   2.159   4.986
10225TIP3    H130618   3.364   2.092   4.939
10225TIP3    H230619   3.254   2.109   5.041
10226TIP3   OH230620   4.256   3.647   2.431
10226TIP3    H130621   4.305   3.577   2.475
10226TIP3    H230622   4.216   3.605   2.356
10227TIP3   OH230623   0.103   5.629   3.674
10227TIP3    H130624   0.140   5.673   3.598
10227TIP3    H230625   0.158   5.657   3.747
10228TIP3   OH230626   1.646   2.173   6.477
10228TIP3    H130627   1.677   2.163   6.567
10228TIP3    H230628   1.726   2.183   6.426
10229TIP3   OH230629   8.284   1.673   3.177
10229TIP3    H130630   8.339   1.608   3.221
10229TIP3    H230631   8.283   1.748   3.237
10230TIP3   OH230632   4.928   0.844   4.279
10230TIP3    H130633   4.976   0.927   4.279
10230TIP3    H230634   4.995   0.778   4.258
10231TIP3   OH230635   0.114   3.931   3.034
10231TIP3    H130636   0.093   3.988   2.960
10231TIP3    H230637   0.030   3.892   3.059
10232TIP3   OH230638   1.782   6.980   3.368
10232TIP3    H130639   1.815   6.927   3.439
10232TIP3    H230640   1.853   7.041   3.347
10233TIP3   OH230641   2.034   3.978   2.334
10233TIP3    H130642   1.962   3.916   2.324
10233TIP3    H230643   2.104   3.929   2.377
10234TIP3   OH230644   2.083   0.631   6.025
10234TIP3    H130645   2.058   0.539   6.040
10234TIP3    H230646   2.026   0.659   5.954
10235TIP3   OH230647   4.423   7.550   0.868
10235TIP3    H130648   4.378   7.485   0.815
10235TIP3    H230649   4.506   7.508   0.892
10236TIP3   OH230650   1.944   3.175   2.826
10236TIP3    H130651   2.039   3.190   2.827
10236TIP3    H230652   1.907   3.260   2.805
10237TIP3   OH230653   4.239   4.900   1.108
10237TIP3    H130654   4.260   4.991   1.128
10237TIP3    H230655   4.223   4.859   1.193
10238TIP3   OH230656   5.533   0.241   1.343
10238TIP3    H130657   5.571   0.158   1.313
10238TIP3    H230658   5.479   0.217   1.417
10239TIP3   OH230659   5.731   0.561   4.029
10239TIP3    H130660   5.811   0.612   4.016
10239TIP3    H230661   5.665   0.607   3.978
10240TIP3   OH230662   8.220   6.400   6.010
10240TIP3    H130663   8.192   6.309   6.019
10240TIP3    H230664   8.177   6.430   5.930
10241TIP3   OH230665   4.073   3.364   2.539
10241TIP3    H130666   4.012   3.438   2.542
10241TIP3    H230667   4.065   3.330   2.449
10242TIP3   OH230668   7.873   1.780   2.154
10242TIP3    H130669   7.912   1.732   2.081
10242TIP3    H230670   7.876   1.719   2.228
10243TIP3   OH230671   0.052   5.924   0.915
10243TIP3    H130672   0.141   5.921   0.950
10243TIP3    H230673   0.024   5.833   0.914
10244TIP3   OH230674   1.074   5.755   3.637
10244TIP3    H130675   1.148   5.700   3.662
10244TIP3    H230676   1.108   5.813   3.568
10245TIP3   OH230677   1.882   7.658   2.322
10245TIP3    H130678   1.829   7.699   2.390
10245TIP3    H230679   1.819   7.610   2.268
10246TIP3   OH230680   1.143   5.667   5.497
10246TIP3    H130681   1.066   5.617   5.467
10246TIP3    H230682   1.147   5.649   5.591
10247TIP3   OH230683   3.542   2.026   2.012
10247TIP3    H130684   3.503   1.947   2.048
10247TIP3    H230685   3.518   2.096   2.074
10248TIP3   OH230686   1.118   3.080   6.342
10248TIP3    H130687   1.046   3.066   6.280
10248TIP3    H230688   1.180   3.009   6.324
10249TIP3   OH230689   4.281   2.500   2.958
10249TIP3    H130690   4.289   2.455   2.873
10249TIP3    H230691   4.298   2.592   2.938
10250TIP3   OH230692   4.504   2.348   0.336
10250TIP3    H130693   4.449   2.372   0.411
10250TIP3    H230694   4.593   2.372   0.363
10251TIP3   OH230695   3.474   4.979   5.025
10251TIP3    H130696   3.421   4.972   5.104
10251TIP3    H230697   3.547   4.919   5.040
10252TIP3   OH230698   2.904   5.745   2.474
10252TIP3    H130699   2.859   5.819   2.515
10252TIP3    H230700   2.842   5.713   2.409
10253TIP3   OH230701   2.663   7.032   2.198
10253TIP3    H130702   2.655   7.126   2.182
10253TIP3    H230703   2.742   7.007   2.151
10254TIP3   OH230704   7.134   5.736   5.148
10254TIP3    H130705   7.102   5.684   5.074
10254TIP3    H230706   7.077   5.813   5.150
10255TIP3   OH230707   5.890   0.296   0.823
10255TIP3    H130708   5.860   0.294   0.732
10255TIP3    H230709   5.938   0.378   0.830
10256TIP3   OH230710   5.169   7.677   0.426
10256TIP3    H130711   5.252   7.668   0.378
10256TIP3    H230712   5.168   7.768   0.456
10257TIP3   OH230713   7.862   5.230   2.297
10257TIP3    H130714   7.890   5.319   2.278
10257TIP3    H230715   7.914   5.175   2.238
10258TIP3   OH230716   0.260   7.098   4.895
10258TIP3    H130717   0.340   7.135   4.932
10258TIP3    H230718   0.210   7.070   4.972
10259TIP3   OH230719   5.954   7.769   6.179
10259TIP3    H130720   5.975   7.725   6.097
10259TIP3    H230721   5.892   7.838   6.154
10260TIP3   OH230722   2.008   3.158   4.433
10260TIP3    H130723   2.092   3.194   4.403
10260TIP3    H230724   1.942   3.215   4.393
10261TIP3   OH230725   0.878   5.537   0.753
10261TIP3    H130726   0.808   5.472   0.761
10261TIP3    H230727   0.883   5.555   0.659
10262TIP3   OH230728   2.122   0.740   2.357
10262TIP3    H130729   2.081   0.814   2.402
10262TIP3    H230730   2.095   0.663   2.407
10263TIP3   OH230731   3.333   1.257   1.402
10263TIP3    H130732   3.326   1.224   1.313
10263TIP3    H230733   3.309   1.183   1.458
10264TIP3   OH230734   7.775   2.174   2.368
10264TIP3    H130735   7.744   2.112   2.434
10264TIP3    H230736   7.699   2.190   2.312
10265TIP3   OH230737   1.187   2.938   2.901
10265TIP3    H130738   1.128   2.977   2.965
10265TIP3    H230739   1.275   2.950   2.938
10266TIP3   OH230740   5.201   3.725   0.384
10266TIP3    H130741   5.266   3.760   0.445
10266TIP3    H230742   5.120   3.771   0.407
10267TIP3   OH230743   5.527   5.850   6.700
10267TIP3    H130744   5.539   5.791   6.625
10267TIP3    H230745   5.616   5.869   6.730
10268TIP3   OH230746   5.525   6.197   4.456
10268TIP3    H130747   5.501   6.280   4.415
10268TIP3    H230748   5.506   6.209   4.549
10269TIP3   OH230749   0.532   1.868   3.997
10269TIP3    H130750   0.522   1.782   3.956
10269TIP3    H230751   0.461   1.920   3.960
10270TIP3   OH230752   7.504   0.082   4.903
10270TIP3    H130753   7.517  -0.011   4.884
10270TIP3    H230754   7.572   0.103   4.966
10271TIP3   OH230755   2.059   0.445   3.516
10271TIP3    H130756   2.021   0.531   3.537
10271TIP3    H230757   2.128   0.433   3.581
10272TIP3   OH230758   4.832   5.179   5.149
10272TIP3    H130759   4.757   5.239   5.155
10272TIP3    H230760   4.837   5.139   5.236
10273TIP3   OH230761   2.747   0.786   6.176
10273TIP3    H130762   2.814   0.781   6.108
10273TIP3    H230763   2.718   0.877   6.175
10274TIP3   OH230764   8.230   1.771   0.026
10274TIP3    H130765   8.151   1.823   0.040
10274TIP3    H230766   8.237   1.717   0.105
10275TIP3   OH230767   0.319   6.558   6.771
10275TIP3    H130768   0.314   6.480   6.715
10275TIP3    H230769   0.409   6.559   6.803
10276TIP3   OH230770   4.524   7.264   1.821
10276TIP3    H130771   4.591   7.258   1.753
10276TIP3    H230772   4.543   7.346   1.867
10277TIP3   OH230773   2.631   4.259   5.971
10277TIP3    H130774   2.573   4.291   6.039
10277TIP3    H230775   2.662   4.175   6.004
10278TIP3   OH230776   5.899   5.328   1.176
10278TIP3    H130777   5.864   5.358   1.092
10278TIP3    H230778   5.973   5.273   1.153
10279TIP3   OH230779   1.066   7.811   2.682
10279TIP3    H130780   1.033   7.852   2.762
10279TIP3    H230781   1.094   7.723   2.709
10280TIP3   OH230782   4.545   3.081   6.101
10280TIP3    H130783   4.501   3.051   6.181
10280TIP3    H230784   4.616   3.137   6.132
10281TIP3   OH230785   2.446   3.403   3.718
10281TIP3    H130786   2.351   3.387   3.722
10281TIP3    H230787   2.454   3.495   3.695
10282TIP3   OH230788   4.291   1.308   4.820
10282TIP3    H130789   4.357   1.374   4.838
10282TIP3    H230790   4.260   1.280   4.906
10283TIP3   OH230791   0.393   1.974   1.500
10283TIP3    H130792   0.419   2.051   1.449
10283TIP3    H230793   0.342   1.920   1.439
10284TIP3   OH230794   7.249   3.316   4.538
10284TIP3    H130795   7.227   3.391   4.594
10284TIP3    H230796   7.303   3.353   4.468
10285TIP3   OH230797   4.280   5.223   2.939
10285TIP3    H130798   4.347   5.157   2.918
10285TIP3    H230799   4.240   5.244   2.855
10286TIP3   OH230800   2.325   6.588   0.788
10286TIP3    H130801   2.364   6.643   0.720
10286TIP3    H230802   2.239   6.626   0.803
10287TIP3   OH230803   0.727   3.708   1.264
10287TIP3    H130804   0.771   3.657   1.196
10287TIP3    H230805   0.759   3.797   1.252
10288TIP3   OH230806   7.923   3.379   5.766
10288TIP3    H130807   7.830   3.374   5.788
10288TIP3    H230808   7.968   3.358   5.848
10289TIP3   OH230809   2.900   3.578   0.471
10289TIP3    H130810   2.812   3.542   0.457
10289TIP3    H230811   2.919   3.627   0.391
10290TIP3   OH230812   0.633   5.425   0.719
10290TIP3    H130813   0.611   5.334   0.699
10290TIP3    H230814   0.582   5.476   0.655
10291TIP3   OH230815   3.387   6.138   2.182
10291TIP3    H130816   3.350   6.202   2.121
10291TIP3    H230817   3.455   6.186   2.228
10292TIP3   OH230818   0.684   2.030   5.811
10292TIP3    H130819   0.645   1.947   5.839
10292TIP3    H230820   0.758   2.004   5.756
10293TIP3   OH230821   6.570   3.803   5.242
10293TIP3    H130822   6.648   3.845   5.204
10293TIP3    H230823   6.599   3.715   5.264
10294TIP3   OH230824   3.135   7.465   4.162
10294TIP3    H130825   3.059   7.487   4.109
10294TIP3    H230826   3.133   7.369   4.169
10295TIP3   OH230827   4.467   3.609   0.308
10295TIP3    H130828   4.502   3.531   0.264
10295TIP3    H230829   4.381   3.582   0.340
10296TIP3   OH230830   0.728   3.168   0.597
10296TIP3    H130831   0.707   3.081   0.564
10296TIP3    H230832   0.727   3.225   0.520
10297TIP3   OH230833   0.144   7.207   0.723
10297TIP3    H130834   0.178   7.136   0.669
10297TIP3    H230835   0.067   7.238   0.675
10298TIP3   OH230836   7.764   5.892   0.250
10298TIP3    H130837   7.783   5.985   0.263
10298TIP3    H230838   7.704   5.890   0.175
10299TIP3   OH230839   7.833   2.466   2.320
10299TIP3    H130840   7.864   2.430   2.237
10299TIP3    H230841   7.783   2.543   2.295
10300TIP3   OH230842   4.276   1.629   4.010
10300TIP3    H130843   4.221   1.555   4.037
10300TIP3    H230844   4.288   1.617   3.915
10301TIP3   OH230845   5.118   2.436   1.902
10301TIP3    H130846   5.094   2.525   1.875
10301TIP3    H230847   5.094   2.431   1.995
10302TIP3   OH230848   7.064   4.848   3.771
10302TIP3    H130849   7.053   4.889   3.685
10302TIP3    H230850   7.083   4.922   3.830
10303TIP3   OH230851   0.313   1.470   4.462
10303TIP3    H130852   0.383   1.454   4.398
10303TIP3    H230853   0.318   1.564   4.479
10304TIP3   OH230854   3.363   2.719   2.085
10304TIP3    H130855   3.377   2.683   1.998
10304TIP3    H230856   3.315   2.800   2.071
10305TIP3   OH230857   0.622   4.363   0.492
10305TIP3    H130858   0.658   4.445   0.527
10305TIP3    H230859   0.584   4.388   0.408
10306TIP3   OH230860   2.156   6.393   2.399
10306TIP3    H130861   2.118   6.373   2.485
10306TIP3    H230862   2.235   6.339   2.395
10307TIP3   OH230863   7.210   2.569   2.630
10307TIP3    H130864   7.297   2.593   2.598
10307TIP3    H230865   7.154   2.642   2.605
10308TIP3   OH230866   7.392   1.131   1.346
10308TIP3    H130867   7.399   1.058   1.285
10308TIP3    H230868   7.352   1.093   1.424
10309TIP3   OH230869   4.344   2.538   6.478
10309TIP3    H130870   4.249   2.538   6.480
10309TIP3    H230871   4.369   2.484   6.553
10310TIP3   OH230872   7.348   5.620   6.280
10310TIP3    H130873   7.326   5.710   6.258
10310TIP3    H230874   7.430   5.626   6.328
10311TIP3   OH230875   0.287   3.258   2.914
10311TIP3    H130876   0.319   3.189   2.856
10311TIP3    H230877   0.323   3.235   3.000
10312TIP3   OH230878   6.766   4.468   6.162
10312TIP3    H130879   6.735   4.558   6.176
10312TIP3    H230880   6.857   4.479   6.135
10313TIP3   OH230881   4.261   4.295   3.706
10313TIP3    H130882   4.201   4.308   3.780
10313TIP3    H230883   4.346   4.278   3.746
10314TIP3   OH230884   3.885   1.660   2.445
10314TIP3    H130885   3.797   1.688   2.419
10314TIP3    H230886   3.871   1.610   2.526
10315TIP3   OH230887   1.550   4.793   6.120
10315TIP3    H130888   1.512   4.711   6.150
10315TIP3    H230889   1.582   4.774   6.031
10316TIP3   OH230890   2.994   2.182   1.569
10316TIP3    H130891   3.068   2.128   1.596
10316TIP3    H230892   2.924   2.159   1.630
10317TIP3   OH230893   3.117   3.579   4.377
10317TIP3    H130894   3.094   3.669   4.397
10317TIP3    H230895   3.190   3.559   4.435
10318TIP3   OH230896   6.539   1.353   2.351
10318TIP3    H130897   6.504   1.433   2.311
10318TIP3    H230898   6.598   1.317   2.285
10319TIP3   OH230899   6.203   5.323   6.021
10319TIP3    H130900   6.275   5.281   6.069
10319TIP3    H230901   6.243   5.350   5.938
10320TIP3   OH230902   7.196   1.941   4.605
10320TIP3    H130903   7.152   1.963   4.687
10320TIP3    H230904   7.289   1.959   4.622
10321TIP3   OH230905   0.853   6.846   3.952
10321TIP3    H130906   0.826   6.924   4.000
10321TIP3    H230907   0.852   6.776   4.018
10322TIP3   OH230908   6.941   0.932   1.329
10322TIP3    H130909   6.865   0.905   1.380
10322TIP3    H230910   6.947   1.027   1.343
10323TIP3   OH230911   7.384   2.875   4.318
10323TIP3    H130912   7.345   2.929   4.387
10323TIP3    H230913   7.347   2.788   4.332
10324TIP3   OH230914   5.311   7.119   3.124
10324TIP3    H130915   5.273   7.134   3.038
10324TIP3    H230916   5.238   7.085   3.177
10325TIP3   OH230917   2.765   2.942   2.981
10325TIP3    H130918   2.777   2.995   2.903
10325TIP3    H230919   2.709   2.996   3.038
10326TIP3   OH230920   4.790   5.586   6.571
10326TIP3    H130921   4.793   5.680   6.550
10326TIP3    H230922   4.870   5.571   6.621
10327TIP3   OH230923   7.757   3.533   6.043
10327TIP3    H130924   7.699   3.543   5.968
10327TIP3    H230925   7.716   3.585   6.113
10328TIP3   OH230926   7.841   7.782   4.295
10328TIP3    H130927   7.772   7.765   4.359
10328TIP3    H230928   7.809   7.857   4.245
10329TIP3   OH230929   1.309   1.470   4.371
10329TIP3    H130930   1.231   1.419   4.392
10329TIP3    H230931   1.379   1.405   4.367
10330TIP3   OH230932   1.607   3.445   5.826
10330TIP3    H130933   1.684   3.388   5.828
10330TIP3    H230934   1.552   3.409   5.756
10331TIP3   OH230935   5.278   0.505   5.651
10331TIP3    H130936   5.202   0.454   5.622
10331TIP3    H230937   5.353   0.451   5.628
10332TIP3   OH230938   1.128   1.366   1.838
10332TIP3    H130939   1.115   1.417   1.758
10332TIP3    H230940   1.058   1.394   1.896
10333TIP3   OH230941   1.032   4.117   1.220
10333TIP3    H130942   1.095   4.045   1.211
10333TIP3    H230943   1.067   4.170   1.291
10334TIP3   OH230944   0.426   0.333   4.430
10334TIP3    H130945   0.498   0.389   4.403
10334TIP3    H230946   0.429   0.335   4.526
10335TIP3   OH230947   1.046   6.049   1.113
10335TIP3    H130948   1.038   5.965   1.068
10335TIP3    H230949   1.048   6.026   1.206
10336TIP3   OH230950   0.597   1.017   3.629
10336TIP3    H130951   0.534   0.977   3.568
10336TIP3    H230952   0.678   1.024   3.579
10337TIP3   OH230953   3.511   3.866   1.498
10337TIP3    H130954   3.605   3.883   1.511
10337TIP3    H230955   3.497   3.780   1.536
10338TIP3   OH230956   3.608   2.799   0.158
10338TIP3    H130957   3.635   2.712   0.188
10338TIP3    H230958   3.680   2.828   0.102
10339TIP3   OH230959   6.315   6.331   6.355
10339TIP3    H130960   6.329   6.364   6.266
10339TIP3    H230961   6.380   6.262   6.365
10340TIP3   OH230962   1.256   2.614   0.257
10340TIP3    H130963   1.329   2.574   0.304
10340TIP3    H230964   1.206   2.541   0.222
10341TIP3   OH230965   2.851   3.066   5.770
10341TIP3    H130966   2.767   3.022   5.779
10341TIP3    H230967   2.901   3.037   5.846
10342TIP3   OH230968   2.748   0.554   3.943
10342TIP3    H130969   2.764   0.578   3.852
10342TIP3    H230970   2.779   0.464   3.950
10343TIP3   OH230971   2.729   6.020   2.962
10343TIP3    H130972   2.757   5.956   3.027
10343TIP3    H230973   2.741   6.105   3.005
10344TIP3   OH230974   5.217   1.892   6.172
10344TIP3    H130975   5.247   1.940   6.095
10344TIP3    H230976   5.273   1.922   6.243
10345TIP3   OH230977   7.389   6.507   3.703
10345TIP3    H130978   7.447   6.438   3.670
10345TIP3    H230979   7.445   6.560   3.760
10346TIP3   OH230980   2.036   6.195   4.627
10346TIP3    H130981   2.040   6.241   4.543
10346TIP3    H230982   1.981   6.250   4.682
10347TIP3   OH230983   4.018   6.415   3.251
10347TIP3    H130984   4.113   6.423   3.247
10347TIP3    H230985   3.985   6.486   3.196
10348TIP3   OH230986   6.267   4.753   2.436
10348TIP3    H130987   6.235   4.723   2.351
10348TIP3    H230988   6.188   4.768   2.488
10349TIP3   OH230989   7.800   1.231   5.376
10349TIP3    H130990   7.852   1.289   5.321
10349TIP3    H230991   7.839   1.241   5.464
10350TIP3   OH230992   5.958   7.681   0.053
10350TIP3    H130993   6.001   7.726   0.126
10350TIP3    H230994   5.939   7.751  -0.010
10351TIP3   OH230995   6.734   2.516   3.226
10351TIP3    H130996   6.649   2.473   3.226
10351TIP3    H230997   6.795   2.448   3.256
10352TIP3   OH230998   8.019   1.494   5.491
10352TIP3    H130999   7.986   1.545   5.416
10352TIP3    H231000   7.940   1.460   5.533
10353TIP3   OH231001   1.663   2.677   1.243
10353TIP3    H131002   1.568   2.674   1.235
10353TIP3    H231003   1.691   2.739   1.176
10354TIP3   OH231004   7.838   0.277   6.383
10354TIP3    H131005   7.834   0.183   6.363
10354TIP3    H231006   7.817   0.282   6.476
10355TIP3   OH231007   4.608   3.519   5.665
10355TIP3    H131008   4.553   3.595   5.647
10355TIP3    H231009   4.574   3.451   5.606
10356TIP3   OH231010   2.321   5.113   4.456
10356TIP3    H131011   2.285   5.172   4.391
10356TIP3    H231012   2.375   5.168   4.513
10357TIP3   OH231013   3.279   1.353   5.039
10357TIP3    H131014   3.374   1.364   5.038
10357TIP3    H231015   3.251   1.389   5.123
10358TIP3   OH231016   5.393   2.636   0.325
10358TIP3    H131017   5.433   2.555   0.296
10358TIP3    H231018   5.318   2.648   0.267
10359TIP3   OH231019   1.218   3.466   1.315
10359TIP3    H131020   1.294   3.512   1.278
10359TIP3    H231021   1.213   3.498   1.405
10360TIP3   OH231022   0.826   7.295   1.753
10360TIP3    H131023   0.915   7.260   1.746
10360TIP3    H231024   0.793   7.259   1.835
10361TIP3   OH231025   8.064   1.675   4.014
10361TIP3    H131026   8.129   1.696   4.081
10361TIP3    H231027   8.086   1.733   3.940
10362TIP3   OH231028   6.302   4.025   0.493
10362TIP3    H131029   6.341   4.011   0.579
10362TIP3    H231030   6.246   4.102   0.504
10363TIP3   OH231031   2.625   6.026   4.621
10363TIP3    H131032   2.650   6.001   4.710
10363TIP3    H231033   2.559   6.094   4.633
10364TIP3   OH231034   7.259   4.575   0.398
10364TIP3    H131035   7.260   4.496   0.453
10364TIP3    H231036   7.281   4.646   0.458
10365TIP3   OH231037   6.187   4.383   2.764
10365TIP3    H131038   6.194   4.319   2.835
10365TIP3    H231039   6.181   4.467   2.809
10366TIP3   OH231040   0.758   0.635   2.734
10366TIP3    H131041   0.736   0.544   2.756
10366TIP3    H231042   0.722   0.647   2.646
10367TIP3   OH231043   0.958   0.777   4.705
10367TIP3    H131044   0.932   0.818   4.623
10367TIP3    H231045   1.037   0.728   4.684
10368TIP3   OH231046   6.686   6.049   5.900
10368TIP3    H131047   6.756   6.112   5.882
10368TIP3    H231048   6.612   6.102   5.927
10369TIP3   OH231049   5.706   5.883   3.651
10369TIP3    H131050   5.661   5.825   3.713
10369TIP3    H231051   5.655   5.876   3.570
10370TIP3   OH231052   4.161   3.807   6.565
10370TIP3    H131053   4.225   3.874   6.587
10370TIP3    H231054   4.087   3.824   6.623
10371TIP3   OH231055   3.470   6.488   5.100
10371TIP3    H131056   3.393   6.529   5.140
10371TIP3    H231057   3.474   6.401   5.140
10372TIP3   OH231058   4.038   5.710   2.700
10372TIP3    H131059   4.103   5.733   2.767
10372TIP3    H231060   3.959   5.689   2.750
10373TIP3   OH231061   7.098   1.702   4.464
10373TIP3    H131062   7.148   1.771   4.508
10373TIP3    H231063   7.041   1.667   4.532
10374TIP3   OH231064   2.619   4.650   1.180
10374TIP3    H131065   2.711   4.639   1.154
10374TIP3    H231066   2.574   4.577   1.138
10375TIP3   OH231067   8.080   2.396   4.148
10375TIP3    H131068   7.997   2.394   4.197
10375TIP3    H231069   8.088   2.486   4.118
10376TIP3   OH231070   5.516   4.562   3.249
10376TIP3    H131071   5.605   4.529   3.265
10376TIP3    H231072   5.462   4.484   3.242
10377TIP3   OH231073   3.203   3.412   0.766
10377TIP3    H131074   3.288   3.368   0.769
10377TIP3    H231075   3.140   3.342   0.749
10378TIP3   OH231076   0.443   4.160   3.206
10378TIP3    H131077   0.519   4.139   3.260
10378TIP3    H231078   0.382   4.087   3.221
10379TIP3   OH231079   5.555   4.807   3.513
10379TIP3    H131080   5.606   4.733   3.545
10379TIP3    H231081   5.488   4.821   3.580
10380TIP3   OH231082   5.600   1.810   0.294
10380TIP3    H131083   5.638   1.802   0.382
10380TIP3    H231084   5.670   1.851   0.242
10381TIP3   OH231085   2.283   3.255   6.660
10381TIP3    H131086   2.326   3.281   6.742
10381TIP3    H231087   2.241   3.335   6.629
10382TIP3   OH231088   0.413   7.337   1.586
10382TIP3    H131089   0.443   7.352   1.676
10382TIP3    H231090   0.321   7.363   1.587
10383TIP3   OH231091   3.599   4.202   4.195
10383TIP3    H131092   3.650   4.275   4.231
10383TIP3    H231093   3.584   4.227   4.104
10384TIP3   OH231094   4.061   6.652   5.500
10384TIP3    H131095   4.048   6.687   5.588
10384TIP3    H231096   4.017   6.567   5.500
10385TIP3   OH231097   5.688   6.752   3.885
10385TIP3    H131098   5.701   6.844   3.910
10385TIP3    H231099   5.680   6.706   3.968
10386TIP3   OH231100   7.480   6.972   1.485
10386TIP3    H131101   7.506   6.992   1.575
10386TIP3    H231102   7.530   6.894   1.462
10387TIP3   OH231103   6.309   7.220   3.852
10387TIP3    H131104   6.275   7.144   3.804
10387TIP3    H231105   6.404   7.213   3.843
10388TIP3   OH231106   5.734   0.860   2.049
10388TIP3    H131107   5.733   0.764   2.051
10388TIP3    H231108   5.733   0.886   2.141
10389TIP3   OH231109   0.369   2.076   3.864
10389TIP3    H131110   0.435   2.130   3.907
10389TIP3    H231111   0.416   2.036   3.791
10390TIP3   OH231112   8.313   1.665   1.217
10390TIP3    H131113   8.279   1.577   1.235
10390TIP3    H231114   8.253   1.723   1.263
10391TIP3   OH231115   2.482   6.065   3.631
10391TIP3    H131116   2.538   6.108   3.566
10391TIP3    H231117   2.411   6.127   3.647
10392TIP3   OH231118   0.076   5.857   1.427
10392TIP3    H131119   0.090   5.872   1.520
10392TIP3    H231120   0.004   5.915   1.404
10393TIP3   OH231121   6.705   5.993   4.405
10393TIP3    H131122   6.730   6.085   4.414
10393TIP3    H231123   6.717   5.974   4.312
10394TIP3   OH231124   1.692   4.178   6.208
10394TIP3    H131125   1.627   4.183   6.139
10394TIP3    H231126   1.774   4.205   6.166
10395TIP3   OH231127   3.305   4.008   1.622
10395TIP3    H131128   3.357   4.054   1.688
10395TIP3    H231129   3.370   3.972   1.562
10396TIP3   OH231130   3.386   1.994   5.613
10396TIP3    H131131   3.377   1.903   5.585
10396TIP3    H231132   3.352   2.045   5.539
10397TIP3   OH231133   1.562   6.039   3.874
10397TIP3    H131134   1.536   6.062   3.784
10397TIP3    H231135   1.569   6.123   3.919
10398TIP3   OH231136   7.539   3.356   1.237
10398TIP3    H131137   7.466   3.319   1.287
10398TIP3    H231138   7.499   3.383   1.154
10399TIP3   OH231139   2.930   2.153   3.937
10399TIP3    H131140   2.987   2.137   4.012
10399TIP3    H231141   2.966   2.232   3.896
10400TIP3   OH231142   1.174   3.568   0.994
10400TIP3    H131143   1.251   3.601   1.041
10400TIP3    H231144   1.204   3.558   0.904
10401TIP3   OH231145   1.825   3.790   2.279
10401TIP3    H131146   1.799   3.810   2.189
10401TIP3    H231147   1.819   3.695   2.285
10402TIP3   OH231148   1.446   1.728   1.738
10402TIP3    H131149   1.489   1.644   1.750
10402TIP3    H231150   1.421   1.730   1.646
10403TIP3   OH231151   4.603   2.580   6.174
10403TIP3    H131152   4.638   2.601   6.261
10403TIP3    H231153   4.673   2.602   6.114
10404TIP3   OH231154   1.861   6.832   2.387
10404TIP3    H131155   1.916   6.911   2.386
10404TIP3    H231156   1.919   6.762   2.357
10405TIP3   OH231157   4.442   4.454   3.471
10405TIP3    H131158   4.398   4.528   3.430
10405TIP3    H231159   4.382   4.381   3.461
10406TIP3   OH231160   0.744   3.390   2.484
10406TIP3    H131161   0.735   3.306   2.438
10406TIP3    H231162   0.796   3.444   2.425
10407TIP3   OH231163   6.297   3.650   0.034
10407TIP3    H131164   6.233   3.685   0.096
10407TIP3    H231165   6.309   3.720  -0.031
10408TIP3   OH231166   7.976   5.058   2.117
10408TIP3    H131167   7.987   5.101   2.032
10408TIP3    H231168   7.945   4.970   2.095
10409TIP3   OH231169   0.425   0.354   5.025
10409TIP3    H131170   0.408   0.446   5.043
10409TIP3    H231171   0.345   0.322   4.986
10410TIP3   OH231172   5.885   7.225   5.068
10410TIP3    H131173   5.801   7.180   5.054
10410TIP3    H231174   5.887   7.243   5.162
10411TIP3   OH231175   4.395   7.304   6.063
10411TIP3    H131176   4.439   7.388   6.069
10411TIP3    H231177   4.421   7.269   5.978
10412TIP3   OH231178   3.161   7.323   3.837
10412TIP3    H131179   3.241   7.370   3.812
10412TIP3    H231180   3.090   7.376   3.802
10413TIP3   OH231181   3.333   4.264   5.423
10413TIP3    H131182   3.255   4.319   5.414
10413TIP3    H231183   3.310   4.199   5.489
10414TIP3   OH231184   0.250   4.356   4.725
10414TIP3    H131185   0.213   4.268   4.722
10414TIP3    H231186   0.344   4.343   4.737
10415TIP3   OH231187   0.191   6.879   1.274
10415TIP3    H131188   0.123   6.930   1.230
10415TIP3    H231189   0.272   6.927   1.257
10416TIP3   OH231190   1.475   6.441   0.772
10416TIP3    H131191   1.448   6.448   0.863
10416TIP3    H231192   1.534   6.515   0.758
10417TIP3   OH231193   7.266   1.727   6.482
10417TIP3    H131194   7.316   1.771   6.551
10417TIP3    H231195   7.321   1.653   6.456
10418TIP3   OH231196   4.907   2.618   1.133
10418TIP3    H131197   4.888   2.527   1.110
10418TIP3    H231198   4.914   2.618   1.228
10419TIP3   OH231199   6.481   2.145   1.222
10419TIP3    H131200   6.473   2.061   1.268
10419TIP3    H231201   6.556   2.133   1.164
10420TIP3   OH231202   7.456   3.646   3.448
10420TIP3    H131203   7.495   3.590   3.382
10420TIP3    H231204   7.365   3.618   3.453
10421TIP3   OH231205   4.338   3.234   5.955
10421TIP3    H131206   4.290   3.279   6.024
10421TIP3    H231207   4.417   3.202   5.998
10422TIP3   OH231208   7.199   2.003   2.204
10422TIP3    H131209   7.185   2.096   2.186
10422TIP3    H231210   7.141   1.957   2.142
10423TIP3   OH231211   5.019   3.866   4.606
10423TIP3    H131212   5.083   3.827   4.546
10423TIP3    H231213   4.980   3.938   4.555
10424TIP3   OH231214   7.195   1.150   5.369
10424TIP3    H131215   7.246   1.070   5.380
10424TIP3    H231216   7.216   1.179   5.280
10425TIP3   OH231217   4.864   5.914   5.343
10425TIP3    H131218   4.941   5.860   5.328
10425TIP3    H231219   4.799   5.853   5.378
10426TIP3   OH231220   3.202   5.605   0.094
10426TIP3    H131221   3.265   5.589   0.024
10426TIP3    H231222   3.256   5.614   0.173
10427TIP3   OH231223   0.487   2.659   5.290
10427TIP3    H131224   0.508   2.749   5.264
10427TIP3    H231225   0.534   2.605   5.227
10428TIP3   OH231226   4.382   7.306   3.430
10428TIP3    H131227   4.450   7.292   3.496
10428TIP3    H231228   4.303   7.325   3.480
10429TIP3   OH231229   5.254   7.789   1.127
10429TIP3    H131230   5.231   7.727   1.058
10429TIP3    H231231   5.171   7.809   1.170
10430TIP3   OH231232   2.199   6.907   2.697
10430TIP3    H131233   2.220   6.813   2.694
10430TIP3    H231234   2.243   6.943   2.620
10431TIP3   OH231235   2.230   5.857   0.422
10431TIP3    H131236   2.135   5.865   0.415
10431TIP3    H231237   2.264   5.939   0.384
10432TIP3   OH231238   7.179   2.704   0.915
10432TIP3    H131239   7.117   2.752   0.859
10432TIP3    H231240   7.206   2.768   0.981
10433TIP3   OH231241   4.461   7.422   5.063
10433TIP3    H131242   4.421   7.419   5.150
10433TIP3    H231243   4.531   7.356   5.067
10434TIP3   OH231244   8.245   2.026   4.442
10434TIP3    H131245   8.189   2.018   4.365
10434TIP3    H231246   8.240   2.118   4.467
10435TIP3   OH231247   6.743   3.472   6.496
10435TIP3    H131248   6.834   3.444   6.505
10435TIP3    H231249   6.714   3.436   6.412
10436TIP3   OH231250   4.807   6.032   5.098
10436TIP3    H131251   4.899   6.043   5.073
10436TIP3    H231252   4.810   5.998   5.188
10437TIP3   OH231253   1.572   0.135   4.506
10437TIP3    H131254   1.627   0.167   4.577
10437TIP3    H231255   1.604   0.047   4.487
10438TIP3   OH231256   6.974   2.876   3.649
10438TIP3    H131257   7.046   2.814   3.647
10438TIP3    H231258   6.996   2.936   3.720
10439TIP3   OH231259   7.206   6.871   5.907
10439TIP3    H131260   7.273   6.933   5.878
10439TIP3    H231261   7.167   6.912   5.984
10440TIP3   OH231262   4.423   3.170   1.393
10440TIP3    H131263   4.458   3.081   1.404
10440TIP3    H231264   4.501   3.225   1.390
10441TIP3   OH231265   0.235   4.987   5.340
10441TIP3    H131266   0.281   4.946   5.414
10441TIP3    H231267   0.161   4.928   5.323
10442TIP3   OH231268   6.121   6.539   2.268
10442TIP3    H131269   6.052   6.512   2.208
10442TIP3    H231270   6.075   6.593   2.333
10443TIP3   OH231271   0.603   1.956   5.431
10443TIP3    H131272   0.605   2.050   5.446
10443TIP3    H231273   0.541   1.921   5.495
10444TIP3   OH231274   4.615   7.711   0.767
10444TIP3    H131275   4.547   7.661   0.812
10444TIP3    H231276   4.640   7.779   0.830
10445TIP3   OH231277   3.716   4.278   2.627
10445TIP3    H131278   3.763   4.301   2.547
10445TIP3    H231279   3.664   4.201   2.602
10446TIP3   OH231280   8.004   4.236   5.254
10446TIP3    H131281   8.021   4.272   5.167
10446TIP3    H231282   8.085   4.191   5.278
10447TIP3   OH231283   7.179   2.963   0.386
10447TIP3    H131284   7.235   2.935   0.313
10447TIP3    H231285   7.193   2.897   0.454
10448TIP3   OH231286   7.056   6.496   2.091
10448TIP3    H131287   7.018   6.535   2.170
10448TIP3    H231288   7.011   6.413   2.080
10449TIP3   OH231289   4.787   5.683   4.644
10449TIP3    H131290   4.749   5.769   4.662
10449TIP3    H231291   4.738   5.623   4.701
10450TIP3   OH231292   0.568   1.146   6.267
10450TIP3    H131293   0.614   1.111   6.343
10450TIP3    H231294   0.629   1.133   6.194
10451TIP3   OH231295   4.252   7.129   1.255
10451TIP3    H131296   4.192   7.111   1.183
10451TIP3    H231297   4.237   7.059   1.318
10452TIP3   OH231298   3.386   5.627   6.405
10452TIP3    H131299   3.292   5.611   6.417
10452TIP3    H231300   3.390   5.716   6.370
10453TIP3   OH231301   2.092   7.214   3.052
10453TIP3    H131302   2.116   7.306   3.053
10453TIP3    H231303   2.015   7.210   2.994
10454TIP3   OH231304   4.042   5.816   5.741
10454TIP3    H131305   4.071   5.872   5.669
10454TIP3    H231306   4.095   5.843   5.816
10455TIP3   OH231307   6.500   7.406   0.322
10455TIP3    H131308   6.433   7.384   0.387
10455TIP3    H231309   6.464   7.376   0.238
10456TIP3   OH231310   3.466   5.082   3.855
10456TIP3    H131311   3.400   5.020   3.887
10456TIP3    H231312   3.549   5.039   3.876
10457TIP3   OH231313   4.656   1.181   3.450
10457TIP3    H131314   4.728   1.123   3.473
10457TIP3    H231315   4.577   1.128   3.462
10458TIP3   OH231316   7.796   1.688   1.701
10458TIP3    H131317   7.817   1.665   1.792
10458TIP3    H231318   7.731   1.758   1.709
10459TIP3   OH231319   3.777   6.636   4.362
10459TIP3    H131320   3.785   6.619   4.456
10459TIP3    H231321   3.738   6.555   4.327
10460TIP3   OH231322   8.218   7.430   2.382
10460TIP3    H131323   8.311   7.451   2.374
10460TIP3    H231324   8.176   7.514   2.397
10461TIP3   OH231325   4.003   4.044   3.996
10461TIP3    H131326   4.002   3.984   4.071
10461TIP3    H231327   3.964   3.993   3.924
10462TIP3   OH231328   0.247   1.954   4.289
10462TIP3    H131329   0.311   1.887   4.263
10462TIP3    H231330   0.176   1.904   4.330
10463TIP3   OH231331   2.631   0.789   5.746
10463TIP3    H131332   2.582   0.819   5.669
10463TIP3    H231333   2.680   0.866   5.775
10464TIP3   OH231334   4.452   0.992   1.942
10464TIP3    H131335   4.382   0.927   1.954
10464TIP3    H231336   4.533   0.942   1.956
10465TIP3   OH231337   0.709   3.259   1.276
10465TIP3    H131338   0.630   3.309   1.299
10465TIP3    H231339   0.778   3.298   1.331
10466TIP3   OH231340   1.194   5.418   3.197
10466TIP3    H131341   1.204   5.513   3.198
10466TIP3    H231342   1.279   5.384   3.226
10467TIP3   OH231343   4.010   4.856   4.631
10467TIP3    H131344   3.951   4.913   4.681
10467TIP3    H231345   3.987   4.768   4.660
10468TIP3   OH231346   3.427   2.327   3.739
10468TIP3    H131347   3.404   2.273   3.815
10468TIP3    H231348   3.521   2.310   3.727
10469TIP3   OH231349   5.460   5.143   4.543
10469TIP3    H131350   5.512   5.222   4.554
10469TIP3    H231351   5.524   5.072   4.535
10470TIP3   OH231352   4.521   2.068   6.120
10470TIP3    H131353   4.608   2.070   6.080
10470TIP3    H231354   4.482   2.152   6.098
10471TIP3   OH231355   1.078   0.650   6.190
10471TIP3    H131356   1.021   0.581   6.223
10471TIP3    H231357   1.023   0.729   6.191
10472TIP3   OH231358   2.953   6.192   0.560
10472TIP3    H131359   2.928   6.269   0.610
10472TIP3    H231360   2.997   6.135   0.623
10473TIP3   OH231361   1.087   2.505   6.028
10473TIP3    H131362   1.126   2.433   6.076
10473TIP3    H231363   0.995   2.481   6.020
10474TIP3   OH231364   3.711   7.637   1.485
10474TIP3    H131365   3.730   7.656   1.393
10474TIP3    H231366   3.797   7.620   1.524
10475TIP3   OH231367   1.385   0.270   1.950
10475TIP3    H131368   1.469   0.226   1.961
10475TIP3    H231369   1.371   0.315   2.034
10476TIP3   OH231370   0.071   3.616   2.144
10476TIP3    H131371   0.041   3.550   2.081
10476TIP3    H231372   0.132   3.671   2.094
10477TIP3   OH231373   2.772   1.296   2.737
10477TIP3    H131374   2.712   1.342   2.679
10477TIP3    H231375   2.844   1.358   2.752
10478TIP3   OH231376   6.973   0.620   2.977
10478TIP3    H131377   7.065   0.610   2.956
10478TIP3    H231378   6.933   0.654   2.897
10479TIP3   OH231379   6.806   0.984   5.071
10479TIP3    H131380   6.898   1.009   5.065
10479TIP3    H231381   6.771   1.000   4.983
10480TIP3   OH231382   4.333   6.182   2.299
10480TIP3    H131383   4.373   6.185   2.386
10480TIP3    H231384   4.406   6.176   2.239
10481TIP3   OH231385   0.968   5.825   2.090
10481TIP3    H131386   0.960   5.730   2.080
10481TIP3    H231387   0.972   5.839   2.184
10482TIP3   OH231388   5.138   0.196   5.203
10482TIP3    H131389   5.122   0.274   5.256
10482TIP3    H231390   5.179   0.134   5.264
10483TIP3   OH231391   5.547   2.886   0.189
10483TIP3    H131392   5.497   2.966   0.171
10483TIP3    H231393   5.485   2.829   0.233
10484TIP3   OH231394   1.119   0.775   1.627
10484TIP3    H131395   1.170   0.856   1.629
10484TIP3    H231396   1.117   0.745   1.718
10485TIP3   OH231397   2.188   7.210   0.031
10485TIP3    H131398   2.167   7.287   0.084
10485TIP3    H231399   2.280   7.222   0.006
10486TIP3   OH231400   6.684   4.803   6.709
10486TIP3    H131401   6.778   4.819   6.712
10486TIP3    H231402   6.651   4.839   6.791
10487TIP3   OH231403   8.047   3.296   0.148
10487TIP3    H131404   8.057   3.364   0.215
10487TIP3    H231405   8.032   3.344   0.067
10488TIP3   OH231406   3.461   4.795   6.499
10488TIP3    H131407   3.553   4.771   6.508
10488TIP3    H231408   3.463   4.882   6.458
10489TIP3   OH231409   5.410   5.683   0.881
10489TIP3    H131410   5.362   5.761   0.852
10489TIP3    H231411   5.348   5.611   0.865
10490TIP3   OH231412   4.256   2.464   2.684
10490TIP3    H131413   4.329   2.523   2.701
10490TIP3    H231414   4.214   2.500   2.605
10491TIP3   OH231415   7.012   0.540   4.303
10491TIP3    H131416   6.988   0.625   4.339
10491TIP3    H231417   6.955   0.477   4.348
10492TIP3   OH231418   3.166   3.416   1.568
10492TIP3    H131419   3.159   3.373   1.653
10492TIP3    H231420   3.105   3.490   1.573
10493TIP3   OH231421   4.904   0.632   1.415
10493TIP3    H131422   4.969   0.608   1.349
10493TIP3    H231423   4.820   0.622   1.371
10494TIP3   OH231424   1.049   7.732   4.417
10494TIP3    H131425   1.124   7.677   4.443
10494TIP3    H231426   0.985   7.669   4.384
10495TIP3   OH231427   6.709   5.340   5.506
10495TIP3    H131428   6.738   5.262   5.553
10495TIP3    H231429   6.674   5.307   5.424
10496TIP3   OH231430   2.072   6.799   6.671
10496TIP3    H131431   2.037   6.740   6.738
10496TIP3    H231432   2.083   6.745   6.593
10497TIP3   OH231433   5.308   2.814   0.945
10497TIP3    H131434   5.271   2.902   0.937
10497TIP3    H231435   5.387   2.815   0.892
10498TIP3   OH231436   6.849   3.855   5.821
10498TIP3    H131437   6.842   3.885   5.912
10498TIP3    H231438   6.841   3.760   5.827
10499TIP3   OH231439   0.836   2.882   6.007
10499TIP3    H131440   0.743   2.906   6.008
10499TIP3    H231441   0.864   2.898   5.917
10500TIP3   OH231442   8.170   4.812   3.091
10500TIP3    H131443   8.224   4.873   3.143
10500TIP3    H231444   8.090   4.802   3.143
10501TIP3   OH231445   3.596   3.514   1.457
10501TIP3    H131446   3.520   3.538   1.510
10501TIP3    H231447   3.628   3.433   1.495
10502TIP3   OH231448   0.373   1.625   6.070
10502TIP3    H131449   0.291   1.613   6.023
10502TIP3    H231450   0.390   1.719   6.067
10503TIP3   OH231451   5.223   7.231   5.215
10503TIP3    H131452   5.280   7.197   5.284
10503TIP3    H231453   5.198   7.318   5.245
10504TIP3   OH231454   6.263   7.590   6.082
10504TIP3    H131455   6.245   7.559   5.994
10504TIP3    H231456   6.227   7.523   6.139
10505TIP3   OH231457   0.268   6.599   2.289
10505TIP3    H131458   0.353   6.618   2.328
10505TIP3    H231459   0.226   6.685   2.280
10506TIP3   OH231460   7.335   4.830   5.786
10506TIP3    H131461   7.404   4.852   5.723
10506TIP3    H231462   7.380   4.823   5.870
10507TIP3   OH231463   3.685   6.555   1.237
10507TIP3    H131464   3.700   6.464   1.262
10507TIP3    H231465   3.598   6.556   1.198
10508TIP3   OH231466   5.461   4.850   1.951
10508TIP3    H131467   5.392   4.890   1.897
10508TIP3    H231468   5.415   4.820   2.030
10509TIP3   OH231469   1.855   4.776   3.688
10509TIP3    H131470   1.885   4.829   3.762
10509TIP3    H231471   1.792   4.715   3.726
10510TIP3   OH231472   0.719   7.285   4.543
10510TIP3    H131473   0.797   7.306   4.492
10510TIP3    H231474   0.686   7.370   4.573
10511TIP3   OH231475   3.321   1.495   5.712
10511TIP3    H131476   3.359   1.494   5.800
10511TIP3    H231477   3.306   1.402   5.691
10512TIP3   OH231478   4.611   7.436   4.664
10512TIP3    H131479   4.530   7.454   4.616
10512TIP3    H231480   4.620   7.510   4.724
10513TIP3   OH231481   4.778   3.367   5.357
10513TIP3    H131482   4.803   3.296   5.416
10513TIP3    H231483   4.691   3.394   5.387
10514TIP3   OH231484   5.220   0.945   5.088
10514TIP3    H131485   5.126   0.931   5.104
10514TIP3    H231486   5.229   0.938   4.993
10515TIP3   OH231487   5.387   6.950   4.427
10515TIP3    H131488   5.298   6.970   4.397
10515TIP3    H231489   5.442   6.966   4.350
10516TIP3   OH231490   3.396   5.931   4.060
10516TIP3    H131491   3.476   5.878   4.066
10516TIP3    H231492   3.326   5.867   4.049
10517TIP3   OH231493   5.931   6.369   5.881
10517TIP3    H131494   5.941   6.356   5.976
10517TIP3    H231495   5.893   6.456   5.872
10518TIP3   OH231496   1.836   4.576   0.565
10518TIP3    H131497   1.886   4.585   0.646
10518TIP3    H231498   1.744   4.579   0.593
10519TIP3   OH231499   7.362   7.421   3.225
10519TIP3    H131500   7.336   7.465   3.144
10519TIP3    H231501   7.281   7.384   3.260
10520TIP3   OH231502   0.754   0.888   3.823
10520TIP3    H131503   0.690   0.953   3.793
10520TIP3    H231504   0.713   0.804   3.804
10521TIP3   OH231505   6.909   5.625   4.533
10521TIP3    H131506   6.955   5.693   4.483
10521TIP3    H231507   6.818   5.631   4.504
10522TIP3   OH231508   1.739   0.341   4.666
10522TIP3    H131509   1.671   0.406   4.646
10522TIP3    H231510   1.821   0.391   4.664
10523TIP3   OH231511   2.902   1.096   3.268
10523TIP3    H131512   2.826   1.044   3.296
10523TIP3    H231513   2.931   1.140   3.347
10524TIP3   OH231514   2.929   4.151   5.312
10524TIP3    H131515   2.885   4.169   5.396
10524TIP3    H231516   2.954   4.237   5.279
10525TIP3   OH231517   0.402   4.165   6.706
10525TIP3    H131518   0.448   4.249   6.712
10525TIP3    H231519   0.309   4.190   6.702
10526TIP3   OH231520   5.483   7.085   6.358
10526TIP3    H131521   5.512   7.003   6.318
10526TIP3    H231522   5.456   7.059   6.447
10527TIP3   OH231523   2.100   1.114   1.119
10527TIP3    H131524   2.069   1.048   1.180
10527TIP3    H231525   2.192   1.092   1.103
10528TIP3   OH231526   2.866  -0.008   0.385
10528TIP3    H131527   2.874   0.010   0.478
10528TIP3    H231528   2.936   0.043   0.345
10529TIP3   OH231529   0.867   7.571   1.825
10529TIP3    H131530   0.841   7.613   1.743
10529TIP3    H231531   0.873   7.478   1.804
10530TIP3   OH231532   1.231   3.144   3.392
10530TIP3    H131533   1.271   3.058   3.377
10530TIP3    H231534   1.294   3.190   3.447
10531TIP3   OH231535   8.275   1.179   5.158
10531TIP3    H131536   8.237   1.235   5.225
10531TIP3    H231537   8.294   1.239   5.086
10532TIP3   OH231538   8.082   7.670   6.568
10532TIP3    H131539   8.159   7.614   6.586
10532TIP3    H231540   8.119   7.756   6.547
10533TIP3   OH231541   5.754   5.994   3.112
10533TIP3    H131542   5.671   6.027   3.079
10533TIP3    H231543   5.768   6.041   3.194
10534TIP3   OH231544   0.542   6.587   2.413
10534TIP3    H131545   0.598   6.511   2.430
10534TIP3    H231546   0.497   6.603   2.496
10535TIP3   OH231547   6.041   0.691   4.546
10535TIP3    H131548   5.971   0.653   4.493
10535TIP3    H231549   6.024   0.785   4.543
10536TIP3   OH231550   0.370   2.718   0.873
10536TIP3    H131551   0.335   2.640   0.915
10536TIP3    H231552   0.295   2.755   0.826
10537TIP3   OH231553   5.552   3.956   6.655
10537TIP3    H131554   5.643   3.952   6.626
10537TIP3    H231555   5.527   3.865   6.667
10538TIP3   OH231556   4.087   1.381   2.455
10538TIP3    H131557   4.088   1.454   2.392
10538TIP3    H231558   4.078   1.303   2.401
10539TIP3   OH231559   1.625   2.335   2.021
10539TIP3    H131560   1.652   2.316   1.931
10539TIP3    H231561   1.640   2.253   2.068
10540TIP3   OH231562   0.874   7.272   2.648
10540TIP3    H131563   0.790   7.231   2.669
10540TIP3    H231564   0.916   7.285   2.732
10541TIP3   OH231565   4.364   7.120   4.983
10541TIP3    H131566   4.387   7.063   5.056
10541TIP3    H231567   4.286   7.167   5.013
10542TIP3   OH231568   2.478   5.106   0.359
10542TIP3    H131569   2.414   5.089   0.291
10542TIP3    H231570   2.563   5.104   0.315
10543TIP3   OH231571   1.565   4.290   6.626
10543TIP3    H131572   1.539   4.369   6.578
10543TIP3    H231573   1.561   4.220   6.561
10544TIP3   OH231574   5.173   4.259   5.045
10544TIP3    H131575   5.147   4.199   5.115
10544TIP3    H231576   5.096   4.265   4.989
10545TIP3   OH231577   1.187   7.378   1.665
10545TIP3    H131578   1.172   7.426   1.747
10545TIP3    H231579   1.161   7.439   1.596
10546TIP3   OH231580   7.612   0.868   6.698
10546TIP3    H131581   7.563   0.926   6.756
10546TIP3    H231582   7.649   0.926   6.632
10547TIP3   OH231583   4.350   1.603   1.536
10547TIP3    H131584   4.364   1.519   1.493
10547TIP3    H231585   4.283   1.586   1.602
10548TIP3   OH231586   1.417   5.437   3.581
10548TIP3    H131587   1.470   5.500   3.630
10548TIP3    H231588   1.358   5.491   3.529
10549TIP3   OH231589   5.900   2.988   1.175
10549TIP3    H131590   5.888   3.007   1.082
10549TIP3    H231591   5.887   3.073   1.218
10550TIP3   OH231592   8.256   5.970   4.448
10550TIP3    H131593   8.231   5.981   4.357
10550TIP3    H231594   8.347   5.939   4.445
10551TIP3   OH231595   0.359   6.235   4.602
10551TIP3    H131596   0.424   6.180   4.557
10551TIP3    H231597   0.338   6.186   4.681
10552TIP3   OH231598   5.647   4.299   3.809
10552TIP3    H131599   5.716   4.232   3.806
10552TIP3    H231600   5.567   4.252   3.788
10553TIP3   OH231601   4.866   4.270   0.716
10553TIP3    H131602   4.953   4.292   0.681
10553TIP3    H231603   4.878   4.273   0.811
10554TIP3   OH231604   5.809   6.448   5.192
10554TIP3    H131605   5.773   6.536   5.203
10554TIP3    H231606   5.796   6.428   5.099
10555TIP3   OH231607   5.314   7.194   6.072
10555TIP3    H131608   5.244   7.239   6.118
10555TIP3    H231609   5.375   7.167   6.140
10556TIP3   OH231610   8.252   7.156   3.455
10556TIP3    H131611   8.237   7.223   3.389
10556TIP3    H231612   8.251   7.203   3.538
10557TIP3   OH231613   8.219   5.610   4.593
10557TIP3    H131614   8.280   5.661   4.646
10557TIP3    H231615   8.273   5.566   4.527
10558TIP3   OH231616   3.561   1.488   2.054
10558TIP3    H131617   3.492   1.547   2.022
10558TIP3    H231618   3.565   1.506   2.148
10559TIP3   OH231619   0.851   3.401   3.957
10559TIP3    H131620   0.867   3.317   3.999
10559TIP3    H231621   0.883   3.389   3.867
10560TIP3   OH231622   3.727   3.121   5.134
10560TIP3    H131623   3.689   3.197   5.090
10560TIP3    H231624   3.705   3.134   5.226
10561TIP3   OH231625   5.574   4.172   3.467
10561TIP3    H131626   5.609   4.132   3.387
10561TIP3    H231627   5.620   4.256   3.473
10562TIP3   OH231628   0.935   0.426   4.847
10562TIP3    H131629   0.841   0.430   4.865
10562TIP3    H231630   0.954   0.333   4.835
10563TIP3   OH231631   6.187   7.591   4.710
10563TIP3    H131632   6.224   7.624   4.628
10563TIP3    H231633   6.092   7.588   4.695
10564TIP3   OH231634   6.942   4.743   6.715
10564TIP3    H131635   6.972   4.679   6.780
10564TIP3    H231636   6.936   4.694   6.633
10565TIP3   OH231637   4.975   1.665   4.280
10565TIP3    H131638   4.998   1.757   4.268
10565TIP3    H231639   4.895   1.666   4.332
10566TIP3   OH231640   0.816   3.263   3.441
10566TIP3    H131641   0.877   3.195   3.411
10566TIP3    H231642   0.839   3.340   3.389
10567TIP3   OH231643   1.255   1.136   1.018
10567TIP3    H131644   1.297   1.150   1.103
10567TIP3    H231645   1.162   1.130   1.037
10568TIP3   OH231646   7.234   7.727   4.441
10568TIP3    H131647   7.278   7.717   4.356
10568TIP3    H231648   7.248   7.643   4.485
10569TIP3   OH231649   1.241   5.202   4.190
10569TIP3    H131650   1.147   5.215   4.176
10569TIP3    H231651   1.281   5.282   4.158
10570TIP3   OH231652   1.151   1.425   3.545
10570TIP3    H131653   1.149   1.372   3.624
10570TIP3    H231654   1.062   1.459   3.537
10571TIP3   OH231655   6.004   7.600   5.374
10571TIP3    H131656   6.099   7.614   5.380
10571TIP3    H231657   5.994   7.531   5.309
10572TIP3   OH231658   7.956   4.533   4.323
10572TIP3    H131659   7.984   4.582   4.400
10572TIP3    H231660   7.947   4.599   4.255
10573TIP3   OH231661   1.344   1.292   4.004
10573TIP3    H131662   1.321   1.337   4.086
10573TIP3    H231663   1.438   1.307   3.994
10574TIP3   OH231664   3.516   3.267   0.978
10574TIP3    H131665   3.584   3.207   0.949
10574TIP3    H231666   3.542   3.290   1.068
10575TIP3   OH231667   3.454   2.548   2.630
10575TIP3    H131668   3.532   2.494   2.647
10575TIP3    H231669   3.445   2.547   2.535
10576TIP3   OH231670   7.616   5.738   1.043
10576TIP3    H131671   7.688   5.674   1.050
10576TIP3    H231672   7.614   5.781   1.128
10577TIP3   OH231673   1.415   7.528   4.784
10577TIP3    H131674   1.445   7.610   4.744
10577TIP3    H231675   1.486   7.503   4.843
10578TIP3   OH231676   3.895   3.599   2.590
10578TIP3    H131677   3.838   3.666   2.627
10578TIP3    H231678   3.936   3.557   2.665
10579TIP3   OH231679   1.934   6.806  -0.028
10579TIP3    H131680   1.973   6.766   0.050
10579TIP3    H231681   1.840   6.796  -0.014
10580TIP3   OH231682   6.028   2.574   5.699
10580TIP3    H131683   6.014   2.496   5.647
10580TIP3    H231684   5.952   2.579   5.757
10581TIP3   OH231685   0.645   2.135   4.248
10581TIP3    H131686   0.663   2.093   4.332
10581TIP3    H231687   0.567   2.188   4.264
10582TIP3   OH231688   2.194   6.840   1.382
10582TIP3    H131689   2.231   6.924   1.408
10582TIP3    H231690   2.161   6.802   1.463
10583TIP3   OH231691   0.649   1.859   3.387
10583TIP3    H131692   0.740   1.880   3.365
10583TIP3    H231693   0.597   1.907   3.324
10584TIP3   OH231694   7.223   6.304   3.185
10584TIP3    H131695   7.264   6.326   3.102
10584TIP3    H231696   7.291   6.257   3.234
10585TIP3   OH231697   6.724   6.062   1.805
10585TIP3    H131698   6.741   6.049   1.712
10585TIP3    H231699   6.808   6.089   1.841
10586TIP3   OH231700   4.536   7.062   0.096
10586TIP3    H131701   4.481   6.984   0.092
10586TIP3    H231702   4.558   7.081   0.005
10587TIP3   OH231703   1.988   5.503   1.009
10587TIP3    H131704   2.015   5.477   0.920
10587TIP3    H231705   2.001   5.423   1.061
10588TIP3   OH231706   1.563   2.237   2.426
10588TIP3    H131707   1.642   2.269   2.382
10588TIP3    H231708   1.568   2.142   2.418
10589TIP3   OH231709   6.812   0.027   5.685
10589TIP3    H131710   6.815   0.024   5.781
10589TIP3    H231711   6.812  -0.065   5.658
10590TIP3   OH231712   4.530   3.327   5.497
10590TIP3    H131713   4.487   3.249   5.461
10590TIP3    H231714   4.596   3.292   5.557
10591TIP3   OH231715   0.372   5.731   3.063
10591TIP3    H131716   0.445   5.758   3.007
10591TIP3    H231717   0.362   5.638   3.047
10592TIP3   OH231718   2.466   3.816   4.167
10592TIP3    H131719   2.377   3.823   4.133
10592TIP3    H231720   2.475   3.889   4.227
10593TIP3   OH231721   4.825   1.815   3.092
10593TIP3    H131722   4.764   1.785   3.159
10593TIP3    H231723   4.869   1.890   3.133
10594TIP3   OH231724   2.385   6.233   5.137
10594TIP3    H131725   2.349   6.153   5.099
10594TIP3    H231726   2.441   6.203   5.208
10595TIP3   OH231727   0.417   1.614   2.524
10595TIP3    H131728   0.491   1.555   2.510
10595TIP3    H231729   0.340   1.557   2.525
10596TIP3   OH231730   2.170   4.090   0.200
10596TIP3    H131731   2.239   4.155   0.217
10596TIP3    H231732   2.175   4.030   0.274
10597TIP3   OH231733   3.562   7.131   3.603
10597TIP3    H131734   3.536   7.041   3.585
10597TIP3    H231735   3.523   7.151   3.688
10598TIP3   OH231736   4.344   0.738   2.388
10598TIP3    H131737   4.316   0.689   2.465
10598TIP3    H231738   4.364   0.671   2.323
10599TIP3   OH231739   2.934   0.972   4.995
10599TIP3    H131740   2.983   1.036   4.943
10599TIP3    H231741   2.861   1.023   5.032
10600TIP3   OH231742   5.945   3.197   1.544
10600TIP3    H131743   5.916   3.220   1.456
10600TIP3    H231744   5.879   3.137   1.577
10601TIP3   OH231745   2.086   1.375   4.295
10601TIP3    H131746   2.151   1.307   4.277
10601TIP3    H231747   2.084   1.428   4.215
10602TIP3   OH231748   8.179   5.909   5.194
10602TIP3    H131749   8.265   5.879   5.162
10602TIP3    H231750   8.184   6.004   5.189
10603TIP3   OH231751   5.133   1.070   2.169
10603TIP3    H131752   5.068   1.074   2.099
10603TIP3    H231753   5.118   0.985   2.210
10604TIP3   OH231754   2.207   0.434   0.224
10604TIP3    H131755   2.116   0.461   0.212
10604TIP3    H231756   2.220   0.363   0.162
10605TIP3   OH231757   0.428   4.622   6.731
10605TIP3    H131758   0.458   4.622   6.822
10605TIP3    H231759   0.499   4.663   6.682
10606TIP3   OH231760   4.032   5.712   4.864
10606TIP3    H131761   4.005   5.785   4.809
10606TIP3    H231762   4.010   5.739   4.953
10607TIP3   OH231763   1.860   5.926   0.139
10607TIP3    H131764   1.887   5.900   0.227
10607TIP3    H231765   1.765   5.913   0.139
10608TIP3   OH231766   3.320   4.574   2.064
10608TIP3    H131767   3.319   4.540   1.975
10608TIP3    H231768   3.240   4.542   2.104
10609TIP3   OH231769   4.815   2.571   5.055
10609TIP3    H131770   4.739   2.623   5.031
10609TIP3    H231771   4.798   2.484   5.018
10610TIP3   OH231772   1.898   4.425   1.575
10610TIP3    H131773   1.848   4.451   1.652
10610TIP3    H231774   1.956   4.356   1.606
10611TIP3   OH231775   0.026   2.296   4.436
10611TIP3    H131776   0.101   2.287   4.378
10611TIP3    H231777   0.021   2.389   4.456
10612TIP3   OH231778   1.758   5.793   2.463
10612TIP3    H131779   1.706   5.859   2.417
10612TIP3    H231780   1.698   5.755   2.527
10613TIP3   OH231781   4.323   3.635   1.398
10613TIP3    H131782   4.254   3.585   1.355
10613TIP3    H231783   4.292   3.726   1.394
10614TIP3   OH231784   3.500   5.249   4.907
10614TIP3    H131785   3.507   5.158   4.937
10614TIP3    H231786   3.434   5.289   4.964
10615TIP3   OH231787   4.424   5.753   5.063
10615TIP3    H131788   4.463   5.820   5.119
10615TIP3    H231789   4.406   5.680   5.123
10616TIP3   OH231790   3.840   4.994   4.769
10616TIP3    H131791   3.828   5.086   4.745
10616TIP3    H231792   3.785   4.983   4.847
10617TIP3   OH231793   1.127   5.478   6.418
10617TIP3    H131794   1.184   5.498   6.344
10617TIP3    H231795   1.050   5.437   6.378
10618TIP3   OH231796   3.852   4.293   1.341
10618TIP3    H131797   3.858   4.363   1.276
10618TIP3    H231798   3.916   4.228   1.312
10619TIP3   OH231799   0.856   3.148   1.692
10619TIP3    H131800   0.863   3.118   1.601
10619TIP3    H231801   0.831   3.240   1.684
10620TIP3   OH231802   0.841   6.475   3.698
10620TIP3    H131803   0.793   6.556   3.684
10620TIP3    H231804   0.786   6.407   3.659
10621TIP3   OH231805   2.213   2.484   0.146
10621TIP3    H131806   2.142   2.543   0.124
10621TIP3    H231807   2.226   2.495   0.240
10622TIP3   OH231808   8.020   1.707   6.623
10622TIP3    H131809   8.114   1.717   6.608
10622TIP3    H231810   7.979   1.765   6.559
10623TIP3   OH231811   6.215   3.712   1.577
10623TIP3    H131812   6.178   3.798   1.558
10623TIP3    H231813   6.178   3.688   1.662
10624TIP3   OH231814   8.241   1.776   5.647
10624TIP3    H131815   8.160   1.804   5.604
10624TIP3    H231816   8.311   1.813   5.592
10625TIP3   OH231817   2.993   2.550   2.379
10625TIP3    H131818   2.933   2.480   2.406
10625TIP3    H231819   2.963   2.627   2.429
10626TIP3   OH231820   5.128   7.741   4.039
10626TIP3    H131821   5.211   7.789   4.042
10626TIP3    H231822   5.154   7.648   4.038
10627TIP3   OH231823   4.635   6.445   1.640
10627TIP3    H131824   4.610   6.352   1.641
10627TIP3    H231825   4.554   6.491   1.619
10628TIP3   OH231826   7.434   0.954   5.546
10628TIP3    H131827   7.424   1.007   5.466
10628TIP3    H231828   7.368   0.990   5.606
10629TIP3   OH231829   8.133   6.498   3.642
10629TIP3    H131830   8.074   6.536   3.577
10629TIP3    H231831   8.160   6.572   3.696
10630TIP3   OH231832   4.366   2.805   1.222
10630TIP3    H131833   4.417   2.745   1.275
10630TIP3    H231834   4.275   2.789   1.246
10631TIP3   OH231835   0.240   7.307   1.177
10631TIP3    H131836   0.284   7.263   1.104
10631TIP3    H231837   0.310   7.326   1.239
10632TIP3   OH231838   6.316   5.935   2.137
10632TIP3    H131839   6.273   5.911   2.055
10632TIP3    H231840   6.247   5.976   2.189
10633TIP3   OH231841   2.932   1.466   3.871
10633TIP3    H131842   2.894   1.381   3.895
10633TIP3    H231843   2.874   1.500   3.803
10634TIP3   OH231844   8.012   5.472   6.007
10634TIP3    H131845   7.963   5.489   5.926
10634TIP3    H231846   7.954   5.503   6.076
10635TIP3   OH231847   1.590   1.050   5.495
10635TIP3    H131848   1.550   1.013   5.416
10635TIP3    H231849   1.566   1.143   5.492
10636TIP3   OH231850   4.378   1.600   0.231
10636TIP3    H131851   4.368   1.692   0.205
10636TIP3    H231852   4.397   1.604   0.325
10637TIP3   OH231853   1.291   6.755   2.139
10637TIP3    H131854   1.211   6.788   2.181
10637TIP3    H231855   1.269   6.750   2.046
10638TIP3   OH231856   6.460   0.482   0.638
10638TIP3    H131857   6.487   0.486   0.546
10638TIP3    H231858   6.432   0.391   0.650
10639TIP3   OH231859   1.425   2.293   4.741
10639TIP3    H131860   1.384   2.379   4.749
10639TIP3    H231861   1.370   2.246   4.678
10640TIP3   OH231862   0.028   0.322   6.737
10640TIP3    H131863   0.024   0.392   6.673
10640TIP3    H231864   0.026   0.241   6.685
10641TIP3   OH231865   0.974   5.457   6.027
10641TIP3    H131866   0.983   5.365   6.053
10641TIP3    H231867   0.901   5.489   6.080
10642TIP3   OH231868   1.184   1.704   1.107
10642TIP3    H131869   1.257   1.643   1.118
10642TIP3    H231870   1.183   1.724   1.013
10643TIP3   OH231871   8.231   3.098   3.878
10643TIP3    H131872   8.183   3.018   3.859
10643TIP3    H231873   8.322   3.077   3.856
10644TIP3   OH231874   2.807   1.431   1.318
10644TIP3    H131875   2.718   1.397   1.315
10644TIP3    H231876   2.797   1.522   1.345
10645TIP3   OH231877   1.087   1.609   6.668
10645TIP3    H131878   1.172   1.647   6.648
10645TIP3    H231879   1.106   1.525   6.709
10646TIP3   OH231880   2.719   4.852   2.257
10646TIP3    H131881   2.781   4.801   2.310
10646TIP3    H231882   2.724   4.812   2.170
10647TIP3   OH231883   3.602   0.909   2.230
10647TIP3    H131884   3.590   0.815   2.216
10647TIP3    H231885   3.693   0.926   2.206
10648TIP3   OH231886   5.478   0.933   4.107
10648TIP3    H131887   5.565   0.953   4.141
10648TIP3    H231888   5.487   0.844   4.071
10649TIP3   OH231889   1.496   3.258   3.498
10649TIP3    H131890   1.479   3.351   3.516
10649TIP3    H231891   1.569   3.259   3.435
10650TIP3   OH231892   2.635   3.284   2.719
10650TIP3    H131893   2.555   3.252   2.763
10650TIP3    H231894   2.605   3.311   2.632
10651TIP3   OH231895   2.435   2.301   0.982
10651TIP3    H131896   2.386   2.323   1.061
10651TIP3    H231897   2.373   2.318   0.911
10652TIP3   OH231898   5.843   0.703   3.543
10652TIP3    H131899   5.934   0.689   3.516
10652TIP3    H231900   5.827   0.634   3.608
10653TIP3   OH231901   1.302   3.078   2.350
10653TIP3    H131902   1.209   3.102   2.351
10653TIP3    H231903   1.305   2.992   2.390
10654TIP3   OH231904   2.526   3.985   0.348
10654TIP3    H131905   2.607   3.953   0.389
10654TIP3    H231906   2.457   3.935   0.390
10655TIP3   OH231907   6.643   7.230   6.380
10655TIP3    H131908   6.653   7.250   6.287
10655TIP3    H231909   6.645   7.316   6.423
10656TIP3   OH231910   4.758   3.387   3.527
10656TIP3    H131911   4.664   3.379   3.546
10656TIP3    H231912   4.775   3.320   3.461
10657TIP3   OH231913   1.472   5.728   5.079
10657TIP3    H131914   1.542   5.716   5.143
10657TIP3    H231915   1.496   5.669   5.007
10658TIP3   OH231916   0.429   4.547   5.306
10658TIP3    H131917   0.480   4.603   5.364
10658TIP3    H231918   0.386   4.485   5.364
10659TIP3   OH231919   1.978   2.340   2.502
10659TIP3    H131920   2.021   2.414   2.545
10659TIP3    H231921   1.955   2.281   2.574
10660TIP3   OH231922   2.946   1.690   6.209
10660TIP3    H131923   2.851   1.696   6.213
10660TIP3    H231924   2.964   1.608   6.163
10661TIP3   OH231925   5.477   3.079   2.849
10661TIP3    H131926   5.507   2.988   2.848
10661TIP3    H231927   5.548   3.129   2.808
10662TIP3   OH231928   7.014   6.988   1.167
10662TIP3    H131929   7.049   6.967   1.080
10662TIP3    H231930   6.920   6.968   1.161
10663TIP3   OH231931   3.797   2.150   5.857
10663TIP3    H131932   3.729   2.109   5.804
10663TIP3    H231933   3.860   2.080   5.874
10664TIP3   OH231934   1.877   7.064   4.371
10664TIP3    H131935   1.824   7.002   4.321
10664TIP3    H231936   1.948   7.089   4.312
10665TIP3   OH231937   5.314   7.176   5.463
10665TIP3    H131938   5.325   7.237   5.536
10665TIP3    H231939   5.252   7.110   5.496
10666TIP3   OH231940   1.452   0.543   3.097
10666TIP3    H131941   1.481   0.494   3.020
10666TIP3    H231942   1.371   0.585   3.069
10667TIP3   OH231943   2.859   0.843   1.662
10667TIP3    H131944   2.876   0.916   1.602
10667TIP3    H231945   2.793   0.877   1.723
10668TIP3   OH231946   2.921   2.107   0.546
10668TIP3    H131947   2.987   2.045   0.516
10668TIP3    H231948   2.966   2.161   0.610
10669TIP3   OH231949   1.214   0.723   5.650
10669TIP3    H131950   1.146   0.760   5.593
10669TIP3    H231951   1.170   0.705   5.732
10670TIP3   OH231952   1.039   1.143   0.364
10670TIP3    H131953   1.070   1.053   0.351
10670TIP3    H231954   0.981   1.137   0.440
10671TIP3   OH231955   6.548   5.153   1.721
10671TIP3    H131956   6.614   5.151   1.653
10671TIP3    H231957   6.470   5.114   1.681
10672TIP3   OH231958   5.967   4.276   3.077
10672TIP3    H131959   6.020   4.306   3.151
10672TIP3    H231960   5.976   4.181   3.079
10673TIP3   OH231961   0.606   0.670   1.773
10673TIP3    H131962   0.514   0.658   1.747
10673TIP3    H231963   0.601   0.685   1.868
10674TIP3   OH231964   7.481   3.918  -0.009
10674TIP3    H131965   7.509   4.001  -0.049
10674TIP3    H231966   7.517   3.921   0.079
10675TIP3   OH231967   0.825   4.015   4.115
10675TIP3    H131968   0.760   3.959   4.073
10675TIP3    H231969   0.805   4.009   4.209
10676TIP3   OH231970   4.510   2.280   3.340
10676TIP3    H131971   4.478   2.305   3.254
10676TIP3    H231972   4.482   2.351   3.398
10677TIP3   OH231973   3.114   5.556   6.491
10677TIP3    H131974   3.051   5.527   6.425
10677TIP3    H231975   3.061   5.595   6.560
10678TIP3   OH231976   4.305   0.058   3.511
10678TIP3    H131977   4.270   0.148   3.511
10678TIP3    H231978   4.267   0.018   3.432
10679TIP3   OH231979   7.981   0.725   0.271
10679TIP3    H131980   7.916   0.654   0.273
10679TIP3    H231981   8.022   0.718   0.185
10680TIP3   OH231982   6.043   3.376   3.680
10680TIP3    H131983   6.061   3.421   3.763
10680TIP3    H231984   6.130   3.363   3.641
10681TIP3   OH231985   1.016   7.432   3.811
10681TIP3    H131986   0.984   7.349   3.846
10681TIP3    H231987   1.012   7.422   3.716
10682TIP3   OH231988   4.233   2.772   2.890
10682TIP3    H131989   4.285   2.765   2.810
10682TIP3    H231990   4.219   2.866   2.901
10683TIP3   OH231991   5.629   3.440   4.316
10683TIP3    H131992   5.612   3.446   4.410
10683TIP3    H231993   5.549   3.401   4.280
10684TIP3   OH231994   6.870   3.927   1.668
10684TIP3    H131995   6.831   3.938   1.754
10684TIP3    H231996   6.923   3.848   1.675
10685TIP3   OH231997   5.195   4.409   1.351
10685TIP3    H131998   5.160   4.370   1.431
10685TIP3    H231999   5.121   4.410   1.290
10686TIP3   OH232000   4.000   0.222   2.656
10686TIP3    H132001   3.944   0.145   2.666
10686TIP3    H232002   4.049   0.227   2.739
10687TIP3   OH232003   1.926   1.124   2.225
10687TIP3    H132004   1.912   1.034   2.256
10687TIP3    H232005   1.869   1.132   2.149
10688TIP3   OH232006   3.446   3.117   2.542
10688TIP3    H132007   3.454   3.181   2.471
10688TIP3    H232008   3.364   3.071   2.523
10689TIP3   OH232009   5.132   0.404   2.273
10689TIP3    H132010   5.085   0.343   2.330
10689TIP3    H232011   5.164   0.350   2.201
10690TIP3   OH232012   2.643   6.009   6.495
10690TIP3    H132013   2.694   5.979   6.571
10690TIP3    H232014   2.697   5.986   6.419
10691TIP3   OH232015   2.832   7.471   0.208
10691TIP3    H132016   2.859   7.538   0.145
10691TIP3    H232017   2.750   7.437   0.172
10692TIP3   OH232018   4.156   1.917   2.267
10692TIP3    H132019   4.180   1.884   2.353
10692TIP3    H232020   4.133   2.009   2.282
10693TIP3   OH232021   4.940   1.356   0.423
10693TIP3    H132022   4.866   1.347   0.363
10693TIP3    H232023   4.901   1.396   0.502
10694TIP3   OH232024   0.644   3.397   5.726
10694TIP3    H132025   0.584   3.373   5.655
10694TIP3    H232026   0.597   3.464   5.775
10695TIP3   OH232027   4.416   2.593   5.850
10695TIP3    H132028   4.327   2.560   5.864
10695TIP3    H232029   4.440   2.558   5.764
10696TIP3   OH232030   3.879   4.662   5.018
10696TIP3    H132031   3.814   4.606   4.975
10696TIP3    H232032   3.955   4.661   4.960
10697TIP3   OH232033   1.827   0.627   2.541
10697TIP3    H132034   1.765   0.581   2.598
10697TIP3    H232035   1.854   0.703   2.592
10698TIP3   OH232036   6.728   0.872   1.506
10698TIP3    H132037   6.635   0.871   1.482
10698TIP3    H232038   6.743   0.786   1.546
10699TIP3   OH232039   1.495   0.730   0.633
10699TIP3    H132040   1.485   0.782   0.553
10699TIP3    H232041   1.405   0.717   0.664
10700TIP3   OH232042   6.407   3.308   1.016
10700TIP3    H132043   6.323   3.337   0.982
10700TIP3    H232044   6.391   3.294   1.110
10701TIP3   OH232045   4.256   6.279   3.660
10701TIP3    H132046   4.309   6.314   3.589
10701TIP3    H232047   4.276   6.335   3.735
10702TIP3   OH232048   6.885   2.725   6.556
10702TIP3    H132049   6.914   2.648   6.604
10702TIP3    H232050   6.927   2.798   6.600
10703TIP3   OH232051   8.098   4.158   2.311
10703TIP3    H132052   8.149   4.238   2.324
10703TIP3    H232053   8.020   4.170   2.366
10704TIP3   OH232054   2.209   4.786   0.580
10704TIP3    H132055   2.143   4.819   0.641
10704TIP3    H232056   2.292   4.801   0.625
10705TIP3   OH232057   7.059   5.653   3.214
10705TIP3    H132058   7.109   5.658   3.296
10705TIP3    H232059   7.069   5.562   3.187
10706TIP3   OH232060   6.740   3.141   2.052
10706TIP3    H132061   6.677   3.180   2.112
10706TIP3    H232062   6.735   3.196   1.974
10707TIP3   OH232063   0.175   5.429   6.060
10707TIP3    H132064   0.143   5.440   6.150
10707TIP3    H232065   0.270   5.428   6.068
10708TIP3   OH232066   7.363   3.076   5.513
10708TIP3    H132067   7.390   3.052   5.425
10708TIP3    H232068   7.348   3.170   5.509
10709TIP3   OH232069   1.677   5.393   3.437
10709TIP3    H132070   1.735   5.410   3.512
10709TIP3    H232071   1.596   5.439   3.459
10710TIP3   OH232072   2.697   4.061   3.991
10710TIP3    H132073   2.736   4.021   3.913
10710TIP3    H232074   2.613   4.096   3.960
10711TIP3   OH232075   4.308   0.747   4.196
10711TIP3    H132076   4.385   0.802   4.211
10711TIP3    H232077   4.297   0.698   4.277
10712TIP3   OH232078   4.905   0.095   2.027
10712TIP3    H132079   4.934   0.140   1.947
10712TIP3    H232080   4.844   0.155   2.068
10713TIP3   OH232081   3.762   0.588   1.250
10713TIP3    H132082   3.855   0.607   1.238
10713TIP3    H232083   3.729   0.571   1.161
10714TIP3   OH232084   0.575   0.968   2.416
10714TIP3    H132085   0.623   1.032   2.468
10714TIP3    H232086   0.517   0.925   2.479
10715TIP3   OH232087   5.728   6.660   0.341
10715TIP3    H132088   5.811   6.705   0.358
10715TIP3    H232089   5.697   6.697   0.258
10716TIP3   OH232090   2.950   0.872   3.558
10716TIP3    H132091   2.855   0.868   3.548
10716TIP3    H232092   2.973   0.961   3.533
10717TIP3   OH232093   0.776   7.318   3.550
10717TIP3    H132094   0.742   7.381   3.614
10717TIP3    H232095   0.861   7.354   3.525
10718TIP3   OH232096   1.621   5.231   6.365
10718TIP3    H132097   1.650   5.316   6.399
10718TIP3    H232098   1.701   5.189   6.333
10719TIP3   OH232099   0.936   5.787   3.902
10719TIP3    H132100   0.986   5.762   3.825
10719TIP3    H232101   0.899   5.872   3.879
10720TIP3   OH232102   5.317   7.357   2.051
10720TIP3    H132103   5.310   7.268   2.085
10720TIP3    H232104   5.377   7.350   1.977
10721TIP3   OH232105   7.201   1.647   1.419
10721TIP3    H132106   7.297   1.654   1.413
10721TIP3    H232107   7.182   1.557   1.395
10722TIP3   OH232108   6.220   5.374   5.067
10722TIP3    H132109   6.135   5.335   5.085
10722TIP3    H232110   6.201   5.464   5.041
10723TIP3   OH232111   0.128   2.108   1.735
10723TIP3    H132112   0.214   2.141   1.761
10723TIP3    H232113   0.147   2.026   1.689
10724TIP3   OH232114   2.646   3.443   1.434
10724TIP3    H132115   2.593   3.515   1.468
10724TIP3    H232116   2.732   3.483   1.418
10725TIP3   OH232117   6.482   6.166   1.330
10725TIP3    H132118   6.555   6.110   1.304
10725TIP3    H232119   6.523   6.250   1.352
10726TIP3   OH232120   1.237   5.687   4.798
10726TIP3    H132121   1.237   5.626   4.872
10726TIP3    H232122   1.145   5.709   4.785
10727TIP3   OH232123   4.978   3.120   3.418
10727TIP3    H132124   4.884   3.113   3.435
10727TIP3    H232125   5.017   3.057   3.478
10728TIP3   OH232126   2.443   1.133   6.439
10728TIP3    H132127   2.354   1.136   6.402
10728TIP3    H232128   2.439   1.192   6.514
10729TIP3   OH232129   2.711   3.384   5.014
10729TIP3    H132130   2.805   3.397   5.001
10729TIP3    H232131   2.670   3.454   4.963
10730TIP3   OH232132   5.973   7.590   6.369
10730TIP3    H132133   6.040   7.525   6.348
10730TIP3    H232134   5.990   7.662   6.308
10731TIP3   OH232135   4.895   7.594   3.667
10731TIP3    H132136   4.874   7.544   3.745
10731TIP3    H232137   4.862   7.682   3.685
10732TIP3   OH232138   6.677   4.585   3.924
10732TIP3    H132139   6.608   4.559   3.984
10732TIP3    H232140   6.754   4.596   3.979
10733TIP3   OH232141   2.782   5.628   0.174
10733TIP3    H132142   2.811   5.555   0.119
10733TIP3    H232143   2.698   5.599   0.209
10734TIP3   OH232144   4.159   5.307   5.654
10734TIP3    H132145   4.226   5.239   5.659
10734TIP3    H232146   4.200   5.384   5.694
10735TIP3   OH232147   6.235   3.240   2.460
10735TIP3    H132148   6.147   3.209   2.480
10735TIP3    H232149   6.221   3.318   2.406
10736TIP3   OH232150   8.255   1.508   6.191
10736TIP3    H132151   8.163   1.528   6.209
10736TIP3    H232152   8.251   1.437   6.127
10737TIP3   OH232153   4.572   6.890   1.049
10737TIP3    H132154   4.518   6.815   1.024
10737TIP3    H232155   4.654   6.851   1.079
10738TIP3   OH232156   6.206   6.795   0.241
10738TIP3    H132157   6.195   6.791   0.336
10738TIP3    H232158   6.274   6.730   0.222
10739TIP3   OH232159   6.532   4.542   2.962
10739TIP3    H132160   6.572   4.607   2.904
10739TIP3    H232161   6.595   4.470   2.963
10740TIP3   OH232162   7.536   6.690   4.052
10740TIP3    H132163   7.564   6.779   4.076
10740TIP3    H232164   7.582   6.671   3.970
10741TIP3   OH232165   6.308   5.691   6.042
10741TIP3    H132166   6.228   5.723   6.083
10741TIP3    H232167   6.311   5.735   5.957
10742TIP3   OH232168   2.098   3.961   5.617
10742TIP3    H132169   2.084   3.883   5.671
10742TIP3    H232170   2.182   3.945   5.575
10743TIP3   OH232171   3.543   6.772   4.256
10743TIP3    H132172   3.624   6.749   4.301
10743TIP3    H232173   3.539   6.712   4.182
10744TIP3   OH232174   3.511   4.956   4.142
10744TIP3    H132175   3.583   5.012   4.168
10744TIP3    H232176   3.549   4.869   4.135
10745TIP3   OH232177   5.716   1.835   3.355
10745TIP3    H132178   5.762   1.756   3.328
10745TIP3    H232179   5.771   1.872   3.425
10746TIP3   OH232180   7.118   5.894   2.562
10746TIP3    H132181   7.193   5.871   2.508
10746TIP3    H232182   7.142   5.976   2.604
10747TIP3   OH232183   4.499   2.349   4.795
10747TIP3    H132184   4.482   2.348   4.889
10747TIP3    H232185   4.434   2.409   4.759
10748TIP3   OH232186   7.685   0.891   1.460
10748TIP3    H132187   7.731   0.966   1.498
10748TIP3    H232188   7.728   0.875   1.376
10749TIP3   OH232189   2.164   7.200   4.343
10749TIP3    H132190   2.257   7.179   4.333
10749TIP3    H232191   2.158   7.237   4.431
10750TIP3   OH232192   2.244   1.590   2.438
10750TIP3    H132193   2.308   1.560   2.503
10750TIP3    H232194   2.284   1.569   2.354
10751TIP3   OH232195   0.467   5.522   2.164
10751TIP3    H132196   0.423   5.516   2.248
10751TIP3    H232197   0.537   5.457   2.169
10752TIP3   OH232198   4.033   6.919   1.206
10752TIP3    H132199   3.992   6.872   1.134
10752TIP3    H232200   3.983   6.894   1.284
10753TIP3   OH232201   6.991   5.702   5.736
10753TIP3    H132202   6.974   5.623   5.685
10753TIP3    H232203   6.905   5.737   5.758
10754TIP3   OH232204   3.695   2.334   3.701
10754TIP3    H132205   3.754   2.262   3.681
10754TIP3    H232206   3.723   2.365   3.788
10755TIP3   OH232207   5.645   7.242   3.354
10755TIP3    H132208   5.690   7.276   3.431
10755TIP3    H232209   5.568   7.197   3.390
10756TIP3   OH232210   5.466   6.919   5.541
10756TIP3    H132211   5.494   6.949   5.454
10756TIP3    H232212   5.544   6.927   5.595
10757TIP3   OH232213   5.618   0.698   5.248
10757TIP3    H132214   5.583   0.627   5.194
10757TIP3    H232215   5.555   0.769   5.237
10758TIP3   OH232216   5.860   0.304   0.561
10758TIP3    H132217   5.909   0.228   0.530
10758TIP3    H232218   5.894   0.377   0.508
10759TIP3   OH232219   5.229   0.218   2.080
10759TIP3    H132220   5.196   0.158   2.013
10759TIP3    H232221   5.291   0.166   2.131
10760TIP3   OH232222   8.188   5.469   3.673
10760TIP3    H132223   8.250   5.541   3.665
10760TIP3    H232224   8.201   5.436   3.762
10761TIP3   OH232225   4.152   2.009   2.786
10761TIP3    H132226   4.168   1.971   2.873
10761TIP3    H232227   4.166   1.936   2.726
10762TIP3   OH232228   3.821   0.540   0.982
10762TIP3    H132229   3.763   0.494   0.920
10762TIP3    H232230   3.875   0.596   0.926
10763TIP3   OH232231   3.400   2.608   4.740
10763TIP3    H132232   3.394   2.695   4.779
10763TIP3    H232233   3.326   2.560   4.777
10764TIP3   OH232234   1.231   3.817   3.976
10764TIP3    H132235   1.282   3.782   4.048
10764TIP3    H232236   1.294   3.829   3.905
10765TIP3   OH232237   6.378   3.890   0.237
10765TIP3    H132238   6.371   3.949   0.313
10765TIP3    H232239   6.288   3.885   0.203
10766TIP3   OH232240   0.807   5.025   2.040
10766TIP3    H132241   0.727   5.028   2.092
10766TIP3    H232242   0.784   4.968   1.966
10767TIP3   OH232243   6.017   1.004   4.036
10767TIP3    H132244   6.100   1.044   4.061
10767TIP3    H232245   5.963   1.077   4.005
10768TIP3   OH232246   4.448   7.206   5.516
10768TIP3    H132247   4.537   7.175   5.499
10768TIP3    H232248   4.440   7.286   5.465
10769TIP3   OH232249   2.677   4.088   2.201
10769TIP3    H132250   2.643   4.103   2.113
10769TIP3    H232251   2.600   4.064   2.252
10770TIP3   OH232252   0.661   7.340   0.682
10770TIP3    H132253   0.665   7.425   0.637
10770TIP3    H232254   0.742   7.296   0.656
10771TIP3   OH232255   4.314   4.746   1.987
10771TIP3    H132256   4.369   4.692   1.930
10771TIP3    H232257   4.365   4.754   2.068
10772TIP3   OH232258   4.204   4.833   1.383
10772TIP3    H132259   4.220   4.792   1.468
10772TIP3    H232260   4.171   4.920   1.404
10773TIP3   OH232261   0.816   7.070   4.177
10773TIP3    H132262   0.903   7.091   4.209
10773TIP3    H232263   0.767   7.042   4.254
10774TIP3   OH232264   1.491   5.269   3.799
10774TIP3    H132265   1.503   5.334   3.868
10774TIP3    H232266   1.499   5.318   3.718
10775TIP3   OH232267   1.721   2.676   1.522
10775TIP3    H132268   1.704   2.673   1.428
10775TIP3    H232269   1.702   2.766   1.547
10776TIP3   OH232270   1.153   2.655   2.302
10776TIP3    H132271   1.182   2.724   2.242
10776TIP3    H232272   1.153   2.575   2.249
10777TIP3   OH232273   0.751   3.583   0.154
10777TIP3    H132274   0.806   3.621   0.085
10777TIP3    H232275   0.708   3.508   0.113
10778TIP3   OH232276   2.978   3.851   4.466
10778TIP3    H132277   2.899   3.872   4.416
10778TIP3    H232278   3.041   3.918   4.441
10779TIP3   OH232279   4.718   0.383   0.287
10779TIP3    H132280   4.775   0.412   0.215
10779TIP3    H232281   4.644   0.443   0.285
10780TIP3   OH232282   7.132   1.414   6.662
10780TIP3    H132283   7.210   1.426   6.716
10780TIP3    H232284   7.095   1.331   6.691
10781TIP3   OH232285   0.383   0.998   0.774
10781TIP3    H132286   0.367   0.904   0.780
10781TIP3    H232287   0.381   1.018   0.681
10782TIP3   OH232288   1.098   1.149   2.026
10782TIP3    H132289   1.165   1.083   2.010
10782TIP3    H232290   1.114   1.216   1.959
10783TIP3   OH232291   7.761   6.011   2.896
10783TIP3    H132292   7.742   5.930   2.944
10783TIP3    H232293   7.805   6.067   2.960
10784TIP3   OH232294   3.909   5.517   5.332
10784TIP3    H132295   3.925   5.540   5.424
10784TIP3    H232296   3.817   5.491   5.329
10785TIP3   OH232297   4.361   7.779   4.284
10785TIP3    H132298   4.399   7.828   4.358
10785TIP3    H232299   4.402   7.818   4.207
10786TIP3   OH232300   7.750   1.134   4.594
10786TIP3    H132301   7.787   1.117   4.681
10786TIP3    H232302   7.742   1.047   4.554
10787TIP3   OH232303   4.663   6.965   2.082
10787TIP3    H132304   4.735   6.990   2.024
10787TIP3    H232305   4.634   7.047   2.122
10788TIP3   OH232306   4.378   4.464   2.185
10788TIP3    H132307   4.448   4.527   2.203
10788TIP3    H232308   4.331   4.456   2.268
10789TIP3   OH232309   1.959   4.439   1.102
10789TIP3    H132310   1.908   4.471   1.176
10789TIP3    H232311   2.023   4.379   1.141
10790TIP3   OH232312   7.152   1.034   4.086
10790TIP3    H132313   7.224   1.031   4.149
10790TIP3    H232314   7.196   1.041   4.001
10791TIP3   OH232315   6.623   7.392   1.959
10791TIP3    H132316   6.549   7.391   2.019
10791TIP3    H232317   6.699   7.409   2.016
10792TIP3   OH232318   8.208   3.171   2.160
10792TIP3    H132319   8.142   3.115   2.120
10792TIP3    H232320   8.287   3.117   2.164
10793TIP3   OH232321   7.521   1.306   4.701
10793TIP3    H132322   7.448   1.292   4.641
10793TIP3    H232323   7.573   1.226   4.695
10794TIP3   OH232324   5.152   3.444   5.853
10794TIP3    H132325   5.089   3.484   5.793
10794TIP3    H232326   5.101   3.381   5.904
10795TIP3   OH232327   7.091   4.449   4.432
10795TIP3    H132328   7.059   4.539   4.422
10795TIP3    H232329   7.100   4.437   4.526
10796TIP3   OH232330   0.838   1.981   0.133
10796TIP3    H132331   0.828   2.019   0.220
10796TIP3    H232332   0.832   1.886   0.147
10797TIP3   OH232333   1.448   3.964   4.782
10797TIP3    H132334   1.380   3.933   4.722
10797TIP3    H232335   1.519   3.900   4.772
10798TIP3   OH232336   4.686   2.941   4.181
10798TIP3    H132337   4.633   2.862   4.188
10798TIP3    H232338   4.625   3.013   4.195
10799TIP3   OH232339   8.016   3.877   3.443
10799TIP3    H132340   8.093   3.820   3.440
10799TIP3    H232341   7.987   3.882   3.351
10800TIP3   OH232342   1.457   1.836   5.153
10800TIP3    H132343   1.484   1.765   5.211
10800TIP3    H232344   1.370   1.862   5.184
10801TIP3   OH232345   1.252   0.722   2.684
10801TIP3    H132346   1.164   0.753   2.704
10801TIP3    H232347   1.300   0.802   2.662
10802TIP3   OH232348   0.848   5.545   6.545
10802TIP3    H132349   0.863   5.633   6.580
10802TIP3    H232350   0.935   5.514   6.520
10803TIP3   OH232351   5.772   5.739   0.558
10803TIP3    H132352   5.793   5.734   0.652
10803TIP3    H232353   5.690   5.691   0.549
10804TIP3   OH232354   0.096   2.747   1.595
10804TIP3    H132355   0.156   2.728   1.522
10804TIP3    H232356   0.061   2.661   1.619
10805TIP3   OH232357   3.394   4.844   5.779
10805TIP3    H132358   3.396   4.779   5.849
10805TIP3    H232359   3.447   4.917   5.813
10806TIP3   OH232360   0.095   0.696   4.534
10806TIP3    H132361   0.153   0.707   4.458
10806TIP3    H232362   0.023   0.758   4.518
10807TIP3   OH232363   3.191   3.823   0.913
10807TIP3    H132364   3.205   3.894   0.849
10807TIP3    H232365   3.116   3.774   0.879
10808TIP3   OH232366   5.309   3.148   3.318
10808TIP3    H132367   5.307   3.171   3.225
10808TIP3    H232368   5.292   3.231   3.364
10809TIP3   OH232369   8.118   0.207   1.988
10809TIP3    H132370   8.024   0.193   1.996
10809TIP3    H232371   8.139   0.177   1.899
10810TIP3   OH232372   5.060   4.951   2.281
10810TIP3    H132373   5.102   5.009   2.217
10810TIP3    H232374   5.128   4.936   2.347
10811TIP3   OH232375   7.813   2.101   5.987
10811TIP3    H132376   7.863   2.183   5.983
10811TIP3    H232377   7.723   2.128   6.006
10812TIP3   OH232378   7.263   4.874   4.324
10812TIP3    H132379   7.311   4.919   4.254
10812TIP3    H232380   7.304   4.788   4.330
10813TIP3   OH232381   7.092   2.921   2.145
10813TIP3    H132382   7.148   2.945   2.071
10813TIP3    H232383   7.003   2.929   2.110
10814TIP3   OH232384   4.698   4.129   1.369
10814TIP3    H132385   4.654   4.060   1.320
10814TIP3    H232386   4.671   4.116   1.460
10815TIP3   OH232387   0.713   1.534   3.227
10815TIP3    H132388   0.654   1.486   3.285
10815TIP3    H232389   0.773   1.580   3.286
10816TIP3   OH232390   6.871   7.462   0.686
10816TIP3    H132391   6.947   7.444   0.630
10816TIP3    H232392   6.865   7.558   0.688
10817TIP3   OH232393   5.262   7.717   5.183
10817TIP3    H132394   5.209   7.641   5.207
10817TIP3    H232395   5.297   7.695   5.096
10818TIP3   OH232396   3.944   5.122   3.385
10818TIP3    H132397   3.890   5.059   3.433
10818TIP3    H232398   3.891   5.145   3.308
10819TIP3   OH232399   5.908   4.363   4.951
10819TIP3    H132400   5.972   4.293   4.964
10819TIP3    H232401   5.953   4.427   4.895
10820TIP3   OH232402   0.619   0.570   5.728
10820TIP3    H132403   0.619   0.661   5.697
10820TIP3    H232404   0.676   0.524   5.667
10821TIP3   OH232405   1.058   4.054   1.778
10821TIP3    H132406   1.033   4.146   1.774
10821TIP3    H232407   1.015   4.014   1.702
10822TIP3   OH232408   2.443   5.009   2.778
10822TIP3    H132409   2.444   5.083   2.717
10822TIP3    H232410   2.388   4.943   2.736
10823TIP3   OH232411   0.944   2.033   6.365
10823TIP3    H132412   1.003   2.006   6.295
10823TIP3    H232413   0.857   2.005   6.335
10824TIP3   OH232414   1.415   4.695   3.036
10824TIP3    H132415   1.428   4.608   2.997
10824TIP3    H232416   1.485   4.748   2.999
10825TIP3   OH232417   0.720   5.250   6.545
10825TIP3    H132418   0.674   5.331   6.521
10825TIP3    H232419   0.734   5.258   6.640
10826TIP3   OH232420   6.677   3.902   0.591
10826TIP3    H132421   6.718   3.849   0.659
10826TIP3    H232422   6.750   3.941   0.544
10827TIP3   OH232423   7.712   6.929   0.285
10827TIP3    H132424   7.656   6.981   0.228
10827TIP3    H232425   7.755   6.867   0.226
10828TIP3   OH232426   8.210   7.365   4.863
10828TIP3    H132427   8.254   7.431   4.810
10828TIP3    H232428   8.177   7.413   4.939
10829TIP3   OH232429   2.393   3.844   1.375
10829TIP3    H132430   2.330   3.777   1.401
10829TIP3    H232431   2.392   3.907   1.447
10830TIP3   OH232432   0.280   6.918   0.840
10830TIP3    H132433   0.239   6.930   0.755
10830TIP3    H232434   0.372   6.900   0.821
10831TIP3   OH232435   6.137   3.239   0.746
10831TIP3    H132436   6.219   3.200   0.714
10831TIP3    H232437   6.071   3.171   0.732
10832TIP3   OH232438   3.141   2.510   6.616
10832TIP3    H132439   3.180   2.548   6.694
10832TIP3    H232440   3.174   2.421   6.613
10833TIP3   OH232441   3.394   4.949   6.096
10833TIP3    H132442   3.396   4.856   6.074
10833TIP3    H232443   3.481   4.967   6.131
10834TIP3   OH232444   8.189   6.974   0.482
10834TIP3    H132445   8.190   6.896   0.427
10834TIP3    H232446   8.101   6.978   0.518
10835TIP3   OH232447   2.101   5.237   1.393
10835TIP3    H132448   2.034   5.201   1.452
10835TIP3    H232449   2.070   5.325   1.372
10836TIP3   OH232450   5.654   7.162   5.920
10836TIP3    H132451   5.594   7.113   5.977
10836TIP3    H232452   5.605   7.241   5.898
10837TIP3   OH232453   1.003   7.587   6.203
10837TIP3    H132454   0.950   7.528   6.149
10837TIP3    H232455   1.083   7.537   6.221
10838TIP3   OH232456   0.858   3.252   5.797
10838TIP3    H132457   0.909   3.307   5.738
10838TIP3    H232458   0.773   3.296   5.804
10839TIP3   OH232459   0.115   2.377   0.066
10839TIP3    H132460   0.102   2.295   0.019
10839TIP3    H232461   0.060   2.440   0.019
10840TIP3   OH232462   5.602   4.020   6.337
10840TIP3    H132463   5.657   4.052   6.408
10840TIP3    H232464   5.649   3.944   6.303
10841TIP3   OH232465   3.870   7.790   2.134
10841TIP3    H132466   3.774   7.797   2.129
10841TIP3    H232467   3.898   7.782   2.043
10842TIP3   OH232468   0.794   2.644   1.613
10842TIP3    H132469   0.746   2.598   1.544
10842TIP3    H232470   0.810   2.577   1.680
10843TIP3   OH232471   6.932   6.411   3.670
10843TIP3    H132472   7.007   6.455   3.710
10843TIP3    H232473   6.957   6.318   3.668
10844TIP3   OH232474   7.245   1.609   5.072
10844TIP3    H132475   7.212   1.643   4.989
10844TIP3    H232476   7.168   1.575   5.117
10845TIP3   OH232477   5.775   6.649   1.584
10845TIP3    H132478   5.727   6.671   1.504
10845TIP3    H232479   5.768   6.554   1.590
10846TIP3   OH232480   6.275   1.199   5.704
10846TIP3    H132481   6.241   1.220   5.617
10846TIP3    H232482   6.348   1.259   5.716
10847TIP3   OH232483   2.713   2.225   0.438
10847TIP3    H132484   2.755   2.295   0.388
10847TIP3    H232485   2.785   2.179   0.481
10848TIP3   OH232486   0.395   2.212   0.282
10848TIP3    H132487   0.486   2.190   0.264
10848TIP3    H232488   0.392   2.308   0.276
10849TIP3   OH232489   2.140   4.390   5.792
10849TIP3    H132490   2.052   4.398   5.754
10849TIP3    H232491   2.154   4.473   5.837
10850TIP3   OH232492   1.330   7.578   2.965
10850TIP3    H132493   1.353   7.504   3.022
10850TIP3    H232494   1.398   7.579   2.898
10851TIP3   OH232495   6.173   1.155   1.164
10851TIP3    H132496   6.199   1.232   1.114
10851TIP3    H232497   6.079   1.145   1.146
10852TIP3   OH232498   3.723   1.193   2.000
10852TIP3    H132499   3.628   1.202   1.999
10852TIP3    H232500   3.738   1.100   1.979
10853TIP3   OH232501   0.984   3.813   4.463
10853TIP3    H132502   0.944   3.744   4.410
10853TIP3    H232503   0.936   3.892   4.438
10854TIP3   OH232504   6.276   1.837   4.612
10854TIP3    H132505   6.327   1.910   4.577
10854TIP3    H232506   6.260   1.780   4.537
10855TIP3   OH232507   3.273   5.081   4.092
10855TIP3    H132508   3.357   5.042   4.118
10855TIP3    H232509   3.223   5.007   4.056
10856TIP3   OH232510   4.481   7.822   1.263
10856TIP3    H132511   4.416   7.793   1.199
10856TIP3    H232512   4.560   7.773   1.240
10857TIP3   OH232513   6.332   0.269  -0.010
10857TIP3    H132514   6.269   0.245   0.059
10857TIP3    H232515   6.412   0.291   0.038
10858TIP3   OH232516   4.799   2.174   1.881
10858TIP3    H132517   4.784   2.167   1.975
10858TIP3    H232518   4.869   2.112   1.862
10859TIP3   OH232519   6.242   7.422   3.174
10859TIP3    H132520   6.162   7.401   3.223
10859TIP3    H232521   6.284   7.338   3.159
10860TIP3   OH232522   8.198   1.651   4.616
10860TIP3    H132523   8.171   1.590   4.547
10860TIP3    H232524   8.285   1.682   4.589
10861TIP3   OH232525   2.312   2.315   2.407
10861TIP3    H132526   2.330   2.241   2.348
10861TIP3    H232527   2.236   2.286   2.458
10862TIP3   OH232528   5.703   1.778   2.399
10862TIP3    H132529   5.640   1.850   2.403
10862TIP3    H232530   5.654   1.706   2.358
10863TIP3   OH232531   7.921   1.402   2.224
10863TIP3    H132532   7.868   1.464   2.274
10863TIP3    H232533   8.010   1.435   2.231
10864TIP3   OH232534   4.598   7.202   4.812
10864TIP3    H132535   4.506   7.185   4.830
10864TIP3    H232536   4.600   7.288   4.771
10865TIP3   OH232537   6.482   4.738   1.680
10865TIP3    H132538   6.570   4.772   1.665
10865TIP3    H232539   6.452   4.782   1.760
10866TIP3   OH232540   2.231   0.568   2.794
10866TIP3    H132541   2.202   0.482   2.765
10866TIP3    H232542   2.274   0.606   2.718
10867TIP3   OH232543   7.362   6.380   5.326
10867TIP3    H132544   7.307   6.437   5.272
10867TIP3    H232545   7.307   6.358   5.401
10868TIP3   OH232546   8.191   0.162   0.181
10868TIP3    H132547   8.180   0.178   0.275
10868TIP3    H232548   8.105   0.132   0.151
10869TIP3   OH232549   0.940   7.499   2.996
10869TIP3    H132550   0.855   7.512   2.955
10869TIP3    H232551   0.958   7.582   3.041
10870TIP3   OH232552   5.842   4.968   3.625
10870TIP3    H132553   5.838   4.947   3.532
10870TIP3    H232554   5.775   5.034   3.638
10871TIP3   OH232555   4.089   0.461   1.869
10871TIP3    H132556   4.115   0.536   1.921
10871TIP3    H232557   4.145   0.389   1.899
10872TIP3   OH232558   6.292   1.912   6.019
10872TIP3    H132559   6.351   1.957   6.080
10872TIP3    H232560   6.347   1.846   5.976
10873TIP3   OH232561   0.698   3.377   1.650
10873TIP3    H132562   0.644   3.303   1.678
10873TIP3    H232563   0.697   3.437   1.724
10874TIP3   OH232564   2.596   0.466   5.206
10874TIP3    H132565   2.579   0.410   5.281
10874TIP3    H232566   2.513   0.467   5.157
10875TIP3   OH232567   0.003   4.456   5.175
10875TIP3    H132568  -0.002   4.453   5.271
10875TIP3    H232569   0.092   4.427   5.155
10876TIP3   OH232570   2.755   6.580   5.013
10876TIP3    H132571   2.715   6.547   5.093
10876TIP3    H232572   2.747   6.675   5.020
10877TIP3   OH232573   4.466   6.778   6.582
10877TIP3    H132574   4.474   6.807   6.673
10877TIP3    H232575   4.395   6.830   6.546
10878TIP3   OH232576   2.054  -0.007   3.696
10878TIP3    H132577   2.107   0.066   3.727
10878TIP3    H232578   1.972   0.033   3.667
10879TIP3   OH232579   0.188   2.418   4.763
10879TIP3    H132580   0.134   2.459   4.695
10879TIP3    H232581   0.217   2.491   4.818
10880TIP3   OH232582   1.224   3.028   1.909
10880TIP3    H132583   1.236   2.933   1.916
10880TIP3    H232584   1.214   3.045   1.816
10881TIP3   OH232585   6.700   0.241   2.075
10881TIP3    H132586   6.707   0.146   2.084
10881TIP3    H232587   6.635   0.267   2.140
10882TIP3   OH232588   4.473   1.259   1.995
10882TIP3    H132589   4.509   1.291   2.078
10882TIP3    H232590   4.492   1.165   1.996
10883TIP3   OH232591   0.132   0.671   6.642
10883TIP3    H132592   0.166   0.597   6.693
10883TIP3    H232593   0.100   0.631   6.561
10884TIP3   OH232594   6.185   7.693   3.299
10884TIP3    H132595   6.157   7.675   3.388
10884TIP3    H232596   6.200   7.607   3.260
10885TIP3   OH232597   3.741   6.088   2.071
10885TIP3    H132598   3.690   6.167   2.091
10885TIP3    H232599   3.744   6.040   2.154
10886TIP3   OH232600   0.964   4.145   3.452
10886TIP3    H132601   1.021   4.091   3.397
10886TIP3    H232602   0.954   4.095   3.533
10887TIP3   OH232603   5.572   3.782   6.082
10887TIP3    H132604   5.600   3.696   6.052
10887TIP3    H232605   5.562   3.833   6.001
10888TIP3   OH232606   5.854   2.310   3.942
10888TIP3    H132607   5.859   2.373   3.870
10888TIP3    H232608   5.764   2.314   3.972
10889TIP3   OH232609   7.661   4.652   1.984
10889TIP3    H132610   7.720   4.720   2.017
10889TIP3    H232611   7.614   4.621   2.062
10890TIP3   OH232612   5.958   3.492   5.686
10890TIP3    H132613   6.053   3.484   5.675
10890TIP3    H232614   5.928   3.527   5.602
10891TIP3   OH232615   0.312   4.970   3.586
10891TIP3    H132616   0.361   4.903   3.538
10891TIP3    H232617   0.287   5.034   3.520
10892TIP3   OH232618   0.609   4.773   1.596
10892TIP3    H132619   0.558   4.849   1.568
10892TIP3    H232620   0.679   4.766   1.531
10893TIP3   OH232621   5.616   1.172   3.193
10893TIP3    H132622   5.640   1.104   3.256
10893TIP3    H232623   5.626   1.131   3.107
10894TIP3   OH232624   6.071   5.704   2.337
10894TIP3    H132625   6.130   5.629   2.348
10894TIP3    H232626   6.008   5.695   2.409
10895TIP3   OH232627   3.481   7.257   1.373
10895TIP3    H132628   3.461   7.308   1.451
10895TIP3    H232629   3.510   7.322   1.309
10896TIP3   OH232630   8.079   1.722   3.437
10896TIP3    H132631   8.032   1.804   3.451
10896TIP3    H232632   8.108   1.696   3.524
10897TIP3   OH232633   7.646   4.851   4.841
10897TIP3    H132634   7.728   4.868   4.795
10897TIP3    H232635   7.578   4.866   4.775
10898TIP3   OH232636   6.001   4.567   0.444
10898TIP3    H132637   5.953   4.565   0.527
10898TIP3    H232638   5.983   4.482   0.404
10899TIP3   OH232639   7.052   0.708   0.510
10899TIP3    H132640   7.002   0.756   0.576
10899TIP3    H232641   7.101   0.777   0.464
10900TIP3   OH232642   1.032   4.839   5.984
10900TIP3    H132643   0.994   4.828   6.071
10900TIP3    H232644   0.971   4.897   5.939
10901TIP3   OH232645   8.011   7.262   0.454
10901TIP3    H132646   7.994   7.293   0.365
10901TIP3    H232647   7.993   7.168   0.451
10902TIP3   OH232648   4.790   5.637   2.692
10902TIP3    H132649   4.748   5.684   2.763
10902TIP3    H232650   4.808   5.550   2.728
10903TIP3   OH232651   7.836   7.138   1.188
10903TIP3    H132652   7.763   7.075   1.189
10903TIP3    H232653   7.906   7.093   1.140
10904TIP3   OH232654   5.110   7.229   4.150
10904TIP3    H132655   5.092   7.292   4.081
10904TIP3    H232656   5.108   7.144   4.107
10905TIP3   OH232657   0.576   1.234   3.938
10905TIP3    H132658   0.672   1.229   3.932
10905TIP3    H232659   0.549   1.267   3.852
10906TIP3   OH232660   5.850   3.699   5.450
10906TIP3    H132661   5.867   3.793   5.451
10906TIP3    H232662   5.759   3.690   5.475
10907TIP3   OH232663   1.582   3.474   1.990
10907TIP3    H132664   1.497   3.498   2.026
10907TIP3    H232665   1.573   3.381   1.968
10908TIP3   OH232666   8.133   3.655   0.601
10908TIP3    H132667   8.127   3.563   0.626
10908TIP3    H232668   8.214   3.686   0.642
10909TIP3   OH232669   2.121   4.328   1.880
10909TIP3    H132670   2.138   4.422   1.873
10909TIP3    H232671   2.118   4.297   1.789
10910TIP3   OH232672   2.866   4.729   1.931
10910TIP3    H132673   2.873   4.686   2.016
10910TIP3    H232674   2.771   4.736   1.916
10911TIP3   OH232675   7.332   5.629   0.005
10911TIP3    H132676   7.414   5.639   0.055
10911TIP3    H232677   7.342   5.689  -0.069
10912TIP3   OH232678   3.615   2.055   2.762
10912TIP3    H132679   3.632   2.053   2.668
10912TIP3    H232680   3.542   1.994   2.775
10913TIP3   OH232681   6.964   3.286  -0.003
10913TIP3    H132682   7.009   3.250   0.074
10913TIP3    H232683   6.978   3.220  -0.071
10914TIP3   OH232684   4.411   3.882   3.700
10914TIP3    H132685   4.344   3.949   3.689
10914TIP3    H232686   4.414   3.865   3.794
10915TIP3   OH232687   5.011   7.663   5.804
10915TIP3    H132688   4.929   7.625   5.772
10915TIP3    H232689   5.014   7.639   5.896
10916TIP3   OH232690   7.780   7.215   6.544
10916TIP3    H132691   7.796   7.164   6.465
10916TIP3    H232692   7.867   7.228   6.582
10917TIP3   OH232693   5.641   4.559   5.906
10917TIP3    H132694   5.646   4.609   5.988
10917TIP3    H232695   5.577   4.490   5.924
10918TIP3   OH232696   3.167   1.203   5.935
10918TIP3    H132697   3.261   1.183   5.924
10918TIP3    H232698   3.132   1.127   5.980
10919TIP3   OH232699   2.796   7.371   5.337
10919TIP3    H132700   2.849   7.441   5.298
10919TIP3    H232701   2.707   7.407   5.339
10920TIP3   OH232702   1.213   7.096   2.222
10920TIP3    H132703   1.151   7.024   2.220
10920TIP3    H232704   1.293   7.058   2.260
10921TIP3   OH232705   2.791   3.046   6.645
10921TIP3    H132706   2.831   3.071   6.562
10921TIP3    H232707   2.729   2.976   6.621
10922TIP3   OH232708   0.462   2.560   1.188
10922TIP3    H132709   0.460   2.513   1.104
10922TIP3    H232710   0.477   2.651   1.164
10923TIP3   OH232711   4.940   3.749   0.929
10923TIP3    H132712   4.919   3.673   0.874
10923TIP3    H232713   4.878   3.744   1.001
10924TIP3   OH232714   4.908   7.265   3.110
10924TIP3    H132715   4.986   7.248   3.162
10924TIP3    H232716   4.836   7.225   3.160
10925TIP3   OH232717   7.925   4.374   0.505
10925TIP3    H132718   7.934   4.296   0.560
10925TIP3    H232719   8.013   4.391   0.471
10926TIP3   OH232720   3.102   7.624   4.410
10926TIP3    H132721   3.046   7.559   4.454
10926TIP3    H232722   3.131   7.579   4.330
10927TIP3   OH232723   6.554   0.271   0.161
10927TIP3    H132724   6.636   0.254   0.115
10927TIP3    H232725   6.553   0.209   0.234
10928TIP3   OH232726   3.717   0.329   0.090
10928TIP3    H132727   3.752   0.319   0.002
10928TIP3    H232728   3.793   0.315   0.147
10929TIP3   OH232729   0.723   4.034   5.521
10929TIP3    H132730   0.663   3.985   5.465
10929TIP3    H232731   0.769   3.967   5.571
10930TIP3   OH232732   0.961   5.268   0.299
10930TIP3    H132733   0.899   5.220   0.354
10930TIP3    H232734   0.908   5.332   0.253
10931TIP3   OH232735   1.434   6.842   5.862
10931TIP3    H132736   1.464   6.783   5.792
10931TIP3    H232737   1.367   6.791   5.909
10932TIP3   OH232738   5.486   6.455   4.342
10932TIP3    H132739   5.482   6.535   4.394
10932TIP3    H232740   5.533   6.481   4.262
10933TIP3   OH232741   5.162   0.088   6.171
10933TIP3    H132742   5.106   0.089   6.094
10933TIP3    H232743   5.185  -0.004   6.183
10934TIP3   OH232744   7.297   0.568   4.267
10934TIP3    H132745   7.204   0.546   4.277
10934TIP3    H232746   7.339   0.527   4.343
10935TIP3   OH232747   6.800   6.558   6.335
10935TIP3    H132748   6.846   6.474   6.330
10935TIP3    H232749   6.714   6.540   6.298
10936TIP3   OH232750   0.059   5.541   3.297
10936TIP3    H132751   0.078   5.590   3.217
10936TIP3    H232752  -0.005   5.475   3.270
10937TIP3   OH232753   6.701   5.227   5.929
10937TIP3    H132754   6.678   5.283   6.003
10937TIP3    H232755   6.705   5.285   5.854
10938TIP3   OH232756   0.432   4.423   1.046
10938TIP3    H132757   0.374   4.425   1.122
10938TIP3    H232758   0.374   4.440   0.972
10939TIP3   OH232759   5.003   4.753   2.993
10939TIP3    H132760   4.931   4.794   2.943
10939TIP3    H232761   5.054   4.827   3.024
10940TIP3   OH232762   6.890   7.187   0.348
10940TIP3    H132763   6.842   7.270   0.343
10940TIP3    H232764   6.843   7.137   0.415
10941TIP3   OH232765   3.762   0.834   2.516
10941TIP3    H132766   3.692   0.770   2.499
10941TIP3    H232767   3.832   0.782   2.556
10942TIP3   OH232768   5.550   0.316   4.346
10942TIP3    H132769   5.541   0.357   4.432
10942TIP3    H232770   5.566   0.224   4.365
10943TIP3   OH232771   6.230   2.835   6.325
10943TIP3    H132772   6.221   2.740   6.320
10943TIP3    H232773   6.309   2.853   6.274
10944TIP3   OH232774   4.809   4.418   2.936
10944TIP3    H132775   4.798   4.370   2.854
10944TIP3    H232776   4.901   4.407   2.958
10945TIP3   OH232777   0.345   4.076   0.329
10945TIP3    H132778   0.269   4.053   0.383
10945TIP3    H232779   0.326   4.036   0.243
10946TIP3   OH232780   6.074   6.664   6.080
10946TIP3    H132781   6.103   6.636   6.167
10946TIP3    H232782   6.156   6.679   6.032
10947TIP3   OH232783   0.934   5.836   0.271
10947TIP3    H132784   0.839   5.843   0.276
10947TIP3    H232785   0.965   5.897   0.338
10948TIP3   OH232786   1.553   4.138   3.744
10948TIP3    H132787   1.576   4.197   3.815
10948TIP3    H232788   1.627   4.078   3.737
10949TIP3   OH232789   5.072   0.289   4.589
10949TIP3    H132790   5.152   0.333   4.615
10949TIP3    H232791   5.002   0.352   4.606
10950TIP3   OH232792   6.600   1.174   1.408
10950TIP3    H132793   6.564   1.251   1.452
10950TIP3    H232794   6.566   1.100   1.460
10951TIP3   OH232795   7.000   4.874   2.155
10951TIP3    H132796   7.036   4.847   2.239
10951TIP3    H232797   6.924   4.818   2.141
10952TIP3   OH232798   7.595   4.534   3.168
10952TIP3    H132799   7.603   4.611   3.224
10952TIP3    H232800   7.598   4.568   3.079
10953TIP3   OH232801   7.822   5.158   1.702
10953TIP3    H132802   7.821   5.153   1.607
10953TIP3    H232803   7.732   5.142   1.728
10954TIP3   OH232804   1.694   3.889   0.527
10954TIP3    H132805   1.609   3.930   0.515
10954TIP3    H232806   1.755   3.963   0.535
10955TIP3   OH232807   5.206   6.396   4.412
10955TIP3    H132808   5.282   6.436   4.370
10955TIP3    H232809   5.228   6.394   4.505
10956TIP3   OH232810   1.946   3.732   0.428
10956TIP3    H132811   1.895   3.677   0.488
10956TIP3    H232812   1.891   3.810   0.415
10957TIP3   OH232813   4.489   3.305   3.564
10957TIP3    H132814   4.458   3.323   3.653
10957TIP3    H232815   4.413   3.322   3.508
10958TIP3   OH232816   4.309   1.744   6.542
10958TIP3    H132817   4.376   1.684   6.574
10958TIP3    H232818   4.345   1.779   6.460
10959TIP3   OH232819   4.587   6.448   6.038
10959TIP3    H132820   4.601   6.433   6.131
10959TIP3    H232821   4.494   6.432   6.024
10960TIP3   OH232822   0.486   4.317   5.032
10960TIP3    H132823   0.464   4.383   5.098
10960TIP3    H232824   0.471   4.360   4.948
10961TIP3   OH232825   6.459   5.856   3.170
10961TIP3    H132826   6.437   5.786   3.232
10961TIP3    H232827   6.405   5.838   3.093
10962TIP3   OH232828   4.642   3.996   0.784
10962TIP3    H132829   4.701   4.001   0.860
10962TIP3    H232830   4.608   4.085   0.774
10963TIP3   OH232831   4.971   5.392   1.118
10963TIP3    H132832   4.942   5.405   1.208
10963TIP3    H232833   4.946   5.473   1.073
10964TIP3   OH232834   4.327   4.775   0.634
10964TIP3    H132835   4.294   4.862   0.614
10964TIP3    H232836   4.248   4.724   0.654
10965TIP3   OH232837   3.369   5.177   2.706
10965TIP3    H132838   3.299   5.241   2.720
10965TIP3    H232839   3.449   5.224   2.726
10966TIP3   OH232840   3.368   2.428   0.642
10966TIP3    H132841   3.323   2.399   0.722
10966TIP3    H232842   3.461   2.416   0.662
10967TIP3   OH232843   2.765   1.358   0.298
10967TIP3    H132844   2.742   1.417   0.370
10967TIP3    H232845   2.830   1.406   0.247
10968TIP3   OH232846   3.352   2.971   0.924
10968TIP3    H132847   3.337   2.939   0.835
10968TIP3    H232848   3.440   3.010   0.920
10969TIP3   OH232849   5.515   3.171   5.439
10969TIP3    H132850   5.472   3.205   5.518
10969TIP3    H232851   5.501   3.076   5.443
10970TIP3   OH232852   3.971   5.866   4.177
10970TIP3    H132853   3.957   5.796   4.241
10970TIP3    H232854   3.970   5.947   4.228
10971TIP3   OH232855   2.337   0.710   4.260
10971TIP3    H132856   2.422   0.686   4.223
10971TIP3    H232857   2.298   0.627   4.287
10972TIP3   OH232858   7.342   7.146   5.956
10972TIP3    H132859   7.268   7.168   6.012
10972TIP3    H232860   7.419   7.171   6.008
10973TIP3   OH232861   2.947   6.046   1.836
10973TIP3    H132862   2.988   5.969   1.876
10973TIP3    H232863   3.004   6.069   1.763
10974TIP3   OH232864   1.365   2.430   1.182
10974TIP3    H132865   1.384   2.517   1.218
10974TIP3    H232866   1.432   2.374   1.219
10975TIP3   OH232867   5.842   1.529   3.869
10975TIP3    H132868   5.748   1.521   3.882
10975TIP3    H232869   5.856   1.621   3.848
10976TIP3   OH232870   7.996   1.305   1.543
10976TIP3    H132871   8.067   1.368   1.558
10976TIP3    H232872   7.928   1.356   1.500
10977TIP3   OH232873   4.804   1.801   1.694
10977TIP3    H132874   4.727   1.745   1.697
10977TIP3    H232875   4.858   1.773   1.768
10978TIP3   OH232876   0.217   0.480   0.093
10978TIP3    H132877   0.189   0.571   0.081
10978TIP3    H232878   0.136   0.430   0.095
10979TIP3   OH232879   8.165   7.528   2.025
10979TIP3    H132880   8.195   7.544   1.935
10979TIP3    H232881   8.160   7.616   2.064
10980TIP3   OH232882   0.211   6.094   3.078
10980TIP3    H132883   0.171   6.076   2.993
10980TIP3    H232884   0.182   6.182   3.100
10981TIP3   OH232885   0.774   6.029   6.311
10981TIP3    H132886   0.834   5.956   6.306
10981TIP3    H232887   0.817   6.100   6.262
10982TIP3   OH232888   4.975   0.301   3.150
10982TIP3    H132889   5.012   0.336   3.231
10982TIP3    H232890   4.994   0.367   3.084
10983TIP3   OH232891   7.053   4.070   6.305
10983TIP3    H132892   7.139   4.104   6.278
10983TIP3    H232893   6.990   4.132   6.269
10984TIP3   OH232894   7.929   4.737   5.414
10984TIP3    H132895   7.997   4.684   5.456
10984TIP3    H232896   7.949   4.826   5.442
10985TIP3   OH232897   3.247   6.192   4.616
10985TIP3    H132898   3.247   6.152   4.703
10985TIP3    H232899   3.265   6.285   4.632
10986TIP3   OH232900   7.898   4.712   2.909
10986TIP3    H132901   7.949   4.794   2.903
10986TIP3    H232902   7.963   4.646   2.934
10987TIP3   OH232903   3.056   5.783   5.918
10987TIP3    H132904   3.011   5.866   5.931
10987TIP3    H232905   2.988   5.717   5.924
10988TIP3   OH232906   5.835   6.006   0.425
10988TIP3    H132907   5.766   6.007   0.492
10988TIP3    H232908   5.905   5.952   0.463
10989TIP3   OH232909   0.497   7.406   1.855
10989TIP3    H132910   0.445   7.463   1.912
10989TIP3    H232911   0.572   7.380   1.908
10990TIP3   OH232912   6.710   2.113   1.012
10990TIP3    H132913   6.803   2.090   1.006
10990TIP3    H232914   6.710   2.205   1.038
10991TIP3   OH232915   1.789   5.060   2.044
10991TIP3    H132916   1.881   5.034   2.034
10991TIP3    H232917   1.761   5.020   2.126
10992TIP3   OH232918   3.306   4.463   3.874
10992TIP3    H132919   3.311   4.490   3.783
10992TIP3    H232920   3.231   4.511   3.910
10993TIP3   OH232921   1.788   2.987   5.886
10993TIP3    H132922   1.741   2.943   5.815
10993TIP3    H232923   1.726   3.053   5.918
10994TIP3   OH232924   6.159   1.738   3.991
10994TIP3    H132925   6.116   1.796   3.928
10994TIP3    H232926   6.252   1.743   3.969
10995TIP3   OH232927   5.088   1.710   0.368
10995TIP3    H132928   5.172   1.757   0.364
10995TIP3    H232929   5.099   1.647   0.439
10996TIP3   OH232930   7.251   2.856   3.373
10996TIP3    H132931   7.162   2.837   3.343
10996TIP3    H232932   7.245   2.855   3.469
10997TIP3   OH232933   0.970   7.428   5.090
10997TIP3    H132934   0.971   7.522   5.075
10997TIP3    H232935   1.062   7.405   5.102
10998TIP3   OH232936   8.124   0.949   0.677
10998TIP3    H132937   8.175   1.030   0.678
10998TIP3    H232938   8.152   0.903   0.598
10999TIP3   OH232939   7.133   2.906   4.076
10999TIP3    H132940   7.202   2.858   4.031
10999TIP3    H232941   7.179   2.968   4.133
11000TIP3   OH232942   1.599   2.498   5.080
11000TIP3    H132943   1.522   2.530   5.033
11000TIP3    H232944   1.673   2.539   5.034
11001TIP3   OH232945   8.151   6.605   2.745
11001TIP3    H132946   8.244   6.621   2.757
11001TIP3    H232947   8.115   6.689   2.717
11002TIP3   OH232948   3.575   6.745   1.023
11002TIP3    H132949   3.489   6.729   0.985
11002TIP3    H232950   3.557   6.796   1.102
11003TIP3   OH232951   4.035   3.346   0.309
11003TIP3    H132952   4.103   3.359   0.375
11003TIP3    H232953   4.074   3.288   0.244
11004TIP3   OH232954   0.939   7.285   0.251
11004TIP3    H132955   1.002   7.313   0.185
11004TIP3    H232956   0.857   7.274   0.203
11005TIP3   OH232957   2.867   7.377   2.713
11005TIP3    H132958   2.853   7.450   2.653
11005TIP3    H232959   2.804   7.392   2.784
11006TIP3   OH232960   5.441   0.312   2.847
11006TIP3    H132961   5.490   0.273   2.919
11006TIP3    H232962   5.379   0.372   2.889
11007TIP3   OH232963   1.687   1.625   1.106
11007TIP3    H132964   1.762   1.627   1.047
11007TIP3    H232965   1.702   1.550   1.163
11008TIP3   OH232966   0.014   3.463   2.690
11008TIP3    H132967   0.043   3.530   2.751
11008TIP3    H232968  -0.034   3.511   2.622
11009TIP3   OH232969   0.060   7.078   1.103
11009TIP3    H132970  -0.013   7.062   1.044
11009TIP3    H232971   0.087   7.168   1.083
11010TIP3   OH232972   1.667   1.633   4.984
11010TIP3    H132973   1.673   1.723   4.952
11010TIP3    H232974   1.600   1.592   4.929
11011TIP3   OH232975   2.882   4.636   2.188
11011TIP3    H132976   2.903   4.564   2.247
11011TIP3    H232977   2.922   4.713   2.228
11012TIP3   OH232978   7.672   3.449   5.233
11012TIP3    H132979   7.622   3.514   5.183
11012TIP3    H232980   7.651   3.366   5.191
11013TIP3   OH232981   0.656   6.740   0.420
11013TIP3    H132982   0.712   6.726   0.343
11013TIP3    H232983   0.716   6.733   0.494
11014TIP3   OH232984   1.009   6.133   3.895
11014TIP3    H132985   0.915   6.113   3.898
11014TIP3    H232986   1.039   6.093   3.813
11015TIP3   OH232987   1.090   4.049   3.112
11015TIP3    H132988   1.055   4.138   3.121
11015TIP3    H232989   1.128   4.030   3.197
11016TIP3   OH232990   0.427   1.352   6.105
11016TIP3    H132991   0.417   1.439   6.144
11016TIP3    H232992   0.480   1.304   6.169
11017TIP3   OH232993   3.696   3.795   0.066
11017TIP3    H132994   3.711   3.700   0.070
11017TIP3    H232995   3.743   3.823  -0.012
11018TIP3   OH232996   5.288   1.446   5.547
11018TIP3    H132997   5.348   1.521   5.542
11018TIP3    H232998   5.242   1.447   5.463
11019TIP3   OH232999   5.944   4.770   4.406
11019TIP3    H133000   5.905   4.684   4.419
11019TIP3    H233001   6.037   4.753   4.392
11020TIP3   OH233002   4.312   5.012   3.195
11020TIP3    H133003   4.241   5.018   3.259
11020TIP3    H233004   4.364   5.091   3.210
11021TIP3   OH233005   1.066   2.015   6.120
11021TIP3    H133006   1.154   2.013   6.158
11021TIP3    H233007   1.074   2.074   6.045
11022TIP3   OH233008   2.853   0.919   4.547
11022TIP3    H133009   2.767   0.886   4.575
11022TIP3    H233010   2.915   0.873   4.603
11023TIP3   OH233011   7.094   1.260   4.792
11023TIP3    H133012   7.177   1.306   4.803
11023TIP3    H233013   7.098   1.224   4.704
11024TIP3   OH233014   4.856   1.356   1.835
11024TIP3    H133015   4.856   1.418   1.761
11024TIP3    H233016   4.767   1.320   1.835
11025TIP3   OH233017   4.686   1.021   3.162
11025TIP3    H133018   4.735   1.093   3.121
11025TIP3    H233019   4.740   0.995   3.236
11026TIP3   OH233020   6.883   1.741   6.209
11026TIP3    H133021   6.804   1.776   6.168
11026TIP3    H233022   6.855   1.661   6.253
11027TIP3   OH233023   2.800   5.291   2.022
11027TIP3    H133024   2.800   5.213   2.077
11027TIP3    H233025   2.893   5.314   2.013
11028TIP3   OH233026   5.417   7.825   4.017
11028TIP3    H133027   5.477   7.821   4.091
11028TIP3    H233028   5.441   7.750   3.962
11029TIP3   OH233029   0.617   3.871   4.037
11029TIP3    H133030   0.552   3.887   3.968
11029TIP3    H233031   0.638   3.778   4.030
11030TIP3   OH233032   3.639   0.023   4.601
11030TIP3    H133033   3.666   0.113   4.618
11030TIP3    H233034   3.708  -0.013   4.545
11031TIP3   OH233035   5.112   5.950   5.533
11031TIP3    H133036   5.200   5.970   5.565
11031TIP3    H233037   5.105   6.001   5.452
11032TIP3   OH233038   5.184   2.873   3.920
11032TIP3    H133039   5.141   2.805   3.868
11032TIP3    H233040   5.276   2.848   3.920
11033TIP3   OH233041   2.464   1.167   6.726
11033TIP3    H133042   2.457   1.149   6.820
11033TIP3    H233043   2.482   1.261   6.721
11034TIP3   OH233044   1.746   1.861   2.609
11034TIP3    H133045   1.752   1.772   2.572
11034TIP3    H233046   1.696   1.910   2.544
11035TIP3   OH233047   4.793   4.633   4.870
11035TIP3    H133048   4.847   4.572   4.819
11035TIP3    H233049   4.853   4.669   4.935
11036TIP3   OH233050   0.501   5.131   5.514
11036TIP3    H133051   0.458   5.077   5.580
11036TIP3    H233052   0.591   5.142   5.546
11037TIP3   OH233053   3.602   4.355   4.521
11037TIP3    H133054   3.533   4.289   4.513
11037TIP3    H233055   3.654   4.326   4.596
11038TIP3   OH233056   7.509   5.098   1.515
11038TIP3    H133057   7.474   5.009   1.507
11038TIP3    H233058   7.449   5.142   1.575
11039TIP3   OH233059   4.536   2.883   0.774
11039TIP3    H133060   4.627   2.881   0.803
11039TIP3    H233061   4.491   2.821   0.832
11040TIP3   OH233062   1.333   4.023   6.551
11040TIP3    H133063   1.323   3.962   6.478
11040TIP3    H233064   1.427   4.041   6.554
11041TIP3   OH233065   0.909   2.579   2.627
11041TIP3    H133066   0.946   2.577   2.715
11041TIP3    H233067   0.893   2.487   2.606
11042TIP3   OH233068   7.204   7.713   4.837
11042TIP3    H133069   7.260   7.728   4.914
11042TIP3    H233070   7.181   7.801   4.807
11043TIP3   OH233071   8.175   6.168   4.614
11043TIP3    H133072   8.194   6.103   4.547
11043TIP3    H233073   8.250   6.227   4.613
11044TIP3   OH233074   1.442   7.128   0.114
11044TIP3    H133075   1.469   7.207   0.161
11044TIP3    H233076   1.490   7.132   0.032
11045TIP3   OH233077   5.677   5.433   4.280
11045TIP3    H133078   5.716   5.417   4.194
11045TIP3    H233079   5.702   5.523   4.301
11046TIP3   OH233080   7.870   4.861   1.910
11046TIP3    H133081   7.948   4.878   1.858
11046TIP3    H233082   7.797   4.873   1.849
11047TIP3   OH233083   6.623   4.854   5.580
11047TIP3    H133084   6.560   4.835   5.510
11047TIP3    H233085   6.598   4.796   5.652
11048TIP3   OH233086   4.916   1.550   0.895
11048TIP3    H133087   4.852   1.498   0.943
11048TIP3    H233088   4.911   1.638   0.934
11049TIP3   OH233089   0.891   7.624   6.512
11049TIP3    H133090   0.965   7.606   6.454
11049TIP3    H233091   0.920   7.700   6.563
11050TIP3   OH233092   4.235   4.748   0.338
11050TIP3    H133093   4.304   4.728   0.402
11050TIP3    H233094   4.156   4.709   0.375
11051TIP3   OH233095   3.930   0.044   4.021
11051TIP3    H133096   3.944   0.040   3.926
11051TIP3    H233097   3.861  -0.020   4.038
11052TIP3   OH233098   4.794   4.062   5.316
11052TIP3    H133099   4.806   4.131   5.251
11052TIP3    H233100   4.715   4.016   5.290
11053TIP3   OH233101   0.826   4.246   1.045
11053TIP3    H133102   0.755   4.259   1.107
11053TIP3    H233103   0.903   4.231   1.099
11054TIP3   OH233104   4.987   0.137   5.005
11054TIP3    H133105   5.020   0.048   4.997
11054TIP3    H233106   5.027   0.170   5.086
11055TIP3   OH233107   3.808   5.933   5.645
11055TIP3    H133108   3.777   5.956   5.733
11055TIP3    H233109   3.898   5.904   5.658
11056TIP3   OH233110   4.425   5.895   1.906
11056TIP3    H133111   4.464   5.821   1.860
11056TIP3    H233112   4.441   5.970   1.849
11057TIP3   OH233113   6.668   7.591   1.234
11057TIP3    H133114   6.674   7.615   1.141
11057TIP3    H233115   6.579   7.558   1.244
11058TIP3   OH233116   0.152   5.470   5.205
11058TIP3    H133117   0.194   5.539   5.257
11058TIP3    H233118   0.223   5.408   5.186
11059TIP3   OH233119   6.003   0.621   2.449
11059TIP3    H133120   5.921   0.631   2.401
11059TIP3    H233121   6.060   0.572   2.390
11060TIP3   OH233122   6.846   1.629   2.680
11060TIP3    H133123   6.779   1.568   2.650
11060TIP3    H233124   6.832   1.637   2.774
11061TIP3   OH233125   8.092   3.837   4.614
11061TIP3    H133126   8.059   3.898   4.548
11061TIP3    H233127   8.045   3.755   4.597
11062TIP3   OH233128   7.831   7.041   1.548
11062TIP3    H133129   7.924   7.053   1.568
11062TIP3    H233130   7.829   6.969   1.485
11063TIP3   OH233131   3.310   4.494   3.584
11063TIP3    H133132   3.264   4.453   3.511
11063TIP3    H233133   3.391   4.529   3.546
11064TIP3   OH233134   1.408   5.487   2.181
11064TIP3    H133135   1.347   5.560   2.178
11064TIP3    H233136   1.493   5.528   2.200
11065TIP3   OH233137   4.245   0.106   1.361
11065TIP3    H133138   4.328   0.100   1.409
11065TIP3    H233139   4.270   0.101   1.269
11066TIP3   OH233140   8.129   6.709   3.802
11066TIP3    H133141   8.181   6.780   3.839
11066TIP3    H233142   8.040   6.746   3.796
11067TIP3   OH233143   4.503   5.150   5.714
11067TIP3    H133144   4.568   5.080   5.718
11067TIP3    H233145   4.553   5.231   5.725
11068TIP3   OH233146   2.814   7.473   4.527
11068TIP3    H133147   2.868   7.433   4.596
11068TIP3    H233148   2.732   7.423   4.530
11069TIP3   OH233149   2.597   5.069   1.495
11069TIP3    H133150   2.518   5.123   1.495
11069TIP3    H233151   2.599   5.031   1.583
11070TIP3   OH233152   6.630   5.380   2.575
11070TIP3    H133153   6.610   5.365   2.668
11070TIP3    H233154   6.547   5.363   2.530
11071TIP3   OH233155   3.414   6.637   2.709
11071TIP3    H133156   3.464   6.682   2.776
11071TIP3    H233157   3.427   6.544   2.727
11072TIP3   OH233158   4.631   1.259   5.256
11072TIP3    H133159   4.670   1.220   5.178
11072TIP3    H233160   4.669   1.209   5.329
11073TIP3   OH233161   2.769   1.829   3.552
11073TIP3    H133162   2.823   1.861   3.624
11073TIP3    H233163   2.795   1.883   3.477
11074TIP3   OH233164   7.923   0.618   2.211
11074TIP3    H133165   7.994   0.681   2.215
11074TIP3    H233166   7.948   0.557   2.142
11075TIP3   OH233167   4.483   0.079   0.672
11075TIP3    H133168   4.451   0.122   0.592
11075TIP3    H233169   4.564   0.126   0.693
11076TIP3   OH233170   5.406   3.388   2.643
11076TIP3    H133171   5.468   3.366   2.712
11076TIP3    H233172   5.376   3.477   2.665
11077TIP3   OH233173   2.601   0.786   4.623
11077TIP3    H133174   2.519   0.830   4.600
11077TIP3    H233175   2.615   0.809   4.715
11078TIP3   OH233176   5.842   7.565   6.725
11078TIP3    H133177   5.899   7.642   6.721
11078TIP3    H233178   5.805   7.558   6.637
11079TIP3   OH233179   3.379   6.252   0.239
11079TIP3    H133180   3.378   6.156   0.237
11079TIP3    H233181   3.390   6.274   0.332
11080TIP3   OH233182   1.420   3.442   2.686
11080TIP3    H133183   1.442   3.534   2.670
11080TIP3    H233184   1.386   3.442   2.776
11081TIP3   OH233185   0.330   4.244   6.320
11081TIP3    H133186   0.424   4.264   6.326
11081TIP3    H233187   0.293   4.284   6.399
11082TIP3   OH233188   5.574   4.657   6.379
11082TIP3    H133189   5.542   4.674   6.467
11082TIP3    H233190   5.616   4.571   6.385
11083TIP3   OH233191   3.011   0.962   0.106
11083TIP3    H133192   3.082   1.027   0.110
11083TIP3    H233193   2.933   1.010   0.135
11084TIP3   OH233194   3.561   2.602   4.478
11084TIP3    H133195   3.473   2.639   4.483
11084TIP3    H233196   3.614   2.671   4.438
11085TIP3   OH233197   2.738   4.461   5.060
11085TIP3    H133198   2.812   4.421   5.106
11085TIP3    H233199   2.701   4.389   5.008
11086TIP3   OH233200   4.321   1.200   3.835
11086TIP3    H133201   4.269   1.228   3.911
11086TIP3    H233202   4.327   1.105   3.843
11087TIP3   OH233203   3.612   2.032   3.089
11087TIP3    H133204   3.663   1.990   3.020
11087TIP3    H233205   3.671   2.034   3.165
11088TIP3   OH233206   7.337   4.913   2.579
11088TIP3    H133207   7.412   4.949   2.627
11088TIP3    H233208   7.315   4.981   2.516
11089TIP3   OH233209   2.663   4.440   3.267
11089TIP3    H133210   2.642   4.349   3.249
11089TIP3    H233211   2.603   4.464   3.338
11090TIP3   OH233212   5.822   2.341   6.218
11090TIP3    H133213   5.837   2.435   6.231
11090TIP3    H233214   5.855   2.323   6.130
11091TIP3   OH233215   5.313   2.561   6.549
11091TIP3    H133216   5.328   2.655   6.536
11091TIP3    H233217   5.385   2.533   6.605
11092TIP3   OH233218   6.418   4.523   0.147
11092TIP3    H133219   6.397   4.453   0.208
11092TIP3    H233220   6.347   4.523   0.083
11093TIP3   OH233221   5.532   6.671   2.969
11093TIP3    H133222   5.516   6.582   3.000
11093TIP3    H233223   5.627   6.681   2.974
11094TIP3   OH233224   5.745   0.283   6.692
11094TIP3    H133225   5.742   0.342   6.617
11094TIP3    H233226   5.711   0.336   6.765
11095TIP3   OH233227   7.631   0.979   6.028
11095TIP3    H133228   7.629   1.002   5.935
11095TIP3    H233229   7.684   0.900   6.032
11096TIP3   OH233230   3.274   3.008   0.602
11096TIP3    H133231   3.352   2.976   0.646
11096TIP3    H233232   3.258   2.944   0.533
11097TIP3   OH233233   0.144   1.526   3.897
11097TIP3    H133234   0.199   1.516   3.975
11097TIP3    H233235   0.163   1.448   3.845
11098TIP3   OH233236   1.449   6.141   2.573
11098TIP3    H133237   1.438   6.098   2.657
11098TIP3    H233238   1.437   6.234   2.591
11099TIP3   OH233239   0.052   4.216   4.103
11099TIP3    H133240   0.038   4.136   4.052
11099TIP3    H233241   0.038   4.287   4.040
11100TIP3   OH233242   4.717   3.974   3.784
11100TIP3    H133243   4.688   4.002   3.871
11100TIP3    H233244   4.641   3.931   3.746
11101TIP3   OH233245   1.264   7.809   2.089
11101TIP3    H133246   1.258   7.725   2.133
11101TIP3    H233247   1.216   7.870   2.144
11102TIP3   OH233248   4.656   4.279   1.802
11102TIP3    H133249   4.646   4.206   1.741
11102TIP3    H233250   4.600   4.257   1.876
11103TIP3   OH233251   4.898   4.608   6.645
11103TIP3    H133252   4.992   4.589   6.648
11103TIP3    H233253   4.892   4.703   6.638
11104TIP3   OH233254   4.281   0.758   1.509
11104TIP3    H133255   4.213   0.692   1.500
11104TIP3    H233256   4.265   0.820   1.437
11105TIP3   OH233257   5.846   3.174   4.437
11105TIP3    H133258   5.758   3.149   4.408
11105TIP3    H233259   5.903   3.107   4.401
11106TIP3   OH233260   2.463   1.080   4.918
11106TIP3    H133261   2.540   1.024   4.912
11106TIP3    H233262   2.392   1.026   4.883
11107TIP3   OH233263   1.425   0.048   5.018
11107TIP3    H133264   1.425  -0.046   5.034
11107TIP3    H233265   1.442   0.087   5.103
11108TIP3   OH233266   7.011   7.541   1.044
11108TIP3    H133267   6.942   7.509   1.102
11108TIP3    H233268   6.972   7.617   1.001
11109TIP3   OH233269   3.211   5.001   1.254
11109TIP3    H133270   3.248   5.022   1.168
11109TIP3    H233271   3.126   5.046   1.255
11110TIP3   OH233272   3.549   4.137   4.704
11110TIP3    H133273   3.565   4.055   4.750
11110TIP3    H233274   3.471   4.121   4.652
11111TIP3   OH233275   2.156   0.874   0.525
11111TIP3    H133276   2.239   0.831   0.506
11111TIP3    H233277   2.110   0.812   0.582
11112TIP3   OH233278   0.052   4.941   1.836
11112TIP3    H133279   0.034   4.984   1.919
11112TIP3    H233280   0.116   4.997   1.793
11113TIP3   OH233281   7.445   0.605   3.451
11113TIP3    H133282   7.486   0.690   3.439
11113TIP3    H233283   7.409   0.584   3.365
11114TIP3   OH233284   4.253   2.853   2.544
11114TIP3    H133285   4.333   2.801   2.538
11114TIP3    H233286   4.283   2.944   2.544
11115TIP3   OH233287   5.508   1.093   0.453
11115TIP3    H133288   5.509   1.186   0.472
11115TIP3    H233289   5.481   1.087   0.361
11116TIP3   OH233290   7.401   2.050   4.903
11116TIP3    H133291   7.372   2.134   4.939
11116TIP3    H233292   7.441   2.073   4.819
11117TIP3   OH233293   5.449   7.623   5.442
11117TIP3    H133294   5.504   7.563   5.391
11117TIP3    H233295   5.477   7.710   5.415
11118TIP3   OH233296   2.133   2.930   2.309
11118TIP3    H133297   2.137   2.978   2.226
11118TIP3    H233298   2.078   2.984   2.365
11119TIP3   OH233299   6.789   5.119   4.753
11119TIP3    H133300   6.699   5.089   4.762
11119TIP3    H233301   6.796   5.147   4.662
11120TIP3   OH233302   5.448   7.710   2.891
11120TIP3    H133303   5.465   7.754   2.808
11120TIP3    H233304   5.522   7.650   2.902
11121TIP3   OH233305   7.568   6.012   2.707
11121TIP3    H133306   7.626   6.034   2.781
11121TIP3    H233307   7.623   6.024   2.630
11122TIP3   OH233308   0.191   5.874   4.188
11122TIP3    H133309   0.280   5.854   4.160
11122TIP3    H233310   0.192   5.857   4.283
11123TIP3   OH233311   5.469   0.650   1.800
11123TIP3    H133312   5.452   0.596   1.723
11123TIP3    H233313   5.387   0.651   1.848
11124TIP3   OH233314   5.441   4.082   0.977
11124TIP3    H133315   5.447   4.169   0.936
11124TIP3    H233316   5.403   4.099   1.063
11125TIP3   OH233317   5.179   3.495   1.450
11125TIP3    H133318   5.198   3.470   1.359
11125TIP3    H233319   5.177   3.412   1.497
11126TIP3   OH233320   5.251   5.623   6.059
11126TIP3    H133321   5.226   5.540   6.099
11126TIP3    H233322   5.294   5.672   6.129
11127TIP3   OH233323   1.718   1.466   2.728
11127TIP3    H133324   1.636   1.508   2.754
11127TIP3    H233325   1.703   1.373   2.743
11128TIP3   OH233326   4.168   7.768   0.570
11128TIP3    H133327   4.185   7.679   0.540
11128TIP3    H233328   4.254   7.805   0.589
11129TIP3   OH233329   6.328   0.161   3.342
11129TIP3    H133330   6.356   0.081   3.297
11129TIP3    H233331   6.348   0.231   3.280
11130TIP3   OH233332   2.509   0.178   2.376
11130TIP3    H133333   2.475   0.126   2.449
11130TIP3    H233334   2.444   0.247   2.363
11131TIP3   OH233335   1.032   4.913   6.603
11131TIP3    H133336   1.041   4.928   6.697
11131TIP3    H233337   0.945   4.874   6.593
11132TIP3   OH233338   1.698   1.092   4.336
11132TIP3    H133339   1.646   1.068   4.259
11132TIP3    H233340   1.738   1.175   4.313
11133TIP3   OH233341   7.606   0.054   2.093
11133TIP3    H133342   7.537   0.088   2.149
11133TIP3    H233343   7.563  -0.013   2.039
11134TIP3   OH233344   7.100   6.253   6.187
11134TIP3    H133345   7.132   6.312   6.256
11134TIP3    H233346   7.005   6.253   6.199
11135TIP3   OH233347   4.341   6.463   4.105
11135TIP3    H133348   4.342   6.390   4.043
11135TIP3    H233349   4.276   6.439   4.170
11136TIP3   OH233350   3.128   6.095   1.636
11136TIP3    H133351   3.212   6.051   1.646
11136TIP3    H233352   3.084   6.047   1.567
11137TIP3   OH233353   1.290   4.607   4.076
11137TIP3    H133354   1.210   4.580   4.031
11137TIP3    H233355   1.260   4.662   4.148
11138TIP3   OH233356   4.917   4.107   2.890
11138TIP3    H133357   4.838   4.137   2.935
11138TIP3    H233358   4.886   4.038   2.831
11139TIP3   OH233359   5.907   7.440   2.189
11139TIP3    H133360   5.909   7.406   2.278
11139TIP3    H233361   5.816   7.429   2.161
11140TIP3   OH233362   8.028   1.010   0.980
11140TIP3    H133363   8.077   0.998   0.898
11140TIP3    H233364   7.969   1.083   0.963
11141TIP3   OH233365   1.626   5.260   2.323
11141TIP3    H133366   1.616   5.324   2.394
11141TIP3    H233367   1.538   5.251   2.286
11142TIP3   OH233368   1.846   0.359   0.053
11142TIP3    H133369   1.762   0.366   0.007
11142TIP3    H233370   1.824   0.313   0.134
11143TIP3   OH233371   6.555   2.524   1.533
11143TIP3    H133372   6.542   2.551   1.624
11143TIP3    H233373   6.483   2.564   1.485
11144TIP3   OH233374   6.891   6.031   3.882
11144TIP3    H133375   6.986   6.040   3.882
11144TIP3    H233376   6.861   6.099   3.822
11145TIP3   OH233377   5.191   2.882   3.298
11145TIP3    H133378   5.109   2.923   3.326
11145TIP3    H233379   5.252   2.955   3.285
11146TIP3   OH233380   0.514   0.846   6.391
11146TIP3    H133381   0.436   0.900   6.377
11146TIP3    H233382   0.527   0.799   6.308
11147TIP3   OH233383   4.739   4.343   4.527
11147TIP3    H133384   4.792   4.377   4.454
11147TIP3    H233385   4.692   4.419   4.561
11148TIP3   OH233386   1.549   3.313   1.501
11148TIP3    H133387   1.509   3.256   1.435
11148TIP3    H233388   1.494   3.302   1.579
11149TIP3   OH233389   0.532   2.761   5.771
11149TIP3    H133390   0.552   2.842   5.818
11149TIP3    H233391   0.479   2.710   5.832
11150TIP3   OH233392   0.888   6.664   6.478
11150TIP3    H133393   0.866   6.730   6.545
11150TIP3    H233394   0.811   6.659   6.422
11151TIP3   OH233395   6.185   7.491   0.979
11151TIP3    H133396   6.248   7.426   0.948
11151TIP3    H233397   6.175   7.472   1.073
11152TIP3   OH233398   6.671   2.144   6.156
11152TIP3    H133399   6.590   2.195   6.163
11152TIP3    H233400   6.735   2.195   6.206
11153TIP3   OH233401   0.007   1.868   2.481
11153TIP3    H133402   0.029   1.808   2.552
11153TIP3    H233403  -0.066   1.826   2.436
11154TIP3   OH233404   8.232   5.309   5.295
11154TIP3    H133405   8.316   5.350   5.270
11154TIP3    H233406   8.172   5.383   5.305
11155TIP3   OH233407   6.281   0.462   4.079
11155TIP3    H133408   6.257   0.409   4.003
11155TIP3    H233409   6.333   0.534   4.043
11156TIP3   OH233410   6.587   7.786   6.618
11156TIP3    H133411   6.661   7.835   6.583
11156TIP3    H233412   6.584   7.706   6.567
11157TIP3   OH233413   1.049   7.194   1.326
11157TIP3    H133414   1.074   7.283   1.301
11157TIP3    H233415   1.054   7.144   1.244
11158TIP3   OH233416   3.702   7.380   5.574
11158TIP3    H133417   3.662   7.383   5.487
11158TIP3    H233418   3.795   7.366   5.557
11159TIP3   OH233419   3.870   5.635   4.341
11159TIP3    H133420   3.840   5.708   4.395
11159TIP3    H233421   3.803   5.568   4.352
11160TIP3   OH233422   0.677   1.637   1.678
11160TIP3    H133423   0.761   1.679   1.661
11160TIP3    H233424   0.700   1.546   1.701
11161TIP3   OH233425   2.722   4.208   6.262
11161TIP3    H133426   2.788   4.144   6.235
11161TIP3    H233427   2.646   4.155   6.285
11162TIP3   OH233428   6.873   5.103   1.878
11162TIP3    H133429   6.866   5.024   1.824
11162TIP3    H233430   6.863   5.071   1.968
11163TIP3   OH233431   5.572   1.363   2.061
11163TIP3    H133432   5.556   1.271   2.081
11163TIP3    H233433   5.615   1.361   1.975
11164TIP3   OH233434   2.911   6.061   1.425
11164TIP3    H133435   2.850   5.997   1.462
11164TIP3    H233436   2.882   6.145   1.461
11165TIP3   OH233437   0.505   1.576   6.431
11165TIP3    H133438   0.562   1.607   6.361
11165TIP3    H233439   0.427   1.631   6.425
11166TIP3   OH233440   1.727   5.694   4.260
11166TIP3    H133441   1.812   5.738   4.269
11166TIP3    H233442   1.691   5.728   4.179
11167TIP3   OH233443   2.645   4.188   3.297
11167TIP3    H133444   2.721   4.135   3.323
11167TIP3    H233445   2.572   4.150   3.346
11168TIP3   OH233446   0.379   3.029   1.549
11168TIP3    H133447   0.445   2.963   1.529
11168TIP3    H233448   0.377   3.033   1.644
11169TIP3   OH233449   0.393   4.248   2.054
11169TIP3    H133450   0.431   4.183   2.113
11169TIP3    H233451   0.418   4.333   2.091
11170TIP3   OH233452   7.011   6.786   4.077
11170TIP3    H133453   6.961   6.786   3.996
11170TIP3    H233454   7.095   6.747   4.054
11171TIP3   OH233455   5.380   2.237   0.826
11171TIP3    H133456   5.362   2.218   0.919
11171TIP3    H233457   5.330   2.171   0.778
11172TIP3   OH233458   7.088   4.879   3.450
11172TIP3    H133459   7.122   4.791   3.435
11172TIP3    H233460   7.165   4.936   3.440
11173TIP3   OH233461   3.148   5.511   2.957
11173TIP3    H133462   3.133   5.466   2.874
11173TIP3    H233463   3.078   5.480   3.015
11174TIP3   OH233464   5.047   6.093   4.962
11174TIP3    H133465   5.088   6.035   5.026
11174TIP3    H233466   5.045   6.042   4.882
11175TIP3   OH233467   0.911   0.685   0.794
11175TIP3    H133468   0.915   0.779   0.813
11175TIP3    H233469   1.003   0.658   0.788
11176TIP3   OH233470   4.958   0.849   5.377
11176TIP3    H133471   4.984   0.834   5.286
11176TIP3    H233472   5.036   0.831   5.429
11177TIP3   OH233473   2.836   5.154   0.830
11177TIP3    H133474   2.800   5.115   0.751
11177TIP3    H233475   2.908   5.096   0.856
11178TIP3   OH233476   4.362   4.809   2.775
11178TIP3    H133477   4.287   4.755   2.748
11178TIP3    H233478   4.368   4.877   2.709
11179TIP3   OH233479   7.695   5.668   2.245
11179TIP3    H133480   7.768   5.610   2.223
11179TIP3    H233481   7.734   5.735   2.301
11180TIP3   OH233482   7.574   3.820   2.046
11180TIP3    H133483   7.490   3.860   2.023
11180TIP3    H233484   7.584   3.838   2.139
11181TIP3   OH233485   1.102   3.165   4.342
11181TIP3    H133486   1.176   3.111   4.313
11181TIP3    H233487   1.114   3.174   4.436
11182TIP3   OH233488   4.526   6.819   4.842
11182TIP3    H133489   4.433   6.840   4.838
11182TIP3    H233490   4.535   6.739   4.791
11183TIP3   OH233491   2.043   1.825   5.742
11183TIP3    H133492   2.038   1.754   5.678
11183TIP3    H233493   2.056   1.904   5.690
11184TIP3   OH233494   6.489   0.804   0.157
11184TIP3    H133495   6.553   0.774   0.222
11184TIP3    H233496   6.495   0.900   0.160
11185TIP3   OH233497   0.663   4.390   6.631
11185TIP3    H133498   0.672   4.453   6.703
11185TIP3    H233499   0.724   4.319   6.654
11186TIP3   OH233500   3.329   4.854   4.809
11186TIP3    H133501   3.392   4.887   4.873
11186TIP3    H233502   3.245   4.854   4.857
11187TIP3   OH233503   2.800   3.052   2.717
11187TIP3    H133504   2.767   3.141   2.709
11187TIP3    H233505   2.723   2.996   2.704
11188TIP3   OH233506   3.017   3.222   4.038
11188TIP3    H133507   2.936   3.263   4.008
11188TIP3    H233508   3.033   3.261   4.124
11189TIP3   OH233509   2.473   2.548   0.739
11189TIP3    H133510   2.432   2.468   0.704
11189TIP3    H233511   2.526   2.582   0.667
11190TIP3   OH233512   0.808   1.569   4.930
11190TIP3    H133513   0.768   1.538   5.011
11190TIP3    H233514   0.874   1.633   4.958
11191TIP3   OH233515   5.211   5.987   1.846
11191TIP3    H133516   5.299   5.956   1.823
11191TIP3    H233517   5.182   6.037   1.770
11192TIP3   OH233518   2.446   4.376   6.123
11192TIP3    H133519   2.487   4.459   6.146
11192TIP3    H233520   2.392   4.354   6.199
11193TIP3   OH233521   3.101   6.331   1.796
11193TIP3    H133522   3.007   6.338   1.778
11193TIP3    H233523   3.132   6.263   1.736
11194TIP3   OH233524   7.302   3.701   2.922
11194TIP3    H133525   7.282   3.694   2.829
11194TIP3    H233526   7.377   3.760   2.926
11195TIP3   OH233527   0.803   6.676   0.984
11195TIP3    H133528   0.798   6.600   1.041
11195TIP3    H233529   0.802   6.751   1.043
11196TIP3   OH233530   6.657   5.458   4.702
11196TIP3    H133531   6.593   5.442   4.771
11196TIP3    H233532   6.737   5.483   4.748
11197TIP3   OH233533   7.252   3.186   3.435
11197TIP3    H133534   7.332   3.232   3.461
11197TIP3    H233535   7.182   3.231   3.483
11198TIP3   OH233536   5.928   3.257   1.283
11198TIP3    H133537   5.868   3.290   1.217
11198TIP3    H233538   6.008   3.309   1.271
11199TIP3   OH233539   0.533   0.047   4.965
11199TIP3    H133540   0.560   0.084   4.881
11199TIP3    H233541   0.600  -0.018   4.986
11200TIP3   OH233542   6.497   0.922   1.752
11200TIP3    H133543   6.514   0.884   1.666
11200TIP3    H233544   6.402   0.923   1.760
11201TIP3   OH233545   2.847   4.602   5.319
11201TIP3    H133546   2.805   4.544   5.255
11201TIP3    H233547   2.900   4.543   5.374
11202TIP3   OH233548   3.701   6.450   5.620
11202TIP3    H133549   3.671   6.531   5.661
11202TIP3    H233550   3.782   6.475   5.575
11203TIP3   OH233551   5.009   3.485   1.845
11203TIP3    H133552   4.984   3.432   1.921
11203TIP3    H233553   4.934   3.542   1.830
11204TIP3   OH233554   2.608   0.681   4.198
11204TIP3    H133555   2.659   0.760   4.182
11204TIP3    H233556   2.661   0.629   4.258
11205TIP3   OH233557   0.204   6.179   6.204
11205TIP3    H133558   0.205   6.274   6.208
11205TIP3    H233559   0.295   6.154   6.191
11206TIP3   OH233560   2.920   0.357   4.346
11206TIP3    H133561   3.008   0.319   4.344
11206TIP3    H233562   2.874   0.308   4.415
11207TIP3   OH233563   0.512   5.283   4.683
11207TIP3    H133564   0.445   5.218   4.661
11207TIP3    H233565   0.571   5.282   4.608
11208TIP3   OH233566   7.358   3.455   0.584
11208TIP3    H133567   7.287   3.407   0.627
11208TIP3    H233568   7.334   3.547   0.594
11209TIP3   OH233569   2.135   3.959   2.763
11209TIP3    H133570   2.155   3.943   2.855
11209TIP3    H233571   2.050   3.919   2.749
11210TIP3   OH233572   3.631   1.699   2.322
11210TIP3    H133573   3.606   1.616   2.363
11210TIP3    H233574   3.560   1.759   2.345
11211TIP3   OH233575   1.844   3.011   2.189
11211TIP3    H133576   1.932   3.038   2.214
11211TIP3    H233577   1.785   3.057   2.249
11212TIP3   OH233578   3.074   1.928   6.241
11212TIP3    H133579   3.031   1.843   6.227
11212TIP3    H233580   3.076   1.968   6.154
11213TIP3   OH233581   1.957   6.807   3.878
11213TIP3    H133582   2.012   6.795   3.800
11213TIP3    H233583   1.991   6.887   3.918
11214TIP3   OH233584   5.862   6.611   4.691
11214TIP3    H133585   5.790   6.648   4.640
11214TIP3    H233586   5.906   6.551   4.631
11215TIP3   OH233587   5.790   6.712   0.645
11215TIP3    H133588   5.705   6.709   0.689
11215TIP3    H233589   5.812   6.621   0.628
11216TIP3   OH233590   3.649   6.820   2.480
11216TIP3    H133591   3.744   6.817   2.465
11216TIP3    H233592   3.640   6.851   2.570
11217TIP3   OH233593   5.122   7.730   2.916
11217TIP3    H133594   5.076   7.653   2.881
11217TIP3    H233595   5.214   7.706   2.914
11218TIP3   OH233596   1.186   2.289   2.920
11218TIP3    H133597   1.094   2.266   2.913
11218TIP3    H233598   1.191   2.380   2.891
11219TIP3   OH233599   3.282   5.684   4.153
11219TIP3    H133600   3.272   5.651   4.242
11219TIP3    H233601   3.192   5.700   4.123
11220TIP3   OH233602   3.940   4.146   4.293
11220TIP3    H133603   3.890   4.140   4.374
11220TIP3    H233604   3.896   4.215   4.243
11221TIP3   OH233605   4.751   5.059   6.434
11221TIP3    H133606   4.679   5.003   6.407
11221TIP3    H233607   4.749   5.132   6.372
11222TIP3   OH233608   1.092   3.478   4.544
11222TIP3    H133609   1.065   3.520   4.626
11222TIP3    H233610   1.093   3.384   4.564
11223TIP3   OH233611   2.296   6.121   0.338
11223TIP3    H133612   2.295   6.146   0.431
11223TIP3    H233613   2.273   6.202   0.291
11224TIP3   OH233614   7.058   0.784   6.381
11224TIP3    H133615   7.002   0.717   6.342
11224TIP3    H233616   7.002   0.861   6.390
11225TIP3   OH233617   7.290   7.033   1.871
11225TIP3    H133618   7.371   6.984   1.860
11225TIP3    H233619   7.271   7.029   1.964
11226TIP3   OH233620   1.496   7.049   3.683
11226TIP3    H133621   1.491   6.957   3.658
11226TIP3    H233622   1.406   7.072   3.706
11227TIP3   OH233623   2.647   5.999   2.139
11227TIP3    H133624   2.630   6.021   2.230
11227TIP3    H233625   2.579   5.937   2.115
11228TIP3   OH233626   7.414   0.459   4.490
11228TIP3    H133627   7.470   0.382   4.503
11228TIP3    H233628   7.402   0.495   4.578
11229TIP3   OH233629   5.302   0.317   6.054
11229TIP3    H133630   5.265   0.242   6.102
11229TIP3    H233631   5.226   0.358   6.012
11230TIP3   OH233632   5.720   5.778   2.967
11230TIP3    H133633   5.718   5.817   3.054
11230TIP3    H233634   5.739   5.851   2.908
11231TIP3   OH233635   6.830   7.325   3.154
11231TIP3    H133636   6.880   7.312   3.234
11231TIP3    H233637   6.768   7.395   3.175
11232TIP3   OH233638   5.401   3.516   0.701
11232TIP3    H133639   5.476   3.480   0.655
11232TIP3    H233640   5.325   3.489   0.648
11233TIP3   OH233641   1.583   1.977   3.827
11233TIP3    H133642   1.646   2.009   3.891
11233TIP3    H233643   1.543   1.901   3.869
11234TIP3   OH233644   7.121   6.996   0.905
11234TIP3    H133645   7.091   6.995   0.814
11234TIP3    H233646   7.198   7.053   0.904
11235TIP3   OH233647   0.579   6.480   4.200
11235TIP3    H133648   0.535   6.485   4.284
11235TIP3    H233649   0.562   6.392   4.168
11236TIP3   OH233650   3.169   3.699   3.842
11236TIP3    H133651   3.251   3.659   3.872
11236TIP3    H233652   3.129   3.633   3.786
11237TIP3   OH233653   3.702   6.848   4.921
11237TIP3    H133654   3.781   6.847   4.976
11237TIP3    H233655   3.660   6.763   4.937
11238TIP3   OH233656   0.912   0.931   3.623
11238TIP3    H133657   0.939   0.842   3.599
11238TIP3    H233658   0.864   0.921   3.705
11239TIP3   OH233659   3.520   5.101   1.262
11239TIP3    H133660   3.532   5.085   1.169
11239TIP3    H233661   3.535   5.016   1.303
11240TIP3   OH233662   5.775   2.429   1.099
11240TIP3    H133663   5.870   2.424   1.091
11240TIP3    H233664   5.757   2.407   1.190
11241TIP3   OH233665   5.534   1.626   3.091
11241TIP3    H133666   5.512   1.542   3.133
11241TIP3    H233667   5.620   1.611   3.052
11242TIP3   OH233668   2.494   1.704   1.202
11242TIP3    H133669   2.453   1.743   1.279
11242TIP3    H233670   2.443   1.624   1.186
11243TIP3   OH233671   5.155   6.605   0.363
11243TIP3    H133672   5.234   6.645   0.398
11243TIP3    H233673   5.084   6.647   0.411
11244TIP3   OH233674   2.634   0.811   0.263
11244TIP3    H133675   2.653   0.902   0.283
11244TIP3    H233676   2.538   0.807   0.259
11245TIP3   OH233677   4.787   4.607   5.351
11245TIP3    H133678   4.871   4.585   5.312
11245TIP3    H233679   4.808   4.631   5.441
11246TIP3   OH233680   5.741   3.204   3.040
11246TIP3    H133681   5.810   3.262   3.074
11246TIP3    H233682   5.777   3.170   2.958
11247TIP3   OH233683   5.078   0.137   0.985
11247TIP3    H133684   5.108   0.108   0.899
11247TIP3    H233685   5.152   0.186   1.021
11248TIP3   OH233686   0.960   5.437   4.544
11248TIP3    H133687   0.973   5.467   4.634
11248TIP3    H233688   1.034   5.472   4.496
11249TIP3   OH233689   3.900   3.295   4.328
11249TIP3    H133690   3.983   3.302   4.279
11249TIP3    H233691   3.848   3.369   4.297
11250TIP3   OH233692   2.828   6.249   4.188
11250TIP3    H133693   2.739   6.223   4.162
11250TIP3    H233694   2.883   6.175   4.161
11251TIP3   OH233695   5.126   7.219   5.836
11251TIP3    H133696   5.146   7.213   5.929
11251TIP3    H233697   5.180   7.151   5.796
11252TIP3   OH233698   7.299   7.671   5.993
11252TIP3    H133699   7.375   7.632   6.036
11252TIP3    H233700   7.290   7.622   5.911
11253TIP3   OH233701   3.836   2.963   0.643
11253TIP3    H133702   3.878   3.039   0.602
11253TIP3    H233703   3.776   2.930   0.576
11254TIP3   OH233704   1.312   3.977   1.525
11254TIP3    H133705   1.401   3.990   1.491
11254TIP3    H233706   1.286   3.891   1.490
11255TIP3   OH233707   6.323   5.343   5.786
11255TIP3    H133708   6.271   5.394   5.723
11255TIP3    H233709   6.322   5.254   5.751
11256TIP3   OH233710   4.097   4.751   2.176
11256TIP3    H133711   4.035   4.821   2.154
11256TIP3    H233712   4.183   4.791   2.166
11257TIP3   OH233713   0.201   7.108   1.755
11257TIP3    H133714   0.208   7.085   1.663
11257TIP3    H233715   0.110   7.138   1.766
11258TIP3   OH233716   3.241   4.501   2.419
11258TIP3    H133717   3.320   4.483   2.470
11258TIP3    H233718   3.223   4.593   2.436
11259TIP3   OH233719   6.987   3.290   3.541
11259TIP3    H133720   6.929   3.216   3.519
11259TIP3    H233721   6.964   3.313   3.631
11260TIP3   OH233722   8.191   3.970   5.946
11260TIP3    H133723   8.224   3.919   5.872
11260TIP3    H233724   8.143   4.042   5.906
11261TIP3   OH233725   7.813   5.874   4.581
11261TIP3    H133726   7.808   5.840   4.671
11261TIP3    H233727   7.858   5.958   4.590
11262TIP3   OH233728   1.610   2.577   5.626
11262TIP3    H133729   1.608   2.514   5.698
11262TIP3    H233730   1.581   2.526   5.550
11263TIP3   OH233731   3.686   4.275   0.430
11263TIP3    H133732   3.711   4.202   0.486
11263TIP3    H233733   3.746   4.270   0.355
11264TIP3   OH233734   5.189   2.021   4.020
11264TIP3    H133735   5.149   2.052   3.938
11264TIP3    H233736   5.171   2.091   4.082
11265TIP3   OH233737   6.964   6.678   1.897
11265TIP3    H133738   6.992   6.614   1.963
11265TIP3    H233739   6.967   6.629   1.814
11266TIP3   OH233740   5.723   0.743   4.551
11266TIP3    H133741   5.629   0.756   4.564
11266TIP3    H233742   5.737   0.760   4.458
11267TIP3   OH233743   8.228   5.110   5.484
11267TIP3    H133744   8.309   5.121   5.534
11267TIP3    H233745   8.230   5.180   5.418
11268TIP3   OH233746   6.665   1.125   4.898
11268TIP3    H133747   6.645   1.107   4.806
11268TIP3    H233748   6.582   1.152   4.936
11269TIP3   OH233749   8.236   5.951   4.874
11269TIP3    H133750   8.251   6.046   4.867
11269TIP3    H233751   8.167   5.934   4.809
11270TIP3   OH233752   1.127   5.652   1.812
11270TIP3    H133753   1.141   5.745   1.791
11270TIP3    H233754   1.050   5.651   1.869
11271TIP3   OH233755   6.946   1.180   5.502
11271TIP3    H133756   7.023   1.158   5.449
11271TIP3    H233757   6.949   1.117   5.575
11272TIP3   OH233758   5.842   2.778   0.801
11272TIP3    H133759   5.827   2.705   0.861
11272TIP3    H233760   5.834   2.740   0.714
11273TIP3   OH233761   0.173   0.114   1.905
11273TIP3    H133762   0.202   0.031   1.866
11273TIP3    H233763   0.200   0.181   1.842
11274TIP3   OH233764   3.742   0.687   0.044
11274TIP3    H133765   3.693   0.767   0.060
11274TIP3    H233766   3.819   0.694   0.100
11275TIP3   OH233767   4.659   5.461   4.293
11275TIP3    H133768   4.730   5.442   4.354
11275TIP3    H233769   4.612   5.378   4.284
11276TIP3   OH233770   3.673   7.544   0.335
11276TIP3    H133771   3.594   7.526   0.386
11276TIP3    H233772   3.655   7.627   0.291
11277TIP3   OH233773   1.153   1.150   1.384
11277TIP3    H133774   1.209   1.218   1.348
11277TIP3    H233775   1.204   1.070   1.378
11278TIP3   OH233776   6.925   4.029   1.425
11278TIP3    H133777   6.885   3.978   1.496
11278TIP3    H233778   6.980   4.094   1.469
11279TIP3   OH233779   4.143   5.770   2.928
11279TIP3    H133780   4.224   5.802   2.887
11279TIP3    H233781   4.106   5.846   2.972
11280TIP3   OH233782   2.424   4.100   3.428
11280TIP3    H133783   2.365   4.172   3.451
11280TIP3    H233784   2.379   4.021   3.458
11281TIP3   OH233785   1.115   1.875   1.471
11281TIP3    H133786   1.191   1.820   1.490
11281TIP3    H233787   1.143   1.964   1.490
11282TIP3   OH233788   1.282   6.687   5.105
11282TIP3    H133789   1.198   6.666   5.064
11282TIP3    H233790   1.260   6.735   5.184
11283TIP3   OH233791   2.916   6.315   0.809
11283TIP3    H133792   2.902   6.242   0.869
11283TIP3    H233793   2.847   6.377   0.830
11284TIP3   OH233794   3.671   7.529   4.947
11284TIP3    H133795   3.667   7.585   5.024
11284TIP3    H233796   3.611   7.456   4.967
11285TIP3   OH233797   3.156   1.049   1.468
11285TIP3    H133798   3.068   1.071   1.497
11285TIP3    H233799   3.199   1.014   1.547
11286TIP3   OH233800   3.280   5.219   1.087
11286TIP3    H133801   3.310   5.280   1.020
11286TIP3    H233802   3.251   5.275   1.159
11287TIP3   OH233803   0.277   2.199   5.576
11287TIP3    H133804   0.276   2.134   5.506
11287TIP3    H233805   0.368   2.200   5.607
11288TIP3   OH233806   8.049   6.720   4.654
11288TIP3    H133807   8.041   6.756   4.566
11288TIP3    H233808   7.967   6.672   4.668
11289TIP3   OH233809   6.554   1.087   0.155
11289TIP3    H133810   6.623   1.148   0.131
11289TIP3    H233811   6.523   1.118   0.240
11290TIP3   OH233812   7.150   0.185   1.531
11290TIP3    H133813   7.180   0.200   1.441
11290TIP3    H233814   7.222   0.217   1.585
11291TIP3   OH233815   7.345   3.058   6.230
11291TIP3    H133816   7.270   3.070   6.171
11291TIP3    H233817   7.422   3.064   6.173
11292TIP3   OH233818   1.936   1.657   3.258
11292TIP3    H133819   1.863   1.664   3.320
11292TIP3    H233820   2.003   1.609   3.306
11293TIP3   OH233821   7.519   4.375   6.613
11293TIP3    H133822   7.548   4.454   6.567
11293TIP3    H233823   7.437   4.400   6.656
11294TIP3   OH233824   4.243   6.856   1.401
11294TIP3    H133825   4.160   6.859   1.355
11294TIP3    H233826   4.220   6.831   1.491
11295TIP3   OH233827   7.545   0.240   1.866
11295TIP3    H133828   7.543   0.169   1.931
11295TIP3    H233829   7.578   0.315   1.915
11296TIP3   OH233830   5.917   1.382   5.346
11296TIP3    H133831   5.847   1.323   5.374
11296TIP3    H233832   5.873   1.466   5.332
11297TIP3   OH233833   2.432   6.231   1.182
11297TIP3    H133834   2.411   6.299   1.246
11297TIP3    H233835   2.511   6.262   1.138
11298TIP3   OH233836   4.735   2.319   1.107
11298TIP3    H133837   4.700   2.346   1.192
11298TIP3    H233838   4.660   2.287   1.058
11299TIP3   OH233839   4.705   7.478   5.362
11299TIP3    H133840   4.777   7.439   5.312
11299TIP3    H233841   4.733   7.568   5.378
11300TIP3   OH233842   6.192   7.450   6.322
11300TIP3    H133843   6.229   7.480   6.405
11300TIP3    H233844   6.222   7.360   6.313
11301TIP3   OH233845   1.928   0.620   3.977
11301TIP3    H133846   1.946   0.534   3.939
11301TIP3    H233847   1.840   0.642   3.947
11302TIP3   OH233848   2.160   7.426   0.211
11302TIP3    H133849   2.221   7.500   0.211
11302TIP3    H233850   2.075   7.465   0.233
11303TIP3   OH233851   4.662   0.333   1.025
11303TIP3    H133852   4.747   0.376   1.015
11303TIP3    H233853   4.600   0.406   1.035
11304TIP3   OH233854   1.741   3.942   3.708
11304TIP3    H133855   1.822   3.917   3.665
11304TIP3    H233856   1.678   3.876   3.681
11305TIP3   OH233857   3.627   3.425   1.184
11305TIP3    H133858   3.598   3.467   1.265
11305TIP3    H233859   3.679   3.492   1.140
11306TIP3   OH233860   3.151   2.692   3.389
11306TIP3    H133861   3.064   2.685   3.351
11306TIP3    H233862   3.208   2.643   3.329
11307TIP3   OH233863   4.279   6.390   3.139
11307TIP3    H133864   4.309   6.418   3.052
11307TIP3    H233865   4.350   6.333   3.171
11308TIP3   OH233866   2.225   7.238   0.732
11308TIP3    H133867   2.319   7.240   0.750
11308TIP3    H233868   2.211   7.307   0.667
11309TIP3   OH233869   0.236   4.944   2.150
11309TIP3    H133870   0.158   4.994   2.126
11309TIP3    H233871   0.309   5.004   2.138
11310TIP3   OH233872   5.039   2.572   1.381
11310TIP3    H133873   5.079   2.507   1.323
11310TIP3    H233874   5.111   2.602   1.436
11311TIP3   OH233875   3.895   6.938   2.657
11311TIP3    H133876   3.892   7.018   2.603
11311TIP3    H233877   3.889   6.970   2.747
11312TIP3   OH233878   3.032   0.466   1.564
11312TIP3    H133879   2.962   0.505   1.511
11312TIP3    H233880   3.070   0.539   1.613
11313TIP3   OH233881   6.995   0.036   6.230
11313TIP3    H133882   7.090   0.031   6.240
11313TIP3    H233883   6.962  -0.047   6.265
11314TIP3   OH233884   6.358   6.316   0.556
11314TIP3    H133885   6.451   6.338   0.553
11314TIP3    H233886   6.314   6.390   0.515
11315TIP3   OH233887   0.081   3.153   6.726
11315TIP3    H133888   0.107   3.097   6.653
11315TIP3    H233889  -0.002   3.193   6.697
11316TIP3   OH233890   0.561   6.882   0.837
11316TIP3    H133891   0.588   6.793   0.861
11316TIP3    H233892   0.603   6.938   0.902
11317TIP3   OH233893   2.309   1.883   4.012
11317TIP3    H133894   2.379   1.870   4.077
11317TIP3    H233895   2.228   1.874   4.062
11318TIP3   OH233896   5.335   1.502   5.087
11318TIP3    H133897   5.406   1.501   5.152
11318TIP3    H233898   5.256   1.486   5.139
11319TIP3   OH233899   4.650   5.034   2.113
11319TIP3    H133900   4.657   4.960   2.174
11319TIP3    H233901   4.614   4.997   2.033
11320TIP3   OH233902   3.902   6.855   5.934
11320TIP3    H133903   3.840   6.925   5.955
11320TIP3    H233904   3.959   6.849   6.011
11321TIP3   OH233905   6.924   6.554   0.502
11321TIP3    H133906   6.905   6.473   0.455
11321TIP3    H233907   6.844   6.573   0.551
11322TIP3   OH233908   4.403   3.366   2.480
11322TIP3    H133909   4.383   3.340   2.390
11322TIP3    H233910   4.340   3.317   2.534
11323TIP3   OH233911   0.091   7.037   3.686
11323TIP3    H133912   0.083   6.982   3.764
11323TIP3    H233913   0.128   7.119   3.718
11324TIP3   OH233914   0.144   0.585   5.862
11324TIP3    H133915   0.075   0.524   5.888
11324TIP3    H233916   0.150   0.646   5.936
11325TIP3   OH233917   6.308   5.816   0.431
11325TIP3    H133918   6.304   5.813   0.335
11325TIP3    H233919   6.370   5.886   0.451
11326TIP3   OH233920   5.723   0.583   2.325
11326TIP3    H133921   5.712   0.579   2.230
11326TIP3    H233922   5.636   0.566   2.361
11327TIP3   OH233923   0.887   5.086   1.697
11327TIP3    H133924   0.981   5.093   1.710
11327TIP3    H233925   0.863   5.007   1.746
11328TIP3   OH233926   0.753   6.680   1.316
11328TIP3    H133927   0.741   6.689   1.410
11328TIP3    H233928   0.665   6.696   1.280
11329TIP3   OH233929   5.694   7.261   4.812
11329TIP3    H133930   5.696   7.343   4.861
11329TIP3    H233931   5.645   7.201   4.868
11330TIP3   OH233932   5.616   6.654   1.358
11330TIP3    H133933   5.652   6.674   1.272
11330TIP3    H233934   5.555   6.725   1.375
11331TIP3   OH233935   8.260   0.153   2.235
11331TIP3    H133936   8.224   0.148   2.146
11331TIP3    H233937   8.343   0.106   2.230
11332TIP3   OH233938   3.393   5.777   1.131
11332TIP3    H133939   3.402   5.710   1.063
11332TIP3    H233940   3.473   5.828   1.125
11333TIP3   OH233941   6.494   2.185   1.672
11333TIP3    H133942   6.559   2.117   1.654
11333TIP3    H233943   6.413   2.152   1.633
11334TIP3   OH233944   4.119   1.002   6.136
11334TIP3    H133945   4.094   1.090   6.110
11334TIP3    H233946   4.036   0.954   6.140
11335TIP3   OH233947   0.596   5.878   4.392
11335TIP3    H133948   0.628   5.883   4.482
11335TIP3    H233949   0.554   5.792   4.387
11336TIP3   OH233950   0.726   0.893   0.893
11336TIP3    H133951   0.678   0.844   0.826
11336TIP3    H233952   0.698   0.984   0.881
11337TIP3   OH233953   1.447   7.752   6.098
11337TIP3    H133954   1.540   7.741   6.121
11337TIP3    H233955   1.448   7.819   6.029
11338TIP3   OH233956   2.087   0.045   1.301
11338TIP3    H133957   2.096  -0.049   1.284
11338TIP3    H233958   2.177   0.077   1.308
11339TIP3   OH233959   7.264   3.133   1.113
11339TIP3    H133960   7.275   3.038   1.115
11339TIP3    H233961   7.266   3.159   1.205
11340TIP3   OH233962   3.167   7.236   5.717
11340TIP3    H133963   3.234   7.189   5.767
11340TIP3    H233964   3.210   7.256   5.634
11341TIP3   OH233965   6.154   2.943   2.434
11341TIP3    H133966   6.192   2.898   2.510
11341TIP3    H233967   6.089   3.003   2.473
11342TIP3   OH233968   5.229   3.197   2.082
11342TIP3    H133969   5.245   3.119   2.135
11342TIP3    H233970   5.164   3.170   2.018
11343TIP3   OH233971   0.855   2.726   3.371
11343TIP3    H133972   0.766   2.755   3.350
11343TIP3    H233973   0.887   2.687   3.289
11344TIP3   OH233974   0.963   1.799   1.247
11344TIP3    H133975   1.001   1.805   1.334
11344TIP3    H233976   1.038   1.784   1.189
11345TIP3   OH233977   5.148   4.622   6.387
11345TIP3    H133978   5.151   4.628   6.482
11345TIP3    H233979   5.173   4.531   6.367
11346TIP3   OH233980   5.784   4.909   0.390
11346TIP3    H133981   5.776   4.995   0.433
11346TIP3    H233982   5.723   4.913   0.317
11347TIP3   OH233983   7.634   7.088   1.726
11347TIP3    H133984   7.656   7.173   1.763
11347TIP3    H233985   7.703   7.071   1.661
11348TIP3   OH233986   6.577   6.081   3.023
11348TIP3    H133987   6.627   6.101   3.103
11348TIP3    H233988   6.563   5.986   3.027
11349TIP3   OH233989   2.866   3.580   1.931
11349TIP3    H133990   2.932   3.606   1.995
11349TIP3    H233991   2.907   3.601   1.846
11350TIP3   OH233992   1.456   4.879   6.516
11350TIP3    H133993   1.418   4.952   6.565
11350TIP3    H233994   1.508   4.921   6.447
11351TIP3   OH233995   6.158   5.954   5.995
11351TIP3    H133996   6.154   6.007   5.915
11351TIP3    H233997   6.067   5.949   6.025
11352TIP3   OH233998   6.210   4.548   6.354
11352TIP3    H133999   6.244   4.633   6.325
11352TIP3    H234000   6.193   4.501   6.272
11353TIP3   OH234001   1.976   1.741   4.319
11353TIP3    H134002   1.973   1.681   4.394
11353TIP3    H234003   1.987   1.683   4.243
11354TIP3   OH234004   6.839   7.791   2.432
11354TIP3    H134005   6.865   7.882   2.429
11354TIP3    H234006   6.756   7.788   2.384
11355TIP3   OH234007   4.449   5.765   2.179
11355TIP3    H134008   4.539   5.780   2.148
11355TIP3    H234009   4.395   5.773   2.101
11356TIP3   OH234010   1.151   0.372   0.173
11356TIP3    H134011   1.214   0.444   0.171
11356TIP3    H234012   1.066   0.415   0.183
11357TIP3   OH234013   2.090   1.514   5.862
11357TIP3    H134014   2.063   1.604   5.882
11357TIP3    H234015   2.027   1.484   5.796
11358TIP3   OH234016   7.076   6.193   0.196
11358TIP3    H134017   7.014   6.155   0.259
11358TIP3    H234018   7.110   6.118   0.148
11359TIP3   OH234019   1.617   0.486   6.658
11359TIP3    H134020   1.546   0.446   6.609
11359TIP3    H234021   1.601   0.462   6.749
11360TIP3   OH234022   1.134   7.173   1.066
11360TIP3    H134023   1.156   7.266   1.069
11360TIP3    H234024   1.206   7.133   1.018
11361TIP3   OH234025   6.006   0.959   6.796
11361TIP3    H134026   6.011   0.915   6.712
11361TIP3    H234027   6.027   1.051   6.777
11362TIP3   OH234028   0.647   5.049   3.480
11362TIP3    H134029   0.599   5.010   3.552
11362TIP3    H234030   0.663   4.977   3.419
11363TIP3   OH234031   3.807   1.069   0.136
11363TIP3    H134032   3.845   1.147   0.176
11363TIP3    H234033   3.751   1.032   0.203
11364TIP3   OH234034   5.093   0.360   1.480
11364TIP3    H134035   5.031   0.300   1.438
11364TIP3    H234036   5.065   0.364   1.571
11365TIP3   OH234037   6.794   5.025   5.106
11365TIP3    H134038   6.774   5.027   5.200
11365TIP3    H234039   6.724   5.075   5.065
11366TIP3   OH234040   2.813   5.101   2.207
11366TIP3    H134041   2.782   5.013   2.229
11366TIP3    H234042   2.888   5.115   2.265
11367TIP3   OH234043   7.559   6.490   5.043
11367TIP3    H134044   7.536   6.558   4.979
11367TIP3    H234045   7.481   6.435   5.049
11368TIP3   OH234046   6.461   5.076   0.368
11368TIP3    H134047   6.498   5.065   0.456
11368TIP3    H234048   6.491   4.999   0.320
11369TIP3   OH234049   1.320   7.272   2.934
11369TIP3    H134050   1.372   7.270   2.854
11369TIP3    H234051   1.327   7.183   2.969
11370TIP3   OH234052   6.234   3.876   5.718
11370TIP3    H134053   6.186   3.921   5.648
11370TIP3    H234054   6.167   3.848   5.780
11371TIP3   OH234055   6.995   3.976   6.725
11371TIP3    H134056   7.055   4.007   6.792
11371TIP3    H234057   6.949   3.902   6.766
11372TIP3   OH234058   1.207   0.976   3.666
11372TIP3    H134059   1.116   0.985   3.692
11372TIP3    H234060   1.207   0.997   3.572
11373TIP3   OH234061   0.680   5.120   6.165
11373TIP3    H134062   0.684   5.216   6.164
11373TIP3    H234063   0.636   5.097   6.084
11374TIP3   OH234064   5.777   5.754   4.035
11374TIP3    H134065   5.687   5.777   4.011
11374TIP3    H234066   5.782   5.771   4.129
11375TIP3   OH234067   7.454   7.438   5.378
11375TIP3    H134068   7.494   7.515   5.337
11375TIP3    H234069   7.369   7.468   5.409
11376TIP3   OH234070   7.651   1.461   6.720
11376TIP3    H134071   7.733   1.468   6.770
11376TIP3    H234072   7.674   1.493   6.633
11377TIP3   OH234073   3.892   6.441   0.306
11377TIP3    H134074   3.868   6.474   0.393
11377TIP3    H234075   3.984   6.465   0.296
11378TIP3   OH234076   5.759   6.974   6.697
11378TIP3    H134077   5.678   6.989   6.746
11378TIP3    H234078   5.760   7.043   6.631
11379TIP3   OH234079   1.225   4.436   0.233
11379TIP3    H134080   1.314   4.464   0.209
11379TIP3    H234081   1.234   4.343   0.251
11380TIP3   OH234082   3.634   6.005   3.574
11380TIP3    H134083   3.698   6.032   3.639
11380TIP3    H234084   3.590   5.929   3.613
11381TIP3   OH234085   3.622   6.324   2.156
11381TIP3    H134086   3.597   6.372   2.235
11381TIP3    H234087   3.603   6.384   2.084
11382TIP3   OH234088   1.922   2.745   0.463
11382TIP3    H134089   1.856   2.729   0.530
11382TIP3    H234090   2.003   2.760   0.512
11383TIP3   OH234091   4.257   1.737   3.398
11383TIP3    H134092   4.235   1.813   3.342
11383TIP3    H234093   4.263   1.773   3.486
11384TIP3   OH234094   4.870   7.053   1.114
11384TIP3    H134095   4.865   7.015   1.026
11384TIP3    H234096   4.940   7.118   1.108
11385TIP3   OH234097   1.553   4.236   4.644
11385TIP3    H134098   1.459   4.224   4.653
11385TIP3    H234099   1.567   4.329   4.664
11386TIP3   OH234100   5.301   6.580   3.930
11386TIP3    H134101   5.375   6.595   3.870
11386TIP3    H234102   5.298   6.485   3.941
11387TIP3   OH234103   6.584   0.775   3.607
11387TIP3    H134104   6.506   0.825   3.632
11387TIP3    H234105   6.606   0.724   3.684
11388TIP3   OH234106   2.000   7.673   3.046
11388TIP3    H134107   1.994   7.683   2.951
11388TIP3    H234108   1.916   7.635   3.072
11389TIP3   OH234109   0.551   7.526   0.331
11389TIP3    H134110   0.559   7.439   0.371
11389TIP3    H234111   0.543   7.508   0.237
11390TIP3   OH234112   2.275   5.119   2.979
11390TIP3    H134113   2.320   5.045   2.938
11390TIP3    H234114   2.185   5.090   2.988
11391TIP3   OH234115   6.618   5.647   5.976
11391TIP3    H134116   6.524   5.640   5.994
11391TIP3    H234117   6.629   5.604   5.891
11392TIP3   OH234118   2.251   4.845   5.184
11392TIP3    H134119   2.261   4.760   5.228
11392TIP3    H234120   2.159   4.867   5.194
11393TIP3   OH234121   2.953   0.815   1.007
11393TIP3    H134122   2.886   0.841   0.944
11393TIP3    H234123   2.923   0.853   1.090
11394TIP3   OH234124   2.935   5.672   4.393
11394TIP3    H134125   2.929   5.583   4.429
11394TIP3    H234126   2.990   5.719   4.455
11395TIP3   OH234127   5.982   3.137   2.528
11395TIP3    H134128   5.992   3.176   2.614
11395TIP3    H234129   5.890   3.152   2.506
11396TIP3   OH234130   0.620   3.588   4.007
11396TIP3    H134131   0.692   3.525   4.006
11396TIP3    H234132   0.573   3.571   3.926
11397TIP3   OH234133   7.952   7.349   3.438
11397TIP3    H134134   8.028   7.335   3.494
11397TIP3    H234135   7.877   7.328   3.493
11398TIP3   OH234136   7.427   1.851   6.676
11398TIP3    H134137   7.503   1.909   6.665
11398TIP3    H234138   7.355   1.911   6.696
11399TIP3   OH234139   5.912   1.259   5.068
11399TIP3    H134140   5.952   1.332   5.114
11399TIP3    H234141   5.833   1.295   5.029
11400TIP3   OH234142   1.271   7.612   3.746
11400TIP3    H134143   1.260   7.545   3.678
11400TIP3    H234144   1.191   7.608   3.798
11401TIP3   OH234145   0.010   0.209   6.276
11401TIP3    H134146   0.012   0.253   6.191
11401TIP3    H234147   0.076   0.255   6.328
11402TIP3   OH234148   7.383   6.768   5.093
11402TIP3    H134149   7.350   6.690   5.137
11402TIP3    H234150   7.464   6.790   5.140
11403TIP3   OH234151   7.473   0.445   4.773
11403TIP3    H134152   7.482   0.358   4.734
11403TIP3    H234153   7.446   0.428   4.864
11404TIP3   OH234154   8.078   2.024   0.888
11404TIP3    H134155   8.022   1.964   0.839
11404TIP3    H234156   8.016   2.084   0.930
11405TIP3   OH234157   5.976   6.322   3.484
11405TIP3    H134158   5.980   6.412   3.517
11405TIP3    H234159   6.047   6.317   3.420
11406TIP3   OH234160   4.239   1.000   2.406
11406TIP3    H134161   4.269   0.910   2.392
11406TIP3    H234162   4.155   1.005   2.360
11407TIP3   OH234163   0.193   3.293   3.635
11407TIP3    H134164   0.267   3.276   3.693
11407TIP3    H234165   0.119   3.306   3.695
11408TIP3   OH234166   6.540   4.677   6.521
11408TIP3    H134167   6.470   4.729   6.559
11408TIP3    H234168   6.617   4.699   6.573
11409TIP3   OH234169   1.464   4.971   0.795
11409TIP3    H134170   1.438   4.983   0.704
11409TIP3    H234171   1.557   4.993   0.796
11410TIP3   OH234172   1.619   7.208   3.085
11410TIP3    H134173   1.600   7.141   3.150
11410TIP3    H234174   1.592   7.290   3.126
11411TIP3   OH234175   7.331   4.381   0.591
11411TIP3    H134176   7.374   4.339   0.665
11411TIP3    H234177   7.239   4.384   0.615
11412TIP3   OH234178   1.091   7.748   5.466
11412TIP3    H134179   1.110   7.791   5.383
11412TIP3    H234180   0.996   7.752   5.474
11413TIP3   OH234181   7.235   2.641   1.853
11413TIP3    H134182   7.149   2.682   1.864
11413TIP3    H234183   7.291   2.712   1.822
11414TIP3   OH234184   0.850   6.322   1.774
11414TIP3    H134185   0.787   6.373   1.825
11414TIP3    H234186   0.868   6.376   1.697
11415TIP3   OH234187   0.281   2.897   4.178
11415TIP3    H134188   0.257   2.963   4.244
11415TIP3    H234189   0.334   2.945   4.114
11416TIP3   OH234190   3.654   0.393   1.875
11416TIP3    H134191   3.629   0.345   1.796
11416TIP3    H234192   3.718   0.336   1.919
11417TIP3   OH234193   6.968   0.285   6.084
11417TIP3    H134194   7.005   0.359   6.133
11417TIP3    H234195   6.991   0.208   6.136
11418TIP3   OH234196   1.007   3.436   6.590
11418TIP3    H134197   0.913   3.431   6.572
11418TIP3    H234198   1.026   3.530   6.591
11419TIP3   OH234199   6.750   7.443   0.326
11419TIP3    H134200   6.798   7.524   0.307
11419TIP3    H234201   6.659   7.464   0.306
11420TIP3   OH234202   3.977   2.223   4.886
11420TIP3    H134203   3.961   2.290   4.952
11420TIP3    H234204   3.957   2.140   4.930
11421TIP3   OH234205   3.652   4.275   3.554
11421TIP3    H134206   3.619   4.199   3.602
11421TIP3    H234207   3.633   4.349   3.612
11422TIP3   OH234208   2.736   3.878   0.485
11422TIP3    H134209   2.784   3.801   0.455
11422TIP3    H234210   2.804   3.937   0.519
11423TIP3   OH234211   1.514   0.625   2.316
11423TIP3    H134212   1.457   0.565   2.268
11423TIP3    H234213   1.598   0.620   2.270
11424TIP3   OH234214   0.920   1.728   1.633
11424TIP3    H134215   0.986   1.712   1.700
11424TIP3    H234216   0.952   1.805   1.586
11425TIP3   OH234217   3.239   4.054   5.886
11425TIP3    H134218   3.172   4.121   5.897
11425TIP3    H234219   3.243   4.010   5.970
11426TIP3   OH234220   0.567   2.123   0.574
11426TIP3    H134221   0.555   2.076   0.656
11426TIP3    H234222   0.483   2.115   0.529
11427TIP3   OH234223   5.692  -0.003   2.373
11427TIP3    H134224   5.719   0.074   2.324
11427TIP3    H234225   5.765  -0.020   2.433
11428TIP3   OH234226   5.546   4.399   0.987
11428TIP3    H134227   5.518   4.344   1.060
11428TIP3    H234228   5.470   4.405   0.929
11429TIP3   OH234229   5.596   7.349   1.604
11429TIP3    H134230   5.652   7.276   1.576
11429TIP3    H234231   5.588   7.338   1.699
11430TIP3   OH234232   0.048   3.968   3.933
11430TIP3    H134233  -0.018   3.900   3.940
11430TIP3    H234234   0.111   3.934   3.869
11431TIP3   OH234235   7.820   4.222   4.923
11431TIP3    H134236   7.914   4.219   4.941
11431TIP3    H234237   7.790   4.304   4.962
11432TIP3   OH234238   4.441   6.726   3.546
11432TIP3    H134239   4.356   6.682   3.539
11432TIP3    H234240   4.485   6.682   3.618
11433TIP3   OH234241   2.991   0.765   2.715
11433TIP3    H134242   3.076   0.784   2.755
11433TIP3    H234243   2.927   0.790   2.783
11434TIP3   OH234244   5.868   3.833   6.377
11434TIP3    H134245   5.808   3.821   6.451
11434TIP3    H234246   5.946   3.873   6.416
11435TIP3   OH234247   3.411   0.897   5.069
11435TIP3    H134248   3.406   0.991   5.050
11435TIP3    H234249   3.482   0.865   5.013
11436TIP3   OH234250   6.111   2.123   2.893
11436TIP3    H134251   6.135   2.059   2.826
11436TIP3    H234252   6.035   2.086   2.937
11437TIP3   OH234253   6.491   7.489   4.435
11437TIP3    H134254   6.485   7.448   4.348
11437TIP3    H234255   6.525   7.419   4.491
11438TIP3   OH234256   6.925   5.073   1.043
11438TIP3    H134257   6.948   4.988   1.005
11438TIP3    H234258   6.993   5.132   1.011
11439TIP3   OH234259   5.456   1.231   3.765
11439TIP3    H134260   5.508   1.161   3.804
11439TIP3    H234261   5.366   1.200   3.770
11440TIP3   OH234262   5.404   7.725   2.065
11440TIP3    H134263   5.437   7.759   1.982
11440TIP3    H234264   5.320   7.685   2.043
11441TIP3   OH234265   7.677   7.652   2.247
11441TIP3    H134266   7.673   7.650   2.343
11441TIP3    H234267   7.764   7.620   2.226
11442TIP3   OH234268   1.942   4.440   5.282
11442TIP3    H134269   1.876   4.399   5.226
11442TIP3    H234270   1.903   4.524   5.307
11443TIP3   OH234271   4.868   1.102   4.860
11443TIP3    H134272   4.841   1.026   4.809
11443TIP3    H234273   4.951   1.130   4.820
11444TIP3   OH234274   1.075   2.763   3.762
11444TIP3    H134275   1.010   2.694   3.751
11444TIP3    H234276   1.159   2.716   3.759
11445TIP3   OH234277   4.922   1.415   2.353
11445TIP3    H134278   4.950   1.420   2.261
11445TIP3    H234279   4.853   1.480   2.361
11446TIP3   OH234280   3.098   0.617   2.969
11446TIP3    H134281   3.111   0.615   3.064
11446TIP3    H234282   3.168   0.562   2.934
11447TIP3   OH234283   7.145   7.065   2.769
11447TIP3    H134284   7.053   7.077   2.793
11447TIP3    H234285   7.149   6.976   2.734
11448TIP3   OH234286   1.212   3.618   3.682
11448TIP3    H134287   1.138   3.673   3.704
11448TIP3    H234288   1.238   3.578   3.765
11449TIP3   OH234289   6.433   0.447   4.620
11449TIP3    H134290   6.475   0.362   4.610
11449TIP3    H234291   6.402   0.448   4.711
11450TIP3   OH234292   2.758   6.540   4.168
11450TIP3    H134293   2.761   6.454   4.209
11450TIP3    H234294   2.763   6.522   4.074
11451TIP3   OH234295   3.522   6.847   3.632
11451TIP3    H134296   3.594   6.848   3.694
11451TIP3    H234297   3.519   6.757   3.600
11452TIP3   OH234298   1.180   1.617   2.647
11452TIP3    H134299   1.253   1.632   2.705
11452TIP3    H234300   1.120   1.689   2.664
11453TIP3   OH234301   6.502   0.298   2.253
11453TIP3    H134302   6.474   0.332   2.169
11453TIP3    H234303   6.459   0.354   2.318
11454TIP3   OH234304   3.688   5.188   5.342
11454TIP3    H134305   3.778   5.197   5.371
11454TIP3    H234306   3.655   5.112   5.391
11455TIP3   OH234307   8.083   2.220   6.170
11455TIP3    H134308   8.147   2.254   6.108
11455TIP3    H234309   7.998   2.241   6.130
11456TIP3   OH234310   3.512   3.739   3.613
11456TIP3    H134311   3.419   3.725   3.600
11456TIP3    H234312   3.519   3.789   3.694
11457TIP3   OH234313   4.972   2.214   6.501
11457TIP3    H134314   4.920   2.138   6.474
11457TIP3    H234315   4.979   2.267   6.422
11458TIP3   OH234316   0.046   3.746   4.694
11458TIP3    H134317  -0.042   3.722   4.665
11458TIP3    H234318   0.036   3.766   4.787
11459TIP3   OH234319   6.475   1.386   5.700
11459TIP3    H134320   6.452   1.435   5.621
11459TIP3    H234321   6.558   1.344   5.679
11460TIP3   OH234322   8.022   7.445   1.491
11460TIP3    H134323   8.006   7.364   1.443
11460TIP3    H234324   7.944   7.458   1.544
11461TIP3   OH234325   4.775   6.881   5.131
11461TIP3    H134326   4.744   6.828   5.058
11461TIP3    H234327   4.823   6.953   5.090
11462TIP3   OH234328   4.610   2.912   3.900
11462TIP3    H134329   4.603   2.994   3.949
11462TIP3    H234330   4.627   2.845   3.967
11463TIP3   OH234331   0.463   2.442   2.118
11463TIP3    H134332   0.529   2.377   2.094
11463TIP3    H234333   0.424   2.408   2.199
11464TIP3   OH234334   1.055   2.535   3.482
11464TIP3    H134335   1.124   2.519   3.547
11464TIP3    H234336   1.085   2.612   3.433
11465TIP3   OH234337   3.588   4.324   2.085
11465TIP3    H134338   3.546   4.301   2.168
11465TIP3    H234339   3.553   4.261   2.022
11466TIP3   OH234340   4.785   5.044   3.128
11466TIP3    H134341   4.807   5.003   3.044
11466TIP3    H234342   4.859   5.102   3.146
11467TIP3   OH234343   5.783   4.927   0.996
11467TIP3    H134344   5.757   4.835   0.991
11467TIP3    H234345   5.701   4.976   0.999
11468TIP3   OH234346   1.393   4.332   4.302
11468TIP3    H134347   1.400   4.418   4.343
11468TIP3    H234348   1.299   4.319   4.290
11469TIP3   OH234349   8.196   3.447   5.048
11469TIP3    H134350   8.130   3.444   4.979
11469TIP3    H234351   8.279   3.454   5.002
11470TIP3   OH234352   6.470   2.044   4.517
11470TIP3    H134353   6.474   1.969   4.458
11470TIP3    H234354   6.561   2.071   4.529
11471TIP3   OH234355   5.748   4.989   6.057
11471TIP3    H134356   5.790   5.073   6.040
11471TIP3    H234357   5.704   4.967   5.975
11472TIP3   OH234358   7.187   2.462   1.039
11472TIP3    H134359   7.116   2.490   1.096
11472TIP3    H234360   7.215   2.541   0.994
11473TIP3   OH234361   4.111   0.228   0.577
11473TIP3    H134362   4.064   0.156   0.535
11473TIP3    H234363   4.166   0.265   0.508
11474TIP3   OH234364   4.774   6.773   4.111
11474TIP3    H134365   4.769   6.830   4.188
11474TIP3    H234366   4.751   6.686   4.144
11475TIP3   OH234367   1.376   1.783   4.706
11475TIP3    H134368   1.303   1.792   4.767
11475TIP3    H234369   1.440   1.848   4.736
11476TIP3   OH234370   0.404   1.878   1.949
11476TIP3    H134371   0.422   1.889   1.856
11476TIP3    H234372   0.478   1.828   1.982
11477TIP3   OH234373   6.671   3.081   3.810
11477TIP3    H134374   6.589   3.101   3.855
11477TIP3    H234375   6.672   3.140   3.734
11478TIP3   OH234376   3.244   5.785   3.567
11478TIP3    H134377   3.149   5.775   3.571
11478TIP3    H234378   3.261   5.871   3.606
11479TIP3   OH234379   3.284   4.981   5.574
11479TIP3    H134380   3.210   5.027   5.616
11479TIP3    H234381   3.311   4.916   5.639
11480TIP3   OH234382   0.625   3.570   4.865
11480TIP3    H134383   0.655   3.480   4.879
11480TIP3    H234384   0.694   3.611   4.812
11481TIP3   OH234385   1.864   0.735   1.013
11481TIP3    H134386   1.852   0.771   0.926
11481TIP3    H234387   1.793   0.671   1.023
11482TIP3   OH234388   6.826   6.517   3.434
11482TIP3    H134389   6.861   6.483   3.517
11482TIP3    H234390   6.900   6.562   3.394
11483TIP3   OH234391   6.988   1.858   3.972
11483TIP3    H134392   7.057   1.825   3.914
11483TIP3    H234393   7.005   1.816   4.056
11484TIP3   OH234394   2.194   3.577   5.090
11484TIP3    H134395   2.265   3.514   5.078
11484TIP3    H234396   2.131   3.556   5.020
11485TIP3   OH234397   6.799   2.634   3.532
11485TIP3    H134398   6.822   2.713   3.582
11485TIP3    H234399   6.704   2.630   3.536
11486TIP3   OH234400   6.416   0.823   0.999
11486TIP3    H134401   6.355   0.752   1.017
11486TIP3    H234402   6.489   0.809   1.060
11487TIP3   OH234403   4.460   1.910   3.716
11487TIP3    H134404   4.409   1.862   3.781
11487TIP3    H234405   4.437   2.002   3.731
11488TIP3   OH234406   5.704   2.878   5.229
11488TIP3    H134407   5.778   2.825   5.198
11488TIP3    H234408   5.744   2.958   5.262
11489TIP3   OH234409   2.064   3.839   4.614
11489TIP3    H134410   2.014   3.916   4.588
11489TIP3    H234411   2.078   3.791   4.532
11490TIP3   OH234412   5.495   0.794   1.003
11490TIP3    H134413   5.455   0.752   0.927
11490TIP3    H234414   5.588   0.797   0.982
11491TIP3   OH234415   4.249   2.637   4.132
11491TIP3    H134416   4.206   2.670   4.054
11491TIP3    H234417   4.178   2.607   4.188
11492TIP3   OH234418   1.778   5.567   1.720
11492TIP3    H134419   1.700   5.624   1.719
11492TIP3    H234420   1.846   5.619   1.677
11493TIP3   OH234421   1.145   5.188   1.456
11493TIP3    H134422   1.214   5.255   1.452
11493TIP3    H234423   1.173   5.130   1.526
11494TIP3   OH234424   2.542   2.446   2.971
11494TIP3    H134425   2.624   2.485   3.000
11494TIP3    H234426   2.542   2.358   3.010
11495TIP3   OH234427   2.251   7.417   4.532
11495TIP3    H134428   2.190   7.486   4.558
11495TIP3    H234429   2.303   7.457   4.463
11496TIP3   OH234430   5.540   5.590   0.601
11496TIP3    H134431   5.571   5.500   0.606
11496TIP3    H234432   5.482   5.600   0.676
11497TIP3   OH234433   5.922   2.423   2.653
11497TIP3    H134434   5.836   2.463   2.639
11497TIP3    H234435   5.920   2.394   2.744
11498TIP3   OH234436   0.000   6.028   2.507
11498TIP3    H134437   0.013   6.111   2.554
11498TIP3    H234438   0.063   6.031   2.436
11499TIP3   OH234439   6.557   1.209   3.193
11499TIP3    H134440   6.522   1.297   3.208
11499TIP3    H234441   6.482   1.151   3.205
11500TIP3   OH234442   2.508   0.857   2.464
11500TIP3    H134443   2.598   0.832   2.443
11500TIP3    H234444   2.462   0.853   2.381
11501TIP3   OH234445   2.747   7.057   4.050
11501TIP3    H134446   2.733   7.139   4.097
11501TIP3    H234447   2.805   7.080   3.977
11502TIP3   OH234448   4.031   6.527   6.613
11502TIP3    H134449   4.042   6.584   6.538
11502TIP3    H234450   3.938   6.532   6.635
11503TIP3   OH234451   0.527   6.233   4.048
11503TIP3    H134452   0.523   6.137   4.050
11503TIP3    H234453   0.620   6.253   4.038
11504TIP3   OH234454   4.766   1.582   6.265
11504TIP3    H134455   4.832   1.553   6.202
11504TIP3    H234456   4.696   1.516   6.259
11505TIP3   OH234457   6.238   3.299   4.141
11505TIP3    H134458   6.228   3.308   4.236
11505TIP3    H234459   6.172   3.235   4.116
11506TIP3   OH234460   4.487   2.745   4.141
11506TIP3    H134461   4.400   2.708   4.150
11506TIP3    H234462   4.537   2.678   4.094
11507TIP3   OH234463   5.030   4.836   2.630
11507TIP3    H134464   4.971   4.761   2.638
11507TIP3    H234465   5.091   4.810   2.560
11508TIP3   OH234466   2.353   0.410   5.061
11508TIP3    H134467   2.354   0.434   4.969
11508TIP3    H234468   2.330   0.317   5.062
11509TIP3   OH234469   2.786   4.625   3.078
11509TIP3    H134470   2.740   4.565   3.136
11509TIP3    H234471   2.757   4.601   2.990
11510TIP3   OH234472   6.395   4.111   2.457
11510TIP3    H134473   6.314   4.103   2.406
11510TIP3    H234474   6.465   4.109   2.391
11511TIP3   OH234475   7.769   2.676   4.712
11511TIP3    H134476   7.701   2.653   4.775
11511TIP3    H234477   7.850   2.640   4.750
11512TIP3   OH234478   3.840   4.613   3.635
11512TIP3    H134479   3.881   4.677   3.692
11512TIP3    H234480   3.907   4.593   3.569
11513TIP3   OH234481   4.957   7.127   5.365
11513TIP3    H134482   5.005   7.100   5.443
11513TIP3    H234483   4.964   7.052   5.305
11514TIP3   OH234484   6.696   7.296   0.560
11514TIP3    H134485   6.765   7.338   0.610
11514TIP3    H234486   6.697   7.341   0.475
11515TIP3   OH234487   2.707   7.676   6.079
11515TIP3    H134488   2.624   7.681   6.125
11515TIP3    H234489   2.758   7.750   6.112
11516TIP3   OH234490   4.568   6.865   3.971
11516TIP3    H134491   4.661   6.847   3.990
11516TIP3    H234492   4.524   6.851   4.055
11517TIP3   OH234493   3.042   7.510   3.225
11517TIP3    H134494   3.001   7.574   3.283
11517TIP3    H234495   3.038   7.551   3.138
11518TIP3   OH234496   6.657   6.527   3.825
11518TIP3    H134497   6.635   6.522   3.732
11518TIP3    H234498   6.606   6.456   3.865
11519TIP3   OH234499   5.747   3.267   1.066
11519TIP3    H134500   5.718   3.339   1.009
11519TIP3    H234501   5.760   3.193   1.007
11520TIP3   OH234502   1.846   6.699   5.026
11520TIP3    H134503   1.858   6.766   5.093
11520TIP3    H234504   1.752   6.701   5.006
11521TIP3   OH234505   0.763   6.547   5.047
11521TIP3    H134506   0.831   6.613   5.035
11521TIP3    H234507   0.809   6.463   5.036
11522TIP3   OH234508   7.778   3.129   5.908
11522TIP3    H134509   7.708   3.142   5.972
11522TIP3    H234510   7.736   3.142   5.823
11523TIP3   OH234511   3.628   2.769   1.397
11523TIP3    H134512   3.559   2.787   1.333
11523TIP3    H234513   3.658   2.856   1.424
11524TIP3   OH234514   1.742   5.091   4.769
11524TIP3    H134515   1.819   5.112   4.821
11524TIP3    H234516   1.762   5.005   4.731
11525TIP3   OH234517   1.697   6.203   4.901
11525TIP3    H134518   1.679   6.170   4.813
11525TIP3    H234519   1.773   6.261   4.890
11526TIP3   OH234520   7.504   5.383   0.617
11526TIP3    H134521   7.498   5.343   0.530
11526TIP3    H234522   7.468   5.317   0.676
11527TIP3   OH234523   5.494   3.953  -0.004
11527TIP3    H134524   5.438   3.880   0.022
11527TIP3    H234525   5.554   3.964   0.070
11528TIP3   OH234526   7.186   1.929   1.375
11528TIP3    H134527   7.279   1.942   1.393
11528TIP3    H234528   7.170   1.837   1.399
11529TIP3   OH234529   4.549   6.769   2.380
11529TIP3    H134530   4.592   6.810   2.455
11529TIP3    H234531   4.621   6.727   2.332
11530TIP3   OH234532   5.152   5.800   4.853
11530TIP3    H134533   5.228   5.790   4.796
11530TIP3    H234534   5.189   5.814   4.941
11531TIP3   OH234535   1.599   7.130   5.406
11531TIP3    H134536   1.653   7.058   5.374
11531TIP3    H234537   1.591   7.113   5.500
11532TIP3   OH234538   3.101   5.015   0.264
11532TIP3    H134539   3.100   5.047   0.355
11532TIP3    H234540   3.193   4.997   0.246
11533TIP3   OH234541   6.074   3.834   5.112
11533TIP3    H134542   6.141   3.878   5.164
11533TIP3    H234543   6.056   3.752   5.159
11534TIP3   OH234544   0.066   3.184   2.622
11534TIP3    H134545   0.006   3.156   2.691
11534TIP3    H234546   0.030   3.268   2.592
11535TIP3   OH234547   5.945   7.444   5.977
11535TIP3    H134548   5.969   7.533   5.950
11535TIP3    H234549   5.854   7.451   6.004
11536TIP3   OH234550   5.759   0.793   5.997
11536TIP3    H134551   5.725   0.791   6.086
11536TIP3    H234552   5.853   0.810   6.007
11537TIP3   OH234553   7.577   5.330   4.102
11537TIP3    H134554   7.558   5.329   4.196
11537TIP3    H234555   7.659   5.379   4.095
11538TIP3   OH234556   3.540   6.350   6.513
11538TIP3    H134557   3.530   6.445   6.509
11538TIP3    H234558   3.634   6.334   6.503
11539TIP3   OH234559   6.739   1.186   5.233
11539TIP3    H134560   6.753   1.117   5.169
11539TIP3    H234561   6.817   1.183   5.289
11540TIP3   OH234562   0.956   0.252   3.867
11540TIP3    H134563   0.944   0.259   3.962
11540TIP3    H234564   0.888   0.190   3.839
11541TIP3   OH234565   6.597   0.501   1.719
11541TIP3    H134566   6.663   0.546   1.772
11541TIP3    H234567   6.599   0.410   1.749
11542TIP3   OH234568   6.586   0.003   6.556
11542TIP3    H134569   6.672   0.046   6.557
11542TIP3    H234570   6.547   0.027   6.472
11543TIP3   OH234571   6.072   3.531   6.516
11543TIP3    H134572   6.130   3.569   6.450
11543TIP3    H234573   5.984   3.556   6.489
11544TIP3   OH234574   3.110   5.598   2.609
11544TIP3    H134575   3.035   5.626   2.556
11544TIP3    H234576   3.124   5.670   2.670
11545TIP3   OH234577   4.122   2.805   1.376
11545TIP3    H134578   4.067   2.756   1.438
11545TIP3    H234579   4.135   2.890   1.418
11546TIP3   OH234580   5.880   3.025   1.844
11546TIP3    H134581   5.797   3.068   1.826
11546TIP3    H234582   5.929   3.088   1.897
11547TIP3   OH234583   4.125   4.430   3.910
11547TIP3    H134584   4.179   4.472   3.842
11547TIP3    H234585   4.145   4.479   3.990
11548TIP3   OH234586   3.316   6.980   2.227
11548TIP3    H134587   3.298   6.896   2.270
11548TIP3    H234588   3.363   7.031   2.293
11549TIP3   OH234589   6.552   6.286   3.947
11549TIP3    H134590   6.492   6.226   3.991
11549TIP3    H234591   6.620   6.304   4.011
11550TIP3   OH234592   6.360   3.340   1.295
11550TIP3    H134593   6.306   3.414   1.322
11550TIP3    H234594   6.333   3.268   1.351
11551TIP3   OH234595   0.588   5.562   4.396
11551TIP3    H134596   0.640   5.583   4.474
11551TIP3    H234597   0.650   5.568   4.323
11552TIP3   OH234598   7.023   7.058   3.524
11552TIP3    H134599   7.100   7.015   3.487
11552TIP3    H234600   7.047   7.076   3.615
11553TIP3   OH234601   1.732   0.202   0.840
11553TIP3    H134602   1.700   0.232   0.755
11553TIP3    H234603   1.654   0.168   0.884
11554TIP3   OH234604   0.140   3.958   5.381
11554TIP3    H134605   0.130   4.015   5.458
11554TIP3    H234606   0.221   3.910   5.398
11555TIP3   OH234607   3.897   2.020   2.656
11555TIP3    H134608   3.959   2.049   2.723
11555TIP3    H234609   3.811   2.037   2.694
11556TIP3   OH234610   4.909   6.875   2.277
11556TIP3    H134611   4.899   6.960   2.233
11556TIP3    H234612   4.909   6.896   2.370
11557TIP3   OH234613   4.617   0.797   4.509
11557TIP3    H134614   4.589   0.865   4.448
11557TIP3    H234615   4.537   0.769   4.553
11558TIP3   OH234616   0.256   6.470   3.175
11558TIP3    H134617   0.195   6.544   3.173
11558TIP3    H234618   0.319   6.492   3.242
11559TIP3   OH234619   4.945   1.490   2.062
11559TIP3    H134620   4.923   1.459   1.974
11559TIP3    H234621   5.036   1.519   2.055
11560TIP3   OH234622   4.327   3.053   0.878
11560TIP3    H134623   4.394   3.029   0.814
11560TIP3    H234624   4.367   3.034   0.962
11561TIP3   OH234625   6.471   2.282   2.253
11561TIP3    H134626   6.500   2.312   2.339
11561TIP3    H234627   6.479   2.359   2.197
11562TIP3   OH234628   0.301   3.410   1.974
11562TIP3    H134629   0.206   3.406   1.980
11562TIP3    H234630   0.320   3.394   1.882
11563TIP3   OH234631   8.157   4.658   3.813
11563TIP3    H134632   8.178   4.732   3.756
11563TIP3    H234633   8.100   4.602   3.759
11564TIP3   OH234634   2.780   3.467   5.279
11564TIP3    H134635   2.752   3.446   5.190
11564TIP3    H234636   2.827   3.389   5.308
11565TIP3   OH234637   1.634   4.253   0.569
11565TIP3    H134638   1.622   4.223   0.659
11565TIP3    H234639   1.727   4.240   0.552
11566TIP3   OH234640   0.667   3.999   0.064
11566TIP3    H134641   0.664   4.028   0.156
11566TIP3    H234642   0.755   4.023   0.035
11567TIP3   OH234643   4.544   6.074   6.174
11567TIP3    H134644   4.632   6.093   6.206
11567TIP3    H234645   4.555   5.996   6.119
11568TIP3   OH234646   2.061   0.537   0.928
11568TIP3    H134647   2.081   0.552   0.836
11568TIP3    H234648   1.985   0.593   0.946
11569TIP3   OH234649   4.620   5.719   3.381
11569TIP3    H134650   4.709   5.742   3.354
11569TIP3    H234651   4.590   5.658   3.314
11570TIP3   OH234652   3.572   6.631   3.502
11570TIP3    H134653   3.605   6.583   3.578
11570TIP3    H234654   3.556   6.564   3.436
11571TIP3   OH234655   3.965   0.912   5.478
11571TIP3    H134656   3.939   0.824   5.506
11571TIP3    H234657   3.894   0.969   5.507
11572TIP3   OH234658   0.060   3.780   0.700
11572TIP3    H134659   0.092   3.855   0.750
11572TIP3    H234660   0.128   3.764   0.635
11573TIP3   OH234661   2.406   3.885   2.175
11573TIP3    H134662   2.325   3.900   2.224
11573TIP3    H234663   2.391   3.925   2.090
11574TIP3   OH234664   4.403   5.206   6.783
11574TIP3    H134665   4.310   5.199   6.763
11574TIP3    H234666   4.444   5.234   6.701
11575TIP3   OH234667   0.655   4.590   3.415
11575TIP3    H134668   0.648   4.495   3.421
11575TIP3    H234669   0.708   4.615   3.492
11576TIP3   OH234670   5.565   0.333   6.264
11576TIP3    H134671   5.519   0.291   6.337
11576TIP3    H234672   5.607   0.261   6.218
11577TIP3   OH234673   0.168   0.825   3.206
11577TIP3    H134674   0.182   0.747   3.152
11577TIP3    H234675   0.081   0.857   3.181
11578TIP3   OH234676   0.164   6.855   4.126
11578TIP3    H134677   0.170   6.861   4.221
11578TIP3    H234678   0.255   6.863   4.096
11579TIP3   OH234679   6.491   4.516   2.157
11579TIP3    H134680   6.559   4.488   2.095
11579TIP3    H234681   6.537   4.524   2.241
11580TIP3   OH234682   2.955   3.374   4.271
11580TIP3    H134683   2.903   3.356   4.349
11580TIP3    H234684   3.030   3.425   4.302
11581TIP3   OH234685   4.946   5.781   0.067
11581TIP3    H134686   4.866   5.747   0.108
11581TIP3    H234687   5.016   5.759   0.128
11582TIP3   OH234688   2.775   2.625   1.641
11582TIP3    H134689   2.765   2.531   1.626
11582TIP3    H234690   2.686   2.660   1.635
11583TIP3   OH234691   1.262   2.950   4.930
11583TIP3    H134692   1.289   2.963   4.839
11583TIP3    H234693   1.201   2.876   4.927
11584TIP3   OH234694   6.809   3.054   3.484
11584TIP3    H134695   6.808   3.024   3.393
11584TIP3    H234696   6.840   2.978   3.534
11585TIP3   OH234697   7.416   6.705   1.342
11585TIP3    H134698   7.418   6.697   1.247
11585TIP3    H234699   7.343   6.764   1.360
11586TIP3   OH234700   6.188   3.919   4.570
11586TIP3    H134701   6.148   3.859   4.507
11586TIP3    H234702   6.218   3.863   4.641
11587TIP3   OH234703   2.501   1.836   2.513
11587TIP3    H134704   2.527   1.863   2.602
11587TIP3    H234705   2.547   1.754   2.499
11588TIP3   OH234706   5.650   6.508   5.604
11588TIP3    H134707   5.722   6.564   5.631
11588TIP3    H234708   5.687   6.453   5.535
11589TIP3   OH234709   3.582   1.644   1.043
11589TIP3    H134710   3.622   1.670   1.125
11589TIP3    H234711   3.556   1.553   1.057
11590TIP3   OH234712   0.998   7.253   4.316
11590TIP3    H134713   1.091   7.231   4.310
11590TIP3    H234714   0.976   7.235   4.407
11591TIP3   OH234715   2.174   0.114   1.590
11591TIP3    H134716   2.080   0.131   1.584
11591TIP3    H234717   2.185   0.030   1.546
11592TIP3   OH234718   5.121   6.550   3.194
11592TIP3    H134719   5.121   6.561   3.099
11592TIP3    H234720   5.029   6.548   3.218
11593TIP3   OH234721   0.761   7.266   1.354
11593TIP3    H134722   0.833   7.305   1.404
11593TIP3    H234723   0.788   7.176   1.338
11594TIP3   OH234724   7.967   4.031   1.846
11594TIP3    H134725   7.963   4.088   1.923
11594TIP3    H234726   7.914   3.955   1.870
11595TIP3   OH234727   1.636   0.155   2.113
11595TIP3    H134728   1.673   0.239   2.086
11595TIP3    H234729   1.649   0.153   2.208
11596TIP3   OH234730   3.946   1.347   6.647
11596TIP3    H134731   3.979   1.286   6.582
11596TIP3    H234732   4.012   1.345   6.717
11597TIP3   OH234733   5.931   6.722   5.589
11597TIP3    H134734   6.026   6.728   5.575
11597TIP3    H234735   5.920   6.728   5.684
11598TIP3   OH234736   6.788   0.707   0.034
11598TIP3    H134737   6.814   0.690   0.125
11598TIP3    H234738   6.863   0.679  -0.018
11599TIP3   OH234739   7.091   5.450   3.746
11599TIP3    H134740   7.056   5.366   3.774
11599TIP3    H234741   7.186   5.440   3.750
11600TIP3   OH234742   0.412   7.598   5.613
11600TIP3    H134743   0.366   7.639   5.686
11600TIP3    H234744   0.407   7.662   5.542
11601TIP3   OH234745   8.291   7.152   0.183
11601TIP3    H134746   8.286   7.184   0.093
11601TIP3    H234747   8.221   7.087   0.189
11602TIP3   OH234748   2.279   1.063   6.018
11602TIP3    H134749   2.238   1.046   5.933
11602TIP3    H234750   2.239   1.000   6.077
11603TIP3   OH234751   7.837   2.766   2.959
11603TIP3    H134752   7.854   2.718   3.039
11603TIP3    H234753   7.748   2.743   2.934
11604TIP3   OH234754   1.362   5.343   1.445
11604TIP3    H134755   1.416   5.379   1.516
11604TIP3    H234756   1.422   5.337   1.370
11605TIP3   OH234757   3.700   7.718   5.175
11605TIP3    H134758   3.685   7.805   5.138
11605TIP3    H234759   3.613   7.681   5.185
11606TIP3   OH234760   1.600   3.334   5.317
11606TIP3    H134761   1.583   3.384   5.397
11606TIP3    H234762   1.565   3.389   5.246
11607TIP3   OH234763   0.482   7.482   5.294
11607TIP3    H134764   0.560   7.458   5.344
11607TIP3    H234765   0.515   7.540   5.225
11608TIP3   OH234766   4.469   0.771   5.427
11608TIP3    H134767   4.380   0.800   5.449
11608TIP3    H234768   4.521   0.851   5.431
11609TIP3   OH234769   7.689   6.598   1.406
11609TIP3    H134770   7.594   6.608   1.401
11609TIP3    H234771   7.706   6.577   1.498
11610TIP3   OH234772   7.849   4.537   6.277
11610TIP3    H134773   7.885   4.618   6.239
11610TIP3    H234774   7.880   4.469   6.218
11611TIP3   OH234775   3.758   1.268   6.261
11611TIP3    H134776   3.731   1.283   6.352
11611TIP3    H234777   3.815   1.192   6.265
11612TIP3   OH234778   6.830   6.711   4.280
11612TIP3    H134779   6.755   6.770   4.281
11612TIP3    H234780   6.874   6.730   4.197
11613TIP3   OH234781   7.826   3.613   3.908
11613TIP3    H134782   7.820   3.693   3.961
11613TIP3    H234783   7.832   3.645   3.818
11614TIP3   OH234784   3.066   7.361   1.876
11614TIP3    H134785   3.158   7.339   1.860
11614TIP3    H234786   3.027   7.279   1.907
11615TIP3   OH234787   7.445   6.388   5.729
11615TIP3    H134788   7.499   6.346   5.662
11615TIP3    H234789   7.465   6.481   5.722
11616TIP3   OH234790   2.074   5.200   4.008
11616TIP3    H134791   2.043   5.113   3.984
11616TIP3    H234792   2.010   5.260   3.970
11617TIP3   OH234793   0.576   2.148   2.470
11617TIP3    H134794   0.494   2.111   2.503
11617TIP3    H234795   0.645   2.099   2.515
11618TIP3   OH234796   5.469   4.639   0.180
11618TIP3    H134797   5.453   4.615   0.089
11618TIP3    H234798   5.543   4.700   0.177
11619TIP3   OH234799   7.814   1.963   4.755
11619TIP3    H134800   7.884   1.904   4.727
11619TIP3    H234801   7.832   2.046   4.710
11620TIP3   OH234802   7.657   5.018   2.354
11620TIP3    H134803   7.689   4.944   2.302
11620TIP3    H234804   7.720   5.088   2.336
11621TIP3   OH234805   7.560   2.531   6.494
11621TIP3    H134806   7.531   2.622   6.507
11621TIP3    H234807   7.604   2.508   6.576
11622TIP3   OH234808   2.798   5.216   4.171
11622TIP3    H134809   2.820   5.127   4.197
11622TIP3    H234810   2.744   5.206   4.093
11623TIP3   OH234811   2.084   5.561   5.598
11623TIP3    H134812   1.998   5.544   5.558
11623TIP3    H234813   2.105   5.480   5.644
11624TIP3   OH234814   1.767   5.248   6.614
11624TIP3    H134815   1.772   5.152   6.616
11624TIP3    H234816   1.852   5.275   6.580
11625TIP3   OH234817   1.465   7.663   5.061
11625TIP3    H134818   1.519   7.736   5.031
11625TIP3    H234819   1.526   7.591   5.071
11626TIP3   OH234820   6.038   3.337   2.732
11626TIP3    H134821   6.081   3.361   2.814
11626TIP3    H234822   6.039   3.417   2.680
11627TIP3   OH234823   1.141   6.177   6.119
11627TIP3    H134824   1.180   6.238   6.056
11627TIP3    H234825   1.047   6.178   6.098
11628TIP3   OH234826   8.128   2.248   5.519
11628TIP3    H134827   8.119   2.174   5.459
11628TIP3    H234828   8.093   2.216   5.602
11629TIP3   OH234829   7.435   6.954   2.645
11629TIP3    H134830   7.343   6.980   2.647
11629TIP3    H234831   7.472   6.994   2.724
11630TIP3   OH234832   4.601   0.454   2.580
11630TIP3    H134833   4.618   0.542   2.548
11630TIP3    H234834   4.687   0.418   2.602
11631TIP3   OH234835   6.011   3.176   2.036
11631TIP3    H134836   6.098   3.215   2.025
11631TIP3    H234837   6.027   3.097   2.088
11632TIP3   OH234838   3.747   4.004   6.152
11632TIP3    H134839   3.670   4.062   6.144
11632TIP3    H234840   3.822   4.064   6.148
11633TIP3   OH234841   1.857   5.189   1.516
11633TIP3    H134842   1.837   5.114   1.461
11633TIP3    H234843   1.774   5.212   1.557
11634TIP3   OH234844   7.673   1.066   0.069
11634TIP3    H134845   7.633   1.109   0.145
11634TIP3    H234846   7.608   1.001   0.041
11635TIP3   OH234847   1.336   0.166   0.206
11635TIP3    H134848   1.268   0.230   0.184
11635TIP3    H234849   1.394   0.213   0.266
11636TIP3   OH234850   7.201   4.318   6.473
11636TIP3    H134851   7.267   4.250   6.461
11636TIP3    H234852   7.165   4.333   6.385
11637TIP3   OH234853   7.083   3.061   3.817
11637TIP3    H134854   7.031   3.141   3.817
11637TIP3    H234855   7.098   3.041   3.909
11638TIP3   OH234856   5.324   2.458   2.767
11638TIP3    H134857   5.362   2.531   2.815
11638TIP3    H234858   5.265   2.416   2.830
11639TIP3   OH234859   2.167   4.268   3.440
11639TIP3    H134860   2.249   4.313   3.423
11639TIP3    H234861   2.099   4.327   3.407
11640TIP3   OH234862   5.538   0.578   3.316
11640TIP3    H134863   5.469   0.596   3.252
11640TIP3    H234864   5.524   0.487   3.342
11641TIP3   OH234865   2.414   5.177   6.261
11641TIP3    H134866   2.400   5.261   6.305
11641TIP3    H234867   2.481   5.196   6.195
11642TIP3   OH234868   1.262   3.284   5.444
11642TIP3    H134869   1.198   3.214   5.430
11642TIP3    H234870   1.258   3.337   5.365
11643TIP3   OH234871   1.870   7.562   0.210
11643TIP3    H134872   1.776   7.570   0.191
11643TIP3    H234873   1.913   7.606   0.136
11644TIP3   OH234874   1.784   0.199   1.548
11644TIP3    H134875   1.724   0.127   1.529
11644TIP3    H234876   1.798   0.194   1.642
11645TIP3   OH234877   6.074   2.951   2.166
11645TIP3    H134878   6.091   2.859   2.144
11645TIP3    H234879   6.126   2.966   2.245
11646TIP3   OH234880   1.255   6.069   2.207
11646TIP3    H134881   1.178   6.117   2.176
11646TIP3    H234882   1.325   6.135   2.208
11647TIP3   OH234883   5.484   7.462   3.225
11647TIP3    H134884   5.547   7.406   3.268
11647TIP3    H234885   5.401   7.446   3.271
11648TIP3   OH234886   4.010   4.837   3.722
11648TIP3    H134887   4.003   4.826   3.817
11648TIP3    H234888   4.104   4.842   3.706
11649TIP3   OH234889   7.045   2.316   4.595
11649TIP3    H134890   6.956   2.346   4.612
11649TIP3    H234891   7.043   2.286   4.504
11650TIP3   OH234892   3.509   4.671   2.403
11650TIP3    H134893   3.586   4.701   2.356
11650TIP3    H234894   3.438   4.727   2.371
11651TIP3   OH234895   0.176   5.427   5.535
11651TIP3    H134896   0.246   5.388   5.481
11651TIP3    H234897   0.165   5.365   5.608
11652TIP3   OH234898   1.746   4.806   5.442
11652TIP3    H134899   1.761   4.744   5.371
11652TIP3    H234900   1.655   4.793   5.467
11653TIP3   OH234901   2.894   4.057   3.265
11653TIP3    H134902   2.964   4.060   3.199
11653TIP3    H234903   2.931   4.103   3.341
11654TIP3   OH234904   1.100   1.638   2.211
11654TIP3    H134905   1.144   1.673   2.288
11654TIP3    H234906   1.053   1.713   2.174
11655TIP3   OH234907   6.298   1.220   6.293
11655TIP3    H134908   6.297   1.300   6.241
11655TIP3    H234909   6.220   1.172   6.267
11656TIP3   OH234910   6.804   4.341   3.286
11656TIP3    H134911   6.834   4.348   3.377
11656TIP3    H234912   6.723   4.290   3.292
11657TIP3   OH234913   2.362   7.717   2.585
11657TIP3    H134914   2.280   7.730   2.537
11657TIP3    H234915   2.344   7.641   2.641
11658TIP3   OH234916   5.240   6.654   4.186
11658TIP3    H134917   5.292   6.650   4.105
11658TIP3    H234918   5.150   6.639   4.157
11659TIP3   OH234919   1.073   1.116   2.694
11659TIP3    H134920   1.168   1.110   2.688
11659TIP3    H234921   1.041   1.069   2.617
11660TIP3   OH234922   6.235   0.663   3.737
11660TIP3    H134923   6.190   0.623   3.662
11660TIP3    H234924   6.309   0.710   3.697
11661TIP3   OH234925   6.436   7.661   0.477
11661TIP3    H134926   6.364   7.601   0.498
11661TIP3    H234927   6.476   7.624   0.399
11662TIP3   OH234928   7.494   6.697   5.616
11662TIP3    H134929   7.412   6.686   5.664
11662TIP3    H234930   7.474   6.671   5.527
11663TIP3   OH234931   3.105   6.861   0.838
11663TIP3    H134932   3.021   6.819   0.819
11663TIP3    H234933   3.096   6.893   0.928
11664TIP3   OH234934   7.137   7.192   1.704
11664TIP3    H134935   7.128   7.137   1.782
11664TIP3    H234936   7.168   7.132   1.636
11665TIP3   OH234937   2.955   1.322   5.186
11665TIP3    H134938   2.978   1.403   5.141
11665TIP3    H234939   2.936   1.349   5.276
11666TIP3   OH234940   2.605   3.933   6.660
11666TIP3    H134941   2.624   3.847   6.697
11666TIP3    H234942   2.691   3.970   6.640
11667TIP3   OH234943   5.462   1.960   2.564
11667TIP3    H134944   5.515   2.002   2.631
11667TIP3    H234945   5.373   1.961   2.599
11668TIP3   OH234946   0.992   2.976   0.728
11668TIP3    H134947   1.012   2.929   0.647
11668TIP3    H234948   0.931   3.046   0.701
11669TIP3   OH234949   1.474   0.601   0.144
11669TIP3    H134950   1.535   0.643   0.083
11669TIP3    H234951   1.395   0.586   0.092
11670TIP3   OH234952   2.386   3.007   1.697
11670TIP3    H134953   2.425   3.001   1.610
11670TIP3    H234954   2.454   3.047   1.751
11671TIP3   OH234955   5.161   6.480   5.595
11671TIP3    H134956   5.109   6.400   5.604
11671TIP3    H234957   5.251   6.448   5.585
11672TIP3   OH234958   2.942   6.120   2.390
11672TIP3    H134959   3.009   6.053   2.375
11672TIP3    H234960   2.883   6.080   2.454
11673TIP3   OH234961   0.900   4.024   2.477
11673TIP3    H134962   0.835   3.956   2.456
11673TIP3    H234963   0.963   4.019   2.405
11674TIP3   OH234964   4.111   2.610   2.504
11674TIP3    H134965   4.172   2.684   2.503
11674TIP3    H234966   4.029   2.645   2.468
11675TIP3   OH234967   2.492   0.733   3.674
11675TIP3    H134968   2.470   0.740   3.767
11675TIP3    H234969   2.512   0.640   3.662
11676TIP3   OH234970   0.644   0.736   0.706
11676TIP3    H134971   0.598   0.727   0.622
11676TIP3    H234972   0.722   0.682   0.697
11677TIP3   OH234973   6.988   4.281   5.610
11677TIP3    H134974   6.960   4.306   5.698
11677TIP3    H234975   6.955   4.351   5.553
11678TIP3   OH234976   3.349   4.955   0.406
11678TIP3    H134977   3.309   4.913   0.482
11678TIP3    H234978   3.404   5.025   0.443
11679TIP3   OH234979   8.274   3.348   3.831
11679TIP3    H134980   8.259   3.254   3.829
11679TIP3    H234981   8.190   3.386   3.855
11680TIP3   OH234982   8.237   1.717   4.970
11680TIP3    H134983   8.160   1.681   5.014
11680TIP3    H234984   8.282   1.640   4.935
11681TIP3   OH234985   7.524   3.967   1.499
11681TIP3    H134986   7.449   3.913   1.474
11681TIP3    H234987   7.511   3.985   1.592
11682TIP3   OH234988   5.583   6.719   6.235
11682TIP3    H134989   5.635   6.703   6.314
11682TIP3    H234990   5.493   6.700   6.263
11683TIP3   OH234991   7.157   3.391   5.323
11683TIP3    H134992   7.136   3.410   5.414
11683TIP3    H234993   7.078   3.349   5.288
11684TIP3   OH234994   0.553   5.106   4.156
11684TIP3    H134995   0.594   5.177   4.107
11684TIP3    H234996   0.462   5.106   4.126
11685TIP3   OH234997   0.830   2.277   5.204
11685TIP3    H134998   0.907   2.285   5.262
11685TIP3    H234999   0.811   2.183   5.202
11686TIP3   OH235000   1.623   1.300   2.068
11686TIP3    H135001   1.579   1.264   2.145
11686TIP3    H235002   1.552   1.339   2.016
11687TIP3   OH235003   0.286   2.714   1.813
11687TIP3    H135004   0.230   2.649   1.857
11687TIP3    H235005   0.239   2.734   1.732
11688TIP3   OH235006   0.429   4.493   2.151
11688TIP3    H135007   0.505   4.519   2.202
11688TIP3    H235008   0.430   4.551   2.075
11689TIP3   OH235009   7.679   3.907   4.017
11689TIP3    H135010   7.706   3.886   3.927
11689TIP3    H235011   7.761   3.930   4.061
11690TIP3   OH235012   3.604   2.725   5.064
11690TIP3    H135013   3.585   2.815   5.038
11690TIP3    H235014   3.520   2.691   5.096
11691TIP3   OH235015   3.792   6.192   1.033
11691TIP3    H135016   3.863   6.218   1.092
11691TIP3    H235017   3.755   6.275   1.003
11692TIP3   OH235018   0.786   6.301   4.044
11692TIP3    H135019   0.812   6.346   3.964
11692TIP3    H235020   0.822   6.354   4.115
11693TIP3   OH235021   8.099   3.639   2.135
11693TIP3    H135022   8.073   3.719   2.181
11693TIP3    H235023   8.192   3.629   2.156
11694TIP3   OH235024   7.365   7.057   1.203
11694TIP3    H135025   7.302   7.125   1.226
11694TIP3    H235026   7.331   7.019   1.123
11695TIP3   OH235027   1.318   0.531   6.079
11695TIP3    H135028   1.282   0.448   6.048
11695TIP3    H235029   1.243   0.578   6.116
11696TIP3   OH235030   2.265   7.264   5.643
11696TIP3    H135031   2.334   7.314   5.686
11696TIP3    H235032   2.264   7.180   5.689
11697TIP3   OH235033   1.146   3.297   0.118
11697TIP3    H135034   1.201   3.360   0.071
11697TIP3    H235035   1.196   3.216   0.118
11698TIP3   OH235036   4.434   3.656   6.425
11698TIP3    H135037   4.397   3.659   6.337
11698TIP3    H235038   4.360   3.640   6.482
11699TIP3   OH235039   0.513   6.819   1.272
11699TIP3    H135040   0.456   6.896   1.277
11699TIP3    H235041   0.558   6.828   1.188
11700TIP3   OH235042   7.384   6.191   6.208
11700TIP3    H135043   7.426   6.235   6.134
11700TIP3    H235044   7.290   6.198   6.190
11701TIP3   OH235045   7.127   7.824   3.705
11701TIP3    H135046   7.073   7.824   3.626
11701TIP3    H235047   7.092   7.754   3.759
11702TIP3   OH235048   3.817   5.601   3.887
11702TIP3    H135049   3.728   5.636   3.888
11702TIP3    H235050   3.866   5.662   3.832
11703TIP3   OH235051   4.725   7.104   3.254
11703TIP3    H135052   4.722   7.132   3.345
11703TIP3    H235053   4.637   7.072   3.235
11704TIP3   OH235054   3.778   0.132   2.913
11704TIP3    H135055   3.824   0.100   2.991
11704TIP3    H235056   3.770   0.226   2.926
11705TIP3   OH235057   7.474   4.839   1.873
11705TIP3    H135058   7.541   4.779   1.905
11705TIP3    H235059   7.491   4.847   1.779
11706TIP3   OH235060   1.164   5.105   1.048
11706TIP3    H135061   1.145   5.159   1.125
11706TIP3    H235062   1.135   5.159   0.974
11707TIP3   OH235063   5.620   2.261   2.419
11707TIP3    H135064   5.622   2.245   2.514
11707TIP3    H235065   5.527   2.261   2.397
11708TIP3   OH235066   6.645   1.134   2.838
11708TIP3    H135067   6.633   1.044   2.807
11708TIP3    H235068   6.556   1.170   2.839
11709TIP3   OH235069   3.902   1.758   5.696
11709TIP3    H135070   3.951   1.767   5.614
11709TIP3    H235071   3.970   1.753   5.764
11710TIP3   OH235072   7.369   5.175   5.882
11710TIP3    H135073   7.347   5.249   5.939
11710TIP3    H235074   7.337   5.201   5.795
11711TIP3   OH235075   6.417   2.483   4.860
11711TIP3    H135076   6.374   2.568   4.849
11711TIP3    H235077   6.413   2.443   4.773
11712TIP3   OH235078   2.705   4.398   5.740
11712TIP3    H135079   2.763   4.468   5.771
11712TIP3    H235080   2.687   4.346   5.818
11713TIP3   OH235081   7.525   4.854   3.702
11713TIP3    H135082   7.566   4.782   3.748
11713TIP3    H235083   7.543   4.931   3.756
11714TIP3   OH235084   3.765   7.452   2.300
11714TIP3    H135085   3.674   7.451   2.328
11714TIP3    H235086   3.763   7.418   2.211
11715TIP3   OH235087   3.727   1.301   3.547
11715TIP3    H135088   3.699   1.225   3.497
11715TIP3    H235089   3.776   1.355   3.484
11716TIP3   OH235090   0.997   3.224   6.749
11716TIP3    H135091   1.015   3.293   6.684
11716TIP3    H235092   0.939   3.266   6.812
11717TIP3   OH235093   1.399   6.337   5.041
11717TIP3    H135094   1.318   6.313   4.997
11717TIP3    H235095   1.439   6.254   5.067
11718TIP3   OH235096   3.033   0.724   0.268
11718TIP3    H135097   2.946   0.687   0.277
11718TIP3    H235098   3.021   0.803   0.215
11719TIP3   OH235099   1.573   2.406   3.082
11719TIP3    H135100   1.625   2.463   3.025
11719TIP3    H235101   1.552   2.330   3.027
11720TIP3   OH235102   4.138   4.294   5.122
11720TIP3    H135103   4.231   4.312   5.107
11720TIP3    H235104   4.100   4.288   5.034
11721TIP3   OH235105   1.126   6.759   6.240
11721TIP3    H135106   1.043   6.737   6.282
11721TIP3    H235107   1.191   6.756   6.310
11722TIP3   OH235108   5.966   6.447   6.502
11722TIP3    H135109   6.016   6.467   6.582
11722TIP3    H235110   5.992   6.517   6.441
11723TIP3   OH235111   5.174   4.330   6.358
11723TIP3    H135112   5.141   4.287   6.437
11723TIP3    H235113   5.120   4.295   6.287
11724TIP3   OH235114   3.643   6.999   3.121
11724TIP3    H135115   3.555   6.962   3.129
11724TIP3    H235116   3.693   6.932   3.075
11725TIP3   OH235117   1.450   4.615   1.616
11725TIP3    H135118   1.405   4.616   1.700
11725TIP3    H235119   1.533   4.660   1.633
11726TIP3   OH235120   3.125   0.700   1.713
11726TIP3    H135121   3.051   0.761   1.715
11726TIP3    H235122   3.202   0.756   1.703
11727TIP3   OH235123   4.665   7.758   3.676
11727TIP3    H135124   4.596   7.790   3.735
11727TIP3    H235125   4.652   7.663   3.673
11728TIP3   OH235126   7.604   5.981   4.883
11728TIP3    H135127   7.689   5.957   4.847
11728TIP3    H235128   7.623   6.058   4.937
11729TIP3   OH235129   0.748   3.716   6.591
11729TIP3    H135130   0.658   3.681   6.589
11729TIP3    H235131   0.737   3.811   6.585
11730TIP3   OH235132   1.807   7.149   6.491
11730TIP3    H135133   1.797   7.102   6.408
11730TIP3    H235134   1.770   7.090   6.557
11731TIP3   OH235135   7.235   6.031   4.991
11731TIP3    H135136   7.209   5.998   5.077
11731TIP3    H235137   7.275   5.956   4.947
11732TIP3   OH235138   0.460   1.769   2.938
11732TIP3    H135139   0.429   1.691   2.892
11732TIP3    H235140   0.467   1.742   3.030
11733TIP3   OH235141   4.481   3.290   3.202
11733TIP3    H135142   4.414   3.287   3.269
11733TIP3    H235143   4.484   3.201   3.166
11734TIP3   OH235144   3.028   5.296   1.696
11734TIP3    H135145   3.093   5.295   1.626
11734TIP3    H235146   2.975   5.218   1.681
11735TIP3   OH235147   2.318   3.644   4.608
11735TIP3    H135148   2.408   3.621   4.584
11735TIP3    H235149   2.272   3.648   4.525
11736TIP3   OH235150   3.814   0.403   2.950
11736TIP3    H135151   3.760   0.482   2.953
11736TIP3    H235152   3.904   0.435   2.945
11737TIP3   OH235153   4.326   1.305   6.559
11737TIP3    H135154   4.404   1.355   6.585
11737TIP3    H235155   4.287   1.278   6.642
11738TIP3   OH235156   3.599   4.299   5.436
11738TIP3    H135157   3.506   4.288   5.419
11738TIP3    H235158   3.617   4.240   5.510
11739TIP3   OH235159   6.378   6.091   3.978
11739TIP3    H135160   6.387   6.050   4.065
11739TIP3    H235161   6.349   6.020   3.921
11740TIP3   OH235162   2.039   4.693   2.828
11740TIP3    H135163   2.048   4.776   2.873
11740TIP3    H235164   2.036   4.627   2.897
11741TIP3   OH235165   5.326   1.448   5.809
11741TIP3    H135166   5.421   1.442   5.808
11741TIP3    H235167   5.299   1.421   5.721
11742TIP3   OH235168   7.264   3.941   3.228
11742TIP3    H135169   7.227   3.859   3.258
11742TIP3    H235170   7.348   3.917   3.189
11743TIP3   OH235171   3.924   3.698   2.334
11743TIP3    H135172   3.923   3.655   2.420
11743TIP3    H235173   3.845   3.751   2.332
11744TIP3   OH235174   0.271   4.553   3.411
11744TIP3    H135175   0.306   4.479   3.459
11744TIP3    H235176   0.306   4.630   3.456
11745TIP3   OH235177   1.952   4.533   4.663
11745TIP3    H135178   1.944   4.504   4.754
11745TIP3    H235179   2.014   4.472   4.623
11746TIP3   OH235180   4.222   3.627   0.817
11746TIP3    H135181   4.153   3.561   0.816
11746TIP3    H235182   4.184   3.701   0.865
11747TIP3   OH235183   0.455   6.352   6.623
11747TIP3    H135184   0.374   6.373   6.576
11747TIP3    H235185   0.430   6.283   6.685
11748TIP3   OH235186   7.206   7.509   0.301
11748TIP3    H135187   7.272   7.440   0.293
11748TIP3    H235188   7.167   7.515   0.214
11749TIP3   OH235189   6.675   4.446   4.773
11749TIP3    H135190   6.589   4.474   4.805
11749TIP3    H235191   6.685   4.358   4.808
11750TIP3   OH235192   5.034   3.856   0.674
11750TIP3    H135193   4.968   3.830   0.738
11750TIP3    H235194   4.984   3.893   0.601
11751TIP3   OH235195   6.566   7.389   3.466
11751TIP3    H135196   6.562   7.402   3.371
11751TIP3    H235197   6.657   7.364   3.483
11752TIP3   OH235198   3.198   6.742   6.183
11752TIP3    H135199   3.149   6.660   6.175
11752TIP3    H235200   3.206   6.756   6.277
11753TIP3   OH235201   5.556   2.798   1.632
11753TIP3    H135202   5.531   2.739   1.561
11753TIP3    H235203   5.511   2.765   1.709
11754TIP3   OH235204   7.536   2.775   1.831
11754TIP3    H135205   7.612   2.749   1.883
11754TIP3    H235206   7.557   2.862   1.798
11755TIP3   OH235207   6.886   1.868   3.512
11755TIP3    H135208   6.895   1.790   3.568
11755TIP3    H235209   6.972   1.878   3.472
11756TIP3   OH235210   3.656  -0.010   3.907
11756TIP3    H135211   3.709   0.069   3.897
11756TIP3    H235212   3.586   0.000   3.842
11757TIP3   OH235213   0.610   0.386   4.228
11757TIP3    H135214   0.702   0.395   4.253
11757TIP3    H235215   0.600   0.294   4.205
11758TIP3   OH235216   7.365   4.592   4.300
11758TIP3    H135217   7.369   4.506   4.258
11758TIP3    H235218   7.423   4.585   4.376
11759TIP3   OH235219   0.530   3.905   1.373
11759TIP3    H135220   0.594   3.972   1.399
11759TIP3    H235221   0.582   3.837   1.330
11760TIP3   OH235222   2.433   7.563   4.405
11760TIP3    H135223   2.389   7.616   4.339
11760TIP3    H235224   2.466   7.626   4.469
11761TIP3   OH235225   8.144   7.747   1.730
11761TIP3    H135226   8.135   7.810   1.659
11761TIP3    H235227   8.107   7.791   1.806
11762TIP3   OH235228   0.046   6.271   2.647
11762TIP3    H135229   0.103   6.337   2.608
11762TIP3    H235230   0.045   6.292   2.740
11763TIP3   OH235231   4.793   3.222   4.616
11763TIP3    H135232   4.753   3.261   4.694
11763TIP3    H235233   4.872   3.274   4.601
11764TIP3   OH235234   5.957   6.985   1.242
11764TIP3    H135235   5.932   7.016   1.155
11764TIP3    H235236   5.959   6.890   1.233
11765TIP3   OH235237   3.056   7.494   2.181
11765TIP3    H135238   3.076   7.403   2.201
11765TIP3    H235239   3.004   7.490   2.101
11766TIP3   OH235240   3.341   6.994   6.726
11766TIP3    H135241   3.299   6.959   6.805
11766TIP3    H235242   3.289   6.960   6.654
11767TIP3   OH235243   1.209   0.282   3.614
11767TIP3    H135244   1.154   0.330   3.676
11767TIP3    H235245   1.181   0.312   3.528
11768TIP3   OH235246   1.498   4.765   5.516
11768TIP3    H135247   1.460   4.727   5.596
11768TIP3    H235248   1.435   4.743   5.447
11769TIP3   OH235249   1.843   3.343   2.416
11769TIP3    H135250   1.761   3.381   2.446
11769TIP3    H235251   1.854   3.375   2.327
11770TIP3   OH235252   4.985   0.895   1.762
11770TIP3    H135253   5.033   0.828   1.712
11770TIP3    H235254   4.898   0.896   1.722
11771TIP3   OH235255   2.108   5.222   6.679
11771TIP3    H135256   2.175   5.285   6.705
11771TIP3    H235257   2.125   5.145   6.733
11772TIP3   OH235258   7.702   0.123   6.077
11772TIP3    H135259   7.757   0.093   6.149
11772TIP3    H235260   7.619   0.147   6.118
11773TIP3   OH235261   4.438   1.434   5.051
11773TIP3    H135262   4.494   1.392   5.117
11773TIP3    H235263   4.499   1.471   4.988
11774TIP3   OH235264   5.439   4.770   3.795
11774TIP3    H135265   5.481   4.814   3.868
11774TIP3    H235266   5.358   4.818   3.780
11775TIP3   OH235267   2.129   7.203   2.317
11775TIP3    H135268   2.044   7.162   2.299
11775TIP3    H235269   2.185   7.175   2.245
11776TIP3   OH235270   6.016   7.366   1.812
11776TIP3    H135271   5.960   7.289   1.807
11776TIP3    H235272   5.984   7.415   1.887
11777TIP3   OH235273   4.673   6.754   6.416
11777TIP3    H135274   4.600   6.770   6.476
11777TIP3    H235275   4.748   6.737   6.472
11778TIP3   OH235276   7.873   2.669   6.014
11778TIP3    H135277   7.854   2.656   6.106
11778TIP3    H235278   7.899   2.761   6.007
11779TIP3   OH235279   2.310   4.466   3.096
11779TIP3    H135280   2.350   4.553   3.086
11779TIP3    H235281   2.223   4.476   3.056
11780TIP3   OH235282   6.951   3.447   1.793
11780TIP3    H135283   6.868   3.485   1.821
11780TIP3    H235284   6.961   3.369   1.848
11781TIP3   OH235285   6.147   6.694   1.808
11781TIP3    H135286   6.101   6.777   1.823
11781TIP3    H235287   6.208   6.687   1.882
11782TIP3   OH235288   0.245   2.653   4.864
11782TIP3    H135289   0.216   2.706   4.939
11782TIP3    H235290   0.332   2.687   4.843
11783TIP3   OH235291   2.059   1.415   2.548
11783TIP3    H135292   2.021   1.456   2.626
11783TIP3    H235293   2.101   1.487   2.502
11784TIP3   OH235294   4.021   3.076   1.097
11784TIP3    H135295   4.088   3.118   1.152
11784TIP3    H235296   4.068   3.051   1.018
11785TIP3   OH235297   0.864   4.229   5.093
11785TIP3    H135298   0.852   4.324   5.099
11785TIP3    H235299   0.907   4.205   5.175
11786TIP3   OH235300   0.310   3.888   6.713
11786TIP3    H135301   0.395   3.893   6.669
11786TIP3    H235302   0.256   3.953   6.668
11787TIP3   OH235303   3.019   1.651   3.093
11787TIP3    H135304   3.043   1.744   3.094
11787TIP3    H235305   3.079   1.611   3.156
11788TIP3   OH235306   2.940   3.015   5.060
11788TIP3    H135307   3.004   3.007   4.989
11788TIP3    H235308   2.991   3.001   5.140
11789TIP3   OH235309   4.963   0.904   1.383
11789TIP3    H135310   4.905   0.828   1.377
11789TIP3    H235311   5.038   0.874   1.434
11790TIP3   OH235312   7.386   4.674   2.488
11790TIP3    H135313   7.329   4.679   2.412
11790TIP3    H235314   7.382   4.761   2.527
11791TIP3   OH235315   3.223   6.495   1.071
11791TIP3    H135316   3.156   6.449   1.120
11791TIP3    H235317   3.237   6.442   0.992
11792TIP3   OH235318   3.949   2.517   0.788
11792TIP3    H135319   4.008   2.577   0.834
11792TIP3    H235320   3.975   2.430   0.818
11793TIP3   OH235321   0.358   3.510   2.778
11793TIP3    H135322   0.276   3.555   2.795
11793TIP3    H235323   0.338   3.417   2.790
11794TIP3   OH235324   2.935   4.936   3.580
11794TIP3    H135325   2.872   4.883   3.533
11794TIP3    H235326   3.019   4.891   3.567
11795TIP3   OH235327   8.003   0.669   3.990
11795TIP3    H135328   7.922   0.658   4.039
11795TIP3    H235329   7.978   0.652   3.899
11796TIP3   OH235330   8.015   3.879   1.485
11796TIP3    H135331   7.984   3.917   1.567
11796TIP3    H235332   8.091   3.931   1.462
11797TIP3   OH235333   3.987   3.374   6.558
11797TIP3    H135334   3.936   3.366   6.639
11797TIP3    H235335   3.921   3.379   6.489
11798TIP3   OH235336   3.179   2.351   4.482
11798TIP3    H135337   3.095   2.305   4.478
11798TIP3    H235338   3.196   2.361   4.576
11799TIP3   OH235339   6.501   2.361   3.211
11799TIP3    H135340   6.434   2.380   3.277
11799TIP3    H235341   6.453   2.321   3.138
11800TIP3   OH235342   3.462   2.293   5.716
11800TIP3    H135343   3.391   2.286   5.653
11800TIP3    H235344   3.540   2.268   5.668
11801TIP3   OH235345   6.303   7.688   2.216
11801TIP3    H135346   6.315   7.657   2.126
11801TIP3    H235347   6.276   7.610   2.265
11802TIP3   OH235348   7.053   3.853   6.479
11802TIP3    H135349   7.057   3.887   6.568
11802TIP3    H235350   7.055   3.930   6.423
11803TIP3   OH235351   6.223   1.322   2.111
11803TIP3    H135352   6.288   1.350   2.047
11803TIP3    H235353   6.218   1.394   2.173
11804TIP3   OH235354   7.446   0.452   5.643
11804TIP3    H135355   7.496   0.375   5.618
11804TIP3    H235356   7.476   0.521   5.584
11805TIP3   OH235357   5.541   5.898   3.996
11805TIP3    H135358   5.503   5.834   4.055
11805TIP3    H235359   5.467   5.929   3.943
11806TIP3   OH235360   6.672   3.398   1.191
11806TIP3    H135361   6.737   3.345   1.144
11806TIP3    H235362   6.623   3.334   1.244
11807TIP3   OH235363   5.908   5.652   2.579
11807TIP3    H135364   5.823   5.609   2.576
11807TIP3    H235365   5.972   5.581   2.583
11808TIP3   OH235366   6.827   1.255   6.245
11808TIP3    H135367   6.775   1.321   6.199
11808TIP3    H235368   6.890   1.224   6.180
11809TIP3   OH235369   6.025   1.789   2.933
11809TIP3    H135370   6.112   1.764   2.962
11809TIP3    H235371   6.040   1.851   2.862
11810TIP3   OH235372   8.273   7.466   0.680
11810TIP3    H135373   8.314   7.519   0.748
11810TIP3    H235374   8.187   7.444   0.716
11811TIP3   OH235375   6.390   7.250   1.025
11811TIP3    H135376   6.483   7.247   1.003
11811TIP3    H235377   6.345   7.246   0.941
11812TIP3   OH235378   2.933   0.667   4.143
11812TIP3    H135379   2.892   0.753   4.155
11812TIP3    H235380   2.870   0.618   4.091
11813TIP3   OH235381   1.788   1.050   1.166
11813TIP3    H135382   1.768   0.957   1.175
11813TIP3    H235383   1.853   1.053   1.096
11814TIP3   OH235384   7.909   6.577   5.137
11814TIP3    H135385   7.919   6.522   5.059
11814TIP3    H235386   7.821   6.559   5.168
11815TIP3   OH235387   6.090   7.763   0.303
11815TIP3    H135388   6.053   7.726   0.383
11815TIP3    H235389   6.093   7.857   0.319
11816TIP3   OH235390   3.157   6.393   2.318
11816TIP3    H135391   3.151   6.318   2.259
11816TIP3    H235392   3.221   6.367   2.384
11817TIP3   OH235393   2.395   5.367   2.869
11817TIP3    H135394   2.327   5.403   2.926
11817TIP3    H235395   2.364   5.280   2.846
11818TIP3   OH235396   6.391   1.284   3.735
11818TIP3    H135397   6.481   1.265   3.709
11818TIP3    H235398   6.371   1.220   3.803
11819TIP3   OH235399   2.714   6.321   0.506
11819TIP3    H135400   2.744   6.238   0.540
11819TIP3    H235401   2.664   6.361   0.578
11820TIP3   OH235402   0.127   7.188   5.511
11820TIP3    H135403   0.121   7.253   5.441
11820TIP3    H235404   0.038   7.153   5.518
11821TIP3   OH235405   8.162   6.048   1.346
11821TIP3    H135406   8.107   6.067   1.423
11821TIP3    H235407   8.190   6.134   1.316
11822TIP3   OH235408   3.177   6.674   6.479
11822TIP3    H135409   3.160   6.619   6.555
11822TIP3    H235410   3.188   6.613   6.406
11823TIP3   OH235411   7.068   0.126   0.171
11823TIP3    H135412   6.990   0.071   0.164
11823TIP3    H235413   7.121   0.085   0.239
11824TIP3   OH235414   7.168   3.997   4.133
11824TIP3    H135415   7.211   3.940   4.197
11824TIP3    H235416   7.165   4.083   4.174
11825TIP3   OH235417   1.445   0.684   1.250
11825TIP3    H135418   1.430   0.696   1.343
11825TIP3    H235419   1.468   0.771   1.218
11826TIP3   OH235420   3.537   2.985   2.185
11826TIP3    H135421   3.494   3.066   2.159
11826TIP3    H235422   3.468   2.933   2.226
11827TIP3   OH235423   7.150   4.596   5.777
11827TIP3    H135424   7.111   4.598   5.690
11827TIP3    H235425   7.178   4.686   5.793
11828TIP3   OH235426   7.889   6.726   4.306
11828TIP3    H135427   7.815   6.674   4.338
11828TIP3    H235428   7.962   6.664   4.304
11829TIP3   OH235429   4.560   3.753   0.102
11829TIP3    H135430   4.482   3.722   0.054
11829TIP3    H235431   4.549   3.720   0.191
11830TIP3   OH235432   3.679   7.204   6.766
11830TIP3    H135433   3.760   7.221   6.813
11830TIP3    H235434   3.697   7.229   6.676
11831TIP3   OH235435   1.775   5.013   1.047
11831TIP3    H135436   1.756   5.062   0.967
11831TIP3    H235437   1.705   5.038   1.108
11832TIP3   OH235438   4.354   3.277   2.215
11832TIP3    H135439   4.303   3.354   2.190
11832TIP3    H235440   4.302   3.203   2.183
11833TIP3   OH235441   6.622   6.811   0.825
11833TIP3    H135442   6.650   6.830   0.915
11833TIP3    H235443   6.558   6.879   0.806
11834TIP3   OH235444   7.251   3.816   4.325
11834TIP3    H135445   7.265   3.800   4.419
11834TIP3    H235446   7.281   3.736   4.282
11835TIP3   OH235447   1.717   0.809   3.882
11835TIP3    H135448   1.706   0.869   3.956
11835TIP3    H235449   1.731   0.866   3.806
11836TIP3   OH235450   7.628   6.214   2.203
11836TIP3    H135451   7.580   6.203   2.120
11836TIP3    H235452   7.691   6.283   2.184
11837TIP3   OH235453   5.420   7.724   3.171
11837TIP3    H135454   5.419   7.748   3.079
11837TIP3    H235455   5.476   7.647   3.176
11838TIP3   OH235456   3.188   2.209   6.302
11838TIP3    H135457   3.170   2.247   6.216
11838TIP3    H235458   3.112   2.232   6.355
11839TIP3   OH235459   4.380   5.011   1.855
11839TIP3    H135460   4.444   4.956   1.900
11839TIP3    H235461   4.412   5.015   1.765
11840TIP3   OH235462   5.945   7.203   5.333
11840TIP3    H135463   5.876   7.207   5.400
11840TIP3    H235464   5.960   7.110   5.319
11841TIP3   OH235465   7.559   2.583   3.453
11841TIP3    H135466   7.593   2.555   3.538
11841TIP3    H235467   7.464   2.584   3.464
11842TIP3   OH235468   6.288   4.001   6.761
11842TIP3    H135469   6.377   4.029   6.783
11842TIP3    H235470   6.298   3.912   6.726
11843TIP3   OH235471   1.434   6.589   4.187
11843TIP3    H135472   1.478   6.509   4.217
11843TIP3    H235473   1.342   6.564   4.176
11844TIP3   OH235474   6.113   4.120   3.925
11844TIP3    H135475   6.146   4.131   3.836
11844TIP3    H235476   6.174   4.170   3.980
11845TIP3   OH235477   2.803   3.684   1.496
11845TIP3    H135478   2.848   3.768   1.488
11845TIP3    H235479   2.762   3.671   1.410
11846TIP3   OH235480   5.821   7.073   3.211
11846TIP3    H135481   5.751   7.127   3.248
11846TIP3    H235482   5.848   7.015   3.282
11847TIP3   OH235483   8.042   2.876   0.283
11847TIP3    H135484   7.978   2.935   0.244
11847TIP3    H235485   8.046   2.802   0.223
11848TIP3   OH235486   5.845   3.754   3.718
11848TIP3    H135487   5.918   3.776   3.775
11848TIP3    H235488   5.767   3.768   3.772
11849TIP3   OH235489   7.873   4.746   6.086
11849TIP3    H135490   7.840   4.764   5.998
11849TIP3    H235491   7.965   4.774   6.084
11850TIP3   OH235492   0.535   6.822   6.507
11850TIP3    H135493   0.506   6.911   6.528
11850TIP3    H235494   0.518   6.771   6.586
11851TIP3   OH235495   2.839   2.109   5.866
11851TIP3    H135496   2.804   2.143   5.783
11851TIP3    H235497   2.787   2.153   5.933
11852TIP3   OH235498   2.521   3.069   3.084
11852TIP3    H135499   2.485   3.131   3.148
11852TIP3    H235500   2.486   3.098   3.000
11853TIP3   OH235501   1.516   4.000   3.140
11853TIP3    H135502   1.579   4.035   3.203
11853TIP3    H235503   1.475   3.926   3.185
11854TIP3   OH235504   2.050   1.873   1.948
11854TIP3    H135505   2.095   1.820   2.014
11854TIP3    H235506   2.024   1.952   1.994
11855TIP3   OH235507   7.815   4.788   0.980
11855TIP3    H135508   7.835   4.773   0.887
11855TIP3    H235509   7.857   4.714   1.025
11856TIP3   OH235510   3.067   4.265   4.841
11856TIP3    H135511   2.971   4.272   4.843
11856TIP3    H235512   3.097   4.349   4.806
11857TIP3   OH235513   0.727   4.630   0.432
11857TIP3    H135514   0.670   4.628   0.355
11857TIP3    H235515   0.788   4.702   0.415
11858TIP3   OH235516   3.573   3.835   0.432
11858TIP3    H135517   3.574   3.846   0.527
11858TIP3    H235518   3.539   3.746   0.418
11859TIP3   OH235519   3.626   7.159   2.045
11859TIP3    H135520   3.708   7.116   2.068
11859TIP3    H235521   3.592   7.192   2.128
11860TIP3   OH235522   5.907   3.697   0.328
11860TIP3    H135523   5.887   3.707   0.421
11860TIP3    H235524   6.002   3.682   0.326
11861TIP3   OH235525   5.567   6.392   2.620
11861TIP3    H135526   5.637   6.407   2.684
11861TIP3    H235527   5.555   6.297   2.621
11862TIP3   OH235528   0.833   4.875   2.527
11862TIP3    H135529   0.798   4.827   2.452
11862TIP3    H235530   0.904   4.928   2.491
11863TIP3   OH235531   0.381   5.302   1.651
11863TIP3    H135532   0.441   5.288   1.578
11863TIP3    H235533   0.399   5.391   1.680
11864TIP3   OH235534   7.758   3.910   1.368
11864TIP3    H135535   7.831   3.879   1.421
11864TIP3    H235536   7.692   3.938   1.432
11865TIP3   OH235537   5.076   2.204   4.840
11865TIP3    H135538   5.085   2.130   4.779
11865TIP3    H235539   5.159   2.206   4.887
11866TIP3   OH235540   1.390   4.003   6.240
11866TIP3    H135541   1.433   3.971   6.160
11866TIP3    H235542   1.373   3.924   6.292
11867TIP3   OH235543   4.580   7.505   6.104
11867TIP3    H135544   4.627   7.443   6.049
11867TIP3    H235545   4.622   7.589   6.088
11868TIP3   OH235546   7.231   6.587   5.196
11868TIP3    H135547   7.216   6.656   5.260
11868TIP3    H235548   7.145   6.574   5.155
11869TIP3   OH235549   2.731   0.294   4.960
11869TIP3    H135550   2.692   0.381   4.965
11869TIP3    H235551   2.810   0.307   4.906
11870TIP3   OH235552   4.953   4.429   1.210
11870TIP3    H135553   4.971   4.523   1.210
11870TIP3    H235554   4.889   4.417   1.280
11871TIP3   OH235555   3.385   7.018   4.241
11871TIP3    H135556   3.316   7.024   4.175
11871TIP3    H235557   3.447   6.954   4.205
11872TIP3   OH235558   8.123   3.877   6.651
11872TIP3    H135559   8.170   3.837   6.578
11872TIP3    H235560   8.061   3.937   6.611
11873TIP3   OH235561   1.508   6.460   2.694
11873TIP3    H135562   1.551   6.432   2.613
11873TIP3    H235563   1.548   6.545   2.713
11874TIP3   OH235564   4.780   4.901   4.149
11874TIP3    H135565   4.847   4.969   4.150
11874TIP3    H235566   4.714   4.933   4.087
11875TIP3   OH235567   1.365   2.709   5.278
11875TIP3    H135568   1.394   2.752   5.198
11875TIP3    H235569   1.271   2.694   5.266
11876TIP3   OH235570   5.076   3.201   0.044
11876TIP3    H135571   5.148   3.241   0.092
11876TIP3    H235572   4.999   3.254   0.065
11877TIP3   OH235573   2.683   1.717   6.208
11877TIP3    H135574   2.633   1.752   6.282
11877TIP3    H235575   2.633   1.745   6.131
11878TIP3   OH235576   7.124   5.320   4.057
11878TIP3    H135577   7.200   5.324   3.999
11878TIP3    H235578   7.141   5.385   4.125
11879TIP3   OH235579   3.997   2.700   4.558
11879TIP3    H135580   3.959   2.612   4.557
11879TIP3    H235581   3.968   2.738   4.640
11880TIP3   OH235582   7.527   1.928   0.725
11880TIP3    H135583   7.445   1.891   0.693
11880TIP3    H235584   7.508   2.020   0.743
11881TIP3   OH235585   4.389   3.113   2.650
11881TIP3    H135586   4.336   3.175   2.700
11881TIP3    H235587   4.441   3.066   2.716
11882TIP3   OH235588   6.852   3.042   1.294
11882TIP3    H135589   6.814   3.116   1.341
11882TIP3    H235590   6.917   3.006   1.354
11883TIP3   OH235591   6.501   4.783   2.095
11883TIP3    H135592   6.466   4.695   2.106
11883TIP3    H235593   6.434   4.830   2.045
11884TIP3   OH235594   0.947   6.976   0.427
11884TIP3    H135595   0.929   6.977   0.334
11884TIP3    H235596   1.012   6.907   0.438
11885TIP3   OH235597   4.729   6.499   2.407
11885TIP3    H135598   4.811   6.542   2.383
11885TIP3    H235599   4.755   6.431   2.470
11886TIP3   OH235600   6.902   2.806   4.176
11886TIP3    H135601   6.972   2.852   4.131
11886TIP3    H235602   6.946   2.752   4.242
11887TIP3   OH235603   3.391   5.581   5.506
11887TIP3    H135604   3.361   5.638   5.577
11887TIP3    H235605   3.435   5.509   5.550
11888TIP3   OH235606   3.379   7.622   4.186
11888TIP3    H135607   3.372   7.649   4.095
11888TIP3    H235608   3.300   7.569   4.201
11889TIP3   OH235609   7.362   3.191   6.463
11889TIP3    H135610   7.311   3.265   6.428
11889TIP3    H235611   7.373   3.132   6.388
11890TIP3   OH235612   4.371   4.200   1.725
11890TIP3    H135613   4.336   4.232   1.642
11890TIP3    H235614   4.367   4.275   1.784
11891TIP3   OH235615   3.891   2.484   1.326
11891TIP3    H135616   3.805   2.484   1.284
11891TIP3    H235617   3.879   2.537   1.405
11892TIP3   OH235618   6.440   3.882   4.255
11892TIP3    H135619   6.374   3.942   4.288
11892TIP3    H235620   6.412   3.796   4.286
11893TIP3   OH235621   4.334   7.795   3.346
11893TIP3    H135622   4.375   7.761   3.266
11893TIP3    H235623   4.317   7.717   3.398
11894TIP3   OH235624   5.371   0.253   6.440
11894TIP3    H135625   5.282   0.219   6.448
11894TIP3    H235626   5.411   0.238   6.525
11895TIP3   OH235627   1.517   3.183   2.910
11895TIP3    H135628   1.546   3.170   2.819
11895TIP3    H235629   1.423   3.198   2.904
11896TIP3   OH235630   3.298   4.736   3.285
11896TIP3    H135631   3.367   4.671   3.293
11896TIP3    H235632   3.345   4.819   3.275
11897TIP3   OH235633   5.221   4.594   1.540
11897TIP3    H135634   5.210   4.533   1.468
11897TIP3    H235635   5.316   4.606   1.547
11898TIP3   OH235636   5.863   3.366   5.167
11898TIP3    H135637   5.940   3.407   5.205
11898TIP3    H235638   5.799   3.363   5.238
11899TIP3   OH235639   6.313   1.154   3.318
11899TIP3    H135640   6.223   1.185   3.327
11899TIP3    H235641   6.318   1.076   3.373
11900TIP3   OH235642   0.800   5.421   5.673
11900TIP3    H135643   0.714   5.460   5.657
11900TIP3    H235644   0.859   5.496   5.685
11901TIP3   OH235645   7.252   7.002   3.340
11901TIP3    H135646   7.342   7.035   3.344
11901TIP3    H235647   7.211   7.055   3.271
11902TIP3   OH235648   1.509   6.553   5.238
11902TIP3    H135649   1.430   6.557   5.184
11902TIP3    H235650   1.550   6.469   5.215
11903TIP3   OH235651   6.351   2.674   3.186
11903TIP3    H135652   6.384   2.657   3.097
11903TIP3    H235653   6.430   2.696   3.236
11904TIP3   OH235654   0.592   0.015   1.611
11904TIP3    H135655   0.577   0.105   1.581
11904TIP3    H235656   0.584   0.021   1.706
11905TIP3   OH235657   3.125   5.861   1.299
11905TIP3    H135658   3.186   5.933   1.312
11905TIP3    H235659   3.038   5.901   1.303
11906TIP3   OH235660   1.632   5.225   1.860
11906TIP3    H135661   1.690   5.164   1.905
11906TIP3    H235662   1.636   5.305   1.911
11907TIP3   OH235663   7.502   0.438   0.797
11907TIP3    H135664   7.568   0.492   0.754
11907TIP3    H235665   7.531   0.432   0.888
11908TIP3   OH235666   3.743   7.822   3.184
11908TIP3    H135667   3.746   7.760   3.110
11908TIP3    H235668   3.816   7.796   3.239
11909TIP3   OH235669   7.741   3.612   1.298
11909TIP3    H135670   7.677   3.554   1.339
11909TIP3    H235671   7.704   3.699   1.307
11910TIP3   OH235672   4.942   0.964   5.105
11910TIP3    H135673   4.890   0.883   5.105
11910TIP3    H235674   4.917   1.008   5.024
11911TIP3   OH235675   3.167   1.946   1.487
11911TIP3    H135676   3.229   1.876   1.466
11911TIP3    H235677   3.180   1.962   1.581
11912TIP3   OH235678   5.273   4.904   0.981
11912TIP3    H135679   5.251   4.888   0.890
11912TIP3    H235680   5.260   4.819   1.024
11913TIP3   OH235681   8.174   6.338   3.274
11913TIP3    H135682   8.101   6.281   3.298
11913TIP3    H235683   8.134   6.423   3.255
11914TIP3   OH235684   0.602   2.442   3.704
11914TIP3    H135685   0.549   2.520   3.689
11914TIP3    H235686   0.673   2.448   3.640
11915TIP3   OH235687   3.971   5.795   3.736
11915TIP3    H135688   4.052   5.810   3.688
11915TIP3    H235689   3.972   5.862   3.806
11916TIP3   OH235690   0.400   1.558   3.129
11916TIP3    H135691   0.307   1.542   3.118
11916TIP3    H235692   0.409   1.595   3.217
11917TIP3   OH235693   1.719   3.656   2.691
11917TIP3    H135694   1.646   3.708   2.659
11917TIP3    H235695   1.687   3.566   2.691
11918TIP3   OH235696   0.040   1.418   4.473
11918TIP3    H135697   0.035   1.450   4.383
11918TIP3    H235698   0.134   1.413   4.491
11919TIP3   OH235699   3.988   7.335   5.940
11919TIP3    H135700   4.056   7.403   5.937
11919TIP3    H235701   3.907   7.383   5.962
11920TIP3   OH235702   3.741   2.728   0.781
11920TIP3    H135703   3.794   2.806   0.764
11920TIP3    H235704   3.805   2.657   0.789
11921TIP3   OH235705   2.686   3.448   3.848
11921TIP3    H135706   2.720   3.359   3.856
11921TIP3    H235707   2.595   3.436   3.821
11922TIP3   OH235708   1.970   1.078   6.592
11922TIP3    H135709   1.900   1.141   6.572
11922TIP3    H235710   1.993   1.041   6.507
11923TIP3   OH235711   0.769   3.535   2.881
11923TIP3    H135712   0.772   3.600   2.810
11923TIP3    H235713   0.675   3.522   2.896
11924TIP3   OH235714   1.220   2.523   2.768
11924TIP3    H135715   1.236   2.491   2.679
11924TIP3    H235716   1.308   2.540   2.803
11925TIP3   OH235717   5.434   3.397   5.780
11925TIP3    H135718   5.445   3.320   5.836
11925TIP3    H235719   5.339   3.411   5.776
11926TIP3   OH235720   6.082   0.417   1.722
11926TIP3    H135721   6.148   0.476   1.760
11926TIP3    H235722   6.133   0.346   1.683
11927TIP3   OH235723   0.668   1.270   2.331
11927TIP3    H135724   0.737   1.317   2.284
11927TIP3    H235725   0.638   1.331   2.398
11928TIP3   OH235726   7.383   4.216   4.557
11928TIP3    H135727   7.373   4.282   4.626
11928TIP3    H235728   7.435   4.147   4.597
11929TIP3   OH235729   3.131   4.013   4.778
11929TIP3    H135730   3.121   4.108   4.782
11929TIP3    H235731   3.072   3.985   4.708
11930TIP3   OH235732   5.269   1.223   1.451
11930TIP3    H135733   5.219   1.189   1.376
11930TIP3    H235734   5.209   1.285   1.492
11931TIP3   OH235735   6.935   1.008   2.576
11931TIP3    H135736   6.916   1.102   2.571
11931TIP3    H235737   6.975   0.987   2.491
11932TIP3   OH235738   3.068   5.486   3.768
11932TIP3    H135739   3.131   5.521   3.831
11932TIP3    H235740   3.121   5.439   3.704
11933TIP3   OH235741   7.697   3.693   6.711
11933TIP3    H135742   7.602   3.697   6.697
11933TIP3    H235743   7.733   3.673   6.625
11934TIP3   OH235744   4.781   7.088   5.823
11934TIP3    H135745   4.691   7.062   5.801
11934TIP3    H235746   4.825   7.006   5.844
11935TIP3   OH235747   6.764   2.770   1.716
11935TIP3    H135748   6.690   2.732   1.763
11935TIP3    H235749   6.731   2.854   1.684
11936TIP3   OH235750   5.893   5.471   1.398
11936TIP3    H135751   5.886   5.422   1.316
11936TIP3    H235752   5.840   5.550   1.383
11937TIP3   OH235753   7.849   2.223   4.659
11937TIP3    H135754   7.861   2.242   4.752
11937TIP3    H235755   7.759   2.250   4.640
11938TIP3   OH235756   2.126   0.812   4.049
11938TIP3    H135757   2.214   0.789   4.077
11938TIP3    H235758   2.093   0.733   4.005
11939TIP3   OH235759   0.725   3.577   3.373
11939TIP3    H135760   0.682   3.647   3.324
11939TIP3    H235761   0.672   3.500   3.356
11940TIP3   OH235762   5.592   1.854   6.174
11940TIP3    H135763   5.553   1.862   6.260
11940TIP3    H235764   5.675   1.809   6.189
11941TIP3   OH235765   7.403   6.538   2.374
11941TIP3    H135766   7.434   6.527   2.464
11941TIP3    H235767   7.331   6.600   2.380
11942TIP3   OH235768   1.741   5.203   5.371
11942TIP3    H135769   1.755   5.245   5.457
11942TIP3    H235770   1.647   5.209   5.357
11943TIP3   OH235771   0.735   0.173   5.183
11943TIP3    H135772   0.713   0.093   5.230
11943TIP3    H235773   0.668   0.181   5.115
11944TIP3   OH235774   2.166   7.407   0.524
11944TIP3    H135775   2.088   7.462   0.521
11944TIP3    H235776   2.234   7.460   0.483
11945TIP3   OH235777   0.224   0.704   6.283
11945TIP3    H135778   0.161   0.757   6.331
11945TIP3    H235779   0.269   0.767   6.225
11946TIP3   OH235780   1.607   5.871   6.348
11946TIP3    H135781   1.562   5.862   6.432
11946TIP3    H235782   1.615   5.965   6.335
11947TIP3   OH235783   3.095   1.311   3.159
11947TIP3    H135784   3.026   1.269   3.210
11947TIP3    H235785   3.109   1.395   3.202
11948TIP3   OH235786   2.275   1.927   3.005
11948TIP3    H135787   2.297   2.020   2.997
11948TIP3    H235788   2.275   1.910   3.099
11949TIP3   OH235789   1.533   6.232   1.446
11949TIP3    H135790   1.457   6.280   1.411
11949TIP3    H235791   1.515   6.224   1.540
11950TIP3   OH235792   6.766   2.363   1.075
11950TIP3    H135793   6.773   2.358   1.170
11950TIP3    H235794   6.739   2.453   1.057
11951TIP3   OH235795   1.659   2.780   2.945
11951TIP3    H135796   1.694   2.707   2.996
11951TIP3    H235797   1.731   2.842   2.939
11952TIP3   OH235798   2.745   6.259   3.049
11952TIP3    H135799   2.676   6.276   2.985
11952TIP3    H235800   2.791   6.343   3.058
11953TIP3   OH235801   8.176   7.596   1.328
11953TIP3    H135802   8.161   7.553   1.412
11953TIP3    H235803   8.170   7.526   1.264
11954TIP3   OH235804   2.455   6.781   1.723
11954TIP3    H135805   2.362   6.758   1.717
11954TIP3    H235806   2.461   6.869   1.685
11955TIP3   OH235807   7.926   3.236   4.215
11955TIP3    H135808   7.903   3.219   4.307
11955TIP3    H235809   7.923   3.151   4.173
11956TIP3   OH235810   6.121   0.247   2.568
11956TIP3    H135811   6.041   0.286   2.603
11956TIP3    H235812   6.135   0.169   2.621
11957TIP3   OH235813   1.008   0.848   1.250
11957TIP3    H135814   0.931   0.828   1.304
11957TIP3    H235815   1.050   0.763   1.236
11958TIP3   OH235816   5.359   0.111   5.009
11958TIP3    H135817   5.343   0.026   5.050
11958TIP3    H235818   5.298   0.171   5.052
11959TIP3   OH235819   7.552   6.589   5.359
11959TIP3    H135820   7.486   6.533   5.318
11959TIP3    H235821   7.627   6.532   5.373
11960TIP3   OH235822   1.639   5.555   6.395
11960TIP3    H135823   1.552   5.592   6.383
11960TIP3    H235824   1.674   5.544   6.306
11961TIP3   OH235825   5.898   7.732   0.518
11961TIP3    H135826   5.826   7.752   0.458
11961TIP3    H235827   5.901   7.807   0.578
11962TIP3   OH235828   4.442   5.812   4.259
11962TIP3    H135829   4.516   5.774   4.306
11962TIP3    H235830   4.462   5.906   4.254
11963TIP3   OH235831   5.875   1.789   2.617
11963TIP3    H135832   5.822   1.790   2.537
11963TIP3    H235833   5.859   1.703   2.655
11964TIP3   OH235834   7.009   3.114   0.640
11964TIP3    H135835   6.914   3.104   0.634
11964TIP3    H235836   7.043   3.070   0.562
11965TIP3   OH235837   2.597   6.506   3.038
11965TIP3    H135838   2.631   6.557   2.964
11965TIP3    H235839   2.616   6.560   3.115
11966TIP3   OH235840   3.385   5.319   5.797
11966TIP3    H135841   3.357   5.407   5.820
11966TIP3    H235842   3.457   5.332   5.736
11967TIP3   OH235843   3.282   4.545   5.594
11967TIP3    H135844   3.367   4.569   5.559
11967TIP3    H235845   3.298   4.467   5.646
11968TIP3   OH235846   3.871   2.369   4.342
11968TIP3    H135847   3.853   2.403   4.430
11968TIP3    H235848   3.811   2.296   4.331
11969TIP3   OH235849   5.523   2.217   3.031
11969TIP3    H135850   5.535   2.153   3.101
11969TIP3    H235851   5.581   2.289   3.055
11970TIP3   OH235852   5.734   5.235   3.662
11970TIP3    H135853   5.683   5.274   3.734
11970TIP3    H235854   5.821   5.273   3.671
11971TIP3   OH235855   3.794   1.014   1.475
11971TIP3    H135856   3.761   0.924   1.481
11971TIP3    H235857   3.889   1.006   1.483
11972TIP3   OH235858   6.822   4.876   0.348
11972TIP3    H135859   6.871   4.813   0.295
11972TIP3    H235860   6.764   4.822   0.401
11973TIP3   OH235861   6.136   6.234   1.759
11973TIP3    H135862   6.092   6.162   1.714
11973TIP3    H235863   6.171   6.195   1.839
11974TIP3   OH235864   1.296   6.075   0.758
11974TIP3    H135865   1.242   6.136   0.810
11974TIP3    H235866   1.379   6.121   0.747
11975TIP3   OH235867   5.923   6.757   5.870
11975TIP3    H135868   5.961   6.702   5.938
11975TIP3    H235869   5.830   6.761   5.890
11976TIP3   OH235870   7.336   1.387   4.885
11976TIP3    H135871   7.417   1.371   4.836
11976TIP3    H235872   7.355   1.464   4.938
11977TIP3   OH235873   3.286   6.319   3.818
11977TIP3    H135874   3.258   6.407   3.844
11977TIP3    H235875   3.287   6.269   3.899
11978TIP3   OH235876   5.853   4.659   0.736
11978TIP3    H135877   5.866   4.666   0.830
11978TIP3    H235878   5.823   4.569   0.723
11979TIP3   OH235879   1.298   5.468   5.914
11979TIP3    H135880   1.209   5.452   5.945
11979TIP3    H235881   1.330   5.541   5.968
11980TIP3   OH235882   6.833   7.556   4.074
11980TIP3    H135883   6.783   7.606   4.009
11980TIP3    H235884   6.784   7.568   4.156
11981TIP3   OH235885   3.452   0.507   4.121
11981TIP3    H135886   3.447   0.457   4.203
11981TIP3    H235887   3.538   0.549   4.123
11982TIP3   OH235888   5.304   5.515   0.156
11982TIP3    H135889   5.242   5.587   0.144
11982TIP3    H235890   5.390   5.556   0.148
11983TIP3   OH235891   3.342   1.280   2.769
11983TIP3    H135892   3.299   1.200   2.800
11983TIP3    H235893   3.276   1.348   2.778
11984TIP3   OH235894   0.971   5.222   1.256
11984TIP3    H135895   0.939   5.134   1.234
11984TIP3    H235896   1.014   5.211   1.340
11985TIP3   OH235897   3.429   3.982   0.886
11985TIP3    H135898   3.423   4.077   0.890
11985TIP3    H235899   3.391   3.951   0.968
11986TIP3   OH235900   0.377   2.255   1.832
11986TIP3    H135901   0.431   2.196   1.885
11986TIP3    H235902   0.436   2.325   1.806
11987TIP3   OH235903   2.575   0.470   0.451
11987TIP3    H135904   2.504   0.525   0.417
11987TIP3    H235905   2.557   0.463   0.545
11988TIP3   OH235906   3.419   0.537   1.441
11988TIP3    H135907   3.341   0.542   1.387
11988TIP3    H235908   3.395   0.480   1.514
11989TIP3   OH235909   3.683   1.216   1.666
11989TIP3    H135910   3.713   1.161   1.594
11989TIP3    H235911   3.762   1.237   1.716
11990TIP3   OH235912   5.348   3.003   3.667
11990TIP3    H135913   5.416   2.937   3.656
11990TIP3    H235914   5.337   3.041   3.581
11991TIP3   OH235915   4.765   0.076   4.171
11991TIP3    H135916   4.804   0.123   4.245
11991TIP3    H235917   4.840   0.040   4.123
11992TIP3   OH235918   6.577   3.338   3.656
11992TIP3    H135919   6.571   3.424   3.698
11992TIP3    H235920   6.599   3.357   3.565
11993TIP3   OH235921   3.115   2.013   1.052
11993TIP3    H135922   3.168   1.940   1.020
11993TIP3    H235923   3.052   2.029   0.983
11994TIP3   OH235924   5.889   4.521   4.535
11994TIP3    H135925   5.799   4.511   4.503
11994TIP3    H235926   5.909   4.438   4.577
11995TIP3   OH235927   7.368   6.732   3.019
11995TIP3    H135928   7.300   6.690   2.966
11995TIP3    H235929   7.370   6.823   2.987
11996TIP3   OH235930   2.225   5.672   3.329
11996TIP3    H135931   2.296   5.706   3.384
11996TIP3    H235932   2.156   5.738   3.336
11997TIP3   OH235933   7.543   7.201   0.078
11997TIP3    H135934   7.607   7.177   0.011
11997TIP3    H235935   7.580   7.279   0.120
11998TIP3   OH235936   8.052   4.254   1.227
11998TIP3    H135937   8.053   4.162   1.255
11998TIP3    H235938   8.078   4.303   1.305
11999TIP3   OH235939   3.859   2.324   6.451
11999TIP3    H135940   3.781   2.355   6.496
11999TIP3    H235941   3.932   2.360   6.502
12000TIP3   OH235942   4.615   3.902   5.199
12000TIP3    H135943   4.565   3.827   5.231
12000TIP3    H235944   4.650   3.873   5.114
12001TIP3   OH235945   3.419   2.721   1.605
12001TIP3    H135946   3.489   2.757   1.551
12001TIP3    H235947   3.346   2.706   1.545
12002TIP3   OH235948   5.729   7.473   6.445
12002TIP3    H135949   5.804   7.501   6.393
12002TIP3    H235950   5.653   7.502   6.394
12003TIP3   OH235951   4.012   2.244   1.240
12003TIP3    H135952   3.974   2.332   1.245
12003TIP3    H235953   4.100   2.254   1.275
12004TIP3   OH235954   0.580   0.858   1.284
12004TIP3    H135955   0.561   0.952   1.274
12004TIP3    H235956   0.567   0.823   1.196
12005TIP3   OH235957   4.001   4.974   2.746
12005TIP3    H135958   4.073   4.915   2.766
12005TIP3    H235959   3.937   4.959   2.816
12006TIP3   OH235960   4.734   2.024   1.548
12006TIP3    H135961   4.664   2.079   1.584
12006TIP3    H235962   4.740   1.950   1.608
12007TIP3   OH235963   1.633   4.079   1.883
12007TIP3    H135964   1.540   4.070   1.866
12007TIP3    H235965   1.661   4.150   1.825
12008TIP3   OH235966   6.005   5.492   5.898
12008TIP3    H135967   6.098   5.508   5.880
12008TIP3    H235968   5.981   5.422   5.837
12009TIP3   OH235969   1.128   1.994   0.065
12009TIP3    H135970   1.138   2.058  -0.006
12009TIP3    H235971   1.033   1.985   0.075
12010TIP3   OH235972   4.225   0.536   2.549
12010TIP3    H135973   4.144   0.556   2.595
12010TIP3    H235974   4.200   0.533   2.456
12011TIP3   OH235975   7.074   4.624   5.516
12011TIP3    H135976   7.133   4.624   5.440
12011TIP3    H235977   6.999   4.572   5.488
12012TIP3   OH235978   3.885   1.583   6.375
12012TIP3    H135979   3.905   1.527   6.300
12012TIP3    H235980   3.876   1.671   6.337
12013TIP3   OH235981   0.926   5.323   6.338
12013TIP3    H135982   0.883   5.289   6.416
12013TIP3    H235983   0.854   5.352   6.281
12014TIP3   OH235984   7.875   5.835   1.671
12014TIP3    H135985   7.941   5.891   1.711
12014TIP3    H235986   7.833   5.792   1.746
12015TIP3   OH235987   4.670   6.469   4.970
12015TIP3    H135988   4.758   6.505   4.975
12015TIP3    H235989   4.684   6.374   4.965
12016TIP3   OH235990   5.307   1.989   3.063
12016TIP3    H135991   5.216   1.992   3.033
12016TIP3    H235992   5.301   1.991   3.158
12017TIP3   OH235993   1.801   2.321   2.304
12017TIP3    H135994   1.842   2.293   2.222
12017TIP3    H235995   1.874   2.336   2.363
12018TIP3   OH235996   1.520   6.511   4.849
12018TIP3    H135997   1.489   6.455   4.920
12018TIP3    H235998   1.505   6.459   4.770
12019TIP3   OH235999   5.419   2.436   3.513
12019TIP3    H136000   5.386   2.347   3.503
12019TIP3    H236001   5.341   2.489   3.529
12020TIP3   OH236002   3.246   0.313   1.439
12020TIP3    H136003   3.245   0.332   1.345
12020TIP3    H236004   3.167   0.354   1.473
12021TIP3   OH236005   0.296   5.175   3.412
12021TIP3    H136006   0.266   5.240   3.475
12021TIP3    H236007   0.321   5.227   3.335
12022TIP3   OH236008   6.908   6.784   6.440
12022TIP3    H136009   6.886   6.851   6.376
12022TIP3    H236010   6.874   6.702   6.404
12023TIP3   OH236011   5.507   0.593   3.664
12023TIP3    H136012   5.537   0.652   3.595
12023TIP3    H236013   5.587   0.564   3.708
12024TIP3   OH236014   6.898   6.946   2.698
12024TIP3    H136015   6.963   6.878   2.685
12024TIP3    H236016   6.907   7.003   2.621
12025TIP3   OH236017   5.057   4.373   3.134
12025TIP3    H136018   5.067   4.304   3.200
12025TIP3    H236019   5.005   4.440   3.178
12026TIP3   OH236020   2.510   4.331   4.397
12026TIP3    H136021   2.539   4.302   4.484
12026TIP3    H236022   2.590   4.337   4.346
12027TIP3   OH236023   8.011   1.818   5.516
12027TIP3    H136024   7.932   1.872   5.514
12027TIP3    H236025   8.000   1.756   5.444
12028TIP3   OH236026   0.020   5.661   3.045
12028TIP3    H136027  -0.070   5.680   3.072
12028TIP3    H236028   0.049   5.741   3.000
12029TIP3   OH236029   5.728   2.167   5.779
12029TIP3    H136030   5.699   2.098   5.839
12029TIP3    H236031   5.804   2.206   5.823
12030TIP3   OH236032   4.512   3.790   1.058
12030TIP3    H136033   4.512   3.764   0.966
12030TIP3    H236034   4.598   3.764   1.090
12031TIP3   OH236035   6.625   2.946   2.452
12031TIP3    H136036   6.541   2.953   2.406
12031TIP3    H236037   6.689   2.934   2.382
12032TIP3   OH236038   3.975   6.181   1.414
12032TIP3    H136039   4.051   6.190   1.472
12032TIP3    H236040   3.979   6.091   1.383
12033TIP3   OH236041   5.714   3.830   1.396
12033TIP3    H136042   5.755   3.745   1.417
12033TIP3    H236043   5.636   3.832   1.450
12034TIP3   OH236044   0.478   7.297   1.317
12034TIP3    H136045   0.455   7.305   1.410
12034TIP3    H236046   0.571   7.273   1.318
12035TIP3   OH236047   5.862   2.774   3.228
12035TIP3    H136048   5.943   2.808   3.267
12035TIP3    H236049   5.815   2.734   3.301
12036TIP3   OH236050   7.792   0.482   3.445
12036TIP3    H136051   7.722   0.449   3.502
12036TIP3    H236052   7.871   0.476   3.498
12037TIP3   OH236053   4.387   3.039   6.741
12037TIP3    H136054   4.333   3.109   6.776
12037TIP3    H236055   4.407   2.983   6.816
12038TIP3   OH236056   3.432   2.075   2.483
12038TIP3    H136057   3.390   2.161   2.479
12038TIP3    H236058   3.522   2.091   2.457
12039TIP3   OH236059   3.073   4.420   2.041
12039TIP3    H136060   2.996   4.449   2.091
12039TIP3    H236061   3.037   4.389   1.957
12040TIP3   OH236062   1.204   0.874   0.224
12040TIP3    H136063   1.123   0.833   0.255
12040TIP3    H236064   1.251   0.898   0.305
12041TIP3   OH236065   1.786   6.369   1.404
12041TIP3    H136066   1.823   6.348   1.490
12041TIP3    H236067   1.697   6.334   1.407
12042TIP3   OH236068   3.195   3.659   6.483
12042TIP3    H136069   3.109   3.697   6.498
12042TIP3    H236070   3.179   3.566   6.471
12043TIP3   OH236071   1.347   1.523   6.508
12043TIP3    H136072   1.442   1.527   6.501
12043TIP3    H236073   1.330   1.450   6.567
12044TIP3   OH236074   1.273   4.044   2.865
12044TIP3    H136075   1.266   4.033   2.960
12044TIP3    H236076   1.221   4.121   2.846
12045TIP3   OH236077   5.038   0.132   1.336
12045TIP3    H136078   5.082   0.104   1.256
12045TIP3    H236079   5.058   0.063   1.399
12046TIP3   OH236080   4.860   1.502   0.634
12046TIP3    H136081   4.876   1.472   0.724
12046TIP3    H236082   4.814   1.585   0.645
12047TIP3   OH236083   0.373   5.477   2.956
12047TIP3    H136084   0.464   5.493   2.929
12047TIP3    H236085   0.324   5.471   2.874
12048TIP3   OH236086   7.497   0.657   2.533
12048TIP3    H136087   7.560   0.711   2.580
12048TIP3    H236088   7.413   0.700   2.545
12049TIP3   OH236089   5.624   5.989   2.028
12049TIP3    H136090   5.619   6.010   1.935
12049TIP3    H236091   5.717   5.971   2.043
12050TIP3   OH236092   8.067   3.125   5.624
12050TIP3    H136093   8.051   3.034   5.599
12050TIP3    H236094   8.073   3.172   5.541
12051TIP3   OH236095   3.076   3.362   6.067
12051TIP3    H136096   3.149   3.378   6.007
12051TIP3    H236097   3.000   3.398   6.021
12052TIP3   OH236098   4.990   7.582   1.680
12052TIP3    H136099   4.895   7.580   1.692
12052TIP3    H236100   5.003   7.612   1.590
12053TIP3   OH236101   7.059   0.527   1.994
12053TIP3    H136102   6.991   0.570   2.046
12053TIP3    H236103   7.133   0.519   2.054
12054TIP3   OH236104   7.920   3.628   3.614
12054TIP3    H136105   7.956   3.696   3.558
12054TIP3    H236106   7.862   3.578   3.557
12055TIP3   OH236107   1.646   3.222   3.730
12055TIP3    H136108   1.586   3.230   3.655
12055TIP3    H236109   1.659   3.312   3.760
12056TIP3   OH236110   3.668   1.793   3.466
12056TIP3    H136111   3.745   1.751   3.427
12056TIP3    H236112   3.682   1.785   3.560
12057TIP3   OH236113   0.974   4.119   2.733
12057TIP3    H136114   0.953   4.092   2.644
12057TIP3    H236115   0.991   4.037   2.780
12058TIP3   OH236116   5.534   0.152   4.795
12058TIP3    H136117   5.611   0.096   4.794
12058TIP3    H236118   5.481   0.119   4.867
12059TIP3   OH236119   7.315   1.174   6.679
12059TIP3    H136120   7.374   1.229   6.626
12059TIP3    H236121   7.276   1.113   6.616
12060TIP3   OH236122   5.498   6.142   5.718
12060TIP3    H136123   5.483   6.107   5.806
12060TIP3    H236124   5.590   6.169   5.719
12061TIP3   OH236125   5.361   2.422   4.311
12061TIP3    H136126   5.352   2.462   4.398
12061TIP3    H236127   5.451   2.388   4.310
12062TIP3   OH236128   7.649   2.405   1.904
12062TIP3    H136129   7.678   2.462   1.834
12062TIP3    H236130   7.672   2.451   1.984
12063TIP3   OH236131   6.258   4.182   6.527
12063TIP3    H136132   6.253   4.125   6.604
12063TIP3    H236133   6.289   4.266   6.561
12064TIP3   OH236134   0.029   7.677   6.360
12064TIP3    H136135   0.046   7.583   6.357
12064TIP3    H236136  -0.015   7.696   6.278
12065TIP3   OH236137   2.394   5.848   1.782
12065TIP3    H136138   2.357   5.819   1.865
12065TIP3    H236139   2.476   5.800   1.774
12066TIP3   OH236140   7.898   3.315   2.693
12066TIP3    H136141   7.854   3.249   2.747
12066TIP3    H236142   7.983   3.278   2.673
12067TIP3   OH236143   4.784   5.915   0.289
12067TIP3    H136144   4.787   5.820   0.303
12067TIP3    H236145   4.857   5.932   0.229
12068TIP3   OH236146   2.714   1.663   5.148
12068TIP3    H136147   2.657   1.739   5.136
12068TIP3    H236148   2.803   1.699   5.143
12069TIP3   OH236149   1.285   4.893   6.180
12069TIP3    H136150   1.362   4.840   6.158
12069TIP3    H236151   1.235   4.899   6.098
12070TIP3   OH236152   4.769   3.005   0.441
12070TIP3    H136153   4.809   2.994   0.354
12070TIP3    H236154   4.678   3.025   0.423
12071TIP3   OH236155   2.629   5.425   4.360
12071TIP3    H136156   2.651   5.448   4.450
12071TIP3    H236157   2.688   5.353   4.338
12072TIP3   OH236158   4.870   5.217   6.232
12072TIP3    H136159   4.953   5.176   6.206
12072TIP3    H236160   4.896   5.298   6.276
12073TIP3   OH236161   1.203   3.435   3.887
12073TIP3    H136162   1.195   3.406   3.977
12073TIP3    H236163   1.152   3.372   3.836
12074TIP3   OH236164   7.723   6.671   4.580
12074TIP3    H136165   7.677   6.755   4.592
12074TIP3    H236166   7.689   6.637   4.497
12075TIP3   OH236167   6.730   0.585   1.404
12075TIP3    H136168   6.688   0.519   1.349
12075TIP3    H236169   6.780   0.639   1.343
12076TIP3   OH236170   7.995   6.726   6.461
12076TIP3    H136171   7.999   6.631   6.457
12076TIP3    H236172   8.000   6.754   6.369
12077TIP3   OH236173   3.092   7.842   6.331
12077TIP3    H136174   3.155   7.777   6.300
12077TIP3    H236175   3.087   7.826   6.426
12078TIP3   OH236176   0.983   0.666   3.553
12078TIP3    H136177   1.075   0.692   3.563
12078TIP3    H236178   0.983   0.573   3.577
12079TIP3   OH236179   3.486   4.515   5.242
12079TIP3    H136180   3.540   4.468   5.306
12079TIP3    H236181   3.507   4.607   5.257
12080TIP3   OH236182   7.675   4.371   1.238
12080TIP3    H136183   7.596   4.336   1.280
12080TIP3    H236184   7.740   4.374   1.308
12081TIP3   OH236185   6.520   6.795   5.848
12081TIP3    H136186   6.563   6.871   5.886
12081TIP3    H236187   6.506   6.818   5.756
12082TIP3   OH236188   4.440   1.317   2.903
12082TIP3    H136189   4.345   1.307   2.901
12082TIP3    H236190   4.462   1.322   2.997
12083TIP3   OH236191   1.183   5.295   3.645
12083TIP3    H136192   1.158   5.324   3.733
12083TIP3    H236193   1.266   5.340   3.628
12084TIP3   OH236194   8.213   2.352   6.470
12084TIP3    H136195   8.246   2.356   6.380
12084TIP3    H236196   8.271   2.290   6.514
12085TIP3   OH236197   2.730   3.123   4.899
12085TIP3    H136198   2.768   3.057   4.957
12085TIP3    H236199   2.736   3.204   4.950
12086TIP3   OH236200   3.017   6.944   3.202
12086TIP3    H136201   3.044   7.009   3.137
12086TIP3    H236202   3.074   6.960   3.277
12087TIP3   OH236203   0.178   4.530   0.241
12087TIP3    H136204   0.208   4.542   0.151
12087TIP3    H236205   0.235   4.586   0.294
12088TIP3   OH236206   6.291   2.930   3.019
12088TIP3    H136207   6.377   2.947   3.058
12088TIP3    H236208   6.303   2.848   2.971
12089TIP3   OH236209   2.249   5.254   3.706
12089TIP3    H136210   2.258   5.242   3.612
12089TIP3    H236211   2.267   5.168   3.743
12090TIP3   OH236212   2.671   7.209   5.621
12090TIP3    H136213   2.657   7.282   5.561
12090TIP3    H236214   2.766   7.199   5.624
12091TIP3   OH236215   6.245   3.804   3.633
12091TIP3    H136216   6.218   3.723   3.589
12091TIP3    H236217   6.241   3.782   3.726
12092TIP3   OH236218   7.588   2.973   5.300
12092TIP3    H136219   7.640   3.053   5.291
12092TIP3    H236220   7.528   2.974   5.225
12093TIP3   OH236221   2.110   3.596   5.616
12093TIP3    H136222   2.046   3.632   5.676
12093TIP3    H236223   2.081   3.624   5.529
12094TIP3   OH236224   0.746   5.793   4.882
12094TIP3    H136225   0.758   5.702   4.855
12094TIP3    H236226   0.829   5.816   4.925
12095TIP3   OH236227   1.110   3.220   4.622
12095TIP3    H136228   1.082   3.136   4.659
12095TIP3    H236229   1.155   3.264   4.694
12096TIP3   OH236230   3.800   0.215   2.012
12096TIP3    H136231   3.746   0.139   1.988
12096TIP3    H236232   3.836   0.192   2.097
12097TIP3   OH236233   4.526   6.228   3.151
12097TIP3    H136234   4.574   6.162   3.101
12097TIP3    H236235   4.585   6.304   3.154
12098TIP3   OH236236   0.200   0.446   6.162
12098TIP3    H136237   0.212   0.537   6.189
12098TIP3    H236238   0.131   0.449   6.096
12099TIP3   OH236239   2.952   7.507   3.797
12099TIP3    H136240   2.935   7.593   3.835
12099TIP3    H236241   2.887   7.449   3.839
12100TIP3   OH236242   7.266   5.808   4.137
12100TIP3    H136243   7.215   5.889   4.133
12100TIP3    H236244   7.206   5.740   4.108
12101TIP3   OH236245   6.152   5.198   0.797
12101TIP3    H136246   6.095   5.182   0.872
12101TIP3    H236247   6.116   5.144   0.727
12102TIP3   OH236248   6.342   2.375   1.281
12102TIP3    H136249   6.404   2.329   1.225
12102TIP3    H236250   6.330   2.318   1.356
12103TIP3   OH236251   2.645   5.454   0.369
12103TIP3    H136252   2.685   5.399   0.436
12103TIP3    H236253   2.660   5.406   0.287
12104TIP3   OH236254   6.699   5.244   0.364
12104TIP3    H136255   6.643   5.169   0.340
12104TIP3    H236256   6.640   5.319   0.359
12105TIP3   OH236257   1.213   3.000   0.522
12105TIP3    H136258   1.171   2.914   0.517
12105TIP3    H236259   1.231   3.024   0.431
12106TIP3   OH236260   3.909   6.228   1.937
12106TIP3    H136261   3.862   6.165   1.991
12106TIP3    H236262   3.844   6.297   1.920
12107TIP3   OH236263   8.239   4.752   1.164
12107TIP3    H136264   8.227   4.671   1.113
12107TIP3    H236265   8.192   4.819   1.114
12108TIP3   OH236266   0.128   4.687   1.903
12108TIP3    H136267   0.125   4.704   1.997
12108TIP3    H236268   0.148   4.771   1.863
12109TIP3   OH236269   6.952   3.243   6.381
12109TIP3    H136270   6.858   3.228   6.383
12109TIP3    H236271   6.991   3.156   6.388
12110TIP3   OH236272   6.726   0.121   1.521
12110TIP3    H136273   6.804   0.136   1.574
12110TIP3    H236274   6.711   0.026   1.527
12111TIP3   OH236275   0.396   6.028   4.826
12111TIP3    H136276   0.461   6.089   4.860
12111TIP3    H236277   0.364   5.981   4.903
12112TIP3   OH236278   0.194   5.772   2.146
12112TIP3    H136279   0.170   5.855   2.186
12112TIP3    H236280   0.290   5.769   2.152
12113TIP3   OH236281   6.982   0.522   3.645
12113TIP3    H136282   7.045   0.452   3.663
12113TIP3    H236283   6.902   0.477   3.620
12114TIP3   OH236284   5.564   7.743   2.646
12114TIP3    H136285   5.619   7.815   2.614
12114TIP3    H236286   5.480   7.755   2.601
12115TIP3   OH236287   4.413   3.481   0.993
12115TIP3    H136288   4.320   3.502   0.987
12115TIP3    H236289   4.454   3.561   1.026
12116TIP3   OH236290   3.399   7.658   2.561
12116TIP3    H136291   3.491   7.680   2.545
12116TIP3    H236292   3.369   7.725   2.622
12117TIP3   OH236293   2.327   7.670   1.975
12117TIP3    H136294   2.345   7.729   1.902
12117TIP3    H236295   2.232   7.666   1.980
12118TIP3   OH236296   7.627   0.921   2.977
12118TIP3    H136297   7.616   1.008   2.938
12118TIP3    H236298   7.538   0.889   2.991
12119TIP3   OH236299   3.305   3.462   4.765
12119TIP3    H136300   3.400   3.464   4.780
12119TIP3    H236301   3.267   3.483   4.850
12120TIP3   OH236302   2.178   3.523   3.167
12120TIP3    H136303   2.207   3.433   3.153
12120TIP3    H236304   2.196   3.567   3.084
12121TIP3   OH236305   6.031   3.803   6.738
12121TIP3    H136306   6.084   3.742   6.789
12121TIP3    H236307   6.015   3.876   6.798
12122TIP3   OH236308   7.831   1.978   1.605
12122TIP3    H136309   7.739   1.952   1.612
12122TIP3    H236310   7.832   2.070   1.632
12123TIP3   OH236311   5.971   3.882   1.262
12123TIP3    H136312   5.881   3.895   1.232
12123TIP3    H236313   6.008   3.970   1.266
12124TIP3   OH236314   6.213   4.172   1.935
12124TIP3    H136315   6.207   4.253   1.984
12124TIP3    H236316   6.165   4.189   1.854
12125TIP3   OH236317   4.723   2.539   0.420
12125TIP3    H136318   4.714   2.477   0.492
12125TIP3    H236319   4.756   2.619   0.461
12126TIP3   OH236320   5.925   2.841   1.449
12126TIP3    H136321   5.939   2.885   1.365
12126TIP3    H236322   5.842   2.876   1.481
12127TIP3   OH236323   2.148   2.208   1.827
12127TIP3    H136324   2.102   2.291   1.817
12127TIP3    H236325   2.229   2.231   1.873
12128TIP3   OH236326   5.066   4.692   5.531
12128TIP3    H136327   5.115   4.619   5.570
12128TIP3    H236328   5.113   4.711   5.450
12129TIP3   OH236329   0.664   1.191   0.791
12129TIP3    H136330   0.699   1.279   0.781
12129TIP3    H236331   0.604   1.197   0.866
12130TIP3   OH236332   5.897   5.176   1.850
12130TIP3    H136333   5.904   5.188   1.756
12130TIP3    H236334   5.871   5.085   1.862
12131TIP3   OH236335   6.821   3.324   0.275
12131TIP3    H136336   6.811   3.389   0.205
12131TIP3    H236337   6.914   3.301   0.272
12132TIP3   OH236338   3.979   3.091   6.093
12132TIP3    H136339   4.032   3.012   6.089
12132TIP3    H236340   4.011   3.146   6.022
12133TIP3   OH236341   6.241   4.802   3.116
12133TIP3    H136342   6.268   4.714   3.091
12133TIP3    H236343   6.175   4.788   3.184
12134TIP3   OH236344   4.682   0.472   6.300
12134TIP3    H136345   4.718   0.490   6.213
12134TIP3    H236346   4.596   0.514   6.299
12135TIP3   OH236347   0.895   4.765   5.432
12135TIP3    H136348   0.961   4.698   5.453
12135TIP3    H236349   0.903   4.829   5.503
12136TIP3   OH236350   3.012   5.444   2.334
12136TIP3    H136351   3.103   5.470   2.324
12136TIP3    H236352   2.967   5.485   2.259
12137TIP3   OH236353   4.875   4.590   3.167
12137TIP3    H136354   4.926   4.617   3.091
12137TIP3    H236355   4.791   4.635   3.156
12138TIP3   OH236356   1.779   5.789   6.146
12138TIP3    H136357   1.718   5.816   6.215
12138TIP3    H236358   1.846   5.739   6.192
12139TIP3   OH236359   2.191   0.687   3.665
12139TIP3    H136360   2.127   0.709   3.598
12139TIP3    H236361   2.247   0.764   3.671
12140TIP3   OH236362   2.436   6.864   5.491
12140TIP3    H136363   2.380   6.840   5.564
12140TIP3    H236364   2.525   6.854   5.524
12141TIP3   OH236365   1.799   5.115   5.998
12141TIP3    H136366   1.723   5.062   5.975
12141TIP3    H236367   1.873   5.068   5.962
12142TIP3   OH236368   1.668   6.240   1.943
12142TIP3    H136369   1.595   6.198   1.897
12142TIP3    H236370   1.716   6.286   1.875
12143TIP3   OH236371   0.353   3.528   1.289
12143TIP3    H136372   0.422   3.541   1.354
12143TIP3    H236373   0.353   3.434   1.272
12144TIP3   OH236374   3.243   6.447   5.303
12144TIP3    H136375   3.236   6.523   5.244
12144TIP3    H236376   3.167   6.393   5.282
12145TIP3   OH236377   6.604   3.414   3.405
12145TIP3    H136378   6.652   3.355   3.346
12145TIP3    H236379   6.637   3.501   3.384
12146TIP3   OH236380   1.938   6.992   2.733
12146TIP3    H136381   2.019   6.950   2.706
12146TIP3    H236382   1.894   6.927   2.787
12147TIP3   OH236383   0.456   7.590   2.427
12147TIP3    H136384   0.441   7.540   2.508
12147TIP3    H236385   0.524   7.653   2.451
12148TIP3   OH236386   4.008   2.293   3.421
12148TIP3    H136387   4.009   2.356   3.493
12148TIP3    H236388   4.096   2.255   3.421
12149TIP3   OH236389   2.557   2.548   1.061
12149TIP3    H136390   2.585   2.469   1.015
12149TIP3    H236391   2.475   2.573   1.019
12150TIP3   OH236392   6.382   7.751   1.098
12150TIP3    H136393   6.363   7.815   1.166
12150TIP3    H236394   6.401   7.670   1.146
12151TIP3   OH236395   6.945   3.323   2.680
12151TIP3    H136396   6.945   3.403   2.731
12151TIP3    H236397   7.037   3.303   2.665
12152TIP3   OH236398   2.199   3.786   2.440
12152TIP3    H136399   2.140   3.775   2.515
12152TIP3    H236400   2.283   3.809   2.479
12153TIP3   OH236401   6.879   4.767   6.226
12153TIP3    H136402   6.890   4.861   6.239
12153TIP3    H236403   6.940   4.727   6.289
12154TIP3   OH236404   6.402   0.828   6.062
12154TIP3    H136405   6.357   0.745   6.074
12154TIP3    H236406   6.435   0.851   6.149
12155TIP3   OH236407   8.234   1.386   1.222
12155TIP3    H136408   8.271   1.345   1.300
12155TIP3    H236409   8.144   1.354   1.217
12156TIP3   OH236410   4.998   1.589   3.472
12156TIP3    H136411   5.032   1.547   3.551
12156TIP3    H236412   5.056   1.559   3.402
12157TIP3   OH236413   5.967   1.878   4.312
12157TIP3    H136414   5.972   1.940   4.239
12157TIP3    H236415   6.026   1.913   4.378
12158TIP3   OH236416   8.231   1.355   5.947
12158TIP3    H136417   8.204   1.415   5.877
12158TIP3    H236418   8.171   1.281   5.939
12159TIP3   OH236419   8.079   3.602   4.443
12159TIP3    H136420   8.018   3.554   4.389
12159TIP3    H236421   8.120   3.536   4.499
12160TIP3   OH236422   5.720   7.599   5.777
12160TIP3    H136423   5.687   7.530   5.718
12160TIP3    H236424   5.750   7.551   5.855
12161TIP3   OH236425   5.924   0.203   5.175
12161TIP3    H136426   5.917   0.275   5.238
12161TIP3    H236427   5.935   0.247   5.091
12162TIP3   OH236428   5.785   0.065   3.593
12162TIP3    H136429   5.781   0.029   3.682
12162TIP3    H236430   5.867   0.030   3.557
12163TIP3   OH236431   6.736   3.019   1.629
12163TIP3    H136432   6.764   3.093   1.576
12163TIP3    H236433   6.643   3.036   1.646
12164TIP3   OH236434   0.970   7.159   3.842
12164TIP3    H136435   0.881   7.152   3.877
12164TIP3    H236436   0.990   7.070   3.812
12165TIP3   OH236437   5.050   2.243   3.179
12165TIP3    H136438   5.006   2.300   3.242
12165TIP3    H236439   5.026   2.155   3.207
12166TIP3   OH236440   3.401   6.074   3.145
12166TIP3    H136441   3.390   6.085   3.240
12166TIP3    H236442   3.495   6.056   3.135
12167TIP3   OH236443   3.027   5.476   0.722
12167TIP3    H136444   2.951   5.437   0.766
12167TIP3    H236445   3.029   5.566   0.755
12168TIP3   OH236446   4.616   7.396   3.157
12168TIP3    H136447   4.666   7.336   3.213
12168TIP3    H236448   4.614   7.478   3.206
12169TIP3   OH236449   5.389   5.257   3.703
12169TIP3    H136450   5.311   5.229   3.655
12169TIP3    H236451   5.427   5.325   3.648
12170TIP3   OH236452   0.814   4.708   4.269
12170TIP3    H136453   0.760   4.705   4.348
12170TIP3    H236454   0.753   4.729   4.199
12171TIP3   OH236455   1.938   1.542   6.697
12171TIP3    H136456   1.884   1.509   6.626
12171TIP3    H236457   2.023   1.499   6.686
12172TIP3   OH236458   0.454   2.928   2.436
12172TIP3    H136459   0.491   2.889   2.356
12172TIP3    H236460   0.499   2.883   2.507
12173TIP3   OH236461   0.705   4.493   4.584
12173TIP3    H136462   0.646   4.546   4.532
12173TIP3    H236463   0.660   4.480   4.667
12174TIP3   OH236464   3.356   4.064   5.183
12174TIP3    H136465   3.332   4.129   5.249
12174TIP3    H236466   3.433   4.020   5.219
12175TIP3   OH236467   3.429   7.630   5.210
12175TIP3    H136468   3.372   7.553   5.219
12175TIP3    H236469   3.369   7.703   5.197
12176TIP3   OH236470   4.546   0.110   4.438
12176TIP3    H136471   4.499   0.035   4.401
12176TIP3    H236472   4.485   0.183   4.427
12177TIP3   OH236473   2.951   6.675   5.411
12177TIP3    H136474   3.024   6.686   5.350
12177TIP3    H236475   2.989   6.698   5.496
12178TIP3   OH236476   6.136   3.418   0.935
12178TIP3    H136477   6.111   3.351   0.872
12178TIP3    H236478   6.215   3.457   0.897
12179TIP3   OH236479   4.497   7.003   2.837
12179TIP3    H136480   4.442   7.080   2.847
12179TIP3    H236481   4.492   6.958   2.921
12180TIP3   OH236482   4.685   4.328   2.262
12180TIP3    H136483   4.692   4.347   2.356
12180TIP3    H236484   4.692   4.233   2.256
12181TIP3   OH236485   7.851   6.937   2.992
12181TIP3    H136486   7.857   6.849   2.955
12181TIP3    H236487   7.884   6.928   3.081
12182TIP3   OH236488   6.765   2.938   0.869
12182TIP3    H136489   6.744   2.926   0.962
12182TIP3    H236490   6.717   3.016   0.843
12183TIP3   OH236491   6.307   4.496   6.666
12183TIP3    H136492   6.332   4.515   6.576
12183TIP3    H236493   6.369   4.547   6.719
12184TIP3   OH236494   6.559   3.597   3.723
12184TIP3    H136495   6.483   3.544   3.746
12184TIP3    H236496   6.521   3.678   3.688
12185TIP3   OH236497   0.875   1.144   4.229
12185TIP3    H136498   0.879   1.182   4.141
12185TIP3    H236499   0.850   1.053   4.215
12186TIP3   OH236500   4.715   0.882   0.460
12186TIP3    H136501   4.739   0.808   0.516
12186TIP3    H236502   4.668   0.842   0.387
12187TIP3   OH236503   1.059   2.150   1.048
12187TIP3    H136504   1.081   2.105   0.966
12187TIP3    H236505   1.058   2.081   1.114
12188TIP3   OH236506   4.096   4.898   3.407
12188TIP3    H136507   4.069   4.989   3.395
12188TIP3    H236508   4.164   4.902   3.473
12189TIP3   OH236509   6.439   7.515   1.763
12189TIP3    H136510   6.440   7.497   1.669
12189TIP3    H236511   6.445   7.610   1.769
12190TIP3   OH236512   5.847   7.127   1.786
12190TIP3    H136513   5.897   7.053   1.754
12190TIP3    H236514   5.816   7.100   1.873
12191TIP3   OH236515   2.814   4.846   6.065
12191TIP3    H136516   2.812   4.900   5.986
12191TIP3    H236517   2.732   4.865   6.110
12192TIP3   OH236518   7.161   1.390   5.538
12192TIP3    H136519   7.251   1.411   5.512
12192TIP3    H236520   7.153   1.296   5.522
12193TIP3   OH236521   6.760   1.651   4.414
12193TIP3    H136522   6.814   1.652   4.335
12193TIP3    H236523   6.679   1.695   4.387
12194TIP3   OH236524   0.342   5.045   4.676
12194TIP3    H136525   0.406   5.019   4.610
12194TIP3    H236526   0.332   4.967   4.731
12195TIP3   OH236527   7.288   4.250   0.331
12195TIP3    H136528   7.315   4.301   0.407
12195TIP3    H236529   7.368   4.238   0.280
12196TIP3   OH236530   7.929   6.909   5.751
12196TIP3    H136531   8.022   6.890   5.735
12196TIP3    H236532   7.886   6.884   5.669
12197TIP3   OH236533   3.530   0.429   6.483
12197TIP3    H136534   3.571   0.343   6.493
12197TIP3    H236535   3.444   0.419   6.523
12198TIP3   OH236536   0.076   2.383   6.226
12198TIP3    H136537   0.129   2.412   6.151
12198TIP3    H236538   0.011   2.324   6.187
12199TIP3   OH236539   3.546   2.834   4.330
12199TIP3    H136540   3.508   2.883   4.257
12199TIP3    H236541   3.495   2.861   4.407
12200TIP3   OH236542   5.477   6.765   3.235
12200TIP3    H136543   5.468   6.749   3.141
12200TIP3    H236544   5.571   6.757   3.252
12201TIP3   OH236545   2.352   1.620   3.517
12201TIP3    H136546   2.433   1.575   3.493
12201TIP3    H236547   2.364   1.644   3.609
12202TIP3   OH236548   2.750   1.738   2.362
12202TIP3    H136549   2.810   1.808   2.337
12202TIP3    H236550   2.722   1.699   2.280
12203TIP3   OH236551   7.075   4.083   2.674
12203TIP3    H136552   7.044   4.066   2.763
12203TIP3    H236553   7.137   4.155   2.683
12204TIP3   OH236554   5.948   2.926   3.534
12204TIP3    H136555   5.961   2.940   3.628
12204TIP3    H236556   5.920   2.834   3.527
12205TIP3   OH236557   0.892   4.425   2.421
12205TIP3    H136558   0.830   4.373   2.472
12205TIP3    H236559   0.955   4.458   2.484
12206TIP3   OH236560   1.146   2.719   6.614
12206TIP3    H136561   1.104   2.800   6.584
12206TIP3    H236562   1.103   2.700   6.697
12207TIP3   OH236563   7.460   3.996   0.906
12207TIP3    H136564   7.541   3.961   0.943
12207TIP3    H236565   7.407   3.918   0.888
12208TIP3   OH236566   5.621   6.038   0.650
12208TIP3    H136567   5.549   5.981   0.624
12208TIP3    H236568   5.593   6.075   0.734
12209TIP3   OH236569   6.234   0.398   0.275
12209TIP3    H136570   6.154   0.385   0.224
12209TIP3    H236571   6.205   0.398   0.366
12210TIP3   OH236572   3.777   5.522   6.060
12210TIP3    H136573   3.766   5.574   5.980
12210TIP3    H236574   3.841   5.570   6.112
12211TIP3   OH236575   3.418   5.363   0.075
12211TIP3    H136576   3.467   5.312   0.011
12211TIP3    H236577   3.415   5.452   0.039
12212TIP3   OH236578   1.259   0.705   3.719
12212TIP3    H136579   1.334   0.686   3.774
12212TIP3    H236580   1.267   0.799   3.700
12213TIP3   OH236581   1.140   4.826   0.111
12213TIP3    H136582   1.181   4.818   0.025
12213TIP3    H236583   1.208   4.863   0.167
12214TIP3   OH236584   3.946   6.327   4.449
12214TIP3    H136585   3.893   6.277   4.511
12214TIP3    H236586   4.021   6.358   4.500
12215TIP3   OH236587   4.532   6.090   4.708
12215TIP3    H136588   4.573   6.172   4.680
12215TIP3    H236589   4.586   6.021   4.670
12216TIP3   OH236590   1.698   5.474   1.975
12216TIP3    H136591   1.668   5.541   2.037
12216TIP3    H236592   1.753   5.522   1.913
12217TIP3   OH236593   1.225   6.654   3.489
12217TIP3    H136594   1.212   6.608   3.572
12217TIP3    H236595   1.138   6.657   3.449
12218TIP3   OH236596   7.430   2.791   6.490
12218TIP3    H136597   7.341   2.780   6.455
12218TIP3    H236598   7.417   2.834   6.575
12219TIP3   OH236599  -0.026   3.034   6.374
12219TIP3    H136600   0.046   2.993   6.423
12219TIP3    H236601   0.015   3.110   6.332
12220TIP3   OH236602   3.676   3.656   6.308
12220TIP3    H136603   3.587   3.682   6.332
12220TIP3    H236604   3.664   3.600   6.231
12221TIP3   OH236605   5.079   3.336   1.001
12221TIP3    H136606   5.040   3.405   1.054
12221TIP3    H236607   5.036   3.344   0.915
12222TIP3   OH236608   5.607   2.516   3.674
12222TIP3    H136609   5.625   2.432   3.716
12222TIP3    H236610   5.538   2.497   3.610
12223TIP3   OH236611   1.443   3.073   0.018
12223TIP3    H136612   1.501   2.999   0.034
12223TIP3    H236613   1.503   3.145  -0.005
12224TIP3   OH236614   5.052   6.242   2.294
12224TIP3    H136615   5.043   6.228   2.199
12224TIP3    H236616   5.035   6.336   2.306
12225TIP3   OH236617   5.615   1.698   6.634
12225TIP3    H136618   5.531   1.671   6.670
12225TIP3    H236619   5.593   1.766   6.571
12226TIP3   OH236620   1.636   5.600   0.661
12226TIP3    H136621   1.650   5.626   0.752
12226TIP3    H236622   1.542   5.611   0.646
12227TIP3   OH236623   0.558   1.488   5.248
12227TIP3    H136624   0.588   1.406   5.288
12227TIP3    H236625   0.482   1.463   5.196
12228TIP3   OH236626   0.570   6.443   2.037
12228TIP3    H136627   0.532   6.363   2.001
12228TIP3    H236628   0.587   6.424   2.129
12229TIP3   OH236629   1.207   2.169   3.476
12229TIP3    H136630   1.276   2.158   3.411
12229TIP3    H236631   1.155   2.243   3.444
12230TIP3   OH236632   1.981   0.131   0.542
12230TIP3    H136633   1.960   0.095   0.456
12230TIP3    H236634   2.035   0.064   0.583
12231TIP3   OH236635   8.222   4.614   0.285
12231TIP3    H136636   8.316   4.593   0.279
12231TIP3    H236637   8.218   4.692   0.341
12232TIP3   OH236638   1.904   0.081   6.542
12232TIP3    H136639   1.927   0.024   6.468
12232TIP3    H236640   1.950   0.042   6.617
12233TIP3   OH236641   0.525   3.499   2.978
12233TIP3    H136642   0.457   3.539   3.031
12233TIP3    H236643   0.484   3.485   2.893
12234TIP3   OH236644   2.016   1.358   6.102
12234TIP3    H136645   2.038   1.408   6.023
12234TIP3    H236646   2.010   1.425   6.171
12235TIP3   OH236647   4.094   6.667   6.157
12235TIP3    H136648   4.074   6.676   6.250
12235TIP3    H236649   4.056   6.583   6.132
12236TIP3   OH236650   4.487   1.537   6.554
12236TIP3    H136651   4.578   1.551   6.580
12236TIP3    H236652   4.487   1.553   6.459
12237TIP3   OH236653   6.883   3.695   1.070
12237TIP3    H136654   6.906   3.768   1.013
12237TIP3    H236655   6.842   3.736   1.146
12238TIP3   OH236656   0.995   0.233   2.547
12238TIP3    H136657   1.019   0.271   2.632
12238TIP3    H236658   1.027   0.297   2.483
12239TIP3   OH236659   5.332   5.294   1.422
12239TIP3    H136660   5.328   5.305   1.327
12239TIP3    H236661   5.409   5.345   1.448
12240TIP3   OH236662   1.190   1.385   0.420
12240TIP3    H136663   1.134   1.309   0.403
12240TIP3    H236664   1.273   1.364   0.378
12241TIP3   OH236665   0.010   4.681   3.422
12241TIP3    H136666  -0.039   4.603   3.395
12241TIP3    H236667   0.102   4.653   3.418
12242TIP3   OH236668   7.433   1.317   4.223
12242TIP3    H136669   7.446   1.222   4.219
12242TIP3    H236670   7.373   1.330   4.296
12243TIP3   OH236671   6.693   1.038   3.595
12243TIP3    H136672   6.674   0.946   3.611
12243TIP3    H236673   6.732   1.040   3.508
12244TIP3   OH236674   7.575   4.130   4.363
12244TIP3    H136675   7.504   4.179   4.404
12244TIP3    H236676   7.602   4.066   4.428
12245TIP3   OH236677   1.673   7.266   5.734
12245TIP3    H136678   1.630   7.204   5.675
12245TIP3    H236679   1.642   7.242   5.821
12246TIP3   OH236680   7.635   2.550   2.911
12246TIP3    H136681   7.617   2.457   2.923
12246TIP3    H236682   7.590   2.593   2.984
12247TIP3   OH236683   7.136   0.924   0.333
12247TIP3    H136684   7.137   0.936   0.238
12247TIP3    H236685   7.075   0.991   0.364
12248TIP3   OH236686   6.066   3.210   6.291
12248TIP3    H136687   6.153   3.235   6.322
12248TIP3    H236688   6.083   3.149   6.219
12249TIP3   OH236689   6.636   4.031   3.007
12249TIP3    H136690   6.586   3.966   2.959
12249TIP3    H236691   6.672   4.088   2.939
12250TIP3   OH236692   5.469   6.537   5.261
12250TIP3    H136693   5.519   6.471   5.311
12250TIP3    H236694   5.461   6.610   5.322
12251TIP3   OH236695   2.774   2.255   5.313
12251TIP3    H136696   2.816   2.269   5.228
12251TIP3    H236697   2.683   2.280   5.299
12252TIP3   OH236698   8.272   3.545   0.932
12252TIP3    H136699   8.259   3.634   0.899
12252TIP3    H236700   8.363   3.524   0.911
12253TIP3   OH236701   1.602   7.641   0.189
12253TIP3    H136702   1.507   7.652   0.197
12253TIP3    H236703   1.638   7.723   0.223
12254TIP3   OH236704   6.229   0.400   5.266
12254TIP3    H136705   6.159   0.464   5.256
12254TIP3    H236706   6.242   0.393   5.360
12255TIP3   OH236707   3.642   0.895   6.395
12255TIP3    H136708   3.588   0.881   6.472
12255TIP3    H236709   3.727   0.857   6.418
12256TIP3   OH236710   6.701   4.800   1.325
12256TIP3    H136711   6.760   4.724   1.332
12256TIP3    H236712   6.697   4.835   1.414
12257TIP3   OH236713   7.664   6.092   0.802
12257TIP3    H136714   7.659   6.033   0.727
12257TIP3    H236715   7.621   6.172   0.773
12258TIP3   OH236716   6.980   4.898   1.693
12258TIP3    H136717   7.048   4.919   1.629
12258TIP3    H236718   7.026   4.851   1.763
12259TIP3   OH236719   4.363   0.319   0.764
12259TIP3    H136720   4.310   0.326   0.843
12259TIP3    H236721   4.406   0.234   0.771
12260TIP3   OH236722   6.396   3.811   0.917
12260TIP3    H136723   6.372   3.722   0.892
12260TIP3    H236724   6.459   3.800   0.988
12261TIP3   OH236725   6.341   0.325   5.506
12261TIP3    H136726   6.403   0.253   5.520
12261TIP3    H236727   6.396   0.402   5.498
12262TIP3   OH236728   5.823   0.175   3.324
12262TIP3    H136729   5.729   0.193   3.317
12262TIP3    H236730   5.830   0.114   3.398
12263TIP3   OH236731   6.313   6.959   1.864
12263TIP3    H136732   6.235   6.934   1.915
12263TIP3    H236733   6.286   7.038   1.817
12264TIP3   OH236734   4.258   6.962   5.691
12264TIP3    H136735   4.252   6.881   5.741
12264TIP3    H236736   4.225   7.030   5.750
12265TIP3   OH236737   7.443   7.744   1.583
12265TIP3    H136738   7.462   7.727   1.491
12265TIP3    H236739   7.443   7.657   1.624
12266TIP3   OH236740   0.215   7.758   1.302
12266TIP3    H136741   0.143   7.811   1.336
12266TIP3    H236742   0.265   7.733   1.380
12267TIP3   OH236743   7.371   6.140   2.496
12267TIP3    H136744   7.334   6.155   2.582
12267TIP3    H236745   7.366   6.045   2.484
12268TIP3   OH236746   0.861   1.843   0.467
12268TIP3    H136747   0.947   1.883   0.479
12268TIP3    H236748   0.870   1.791   0.387
12269TIP3   OH236749   7.466   5.851   6.609
12269TIP3    H136750   7.530   5.785   6.580
12269TIP3    H236751   7.426   5.883   6.528
12270TIP3   OH236752   2.395   0.968   4.262
12270TIP3    H136753   2.329   1.000   4.323
12270TIP3    H236754   2.370   0.877   4.245
12271TIP3   OH236755   2.847   0.297   5.653
12271TIP3    H136756   2.815   0.377   5.695
12271TIP3    H236757   2.938   0.317   5.629
12272TIP3   OH236758   6.610   6.048   5.525
12272TIP3    H136759   6.643   5.984   5.588
12272TIP3    H236760   6.578   6.121   5.579
12273TIP3   OH236761   6.480   6.581   2.755
12273TIP3    H136762   6.457   6.674   2.752
12273TIP3    H236763   6.553   6.572   2.695
12274TIP3   OH236764   2.391   2.860   2.409
12274TIP3    H136765   2.424   2.818   2.329
12274TIP3    H236766   2.309   2.901   2.382
12275TIP3   OH236767   7.355   2.582   5.888
12275TIP3    H136768   7.418   2.612   5.823
12275TIP3    H236769   7.270   2.585   5.844
12276TIP3   OH236770   4.186   2.387   1.612
12276TIP3    H136771   4.178   2.432   1.696
12276TIP3    H236772   4.116   2.322   1.612
12277TIP3   OH236773   3.953   7.341   3.754
12277TIP3    H136774   3.871   7.391   3.750
12277TIP3    H236775   3.930   7.254   3.723
12278TIP3   OH236776   2.234   2.541   0.411
12278TIP3    H136777   2.182   2.565   0.488
12278TIP3    H236778   2.324   2.562   0.436
12279TIP3   OH236779   5.604   1.615   2.217
12279TIP3    H136780   5.584   1.529   2.180
12279TIP3    H236781   5.538   1.673   2.179
12280TIP3   OH236782   4.171   1.527   3.767
12280TIP3    H136783   4.163   1.432   3.772
12280TIP3    H236784   4.212   1.544   3.683
12281TIP3   OH236785   0.657   3.376   0.411
12281TIP3    H136786   0.731   3.434   0.393
12281TIP3    H236787   0.603   3.425   0.474
12282TIP3   OH236788   6.409   1.365   3.442
12282TIP3    H136789   6.426   1.363   3.536
12282TIP3    H236790   6.386   1.275   3.419
12283TIP3   OH236791   4.765   0.270   6.026
12283TIP3    H136792   4.750   0.364   6.020
12283TIP3    H236793   4.842   0.254   5.971
12284TIP3   OH236794   2.747   0.515   6.250
12284TIP3    H136795   2.827   0.521   6.199
12284TIP3    H236796   2.728   0.605   6.277
12285TIP3   OH236797   7.308   0.785   4.525
12285TIP3    H136798   7.245   0.842   4.480
12285TIP3    H236799   7.312   0.706   4.471
12286TIP3   OH236800   4.328   4.736   6.534
12286TIP3    H136801   4.370   4.717   6.617
12286TIP3    H236802   4.240   4.765   6.557
12287TIP3   OH236803   4.168   4.767   3.125
12287TIP3    H136804   4.260   4.788   3.142
12287TIP3    H236805   4.130   4.847   3.090
12288TIP3   OH236806   6.909   1.393   2.897
12288TIP3    H136807   6.914   1.346   2.980
12288TIP3    H236808   6.835   1.453   2.907
12289TIP3   OH236809   2.907   1.687   1.720
12289TIP3    H136810   2.922   1.757   1.784
12289TIP3    H236811   2.990   1.680   1.673
12290TIP3   OH236812   5.618   5.417   6.488
12290TIP3    H136813   5.537   5.400   6.537
12290TIP3    H236814   5.658   5.331   6.477
12291TIP3   OH236815   5.554   3.231   6.087
12291TIP3    H136816   5.556   3.155   6.146
12291TIP3    H236817   5.461   3.250   6.077
12292TIP3   OH236818   5.803   6.695   5.359
12292TIP3    H136819   5.879   6.691   5.301
12292TIP3    H236820   5.842   6.701   5.447
12293TIP3   OH236821   6.506   4.815   0.240
12293TIP3    H136822   6.569   4.828   0.169
12293TIP3    H236823   6.521   4.725   0.269
12294TIP3   OH236824   3.602   1.917   3.747
12294TIP3    H136825   3.582   1.827   3.723
12294TIP3    H236826   3.637   1.911   3.836
12295TIP3   OH236827   1.372   7.792   5.437
12295TIP3    H136828   1.340   7.857   5.374
12295TIP3    H236829   1.293   7.747   5.468
12296TIP3   OH236830   3.081   0.190   0.867
12296TIP3    H136831   3.078   0.172   0.961
12296TIP3    H236832   2.992   0.222   0.847
12297TIP3   OH236833   7.755   4.115   2.432
12297TIP3    H136834   7.802   4.053   2.488
12297TIP3    H236835   7.729   4.186   2.491
12298TIP3   OH236836   2.244   5.875   6.655
12298TIP3    H136837   2.181   5.808   6.628
12298TIP3    H236838   2.235   5.944   6.589
12299TIP3   OH236839   1.973   6.239   5.324
12299TIP3    H136840   1.954   6.204   5.237
12299TIP3    H236841   2.016   6.323   5.307
12300TIP3   OH236842   7.578   2.288   3.276
12300TIP3    H136843   7.642   2.350   3.240
12300TIP3    H236844   7.496   2.310   3.231
12301TIP3   OH236845   2.163   6.065   1.456
12301TIP3    H136846   2.157   5.970   1.442
12301TIP3    H236847   2.105   6.102   1.389
12302TIP3   OH236848   0.221   5.992   5.051
12302TIP3    H136849   0.204   5.953   5.137
12302TIP3    H236850   0.138   5.983   5.003
12303TIP3   OH236851   2.627   3.972   3.674
12303TIP3    H136852   2.721   3.986   3.686
12303TIP3    H236853   2.620   3.934   3.586
12304TIP3   OH236854   2.777   3.866   5.550
12304TIP3    H136855   2.693   3.821   5.557
12304TIP3    H236856   2.802   3.856   5.458
12305TIP3   OH236857   0.015   1.381   4.975
12305TIP3    H136858  -0.037   1.378   4.895
12305TIP3    H236859   0.098   1.339   4.951
12306TIP3   OH236860   3.758   1.641   3.708
12306TIP3    H136861   3.678   1.594   3.732
12306TIP3    H236862   3.809   1.645   3.788
12307TIP3   OH236863   0.463   6.958   3.355
12307TIP3    H136864   0.445   7.034   3.301
12307TIP3    H236865   0.525   6.989   3.422
12308TIP3   OH236866   1.299   5.609   4.449
12308TIP3    H136867   1.254   5.693   4.460
12308TIP3    H236868   1.392   5.631   4.443
12309TIP3   OH236869   0.356   6.806   1.679
12309TIP3    H136870   0.403   6.887   1.700
12309TIP3    H236871   0.311   6.782   1.760
12310TIP3   OH236872   0.067   1.457   3.009
12310TIP3    H136873   0.102   1.375   2.976
12310TIP3    H236874   0.072   1.448   3.104
12311TIP3   OH236875   3.575   3.698   4.101
12311TIP3    H136876   3.607   3.767   4.159
12311TIP3    H236877   3.482   3.689   4.123
12312TIP3   OH236878   5.601   3.547   5.620
12312TIP3    H136879   5.574   3.490   5.693
12312TIP3    H236880   5.541   3.620   5.623
12313TIP3   OH236881   2.695   1.513   1.629
12313TIP3    H136882   2.679   1.552   1.543
12313TIP3    H236883   2.784   1.539   1.651
12314TIP3   OH236884   6.598   7.810   0.163
12314TIP3    H136885   6.560   7.759   0.092
12314TIP3    H236886   6.671   7.857   0.122
12315TIP3   OH236887   0.848   3.017   6.256
12315TIP3    H136888   0.803   3.101   6.259
12315TIP3    H236889   0.843   2.991   6.164
12316TIP3   OH236890   6.195   1.408   4.083
12316TIP3    H136891   6.159   1.418   3.995
12316TIP3    H236892   6.133   1.453   4.140
12317TIP3   OH236893   0.564   0.610   4.102
12317TIP3    H136894   0.607   0.592   4.018
12317TIP3    H236895   0.556   0.524   4.144
12318TIP3   OH236896   6.768   4.697   2.031
12318TIP3    H136897   6.679   4.726   2.050
12318TIP3    H236898   6.758   4.635   1.959
12319TIP3   OH236899   6.222   2.412   6.052
12319TIP3    H136900   6.135   2.387   6.021
12319TIP3    H236901   6.206   2.454   6.136
12320TIP3   OH236902   1.399   2.105   4.520
12320TIP3    H136903   1.444   2.185   4.495
12320TIP3    H236904   1.467   2.050   4.558
12321TIP3   OH236905   0.227   4.826   3.846
12321TIP3    H136906   0.246   4.872   3.764
12321TIP3    H236907   0.202   4.738   3.819
12322TIP3   OH236908   1.586   4.690   0.673
12322TIP3    H136909   1.623   4.698   0.760
12322TIP3    H236910   1.526   4.615   0.679
12323TIP3   OH236911   3.645   2.422   0.218
12323TIP3    H136912   3.567   2.392   0.265
12323TIP3    H236913   3.689   2.481   0.280
12324TIP3   OH236914   2.766   4.957   4.843
12324TIP3    H136915   2.789   4.888   4.905
12324TIP3    H236916   2.749   5.033   4.898
12325TIP3   OH236917   6.041   1.501   5.853
12325TIP3    H136918   6.137   1.500   5.863
12325TIP3    H236919   6.013   1.414   5.882
12326TIP3   OH236920   4.654   3.735   5.498
12326TIP3    H136921   4.701   3.811   5.530
12326TIP3    H236922   4.696   3.661   5.542
12327TIP3   OH236923   3.927   7.538   6.513
12327TIP3    H136924   3.890   7.626   6.522
12327TIP3    H236925   3.937   7.526   6.419
12328TIP3   OH236926   6.727   4.373   2.159
12328TIP3    H136927   6.801   4.341   2.107
12328TIP3    H236928   6.688   4.293   2.195
12329TIP3   OH236929   7.537   1.354   1.403
12329TIP3    H136930   7.584   1.329   1.482
12329TIP3    H236931   7.512   1.270   1.363
12330TIP3   OH236932   3.415   7.740   3.175
12330TIP3    H136933   3.373   7.655   3.164
12330TIP3    H236934   3.478   7.728   3.246
12331TIP3   OH236935   0.955   4.642   3.806
12331TIP3    H136936   0.866   4.657   3.838
12331TIP3    H236937   1.003   4.608   3.882
12332TIP3   OH236938   4.061   1.104   5.268
12332TIP3    H136939   4.002   1.089   5.194
12332TIP3    H236940   4.003   1.128   5.340
12333TIP3   OH236941   2.515   0.878   6.526
12333TIP3    H136942   2.514   0.910   6.436
12333TIP3    H236943   2.593   0.918   6.565
12334TIP3   OH236944   0.215   4.208   2.394
12334TIP3    H136945   0.163   4.200   2.313
12334TIP3    H236946   0.305   4.198   2.366
12335TIP3   OH236947   3.279   6.126   5.075
12335TIP3    H136948   3.275   6.068   5.152
12335TIP3    H236949   3.189   6.155   5.063
12336TIP3   OH236950   8.307   4.779   6.291
12336TIP3    H136951   8.296   4.846   6.358
12336TIP3    H236952   8.274   4.820   6.211
12337TIP3   OH236953   0.980   5.573   2.982
12337TIP3    H136954   0.914   5.510   2.956
12337TIP3    H236955   0.964   5.588   3.075
12338TIP3   OH236956   3.825   1.864   2.174
12338TIP3    H136957   3.768   1.810   2.229
12338TIP3    H236958   3.820   1.951   2.213
12339TIP3   OH236959   3.547   6.848   1.628
12339TIP3    H136960   3.540   6.773   1.569
12339TIP3    H236961   3.495   6.917   1.586
12340TIP3   OH236962   2.468   7.642   6.211
12340TIP3    H136963   2.433   7.607   6.293
12340TIP3    H236964   2.415   7.601   6.143
12341TIP3   OH236965   5.461   1.800   2.067
12341TIP3    H136966   5.506   1.845   1.995
12341TIP3    H236967   5.451   1.867   2.135
12342TIP3   OH236968   3.410   5.794   2.745
12342TIP3    H136969   3.413   5.710   2.789
12342TIP3    H236970   3.358   5.850   2.803
12343TIP3   OH236971   1.778   4.116   2.725
12343TIP3    H136972   1.827   4.038   2.754
12343TIP3    H236973   1.724   4.084   2.653
12344TIP3   OH236974   0.521   4.958   6.740
12344TIP3    H136975   0.442   4.994   6.698
12344TIP3    H236976   0.557   4.898   6.675
12345TIP3   OH236977   2.599   3.763   3.928
12345TIP3    H136978   2.680   3.813   3.940
12345TIP3    H236979   2.544   3.789   4.002
12346TIP3   OH236980   6.707   3.695   3.103
12346TIP3    H136981   6.687   3.606   3.073
12346TIP3    H236982   6.646   3.750   3.054
12347TIP3   OH236983   2.689   5.332   0.098
12347TIP3    H136984   2.694   5.348   0.004
12347TIP3    H236985   2.628   5.259   0.108
12348TIP3   OH236986   6.353   7.229   1.343
12348TIP3    H136987   6.271   7.189   1.371
12348TIP3    H236988   6.356   7.214   1.249
12349TIP3   OH236989   3.564   0.899   0.195
12349TIP3    H136990   3.488   0.944   0.232
12349TIP3    H236991   3.551   0.807   0.220
12350TIP3   OH236992   6.974   2.281   6.639
12350TIP3    H136993   6.976   2.356   6.580
12350TIP3    H236994   7.064   2.272   6.671
12351TIP3   OH236995   1.886   0.560   4.389
12351TIP3    H136996   1.973   0.584   4.356
12351TIP3    H236997   1.871   0.473   4.353
12352TIP3   OH236998   6.900   4.371   4.200
12352TIP3    H136999   6.943   4.377   4.115
12352TIP3    H237000   6.972   4.381   4.263
12353TIP3   OH237001   5.380   5.664   1.854
12353TIP3    H137002   5.348   5.575   1.846
12353TIP3    H237003   5.364   5.703   1.768
12354TIP3   OH237004   5.274   3.469   1.775
12354TIP3    H137005   5.184   3.485   1.801
12354TIP3    H237006   5.268   3.440   1.684
12355TIP3   OH237007   1.243   7.364   3.204
12355TIP3    H137008   1.319   7.422   3.196
12355TIP3    H237009   1.223   7.338   3.114
12356TIP3   OH237010   0.164   0.400   5.182
12356TIP3    H137011   0.165   0.483   5.135
12356TIP3    H237012   0.089   0.353   5.146
12357TIP3   OH237013   4.038   4.345   5.368
12357TIP3    H137014   4.073   4.317   5.284
12357TIP3    H237015   3.978   4.416   5.347
12358TIP3   OH237016   5.335   2.516   4.604
12358TIP3    H137017   5.260   2.501   4.662
12358TIP3    H237018   5.399   2.561   4.660
12359TIP3   OH237019   1.314   6.649   2.685
12359TIP3    H137020   1.373   6.721   2.709
12359TIP3    H237021   1.370   6.572   2.681
12360TIP3   OH237022   3.124   6.087   4.391
12360TIP3    H137023   3.183   6.127   4.455
12360TIP3    H237024   3.036   6.108   4.423
12361TIP3   OH237025   4.442   2.319   6.317
12361TIP3    H137026   4.439   2.325   6.221
12361TIP3    H237027   4.414   2.406   6.346
12362TIP3   OH237028   6.014   5.536   2.127
12362TIP3    H137029   6.021   5.602   2.196
12362TIP3    H237030   5.998   5.454   2.174
12363TIP3   OH237031   5.730   4.596   3.571
12363TIP3    H137032   5.811   4.647   3.581
12363TIP3    H237033   5.759   4.515   3.528
12364TIP3   OH237034   3.372   5.970   0.227
12364TIP3    H137035   3.324   5.959   0.144
12364TIP3    H237036   3.463   5.947   0.205
12365TIP3   OH237037   1.357   4.196   5.756
12365TIP3    H137038   1.353   4.230   5.666
12365TIP3    H237039   1.357   4.101   5.746
12366TIP3   OH237040   7.380   5.730   3.158
12366TIP3    H137041   7.379   5.654   3.215
12366TIP3    H237042   7.457   5.718   3.103
12367TIP3   OH237043   8.019   4.415   4.725
12367TIP3    H137044   8.111   4.422   4.699
12367TIP3    H237045   8.022   4.407   4.821
12368TIP3   OH237046   4.580   4.528   3.029
12368TIP3    H137047   4.658   4.482   2.998
12368TIP3    H237048   4.516   4.459   3.045
12369TIP3   OH237049   7.612   5.785   5.079
12369TIP3    H137050   7.701   5.789   5.114
12369TIP3    H237051   7.606   5.860   5.020
12370TIP3   OH237052   1.576   1.397   5.543
12370TIP3    H137053   1.497   1.412   5.596
12370TIP3    H237054   1.648   1.422   5.600
12371TIP3   OH237055   0.047   7.540   5.573
12371TIP3    H137056   0.129   7.523   5.620
12371TIP3    H237057   0.062   7.504   5.486
12372TIP3   OH237058   3.216   6.039   5.834
12372TIP3    H137059   3.136   6.027   5.885
12372TIP3    H237060   3.286   6.030   5.897
12373TIP3   OH237061   6.872   6.780   5.054
12373TIP3    H137062   6.905   6.689   5.051
12373TIP3    H237063   6.813   6.781   5.129
12374TIP3   OH237064   4.840   6.510   3.626
12374TIP3    H137065   4.826   6.594   3.670
12374TIP3    H237066   4.886   6.456   3.691
12375TIP3   OH237067   5.341   2.600   4.120
12375TIP3    H137068   5.368   2.542   4.191
12375TIP3    H237069   5.362   2.688   4.151
12376TIP3   OH237070   1.107   2.817   0.137
12376TIP3    H137071   1.149   2.739   0.172
12376TIP3    H237072   1.025   2.824   0.186
12377TIP3   OH237073   6.576   6.250   5.130
12377TIP3    H137074   6.566   6.296   5.213
12377TIP3    H237075   6.498   6.195   5.123
12378TIP3   OH237076   7.039   2.102   4.776
12378TIP3    H137077   7.045   2.188   4.734
12378TIP3    H237078   6.944   2.087   4.784
12379TIP3   OH237079   1.042   7.024   6.135
12379TIP3    H137080   0.953   6.996   6.113
12379TIP3    H237081   1.089   6.942   6.154
12380TIP3   OH237082   2.368   5.582   5.130
12380TIP3    H137083   2.370   5.502   5.078
12380TIP3    H237084   2.363   5.551   5.221
12381TIP3   OH237085   0.106   6.366   5.735
12381TIP3    H137086   0.131   6.273   5.741
12381TIP3    H237087   0.162   6.410   5.799
12382TIP3   OH237088   4.396   4.849   2.234
12382TIP3    H137089   4.353   4.789   2.295
12382TIP3    H237090   4.489   4.827   2.240
12383TIP3   OH237091   4.328   1.752   2.136
12383TIP3    H137092   4.313   1.671   2.185
12383TIP3    H237093   4.258   1.810   2.164
12384TIP3   OH237094   1.037   4.565   5.094
12384TIP3    H137095   1.077   4.520   5.168
12384TIP3    H237096   1.111   4.593   5.040
12385TIP3   OH237097   2.265   5.635   4.792
12385TIP3    H137098   2.309   5.661   4.873
12385TIP3    H237099   2.234   5.546   4.810
12386TIP3   OH237100   2.984   2.136   0.227
12386TIP3    H137101   2.987   2.169   0.137
12386TIP3    H237102   2.951   2.210   0.279
12387TIP3   OH237103   5.781   0.722   6.771
12387TIP3    H137104   5.745   0.693   6.687
12387TIP3    H237105   5.761   0.815   6.775
12388TIP3   OH237106   4.178   2.147   6.240
12388TIP3    H137107   4.224   2.144   6.324
12388TIP3    H237108   4.160   2.240   6.226
12389TIP3   OH237109   0.697   7.222   5.756
12389TIP3    H137110   0.644   7.174   5.692
12389TIP3    H237111   0.704   7.311   5.720
12390TIP3   OH237112   5.502   6.673   3.721
12390TIP3    H137113   5.572   6.711   3.774
12390TIP3    H237114   5.482   6.741   3.656
12391TIP3   OH237115   5.373   2.763   3.140
12391TIP3    H137116   5.437   2.835   3.144
12391TIP3    H237117   5.295   2.798   3.184
12392TIP3   OH237118   0.530   4.532   1.693
12392TIP3    H137119   0.547   4.626   1.684
12392TIP3    H237120   0.502   4.504   1.606
12393TIP3   OH237121   2.756   7.012   1.144
12393TIP3    H137122   2.750   7.033   1.051
12393TIP3    H237123   2.771   6.917   1.147
12394TIP3   OH237124   0.915   2.287   2.930
12394TIP3    H137125   0.830   2.277   2.887
12394TIP3    H237126   0.893   2.300   3.023
12395TIP3   OH237127   7.710   0.825   4.856
12395TIP3    H137128   7.665   0.827   4.771
12395TIP3    H237129   7.738   0.915   4.871
12396TIP3   OH237130   5.706   7.425   4.581
12396TIP3    H137131   5.618   7.447   4.551
12396TIP3    H237132   5.693   7.362   4.652
12397TIP3   OH237133   7.250   2.033   1.907
12397TIP3    H137134   7.182   2.075   1.854
12397TIP3    H237135   7.297   2.107   1.946
12398TIP3   OH237136   5.638   6.067   5.987
12398TIP3    H137137   5.635   6.162   5.977
12398TIP3    H237138   5.582   6.050   6.063
12399TIP3   OH237139   2.779   4.990   1.322
12399TIP3    H137140   2.851   5.050   1.301
12399TIP3    H237141   2.717   5.043   1.370
12400TIP3   OH237142   4.827   2.911   2.756
12400TIP3    H137143   4.838   2.949   2.843
12400TIP3    H237144   4.875   2.828   2.761
12401TIP3   OH237145   0.788   5.521   1.860
12401TIP3    H137146   0.858   5.512   1.925
12401TIP3    H237147   0.758   5.432   1.845
12402TIP3   OH237148   3.687   7.165   4.903
12402TIP3    H137149   3.764   7.213   4.932
12402TIP3    H237150   3.710   7.073   4.914
12403TIP3   OH237151   6.161   0.110   5.781
12403TIP3    H137152   6.100   0.085   5.850
12403TIP3    H237153   6.241   0.062   5.802
12404TIP3   OH237154   3.618   3.944   4.263
12404TIP3    H137155   3.602   4.034   4.235
12404TIP3    H237156   3.662   3.953   4.348
12405TIP3   OH237157   4.674   6.380   0.746
12405TIP3    H137158   4.694   6.416   0.660
12405TIP3    H237159   4.581   6.399   0.760
12406TIP3   OH237160   2.159   2.420   4.004
12406TIP3    H137161   2.089   2.461   4.055
12406TIP3    H237162   2.116   2.344   3.962
12407TIP3   OH237163   2.336   6.050   4.308
12407TIP3    H137164   2.300   5.988   4.244
12407TIP3    H237165   2.430   6.030   4.309
12408TIP3   OH237166   1.055   6.476   2.096
12408TIP3    H137167   1.078   6.558   2.053
12408TIP3    H237168   0.960   6.480   2.108
12409TIP3   OH237169   8.113   5.034   3.397
12409TIP3    H137170   8.088   5.120   3.431
12409TIP3    H237171   8.202   5.046   3.365
12410TIP3   OH237172   2.263   4.243   5.992
12410TIP3    H137173   2.221   4.303   5.931
12410TIP3    H237174   2.334   4.294   6.031
12411TIP3   OH237175   8.238   0.938   1.986
12411TIP3    H137176   8.229   1.030   2.012
12411TIP3    H237177   8.193   0.933   1.902
12412TIP3   OH237178   3.488   6.403   3.331
12412TIP3    H137179   3.582   6.390   3.336
12412TIP3    H237180   3.450   6.327   3.375
12413TIP3   OH237181   8.185   2.533   5.547
12413TIP3    H137182   8.261   2.582   5.578
12413TIP3    H237183   8.113   2.560   5.605
12414TIP3   OH237184   1.969   6.613   2.246
12414TIP3    H137185   1.963   6.647   2.157
12414TIP3    H237186   1.948   6.520   2.237
12415TIP3   OH237187   7.894   1.375   2.596
12415TIP3    H137188   7.905   1.360   2.689
12415TIP3    H237189   7.800   1.384   2.584
12416TIP3   OH237190   3.713   7.017   1.385
12416TIP3    H137191   3.661   7.093   1.358
12416TIP3    H237192   3.669   6.942   1.345
12417TIP3   OH237193   6.690   4.186   6.484
12417TIP3    H137194   6.779   4.189   6.519
12417TIP3    H237195   6.634   4.209   6.559
12418TIP3   OH237196   3.182   3.558   0.239
12418TIP3    H137197   3.183   3.505   0.319
12418TIP3    H237198   3.239   3.632   0.259
12419TIP3   OH237199   4.675   4.335   6.342
12419TIP3    H137200   4.581   4.353   6.350
12419TIP3    H237201   4.712   4.356   6.428
12420TIP3   OH237202   1.011   5.798   4.980
12420TIP3    H137203   1.102   5.820   4.962
12420TIP3    H237204   0.998   5.821   5.072
12421TIP3   OH237205   6.635   5.816   4.584
12421TIP3    H137206   6.652   5.876   4.511
12421TIP3    H237207   6.707   5.833   4.645
12422TIP3   OH237208   4.640   6.927   3.574
12422TIP3    H137209   4.582   6.983   3.626
12422TIP3    H237210   4.585   6.851   3.552
12423TIP3   OH237211   0.817   5.141   4.853
12423TIP3    H137212   0.860   5.064   4.891
12423TIP3    H237213   0.727   5.136   4.884
12424TIP3   OH237214   3.135   7.041   3.412
12424TIP3    H137215   3.164   7.121   3.367
12424TIP3    H237216   3.148   7.060   3.505
12425TIP3   OH237217   6.786   7.813   5.532
12425TIP3    H137218   6.863   7.796   5.585
12425TIP3    H237219   6.802   7.764   5.451
12426TIP3   OH237220   2.784   1.014   5.819
12426TIP3    H137221   2.734   1.022   5.900
12426TIP3    H237222   2.865   0.970   5.845
12427TIP3   OH237223   4.080   0.478   2.852
12427TIP3    H137224   4.039   0.515   2.773
12427TIP3    H237225   4.104   0.554   2.905
12428TIP3   OH237226   2.502   5.477   4.609
12428TIP3    H137227   2.457   5.462   4.692
12428TIP3    H237228   2.578   5.530   4.632
12429TIP3   OH237229   5.430   6.140   6.506
12429TIP3    H137230   5.334   6.142   6.506
12429TIP3    H237231   5.452   6.047   6.504
12430TIP3   OH237232   1.839   5.535   5.471
12430TIP3    H137233   1.771   5.602   5.462
12430TIP3    H237234   1.840   5.490   5.387
12431TIP3   OH237235   6.292   3.827   5.320
12431TIP3    H137236   6.352   3.787   5.382
12431TIP3    H237237   6.348   3.857   5.248
12432TIP3   OH237238   3.884   4.900   1.953
12432TIP3    H137239   3.870   4.979   1.902
12432TIP3    H237240   3.799   4.855   1.950
12433TIP3   OH237241   5.223   3.690   2.402
12433TIP3    H137242   5.147   3.701   2.344
12433TIP3    H237243   5.195   3.624   2.466
12434TIP3   OH237244   2.946   2.678   1.440
12434TIP3    H137245   2.887   2.662   1.514
12434TIP3    H237246   2.907   2.629   1.367
12435TIP3   OH237247   4.940   1.384   3.252
12435TIP3    H137248   4.866   1.324   3.258
12435TIP3    H237249   4.995   1.347   3.184
12436TIP3   OH237250   3.982   1.255   3.122
12436TIP3    H137251   3.932   1.295   3.051
12436TIP3    H237252   4.073   1.258   3.092
12437TIP3   OH237253   3.449   4.211   3.964
12437TIP3    H137254   3.372   4.155   3.974
12437TIP3    H237255   3.414   4.295   3.935
12438TIP3   OH237256   4.728   2.119   3.412
12438TIP3    H137257   4.651   2.173   3.393
12438TIP3    H237258   4.791   2.179   3.450
12439TIP3   OH237259   7.300   3.242   3.939
12439TIP3    H137260   7.303   3.197   4.024
12439TIP3    H237261   7.378   3.298   3.939
12440TIP3   OH237262   3.826   6.625   4.630
12440TIP3    H137263   3.843   6.718   4.641
12440TIP3    H237264   3.868   6.583   4.706
12441TIP3   OH237265   3.866   2.064   4.291
12441TIP3    H137266   3.961   2.076   4.287
12441TIP3    H237267   3.846   2.061   4.385
12442TIP3   OH237268   4.365   6.211   3.990
12442TIP3    H137269   4.428   6.178   3.926
12442TIP3    H237270   4.283   6.165   3.969
12443TIP3   OH237271   2.047   3.149   0.677
12443TIP3    H137272   2.091   3.071   0.709
12443TIP3    H237273   2.095   3.175   0.599
12444TIP3   OH237274   4.012   5.471   0.278
12444TIP3    H137275   3.919   5.459   0.260
12444TIP3    H237276   4.045   5.522   0.204
12445TIP3   OH237277   2.265   3.986   0.933
12445TIP3    H137278   2.353   3.951   0.941
12445TIP3    H237279   2.255   4.044   1.009
12446TIP3   OH237280   3.326   1.956   5.312
12446TIP3    H137281   3.308   1.865   5.334
12446TIP3    H237282   3.264   1.977   5.242
12447TIP3   OH237283   6.190   0.480   2.762
12447TIP3    H137284   6.201   0.434   2.678
12447TIP3    H237285   6.097   0.502   2.765
12448TIP3   OH237286   0.572   6.100   1.215
12448TIP3    H137287   0.551   6.007   1.208
12448TIP3    H237288   0.537   6.139   1.135
12449TIP3   OH237289   0.442   6.515   1.420
12449TIP3    H137290   0.513   6.473   1.371
12449TIP3    H237291   0.485   6.582   1.473
12450TIP3   OH237292   4.987   3.640   6.161
12450TIP3    H137293   5.059   3.656   6.099
12450TIP3    H237294   4.979   3.723   6.209
12451TIP3   OH237295   7.504   7.791   6.315
12451TIP3    H137296   7.557   7.869   6.298
12451TIP3    H237297   7.535   7.727   6.251
12452TIP3   OH237298   0.178   0.711   3.659
12452TIP3    H137299   0.143   0.642   3.716
12452TIP3    H237300   0.270   0.718   3.685
12453TIP3   OH237301   7.378   6.396   4.792
12453TIP3    H137302   7.324   6.364   4.865
12453TIP3    H237303   7.401   6.317   4.743
12454TIP3   OH237304   8.249   3.430   5.310
12454TIP3    H137305   8.343   3.434   5.298
12454TIP3    H237306   8.212   3.435   5.222
12455TIP3   OH237307   4.545   3.313   0.238
12455TIP3    H137308   4.570   3.225   0.210
12455TIP3    H237309   4.560   3.313   0.333
12456TIP3   OH237310   2.344   0.473   6.432
12456TIP3    H137311   2.252   0.450   6.437
12456TIP3    H237312   2.390   0.398   6.470
12457TIP3   OH237313   6.893   3.326   5.358
12457TIP3    H137314   6.924   3.310   5.447
12457TIP3    H237315   6.857   3.241   5.330
12458TIP3   OH237316   3.420   4.156   4.430
12458TIP3    H137317   3.448   4.198   4.348
12458TIP3    H237318   3.425   4.063   4.412
12459TIP3   OH237319   3.571   0.715   1.628
12459TIP3    H137320   3.496   0.677   1.582
12459TIP3    H237321   3.583   0.801   1.586
12460TIP3   OH237322   3.183   2.595   1.165
12460TIP3    H137323   3.120   2.574   1.096
12460TIP3    H237324   3.165   2.686   1.186
12461TIP3   OH237325   7.608   0.179   3.738
12461TIP3    H137326   7.616   0.219   3.651
12461TIP3    H237327   7.580   0.089   3.720
12462TIP3   OH237328   1.520   5.936   0.347
12462TIP3    H137329   1.428   5.912   0.349
12462TIP3    H237330   1.549   5.918   0.258
12463TIP3   OH237331   3.940   7.197   6.257
12463TIP3    H137332   3.885   7.191   6.179
12463TIP3    H237333   3.966   7.107   6.275
12464TIP3   OH237334   5.929   3.379   3.165
12464TIP3    H137335   5.978   3.325   3.227
12464TIP3    H237336   5.992   3.445   3.136
12465TIP3   OH237337   5.115   0.773   3.773
12465TIP3    H137338   5.153   0.819   3.848
12465TIP3    H237339   5.093   0.686   3.807
12466TIP3   OH237340   2.026   7.680   1.504
12466TIP3    H137341   1.999   7.727   1.582
12466TIP3    H237342   1.967   7.711   1.435
12467TIP3   OH237343   7.550   4.553   4.530
12467TIP3    H137344   7.495   4.488   4.573
12467TIP3    H237345   7.636   4.544   4.571
12468TIP3   OH237346   3.356   6.774   2.478
12468TIP3    H137347   3.375   6.718   2.553
12468TIP3    H237348   3.442   6.805   2.449
12469TIP3   OH237349   0.093   6.331   4.609
12469TIP3    H137350   0.178   6.286   4.604
12469TIP3    H237351   0.115   6.423   4.596
12470TIP3   OH237352   4.234   7.552   2.725
12470TIP3    H137353   4.144   7.520   2.719
12470TIP3    H237354   4.255   7.548   2.818
12471TIP3   OH237355   2.294   0.093   0.997
12471TIP3    H137356   2.386   0.071   0.983
12471TIP3    H237357   2.296   0.161   1.065
12472TIP3   OH237358   4.387   4.388   6.042
12472TIP3    H137359   4.325   4.372   6.113
12472TIP3    H237360   4.334   4.428   5.973
12473TIP3   OH237361   1.499   2.909   5.073
12473TIP3    H137362   1.565   2.913   5.004
12473TIP3    H237363   1.419   2.941   5.032
12474TIP3   OH237364   2.783   1.950   1.511
12474TIP3    H137365   2.817   1.992   1.590
12474TIP3    H237366   2.843   1.977   1.441
12475TIP3   OH237367   5.931   6.791   2.169
12475TIP3    H137368   5.849   6.840   2.160
12475TIP3    H237369   5.905   6.700   2.162
12476TIP3   OH237370   0.360   6.990   5.601
12476TIP3    H137371   0.425   7.048   5.561
12476TIP3    H237372   0.276   7.032   5.583
12477TIP3   OH237373   2.577   6.972   3.281
12477TIP3    H137374   2.550   7.030   3.352
12477TIP3    H237375   2.661   7.008   3.252
12478TIP3   OH237376   1.710   2.272   3.270
12478TIP3    H137377   1.769   2.208   3.228
12478TIP3    H237378   1.665   2.314   3.197
12479TIP3   OH237379   4.392   6.514   0.957
12479TIP3    H137380   4.382   6.474   0.871
12479TIP3    H237381   4.375   6.607   0.942
12480TIP3   OH237382   1.182   5.838   0.037
12480TIP3    H137383   1.240   5.811  -0.034
12480TIP3    H237384   1.120   5.766   0.048
12481TIP3   OH237385   5.940   3.174   4.969
12481TIP3    H137386   5.907   3.190   4.881
12481TIP3    H237387   5.900   3.242   5.023
12482TIP3   OH237388   7.972   2.675   4.422
12482TIP3    H137389   7.925   2.606   4.374
12482TIP3    H237390   7.903   2.722   4.469
12483TIP3   OH237391   3.190   1.697   6.669
12483TIP3    H137392   3.118   1.707   6.606
12483TIP3    H237393   3.173   1.613   6.712
12484TIP3   OH237394   4.224   3.250   1.164
12484TIP3    H137395   4.295   3.289   1.113
12484TIP3    H237396   4.269   3.196   1.230
12485TIP3   OH237397   1.883   4.746   1.178
12485TIP3    H137398   1.895   4.817   1.114
12485TIP3    H237399   1.972   4.714   1.195
12486TIP3   OH237400   4.891   1.363   1.552
12486TIP3    H137401   4.838   1.283   1.559
12486TIP3    H237402   4.833   1.426   1.510
12487TIP3   OH237403   5.354   3.685   6.748
12487TIP3    H137404   5.330   3.607   6.698
12487TIP3    H237405   5.270   3.720   6.779
12488TIP3   OH237406   3.612   7.000   6.477
12488TIP3    H137407   3.591   6.977   6.387
12488TIP3    H237408   3.584   7.091   6.486
12489TIP3   OH237409   5.522   3.840   5.339
12489TIP3    H137410   5.580   3.814   5.267
12489TIP3    H237411   5.525   3.936   5.339
12490TIP3   OH237412   7.666   6.125   4.430
12490TIP3    H137413   7.751   6.167   4.442
12490TIP3    H237414   7.654   6.122   4.335
12491TIP3   OH237415   7.805   5.477   1.943
12491TIP3    H137416   7.860   5.507   1.871
12491TIP3    H237417   7.716   5.483   1.909
12492TIP3   OH237418   2.737   1.703   1.031
12492TIP3    H137419   2.760   1.623   1.080
12492TIP3    H237420   2.658   1.735   1.073
12493TIP3   OH237421   4.869   4.872   6.602
12493TIP3    H137422   4.957   4.872   6.564
12493TIP3    H237423   4.824   4.945   6.559
12494TIP3   OH237424   7.052   2.990   2.405
12494TIP3    H137425   7.048   2.936   2.327
12494TIP3    H237426   7.006   3.070   2.381
12495TIP3   OH237427   2.296   3.631   1.530
12495TIP3    H137428   2.373   3.627   1.587
12495TIP3    H237429   2.223   3.645   1.591
12496TIP3   OH237430   0.133   3.229   4.575
12496TIP3    H137431   0.190   3.297   4.610
12496TIP3    H237432   0.046   3.267   4.577
12497TIP3   OH237433   4.204   5.994   4.893
12497TIP3    H137434   4.290   5.951   4.887
12497TIP3    H237435   4.188   6.027   4.804
12498TIP3   OH237436   3.533   4.123   1.786
12498TIP3    H137437   3.536   4.215   1.758
12498TIP3    H237438   3.623   4.092   1.776
12499TIP3   OH237439   0.337   6.543   4.111
12499TIP3    H137440   0.431   6.543   4.126
12499TIP3    H237441   0.316   6.453   4.084
12500TIP3   OH237442   3.505   3.448   2.465
12500TIP3    H137443   3.512   3.434   2.560
12500TIP3    H237444   3.411   3.458   2.449
12501TIP3   OH237445   6.707   0.235   5.309
12501TIP3    H137446   6.652   0.295   5.259
12501TIP3    H237447   6.682   0.250   5.400
12502TIP3   OH237448   6.558   6.577   5.256
12502TIP3    H137449   6.639   6.623   5.279
12502TIP3    H237450   6.565   6.492   5.300
12503TIP3   OH237451   1.093   7.448   1.275
12503TIP3    H137452   1.142   7.487   1.347
12503TIP3    H237453   1.031   7.516   1.250
12504TIP3   OH237454   6.249   3.849   2.957
12504TIP3    H137455   6.244   3.917   3.025
12504TIP3    H237456   6.219   3.893   2.878
12505TIP3   OH237457   1.449   6.321   4.289
12505TIP3    H137458   1.355   6.309   4.272
12505TIP3    H237459   1.476   6.240   4.333
12506TIP3   OH237460   6.956   1.096   0.458
12506TIP3    H137461   7.009   1.065   0.532
12506TIP3    H237462   6.953   1.191   0.469
12507TIP3   OH237463   3.052   4.043   0.102
12507TIP3    H137464   3.078   4.014   0.015
12507TIP3    H237465   3.127   4.022   0.158
12508TIP3   OH237466   1.732   6.919   6.035
12508TIP3    H137467   1.825   6.938   6.037
12508TIP3    H237468   1.726   6.824   6.040
12509TIP3   OH237469   5.609   1.330   5.403
12509TIP3    H137470   5.595   1.341   5.497
12509TIP3    H237471   5.567   1.405   5.362
12510TIP3   OH237472   2.096   0.919   1.339
12510TIP3    H137473   2.125   0.839   1.297
12510TIP3    H237474   2.121   0.909   1.431
12511TIP3   OH237475   5.033   6.647   2.942
12511TIP3    H137476   4.944   6.679   2.956
12511TIP3    H237477   5.078   6.718   2.897
12512TIP3   OH237478   4.604   2.662   6.433
12512TIP3    H137479   4.524   2.620   6.462
12512TIP3    H237480   4.642   2.700   6.512
12513TIP3   OH237481   0.983   4.295   3.130
12513TIP3    H137482   0.939   4.260   3.053
12513TIP3    H237483   0.913   4.341   3.177
12514TIP3   OH237484   3.515   4.446   2.547
12514TIP3    H137485   3.601   4.404   2.552
12514TIP3    H237486   3.534   4.536   2.520
12515TIP3   OH237487   0.357   7.318   6.381
12515TIP3    H137488   0.335   7.226   6.395
12515TIP3    H237489   0.446   7.316   6.345
12516TIP3   OH237490   1.822   3.940   6.272
12516TIP3    H137491   1.804   3.869   6.211
12516TIP3    H237492   1.763   4.011   6.244
12517TIP3   OH237493   7.124   6.353   2.879
12517TIP3    H137494   7.208   6.349   2.923
12517TIP3    H237495   7.094   6.262   2.877
12518TIP3   OH237496   2.955   3.202   2.937
12518TIP3    H137497   2.961   3.110   2.910
12518TIP3    H237498   3.045   3.227   2.958
12519TIP3   OH237499   6.311   1.274   2.514
12519TIP3    H137500   6.383   1.303   2.458
12519TIP3    H237501   6.254   1.351   2.522
12520TIP3   OH237502   4.795   2.911   2.164
12520TIP3    H137503   4.778   2.839   2.223
12520TIP3    H237504   4.865   2.879   2.106
12521TIP3   OH237505   0.030   4.883   6.640
12521TIP3    H137506   0.087   4.958   6.625
12521TIP3    H237507  -0.058   4.916   6.620
12522TIP3   OH237508   1.078   4.409   3.436
12522TIP3    H137509   1.046   4.322   3.461
12522TIP3    H237510   1.115   4.397   3.349
12523TIP3   OH237511   5.378   0.503   0.938
12523TIP3    H137512   5.402   0.593   0.914
12523TIP3    H237513   5.457   0.452   0.920
12524TIP3   OH237514   2.116   6.759   0.997
12524TIP3    H137515   2.075   6.762   1.084
12524TIP3    H237516   2.059   6.703   0.945
12525TIP3   OH237517   1.306   1.887   3.584
12525TIP3    H137518   1.256   1.906   3.505
12525TIP3    H237519   1.248   1.832   3.637
12526TIP3   OH237520   2.744   0.902   4.126
12526TIP3    H137521   2.726   0.959   4.201
12526TIP3    H237522   2.681   0.929   4.059
12527TIP3   OH237523   0.085   4.620   6.535
12527TIP3    H137524   0.067   4.711   6.557
12527TIP3    H237525   0.006   4.590   6.490
12528TIP3   OH237526   1.214   6.339   5.269
12528TIP3    H137527   1.272   6.364   5.197
12528TIP3    H237528   1.250   6.257   5.301
12529TIP3   OH237529   1.207   5.710   6.215
12529TIP3    H137530   1.220   5.797   6.177
12529TIP3    H237531   1.291   5.665   6.202
12530TIP3   OH237532   3.568   0.718   4.607
12530TIP3    H137533   3.520   0.700   4.527
12530TIP3    H237534   3.586   0.812   4.604
12531TIP3   OH237535   2.239   4.815   3.793
12531TIP3    H137536   2.192   4.736   3.765
12531TIP3    H237537   2.181   4.856   3.857
12532TIP3   OH237538   6.885   2.246   1.330
12532TIP3    H137539   6.891   2.187   1.406
12532TIP3    H237540   6.952   2.213   1.270
12533TIP3   OH237541   0.877   6.138   2.300
12533TIP3    H137542   0.848   6.046   2.300
12533TIP3    H237543   0.952   6.140   2.360
12534TIP3   OH237544   6.980   5.527   5.288
12534TIP3    H137545   7.041   5.600   5.288
12534TIP3    H237546   6.910   5.554   5.228
12535TIP3   OH237547   5.841   4.654   2.185
12535TIP3    H137548   5.934   4.664   2.164
12535TIP3    H237549   5.815   4.575   2.137
12536TIP3   OH237550   2.298   1.960   1.862
12536TIP3    H137551   2.320   1.998   1.947
12536TIP3    H237552   2.222   1.905   1.879
12537TIP3   OH237553   2.600   2.903   2.600
12537TIP3    H137554   2.555   2.863   2.675
12537TIP3    H237555   2.538   2.896   2.529
12538TIP3   OH237556   1.333   4.679   1.861
12538TIP3    H137557   1.354   4.771   1.842
12538TIP3    H237558   1.259   4.685   1.922
12539TIP3   OH237559   7.669   7.319   2.709
12539TIP3    H137560   7.672   7.235   2.753
12539TIP3    H237561   7.640   7.381   2.776
12540TIP3   OH237562   8.171   2.998   5.350
12540TIP3    H137563   8.129   3.048   5.281
12540TIP3    H237564   8.241   3.055   5.383
12541TIP3   OH237565   6.729   7.549   1.496
12541TIP3    H137566   6.697   7.459   1.500
12541TIP3    H237567   6.687   7.585   1.417
12542TIP3   OH237568   4.143   4.896   5.013
12542TIP3    H137569   4.196   4.900   4.933
12542TIP3    H237570   4.145   4.985   5.047
12543TIP3   OH237571   2.390   4.827   1.200
12543TIP3    H137572   2.435   4.906   1.170
12543TIP3    H237573   2.453   4.756   1.185
12544TIP3   OH237574   8.069   0.984   4.963
12544TIP3    H137575   8.060   1.065   5.013
12544TIP3    H237576   8.164   0.974   4.949
12545TIP3   OH237577   1.676   0.639   3.625
12545TIP3    H137578   1.616   0.566   3.611
12545TIP3    H237579   1.620   0.714   3.641
12546TIP3   OH237580   5.035   4.221   6.560
12546TIP3    H137581   4.943   4.250   6.560
12546TIP3    H237582   5.031   4.129   6.588
12547TIP3   OH237583   1.896   3.870   3.467
12547TIP3    H137584   1.890   3.794   3.525
12547TIP3    H237585   1.990   3.888   3.462
12548TIP3   OH237586   6.517   4.002   4.934
12548TIP3    H137587   6.552   3.979   4.848
12548TIP3    H237588   6.471   3.923   4.963
12549TIP3   OH237589   7.690   1.339   4.107
12549TIP3    H137590   7.663   1.263   4.055
12549TIP3    H237591   7.609   1.369   4.148
12550TIP3   OH237592   4.560   2.008   1.081
12550TIP3    H137593   4.607   1.968   1.007
12550TIP3    H237594   4.582   1.952   1.156
12551TIP3   OH237595   2.535   3.048   1.101
12551TIP3    H137596   2.516   3.118   1.164
12551TIP3    H237597   2.499   2.969   1.143
12552TIP3   OH237598   2.771   5.240   1.132
12552TIP3    H137599   2.812   5.199   1.055
12552TIP3    H237600   2.710   5.304   1.095
12553TIP3   OH237601   4.819   4.387   1.441
12553TIP3    H137602   4.904   4.352   1.466
12553TIP3    H237603   4.763   4.310   1.428
12554TIP3   OH237604   4.658   4.244   5.748
12554TIP3    H137605   4.643   4.248   5.842
12554TIP3    H237606   4.709   4.164   5.735
12555TIP3   OH237607   2.381   0.797   3.317
12555TIP3    H137608   2.475   0.807   3.299
12555TIP3    H237609   2.368   0.702   3.319
12556TIP3   OH237610   2.622   0.396   1.218
12556TIP3    H137611   2.665   0.322   1.176
12556TIP3    H237612   2.599   0.365   1.306
12557TIP3   OH237613   2.916   2.938   5.533
12557TIP3    H137614   2.846   2.873   5.537
12557TIP3    H237615   2.899   2.996   5.607
12558TIP3   OH237616   0.111   7.458   4.464
12558TIP3    H137617   0.199   7.445   4.431
12558TIP3    H237618   0.120   7.453   4.559
12559TIP3   OH237619   4.784   4.365   6.616
12559TIP3    H137620   4.717   4.349   6.683
12559TIP3    H237621   4.805   4.458   6.625
12560TIP3   OH237622   6.624   1.378   2.061
12560TIP3    H137623   6.554   1.399   1.999
12560TIP3    H237624   6.656   1.292   2.032
12561TIP3   OH237625   3.849   1.832   6.275
12561TIP3    H137626   3.787   1.857   6.206
12561TIP3    H237627   3.876   1.914   6.315
12562TIP3   OH237628   7.682   5.778   1.341
12562TIP3    H137629   7.777   5.772   1.348
12562TIP3    H237630   7.661   5.866   1.375
12563TIP3   OH237631   5.386   0.485   0.581
12563TIP3    H137632   5.455   0.420   0.584
12563TIP3    H237633   5.411   0.550   0.647
12564TIP3   OH237634   0.070   5.899   2.908
12564TIP3    H137635  -0.009   5.891   2.854
12564TIP3    H237636   0.135   5.845   2.863
12565TIP3   OH237637   3.430   6.479   1.259
12565TIP3    H137638   3.445   6.406   1.320
12565TIP3    H237639   3.337   6.472   1.236
12566TIP3   OH237640   7.864   4.659   0.662
12566TIP3    H137641   7.869   4.569   0.630
12566TIP3    H237642   7.872   4.713   0.583
12567TIP3   OH237643   6.490   0.160   6.764
12567TIP3    H137644   6.504   0.109   6.684
12567TIP3    H237645   6.557   0.228   6.762
12568TIP3   OH237646   7.487   0.799   5.026
12568TIP3    H137647   7.416   0.784   4.964
12568TIP3    H237648   7.566   0.802   4.972
12569TIP3   OH237649   5.830   4.385   0.691
12569TIP3    H137650   5.745   4.382   0.647
12569TIP3    H237651   5.822   4.321   0.762
12570TIP3   OH237652   7.425   5.393   6.056
12570TIP3    H137653   7.462   5.358   6.137
12570TIP3    H237654   7.440   5.487   6.061
12571TIP3   OH237655   7.621   5.425   1.749
12571TIP3    H137656   7.567   5.419   1.670
12571TIP3    H237657   7.629   5.335   1.779
12572TIP3   OH237658   7.023   6.180   4.909
12572TIP3    H137659   6.960   6.200   4.979
12572TIP3    H237660   7.088   6.124   4.951
12573TIP3   OH237661   0.043   0.948   4.865
12573TIP3    H137662   0.122   0.958   4.918
12573TIP3    H237663   0.076   0.937   4.776
12574TIP3   OH237664   2.154   3.420   0.549
12574TIP3    H137665   2.100   3.369   0.609
12574TIP3    H237666   2.112   3.409   0.464
12575TIP3   OH237667   5.033   6.425   4.155
12575TIP3    H137668   4.945   6.391   4.170
12575TIP3    H237669   5.081   6.402   4.234
12576TIP3   OH237670   6.094   5.797   4.703
12576TIP3    H137671   6.168   5.735   4.701
12576TIP3    H237672   6.086   5.827   4.612
12577TIP3   OH237673   7.427   2.846   0.602
12577TIP3    H137674   7.411   2.889   0.685
12577TIP3    H237675   7.355   2.784   0.592
12578TIP3   OH237676   4.061   7.803   3.852
12578TIP3    H137677   4.134   7.746   3.830
12578TIP3    H237678   4.005   7.801   3.775
12579TIP3   OH237679   1.762   4.297   5.797
12579TIP3    H137680   1.835   4.236   5.806
12579TIP3    H237681   1.707   4.280   5.873
12580TIP3   OH237682   1.947   4.898   5.897
12580TIP3    H137683   1.891   4.915   5.821
12580TIP3    H237684   1.935   4.805   5.916
12581TIP3   OH237685   1.502   3.384   0.914
12581TIP3    H137686   1.451   3.308   0.885
12581TIP3    H237687   1.460   3.411   0.995
12582TIP3   OH237688   4.029   4.513   0.910
12582TIP3    H137689   3.998   4.550   0.993
12582TIP3    H237690   4.108   4.465   0.934
12583TIP3   OH237691   5.729   6.714   6.470
12583TIP3    H137692   5.675   6.744   6.544
12583TIP3    H237693   5.819   6.724   6.501
12584TIP3   OH237694   1.849   7.713   1.289
12584TIP3    H137695   1.830   7.785   1.229
12584TIP3    H237696   1.801   7.639   1.252
12585TIP3   OH237697   1.226   3.863   5.971
12585TIP3    H137698   1.316   3.857   6.003
12585TIP3    H237699   1.176   3.804   6.028
12586TIP3   OH237700   3.048   2.421   4.066
12586TIP3    H137701   3.120   2.409   4.004
12586TIP3    H237702   3.048   2.341   4.118
12587TIP3   OH237703   4.740   6.754   5.424
12587TIP3    H137704   4.742   6.772   5.330
12587TIP3    H237705   4.657   6.791   5.454
12588TIP3   OH237706   0.383   2.005   0.761
12588TIP3    H137707   0.438   1.938   0.802
12588TIP3    H237708   0.352   1.964   0.681
12589TIP3   OH237709   5.152   3.537   4.828
12589TIP3    H137710   5.080   3.598   4.812
12589TIP3    H237711   5.110   3.458   4.861
12590TIP3   OH237712   6.707   4.887   2.273
12590TIP3    H137713   6.633   4.876   2.213
12590TIP3    H237714   6.670   4.875   2.360
12591TIP3   OH237715   4.791   2.953   4.873
12591TIP3    H137716   4.763   2.927   4.961
12591TIP3    H237717   4.723   3.014   4.843
12592TIP3   OH237718   5.706   3.549   3.257
12592TIP3    H137719   5.771   3.482   3.237
12592TIP3    H237720   5.622   3.504   3.248
12593TIP3   OH237721   2.511   0.156   3.926
12593TIP3    H137722   2.597   0.182   3.894
12593TIP3    H237723   2.529   0.108   4.006
12594TIP3   OH237724   4.472   1.176   6.354
12594TIP3    H137725   4.404   1.108   6.348
12594TIP3    H237726   4.427   1.252   6.391
12595TIP3   OH237727   5.914   1.272   0.691
12595TIP3    H137728   5.863   1.193   0.674
12595TIP3    H237729   5.919   1.317   0.607
12596TIP3   OH237730   5.691   1.107   4.196
12596TIP3    H137731   5.755   1.137   4.132
12596TIP3    H237732   5.654   1.187   4.233
12597TIP3   OH237733   5.523   1.273   3.507
12597TIP3    H137734   5.582   1.349   3.508
12597TIP3    H237735   5.491   1.266   3.597
12598TIP3   OH237736   3.389   1.154   1.161
12598TIP3    H137737   3.472   1.148   1.209
12598TIP3    H237738   3.392   1.080   1.100
12599TIP3   OH237739   5.561   4.140   5.777
12599TIP3    H137740   5.510   4.188   5.843
12599TIP3    H237741   5.649   4.137   5.814
12600TIP3   OH237742   2.717   5.705   4.622
12600TIP3    H137743   2.651   5.726   4.688
12600TIP3    H237744   2.689   5.753   4.544
12601TIP3   OH237745   5.474   3.061   5.000
12601TIP3    H137746   5.526   3.095   5.074
12601TIP3    H237747   5.478   2.966   5.010
12602TIP3   OH237748   6.869   1.275   2.626
12602TIP3    H137749   6.785   1.315   2.607
12602TIP3    H237750   6.885   1.293   2.719
12603TIP3   OH237751   3.608   5.962   6.318
12603TIP3    H137752   3.571   6.047   6.342
12603TIP3    H237753   3.597   5.908   6.396
12604TIP3   OH237754   6.889   2.645   0.524
12604TIP3    H137755   6.898   2.597   0.607
12604TIP3    H237756   6.814   2.703   0.538
12605TIP3   OH237757   5.019   7.297   4.771
12605TIP3    H137758   5.082   7.310   4.701
12605TIP3    H237759   5.065   7.325   4.850
12606TIP3   OH237760   6.618   0.433   1.209
12606TIP3    H137761   6.642   0.498   1.143
12606TIP3    H237762   6.523   0.422   1.199
12607TIP3   OH237763   2.885   0.297   6.412
12607TIP3    H137764   2.815   0.232   6.421
12607TIP3    H237765   2.888   0.315   6.318
12608TIP3   OH237766   1.774   0.498   0.682
12608TIP3    H137767   1.702   0.441   0.655
12608TIP3    H237768   1.853   0.451   0.654
12609TIP3   OH237769   0.305   5.381   3.647
12609TIP3    H137770   0.348   5.451   3.599
12609TIP3    H237771   0.212   5.394   3.629
12610TIP3   OH237772   5.054   6.715   3.564
12610TIP3    H137773   5.134   6.664   3.548
12610TIP3    H237774   4.984   6.649   3.568
12611TIP3   OH237775   4.128   6.790   2.657
12611TIP3    H137776   4.054   6.848   2.641
12611TIP3    H237777   4.184   6.800   2.580
12612TIP3   OH237778   5.677   6.193   2.188
12612TIP3    H137779   5.698   6.119   2.246
12612TIP3    H237780   5.619   6.156   2.122
12613TIP3   OH237781   5.602   6.729   5.865
12613TIP3    H137782   5.646   6.651   5.899
12613TIP3    H237783   5.510   6.717   5.891
12614TIP3   OH237784   2.728   0.086   6.515
12614TIP3    H137785   2.737   0.074   6.609
12614TIP3    H237786   2.784   0.019   6.477
12615TIP3   OH237787   1.529   4.175   0.799
12615TIP3    H137788   1.504   4.092   0.838
12615TIP3    H237789   1.574   4.222   0.869
12616TIP3   OH237790   7.284   1.280   0.356
12616TIP3    H137791   7.295   1.239   0.442
12616TIP3    H237792   7.236   1.360   0.373
12617TIP3   OH237793   4.336   1.506   2.358
12617TIP3    H137794   4.255   1.529   2.312
12617TIP3    H237795   4.325   1.542   2.446
12618TIP3   OH237796   6.236   7.682   5.103
12618TIP3    H137797   6.272   7.686   5.192
12618TIP3    H237798   6.172   7.611   5.107
12619TIP3   OH237799   0.866   1.530   4.033
12619TIP3    H137800   0.807   1.466   4.074
12619TIP3    H237801   0.919   1.563   4.106
12620TIP3   OH237802   3.930   7.432   1.243
12620TIP3    H137803   4.014   7.414   1.200
12620TIP3    H237804   3.922   7.364   1.309
12621TIP3   OH237805   1.287   3.001   0.258
12621TIP3    H137806   1.225   2.948   0.207
12621TIP3    H237807   1.346   3.039   0.192
12622TIP3   OH237808   3.961   4.229   5.790
12622TIP3    H137809   4.003   4.183   5.863
12622TIP3    H237810   4.026   4.228   5.720
12623TIP3   OH237811   4.732   4.997   5.416
12623TIP3    H137812   4.795   4.960   5.354
12623TIP3    H237813   4.647   4.968   5.384
12624TIP3   OH237814   7.160   5.450   0.103
12624TIP3    H137815   7.227   5.493   0.051
12624TIP3    H237816   7.188   5.358   0.108
12625TIP3   OH237817   7.242   2.167   0.124
12625TIP3    H137818   7.279   2.255   0.134
12625TIP3    H237819   7.187   2.156   0.202
12626TIP3   OH237820   1.271   0.278   5.528
12626TIP3    H137821   1.236   0.190   5.512
12626TIP3    H237822   1.193   0.332   5.541
12627TIP3   OH237823   7.536   1.019   1.771
12627TIP3    H137824   7.571   0.940   1.812
12627TIP3    H237825   7.441   1.010   1.777
12628TIP3   OH237826   3.196   0.858   1.251
12628TIP3    H137827   3.238   0.935   1.291
12628TIP3    H237828   3.103   0.872   1.266
12629TIP3   OH237829   7.212   5.875   5.802
12629TIP3    H137830   7.146   5.809   5.782
12629TIP3    H237831   7.283   5.858   5.739
12630TIP3   OH237832   5.490   2.687   2.205
12630TIP3    H137833   5.489   2.781   2.190
12630TIP3    H237834   5.579   2.660   2.186
12631TIP3   OH237835   6.077   4.166   4.336
12631TIP3    H137836   6.114   4.143   4.422
12631TIP3    H237837   6.006   4.227   4.357
12632TIP3   OH237838   2.696   2.347   4.064
12632TIP3    H137839   2.647   2.400   4.126
12632TIP3    H237840   2.743   2.284   4.118
12633TIP3   OH237841   1.220   1.775   0.205
12633TIP3    H137842   1.231   1.714   0.132
12633TIP3    H237843   1.167   1.846   0.169
12634TIP3   OH237844   0.202   1.861   6.670
12634TIP3    H137845   0.195   1.788   6.732
12634TIP3    H237846   0.145   1.929   6.706
12635TIP3   OH237847   4.509   7.079   4.366
12635TIP3    H137848   4.462   7.005   4.405
12635TIP3    H237849   4.524   7.139   4.438
12636TIP3   OH237850   1.809   1.982   1.102
12636TIP3    H137851   1.869   1.949   1.169
12636TIP3    H237852   1.734   2.015   1.151
12637TIP3   OH237853   6.351   1.377   0.036
12637TIP3    H137854   6.374   1.470   0.040
12637TIP3    H237855   6.435   1.331   0.030
12638TIP3   OH237856   6.893   1.175   6.729
12638TIP3    H137857   6.891   1.080   6.722
12638TIP3    H237858   6.803   1.200   6.753
12639TIP3   OH237859   2.543   7.106   2.924
12639TIP3    H137860   2.456   7.069   2.937
12639TIP3    H237861   2.551   7.174   2.990
12640TIP3   OH237862   3.388   1.050   3.016
12640TIP3    H137863   3.470   1.051   2.967
12640TIP3    H237864   3.328   0.997   2.963
12641TIP3   OH237865   3.594   3.535   0.361
12641TIP3    H137866   3.534   3.499   0.296
12641TIP3    H237867   3.660   3.466   0.373
12642TIP3   OH237868   4.778   7.311   0.617
12642TIP3    H137869   4.716   7.239   0.631
12642TIP3    H237870   4.741   7.359   0.543
12643TIP3   OH237871   1.423   2.389   5.820
12643TIP3    H137872   1.368   2.365   5.746
12643TIP3    H237873   1.472   2.310   5.841
12644TIP3   OH237874   5.632   0.805   4.967
12644TIP3    H137875   5.581   0.840   5.040
12644TIP3    H237876   5.684   0.734   5.004
12645TIP3   OH237877   7.356   4.007   6.286
12645TIP3    H137878   7.334   3.984   6.195
12645TIP3    H237879   7.422   4.075   6.278
12646TIP3   OH237880   5.750   7.133   2.546
12646TIP3    H137881   5.705   7.218   2.545
12646TIP3    H237882   5.701   7.081   2.609
12647TIP3   OH237883   5.406   7.431   3.994
12647TIP3    H137884   5.379   7.349   3.951
12647TIP3    H237885   5.474   7.404   4.055
12648TIP3   OH237886   6.759   4.190   4.843
12648TIP3    H137887   6.695   4.121   4.862
12648TIP3    H237888   6.836   4.164   4.894
12649TIP3   OH237889   1.917   7.389   5.688
12649TIP3    H137890   1.914   7.352   5.600
12649TIP3    H237891   1.826   7.384   5.719
12650TIP3   OH237892   3.188   6.203   2.789
12650TIP3    H137893   3.148   6.256   2.859
12650TIP3    H237894   3.134   6.124   2.785
12651TIP3   OH237895   7.218   1.897   5.905
12651TIP3    H137896   7.262   1.903   5.820
12651TIP3    H237897   7.151   1.831   5.892
12652TIP3   OH237898   0.341   0.678   1.675
12652TIP3    H137899   0.254   0.708   1.650
12652TIP3    H237900   0.378   0.640   1.595
12653TIP3   OH237901   3.701   3.124   6.156
12653TIP3    H137902   3.679   3.030   6.154
12653TIP3    H237903   3.796   3.126   6.146
12654TIP3   OH237904   5.641   5.566   1.772
12654TIP3    H137905   5.700   5.636   1.743
12654TIP3    H237906   5.561   5.612   1.799
12655TIP3   OH237907   6.921   5.512   5.549
12655TIP3    H137908   6.957   5.513   5.461
12655TIP3    H237909   6.857   5.440   5.548
12656TIP3   OH237910   6.624   1.909   1.607
12656TIP3    H137911   6.681   1.843   1.567
12656TIP3    H237912   6.648   1.909   1.699
12657TIP3   OH237913   4.310   7.437   6.661
12657TIP3    H137914   4.384   7.455   6.719
12657TIP3    H237915   4.235   7.478   6.705
12658TIP3   OH237916   5.644   4.197   2.776
12658TIP3    H137917   5.575   4.253   2.741
12658TIP3    H237918   5.681   4.248   2.848
12659TIP3   OH237919   4.490   7.119   5.790
12659TIP3    H137920   4.488   7.029   5.822
12659TIP3    H237921   4.423   7.121   5.722
12660TIP3   OH237922   6.128   0.364   4.417
12660TIP3    H137923   6.216   0.400   4.407
12660TIP3    H237924   6.122   0.342   4.510
12661TIP3   OH237925   1.788   7.607   2.749
12661TIP3    H137926   1.874   7.567   2.733
12661TIP3    H237927   1.806   7.701   2.751
12662TIP3   OH237928   1.425   4.514   6.216
12662TIP3    H137929   1.499   4.474   6.262
12662TIP3    H237930   1.355   4.449   6.224
12663TIP3   OH237931   7.207   4.184   4.849
12663TIP3    H137932   7.270   4.227   4.907
12663TIP3    H237933   7.123   4.195   4.892
12664TIP3   OH237934   6.412   5.101   0.864
12664TIP3    H137935   6.328   5.139   0.837
12664TIP3    H237936   6.395   5.061   0.949
12665TIP3   OH237937   2.182   0.080   2.779
12665TIP3    H137938   2.112   0.030   2.822
12665TIP3    H237939   2.155   0.171   2.788
12666TIP3   OH237940   6.641   4.251   1.176
12666TIP3    H137941   6.591   4.192   1.119
12666TIP3    H237942   6.623   4.338   1.141
12667TIP3   OH237943   7.323   1.787   1.755
12667TIP3    H137944   7.364   1.733   1.823
12667TIP3    H237945   7.324   1.876   1.792
12668TIP3   OH237946   5.340   6.697   0.697
12668TIP3    H137947   5.398   6.640   0.647
12668TIP3    H237948   5.398   6.765   0.732
12669TIP3   OH237949   2.732   2.218   4.718
12669TIP3    H137950   2.772   2.281   4.658
12669TIP3    H237951   2.795   2.210   4.790
12670TIP3   OH237952   0.151   3.482   5.686
12670TIP3    H137953   0.075   3.493   5.743
12670TIP3    H237954   0.164   3.387   5.683
12671TIP3   OH237955   0.113   2.728   6.238
12671TIP3    H137956   0.041   2.727   6.301
12671TIP3    H237957   0.175   2.663   6.272
12672TIP3   OH237958   6.753   5.178   1.243
12672TIP3    H137959   6.802   5.124   1.181
12672TIP3    H237960   6.744   5.263   1.199
12673TIP3   OH237961   8.046   1.154   5.962
12673TIP3    H137962   7.968   1.143   5.908
12673TIP3    H237963   8.017   1.209   6.034
12674TIP3   OH237964   1.471   6.803   6.701
12674TIP3    H137965   1.472   6.876   6.640
12674TIP3    H237966   1.379   6.797   6.729
12675TIP3   OH237967   8.220   3.565   6.078
12675TIP3    H137968   8.153   3.619   6.036
12675TIP3    H237969   8.277   3.627   6.123
12676TIP3   OH237970   5.368   6.913   0.872
12676TIP3    H137971   5.437   6.977   0.892
12676TIP3    H237972   5.318   6.906   0.954
12677TIP3   OH237973   7.223   7.718   1.997
12677TIP3    H137974   7.303   7.739   2.046
12677TIP3    H237975   7.173   7.800   1.995
12678TIP3   OH237976   8.197   6.765   0.291
12678TIP3    H137977   8.152   6.691   0.249
12678TIP3    H237978   8.289   6.739   0.291
12679TIP3   OH237979   2.818   6.512   3.908
12679TIP3    H137980   2.761   6.501   3.832
12679TIP3    H237981   2.877   6.583   3.883
12680TIP3   OH237982   8.260   7.744   1.123
12680TIP3    H137983   8.313   7.813   1.163
12680TIP3    H237984   8.242   7.683   1.195
12681TIP3   OH237985   7.311   7.294   2.762
12681TIP3    H137986   7.304   7.307   2.667
12681TIP3    H237987   7.233   7.243   2.785
12682TIP3   OH237988   3.786   6.808   0.310
12682TIP3    H137989   3.817   6.898   0.312
12682TIP3    H237990   3.692   6.814   0.320
12683TIP3   OH237991   3.816   5.026   3.674
12683TIP3    H137992   3.854   4.938   3.666
12683TIP3    H237993   3.815   5.043   3.768
12684TIP3   OH237994   6.509   1.668   4.115
12684TIP3    H137995   6.423   1.676   4.156
12684TIP3    H237996   6.503   1.587   4.064
12685TIP3   OH237997   3.373   5.050   5.299
12685TIP3    H137998   3.364   5.032   5.393
12685TIP3    H237999   3.349   5.142   5.290
12686TIP3   OH238000   1.520   7.738   4.645
12686TIP3    H138001   1.480   7.824   4.634
12686TIP3    H238002   1.612   7.756   4.664
12687TIP3   OH238003   6.920   3.859   2.547
12687TIP3    H138004   6.902   3.821   2.633
12687TIP3    H238005   6.936   3.952   2.565
12688TIP3   OH238006   5.255   6.344   5.026
12688TIP3    H138007   5.226   6.435   5.031
12688TIP3    H238008   5.186   6.295   5.071
12689TIP3   OH238009   5.964   1.762   1.443
12689TIP3    H138010   5.922   1.806   1.517
12689TIP3    H238011   5.909   1.783   1.368
12690TIP3   OH238012   6.446   3.692   6.257
12690TIP3    H138013   6.484   3.731   6.178
12690TIP3    H238014   6.451   3.598   6.242
12691TIP3   OH238015   4.561   3.813   0.449
12691TIP3    H138016   4.511   3.735   0.429
12691TIP3    H238017   4.531   3.878   0.386
12692TIP3   OH238018   2.313   6.321   3.665
12692TIP3    H138019   2.256   6.289   3.735
12692TIP3    H238020   2.253   6.351   3.597
12693TIP3   OH238021   3.514   5.278   4.113
12693TIP3    H138022   3.455   5.211   4.080
12693TIP3    H238023   3.575   5.295   4.041
12694TIP3   OH238024   1.461   5.594   6.149
12694TIP3    H138025   1.510   5.665   6.108
12694TIP3    H238026   1.523   5.521   6.151
12695TIP3   OH238027   0.440   6.288   3.743
12695TIP3    H138028   0.432   6.294   3.838
12695TIP3    H238029   0.535   6.290   3.727
12696TIP3   OH238030   6.773   3.196   5.015
12696TIP3    H138031   6.810   3.108   5.019
12696TIP3    H238032   6.764   3.214   4.921
12697TIP3   OH238033   4.857   2.809   5.709
12697TIP3    H138034   4.801   2.886   5.724
12697TIP3    H238035   4.900   2.795   5.793
12698TIP3   OH238036   1.421   2.617   4.923
12698TIP3    H138037   1.432   2.712   4.915
12698TIP3    H238038   1.342   2.598   4.873
12699TIP3   OH238039   5.551   5.982   0.159
12699TIP3    H138040   5.590   6.042   0.222
12699TIP3    H238041   5.625   5.939   0.117
12700TIP3   OH238042   5.462   2.465   0.542
12700TIP3    H138043   5.396   2.477   0.610
12700TIP3    H238044   5.455   2.543   0.487
12701TIP3   OH238045   2.458   1.587   5.843
12701TIP3    H138046   2.494   1.610   5.758
12701TIP3    H238047   2.363   1.584   5.829
12702TIP3   OH238048   2.184   0.840   6.145
12702TIP3    H138049   2.163   0.752   6.114
12702TIP3    H238050   2.235   0.825   6.225
12703TIP3   OH238051   5.956   7.333   3.017
12703TIP3    H138052   5.976   7.240   3.033
12703TIP3    H238053   5.993   7.351   2.931
12704TIP3   OH238054   5.626   3.534   1.611
12704TIP3    H138055   5.556   3.510   1.550
12704TIP3    H238056   5.707   3.518   1.562
12705TIP3   OH238057   7.539   1.726   3.016
12705TIP3    H138058   7.634   1.726   3.027
12705TIP3    H238059   7.525   1.688   2.929
12706TIP3   OH238060   8.162   3.274   6.617
12706TIP3    H138061   8.206   3.296   6.535
12706TIP3    H238062   8.083   3.227   6.590
12707TIP3   OH238063   5.870   1.622   3.252
12707TIP3    H138064   5.877   1.528   3.269
12707TIP3    H238065   5.825   1.629   3.168
12708TIP3   OH238066   7.794   3.961   0.124
12708TIP3    H138067   7.793   4.040   0.178
12708TIP3    H238068   7.797   3.889   0.186
12709TIP3   OH238069   0.946   1.512   1.990
12709TIP3    H138070   0.850   1.512   1.988
12709TIP3    H238071   0.968   1.516   2.082
12710TIP3   OH238072   1.658   2.587   3.282
12710TIP3    H138073   1.605   2.585   3.362
12710TIP3    H238074   1.632   2.508   3.234
12711TIP3   OH238075   7.484   4.234   6.336
12711TIP3    H138076   7.537   4.241   6.258
12711TIP3    H238077   7.518   4.301   6.395
12712TIP3   OH238078   0.611   7.739   4.181
12712TIP3    H138079   0.522   7.774   4.168
12712TIP3    H238080   0.667   7.816   4.177
12713TIP3   OH238081   1.339   4.122   1.178
12713TIP3    H138082   1.365   4.206   1.217
12713TIP3    H238083   1.421   4.073   1.171
12714TIP3   OH238084   0.696   7.362   2.070
12714TIP3    H138085   0.664   7.417   2.141
12714TIP3    H238086   0.790   7.351   2.088
12715TIP3   OH238087   7.235   1.264   5.135
12715TIP3    H138088   7.186   1.337   5.172
12715TIP3    H238089   7.295   1.304   5.071
12716TIP3   OH238090   0.690   1.725   5.290
12716TIP3    H138091   0.627   1.654   5.292
12716TIP3    H238092   0.651   1.794   5.344
12717TIP3   OH238093   3.982   0.799   6.286
12717TIP3    H138094   3.918   0.735   6.315
12717TIP3    H238095   4.066   0.755   6.294
12718TIP3   OH238096   0.809   5.824   2.601
12718TIP3    H138097   0.874   5.890   2.623
12718TIP3    H238098   0.732   5.873   2.575
12719TIP3   OH238099   6.036   7.028   5.886
12719TIP3    H138100   6.010   6.935   5.882
12719TIP3    H238101   6.088   7.034   5.966
12720TIP3   OH238102   1.658   3.952   5.132
12720TIP3    H138103   1.667   3.862   5.101
12720TIP3    H238104   1.565   3.972   5.121
12721TIP3   OH238105   3.467   0.880   4.153
12721TIP3    H138106   3.538   0.904   4.094
12721TIP3    H238107   3.428   0.963   4.180
12722TIP3   OH238108   1.458   3.725   2.595
12722TIP3    H138109   1.446   3.679   2.512
12722TIP3    H238110   1.387   3.789   2.597
12723TIP3   OH238111   5.847   3.240   5.699
12723TIP3    H138112   5.900   3.320   5.710
12723TIP3    H238113   5.817   3.245   5.609
12724TIP3   OH238114   2.654   0.953   1.464
12724TIP3    H138115   2.639   0.874   1.516
12724TIP3    H238116   2.570   0.968   1.419
12725TIP3   OH238117   3.781   2.958   4.252
12725TIP3    H138118   3.769   3.053   4.254
12725TIP3    H238119   3.705   2.922   4.296
12726TIP3   OH238120   7.639   4.258   6.125
12726TIP3    H138121   7.716   4.218   6.086
12726TIP3    H238122   7.622   4.336   6.072
12727TIP3   OH238123   7.765   6.840   2.422
12727TIP3    H138124   7.743   6.925   2.459
12727TIP3    H238125   7.684   6.789   2.428
12728TIP3   OH238126   0.594   0.737   6.145
12728TIP3    H138127   0.588   0.650   6.105
12728TIP3    H238128   0.536   0.791   6.092
12729TIP3   OH238129   2.466   4.376   2.302
12729TIP3    H138130   2.503   4.446   2.356
12729TIP3    H238131   2.483   4.296   2.352
12730TIP3   OH238132   2.819   5.242   3.508
12730TIP3    H138133   2.894   5.289   3.472
12730TIP3    H238134   2.758   5.233   3.435
12731TIP3   OH238135   5.032   1.130   3.511
12731TIP3    H138136   5.060   1.126   3.603
12731TIP3    H238137   4.969   1.059   3.502
12732TIP3   OH238138   2.366   7.726   3.669
12732TIP3    H138139   2.427   7.710   3.596
12732TIP3    H238140   2.398   7.670   3.739
12733TIP3   OH238141   3.933   0.111   3.752
12733TIP3    H138142   3.879   0.187   3.774
12733TIP3    H238143   3.869   0.043   3.730
12734TIP3   OH238144   8.241   5.002   2.791
12734TIP3    H138145   8.213   5.077   2.739
12734TIP3    H238146   8.196   4.927   2.751
12735TIP3   OH238147   5.761   3.981   1.684
12735TIP3    H138148   5.688   3.940   1.637
12735TIP3    H238149   5.781   3.920   1.755
12736TIP3   OH238150   7.765   7.640   1.893
12736TIP3    H138151   7.806   7.578   1.954
12736TIP3    H238152   7.678   7.655   1.930
12737TIP3   OH238153   4.365   0.992   0.090
12737TIP3    H138154   4.293   0.958   0.037
12737TIP3    H238155   4.322   1.042   0.160
12738TIP3   OH238156   1.506   5.537   4.890
12738TIP3    H138157   1.413   5.520   4.875
12738TIP3    H238158   1.546   5.450   4.898
12739TIP3   OH238159   0.789   5.987   3.551
12739TIP3    H138160   0.869   6.025   3.514
12739TIP3    H238161   0.788   5.897   3.519
12740TIP3   OH238162   1.366   0.892   5.822
12740TIP3    H138163   1.341   0.971   5.776
12740TIP3    H238164   1.395   0.832   5.754
12741TIP3   OH238165   4.988   6.713   6.456
12741TIP3    H138166   5.022   6.661   6.383
12741TIP3    H238167   4.972   6.799   6.420
12742TIP3   OH238168   2.907   7.842   1.254
12742TIP3    H138169   2.877   7.800   1.173
12742TIP3    H238170   2.928   7.770   1.313
12743TIP3   OH238171   0.970   5.264   2.081
12743TIP3    H138172   1.064   5.246   2.080
12743TIP3    H238173   0.929   5.182   2.053
12744TIP3   OH238174   1.388   7.388   1.312
12744TIP3    H138175   1.382   7.483   1.304
12744TIP3    H238176   1.349   7.354   1.231
12745TIP3   OH238177   0.458   4.680   1.931
12745TIP3    H138178   0.443   4.773   1.913
12745TIP3    H238179   0.458   4.639   1.844
12746TIP3   OH238180   0.186   6.711   6.452
12746TIP3    H138181   0.101   6.705   6.495
12746TIP3    H238182   0.247   6.734   6.522
12747TIP3   OH238183   7.940   7.345   6.251
12747TIP3    H138184   7.951   7.428   6.205
12747TIP3    H238185   7.982   7.358   6.336
12748TIP3   OH238186   7.788   2.720   1.939
12748TIP3    H138187   7.801   2.714   1.844
12748TIP3    H238188   7.865   2.766   1.971
12749TIP3   OH238189   4.891   0.852   6.111
12749TIP3    H138190   4.902   0.935   6.158
12749TIP3    H238191   4.893   0.785   6.179
12750TIP3   OH238192   2.942   0.120   4.734
12750TIP3    H138193   2.875   0.093   4.797
12750TIP3    H238194   2.991   0.040   4.716
12751TIP3   OH238195   2.808   2.072   1.769
12751TIP3    H138196   2.722   2.048   1.802
12751TIP3    H238197   2.840   2.139   1.829
12752TIP3   OH238198   0.734   3.963   0.695
12752TIP3    H138199   0.797   4.035   0.694
12752TIP3    H238200   0.771   3.899   0.756
12753TIP3   OH238201   6.164   7.776   2.468
12753TIP3    H138202   6.176   7.729   2.386
12753TIP3    H238203   6.076   7.813   2.461
12754TIP3   OH238204   1.207   5.703   1.307
12754TIP3    H138205   1.143   5.634   1.327
12754TIP3    H238206   1.234   5.686   1.217
12755TIP3   OH238207   2.025   0.764   6.470
12755TIP3    H138208   2.100   0.823   6.461
12755TIP3    H238209   1.957   0.805   6.416
12756TIP3   OH238210   1.742   4.114   2.131
12756TIP3    H138211   1.716   4.102   2.040
12756TIP3    H238212   1.807   4.184   2.128
12757TIP3   OH238213   1.504   6.779   3.672
12757TIP3    H138214   1.515   6.696   3.625
12757TIP3    H238215   1.496   6.754   3.764
12758TIP3   OH238216   5.929   0.143   4.808
12758TIP3    H138217   5.845   0.098   4.808
12758TIP3    H238218   5.991   0.079   4.843
12759TIP3   OH238219   5.025   6.036   6.320
12759TIP3    H138220   5.099   6.030   6.260
12759TIP3    H238221   5.053   6.099   6.387
12760TIP3   OH238222   4.786   6.431   0.972
12760TIP3    H138223   4.750   6.422   0.883
12760TIP3    H238224   4.779   6.344   1.010
12761TIP3   OH238225   2.962   5.384   5.920
12761TIP3    H138226   2.956   5.477   5.901
12761TIP3    H238227   2.871   5.356   5.930
12762TIP3   OH238228   2.896   4.300   1.760
12762TIP3    H138229   2.987   4.305   1.732
12762TIP3    H238230   2.887   4.211   1.796
12763TIP3   OH238231   0.071   3.905   2.706
12763TIP3    H138232   0.034   3.993   2.706
12763TIP3    H238233   0.034   3.863   2.629
12764TIP3   OH238234   8.056   6.040   3.700
12764TIP3    H138235   8.032   6.000   3.784
12764TIP3    H238236   8.075   6.131   3.722
12765TIP3   OH238237   4.193   3.282   2.755
12765TIP3    H138238   4.143   3.319   2.682
12765TIP3    H238239   4.165   3.332   2.831
12766TIP3   OH238240   0.670   1.119   4.718
12766TIP3    H138241   0.652   1.036   4.764
12766TIP3    H238242   0.723   1.093   4.642
12767TIP3   OH238243   4.846   7.020   0.843
12767TIP3    H138244   4.797   7.076   0.781
12767TIP3    H238245   4.931   7.006   0.800
12768TIP3   OH238246   2.090   5.287   3.202
12768TIP3    H138247   2.047   5.336   3.272
12768TIP3    H238248   2.030   5.215   3.183
12769TIP3   OH238249   2.048   2.868   4.510
12769TIP3    H138250   2.135   2.901   4.533
12769TIP3    H238251   2.005   2.943   4.468
12770TIP3   OH238252   5.113   4.093   3.801
12770TIP3    H138253   5.060   4.147   3.743
12770TIP3    H238254   5.064   4.010   3.808
12771TIP3   OH238255   1.848   4.790   6.228
12771TIP3    H138256   1.867   4.716   6.170
12771TIP3    H238257   1.762   4.821   6.201
12772TIP3   OH238258   7.581   4.194  -0.029
12772TIP3    H138259   7.564   4.189   0.065
12772TIP3    H238260   7.654   4.255  -0.037
12773TIP3   OH238261   7.869   7.650   5.616
12773TIP3    H138262   7.813   7.728   5.622
12773TIP3    H238263   7.821   7.582   5.664
12774TIP3   OH238264   4.566   3.233   4.130
12774TIP3    H138265   4.483   3.207   4.091
12774TIP3    H238266   4.547   3.241   4.224
12775TIP3   OH238267   3.289   5.088   4.505
12775TIP3    H138268   3.218   5.033   4.540
12775TIP3    H238269   3.337   5.031   4.446
12776TIP3   OH238270   6.440   4.784   5.371
12776TIP3    H138271   6.455   4.696   5.406
12776TIP3    H238272   6.355   4.809   5.406
12777TIP3   OH238273   6.771   3.621   4.249
12777TIP3    H138274   6.754   3.573   4.330
12777TIP3    H238275   6.822   3.697   4.277
12778TIP3   OH238276   5.501   7.617   1.560
12778TIP3    H138277   5.561   7.631   1.486
12778TIP3    H238278   5.519   7.528   1.589
12779TIP3   OH238279   4.125   0.481   5.980
12779TIP3    H138280   4.072   0.413   5.938
12779TIP3    H238281   4.066   0.522   6.043
12780TIP3   OH238282   7.291   6.613   4.346
12780TIP3    H138283   7.329   6.527   4.364
12780TIP3    H238284   7.228   6.626   4.417
12781TIP3   OH238285   4.078   2.745   3.940
12781TIP3    H138286   4.019   2.797   3.995
12781TIP3    H238287   4.023   2.676   3.904
12782TIP3   OH238288   2.504   6.797   2.865
12782TIP3    H138289   2.542   6.882   2.842
12782TIP3    H238290   2.488   6.754   2.781
12783TIP3   OH238291   7.862   1.875   1.019
12783TIP3    H138292   7.882   1.947   1.079
12783TIP3    H238293   7.902   1.798   1.059
12784TIP3   OH238294   6.599   7.239   0.017
12784TIP3    H138295   6.511   7.268   0.042
12784TIP3    H238296   6.622   7.174   0.083
12785TIP3   OH238297   5.821   0.008   6.606
12785TIP3    H138298   5.771  -0.046   6.667
12785TIP3    H238299   5.808   0.098   6.638
12786TIP3   OH238300   7.926   7.567   0.740
12786TIP3    H138301   7.992   7.637   0.731
12786TIP3    H238302   7.857   7.606   0.792
12787TIP3   OH238303   7.214   0.402   2.209
12787TIP3    H138304   7.306   0.402   2.235
12787TIP3    H238305   7.173   0.335   2.265
12788TIP3   OH238306   5.652   1.520   3.551
12788TIP3    H138307   5.714   1.557   3.614
12788TIP3    H238308   5.585   1.587   3.539
12789TIP3   OH238309   3.339   1.022   3.912
12789TIP3    H138310   3.385   0.952   3.867
12789TIP3    H238311   3.246   1.004   3.894
12790TIP3   OH238312   6.731   4.697   5.213
12790TIP3    H138313   6.661   4.724   5.272
12790TIP3    H238314   6.718   4.603   5.202
12791TIP3   OH238315   8.041   3.104   2.592
12791TIP3    H138316   8.094   3.038   2.547
12791TIP3    H238317   7.988   3.054   2.654
12792TIP3   OH238318   1.269   2.020   1.730
12792TIP3    H138319   1.286   1.930   1.759
12792TIP3    H238320   1.352   2.065   1.745
12793TIP3   OH238321   6.324   3.958   1.239
12793TIP3    H138322   6.345   4.012   1.163
12793TIP3    H238323   6.239   3.990   1.269
12794TIP3   OH238324   6.792   1.832   6.553
12794TIP3    H138325   6.865   1.771   6.556
12794TIP3    H238326   6.826   1.907   6.504
12795TIP3   OH238327   6.593   7.510   0.963
12795TIP3    H138328   6.593   7.518   0.868
12795TIP3    H238329   6.588   7.416   0.980
12796TIP3   OH238330   7.876   0.461   0.947
12796TIP3    H138331   7.928   0.459   1.027
12796TIP3    H238332   7.924   0.520   0.888
12797TIP3   OH238333   0.144   2.217   3.411
12797TIP3    H138334   0.230   2.257   3.420
12797TIP3    H238335   0.162   2.125   3.389
12798TIP3   OH238336   5.384   3.558   4.996
12798TIP3    H138337   5.398   3.480   5.050
12798TIP3    H238338   5.313   3.534   4.937
12799TIP3   OH238339   1.785   1.498   5.870
12799TIP3    H138340   1.748   1.426   5.921
12799TIP3    H238341   1.780   1.573   5.928
12800TIP3   OH238342   6.452   5.352   4.200
12800TIP3    H138343   6.533   5.308   4.226
12800TIP3    H238344   6.481   5.439   4.172
12801TIP3   OH238345   4.482   0.523   0.365
12801TIP3    H138346   4.491   0.616   0.347
12801TIP3    H238347   4.509   0.514   0.456
12802TIP3   OH238348   6.406   6.803   4.674
12802TIP3    H138349   6.475   6.789   4.739
12802TIP3    H238350   6.332   6.837   4.724
12803TIP3   OH238351   1.942   4.990   5.399
12803TIP3    H138352   1.881   4.917   5.410
12803TIP3    H238353   1.888   5.063   5.370
12804TIP3   OH238354   8.254   0.496   0.292
12804TIP3    H138355   8.166   0.527   0.273
12804TIP3    H238356   8.309   0.574   0.288
12805TIP3   OH238357   7.108   1.274   0.114
12805TIP3    H138358   7.117   1.181   0.137
12805TIP3    H238359   7.082   1.274   0.022
12806TIP3   OH238360   0.184   0.196   0.468
12806TIP3    H138361   0.224   0.278   0.499
12806TIP3    H238362   0.164   0.148   0.549
12807TIP3   OH238363   6.346   6.758   4.229
12807TIP3    H138364   6.333   6.694   4.159
12807TIP3    H238365   6.314   6.841   4.193
12808TIP3   OH238366   3.523   5.793   5.761
12808TIP3    H138367   3.560   5.857   5.701
12808TIP3    H238368   3.434   5.778   5.730
12809TIP3   OH238369   6.359   2.468   4.285
12809TIP3    H138370   6.337   2.551   4.242
12809TIP3    H238371   6.361   2.489   4.378
12810TIP3   OH238372   2.229   1.904   4.330
12810TIP3    H138373   2.210   1.978   4.271
12810TIP3    H238374   2.144   1.860   4.341
12811TIP3   OH238375   1.973   3.540   3.365
12811TIP3    H138376   2.037   3.525   3.295
12811TIP3    H238377   1.970   3.457   3.413
12812TIP3   OH238378   1.430   6.895   0.378
12812TIP3    H138379   1.469   6.983   0.377
12812TIP3    H238380   1.386   6.889   0.463
12813TIP3   OH238381   5.554   5.276   0.111
12813TIP3    H138382   5.542   5.246   0.021
12813TIP3    H238383   5.566   5.371   0.103
12814TIP3   OH238384   3.609   2.913   2.983
12814TIP3    H138385   3.548   2.868   3.042
12814TIP3    H238386   3.598   2.867   2.899
12815TIP3   OH238387   0.198   0.947   2.329
12815TIP3    H138388   0.229   0.880   2.268
12815TIP3    H238389   0.240   1.028   2.299
12816TIP3   OH238390   7.553   1.761   3.348
12816TIP3    H138391   7.542   1.732   3.257
12816TIP3    H238392   7.606   1.840   3.341
12817TIP3   OH238393   5.016   2.466   3.780
12817TIP3    H138394   5.057   2.537   3.730
12817TIP3    H238395   4.922   2.486   3.775
12818TIP3   OH238396   3.732   7.399   1.006
12818TIP3    H138397   3.761   7.451   0.932
12818TIP3    H238398   3.803   7.407   1.070
12819TIP3   OH238399   1.369   6.931   2.395
12819TIP3    H138400   1.446   6.928   2.451
12819TIP3    H238401   1.317   6.855   2.422
12820TIP3   OH238402   7.822   5.459   4.153
12820TIP3    H138403   7.846   5.483   4.242
12820TIP3    H238404   7.882   5.511   4.098
12821TIP3   OH238405   7.276   0.160   5.019
12821TIP3    H138406   7.217   0.096   4.978
12821TIP3    H238407   7.361   0.143   4.978
12822TIP3   OH238408   2.545   3.682   5.804
12822TIP3    H138409   2.520   3.769   5.773
12822TIP3    H238410   2.636   3.673   5.776
12823TIP3   OH238411   7.702   3.832   0.561
12823TIP3    H138412   7.740   3.816   0.648
12823TIP3    H238413   7.758   3.783   0.502
12824TIP3   OH238414   6.064   4.466   5.628
12824TIP3    H138415   6.069   4.469   5.532
12824TIP3    H238416   5.977   4.498   5.649
12825TIP3   OH238417   0.715   1.997   2.700
12825TIP3    H138418   0.809   1.991   2.717
12825TIP3    H238419   0.684   1.907   2.702
12826TIP3   OH238420   7.776   7.207   0.787
12826TIP3    H138421   7.791   7.163   0.704
12826TIP3    H238422   7.717   7.148   0.835
12827TIP3   OH238423   0.118   2.049   2.292
12827TIP3    H138424   0.086   1.985   2.356
12827TIP3    H238425   0.118   2.003   2.209
12828TIP3   OH238426   3.403   1.700   5.562
12828TIP3    H138427   3.497   1.699   5.577
12828TIP3    H238428   3.369   1.636   5.624
12829TIP3   OH238429   2.560   2.640   5.364
12829TIP3    H138430   2.546   2.549   5.339
12829TIP3    H238431   2.486   2.687   5.326
12830TIP3   OH238432   7.898   3.064   0.146
12830TIP3    H138433   7.859   3.080   0.060
12830TIP3    H238434   7.964   3.133   0.156
12831TIP3   OH238435   5.943   4.682   1.470
12831TIP3    H138436   5.918   4.592   1.451
12831TIP3    H238437   5.997   4.709   1.396
12832TIP3   OH238438   3.665   2.011   6.113
12832TIP3    H138439   3.715   2.091   6.132
12832TIP3    H238440   3.574   2.036   6.127
12833TIP3   OH238441   4.830   7.710   5.344
12833TIP3    H138442   4.915   7.752   5.361
12833TIP3    H238443   4.766   7.769   5.385
12834TIP3   OH238444   4.305   6.668   5.741
12834TIP3    H138445   4.211   6.674   5.720
12834TIP3    H238446   4.307   6.646   5.834
12835TIP3   OH238447   7.048   0.078   2.614
12835TIP3    H138448   7.048   0.054   2.706
12835TIP3    H238449   7.022  -0.001   2.567
12836TIP3   OH238450   0.723   3.642   2.164
12836TIP3    H138451   0.682   3.556   2.174
12836TIP3    H238452   0.801   3.638   2.219
12837TIP3   OH238453   0.101   4.778   2.923
12837TIP3    H138454   0.041   4.739   2.986
12837TIP3    H238455   0.047   4.838   2.872
12838TIP3   OH238456   6.354   1.289   5.245
12838TIP3    H138457   6.277   1.249   5.284
12838TIP3    H238458   6.327   1.379   5.225
12839TIP3   OH238459   6.714   7.163   2.354
12839TIP3    H138460   6.776   7.165   2.426
12839TIP3    H238461   6.665   7.245   2.361
12840TIP3   OH238462   7.812   4.482   5.006
12840TIP3    H138463   7.780   4.542   5.073
12840TIP3    H238464   7.897   4.518   4.981
12841TIP3   OH238465   2.170   5.622   6.578
12841TIP3    H138466   2.213   5.558   6.634
12841TIP3    H238467   2.077   5.600   6.582
12842TIP3   OH238468   1.535   4.534   3.550
12842TIP3    H138469   1.469   4.601   3.565
12842TIP3    H238470   1.586   4.533   3.631
12843TIP3   OH238471   1.341   5.418   1.839
12843TIP3    H138472   1.280   5.491   1.829
12843TIP3    H238473   1.300   5.362   1.905
12844TIP3   OH238474   1.108   2.117   3.170
12844TIP3    H138475   1.091   2.211   3.176
12844TIP3    H238476   1.192   2.111   3.125
12845TIP3   OH238477   1.254   5.450   5.257
12845TIP3    H138478   1.168   5.425   5.290
12845TIP3    H238479   1.238   5.485   5.170
12846TIP3   OH238480   0.136   2.363   1.274
12846TIP3    H138481   0.122   2.335   1.364
12846TIP3    H238482   0.185   2.291   1.234
12847TIP3   OH238483   8.078   6.192   0.484
12847TIP3    H138484   8.065   6.254   0.556
12847TIP3    H238485   8.050   6.239   0.406
12848TIP3   OH238486   5.960   4.528   0.036
12848TIP3    H138487   5.889   4.580  -0.002
12848TIP3    H238488   5.975   4.569   0.122
12849TIP3   OH238489   4.343   2.090   6.464
12849TIP3    H138490   4.386   2.172   6.442
12849TIP3    H238491   4.404   2.022   6.436
12850TIP3   OH238492   4.916   4.223   1.010
12850TIP3    H138493   4.960   4.141   1.030
12850TIP3    H238494   4.948   4.284   1.077
12851TIP3   OH238495   7.569   5.045   6.656
12851TIP3    H138496   7.590   4.952   6.659
12851TIP3    H238497   7.475   5.050   6.673
12852TIP3   OH238498   8.003   1.635   0.257
12852TIP3    H138499   7.977   1.553   0.215
12852TIP3    H238500   7.927   1.660   0.310
12853TIP3   OH238501   6.683   5.198   0.935
12853TIP3    H138502   6.617   5.139   0.971
12853TIP3    H238503   6.757   5.142   0.915
12854TIP3   OH238504   4.578   6.526   3.740
12854TIP3    H138505   4.603   6.478   3.819
12854TIP3    H238506   4.633   6.489   3.671
12855TIP3   OH238507   1.393   1.577   3.620
12855TIP3    H138508   1.302   1.546   3.615
12855TIP3    H238509   1.407   1.624   3.538
12856TIP3   OH238510   5.869   1.426   4.219
12856TIP3    H138511   5.848   1.440   4.312
12856TIP3    H238512   5.937   1.491   4.200
12857TIP3   OH238513   6.149   6.423   5.060
12857TIP3    H138514   6.244   6.435   5.055
12857TIP3    H238515   6.138   6.336   5.100
12858TIP3   OH238516   4.837   4.112   4.653
12858TIP3    H138517   4.889   4.095   4.574
12858TIP3    H238518   4.792   4.195   4.634
12859TIP3   OH238519   6.736   5.012   5.376
12859TIP3    H138520   6.695   4.956   5.442
12859TIP3    H238521   6.810   5.053   5.420
12860TIP3   OH238522   0.157   4.599   3.746
12860TIP3    H138523   0.076   4.592   3.695
12860TIP3    H238524   0.226   4.602   3.679
12861TIP3   OH238525   1.051   0.656   1.857
12861TIP3    H138526   1.064   0.562   1.850
12861TIP3    H238527   1.025   0.670   1.949
12862TIP3   OH238528   1.973   6.517   3.699
12862TIP3    H138529   1.907   6.491   3.635
12862TIP3    H238530   1.984   6.440   3.754
12863TIP3   OH238531   0.402   1.026   0.025
12863TIP3    H138532   0.347   0.981   0.090
12863TIP3    H238533   0.341   1.051  -0.044
12864TIP3   OH238534   8.146   2.870   1.678
12864TIP3    H138535   8.151   2.880   1.773
12864TIP3    H238536   8.234   2.840   1.652
12865TIP3   OH238537   3.045   5.097   2.333
12865TIP3    H138538   3.111   5.165   2.318
12865TIP3    H238539   3.052   5.039   2.257
12866TIP3   OH238540   4.474   4.771   0.867
12866TIP3    H138541   4.448   4.763   0.776
12866TIP3    H238542   4.484   4.865   0.881
12867TIP3   OH238543   0.688   4.055   1.953
12867TIP3    H138544   0.666   4.011   1.871
12867TIP3    H238545   0.622   4.023   2.016
12868TIP3   OH238546   3.510   2.587   4.120
12868TIP3    H138547   3.600   2.592   4.153
12868TIP3    H238548   3.467   2.525   4.178
12869TIP3   OH238549   5.954   5.244   5.150
12869TIP3    H138550   5.963   5.186   5.073
12869TIP3    H238551   5.901   5.193   5.211
12870TIP3   OH238552   3.537   1.727   4.937
12870TIP3    H138553   3.562   1.819   4.928
12870TIP3    H238554   3.588   1.696   5.012
12871TIP3   OH238555   8.162   3.276   2.410
12871TIP3    H138556   8.144   3.215   2.482
12871TIP3    H238557   8.194   3.220   2.339
12872TIP3   OH238558   3.978   7.006   3.089
12872TIP3    H138559   4.073   6.995   3.089
12872TIP3    H238560   3.944   6.929   3.044
12873TIP3   OH238561   5.042   4.289   1.552
12873TIP3    H138562   5.035   4.198   1.579
12873TIP3    H238563   5.041   4.338   1.635
12874TIP3   OH238564   2.623   2.892   6.180
12874TIP3    H138565   2.683   2.856   6.115
12874TIP3    H238566   2.630   2.987   6.170
12875TIP3   OH238567   7.629   6.212   0.488
12875TIP3    H138568   7.686   6.172   0.422
12875TIP3    H238569   7.542   6.177   0.470
12876TIP3   OH238570   0.308   7.213   3.316
12876TIP3    H138571   0.378   7.264   3.356
12876TIP3    H238572   0.327   7.217   3.222
12877TIP3   OH238573   0.340   7.327   2.142
12877TIP3    H138574   0.386   7.250   2.108
12877TIP3    H238575   0.283   7.354   2.070
12878TIP3   OH238576   5.546   3.812   5.064
12878TIP3    H138577   5.474   3.752   5.047
12878TIP3    H238578   5.577   3.839   4.977
12879TIP3   OH238579   4.133   4.384   1.526
12879TIP3    H138580   4.167   4.469   1.556
12879TIP3    H238581   4.211   4.330   1.515
12880TIP3   OH238582   6.516   0.863   3.058
12880TIP3    H138583   6.425   0.862   3.087
12880TIP3    H238584   6.523   0.788   2.999
12881TIP3   OH238585   5.558   2.142   0.197
12881TIP3    H138586   5.513   2.109   0.275
12881TIP3    H238587   5.585   2.064   0.150
12882TIP3   OH238588   8.083   6.566   0.117
12882TIP3    H138589   7.988   6.563   0.103
12882TIP3    H238590   8.111   6.475   0.113
12883TIP3   OH238591   1.067   1.587   5.866
12883TIP3    H138592   0.990   1.633   5.899
12883TIP3    H238593   1.141   1.633   5.905
12884TIP3   OH238594   3.560   1.187   4.340
12884TIP3    H138595   3.497   1.230   4.282
12884TIP3    H238596   3.576   1.252   4.409
12885TIP3   OH238597   7.210   2.403   4.177
12885TIP3    H138598   7.293   2.370   4.213
12885TIP3    H238599   7.145   2.336   4.202
12886TIP3   OH238600   3.645   1.842   4.010
12886TIP3    H138601   3.581   1.812   4.074
12886TIP3    H238602   3.727   1.802   4.038
12887TIP3   OH238603   6.169   4.080   5.878
12887TIP3    H138604   6.218   4.042   5.805
12887TIP3    H238605   6.198   4.031   5.955
12888TIP3   OH238606   1.425   4.151   4.993
12888TIP3    H138607   1.440   4.081   4.929
12888TIP3    H238608   1.346   4.195   4.963
12889TIP3   OH238609   1.560   0.463   0.534
12889TIP3    H138610   1.498   0.534   0.550
12889TIP3    H238611   1.513   0.383   0.559
12890TIP3   OH238612   8.293   5.104   2.410
12890TIP3    H138613   8.279   5.019   2.369
12890TIP3    H238614   8.363   5.144   2.360
12891TIP3   OH238615   4.444   3.101   5.359
12891TIP3    H138616   4.458   3.107   5.265
12891TIP3    H238617   4.502   3.030   5.388
12892TIP3   OH238618   4.145   0.266   5.519
12892TIP3    H138619   4.126   0.234   5.431
12892TIP3    H238620   4.217   0.212   5.550
12893TIP3   OH238621   7.206   3.633   2.052
12893TIP3    H138622   7.129   3.691   2.053
12893TIP3    H238623   7.266   3.672   2.115
12894TIP3   OH238624   2.252   4.522   6.309
12894TIP3    H138625   2.339   4.559   6.295
12894TIP3    H238626   2.267   4.430   6.331
12895TIP3   OH238627   4.187   2.120   6.686
12895TIP3    H138628   4.235   2.067   6.749
12895TIP3    H238629   4.243   2.122   6.608
12896TIP3   OH238630   3.089   2.811   3.963
12896TIP3    H138631   3.132   2.763   4.034
12896TIP3    H238632   3.033   2.746   3.921
12897TIP3   OH238633   7.309   1.277   3.660
12897TIP3    H138634   7.264   1.266   3.576
12897TIP3    H238635   7.392   1.318   3.638
12898TIP3   OH238636   6.863   2.309   6.229
12898TIP3    H138637   6.959   2.306   6.236
12898TIP3    H238638   6.835   2.370   6.297
12899TIP3   OH238639   0.118   5.758   4.725
12899TIP3    H138640   0.056   5.821   4.763
12899TIP3    H238641   0.159   5.716   4.801
12900TIP3   OH238642   5.406   5.578   4.952
12900TIP3    H138643   5.396   5.638   4.879
12900TIP3    H238644   5.431   5.494   4.912
12901TIP3   OH238645   3.729   5.565   1.662
12901TIP3    H138646   3.710   5.472   1.649
12901TIP3    H238647   3.788   5.566   1.738
12902TIP3   OH238648   7.144   4.428   1.718
12902TIP3    H138649   7.194   4.349   1.701
12902TIP3    H238650   7.180   4.464   1.799
12903TIP3   OH238651   4.453   6.615   2.168
12903TIP3    H138652   4.547   6.632   2.165
12903TIP3    H238653   4.425   6.649   2.253
12904TIP3   OH238654   6.657   3.107   0.170
12904TIP3    H138655   6.686   3.195   0.190
12904TIP3    H238656   6.656   3.062   0.254
12905TIP3   OH238657   5.913   0.524   1.487
12905TIP3    H138658   5.933   0.456   1.552
12905TIP3    H238659   5.999   0.559   1.462
12906TIP3   OH238660   0.151   7.034   1.509
12906TIP3    H138661   0.186   6.974   1.443
12906TIP3    H238662   0.063   7.054   1.479
12907TIP3   OH238663   5.861   4.096   3.758
12907TIP3    H138664   5.939   4.108   3.812
12907TIP3    H238665   5.809   4.030   3.805
12908TIP3   OH238666   0.405   5.820   4.660
12908TIP3    H138667   0.406   5.894   4.721
12908TIP3    H238668   0.449   5.749   4.708
12909TIP3   OH238669   2.757   1.257   1.728
12909TIP3    H138670   2.709   1.324   1.678
12909TIP3    H238671   2.688   1.207   1.773
12910TIP3   OH238672   2.711   3.674   4.597
12910TIP3    H138673   2.672   3.761   4.598
12910TIP3    H238674   2.800   3.688   4.630
12911TIP3   OH238675   3.296   0.039   1.605
12911TIP3    H138676   3.271  -0.047   1.569
12911TIP3    H238677   3.263   0.037   1.695
12912TIP3   OH238678   6.708   6.093   1.153
12912TIP3    H138679   6.665   6.122   1.072
12912TIP3    H238680   6.756   6.170   1.183
12913TIP3   OH238681   0.385   6.852   0.322
12913TIP3    H138682   0.337   6.934   0.306
12913TIP3    H238683   0.464   6.880   0.369
12914TIP3   OH238684   7.531   5.929   2.231
12914TIP3    H138685   7.596   5.925   2.160
12914TIP3    H238686   7.543   6.016   2.269
12915TIP3   OH238687   0.734   3.710   4.310
12915TIP3    H138688   0.700   3.796   4.337
12915TIP3    H238689   0.659   3.651   4.321
12916TIP3   OH238690   4.872   0.998   0.283
12916TIP3    H138691   4.880   1.091   0.264
12916TIP3    H238692   4.787   0.990   0.328
12917TIP3   OH238693   1.011   4.889   1.482
12917TIP3    H138694   1.017   4.979   1.515
12917TIP3    H238695   1.054   4.836   1.549
12918TIP3   OH238696   1.914   4.221   2.407
12918TIP3    H138697   1.935   4.135   2.370
12918TIP3    H238698   1.999   4.258   2.431
12919TIP3   OH238699   3.186   4.800   5.329
12919TIP3    H138700   3.094   4.824   5.317
12919TIP3    H238701   3.216   4.858   5.399
12920TIP3   OH238702   5.733   5.027   3.987
12920TIP3    H138703   5.764   4.949   3.942
12920TIP3    H238704   5.788   5.032   4.065
12921TIP3   OH238705   0.694   0.326   2.032
12921TIP3    H138706   0.727   0.392   2.092
12921TIP3    H238707   0.680   0.248   2.086
12922TIP3   OH238708   0.878   6.490   3.017
12922TIP3    H138709   0.902   6.582   3.010
12922TIP3    H238710   0.783   6.488   3.004
12923TIP3   OH238711   4.240   2.970   4.232
12923TIP3    H138712   4.270   2.885   4.201
12923TIP3    H238713   4.202   2.951   4.319
12924TIP3   OH238714   6.999   5.363   5.925
12924TIP3    H138715   6.963   5.305   5.992
12924TIP3    H238716   7.023   5.443   5.972
12925TIP3   OH238717   3.102   7.540   2.782
12925TIP3    H138718   3.038   7.476   2.751
12925TIP3    H238719   3.061   7.579   2.859
12926TIP3   OH238720   3.784   3.574   1.782
12926TIP3    H138721   3.775   3.661   1.743
12926TIP3    H238722   3.870   3.544   1.755
12927TIP3   OH238723   5.274   0.356   2.589
12927TIP3    H138724   5.309   0.322   2.507
12927TIP3    H238725   5.351   0.386   2.637
12928TIP3   OH238726   6.774   2.252   3.725
12928TIP3    H138727   6.757   2.164   3.757
12928TIP3    H238728   6.742   2.309   3.795
12929TIP3   OH238729   7.966   4.817   3.286
12929TIP3    H138730   7.933   4.743   3.338
12929TIP3    H238731   7.998   4.879   3.352
12930TIP3   OH238732   6.750   6.574   6.637
12930TIP3    H138733   6.781   6.618   6.557
12930TIP3    H238734   6.672   6.624   6.662
12931TIP3   OH238735   7.308   2.464   1.416
12931TIP3    H138736   7.313   2.475   1.511
12931TIP3    H238737   7.362   2.387   1.398
12932TIP3   OH238738   0.622   0.101   2.178
12932TIP3    H138739   0.700   0.052   2.202
12932TIP3    H238740   0.581   0.125   2.261
12933TIP3   OH238741   0.986   3.650   4.200
12933TIP3    H138742   0.917   3.699   4.157
12933TIP3    H238743   0.963   3.558   4.185
12934TIP3   OH238744   6.641   1.175   4.078
12934TIP3    H138745   6.690   1.237   4.132
12934TIP3    H238746   6.708   1.124   4.033
12935TIP3   OH238747   1.723   2.983   0.449
12935TIP3    H138748   1.723   3.029   0.533
12935TIP3    H238749   1.801   2.927   0.452
12936TIP3   OH238750   7.318   5.529   1.957
12936TIP3    H138751   7.285   5.544   1.868
12936TIP3    H238752   7.387   5.594   1.968
12937TIP3   OH238753   0.701   1.936   4.465
12937TIP3    H138754   0.624   1.951   4.519
12937TIP3    H238755   0.672   1.876   4.397
12938TIP3   OH238756   8.009   1.946   1.850
12938TIP3    H138757   8.037   1.918   1.763
12938TIP3    H238758   7.971   2.033   1.837
12939TIP3   OH238759   2.609   0.957   1.055
12939TIP3    H138760   2.648   0.954   0.968
12939TIP3    H238761   2.651   0.886   1.104
12940TIP3   OH238762   2.804   4.367   2.091
12940TIP3    H138763   2.755   4.288   2.070
12940TIP3    H238764   2.758   4.437   2.043
12941TIP3   OH238765   1.978   7.239   4.116
12941TIP3    H138766   2.048   7.232   4.181
12941TIP3    H238767   1.995   7.168   4.055
12942TIP3   OH238768   1.846   5.117   6.279
12942TIP3    H138769   1.922   5.137   6.334
12942TIP3    H238770   1.877   5.051   6.218
12943TIP3   OH238771   6.616   7.270   6.095
12943TIP3    H138772   6.535   7.314   6.070
12943TIP3    H238773   6.684   7.336   6.081
12944TIP3   OH238774   5.642   7.428   5.573
12944TIP3    H138775   5.552   7.401   5.595
12944TIP3    H238776   5.693   7.347   5.575
12945TIP3   OH238777   2.307   1.360   0.975
12945TIP3    H138778   2.303   1.440   0.923
12945TIP3    H238779   2.400   1.352   0.998
12946TIP3   OH238780   6.004   4.986   0.089
12946TIP3    H138781   6.006   4.893   0.111
12946TIP3    H238782   6.072   5.025   0.145
12947TIP3   OH238783   0.236   3.586   5.081
12947TIP3    H138784   0.321   3.628   5.069
12947TIP3    H238785   0.173   3.651   5.050
12948TIP3   OH238786   0.708   1.538   2.947
12948TIP3    H138787   0.695   1.537   3.042
12948TIP3    H238788   0.737   1.449   2.926
12949TIP3   OH238789   3.854   2.623   5.182
12949TIP3    H138790   3.862   2.668   5.267
12949TIP3    H238791   3.771   2.653   5.146
12950TIP3   OH238792   4.378   0.713   5.912
12950TIP3    H138793   4.303   0.769   5.927
12950TIP3    H238794   4.360   0.668   5.830
12951TIP3   OH238795   2.773   0.260   4.102
12951TIP3    H138796   2.845   0.286   4.160
12951TIP3    H238797   2.701   0.238   4.162
12952TIP3   OH238798   3.987   6.248   3.982
12952TIP3    H138799   3.912   6.296   3.947
12952TIP3    H238800   4.006   6.182   3.916
12953TIP3   OH238801   5.935   7.386   2.470
12953TIP3    H138802   5.863   7.428   2.516
12953TIP3    H238803   6.006   7.382   2.535
12954TIP3   OH238804   5.362   2.161   1.110
12954TIP3    H138805   5.286   2.136   1.161
12954TIP3    H238806   5.384   2.249   1.141
12955TIP3   OH238807   2.990   3.368   4.975
12955TIP3    H138808   3.047   3.443   4.958
12955TIP3    H238809   3.044   3.292   4.959
12956TIP3   OH238810   3.244   5.804   5.683
12956TIP3    H138811   3.174   5.790   5.619
12956TIP3    H238812   3.204   5.857   5.751
12957TIP3   OH238813   1.531   3.158   1.229
12957TIP3    H138814   1.591   3.125   1.162
12957TIP3    H238815   1.463   3.204   1.180
12958TIP3   OH238816   0.424   1.281   2.709
12958TIP3    H138817   0.489   1.210   2.705
12958TIP3    H238818   0.361   1.259   2.641
12959TIP3   OH238819   5.678   5.271   6.185
12959TIP3    H138820   5.692   5.277   6.090
12959TIP3    H238821   5.587   5.296   6.197
12960TIP3   OH238822   1.290   6.544   0.500
12960TIP3    H138823   1.296   6.456   0.537
12960TIP3    H238824   1.374   6.558   0.456
12961TIP3   OH238825   7.636   7.077   2.871
12961TIP3    H138826   7.549   7.051   2.901
12961TIP3    H238827   7.696   7.039   2.934
12962TIP3   OH238828   5.390   1.525   6.395
12962TIP3    H138829   5.479   1.559   6.383
12962TIP3    H238830   5.352   1.526   6.307
12963TIP3   OH238831   8.188   2.620   6.395
12963TIP3    H138832   8.093   2.631   6.402
12963TIP3    H238833   8.207   2.542   6.447
12964TIP3   OH238834   1.206   0.967   3.128
12964TIP3    H138835   1.124   0.993   3.086
12964TIP3    H238836   1.227   0.881   3.090
12965TIP3   OH238837   4.768   7.326   6.313
12965TIP3    H138838   4.683   7.370   6.322
12965TIP3    H238839   4.832   7.391   6.342
12966TIP3   OH238840   0.702   7.191   0.978
12966TIP3    H138841   0.773   7.192   0.914
12966TIP3    H238842   0.688   7.284   0.999
12967TIP3   OH238843   7.334   2.856   1.572
12967TIP3    H138844   7.351   2.933   1.627
12967TIP3    H238845   7.419   2.812   1.566
12968TIP3   OH238846   6.238   0.801   3.088
12968TIP3    H138847   6.145   0.818   3.102
12968TIP3    H238848   6.241   0.757   3.003
12969TIP3   OH238849   1.520   5.039   0.493
12969TIP3    H138850   1.498   5.128   0.520
12969TIP3    H238851   1.451   5.015   0.430
12970TIP3   OH238852   0.641   1.783   2.080
12970TIP3    H138853   0.606   1.801   2.167
12970TIP3    H238854   0.731   1.815   2.083
12971TIP3   OH238855   1.642   3.665   1.086
12971TIP3    H138856   1.552   3.669   1.119
12971TIP3    H238857   1.689   3.731   1.137
12972TIP3   OH238858   7.778   6.836   5.962
12972TIP3    H138859   7.843   6.863   5.897
12972TIP3    H238860   7.761   6.744   5.942
12973TIP3   OH238861   7.938   5.548   5.738
12973TIP3    H138862   7.941   5.466   5.688
12973TIP3    H238863   7.846   5.574   5.733
12974TIP3   OH238864   4.857   4.272   5.149
12974TIP3    H138865   4.890   4.264   5.060
12974TIP3    H238866   4.800   4.349   5.147
12975TIP3   OH238867   2.564   5.655   4.226
12975TIP3    H138868   2.593   5.574   4.267
12975TIP3    H238869   2.585   5.723   4.290
12976TIP3   OH238870   3.385   1.298   3.831
12976TIP3    H138871   3.334   1.352   3.771
12976TIP3    H238872   3.334   1.217   3.840
12977TIP3   OH238873   1.523   4.303   5.230
12977TIP3    H138874   1.446   4.257   5.196
12977TIP3    H238875   1.539   4.264   5.315
12978TIP3   OH238876   3.438   1.089   0.014
12978TIP3    H138877   3.433   1.105   0.108
12978TIP3    H238878   3.357   1.041  -0.006
12979TIP3   OH238879   4.780   2.890   1.115
12979TIP3    H138880   4.803   2.872   1.024
12979TIP3    H238881   4.848   2.847   1.167
12980TIP3   OH238882   3.424   0.616   6.007
12980TIP3    H138883   3.385   0.703   6.001
12980TIP3    H238884   3.511   0.626   5.967
12981TIP3   OH238885   4.793   7.666   5.065
12981TIP3    H138886   4.865   7.727   5.047
12981TIP3    H238887   4.786   7.665   5.160
12982TIP3   OH238888   8.049   7.490   5.481
12982TIP3    H138889   8.088   7.440   5.552
12982TIP3    H238890   7.979   7.541   5.522
12983TIP3   OH238891   6.311   4.026   2.710
12983TIP3    H138892   6.321   4.099   2.771
12983TIP3    H238893   6.373   4.045   2.640
12984TIP3   OH238894   5.723   5.305   2.411
12984TIP3    H138895   5.649   5.319   2.351
12984TIP3    H238896   5.722   5.211   2.429
12985TIP3   OH238897   5.128   1.479   0.026
12985TIP3    H138898   5.155   1.497   0.116
12985TIP3    H238899   5.039   1.446   0.034
12986TIP3   OH238900   6.035   5.888   0.558
12986TIP3    H138901   6.015   5.836   0.636
12986TIP3    H238902   6.121   5.856   0.529
12987TIP3   OH238903   5.990   5.801   3.176
12987TIP3    H138904   5.921   5.831   3.117
12987TIP3    H238905   5.949   5.798   3.262
12988TIP3   OH238906   2.385   5.963   1.144
12988TIP3    H138907   2.375   6.058   1.138
12988TIP3    H238908   2.409   5.947   1.235
12989TIP3   OH238909   0.888   2.742   1.032
12989TIP3    H138910   0.925   2.665   1.076
12989TIP3    H238911   0.818   2.707   0.977
12990TIP3   OH238912   5.901   7.110   6.461
12990TIP3    H138913   5.870   7.148   6.379
12990TIP3    H238914   5.928   7.021   6.439
12991TIP3   OH238915   1.889   4.659   0.306
12991TIP3    H138916   1.845   4.579   0.276
12991TIP3    H238917   1.892   4.650   0.401
12992TIP3   OH238918   3.789   3.599   6.578
12992TIP3    H138919   3.710   3.552   6.604
12992TIP3    H238920   3.786   3.600   6.482
12993TIP3   OH238921   0.823   2.098   0.691
12993TIP3    H138922   0.893   2.075   0.630
12993TIP3    H238923   0.747   2.115   0.636
12994TIP3   OH238924   6.458   1.449   1.124
12994TIP3    H138925   6.388   1.388   1.102
12994TIP3    H238926   6.520   1.443   1.051
12995TIP3   OH238927   6.868   5.767   3.816
12995TIP3    H138928   6.796   5.760   3.753
12995TIP3    H238929   6.845   5.842   3.870
12996TIP3   OH238930   2.406   6.697   6.536
12996TIP3    H138931   2.430   6.789   6.519
12996TIP3    H238932   2.319   6.702   6.575
12997TIP3   OH238933   4.445   2.230   3.696
12997TIP3    H138934   4.538   2.245   3.683
12997TIP3    H238935   4.422   2.280   3.774
12998TIP3   OH238936   2.198   2.854   0.450
12998TIP3    H138937   2.255   2.796   0.398
12998TIP3    H238938   2.129   2.879   0.389
12999TIP3   OH238939   8.292   3.395   2.015
12999TIP3    H138940   8.271   3.388   1.922
12999TIP3    H238941   8.274   3.308   2.051
13000TIP3   OH238942   7.581   4.589   3.472
13000TIP3    H138943   7.578   4.654   3.542
13000TIP3    H238944   7.657   4.613   3.420
13001TIP3   OH238945   3.164   4.945   2.062
13001TIP3    H138946   3.082   4.968   2.018
13001TIP3    H238947   3.205   5.029   2.081
13002TIP3   OH238948   6.843   0.022   3.158
13002TIP3    H138949   6.896   0.010   3.236
13002TIP3    H238950   6.846  -0.063   3.113
13003TIP3   OH238951   5.650   4.934   2.984
13003TIP3    H138952   5.598   4.887   3.050
13003TIP3    H238953   5.629   5.026   2.997
13004TIP3   OH238954   0.839   2.239   2.525
13004TIP3    H138955   0.784   2.244   2.603
13004TIP3    H238956   0.792   2.290   2.459
13005TIP3   OH238957   1.555   0.037   5.934
13005TIP3    H138958   1.571   0.093   6.010
13005TIP3    H238959   1.626  -0.027   5.936
13006TIP3   OH238960   5.682   6.184   6.768
13006TIP3    H138961   5.597   6.205   6.806
13006TIP3    H238962   5.683   6.227   6.683
13007TIP3   OH238963   4.205   7.581   3.470
13007TIP3    H138964   4.142   7.522   3.428
13007TIP3    H238965   4.231   7.535   3.550
13008TIP3   OH238966   3.482   1.373   0.583
13008TIP3    H138967   3.578   1.371   0.586
13008TIP3    H238968   3.456   1.281   0.590
13009TIP3   OH238969   2.915   2.159   0.939
13009TIP3    H138970   2.952   2.212   1.009
13009TIP3    H238971   2.832   2.202   0.917
13010TIP3   OH238972   8.215   0.804   6.751
13010TIP3    H138973   8.156   0.824   6.678
13010TIP3    H238974   8.282   0.748   6.713
13011TIP3   OH238975   3.748   7.277   4.257
13011TIP3    H138976   3.694   7.354   4.242
13011TIP3    H238977   3.744   7.228   4.174
13012TIP3   OH238978   2.560   0.311   2.745
13012TIP3    H138979   2.505   0.344   2.817
13012TIP3    H238980   2.529   0.222   2.730
13013TIP3   OH238981   5.191   1.302   2.295
13013TIP3    H138982   5.184   1.223   2.243
13013TIP3    H238983   5.138   1.285   2.373
13014TIP3   OH238984   3.891   7.648   5.348
13014TIP3    H138985   3.922   7.586   5.282
13014TIP3    H238986   3.810   7.683   5.312
13015TIP3   OH238987   5.212   4.907   5.083
13015TIP3    H138988   5.199   4.984   5.029
13015TIP3    H238989   5.302   4.880   5.066
13016TIP3   OH238990   6.193   0.480   3.056
13016TIP3    H138991   6.209   0.473   2.961
13016TIP3    H238992   6.118   0.423   3.071
13017TIP3   OH238993   6.802   2.338   3.466
13017TIP3    H138994   6.739   2.410   3.466
13017TIP3    H238995   6.808   2.311   3.557
13018TIP3   OH238996   7.568   4.071   5.007
13018TIP3    H138997   7.509   4.141   4.979
13018TIP3    H238998   7.650   4.087   4.960
13019TIP3   OH238999   0.509   0.265   2.905
13019TIP3    H139000   0.415   0.277   2.892
13019TIP3    H239001   0.530   0.184   2.859
13020TIP3   OH239002   5.960   1.549   4.874
13020TIP3    H139003   5.997   1.578   4.957
13020TIP3    H239004   5.883   1.498   4.898
13021TIP3   OH239005   8.127   3.546   5.685
13021TIP3    H139006   8.051   3.493   5.709
13021TIP3    H239007   8.150   3.516   5.597
13022TIP3   OH239008   0.817   6.764   0.640
13022TIP3    H139009   0.884   6.698   0.658
13022TIP3    H239010   0.842   6.839   0.693
13023TIP3   OH239011   1.434   1.702   5.919
13023TIP3    H139012   1.481   1.764   5.975
13023TIP3    H239013   1.360   1.673   5.972
13024TIP3   OH239014   5.796   7.723   3.302
13024TIP3    H139015   5.811   7.650   3.243
13024TIP3    H239016   5.865   7.786   3.281
13025TIP3   OH239017   0.769   5.570   3.977
13025TIP3    H139018   0.764   5.612   4.063
13025TIP3    H239019   0.836   5.618   3.930
13026TIP3   OH239020   1.186   7.205   3.434
13026TIP3    H139021   1.228   7.119   3.425
13026TIP3    H239022   1.228   7.259   3.367
13027TIP3   OH239023   2.816   2.851   0.689
13027TIP3    H139024   2.783   2.851   0.779
13027TIP3    H239025   2.911   2.847   0.699
13028TIP3   OH239026   6.255   7.193   4.499
13028TIP3    H139027   6.332   7.144   4.469
13028TIP3    H239028   6.281   7.226   4.585
13029TIP3   OH239029   5.664   1.554   4.687
13029TIP3    H139030   5.683   1.634   4.736
13029TIP3    H239031   5.581   1.522   4.723
13030TIP3   OH239032   0.820   0.522   0.557
13030TIP3    H139033   0.890   0.529   0.622
13030TIP3    H239034   0.809   0.429   0.542
13031TIP3   OH239035   3.468   2.796   2.758
13031TIP3    H139036   3.493   2.705   2.741
13031TIP3    H239037   3.374   2.799   2.741
13032TIP3   OH239038   2.423   5.474   2.228
13032TIP3    H139039   2.509   5.483   2.186
13032TIP3    H239040   2.397   5.384   2.209
13033TIP3   OH239041   6.911   6.429   5.682
13033TIP3    H139042   6.957   6.411   5.764
13033TIP3    H239043   6.945   6.513   5.652
13034TIP3   OH239044   0.194   3.079   1.906
13034TIP3    H139045   0.254   3.124   1.966
13034TIP3    H239046   0.147   3.016   1.962
13035TIP3   OH239047   2.076   2.722   2.048
13035TIP3    H139048   2.167   2.735   2.022
13035TIP3    H239049   2.080   2.701   2.141
13036TIP3   OH239050   1.368   5.614   0.627
13036TIP3    H139051   1.281   5.582   0.602
13036TIP3    H239052   1.355   5.708   0.643
13037TIP3   OH239053   4.349   3.681   6.174
13037TIP3    H139054   4.349   3.716   6.085
13037TIP3    H239055   4.258   3.692   6.204
13038TIP3   OH239056   6.779   4.109   4.170
13038TIP3    H139057   6.835   4.170   4.216
13038TIP3    H239058   6.807   4.022   4.200
13039TIP3   OH239059   7.601   4.773   6.673
13039TIP3    H139060   7.508   4.751   6.663
13039TIP3    H239061   7.637   4.765   6.585
13040TIP3   OH239062   2.542   3.467   6.235
13040TIP3    H139063   2.449   3.447   6.226
13040TIP3    H239064   2.546   3.563   6.240
13041TIP3   OH239065   4.863   0.253   3.909
13041TIP3    H139066   4.935   0.247   3.971
13041TIP3    H239067   4.893   0.205   3.832
13042TIP3   OH239068   3.153   1.218   1.013
13042TIP3    H139069   3.210   1.173   1.075
13042TIP3    H239070   3.189   1.306   1.006
13043TIP3   OH239071   6.447   3.400   4.462
13043TIP3    H139072   6.452   3.402   4.558
13043TIP3    H239073   6.512   3.334   4.437
13044TIP3   OH239074   6.943   3.858   4.243
13044TIP3    H139075   6.985   3.787   4.194
13044TIP3    H239076   7.015   3.899   4.291
13045TIP3   OH239077   0.363   0.870   2.568
13045TIP3    H139078   0.360   0.925   2.646
13045TIP3    H239079   0.279   0.886   2.524
13046TIP3   OH239080   1.514   5.348   5.293
13046TIP3    H139081   1.440   5.391   5.250
13046TIP3    H239082   1.476   5.272   5.337
13047TIP3   OH239083   6.726   2.285   2.947
13047TIP3    H139084   6.767   2.312   3.029
13047TIP3    H239085   6.799   2.265   2.889
13048TIP3   OH239086   7.112   1.732   5.361
13048TIP3    H139087   7.163   1.795   5.413
13048TIP3    H239088   7.033   1.717   5.413
13049TIP3   OH239089   0.596   4.589   1.305
13049TIP3    H139090   0.561   4.673   1.274
13049TIP3    H239091   0.679   4.611   1.346
13050TIP3   OH239092   5.937   5.617   2.911
13050TIP3    H139093   5.852   5.658   2.924
13050TIP3    H239094   5.918   5.525   2.894
13051TIP3   OH239095   4.074   4.196   0.880
13051TIP3    H139096   4.131   4.257   0.927
13051TIP3    H239097   4.026   4.251   0.817
13052TIP3   OH239098   4.760   3.649   5.994
13052TIP3    H139099   4.822   3.614   6.059
13052TIP3    H239100   4.815   3.677   5.921
13053TIP3   OH239101   1.039   6.618   3.279
13053TIP3    H139102   1.115   6.576   3.238
13053TIP3    H239103   0.999   6.669   3.208
13054TIP3   OH239104   3.857   3.978   0.560
13054TIP3    H139105   3.929   3.917   0.573
13054TIP3    H239106   3.844   3.980   0.465
13055TIP3   OH239107   5.963   7.463   1.253
13055TIP3    H139108   5.941   7.552   1.279
13055TIP3    H239109   5.879   7.417   1.248
13056TIP3   OH239110   5.801   7.866   5.827
13056TIP3    H139111   5.750   7.936   5.868
13056TIP3    H239112   5.741   7.792   5.821
13057TIP3   OH239113   0.206   6.529   0.630
13057TIP3    H139114   0.289   6.555   0.588
13057TIP3    H239115   0.212   6.564   0.719
13058TIP3   OH239116   5.514   1.999   0.957
13058TIP3    H139117   5.474   2.073   1.004
13058TIP3    H239118   5.551   2.039   0.879
13059TIP3   OH239119   2.891   6.906   5.243
13059TIP3    H139120   2.815   6.894   5.185
13059TIP3    H239121   2.853   6.908   5.331
13060TIP3   OH239122   3.076   2.949   4.252
13060TIP3    H139123   3.131   2.870   4.255
13060TIP3    H239124   3.008   2.929   4.188
13061TIP3   OH239125   4.046   1.543   1.395
13061TIP3    H139126   4.050   1.525   1.489
13061TIP3    H239127   4.043   1.638   1.389
13062TIP3   OH239128   2.992   0.175   0.235
13062TIP3    H139129   2.974   0.226   0.155
13062TIP3    H239130   3.077   0.135   0.219
13063TIP3   OH239131   4.145   3.264   0.745
13063TIP3    H139132   4.104   3.309   0.819
13063TIP3    H239133   4.227   3.230   0.780
13064TIP3   OH239134   6.468   6.224   1.882
13064TIP3    H139135   6.409   6.283   1.930
13064TIP3    H239136   6.501   6.276   1.809
13065TIP3   OH239137   6.343   4.867   1.882
13065TIP3    H139138   6.283   4.919   1.936
13065TIP3    H239139   6.334   4.903   1.794
13066TIP3   OH239140   7.142   7.707   3.223
13066TIP3    H139141   7.136   7.759   3.303
13066TIP3    H239142   7.154   7.617   3.254
13067TIP3   OH239143   2.794   0.555   0.258
13067TIP3    H139144   2.739   0.629   0.232
13067TIP3    H239145   2.834   0.526   0.176
13068TIP3   OH239146   2.950   1.197   1.222
13068TIP3    H139147   2.919   1.286   1.240
13068TIP3    H239148   3.044   1.208   1.204
13069TIP3   OH239149   7.280   4.711   3.685
13069TIP3    H139150   7.215   4.770   3.723
13069TIP3    H239151   7.355   4.767   3.665
13070TIP3   OH239152   0.062   0.975   5.538
13070TIP3    H139153   0.039   0.949   5.448
13070TIP3    H239154  -0.022   0.994   5.580
13071TIP3   OH239155   3.999   7.601   4.049
13071TIP3    H139156   4.025   7.675   3.994
13071TIP3    H239157   4.074   7.541   4.045
13072TIP3   OH239158   1.489   4.305   2.715
13072TIP3    H139159   1.572   4.325   2.672
13072TIP3    H239160   1.512   4.240   2.782
13073TIP3   OH239161   5.426   7.004   6.613
13073TIP3    H139162   5.449   7.050   6.693
13073TIP3    H239163   5.352   6.949   6.636
13074TIP3   OH239164   4.413   6.863   6.230
13074TIP3    H139165   4.396   6.835   6.320
13074TIP3    H239166   4.378   6.952   6.226
13075TIP3   OH239167   7.225   3.368   1.969
13075TIP3    H139168   7.292   3.420   1.925
13075TIP3    H239169   7.151   3.428   1.980
13076TIP3   OH239170   2.140   1.117   5.521
13076TIP3    H139171   2.187   1.184   5.571
13076TIP3    H239172   2.114   1.162   5.441
13077TIP3   OH239173   0.370   7.243   0.053
13077TIP3    H139174   0.371   7.163   0.001
13077TIP3    H239175   0.385   7.213   0.143
13078TIP3   OH239176   2.488   5.213   2.615
13078TIP3    H139177   2.551   5.263   2.666
13078TIP3    H239178   2.439   5.280   2.566
13079TIP3   OH239179   2.732   5.942   3.408
13079TIP3    H139180   2.781   5.955   3.489
13079TIP3    H239181   2.684   6.023   3.395
13080TIP3   OH239182   2.163   6.316   3.013
13080TIP3    H139183   2.124   6.399   3.039
13080TIP3    H239184   2.254   6.321   3.042
13081TIP3   OH239185   1.042   4.565   0.077
13081TIP3    H139186   1.083   4.652   0.082
13081TIP3    H239187   1.089   4.513   0.142
13082TIP3   OH239188   3.201   6.321   0.850
13082TIP3    H139189   3.208   6.238   0.897
13082TIP3    H239190   3.110   6.324   0.820
13083TIP3   OH239191   5.689   4.233   1.287
13083TIP3    H139192   5.735   4.199   1.364
13083TIP3    H239193   5.693   4.161   1.224
13084TIP3   OH239194   7.127   1.582   0.961
13084TIP3    H139195   7.098   1.659   1.011
13084TIP3    H239196   7.196   1.544   1.015
13085TIP3   OH239197   4.685   4.869   2.378
13085TIP3    H139198   4.759   4.899   2.430
13085TIP3    H239199   4.674   4.777   2.403
13086TIP3   OH239200   3.917   2.382   5.093
13086TIP3    H139201   3.898   2.473   5.115
13086TIP3    H239202   3.858   2.330   5.146
13087TIP3   OH239203   5.364   2.131   6.754
13087TIP3    H139204   5.315   2.050   6.766
13087TIP3    H239205   5.455   2.103   6.744
13088TIP3   OH239206   2.475   1.423   4.291
13088TIP3    H139207   2.452   1.514   4.310
13088TIP3    H239208   2.392   1.376   4.293
13089TIP3   OH239209   1.543   7.638   3.945
13089TIP3    H139210   1.619   7.673   3.990
13089TIP3    H239211   1.503   7.714   3.902
13090TIP3   OH239212   7.749   5.372   2.763
13090TIP3    H139213   7.805   5.301   2.793
13090TIP3    H239214   7.773   5.384   2.671
13091TIP3   OH239215   3.603   2.207   1.138
13091TIP3    H139216   3.629   2.117   1.120
13091TIP3    H239217   3.509   2.201   1.157
13092TIP3   OH239218   5.603   6.877   2.061
13092TIP3    H139219   5.520   6.898   2.019
13092TIP3    H239220   5.589   6.791   2.100
13093TIP3   OH239221   2.794   0.105   5.835
13093TIP3    H139222   2.701   0.086   5.824
13093TIP3    H239223   2.807   0.190   5.793
13094TIP3   OH239224   2.134   4.071   6.762
13094TIP3    H139225   2.085   4.149   6.789
13094TIP3    H239226   2.094   4.045   6.679
13095TIP3   OH239227   1.993   7.298   4.945
13095TIP3    H139228   2.043   7.330   4.870
13095TIP3    H239229   1.904   7.331   4.932
13096TIP3   OH239230   3.455   6.444   1.617
13096TIP3    H139231   3.399   6.387   1.564
13096TIP3    H239232   3.395   6.509   1.654
13097TIP3   OH239233   3.980   4.185   6.147
13097TIP3    H139234   3.966   4.278   6.165
13097TIP3    H239235   4.041   4.185   6.072
13098TIP3   OH239236   4.051   4.315   3.203
13098TIP3    H139237   4.086   4.284   3.120
13098TIP3    H239238   3.999   4.242   3.237
13099TIP3   OH239239   5.798   1.858   0.855
13099TIP3    H139240   5.799   1.914   0.932
13099TIP3    H239241   5.885   1.868   0.816
13100TIP3   OH239242   0.670   3.954   4.645
13100TIP3    H139243   0.599   3.894   4.670
13100TIP3    H239244   0.664   4.025   4.709
13101TIP3   OH239245   1.722   5.265   5.645
13101TIP3    H139246   1.629   5.290   5.646
13101TIP3    H239247   1.767   5.340   5.683
13102TIP3   OH239248   1.942   2.879   2.684
13102TIP3    H139249   1.904   2.927   2.758
13102TIP3    H239250   2.019   2.835   2.721
13103TIP3   OH239251   6.228   1.121   1.766
13103TIP3    H139252   6.228   1.031   1.798
13103TIP3    H239253   6.320   1.139   1.746
13104TIP3   OH239254   0.308   2.962   3.278
13104TIP3    H139255   0.363   2.939   3.353
13104TIP3    H239256   0.250   3.031   3.311
13105TIP3   OH239257   2.277   7.176   6.265
13105TIP3    H139258   2.272   7.084   6.241
13105TIP3    H239259   2.322   7.218   6.192
13106TIP3   OH239260   7.201   3.918   1.580
13106TIP3    H139261   7.211   3.912   1.485
13106TIP3    H239262   7.191   3.828   1.610
13107TIP3   OH239263   3.490   3.075   3.589
13107TIP3    H139264   3.501   3.047   3.680
13107TIP3    H239265   3.579   3.090   3.558
13108TIP3   OH239266   6.325   2.556   1.022
13108TIP3    H139267   6.357   2.506   1.097
13108TIP3    H239268   6.308   2.644   1.057
13109TIP3   OH239269   6.912   0.870   6.117
13109TIP3    H139270   6.952   0.807   6.177
13109TIP3    H239271   6.929   0.955   6.156
13110TIP3   OH239272   0.327   0.574   2.389
13110TIP3    H139273   0.351   0.652   2.339
13110TIP3    H239274   0.351   0.501   2.332
13111TIP3   OH239275   6.323   6.552   1.377
13111TIP3    H139276   6.315   6.610   1.300
13111TIP3    H239277   6.292   6.605   1.450
13112TIP3   OH239278   3.442   5.265   6.271
13112TIP3    H139279   3.391   5.299   6.344
13112TIP3    H239280   3.438   5.334   6.205
13113TIP3   OH239281   2.558   6.099   6.161
13113TIP3    H139282   2.514   6.014   6.156
13113TIP3    H239283   2.487   6.161   6.180
13114TIP3   OH239284   0.667   1.473   2.556
13114TIP3    H139285   0.742   1.481   2.497
13114TIP3    H239286   0.700   1.427   2.633
13115TIP3   OH239287   3.883   3.594   5.032
13115TIP3    H139288   3.921   3.513   4.999
13115TIP3    H239289   3.851   3.571   5.120
13116TIP3   OH239290   0.528   0.127   4.284
13116TIP3    H139291   0.555   0.053   4.338
13116TIP3    H239292   0.464   0.173   4.337
13117TIP3   OH239293   3.184   1.721   0.611
13117TIP3    H139294   3.130   1.644   0.630
13117TIP3    H239295   3.245   1.726   0.685
13118TIP3   OH239296   5.132   5.629   3.203
13118TIP3    H139297   5.200   5.580   3.156
13118TIP3    H239298   5.141   5.601   3.294
13119TIP3   OH239299   6.646   4.437   6.656
13119TIP3    H139300   6.589   4.427   6.580
13119TIP3    H239301   6.612   4.513   6.702
13120TIP3   OH239302   7.597   2.772   1.514
13120TIP3    H139303   7.634   2.802   1.597
13120TIP3    H239304   7.603   2.848   1.456
13121TIP3   OH239305   3.293   2.979   6.132
13121TIP3    H139306   3.362   2.916   6.150
13121TIP3    H239307   3.213   2.927   6.125
13122TIP3   OH239308   8.319   0.194   2.928
13122TIP3    H139309   8.310   0.231   3.016
13122TIP3    H239310   8.285   0.262   2.870
13123TIP3   OH239311   4.848   2.262   0.530
13123TIP3    H139312   4.759   2.277   0.560
13123TIP3    H239313   4.840   2.191   0.466
13124TIP3   OH239314   7.929   2.490   0.379
13124TIP3    H139315   7.867   2.446   0.437
13124TIP3    H239316   7.879   2.561   0.339
13125TIP3   OH239317   6.549   2.826   5.599
13125TIP3    H139318   6.474   2.868   5.641
13125TIP3    H239319   6.553   2.740   5.641
13126TIP3   OH239320   0.572   2.524   3.987
13126TIP3    H139321   0.587   2.464   3.914
13126TIP3    H239322   0.652   2.519   4.039
13127TIP3   OH239323   1.159   6.585   4.146
13127TIP3    H139324   1.093   6.560   4.082
13127TIP3    H239325   1.191   6.670   4.115
13128TIP3   OH239326   6.469   4.296   6.157
13128TIP3    H139327   6.550   4.345   6.168
13128TIP3    H239328   6.448   4.305   6.064
13129TIP3   OH239329   8.065   5.581   3.345
13129TIP3    H139330   8.098   5.592   3.256
13129TIP3    H239331   8.098   5.657   3.393
13130TIP3   OH239332   6.745   4.375   1.444
13130TIP3    H139333   6.674   4.387   1.506
13130TIP3    H239334   6.746   4.281   1.426
13131TIP3   OH239335   4.296   0.802   6.561
13131TIP3    H139336   4.377   0.833   6.602
13131TIP3    H239337   4.243   0.771   6.635
13132TIP3   OH239338   4.965   4.438   4.387
13132TIP3    H139339   5.020   4.387   4.329
13132TIP3    H239340   4.938   4.514   4.335
13133TIP3   OH239341   3.207   2.721   5.273
13133TIP3    H139342   3.234   2.656   5.208
13133TIP3    H239343   3.112   2.725   5.264
13134TIP3   OH239344   6.376   1.817   2.515
13134TIP3    H139345   6.290   1.839   2.481
13134TIP3    H239346   6.364   1.807   2.609
13135TIP3   OH239347   0.080   6.672   3.445
13135TIP3    H139348   0.103   6.657   3.353
13135TIP3    H239349   0.115   6.596   3.492
13136TIP3   OH239350   2.338   4.297   1.134
13136TIP3    H139351   2.363   4.205   1.134
13136TIP3    H239352   2.336   4.321   1.041
13137TIP3   OH239353   6.984   5.713   4.223
13137TIP3    H139354   6.992   5.805   4.248
13137TIP3    H239355   6.978   5.714   4.127
13138TIP3   OH239356   5.150   6.033   4.057
13138TIP3    H139357   5.165   5.988   3.973
13138TIP3    H239358   5.218   5.998   4.115
13139TIP3   OH239359   3.021   3.440   2.559
13139TIP3    H139360   2.976   3.377   2.502
13139TIP3    H239361   2.963   3.517   2.560
13140TIP3   OH239362   5.358   4.051   2.754
13140TIP3    H139363   5.367   4.121   2.819
13140TIP3    H239364   5.267   4.059   2.723
13141TIP3   OH239365   1.179   4.969   3.065
13141TIP3    H139366   1.265   4.965   3.023
13141TIP3    H239367   1.156   4.877   3.081
13142TIP3   OH239368   0.780   5.836   3.181
13142TIP3    H139369   0.787   5.843   3.276
13142TIP3    H239370   0.719   5.764   3.167
13143TIP3   OH239371   1.936   2.559   4.071
13143TIP3    H139372   1.892   2.628   4.120
13143TIP3    H239373   1.905   2.569   3.981
13144TIP3   OH239374   1.543   4.427   5.503
13144TIP3    H139375   1.578   4.338   5.506
13144TIP3    H239376   1.595   4.476   5.566
13145TIP3   OH239377   2.141   7.649   3.471
13145TIP3    H139378   2.232   7.647   3.441
13145TIP3    H239379   2.148   7.647   3.566
13146TIP3   OH239380   4.208   0.909   5.885
13146TIP3    H139381   4.174   0.933   5.971
13146TIP3    H239382   4.150   0.953   5.823
13147TIP3   OH239383   6.127   0.035   2.752
13147TIP3    H139384   6.054   0.095   2.766
13147TIP3    H239385   6.185   0.051   2.827
13148TIP3   OH239386   5.579   5.373   1.573
13148TIP3    H139387   5.612   5.446   1.626
13148TIP3    H239388   5.655   5.317   1.560
13149TIP3   OH239389   3.111   7.078   6.434
13149TIP3    H139390   3.122   7.172   6.422
13149TIP3    H239391   3.095   7.044   6.346
13150TIP3   OH239392   1.149   7.393   0.391
13150TIP3    H139393   1.116   7.458   0.453
13150TIP3    H239394   1.070   7.346   0.363
13151TIP3   OH239395   3.349   3.888   4.360
13151TIP3    H139396   3.354   3.814   4.300
13151TIP3    H239397   3.389   3.855   4.441
13152TIP3   OH239398   1.030   6.538   4.666
13152TIP3    H139399   1.068   6.579   4.588
13152TIP3    H239400   0.937   6.563   4.663
13153TIP3   OH239401   4.462   3.945   3.287
13153TIP3    H139402   4.381   3.915   3.329
13153TIP3    H239403   4.505   3.998   3.354
13154TIP3   OH239404   7.300   4.406   2.465
13154TIP3    H139405   7.324   4.497   2.452
13154TIP3    H239406   7.270   4.401   2.556
13155TIP3   OH239407   0.558   5.953   4.103
13155TIP3    H139408   0.518   5.881   4.055
13155TIP3    H239409   0.578   5.916   4.189
13156TIP3   OH239410   1.348   3.730   1.120
13156TIP3    H139411   1.319   3.760   1.207
13156TIP3    H239412   1.315   3.797   1.060
13157TIP3   OH239413   6.016   1.143   3.318
13157TIP3    H139414   5.963   1.134   3.238
13157TIP3    H239415   5.953   1.166   3.386
13158TIP3   OH239416   6.483   1.163   6.597
13158TIP3    H139417   6.505   1.156   6.690
13158TIP3    H239418   6.407   1.105   6.586
13159TIP3   OH239419   4.829   7.456   0.249
13159TIP3    H139420   4.766   7.527   0.263
13159TIP3    H239421   4.812   7.427   0.160
13160TIP3   OH239422   4.675   4.435   2.525
13160TIP3    H139423   4.593   4.483   2.536
13160TIP3    H239424   4.662   4.354   2.575
13161TIP3   OH239425   5.041   7.296   3.360
13161TIP3    H139426   5.031   7.388   3.383
13161TIP3    H239427   5.134   7.287   3.337
13162TIP3   OH239428   2.733   5.941   5.726
13162TIP3    H139429   2.664   5.996   5.762
13162TIP3    H239430   2.744   5.871   5.791
13163TIP3   OH239431   0.301   5.168   3.045
13163TIP3    H139432   0.339   5.243   3.090
13163TIP3    H239433   0.216   5.200   3.013
13164TIP3   OH239434   2.642   4.398   0.175
13164TIP3    H139435   2.722   4.447   0.196
13164TIP3    H239436   2.672   4.309   0.157
13165TIP3   OH239437   1.525   7.226   3.469
13165TIP3    H139438   1.554   7.183   3.549
13165TIP3    H239439   1.491   7.155   3.415
13166TIP3   OH239440   2.144   7.468   5.798
13166TIP3    H139441   2.051   7.473   5.774
13166TIP3    H239442   2.173   7.384   5.764
13167TIP3   OH239443   4.093   5.429   2.811
13167TIP3    H139444   4.081   5.475   2.894
13167TIP3    H239445   4.046   5.482   2.747
13168TIP3   OH239446   1.817   4.226   4.145
13168TIP3    H139447   1.897   4.238   4.196
13168TIP3    H239448   1.746   4.241   4.207
13169TIP3   OH239449   6.505   3.444   1.831
13169TIP3    H139450   6.515   3.440   1.736
13169TIP3    H239451   6.440   3.377   1.851
13170TIP3   OH239452   4.556   4.719   3.537
13170TIP3    H139453   4.527   4.796   3.489
13170TIP3    H239454   4.515   4.645   3.491
13171TIP3   OH239455   2.871   4.178   4.166
13171TIP3    H139456   2.925   4.223   4.101
13171TIP3    H239457   2.798   4.143   4.115
13172TIP3   OH239458   8.129   7.475   4.432
13172TIP3    H139459   8.106   7.558   4.475
13172TIP3    H239460   8.224   7.469   4.442
13173TIP3   OH239461   0.423   7.403   6.621
13173TIP3    H139462   0.349   7.376   6.567
13173TIP3    H239463   0.473   7.462   6.565
13174TIP3   OH239464   5.437   7.444   0.399
13174TIP3    H139465   5.439   7.525   0.347
13174TIP3    H239466   5.482   7.379   0.344
13175TIP3   OH239467   2.231   4.520   3.799
13175TIP3    H139468   2.307   4.525   3.741
13175TIP3    H239469   2.265   4.481   3.880
13176TIP3   OH239470   3.316   6.251   0.510
13176TIP3    H139471   3.233   6.226   0.550
13176TIP3    H239472   3.383   6.220   0.572
13177TIP3   OH239473   0.582   4.774   6.533
13177TIP3    H139474   0.666   4.813   6.508
13177TIP3    H239475   0.571   4.701   6.473
13178TIP3   OH239476   3.811   2.157   2.228
13178TIP3    H139477   3.847   2.213   2.159
13178TIP3    H239478   3.720   2.143   2.202
13179TIP3   OH239479   1.888   1.147   4.064
13179TIP3    H139480   1.817   1.086   4.047
13179TIP3    H239481   1.847   1.220   4.110
13180TIP3   OH239482   2.912   6.021   5.528
13180TIP3    H139483   2.884   6.112   5.535
13180TIP3    H239484   2.847   5.972   5.580
13181TIP3   OH239485   0.886   0.386   6.207
13181TIP3    H139486   0.891   0.317   6.273
13181TIP3    H239487   0.836   0.456   6.249
13182TIP3   OH239488   6.100   5.979   2.576
13182TIP3    H139489   6.050   5.955   2.654
13182TIP3    H239490   6.184   6.010   2.611
13183TIP3   OH239491   4.661   0.626   3.835
13183TIP3    H139492   4.608   0.695   3.795
13183TIP3    H239493   4.620   0.611   3.920
13184TIP3   OH239494   7.990   3.062   6.254
13184TIP3    H139495   7.943   3.123   6.310
13184TIP3    H239496   8.077   3.055   6.293
13185TIP3   OH239497   3.309   6.107   0.992
13185TIP3    H139498   3.302   6.021   0.950
13185TIP3    H239499   3.379   6.096   1.057
13186TIP3   OH239500   6.688   0.803   4.160
13186TIP3    H139501   6.641   0.755   4.093
13186TIP3    H239502   6.772   0.826   4.119
13187TIP3   OH239503   2.808   1.764   4.126
13187TIP3    H139504   2.760   1.814   4.061
13187TIP3    H239505   2.741   1.736   4.189
13188TIP3   OH239506   6.414   1.531   5.083
13188TIP3    H139507   6.491   1.493   5.041
13188TIP3    H239508   6.446   1.612   5.123
13189TIP3   OH239509   2.752   7.376   3.924
13189TIP3    H139510   2.745   7.361   4.018
13189TIP3    H239511   2.661   7.387   3.895
13190TIP3   OH239512   4.675   5.559   2.450
13190TIP3    H139513   4.722   5.596   2.525
13190TIP3    H239514   4.739   5.502   2.407
13191TIP3   OH239515   8.131   4.490   3.340
13191TIP3    H139516   8.106   4.492   3.433
13191TIP3    H239517   8.055   4.523   3.294
13192TIP3   OH239518   1.872   6.337   2.795
13192TIP3    H139519   1.896   6.428   2.816
13192TIP3    H239520   1.839   6.302   2.878
13193TIP3   OH239521   3.209   1.386   4.072
13193TIP3    H139522   3.115   1.368   4.075
13193TIP3    H239523   3.245   1.338   4.146
13194TIP3   OH239524   7.819   6.184   3.130
13194TIP3    H139525   7.849   6.272   3.153
13194TIP3    H239526   7.876   6.125   3.179
13195TIP3   OH239527   0.143   0.571   0.562
13195TIP3    H139528   0.149   0.515   0.639
13195TIP3    H239529   0.063   0.542   0.518
13196TIP3   OH239530   0.087   6.055   5.467
13196TIP3    H139531   0.087   6.061   5.562
13196TIP3    H239532   0.054   6.139   5.437
13197TIP3   OH239533   1.747   6.244   3.053
13197TIP3    H139534   1.798   6.309   3.102
13197TIP3    H239535   1.668   6.291   3.026
13198TIP3   OH239536   8.181   1.991   5.040
13198TIP3    H139537   8.091   2.018   5.019
13198TIP3    H239538   8.185   1.899   5.013
13199TIP3   OH239539   2.317   6.615   0.312
13199TIP3    H139540   2.268   6.567   0.379
13199TIP3    H239541   2.394   6.561   0.295
13200TIP3   OH239542   3.949   3.855   3.486
13200TIP3    H139543   3.911   3.795   3.551
13200TIP3    H239544   3.938   3.810   3.403
13201TIP3   OH239545   5.042   0.486   4.141
13201TIP3    H139546   4.973   0.452   4.198
13201TIP3    H239547   5.086   0.409   4.107
13202TIP3   OH239548   6.268   4.450   0.367
13202TIP3    H139549   6.255   4.540   0.397
13202TIP3    H239550   6.271   4.398   0.447
13203TIP3   OH239551   6.857   6.297   6.306
13203TIP3    H139552   6.797   6.254   6.246
13203TIP3    H239553   6.823   6.276   6.393
13204TIP3   OH239554   3.303   2.413   4.236
13204TIP3    H139555   3.337   2.331   4.201
13204TIP3    H239556   3.269   2.391   4.322
13205TIP3   OH239557   3.177   4.805   3.548
13205TIP3    H139558   3.208   4.738   3.487
13205TIP3    H239559   3.238   4.878   3.536
13206TIP3   OH239560   3.082   5.972   5.322
13206TIP3    H139561   3.035   5.996   5.401
13206TIP3    H239562   3.166   6.019   5.328
13207TIP3   OH239563   4.216   2.370   4.608
13207TIP3    H139564   4.243   2.282   4.581
13207TIP3    H239565   4.256   2.429   4.545
13208TIP3   OH239566   1.373   0.581   1.872
13208TIP3    H139567   1.319   0.532   1.810
13208TIP3    H239568   1.345   0.551   1.958
13209TIP3   OH239569   7.354   2.260   1.124
13209TIP3    H139570   7.436   2.283   1.168
13209TIP3    H239571   7.311   2.344   1.108
13210TIP3   OH239572   1.118   2.131   4.707
13210TIP3    H139573   1.105   2.070   4.634
13210TIP3    H239574   1.164   2.079   4.773
13211TIP3   OH239575   3.428   0.348   5.119
13211TIP3    H139576   3.345   0.379   5.155
13211TIP3    H239577   3.495   0.392   5.172
13212TIP3   OH239578   0.528   2.930   4.609
13212TIP3    H139579   0.524   3.007   4.665
13212TIP3    H239580   0.528   2.965   4.520
13213TIP3   OH239581   2.937   0.541   1.874
13213TIP3    H139582   2.998   0.585   1.815
13213TIP3    H239583   2.963   0.571   1.962
13214TIP3   OH239584   4.063   6.582   0.786
13214TIP3    H139585   3.995   6.648   0.774
13214TIP3    H239586   4.083   6.583   0.879
13215TIP3   OH239587   4.343   4.383   0.484
13215TIP3    H139588   4.306   4.398   0.571
13215TIP3    H239589   4.359   4.289   0.481
13216TIP3   OH239590   6.765   5.558   0.111
13216TIP3    H139591   6.685   5.524   0.150
13216TIP3    H239592   6.783   5.498   0.038
13217TIP3   OH239593   6.402   4.755   1.268
13217TIP3    H139594   6.468   4.821   1.291
13217TIP3    H239595   6.450   4.672   1.270
13218TIP3   OH239596   6.038   2.493   3.332
13218TIP3    H139597   6.034   2.589   3.328
13218TIP3    H239598   6.107   2.470   3.269
13219TIP3   OH239599   4.609   4.083   3.489
13219TIP3    H139600   4.643   4.167   3.520
13219TIP3    H239601   4.643   4.018   3.550
13220TIP3   OH239602   5.459   4.753   4.405
13220TIP3    H139603   5.464   4.691   4.333
13220TIP3    H239604   5.403   4.711   4.470
13221TIP3   OH239605   8.005   3.950   0.849
13221TIP3    H139606   7.948   3.874   0.839
13221TIP3    H239607   8.077   3.919   0.904
13222TIP3   OH239608   4.689   6.281   3.507
13222TIP3    H139609   4.785   6.272   3.504
13222TIP3    H239610   4.662   6.226   3.581
13223TIP3   OH239611   7.975   0.154   4.803
13223TIP3    H139612   7.957   0.106   4.722
13223TIP3    H239613   7.957   0.246   4.782
13224TIP3   OH239614   1.281   7.623   5.683
13224TIP3    H139615   1.371   7.656   5.686
13224TIP3    H239616   1.251   7.627   5.773
13225TIP3   OH239617   0.598   4.576   5.810
13225TIP3    H139618   0.654   4.564   5.733
13225TIP3    H239619   0.570   4.488   5.834
13226TIP3   OH239620   5.186   6.560   5.311
13226TIP3    H139621   5.188   6.603   5.396
13226TIP3    H239622   5.278   6.552   5.286
13227TIP3   OH239623   2.067   6.715   0.226
13227TIP3    H139624   2.129   6.647   0.252
13227TIP3    H239625   2.020   6.736   0.307
13228TIP3   OH239626   1.828   3.728   6.655
13228TIP3    H139627   1.747   3.749   6.609
13228TIP3    H239628   1.893   3.788   6.618
13229TIP3   OH239629   2.903   6.332   1.539
13229TIP3    H139630   2.813   6.309   1.562
13229TIP3    H239631   2.916   6.418   1.578
13230TIP3   OH239632   5.369   6.147   3.654
13230TIP3    H139633   5.443   6.206   3.669
13230TIP3    H239634   5.381   6.117   3.564
13231TIP3   OH239635   7.733   5.933   0.587
13231TIP3    H139636   7.820   5.926   0.627
13231TIP3    H239637   7.751   5.946   0.494
13232TIP3   OH239638   4.636   2.106   4.559
13232TIP3    H139639   4.566   2.160   4.521
13232TIP3    H239640   4.689   2.080   4.483
13233TIP3   OH239641   7.250   6.247   4.273
13233TIP3    H139642   7.314   6.302   4.318
13233TIP3    H239643   7.277   6.157   4.292
13234TIP3   OH239644   3.025   7.747   0.572
13234TIP3    H139645   3.011   7.776   0.662
13234TIP3    H239646   3.111   7.782   0.549
13235TIP3   OH239647   0.131   3.566   0.155
13235TIP3    H139648   0.178   3.578   0.238
13235TIP3    H239649   0.195   3.523   0.098
13236TIP3   OH239650   4.953   2.467   0.858
13236TIP3    H139651   4.865   2.435   0.875
13236TIP3    H239652   4.943   2.561   0.847
13237TIP3   OH239653   4.089   7.764   0.193
13237TIP3    H139654   4.007   7.773   0.143
13237TIP3    H239655   4.062   7.771   0.284
13238TIP3   OH239656   5.647   0.435   1.209
13238TIP3    H139657   5.629   0.350   1.250
13238TIP3    H239658   5.641   0.417   1.115
13239TIP3   OH239659   6.739   0.428   4.006
13239TIP3    H139660   6.655   0.386   4.024
13239TIP3    H239661   6.803   0.357   4.008
13240TIP3   OH239662   1.194   5.779   2.694
13240TIP3    H139663   1.111   5.731   2.697
13240TIP3    H239664   1.196   5.817   2.607
13241TIP3   OH239665   5.426   0.723   4.346
13241TIP3    H139666   5.403   0.644   4.298
13241TIP3    H239667   5.519   0.737   4.326
13242TIP3   OH239668   7.870   3.640   0.096
13242TIP3    H139669   7.793   3.658   0.043
13242TIP3    H239670   7.921   3.578   0.043
13243TIP3   OH239671   0.322   1.395   4.062
13243TIP3    H139672   0.285   1.328   4.004
13243TIP3    H239673   0.395   1.351   4.105
13244TIP3   OH239674   2.966   1.971   1.305
13244TIP3    H139675   3.003   1.986   1.218
13244TIP3    H239676   3.039   1.987   1.365
13245TIP3   OH239677   2.882   5.860   2.070
13245TIP3    H139678   2.903   5.834   1.980
13245TIP3    H239679   2.813   5.926   2.061
13246TIP3   OH239680   5.448   7.585   6.398
13246TIP3    H139681   5.445   7.621   6.487
13246TIP3    H239682   5.483   7.656   6.345
13247TIP3   OH239683   5.690   0.493   5.557
13247TIP3    H139684   5.660   0.578   5.588
13247TIP3    H239685   5.612   0.437   5.562
13248TIP3   OH239686   6.918   4.314   1.075
13248TIP3    H139687   6.984   4.335   1.141
13248TIP3    H239688   6.844   4.279   1.125
13249TIP3   OH239689   6.230   4.276   4.113
13249TIP3    H139690   6.222   4.371   4.124
13249TIP3    H239691   6.192   4.239   4.193
13250TIP3   OH239692   2.701   0.083   6.178
13250TIP3    H139693   2.654   0.115   6.254
13250TIP3    H239694   2.662   0.129   6.104
13251TIP3   OH239695   6.350   7.030   2.314
13251TIP3    H139696   6.425   7.017   2.371
13251TIP3    H239697   6.283   6.970   2.347
13252TIP3   OH239698   7.967   2.036   3.992
13252TIP3    H139699   8.018   2.014   3.914
13252TIP3    H239700   7.928   2.121   3.971
13253TIP3   OH239701   2.663   2.583   2.304
13253TIP3    H139702   2.738   2.525   2.287
13253TIP3    H239703   2.698   2.651   2.361
13254TIP3   OH239704   5.762   4.759   5.501
13254TIP3    H139705   5.812   4.722   5.573
13254TIP3    H239706   5.676   4.778   5.538
13255TIP3   OH239707   3.280   0.644   0.363
13255TIP3    H139708   3.212   0.655   0.296
13255TIP3    H239709   3.287   0.549   0.374
13256TIP3   OH239710   2.964   0.373   1.233
13256TIP3    H139711   2.979   0.440   1.166
13256TIP3    H239712   2.918   0.420   1.303
13257TIP3   OH239713   5.101   5.725   0.284
13257TIP3    H139714   5.055   5.646   0.311
13257TIP3    H239715   5.107   5.777   0.364
13258TIP3   OH239716   2.856   2.624   3.413
13258TIP3    H139717   2.777   2.676   3.399
13258TIP3    H239718   2.863   2.570   3.334
13259TIP3   OH239719   2.618   6.162   5.324
13259TIP3    H139720   2.591   6.224   5.391
13259TIP3    H239721   2.705   6.133   5.353
13260TIP3   OH239722   2.858   1.635   4.508
13260TIP3    H139723   2.834   1.575   4.437
13260TIP3    H239724   2.864   1.580   4.586
13261TIP3   OH239725   0.159   1.807   1.005
13261TIP3    H139726   0.132   1.734   1.061
13261TIP3    H239727   0.239   1.840   1.046
13262TIP3   OH239728   1.827   7.072   3.750
13262TIP3    H139729   1.739   7.049   3.720
13262TIP3    H239730   1.839   7.021   3.829
13263TIP3   OH239731   5.270   4.559   4.995
13263TIP3    H139732   5.364   4.551   5.012
13263TIP3    H239733   5.234   4.474   5.022
13264TIP3   OH239734   7.510   0.134   0.860
13264TIP3    H139735   7.490   0.165   0.772
13264TIP3    H239736   7.443   0.173   0.915
13265TIP3   OH239737   4.640   2.432   4.204
13265TIP3    H139738   4.591   2.399   4.128
13265TIP3    H239739   4.726   2.455   4.168
13266TIP3   OH239740   1.016   5.247   3.085
13266TIP3    H139741   1.076   5.315   3.116
13266TIP3    H239742   0.975   5.284   3.007
13267TIP3   OH239743   1.990   0.294   1.421
13267TIP3    H139744   2.034   0.231   1.365
13267TIP3    H239745   1.922   0.244   1.467
13268TIP3   OH239746   0.458   7.466   2.675
13268TIP3    H139747   0.440   7.541   2.732
13268TIP3    H239748   0.372   7.426   2.660
13269TIP3   OH239749   1.943   6.600   2.814
13269TIP3    H139750   1.930   6.678   2.867
13269TIP3    H239751   1.996   6.631   2.740
13270TIP3   OH239752   0.018   0.935   2.545
13270TIP3    H139753  -0.073   0.950   2.519
13270TIP3    H239754   0.067   0.936   2.463
13271TIP3   OH239755   8.145   7.544   5.924
13271TIP3    H139756   8.126   7.581   5.838
13271TIP3    H239757   8.169   7.453   5.905
13272TIP3   OH239758   7.818   5.233   0.972
13272TIP3    H139759   7.732   5.274   0.981
13272TIP3    H239760   7.809   5.149   1.016
13273TIP3   OH239761   4.926   5.894   5.714
13273TIP3    H139762   4.836   5.886   5.683
13273TIP3    H239763   4.975   5.922   5.637
13274TIP3   OH239764   2.924   7.644   1.051
13274TIP3    H139765   2.975   7.606   1.122
13274TIP3    H239766   2.848   7.586   1.042
13275TIP3   OH239767   5.949   7.711   1.374
13275TIP3    H139768   6.029   7.747   1.411
13275TIP3    H239769   5.912   7.658   1.445
13276TIP3   OH239770   2.195   3.631   2.910
13276TIP3    H139771   2.160   3.610   2.823
13276TIP3    H239772   2.161   3.718   2.929
13277TIP3   OH239773   2.363   0.352   2.924
13277TIP3    H139774   2.281   0.400   2.921
13277TIP3    H239775   2.426   0.414   2.961
13278TIP3   OH239776   1.412   4.340   1.329
13278TIP3    H139777   1.431   4.429   1.299
13278TIP3    H239778   1.479   4.321   1.394
13279TIP3   OH239779   5.840   6.371   2.740
13279TIP3    H139780   5.874   6.290   2.778
13279TIP3    H239781   5.888   6.380   2.657
13280TIP3   OH239782   0.415   0.771   3.772
13280TIP3    H139783   0.484   0.705   3.780
13280TIP3    H239784   0.435   0.835   3.842
13281TIP3   OH239785   4.697   2.300   2.808
13281TIP3    H139786   4.643   2.232   2.769
13281TIP3    H239787   4.734   2.259   2.886
13282TIP3   OH239788   5.960   4.101   2.227
13282TIP3    H139789   5.896   4.093   2.156
13282TIP3    H239790   5.910   4.140   2.299
13283TIP3   OH239791   1.719   5.002   2.389
13283TIP3    H139792   1.634   4.960   2.376
13283TIP3    H239793   1.702   5.095   2.377
13284TIP3   OH239794   7.637   1.229   1.658
13284TIP3    H139795   7.584   1.155   1.689
13284TIP3    H239796   7.715   1.189   1.620
13285TIP3   OH239797   6.474   4.034   2.012
13285TIP3    H139798   6.434   3.947   2.011
13285TIP3    H239799   6.401   4.095   2.016
13286TIP3   OH239800   2.554   5.826   4.842
13286TIP3    H139801   2.483   5.888   4.860
13286TIP3    H239802   2.608   5.829   4.920
13287TIP3   OH239803   7.527   2.836   0.315
13287TIP3    H139804   7.525   2.870   0.405
13287TIP3    H239805   7.541   2.914   0.261
13288TIP3   OH239806   2.008   7.614   6.392
13288TIP3    H139807   1.943   7.632   6.460
13288TIP3    H239808   2.073   7.558   6.435
13289TIP3   OH239809   7.590   7.048   2.379
13289TIP3    H139810   7.510   7.080   2.338
13289TIP3    H239811   7.569   7.048   2.473
13290TIP3   OH239812   0.950   6.961   1.861
13290TIP3    H139813   0.864   7.003   1.870
13290TIP3    H239814   1.011   7.035   1.859
13291TIP3   OH239815   2.817   0.169   1.151
13291TIP3    H139816   2.873   0.240   1.183
13291TIP3    H239817   2.818   0.179   1.055
13292TIP3   OH239818   2.089   5.453   2.634
13292TIP3    H139819   2.110   5.529   2.581
13292TIP3    H239820   2.051   5.490   2.714
13293TIP3   OH239821   4.803   3.816   1.572
13293TIP3    H139822   4.734   3.818   1.639
13293TIP3    H239823   4.836   3.726   1.574
13294TIP3   OH239824   8.052   7.759   4.093
13294TIP3    H139825   8.007   7.678   4.072
13294TIP3    H239826   8.030   7.776   4.185
13295TIP3   OH239827   2.520   6.430   0.681
13295TIP3    H139828   2.509   6.520   0.651
13295TIP3    H239829   2.438   6.410   0.727
13296TIP3   OH239830   1.650   6.006   0.961
13296TIP3    H139831   1.685   6.081   1.009
13296TIP3    H239832   1.728   5.959   0.930
13297TIP3   OH239833   2.760   6.229   1.996
13297TIP3    H139834   2.814   6.166   1.949
13297TIP3    H239835   2.698   6.176   2.046
13298TIP3   OH239836   3.073   6.503   6.707
13298TIP3    H139837   3.008   6.560   6.747
13298TIP3    H239838   3.023   6.430   6.671
13299TIP3   OH239839   1.325   0.210   5.850
13299TIP3    H139840   1.395   0.148   5.828
13299TIP3    H239841   1.328   0.276   5.781
13300TIP3   OH239842   2.503   3.261   5.202
13300TIP3    H139843   2.507   3.317   5.124
13300TIP3    H239844   2.594   3.251   5.229
13301TIP3   OH239845   2.499   5.395   0.802
13301TIP3    H139846   2.487   5.398   0.707
13301TIP3    H239847   2.472   5.482   0.832
13302TIP3   OH239848   6.001   2.351   1.457
13302TIP3    H139849   6.043   2.437   1.456
13302TIP3    H239850   6.057   2.297   1.402
13303TIP3   OH239851   7.639   2.291   2.941
13303TIP3    H139852   7.560   2.252   2.979
13303TIP3    H239853   7.711   2.254   2.992
13304TIP3   OH239854   0.721   4.488   1.042
13304TIP3    H139855   0.760   4.404   1.016
13304TIP3    H239856   0.641   4.463   1.089
13305TIP3   OH239857   2.121   0.496   1.743
13305TIP3    H139858   2.038   0.466   1.780
13305TIP3    H239859   2.097   0.540   1.662
13306TIP3   OH239860   0.631   4.199   5.737
13306TIP3    H139861   0.610   4.135   5.805
13306TIP3    H239862   0.653   4.146   5.661
13307TIP3   OH239863   1.249   2.218   2.384
13307TIP3    H139864   1.180   2.185   2.441
13307TIP3    H239865   1.322   2.158   2.398
13308TIP3   OH239866   4.844   4.059   2.338
13308TIP3    H139867   4.839   4.041   2.245
13308TIP3    H239868   4.916   4.005   2.370
13309TIP3   OH239869   7.690   1.532   3.254
13309TIP3    H139870   7.785   1.535   3.241
13309TIP3    H239871   7.676   1.579   3.336
13310TIP3   OH239872   2.660   5.053   3.626
13310TIP3    H139873   2.632   5.075   3.537
13310TIP3    H239874   2.581   5.023   3.670
13311TIP3   OH239875   7.583   5.579   5.372
13311TIP3    H139876   7.650   5.595   5.305
13311TIP3    H239877   7.501   5.604   5.330
13312TIP3   OH239878   7.380   3.160   4.785
13312TIP3    H139879   7.400   3.086   4.728
13312TIP3    H239880   7.421   3.235   4.742
13313TIP3   OH239881   0.442   7.672   2.860
13313TIP3    H139882   0.448   7.761   2.894
13313TIP3    H239883   0.426   7.617   2.936
13314TIP3   OH239884   3.387   2.798   1.222
13314TIP3    H139885   3.309   2.847   1.197
13314TIP3    H239886   3.405   2.742   1.146
13315TIP3   OH239887   1.024   0.214   4.481
13315TIP3    H139888   1.032   0.124   4.512
13315TIP3    H239889   0.945   0.215   4.428
13316TIP3   OH239890   2.387   3.160   2.541
13316TIP3    H139891   2.448   3.142   2.469
13316TIP3    H239892   2.301   3.159   2.501
13317TIP3   OH239893   6.395   3.405   3.900
13317TIP3    H139894   6.346   3.392   3.981
13317TIP3    H239895   6.385   3.323   3.852
13318TIP3   OH239896   7.671   3.086   2.111
13318TIP3    H139897   7.676   3.081   2.206
13318TIP3    H239898   7.582   3.058   2.090
13319TIP3   OH239899   3.395   7.099   0.794
13319TIP3    H139900   3.300   7.099   0.787
13319TIP3    H239901   3.416   7.184   0.834
13320TIP3   OH239902   5.575   6.187   4.084
13320TIP3    H139903   5.483   6.174   4.107
13320TIP3    H239904   5.606   6.099   4.060
13321TIP3   OH239905   5.170   4.932   3.141
13321TIP3    H139906   5.177   4.872   3.215
13321TIP3    H239907   5.201   5.016   3.175
13322TIP3   OH239908   1.411   7.733   2.355
13322TIP3    H139909   1.399   7.826   2.375
13322TIP3    H239910   1.362   7.688   2.423
13323TIP3   OH239911   6.430   6.586   0.918
13323TIP3    H139912   6.379   6.628   0.986
13323TIP3    H239913   6.521   6.600   0.943
13324TIP3   OH239914   4.548   6.864   5.856
13324TIP3    H139915   4.599   6.794   5.816
13324TIP3    H239916   4.579   6.868   5.946
13325TIP3   OH239917   4.991   0.582   3.052
13325TIP3    H139918   5.048   0.658   3.066
13325TIP3    H239919   4.951   0.597   2.967
13326TIP3   OH239920   0.589   5.966   2.473
13326TIP3    H139921   0.540   5.969   2.391
13326TIP3    H239922   0.602   6.058   2.496
13327TIP3   OH239923   3.499   0.208   3.743
13327TIP3    H139924   3.412   0.193   3.781
13327TIP3    H239925   3.485   0.202   3.649
13328TIP3   OH239926   0.642   1.732   2.709
13328TIP3    H139927   0.604   1.706   2.793
13328TIP3    H239928   0.594   1.682   2.644
13329TIP3   OH239929   2.322   0.236   5.446
13329TIP3    H139930   2.277   0.287   5.378
13329TIP3    H239931   2.269   0.249   5.525
13330TIP3   OH239932   0.104   7.421   6.321
13330TIP3    H139933   0.030   7.362   6.333
13330TIP3    H239934   0.178   7.374   6.360
13331TIP3   OH239935   7.992   2.203   6.449
13331TIP3    H139936   8.036   2.288   6.453
13331TIP3    H239937   8.025   2.163   6.369
13332TIP3   OH239938   2.603   0.816   3.150
13332TIP3    H139939   2.695   0.817   3.121
13332TIP3    H239940   2.560   0.755   3.091
13333TIP3   OH239941   1.979   2.980   4.782
13333TIP3    H139942   2.015   2.925   4.712
13333TIP3    H239943   2.027   3.062   4.775
13334TIP3   OH239944   1.469   1.250   4.392
13334TIP3    H139945   1.435   1.180   4.337
13334TIP3    H239946   1.540   1.210   4.441
13335TIP3   OH239947   0.460   5.073   1.108
13335TIP3    H139948   0.502   4.988   1.093
13335TIP3    H239949   0.435   5.072   1.200
13336TIP3   OH239950   4.170   4.112   6.712
13336TIP3    H139951   4.137   4.097   6.801
13336TIP3    H239952   4.092   4.109   6.657
13337TIP3   OH239953   6.593   4.399   3.653
13337TIP3    H139954   6.588   4.494   3.663
13337TIP3    H239955   6.633   4.368   3.734
13338TIP3   OH239956   2.632   3.535   0.166
13338TIP3    H139957   2.600   3.500   0.249
13338TIP3    H239958   2.684   3.611   0.190
13339TIP3   OH239959   2.013   2.945   0.194
13339TIP3    H139960   2.052   2.942   0.106
13339TIP3    H239961   1.953   3.019   0.190
13340TIP3   OH239962   7.493   4.880   5.372
13340TIP3    H139963   7.537   4.878   5.287
13340TIP3    H239964   7.412   4.928   5.356
13341TIP3   OH239965   2.673   3.611   6.492
13341TIP3    H139966   2.672   3.603   6.587
13341TIP3    H239967   2.714   3.530   6.461
13342TIP3   OH239968   4.344   5.463   4.524
13342TIP3    H139969   4.320   5.548   4.487
13342TIP3    H239970   4.430   5.478   4.563
13343TIP3   OH239971   1.356   2.064   6.148
13343TIP3    H139972   1.384   1.984   6.104
13343TIP3    H239973   1.436   2.117   6.156
13344TIP3   OH239974   6.983   2.060   0.965
13344TIP3    H139975   7.011   2.060   1.056
13344TIP3    H239976   7.057   2.025   0.916
13345TIP3   OH239977   6.421   1.027   0.573
13345TIP3    H139978   6.431   1.097   0.638
13345TIP3    H239979   6.371   1.069   0.502
13346TIP3   OH239980   1.452   5.331   0.520
13346TIP3    H139981   1.374   5.386   0.527
13346TIP3    H239982   1.519   5.389   0.483
13347TIP3   OH239983   0.418   3.923   3.868
13347TIP3    H139984   0.364   3.909   3.946
13347TIP3    H239985   0.356   3.950   3.800
13348TIP3   OH239986   7.291   0.600   0.687
13348TIP3    H139987   7.288   0.676   0.745
13348TIP3    H239988   7.281   0.525   0.745
13349TIP3   OH239989   6.961   4.215   6.598
13349TIP3    H139990   7.030   4.239   6.536
13349TIP3    H239991   6.984   4.127   6.628
13350TIP3   OH239992   5.205   3.514   5.286
13350TIP3    H139993   5.158   3.464   5.219
13350TIP3    H239994   5.241   3.447   5.344
13351TIP3   OH239995   4.151   1.624   0.612
13351TIP3    H139996   4.104   1.675   0.678
13351TIP3    H239997   4.139   1.674   0.531
13352TIP3   OH239998   8.270   4.895   0.430
13352TIP3    H139999   8.342   4.930   0.482
13352TIP3    H240000   8.252   4.964   0.366
13353TIP3   OH240001   2.969   6.933   1.409
13353TIP3    H140002   2.991   6.850   1.451
13353TIP3    H240003   2.881   6.919   1.374
13354TIP3   OH240004   0.553   1.480   0.409
13354TIP3    H140005   0.579   1.536   0.482
13354TIP3    H240006   0.554   1.391   0.446
13355TIP3   OH240007   6.627   2.964   2.763
13355TIP3    H140008   6.594   2.997   2.847
13355TIP3    H240009   6.668   2.880   2.785
13356TIP3   OH240010   2.718   7.633   0.483
13356TIP3    H140011   2.714   7.582   0.564
13356TIP3    H240012   2.666   7.583   0.420
13357TIP3   OH240013   0.670   1.061   0.129
13357TIP3    H140014   0.590   1.032   0.085
13357TIP3    H240015   0.662   1.156   0.133
13358TIP3   OH240016   5.159   1.943   0.072
13358TIP3    H140017   5.080   1.922   0.121
13358TIP3    H240018   5.131   2.006   0.006
13359TIP3   OH240019   2.197   3.331   3.960
13359TIP3    H140020   2.216   3.364   3.872
13359TIP3    H240021   2.102   3.322   3.962
13360TIP3   OH240022   5.808   1.358   0.952
13360TIP3    H140023   5.816   1.442   0.907
13360TIP3    H240024   5.860   1.297   0.898
13361TIP3   OH240025   7.196   3.630   6.160
13361TIP3    H140026   7.271   3.683   6.130
13361TIP3    H240027   7.195   3.555   6.100
13362TIP3   OH240028   5.346   7.195   1.727
13362TIP3    H140029   5.432   7.213   1.765
13362TIP3    H240030   5.307   7.281   1.714
13363TIP3   OH240031   2.890   2.383   6.716
13363TIP3    H140032   2.852   2.469   6.730
13363TIP3    H240033   2.983   2.399   6.702
13364TIP3   OH240034   7.884   5.897   4.842
13364TIP3    H140035   7.965   5.892   4.793
13364TIP3    H240036   7.911   5.914   4.933
13365TIP3   OH240037   8.263   3.331   5.902
13365TIP3    H140038   8.187   3.290   5.944
13365TIP3    H240039   8.266   3.419   5.939
13366TIP3   OH240040   0.336   2.517   2.630
13366TIP3    H140041   0.285   2.443   2.662
13366TIP3    H240042   0.273   2.588   2.620
13367TIP3   OH240043   7.707   6.155   1.113
13367TIP3    H140044   7.614   6.160   1.134
13367TIP3    H240045   7.746   6.110   1.189
13368TIP3   OH240046   2.586   6.794   4.668
13368TIP3    H140047   2.573   6.867   4.728
13368TIP3    H240048   2.529   6.724   4.703
13369TIP3   OH240049   2.767   2.057   4.208
13369TIP3    H140050   2.778   1.977   4.258
13369TIP3    H240051   2.840   2.057   4.145
13370TIP3   OH240052   6.663   6.101   0.218
13370TIP3    H140053   6.641   6.010   0.195
13370TIP3    H240054   6.598   6.124   0.284
13371TIP3   OH240055   4.955   3.248   6.612
13371TIP3    H140056   4.910   3.295   6.541
13371TIP3    H240057   4.969   3.160   6.576
13372TIP3   OH240058   3.515   4.563   3.254
13372TIP3    H140059   3.598   4.530   3.220
13372TIP3    H240060   3.452   4.494   3.233
13373TIP3   OH240061   7.121   1.878   6.259
13373TIP3    H140062   7.054   1.852   6.196
13373TIP3    H240063   7.098   1.832   6.339
13374TIP3   OH240064   1.314   7.397   1.013
13374TIP3    H140065   1.336   7.377   0.922
13374TIP3    H240066   1.352   7.484   1.028
13375TIP3   OH240067   3.642   5.756   0.300
13375TIP3    H140068   3.624   5.850   0.291
13375TIP3    H240069   3.703   5.737   0.228
13376TIP3   OH240070   7.102   2.066   0.337
13376TIP3    H140071   7.104   1.982   0.383
13376TIP3    H240072   7.082   2.131   0.404
13377TIP3   OH240073   6.872   4.724   4.099
13377TIP3    H140074   6.841   4.689   4.182
13377TIP3    H240075   6.876   4.819   4.113
13378TIP3   OH240076   0.257   5.732   6.276
13378TIP3    H140077   0.209   5.660   6.317
13378TIP3    H240078   0.192   5.801   6.263
13379TIP3   OH240079   3.820   1.822   2.984
13379TIP3    H140080   3.868   1.752   3.028
13379TIP3    H240081   3.787   1.781   2.904
13380TIP3   OH240082   0.911   6.768   5.014
13380TIP3    H140083   0.892   6.812   4.932
13380TIP3    H240084   0.972   6.827   5.060
13381TIP3   OH240085   4.912   6.597   0.051
13381TIP3    H140086   4.832   6.637   0.018
13381TIP3    H240087   4.946   6.547  -0.023
13382TIP3   OH240088   4.719   1.714   6.507
13382TIP3    H140089   4.802   1.702   6.553
13382TIP3    H240090   4.734   1.677   6.420
13383TIP3   OH240091   5.387   0.839   2.356
13383TIP3    H140092   5.346   0.803   2.277
13383TIP3    H240093   5.325   0.821   2.426
13384TIP3   OH240094   2.646   3.217   4.387
13384TIP3    H140095   2.679   3.142   4.338
13384TIP3    H240096   2.709   3.287   4.369
13385TIP3   OH240097   7.815   3.893   5.901
13385TIP3    H140098   7.872   3.862   5.831
13385TIP3    H240099   7.733   3.916   5.856
13386TIP3   OH240100   4.096   2.850   3.698
13386TIP3    H140101   4.017   2.812   3.658
13386TIP3    H240102   4.098   2.812   3.786
13387TIP3   OH240103   2.565   3.177   6.416
13387TIP3    H140104   2.495   3.208   6.473
13387TIP3    H240105   2.526   3.174   6.329
13388TIP3   OH240106   4.672   2.494   0.870
13388TIP3    H140107   4.610   2.450   0.928
13388TIP3    H240108   4.639   2.583   0.862
13389TIP3   OH240109   1.545   7.512   0.667
13389TIP3    H140110   1.501   7.585   0.623
13389TIP3    H240111   1.616   7.488   0.607
13390TIP3   OH240112   4.568   4.843   4.331
13390TIP3    H140113   4.645   4.866   4.279
13390TIP3    H240114   4.572   4.748   4.340
13391TIP3   OH240115   4.020   7.488   5.148
13391TIP3    H140116   4.044   7.554   5.084
13391TIP3    H240117   4.074   7.412   5.126
13392TIP3   OH240118   3.637   5.511   6.443
13392TIP3    H140119   3.648   5.446   6.373
13392TIP3    H240120   3.558   5.558   6.420
13393TIP3   OH240121   6.238   7.362   5.339
13393TIP3    H140122   6.205   7.272   5.335
13393TIP3    H240123   6.327   7.353   5.374
13394TIP3   OH240124   7.124   3.661   4.599
13394TIP3    H140125   7.185   3.623   4.662
13394TIP3    H240126   7.097   3.587   4.544
13395TIP3   OH240127   2.056   3.487   0.953
13395TIP3    H140128   1.961   3.483   0.964
13395TIP3    H240129   2.068   3.552   0.884
13396TIP3   OH240130   0.350   3.586   0.336
13396TIP3    H140131   0.428   3.631   0.305
13396TIP3    H240132   0.383   3.512   0.387
13397TIP3   OH240133   4.282   0.359   4.898
13397TIP3    H140134   4.213   0.418   4.928
13397TIP3    H240135   4.353   0.371   4.961
13398TIP3   OH240136   8.154   0.253   3.928
13398TIP3    H140137   8.067   0.257   3.889
13398TIP3    H240138   8.146   0.187   3.997
13399TIP3   OH240139   4.734   0.861   6.411
13399TIP3    H140140   4.805   0.909   6.368
13399TIP3    H240141   4.655   0.885   6.362
13400TIP3   OH240142   1.900   2.927   2.947
13400TIP3    H140143   1.919   3.020   2.950
13400TIP3    H240144   1.986   2.885   2.950
13401TIP3   OH240145   7.272   1.844   0.541
13401TIP3    H140146   7.283   1.751   0.523
13401TIP3    H240147   7.343   1.887   0.494
13402TIP3   OH240148   5.637   1.489   2.581
13402TIP3    H140149   5.613   1.577   2.609
13402TIP3    H240150   5.566   1.463   2.522
13403TIP3   OH240151   4.729   2.964   3.178
13403TIP3    H140152   4.798   2.988   3.116
13403TIP3    H240153   4.669   2.909   3.128
13404TIP3   OH240154   3.178   2.599   2.827
13404TIP3    H140155   3.119   2.674   2.838
13404TIP3    H240156   3.224   2.618   2.746
13405TIP3   OH240157   3.105   1.020   0.562
13405TIP3    H140158   3.097   0.992   0.654
13405TIP3    H240159   3.025   0.989   0.521
13406TIP3   OH240160   7.538   4.538   2.209
13406TIP3    H140161   7.512   4.450   2.238
13406TIP3    H240162   7.466   4.594   2.239
13407TIP3   OH240163   4.330   3.918   0.317
13407TIP3    H140164   4.342   3.986   0.383
13407TIP3    H240165   4.251   3.871   0.344
13408TIP3   OH240166   5.189   7.089   2.399
13408TIP3    H140167   5.243   7.147   2.453
13408TIP3    H240168   5.233   7.088   2.314
13409TIP3   OH240169   6.800   3.937   2.293
13409TIP3    H140170   6.835   3.857   2.333
13409TIP3    H240171   6.795   4.000   2.365
13410TIP3   OH240172   8.123   7.142   3.048
13410TIP3    H140173   8.049   7.195   3.018
13410TIP3    H240174   8.088   7.096   3.125
13411TIP3   OH240175   7.169   6.458   3.865
13411TIP3    H140176   7.157   6.548   3.895
13411TIP3    H240177   7.245   6.463   3.806
13412TIP3   OH240178   3.450   0.398   0.080
13412TIP3    H140179   3.524   0.343   0.104
13412TIP3    H240180   3.487   0.463   0.020
13413TIP3   OH240181   0.969   1.716   5.088
13413TIP3    H140182   0.943   1.711   5.180
13413TIP3    H240183   1.046   1.774   5.088
13414TIP3   OH240184   6.754   4.430   5.178
13414TIP3    H140185   6.847   4.414   5.159
13414TIP3    H240186   6.730   4.361   5.239
13415TIP3   OH240187   5.310   7.535   0.647
13415TIP3    H140188   5.403   7.537   0.624
13415TIP3    H240189   5.266   7.576   0.572
13416TIP3   OH240190   5.201   5.481   2.027
13416TIP3    H140191   5.166   5.544   2.090
13416TIP3    H240192   5.126   5.459   1.972
13417TIP3   OH240193   8.235   4.381   2.327
13417TIP3    H140194   8.185   4.432   2.263
13417TIP3    H240195   8.310   4.348   2.278
13418TIP3   OH240196   2.784   2.495   2.724
13418TIP3    H140197   2.696   2.458   2.737
13418TIP3    H240198   2.784   2.575   2.777
13419TIP3   OH240199   7.025   7.375   3.620
13419TIP3    H140200   7.008   7.452   3.674
13419TIP3    H240201   7.057   7.309   3.680
13420TIP3   OH240202   7.590   5.655   2.938
13420TIP3    H140203   7.628   5.661   2.850
13420TIP3    H240204   7.544   5.571   2.938
13421TIP3   OH240205   8.117   1.874   5.876
13421TIP3    H140206   8.112   1.799   5.935
13421TIP3    H240207   8.140   1.836   5.791
13422TIP3   OH240208   0.391   2.872   3.025
13422TIP3    H140209   0.363   2.901   3.111
13422TIP3    H240210   0.353   2.785   3.015
13423TIP3   OH240211   5.879   0.350   5.710
13423TIP3    H140212   5.862   0.258   5.732
13423TIP3    H240213   5.812   0.372   5.645
13424TIP3   OH240214   0.996   4.886   3.448
13424TIP3    H140215   0.940   4.929   3.384
13424TIP3    H240216   1.063   4.841   3.396
13425TIP3   OH240217   2.114   5.538   1.342
13425TIP3    H140218   2.159   5.550   1.426
13425TIP3    H240219   2.022   5.526   1.366
13426TIP3   OH240220   3.140   1.349   3.661
13426TIP3    H140221   3.066   1.356   3.721
13426TIP3    H240222   3.145   1.435   3.619
13427TIP3   OH240223   2.922   7.736   0.309
13427TIP3    H140224   2.990   7.748   0.376
13427TIP3    H240225   2.846   7.706   0.359
13428TIP3   OH240226   1.689   0.817   5.596
13428TIP3    H140227   1.671   0.902   5.555
13428TIP3    H240228   1.617   0.761   5.567
13429TIP3   OH240229   7.388   7.009   2.984
13429TIP3    H140230   7.397   7.060   3.065
13429TIP3    H240231   7.307   7.040   2.945
13430TIP3   OH240232   3.012   3.918   5.665
13430TIP3    H140233   2.924   3.924   5.629
13430TIP3    H240234   3.066   3.887   5.593
13431TIP3   OH240235   8.082   5.546   5.398
13431TIP3    H140236   8.044   5.631   5.422
13431TIP3    H240237   8.085   5.497   5.480
13432TIP3   OH240238   0.415   1.133   1.522
13432TIP3    H140239   0.453   1.146   1.435
13432TIP3    H240240   0.443   1.045   1.547
13433TIP3   OH240241   6.061   3.689   3.285
13433TIP3    H140242   6.069   3.780   3.314
13433TIP3    H240243   6.066   3.638   3.366
13434TIP3   OH240244   3.159   7.735   1.827
13434TIP3    H140245   3.239   7.787   1.829
13434TIP3    H240246   3.130   7.732   1.918
13435TIP3   OH240247   1.067   7.291   6.182
13435TIP3    H140248   1.042   7.200   6.172
13435TIP3    H240249   1.162   7.291   6.179
13436TIP3   OH240250   7.718   0.797   1.157
13436TIP3    H140251   7.695   0.800   1.064
13436TIP3    H240252   7.634   0.800   1.202
13437TIP3   OH240253   1.882   0.039   1.108
13437TIP3    H140254   1.949   0.055   1.174
13437TIP3    H240255   1.926   0.055   1.025
13438TIP3   OH240256   2.551   2.941   0.489
13438TIP3    H140257   2.551   2.895   0.573
13438TIP3    H240258   2.582   3.029   0.510
13439TIP3   OH240259   3.592   4.705   4.061
13439TIP3    H140260   3.676   4.659   4.070
13439TIP3    H240261   3.583   4.718   3.966
13440TIP3   OH240262   6.511   7.414   2.750
13440TIP3    H140263   6.467   7.471   2.687
13440TIP3    H240264   6.518   7.466   2.829
13441TIP3   OH240265   3.028   4.322   3.991
13441TIP3    H140266   3.051   4.407   4.029
13441TIP3    H240267   2.963   4.343   3.924
13442TIP3   OH240268   3.368   3.468   3.141
13442TIP3    H140269   3.425   3.527   3.092
13442TIP3    H240270   3.423   3.393   3.162
13443TIP3   OH240271   2.385   3.414   2.957
13443TIP3    H140272   2.346   3.493   2.920
13443TIP3    H240273   2.478   3.433   2.961
13444TIP3   OH240274   0.704   6.946   1.080
13444TIP3    H140275   0.712   7.030   1.034
13444TIP3    H240276   0.704   6.970   1.173
13445TIP3   OH240277   4.016   2.179   4.560
13445TIP3    H140278   4.070   2.101   4.569
13445TIP3    H240279   4.044   2.236   4.632
13446TIP3   OH240280   0.750   0.274   3.519
13446TIP3    H140281   0.684   0.235   3.577
13446TIP3    H240282   0.727   0.242   3.431
13447TIP3   OH240283   5.713   4.993   1.947
13447TIP3    H140284   5.627   4.953   1.953
13447TIP3    H240285   5.759   4.962   2.025
13448TIP3   OH240286   4.803   5.673   5.547
13448TIP3    H140287   4.860   5.650   5.621
13448TIP3    H240288   4.815   5.600   5.485
13449TIP3   OH240289   4.981   3.402   2.787
13449TIP3    H140290   4.900   3.373   2.829
13449TIP3    H240291   4.953   3.434   2.701
13450TIP3   OH240292   0.943   5.841   2.930
13450TIP3    H140293   0.911   5.863   3.017
13450TIP3    H240294   0.967   5.748   2.937
13451TIP3   OH240295   7.914   2.702   1.692
13451TIP3    H140296   7.988   2.747   1.651
13451TIP3    H240297   7.845   2.705   1.626
13452TIP3   OH240298   3.506   2.219   2.202
13452TIP3    H140299   3.436   2.225   2.267
13452TIP3    H240300   3.509   2.306   2.161
13453TIP3   OH240301   6.452   0.251   1.492
13453TIP3    H140302   6.546   0.249   1.513
13453TIP3    H240303   6.446   0.204   1.409
13454TIP3   OH240304   0.491   7.758   6.350
13454TIP3    H140305   0.528   7.678   6.313
13454TIP3    H240306   0.468   7.734   6.440
13455TIP3   OH240307   1.407   3.362   4.538
13455TIP3    H140308   1.390   3.319   4.455
13455TIP3    H240309   1.491   3.327   4.567
13456TIP3   OH240310   0.576   5.497   0.303
13456TIP3    H140311   0.493   5.487   0.255
13456TIP3    H240312   0.551   5.533   0.387
13457TIP3   OH240313   3.273   4.722   1.624
13457TIP3    H140314   3.327   4.782   1.675
13457TIP3    H240315   3.264   4.645   1.680
13458TIP3   OH240316   5.897   2.803   2.798
13458TIP3    H140317   5.840   2.833   2.727
13458TIP3    H240318   5.985   2.823   2.768
13459TIP3   OH240319   6.677   3.542   5.286
13459TIP3    H140320   6.768   3.512   5.282
13459TIP3    H240321   6.639   3.491   5.357
13460TIP3   OH240322   2.474   0.371   0.044
13460TIP3    H140323   2.417   0.444   0.070
13460TIP3    H240324   2.415   0.297   0.033
13461TIP3   OH240325   7.972   2.948   3.346
13461TIP3    H140326   7.887   2.914   3.321
13461TIP3    H240327   7.953   3.020   3.405
13462TIP3   OH240328   7.097   4.817   2.746
13462TIP3    H140329   7.183   4.825   2.705
13462TIP3    H240330   7.036   4.851   2.681
13463TIP3   OH240331   3.577   3.318   4.979
13463TIP3    H140332   3.485   3.334   4.998
13463TIP3    H240333   3.615   3.405   4.967
13464TIP3   OH240334   0.758   2.212   3.127
13464TIP3    H140335   0.772   2.120   3.150
13464TIP3    H240336   0.669   2.231   3.157
13465TIP3   OH240337   7.732   2.118   6.567
13465TIP3    H140338   7.758   2.095   6.656
13465TIP3    H240339   7.814   2.122   6.518
13466TIP3   OH240340   0.819   6.137   4.278
13466TIP3    H140341   0.833   6.042   4.273
13466TIP3    H240342   0.802   6.164   4.188
13467TIP3   OH240343   0.499   0.069   1.920
13467TIP3    H140344   0.451  -0.006   1.956
13467TIP3    H240345   0.536   0.113   1.996
13468TIP3   OH240346   7.462   4.321   1.619
13468TIP3    H140347   7.508   4.307   1.702
13468TIP3    H240348   7.467   4.236   1.574
13469TIP3   OH240349   0.095   1.515   1.569
13469TIP3    H140350   0.137   1.496   1.485
13469TIP3    H240351   0.167   1.543   1.626
13470TIP3   OH240352   0.908   2.596   5.099
13470TIP3    H140353   0.879   2.581   5.188
13470TIP3    H240354   0.951   2.514   5.073
13471TIP3   OH240355   5.289   0.382   4.693
13471TIP3    H140356   5.375   0.370   4.653
13471TIP3    H240357   5.308   0.404   4.784
13472TIP3   OH240358   6.976   5.995   6.115
13472TIP3    H140359   7.031   6.046   6.175
13472TIP3    H240360   6.889   5.998   6.154
13473TIP3   OH240361   2.416   2.062   2.107
13473TIP3    H140362   2.512   2.071   2.110
13473TIP3    H240363   2.394   2.016   2.187
13474TIP3   OH240364   8.132   2.647   0.657
13474TIP3    H140365   8.133   2.650   0.561
13474TIP3    H240366   8.039   2.651   0.680
13475TIP3   OH240367   6.725   3.924   1.906
13475TIP3    H140368   6.649   3.886   1.863
13475TIP3    H240369   6.692   4.004   1.948
13476TIP3   OH240370   1.364   3.093   4.247
13476TIP3    H140371   1.351   3.056   4.160
13476TIP3    H240372   1.425   3.033   4.290
13477TIP3   OH240373   5.058   5.603   5.552
13477TIP3    H140374   5.093   5.544   5.485
13477TIP3    H240375   5.066   5.690   5.515
13478TIP3   OH240376   4.451   2.245   5.053
13478TIP3    H140377   4.398   2.180   5.007
13478TIP3    H240378   4.389   2.294   5.106
13479TIP3   OH240379   7.298   3.261   0.036
13479TIP3    H140380   7.239   3.335   0.024
13479TIP3    H240381   7.350   3.284   0.113
13480TIP3   OH240382   7.075   2.581   4.020
13480TIP3    H140383   7.136   2.523   4.065
13480TIP3    H240384   7.131   2.643   3.973
13481TIP3   OH240385   4.717   7.686   1.950
13481TIP3    H140386   4.713   7.684   1.855
13481TIP3    H240387   4.648   7.627   1.979
13482TIP3   OH240388   1.824   0.905   6.331
13482TIP3    H140389   1.772   0.984   6.346
13482TIP3    H240390   1.760   0.836   6.318
13483TIP3   OH240391   0.729   4.286   1.281
13483TIP3    H140392   0.789   4.355   1.307
13483TIP3    H240393   0.727   4.227   1.356
13484TIP3   OH240394   2.503   4.012   6.218
13484TIP3    H140395   2.533   3.921   6.217
13484TIP3    H240396   2.442   4.018   6.145
13485TIP3   OH240397   8.044   3.188   0.422
13485TIP3    H140398   7.987   3.115   0.447
13485TIP3    H240399   8.107   3.149   0.360
13486TIP3   OH240400   0.657   2.693   6.306
13486TIP3    H140401   0.615   2.773   6.273
13486TIP3    H240402   0.711   2.723   6.379
13487TIP3   OH240403   6.103   6.187   3.758
13487TIP3    H140404   6.028   6.218   3.709
13487TIP3    H240405   6.074   6.189   3.850
13488TIP3   OH240406   4.729   3.029   6.428
13488TIP3    H140407   4.719   3.114   6.386
13488TIP3    H240408   4.716   3.047   6.521
13489TIP3   OH240409   7.049   1.131   6.098
13489TIP3    H140410   7.131   1.145   6.147
13489TIP3    H240411   7.068   1.056   6.041
13490TIP3   OH240412   2.344   1.100   2.309
13490TIP3    H140413   2.427   1.103   2.356
13490TIP3    H240414   2.323   1.006   2.303
13491TIP3   OH240415   4.218   2.666   0.632
13491TIP3    H140416   4.224   2.757   0.601
13491TIP3    H240417   4.184   2.674   0.721
13492TIP3   OH240418   1.176   7.119   0.143
13492TIP3    H140419   1.264   7.084   0.129
13492TIP3    H240420   1.167   7.188   0.077
13493TIP3   OH240421   7.460   7.607   4.782
13493TIP3    H140422   7.453   7.701   4.771
13493TIP3    H240423   7.389   7.571   4.728
13494TIP3   OH240424   4.689   4.865   5.860
13494TIP3    H140425   4.709   4.941   5.804
13494TIP3    H240426   4.594   4.864   5.864
13495TIP3   OH240427   5.468   7.348   5.885
13495TIP3    H140428   5.429   7.364   5.799
13495TIP3    H240429   5.403   7.294   5.931
13496TIP3   OH240430   5.397   2.201   0.451
13496TIP3    H140431   5.414   2.281   0.500
13496TIP3    H240432   5.341   2.228   0.378
13497TIP3   OH240433   4.523   4.752   1.379
13497TIP3    H140434   4.437   4.748   1.338
13497TIP3    H240435   4.584   4.765   1.306
13498TIP3   OH240436   1.484   0.674   3.866
13498TIP3    H140437   1.570   0.716   3.875
13498TIP3    H240438   1.503   0.589   3.826
13499TIP3   OH240439   7.433   4.807   4.664
13499TIP3    H140440   7.482   4.761   4.597
13499TIP3    H240441   7.398   4.738   4.720
13500TIP3   OH240442   1.989   7.171   1.781
13500TIP3    H140443   2.024   7.231   1.847
13500TIP3    H240444   1.984   7.087   1.825
13501TIP3   OH240445   4.107   2.946   4.507
13501TIP3    H140446   4.042   3.008   4.538
13501TIP3    H240447   4.074   2.860   4.534
13502TIP3   OH240448   6.480   1.311   1.642
13502TIP3    H140449   6.404   1.292   1.587
13502TIP3    H240450   6.485   1.406   1.645
13503TIP3   OH240451   1.712   1.011   2.609
13503TIP3    H140452   1.799   0.987   2.578
13503TIP3    H240453   1.661   0.930   2.603
13504TIP3   OH240454   1.302   4.891   0.992
13504TIP3    H140455   1.235   4.956   1.013
13504TIP3    H240456   1.360   4.935   0.931
13505TIP3   OH240457   5.339   5.392   5.678
13505TIP3    H140458   5.286   5.338   5.620
13505TIP3    H240459   5.410   5.424   5.621
13506TIP3   OH240460   3.761   4.988   3.957
13506TIP3    H140461   3.812   4.915   3.992
13506TIP3    H240462   3.756   5.050   4.029
13507TIP3   OH240463   0.826   1.159   1.450
13507TIP3    H140464   0.835   1.070   1.485
13507TIP3    H240465   0.913   1.181   1.417
13508TIP3   OH240466   1.543   0.517   4.622
13508TIP3    H140467   1.510   0.540   4.709
13508TIP3    H240468   1.464   0.502   4.569
13509TIP3   OH240469   0.138   6.725   5.099
13509TIP3    H140470   0.191   6.742   5.177
13509TIP3    H240471   0.156   6.634   5.077
13510TIP3   OH240472   7.855   5.838   4.303
13510TIP3    H140473   7.841   5.925   4.266
13510TIP3    H240474   7.836   5.848   4.396
13511TIP3   OH240475   3.838   7.190   2.386
13511TIP3    H140476   3.911   7.251   2.376
13511TIP3    H240477   3.760   7.245   2.386
13512TIP3   OH240478   3.797   0.608   6.359
13512TIP3    H140479   3.782   0.637   6.449
13512TIP3    H240480   3.712   0.620   6.316
13513TIP3   OH240481   4.382   4.297   1.470
13513TIP3    H140482   4.447   4.362   1.495
13513TIP3    H240483   4.433   4.224   1.436
13514TIP3   OH240484   3.588   6.915   0.769
13514TIP3    H140485   3.530   6.989   0.784
13514TIP3    H240486   3.551   6.844   0.822
13515TIP3   OH240487   7.436   5.198   4.332
13515TIP3    H140488   7.348   5.185   4.368
13515TIP3    H240489   7.481   5.250   4.399
13516TIP3   OH240490   7.251   6.614   5.772
13516TIP3    H140491   7.233   6.522   5.790
13516TIP3    H240492   7.192   6.662   5.830
13517TIP3   OH240493   3.406   1.399   4.699
13517TIP3    H140494   3.325   1.450   4.695
13517TIP3    H240495   3.389   1.322   4.644
13518TIP3   OH240496   5.675   0.298   2.130
13518TIP3    H140497   5.689   0.290   2.035
13518TIP3    H240498   5.763   0.301   2.167
13519TIP3   OH240499   6.153   3.861   2.517
13519TIP3    H140500   6.191   3.895   2.599
13519TIP3    H240501   6.077   3.917   2.501
13520TIP3   OH240502   1.123   6.774   0.431
13520TIP3    H140503   1.178   6.711   0.384
13520TIP3    H240504   1.062   6.719   0.482
13521TIP3   OH240505   2.907   7.582   5.523
13521TIP3    H140506   2.981   7.562   5.580
13521TIP3    H240507   2.948   7.607   5.440
13522TIP3   OH240508   0.544   4.979   2.661
13522TIP3    H140509   0.473   5.037   2.688
13522TIP3    H240510   0.508   4.891   2.670
13523TIP3   OH240511   7.062   3.311   1.507
13523TIP3    H140512   7.011   3.389   1.487
13523TIP3    H240513   6.999   3.248   1.539
13524TIP3   OH240514   7.035   2.609   5.819
13524TIP3    H140515   7.090   2.582   5.745
13524TIP3    H240516   6.958   2.552   5.814
13525TIP3   OH240517   1.897   3.776   3.017
13525TIP3    H140518   1.831   3.718   3.055
13525TIP3    H240519   1.919   3.837   3.088
13526TIP3   OH240520   7.490   4.433   0.872
13526TIP3    H140521   7.525   4.492   0.938
13526TIP3    H240522   7.402   4.411   0.903
13527TIP3   OH240523   3.266   5.560   4.431
13527TIP3    H140524   3.212   5.487   4.402
13527TIP3    H240525   3.250   5.567   4.525
13528TIP3   OH240526   5.175   0.124   0.480
13528TIP3    H140527   5.110   0.170   0.427
13528TIP3    H240528   5.258   0.138   0.434
13529TIP3   OH240529   4.324   2.342   5.294
13529TIP3    H140530   4.279   2.408   5.347
13529TIP3    H240531   4.334   2.267   5.352
13530TIP3   OH240532   1.395   4.077   4.120
13530TIP3    H140533   1.303   4.049   4.111
13530TIP3    H240534   1.390   4.168   4.149
13531TIP3   OH240535   7.463   4.042   1.767
13531TIP3    H140536   7.472   4.117   1.825
13531TIP3    H240537   7.410   3.979   1.816
13532TIP3   OH240538   6.732   6.319   4.534
13532TIP3    H140539   6.742   6.397   4.589
13532TIP3    H240540   6.640   6.318   4.511
13533TIP3   OH240541   0.516   0.947   3.969
13533TIP3    H140542   0.494   0.967   4.060
13533TIP3    H240543   0.568   1.022   3.940
13534TIP3   OH240544   3.692   2.291   2.954
13534TIP3    H140545   3.662   2.200   2.957
13534TIP3    H240546   3.728   2.308   3.041
13535TIP3   OH240547   0.268   4.398   6.555
13535TIP3    H140548   0.351   4.428   6.518
13535TIP3    H240549   0.214   4.477   6.560
13536TIP3   OH240550   5.820   3.928   3.490
13536TIP3    H140551   5.816   4.022   3.504
13536TIP3    H240552   5.797   3.889   3.574
13537TIP3   OH240553   5.835   5.816   3.387
13537TIP3    H140554   5.824   5.830   3.481
13537TIP3    H240555   5.747   5.826   3.350
13538TIP3   OH240556   7.547   3.889   0.288
13538TIP3    H140557   7.459   3.858   0.312
13538TIP3    H240558   7.599   3.877   0.367
13539TIP3   OH240559   7.546   6.960   0.532
13539TIP3    H140560   7.562   6.949   0.438
13539TIP3    H240561   7.619   6.915   0.575
13540TIP3   OH240562   3.137   3.257   6.625
13540TIP3    H140563   3.148   3.264   6.530
13540TIP3    H240564   3.105   3.169   6.639
13541TIP3   OH240565   5.218   4.640   0.273
13541TIP3    H140566   5.230   4.647   0.368
13541TIP3    H240567   5.304   4.611   0.241
13542TIP3   OH240568   2.955   1.496   2.846
13542TIP3    H140569   2.960   1.497   2.942
13542TIP3    H240570   2.932   1.585   2.822
13543TIP3   OH240571   0.728   1.913   6.226
13543TIP3    H140572   0.666   1.930   6.297
13543TIP3    H240573   0.676   1.921   6.146
13544TIP3   OH240574   0.867   3.719   2.693
13544TIP3    H140575   0.920   3.787   2.733
13544TIP3    H240576   0.821   3.763   2.622
13545TIP3   OH240577   5.290   0.938   3.525
13545TIP3    H140578   5.244   0.913   3.605
13545TIP3    H240579   5.373   0.891   3.528
13546TIP3   OH240580   8.074   6.918   4.460
13546TIP3    H140581   7.999   6.912   4.401
13546TIP3    H240582   8.108   7.007   4.447
13547TIP3   OH240583   1.530   7.008   3.287
13547TIP3    H140584   1.622   7.017   3.311
13547TIP3    H240585   1.526   6.927   3.237
13548TIP3   OH240586   2.996   6.562   2.489
13548TIP3    H140587   3.026   6.494   2.429
13548TIP3    H240588   2.951   6.514   2.559
13549TIP3   OH240589   7.968   0.879   5.407
13549TIP3    H140590   7.930   0.881   5.319
13549TIP3    H240591   7.898   0.846   5.463
13550TIP3   OH240592   0.829   6.679   4.157
13550TIP3    H140593   0.750   6.625   4.169
13550TIP3    H240594   0.901   6.616   4.158
13551TIP3   OH240595   7.013   6.704   0.963
13551TIP3    H140596   7.007   6.703   1.059
13551TIP3    H240597   7.014   6.612   0.938
13552TIP3   OH240598   6.754   5.490   6.611
13552TIP3    H140599   6.820   5.494   6.680
13552TIP3    H240600   6.787   5.547   6.542
13553TIP3   OH240601   6.508   4.972   1.076
13553TIP3    H140602   6.527   4.981   1.170
13553TIP3    H240603   6.547   4.887   1.053
13554TIP3   OH240604   3.816   1.502   1.867
13554TIP3    H140605   3.776   1.420   1.896
13554TIP3    H240606   3.779   1.569   1.925
13555TIP3   OH240607   7.167   6.803   1.341
13555TIP3    H140608   7.133   6.714   1.326
13555TIP3    H240609   7.124   6.856   1.273
13556TIP3   OH240610   5.627   5.164   0.896
13556TIP3    H140611   5.676   5.112   0.832
13556TIP3    H240612   5.684   5.238   0.916
13557TIP3   OH240613   2.585   1.957   6.593
13557TIP3    H140614   2.617   2.042   6.624
13557TIP3    H240615   2.559   1.910   6.673
13558TIP3   OH240616   0.439   6.498   4.852
13558TIP3    H140617   0.507   6.563   4.869
13558TIP3    H240618   0.394   6.530   4.774
13559TIP3   OH240619   6.659   4.372   2.483
13559TIP3    H140620   6.658   4.453   2.432
13559TIP3    H240621   6.568   4.362   2.513
13560TIP3   OH240622   0.440   2.283   2.769
13560TIP3    H140623   0.439   2.201   2.818
13560TIP3    H240624   0.381   2.267   2.695
13561TIP3   OH240625   2.489   1.564   1.814
13561TIP3    H140626   2.560   1.533   1.758
13561TIP3    H240627   2.506   1.657   1.827
13562TIP3   OH240628   1.139   6.898   1.205
13562TIP3    H140629   1.097   6.901   1.119
13562TIP3    H240630   1.231   6.917   1.187
13563TIP3   OH240631   6.670   0.874   4.445
13563TIP3    H140632   6.664   0.863   4.350
13563TIP3    H240633   6.681   0.785   4.478
13564TIP3   OH240634   4.519   6.576   3.281
13564TIP3    H140635   4.450   6.637   3.307
13564TIP3    H240636   4.497   6.494   3.326
13565TIP3   OH240637   4.732   6.406   3.173
13565TIP3    H140638   4.817   6.431   3.210
13565TIP3    H240639   4.674   6.480   3.193
13566TIP3   OH240640   7.740   5.196   6.478
13566TIP3    H140641   7.682   5.136   6.526
13566TIP3    H240642   7.788   5.140   6.418
13567TIP3   OH240643   8.124   0.959   3.681
13567TIP3    H140644   8.160   0.884   3.728
13567TIP3    H240645   8.159   1.035   3.727
13568TIP3   OH240646   5.858   4.788   2.422
13568TIP3    H140647   5.894   4.726   2.357
13568TIP3    H240648   5.927   4.796   2.487
13569TIP3   OH240649   5.229   7.294   4.946
13569TIP3    H140650   5.305   7.353   4.947
13569TIP3    H240651   5.218   7.269   5.038
13570TIP3   OH240652   0.279   1.815   2.399
13570TIP3    H140653   0.329   1.743   2.438
13570TIP3    H240654   0.207   1.830   2.461
13571TIP3   OH240655   1.686   4.606   5.272
13571TIP3    H140656   1.617   4.666   5.244
13571TIP3    H240657   1.643   4.548   5.335
13572TIP3   OH240658   2.380   5.578   1.914
13572TIP3    H140659   2.381   5.499   1.861
13572TIP3    H240660   2.445   5.562   1.983
13573TIP3   OH240661   0.592   5.313   1.502
13573TIP3    H140662   0.633   5.235   1.465
13573TIP3    H240663   0.575   5.369   1.426
13574TIP3   OH240664   3.481   2.102   3.568
13574TIP3    H140665   3.524   2.036   3.623
13574TIP3    H240666   3.453   2.169   3.629
13575TIP3   OH240667   2.135   1.665   2.137
13575TIP3    H140668   2.223   1.646   2.170
13575TIP3    H240669   2.112   1.588   2.085
13576TIP3   OH240670   5.991   0.597   2.084
13576TIP3    H140671   6.017   0.520   2.134
13576TIP3    H240672   5.903   0.576   2.051
13577TIP3   OH240673   1.177   3.776   3.448
13577TIP3    H140674   1.081   3.775   3.452
13577TIP3    H240675   1.204   3.703   3.504
13578TIP3   OH240676   2.842   7.789   2.003
13578TIP3    H140677   2.784   7.821   1.934
13578TIP3    H240678   2.851   7.695   1.986
13579TIP3   OH240679   4.681   1.561   1.453
13579TIP3    H140680   4.723   1.647   1.454
13579TIP3    H240681   4.614   1.566   1.521
13580TIP3   OH240682   1.180   1.653   6.321
13580TIP3    H140683   1.247   1.610   6.374
13580TIP3    H240684   1.104   1.594   6.326
13581TIP3   OH240685   7.578   3.173   0.424
13581TIP3    H140686   7.568   3.130   0.509
13581TIP3    H240687   7.660   3.221   0.431
13582TIP3   OH240688   4.327   4.955   0.189
13582TIP3    H140689   4.406   4.953   0.244
13582TIP3    H240690   4.267   4.893   0.230
13583TIP3   OH240691   6.888   5.812   2.064
13583TIP3    H140692   6.807   5.761   2.071
13583TIP3    H240693   6.908   5.838   2.153
13584TIP3   OH240694   2.946   4.057   0.549
13584TIP3    H140695   3.007   4.040   0.620
13584TIP3    H240696   3.001   4.082   0.475
13585TIP3   OH240697   4.041   5.502   4.638
13585TIP3    H140698   4.010   5.575   4.692
13585TIP3    H240699   4.104   5.543   4.578
13586TIP3   OH240700   6.476   5.040   6.649
13586TIP3    H140701   6.479   4.998   6.735
13586TIP3    H240702   6.447   4.970   6.590
13587TIP3   OH240703   6.010   6.207   2.090
13587TIP3    H140704   5.983   6.154   2.015
13587TIP3    H240705   5.928   6.238   2.129
13588TIP3   OH240706   4.515   2.331   6.049
13588TIP3    H140707   4.537   2.318   5.956
13588TIP3    H240708   4.529   2.425   6.064
13589TIP3   OH240709   6.234   5.638   0.632
13589TIP3    H140710   6.232   5.548   0.601
13589TIP3    H240711   6.284   5.686   0.566
13590TIP3   OH240712   0.638   7.522   4.354
13590TIP3    H140713   0.620   7.592   4.291
13590TIP3    H240714   0.733   7.510   4.350
13591TIP3   OH240715   2.089   5.836   5.843
13591TIP3    H140716   2.076   5.928   5.867
13591TIP3    H240717   2.133   5.798   5.920
13592TIP3   OH240718   3.128   4.072   6.356
13592TIP3    H140719   3.135   4.161   6.323
13592TIP3    H240720   3.171   4.075   6.442
13593TIP3   OH240721   3.522   0.754   1.309
13593TIP3    H140722   3.471   0.677   1.336
13593TIP3    H240723   3.612   0.722   1.302
13594TIP3   OH240724   7.306   3.910   5.029
13594TIP3    H140725   7.225   3.905   4.979
13594TIP3    H240726   7.368   3.952   4.970
13595TIP3   OH240727   1.174   7.417   6.506
13595TIP3    H140728   1.181   7.373   6.421
13595TIP3    H240729   1.173   7.510   6.484
13596TIP3   OH240730   2.664   4.849   0.896
13596TIP3    H140731   2.740   4.803   0.933
13596TIP3    H240732   2.645   4.919   0.958
13597TIP3   OH240733   0.466   2.750   0.360
13597TIP3    H140734   0.420   2.809   0.419
13597TIP3    H240735   0.503   2.683   0.417
13598TIP3   OH240736   3.997   7.331   4.311
13598TIP3    H140737   4.039   7.303   4.230
13598TIP3    H240738   3.904   7.318   4.296
13599TIP3   OH240739   4.639   2.854   5.074
13599TIP3    H140740   4.556   2.835   5.030
13599TIP3    H240741   4.616   2.860   5.167
13600TIP3   OH240742   6.735   7.137   6.806
13600TIP3    H140743   6.734   7.219   6.756
13600TIP3    H240744   6.803   7.084   6.764
13601TIP3   OH240745   4.670   5.527   1.901
13601TIP3    H140746   4.645   5.574   1.822
13601TIP3    H240747   4.594   5.536   1.959
13602TIP3   OH240748   0.366   7.803   5.100
13602TIP3    H140749   0.369   7.890   5.060
13602TIP3    H240750   0.313   7.814   5.178
13603TIP3   OH240751   0.016   6.472   1.037
13603TIP3    H140752   0.096   6.437   0.996
13603TIP3    H240753  -0.030   6.515   0.965
13604TIP3   OH240754   1.407   1.419   5.771
13604TIP3    H140755   1.407   1.387   5.862
13604TIP3    H240756   1.384   1.512   5.779
13605TIP3   OH240757   0.891   1.967   3.238
13605TIP3    H140758   0.949   2.035   3.204
13605TIP3    H240759   0.912   1.890   3.186
13606TIP3   OH240760   4.121   6.802   3.414
13606TIP3    H140761   4.031   6.825   3.437
13606TIP3    H240762   4.112   6.730   3.351
13607TIP3   OH240763   4.530   1.036   5.522
13607TIP3    H140764   4.437   1.022   5.506
13607TIP3    H240765   4.533   1.100   5.593
13608TIP3   OH240766   2.584   2.257   6.474
13608TIP3    H140767   2.645   2.217   6.536
13608TIP3    H240768   2.587   2.351   6.494
13609TIP3   OH240769   4.614   0.180   5.763
13609TIP3    H140770   4.555   0.254   5.750
13609TIP3    H240771   4.676   0.210   5.830
13610TIP3   OH240772   6.852   3.760   2.794
13610TIP3    H140773   6.772   3.708   2.804
13610TIP3    H240774   6.871   3.791   2.883
13611TIP3   OH240775   7.664   2.999   2.398
13611TIP3    H140776   7.696   2.922   2.446
13611TIP3    H240777   7.721   3.070   2.427
13612TIP3   OH240778   3.474   7.120   5.520
13612TIP3    H140779   3.456   7.214   5.523
13612TIP3    H240780   3.545   7.111   5.456
13613TIP3   OH240781   4.274   4.640   3.826
13613TIP3    H140782   4.358   4.654   3.871
13613TIP3    H240783   4.208   4.654   3.893
13614TIP3   OH240784   6.458   7.719   6.270
13614TIP3    H140785   6.518   7.665   6.321
13614TIP3    H240786   6.416   7.658   6.209
13615TIP3   OH240787   4.804   2.751   1.399
13615TIP3    H140788   4.890   2.711   1.387
13615TIP3    H240789   4.763   2.699   1.468
13616TIP3   OH240790   3.624   6.264   2.604
13616TIP3    H140791   3.647   6.245   2.695
13616TIP3    H240792   3.684   6.210   2.553
13617TIP3   OH240793   8.086   2.762   2.292
13617TIP3    H140794   8.087   2.692   2.357
13617TIP3    H240795   8.106   2.842   2.341
13618TIP3   OH240796   2.657   0.493   6.516
13618TIP3    H140797   2.598   0.419   6.502
13618TIP3    H240798   2.720   0.488   6.445
13619TIP3   OH240799   8.218   6.316   1.257
13619TIP3    H140800   8.283   6.348   1.319
13619TIP3    H240801   8.239   6.360   1.175
13620TIP3   OH240802   4.925   0.738   6.579
13620TIP3    H140803   4.865   0.762   6.509
13620TIP3    H240804   5.012   0.760   6.545
13621TIP3   OH240805   1.873   4.539   0.845
13621TIP3    H140806   1.891   4.631   0.824
13621TIP3    H240807   1.946   4.512   0.900
13622TIP3   OH240808   7.973   4.185   3.086
13622TIP3    H140809   7.929   4.152   3.164
13622TIP3    H240810   8.054   4.225   3.118
13623TIP3   OH240811   6.507   7.037   4.938
13623TIP3    H140812   6.510   7.005   5.028
13623TIP3    H240813   6.416   7.063   4.924
13624TIP3   OH240814   8.198   3.998   1.219
13624TIP3    H140815   8.285   4.035   1.204
13624TIP3    H240816   8.214   3.906   1.237
13625TIP3   OH240817   4.248   1.270   3.327
13625TIP3    H140818   4.316   1.274   3.259
13625TIP3    H240819   4.211   1.182   3.319
13626TIP3   OH240820   1.938   5.816   5.622
13626TIP3    H140821   1.986   5.849   5.698
13626TIP3    H240822   2.001   5.758   5.578
13627TIP3   OH240823   6.337   0.948   6.630
13627TIP3    H140824   6.303   0.881   6.689
13627TIP3    H240825   6.412   0.906   6.587
13628TIP3   OH240826   7.397   5.912   0.662
13628TIP3    H140827   7.419   5.824   0.633
13628TIP3    H240828   7.402   5.908   0.758
13629TIP3   OH240829   2.412   4.321   6.651
13629TIP3    H140830   2.317   4.333   6.653
13629TIP3    H240831   2.425   4.237   6.607
13630TIP3   OH240832   5.851   3.385   2.110
13630TIP3    H140833   5.896   3.316   2.061
13630TIP3    H240834   5.790   3.338   2.167
13631TIP3   OH240835   3.091   6.998   0.488
13631TIP3    H140836   3.116   7.078   0.442
13631TIP3    H240837   3.137   6.928   0.441
13632TIP3   OH240838   7.126   2.160   5.027
13632TIP3    H140839   7.192   2.223   4.998
13632TIP3    H240840   7.094   2.121   4.946
13633TIP3   OH240841   5.638   5.568   2.523
13633TIP3    H140842   5.654   5.483   2.482
13633TIP3    H240843   5.594   5.620   2.456
13634TIP3   OH240844   6.414   3.703   2.627
13634TIP3    H140845   6.330   3.705   2.580
13634TIP3    H240846   6.476   3.746   2.569
13635TIP3   OH240847   1.612   1.134   3.161
13635TIP3    H140848   1.638   1.201   3.225
13635TIP3    H240849   1.623   1.051   3.208
13636TIP3   OH240850   7.457   4.064   5.461
13636TIP3    H140851   7.377   4.099   5.501
13636TIP3    H240852   7.447   3.969   5.466
13637TIP3   OH240853   0.695   1.737   1.304
13637TIP3    H140854   0.704   1.642   1.303
13637TIP3    H240855   0.784   1.770   1.294
13638TIP3   OH240856   6.021   4.788   0.297
13638TIP3    H140857   5.935   4.812   0.331
13638TIP3    H240858   6.055   4.724   0.360
13639TIP3   OH240859   3.634   6.066   1.572
13639TIP3    H140860   3.634   5.993   1.634
13639TIP3    H240861   3.583   6.134   1.615
13640TIP3   OH240862   0.244   5.159   3.794
13640TIP3    H140863   0.284   5.084   3.751
13640TIP3    H240864   0.276   5.235   3.745
13641TIP3   OH240865   0.511   1.906   2.283
13641TIP3    H140866   0.552   1.958   2.351
13641TIP3    H240867   0.426   1.880   2.320
13642TIP3   OH240868   2.139   0.375   3.238
13642TIP3    H140869   2.145   0.281   3.221
13642TIP3    H240870   2.142   0.381   3.334
13643TIP3   OH240871   7.956   2.697   1.392
13643TIP3    H140872   7.991   2.781   1.364
13643TIP3    H240873   8.031   2.650   1.428
13644TIP3   OH240874   5.997   1.700   4.611
13644TIP3    H140875   6.068   1.658   4.563
13644TIP3    H240876   5.975   1.637   4.680
13645TIP3   OH240877   1.390   3.856   0.621
13645TIP3    H140878   1.362   3.946   0.606
13645TIP3    H240879   1.416   3.853   0.712
13646TIP3   OH240880   5.391   5.328   6.585
13646TIP3    H140881   5.307   5.370   6.602
13646TIP3    H240882   5.411   5.281   6.666
13647TIP3   OH240883   6.420   3.195   0.587
13647TIP3    H140884   6.450   3.286   0.594
13647TIP3    H240885   6.363   3.194   0.511
13648TIP3   OH240886   4.873   3.173   5.534
13648TIP3    H140887   4.796   3.182   5.589
13648TIP3    H240888   4.936   3.125   5.589
13649TIP3   OH240889   8.262   6.305   2.222
13649TIP3    H140890   8.228   6.379   2.272
13649TIP3    H240891   8.314   6.345   2.152
13650TIP3   OH240892   2.582   1.124   2.585
13650TIP3    H140893   2.563   1.034   2.559
13650TIP3    H240894   2.637   1.158   2.515
13651TIP3   OH240895   1.024   5.588   5.749
13651TIP3    H140896   1.015   5.534   5.827
13651TIP3    H240897   1.057   5.672   5.781
13652TIP3   OH240898   0.356   0.810   5.175
13652TIP3    H140899   0.418   0.879   5.152
13652TIP3    H240900   0.270   0.853   5.174
13653TIP3   OH240901   6.151   6.330   3.270
13653TIP3    H140902   6.222   6.275   3.236
13653TIP3    H240903   6.095   6.346   3.193
13654TIP3   OH240904   2.771   2.670   2.965
13654TIP3    H140905   2.854   2.685   3.011
13654TIP3    H240906   2.742   2.757   2.939
13655TIP3   OH240907   7.171   7.285   5.558
13655TIP3    H140908   7.105   7.236   5.607
13655TIP3    H240909   7.255   7.252   5.591
13656TIP3   OH240910   8.088   5.343   4.295
13656TIP3    H140911   8.070   5.433   4.321
13656TIP3    H240912   8.020   5.291   4.337
13657TIP3   OH240913   5.274   3.566   6.215
13657TIP3    H140914   5.283   3.625   6.141
13657TIP3    H240915   5.343   3.593   6.276
13658TIP3   OH240916   6.224   2.131   5.098
13658TIP3    H140917   6.212   2.140   5.193
13658TIP3    H240918   6.264   2.044   5.087
13659TIP3   OH240919   2.528   2.365   6.758
13659TIP3    H140920   2.605   2.311   6.742
13659TIP3    H240921   2.556   2.429   6.823
13660TIP3   OH240922   4.633   3.060   0.159
13660TIP3    H140923   4.695   3.051   0.086
13660TIP3    H240924   4.589   2.975   0.163
13661TIP3   OH240925   7.449   6.137   5.611
13661TIP3    H140926   7.464   6.060   5.556
13661TIP3    H240927   7.361   6.167   5.587
13662TIP3   OH240928   4.021   3.905   4.210
13662TIP3    H140929   4.048   3.866   4.294
13662TIP3    H240930   3.990   3.992   4.234
13663TIP3   OH240931   4.083   6.505   4.250
13663TIP3    H140932   4.034   6.474   4.326
13663TIP3    H240933   4.021   6.563   4.205
13664TIP3   OH240934   6.284   0.938   1.299
13664TIP3    H140935   6.252   0.855   1.263
13664TIP3    H240936   6.236   1.006   1.252
13665TIP3   OH240937   0.637   2.732   2.759
13665TIP3    H140938   0.579   2.722   2.835
13665TIP3    H240939   0.725   2.735   2.797
13666TIP3   OH240940   0.941   1.153   6.489
13666TIP3    H140941   0.871   1.089   6.475
13666TIP3    H240942   1.018   1.113   6.447
13667TIP3   OH240943   8.139   6.182   5.142
13667TIP3    H140944   8.158   6.210   5.052
13667TIP3    H240945   8.048   6.153   5.139
13668TIP3   OH240946   5.754   5.908   5.602
13668TIP3    H140947   5.767   5.818   5.572
13668TIP3    H240948   5.709   5.898   5.687
13669TIP3   OH240949   1.490   4.378   3.353
13669TIP3    H140950   1.512   4.429   3.431
13669TIP3    H240951   1.398   4.397   3.337
13670TIP3   OH240952   6.955   7.636   4.479
13670TIP3    H140953   7.041   7.659   4.442
13670TIP3    H240954   6.975   7.585   4.557
13671TIP3   OH240955   5.282   0.182   5.680
13671TIP3    H140956   5.335   0.114   5.639
13671TIP3    H240957   5.344   0.231   5.734
13672TIP3   OH240958   2.245   3.650   1.195
13672TIP3    H140959   2.228   3.569   1.148
13672TIP3    H240960   2.325   3.633   1.246
13673TIP3   OH240961   6.496   1.920   2.270
13673TIP3    H140962   6.459   1.860   2.206
13673TIP3    H240963   6.473   1.881   2.355
13674TIP3   OH240964   2.165   4.003   4.371
13674TIP3    H140965   2.200   4.031   4.286
13674TIP3    H240966   2.204   4.064   4.434
13675TIP3   OH240967   0.912   0.540   0.129
13675TIP3    H140968   0.847   0.474   0.156
13675TIP3    H240969   0.915   0.602   0.201
13676TIP3   OH240970   8.236   4.395   3.940
13676TIP3    H140971   8.224   4.363   3.850
13676TIP3    H240972   8.206   4.486   3.937
13677TIP3   OH240973   5.222   2.576   5.222
13677TIP3    H140974   5.235   2.567   5.127
13677TIP3    H240975   5.288   2.519   5.260
13678TIP3   OH240976   1.750   0.646   5.837
13678TIP3    H140977   1.747   0.558   5.875
13678TIP3    H240978   1.693   0.699   5.893
13679TIP3   OH240979   4.127   2.494   0.369
13679TIP3    H140980   4.218   2.477   0.345
13679TIP3    H240981   4.089   2.537   0.292
13680TIP3   OH240982   3.623   1.832   6.500
13680TIP3    H140983   3.638   1.926   6.490
13680TIP3    H240984   3.538   1.817   6.458
13681TIP3   OH240985   6.892   3.972   6.079
13681TIP3    H140986   6.927   3.904   6.137
13681TIP3    H240987   6.862   4.041   6.138
13682TIP3   OH240988   3.993   4.521   6.780
13682TIP3    H140989   3.941   4.595   6.811
13682TIP3    H240990   3.952   4.495   6.698
13683TIP3   OH240991   6.164   1.513   5.335
13683TIP3    H140992   6.072   1.489   5.346
13683TIP3    H240993   6.165   1.567   5.256
13684TIP3   OH240994   0.137   6.578   5.930
13684TIP3    H140995   0.147   6.643   5.999
13684TIP3    H240996   0.087   6.507   5.971
13685TIP3   OH240997   0.697   6.334   0.815
13685TIP3    H140998   0.729   6.261   0.868
13685TIP3    H240999   0.618   6.363   0.861
13686TIP3   OH241000   4.339   6.341   5.995
13686TIP3    H141001   4.298   6.261   6.027
13686TIP3    H241002   4.267   6.405   5.991
13687TIP3   OH241003   1.676   3.912   2.498
13687TIP3    H141004   1.617   3.844   2.531
13687TIP3    H241005   1.727   3.869   2.430
13688TIP3   OH241006   1.141   4.284   4.210
13688TIP3    H141007   1.115   4.306   4.121
13688TIP3    H241008   1.116   4.192   4.220
13689TIP3   OH241009   0.537   6.545   3.585
13689TIP3    H141010   0.582   6.629   3.572
13689TIP3    H241011   0.510   6.545   3.677
13690TIP3   OH241012   6.903   4.681   2.917
13690TIP3    H141013   6.955   4.707   2.842
13690TIP3    H241014   6.830   4.631   2.880
13691TIP3   OH241015   7.477   0.460   2.307
13691TIP3    H141016   7.501   0.522   2.375
13691TIP3    H241017   7.541   0.389   2.316
13692TIP3   OH241018   6.142   2.033   1.622
13692TIP3    H141019   6.064   1.981   1.642
13692TIP3    H241020   6.213   1.985   1.665
13693TIP3   OH241021   6.284   4.660   4.633
13693TIP3    H141022   6.238   4.736   4.668
13693TIP3    H241023   6.341   4.632   4.705
13694TIP3   OH241024   0.511   0.350   5.427
13694TIP3    H141025   0.493   0.282   5.491
13694TIP3    H241026   0.567   0.308   5.361
13695TIP3   OH241027   5.626   1.688   1.432
13695TIP3    H141028   5.623   1.726   1.345
13695TIP3    H241029   5.577   1.606   1.424
13696TIP3   OH241030   0.948   6.027   2.736
13696TIP3    H141031   1.037   6.040   2.704
13696TIP3    H241032   0.959   5.986   2.821
13697TIP3   OH241033   3.421   3.663   1.001
13697TIP3    H141034   3.341   3.709   0.975
13697TIP3    H241035   3.459   3.716   1.070
13698TIP3   OH241036   7.849   1.906   5.196
13698TIP3    H141037   7.803   1.923   5.114
13698TIP3    H241038   7.817   1.974   5.256
13699TIP3   OH241039   5.462   6.675   4.489
13699TIP3    H141040   5.409   6.745   4.451
13699TIP3    H241041   5.549   6.713   4.501
13700TIP3   OH241042   5.941   2.732   4.364
13700TIP3    H141043   5.909   2.671   4.297
13700TIP3    H241044   5.871   2.735   4.430
13701TIP3   OH241045   8.161   0.374   2.407
13701TIP3    H141046   8.186   0.305   2.347
13701TIP3    H241047   8.208   0.451   2.376
13702TIP3   OH241048   3.736   4.692   0.600
13702TIP3    H141049   3.724   4.765   0.661
13702TIP3    H241050   3.824   4.705   0.564
13703TIP3   OH241051   4.943   0.585   3.900
13703TIP3    H141052   4.854   0.608   3.930
13703TIP3    H241053   4.991   0.566   3.981
13704TIP3   OH241054   1.455   3.868   3.513
13704TIP3    H141055   1.404   3.837   3.438
13704TIP3    H241056   1.485   3.955   3.488
13705TIP3   OH241057   0.439   2.907   5.528
13705TIP3    H141058   0.476   2.852   5.597
13705TIP3    H241059   0.345   2.910   5.547
13706TIP3   OH241060   6.329   5.924   2.800
13706TIP3    H141061   6.285   5.865   2.739
13706TIP3    H241062   6.421   5.923   2.773
13707TIP3   OH241063   7.402   6.254   5.065
13707TIP3    H141064   7.335   6.186   5.074
13707TIP3    H241065   7.416   6.285   5.155
13708TIP3   OH241066   2.663   6.851   5.636
13708TIP3    H141067   2.749   6.886   5.661
13708TIP3    H241068   2.672   6.757   5.649
13709TIP3   OH241069   3.802   7.093   0.687
13709TIP3    H141070   3.751   7.151   0.631
13709TIP3    H241071   3.740   7.062   0.753
13710TIP3   OH241072   6.846   6.250   5.448
13710TIP3    H141073   6.876   6.322   5.504
13710TIP3    H241074   6.896   6.174   5.478
13711TIP3   OH241075   7.249   5.470   0.458
13711TIP3    H141076   7.207   5.386   0.476
13711TIP3    H241077   7.334   5.447   0.421
13712TIP3   OH241078   6.266   4.555   3.682
13712TIP3    H141079   6.257   4.645   3.650
13712TIP3    H241080   6.340   4.519   3.632
13713TIP3   OH241081   7.170   3.558   0.350
13713TIP3    H141082   7.094   3.531   0.298
13713TIP3    H241083   7.185   3.486   0.410
13714TIP3   OH241084   1.199   5.818   0.868
13714TIP3    H141085   1.254   5.879   0.819
13714TIP3    H241086   1.135   5.787   0.804
13715TIP3   OH241087   4.085   2.956   0.861
13715TIP3    H141088   4.171   2.993   0.843
13715TIP3    H241089   4.023   3.018   0.823
13716TIP3   OH241090   6.359   3.596   4.309
13716TIP3    H141091   6.375   3.536   4.381
13716TIP3    H241092   6.424   3.572   4.243
13717TIP3   OH241093   3.003   3.030   6.013
13717TIP3    H141094   3.026   2.938   6.028
13717TIP3    H241095   3.086   3.077   6.024
13718TIP3   OH241096   3.052   1.940   2.944
13718TIP3    H141097   3.006   2.002   2.888
13718TIP3    H241098   3.098   1.882   2.883
13719TIP3   OH241099   0.673   2.996   2.625
13719TIP3    H141100   0.637   3.038   2.703
13719TIP3    H241101   0.766   2.988   2.643
13720TIP3   OH241102   0.132   0.831   1.377
13720TIP3    H141103   0.215   0.797   1.345
13720TIP3    H241104   0.068   0.802   1.312
13721TIP3   OH241105   8.074   6.108   2.884
13721TIP3    H141106   8.007   6.156   2.836
13721TIP3    H241107   8.082   6.024   2.838
13722TIP3   OH241108   6.951   0.279   3.025
13722TIP3    H141109   7.046   0.272   3.031
13722TIP3    H241110   6.919   0.198   3.064
13723TIP3   OH241111   7.467   2.109   6.491
13723TIP3    H141112   7.441   2.183   6.436
13723TIP3    H241113   7.561   2.122   6.505
13724TIP3   OH241114   1.080   3.901   5.558
13724TIP3    H141115   1.155   3.892   5.616
13724TIP3    H241116   1.073   3.996   5.543
13725TIP3   OH241117   2.204   6.980   5.107
13725TIP3    H141118   2.249   7.035   5.171
13725TIP3    H241119   2.275   6.944   5.052
13726TIP3   OH241120   4.223   0.019   3.807
13726TIP3    H141121   4.159  -0.048   3.782
13726TIP3    H241122   4.255   0.053   3.724
13727TIP3   OH241123   1.376   6.241   3.216
13727TIP3    H141124   1.434   6.317   3.216
13727TIP3    H241125   1.329   6.247   3.133
13728TIP3   OH241126   6.994   3.243   4.674
13728TIP3    H141127   7.053   3.283   4.610
13728TIP3    H241128   7.031   3.156   4.690
13729TIP3   OH241129   4.597   6.624   4.426
13729TIP3    H141130   4.579   6.718   4.416
13729TIP3    H241131   4.549   6.598   4.504
13730TIP3   OH241132   3.860   2.877   4.029
13730TIP3    H141133   3.788   2.835   3.983
13730TIP3    H241134   3.823   2.902   4.114
13731TIP3   OH241135   3.388   1.605   0.448
13731TIP3    H141136   3.423   1.545   0.513
13731TIP3    H241137   3.320   1.654   0.495
13732TIP3   OH241138   2.978   5.153   3.774
13732TIP3    H141139   3.012   5.106   3.850
13732TIP3    H241140   3.005   5.243   3.787
13733TIP3   OH241141   1.844   7.237   0.623
13733TIP3    H141142   1.801   7.159   0.658
13733TIP3    H241143   1.899   7.204   0.551
13734TIP3   OH241144   5.964   2.860   5.021
13734TIP3    H141145   6.020   2.832   5.093
13734TIP3    H241146   5.945   2.952   5.039
13735TIP3   OH241147   1.511   2.830   0.349
13735TIP3    H141148   1.450   2.889   0.305
13735TIP3    H241149   1.582   2.888   0.379
13736TIP3   OH241150   0.539   3.869   2.100
13736TIP3    H141151   0.588   3.796   2.138
13736TIP3    H241152   0.463   3.827   2.058
13737TIP3   OH241153   4.125   2.372   4.220
13737TIP3    H141154   4.037   2.355   4.254
13737TIP3    H241155   4.184   2.331   4.284
13738TIP3   OH241156   0.579   2.248   4.678
13738TIP3    H141157   0.488   2.247   4.649
13738TIP3    H241158   0.586   2.329   4.730
13739TIP3   OH241159   1.458   3.606   3.909
13739TIP3    H141160   1.466   3.640   3.998
13739TIP3    H241161   1.369   3.571   3.905
13740TIP3   OH241162   5.874   5.969   6.076
13740TIP3    H141163   5.866   5.876   6.055
13740TIP3    H241164   5.793   6.008   6.042
13741TIP3   OH241165   1.595   0.352   0.278
13741TIP3    H141166   1.564   0.408   0.207
13741TIP3    H241167   1.584   0.405   0.357
13742TIP3   OH241168   1.605   1.809   6.360
13742TIP3    H141169   1.637   1.852   6.439
13742TIP3    H241170   1.607   1.716   6.381
13743TIP3   OH241171   1.113   3.553   0.401
13743TIP3    H141172   1.126   3.461   0.426
13743TIP3    H241173   1.018   3.564   0.399
13744TIP3   OH241174   7.943   2.822   5.732
13744TIP3    H141175   7.979   2.869   5.807
13744TIP3    H241176   7.871   2.877   5.702
13745TIP3   OH241177   6.897   6.712   5.782
13745TIP3    H141178   6.848   6.787   5.749
13745TIP3    H241179   6.919   6.735   5.872
13746TIP3   OH241180   2.111   4.198   1.635
13746TIP3    H141181   2.135   4.193   1.542
13746TIP3    H241182   2.080   4.110   1.656
13747TIP3   OH241183   3.578   5.939   5.495
13747TIP3    H141184   3.672   5.955   5.500
13747TIP3    H241185   3.566   5.900   5.409
13748TIP3   OH241186   2.205   6.658   4.195
13748TIP3    H141187   2.156   6.706   4.261
13748TIP3    H241188   2.283   6.627   4.240
13749TIP3   OH241189   2.617   2.085   1.094
13749TIP3    H141190   2.542   2.108   1.040
13749TIP3    H241191   2.682   2.051   1.032
13750TIP3   OH241192   3.341   4.258   6.135
13750TIP3    H141193   3.387   4.340   6.153
13750TIP3    H241194   3.264   4.262   6.192
13751TIP3   OH241195   0.704   0.244   5.874
13751TIP3    H141196   0.737   0.316   5.929
13751TIP3    H241197   0.749   0.166   5.907
13752TIP3   OH241198   8.018   2.160   0.001
13752TIP3    H141199   7.984   2.071  -0.013
13752TIP3    H241200   8.113   2.148   0.010
13753TIP3   OH241201   0.505   2.339   5.292
13753TIP3    H141202   0.419   2.313   5.260
13753TIP3    H241203   0.550   2.375   5.215
13754TIP3   OH241204   7.947   1.664   5.277
13754TIP3    H141205   7.959   1.619   5.194
13754TIP3    H241206   7.922   1.753   5.253
13755TIP3   OH241207   2.064   5.474   3.696
13755TIP3    H141208   2.145   5.424   3.710
13755TIP3    H241209   2.000   5.434   3.755
13756TIP3   OH241210   4.978   3.676   5.745
13756TIP3    H141211   5.026   3.746   5.789
13756TIP3    H241212   5.029   3.657   5.666
13757TIP3   OH241213   3.165   6.031   0.654
13757TIP3    H141214   3.176   6.004   0.745
13757TIP3    H241215   3.242   5.996   0.609
13758TIP3   OH241216   4.186   0.734   4.453
13758TIP3    H141217   4.096   0.757   4.476
13758TIP3    H241218   4.218   0.682   4.528
13759TIP3   OH241219   4.270   5.727   5.451
13759TIP3    H141220   4.196   5.787   5.455
13759TIP3    H241221   4.272   5.697   5.361
13760TIP3   OH241222   5.090   3.882   5.008
13760TIP3    H141223   5.133   3.799   5.031
13760TIP3    H241224   5.119   3.943   5.076
13761TIP3   OH241225   1.051   0.193   5.756
13761TIP3    H141226   1.055   0.195   5.660
13761TIP3    H241227   1.138   0.165   5.784
13762TIP3   OH241228   4.914   1.087   1.192
13762TIP3    H141229   4.998   1.128   1.176
13762TIP3    H241230   4.935   1.011   1.247
13763TIP3   OH241231   1.760   1.959   5.294
13763TIP3    H141232   1.853   1.938   5.284
13763TIP3    H241233   1.723   1.942   5.208
13764TIP3   OH241234   7.052   7.623   6.165
13764TIP3    H141235   7.115   7.691   6.139
13764TIP3    H241236   7.070   7.607   6.257
13765TIP3   OH241237   7.558   3.787   2.750
13765TIP3    H141238   7.603   3.733   2.685
13765TIP3    H241239   7.606   3.772   2.832
13766TIP3   OH241240   1.298   4.941   0.328
13766TIP3    H141241   1.258   4.912   0.411
13766TIP3    H241242   1.270   5.032   0.319
13767TIP3   OH241243   2.301   2.927   4.602
13767TIP3    H141244   2.367   2.996   4.592
13767TIP3    H241245   2.344   2.861   4.657
13768TIP3   OH241246   4.079   4.564   1.282
13768TIP3    H141247   4.101   4.601   1.367
13768TIP3    H241248   3.984   4.559   1.281
13769TIP3   OH241249   8.138   4.009   4.821
13769TIP3    H141250   8.120   3.948   4.750
13769TIP3    H241251   8.091   3.973   4.896
13770TIP3   OH241252   2.778   3.388   6.339
13770TIP3    H141253   2.703   3.401   6.281
13770TIP3    H241254   2.803   3.297   6.326
13771TIP3   OH241255   0.331   3.611   2.330
13771TIP3    H141256   0.281   3.684   2.369
13771TIP3    H241257   0.388   3.581   2.401
13772TIP3   OH241258   1.523   2.431   6.542
13772TIP3    H141259   1.531   2.343   6.504
13772TIP3    H241260   1.547   2.419   6.634
13773TIP3   OH241261   5.606   5.041   5.144
13773TIP3    H141262   5.564   4.999   5.068
13773TIP3    H241263   5.670   4.977   5.174
13774TIP3   OH241264   1.087   4.080   0.752
13774TIP3    H141265   0.998   4.107   0.776
13774TIP3    H241266   1.123   4.154   0.704
13775TIP3   OH241267   0.413   7.648   1.090
13775TIP3    H141268   0.327   7.645   1.131
13775TIP3    H241269   0.473   7.676   1.159
13776TIP3   OH241270   5.445   0.973   5.892
13776TIP3    H141271   5.537   0.997   5.906
13776TIP3    H241272   5.435   0.976   5.796
13777TIP3   OH241273   6.003   0.597   1.146
13777TIP3    H141274   5.932   0.610   1.083
13777TIP3    H241275   5.990   0.508   1.179
13778TIP3   OH241276   1.166   0.140   4.932
13778TIP3    H141277   1.121   0.056   4.923
13778TIP3    H241278   1.123   0.183   5.006
13779TIP3   OH241279   6.532   2.483   2.885
13779TIP3    H141280   6.450   2.434   2.880
13779TIP3    H241281   6.600   2.416   2.893
13780TIP3   OH241282   7.896   7.260   5.081
13780TIP3    H141283   7.823   7.235   5.138
13780TIP3    H241284   7.899   7.356   5.088
13781TIP3   OH241285   1.894   0.448   1.870
13781TIP3    H141286   1.874   0.491   1.953
13781TIP3    H241287   1.809   0.441   1.825
13782TIP3   OH241288   6.190   5.510   4.702
13782TIP3    H141289   6.277   5.487   4.737
13782TIP3    H241290   6.203   5.516   4.607
13783TIP3   OH241291   1.683   0.009   4.122
13783TIP3    H141292   1.590  -0.003   4.102
13783TIP3    H241293   1.706   0.092   4.080
13784TIP3   OH241294   6.833   4.157   2.466
13784TIP3    H141295   6.760   4.218   2.464
13784TIP3    H241296   6.900   4.197   2.409
13785TIP3   OH241297   7.210   6.745   2.349
13785TIP3    H141298   7.231   6.835   2.325
13785TIP3    H241299   7.117   6.736   2.326
13786TIP3   OH241300   5.706   2.029   5.999
13786TIP3    H141301   5.793   2.058   6.026
13786TIP3    H241302   5.686   1.956   6.058
13787TIP3   OH241303   6.306   0.793   3.377
13787TIP3    H141304   6.302   0.787   3.282
13787TIP3    H241305   6.397   0.776   3.399
13788TIP3   OH241306   8.197   1.536   2.269
13788TIP3    H141307   8.216   1.608   2.209
13788TIP3    H241308   8.278   1.486   2.275
13789TIP3   OH241309   4.978   3.396   2.315
13789TIP3    H141310   4.960   3.308   2.285
13789TIP3    H241311   4.939   3.401   2.402
13790TIP3   OH241312   5.666   6.194   0.295
13790TIP3    H141313   5.702   6.234   0.215
13790TIP3    H241314   5.739   6.145   0.332
13791TIP3   OH241315   6.452   3.834   6.495
13791TIP3    H141316   6.434   3.918   6.451
13791TIP3    H241317   6.463   3.772   6.423
13792TIP3   OH241318   5.527   6.422   1.474
13792TIP3    H141319   5.595   6.413   1.540
13792TIP3    H241320   5.553   6.499   1.423
13793TIP3   OH241321   3.341   2.715   3.583
13793TIP3    H141322   3.275   2.696   3.516
13793TIP3    H241323   3.299   2.779   3.640
13794TIP3   OH241324   6.276   0.166   0.888
13794TIP3    H141325   6.186   0.158   0.919
13794TIP3    H241326   6.269   0.224   0.812
13795TIP3   OH241327   3.453   6.274   6.262
13795TIP3    H141328   3.376   6.329   6.249
13795TIP3    H241329   3.475   6.284   6.354
13796TIP3   OH241330   3.376   3.710   0.630
13796TIP3    H141331   3.406   3.623   0.658
13796TIP3    H241332   3.435   3.771   0.674
13797TIP3   OH241333   3.417   7.305   4.278
13797TIP3    H141334   3.419   7.337   4.188
13797TIP3    H241335   3.416   7.209   4.270
13798TIP3   OH241336   2.193   6.981   4.703
13798TIP3    H141337   2.233   6.929   4.634
13798TIP3    H241338   2.165   6.917   4.769
13799TIP3   OH241339   3.052   3.222   0.665
13799TIP3    H141340   2.964   3.194   0.690
13799TIP3    H241341   3.102   3.141   0.654
13800TIP3   OH241342   3.418   0.084   3.023
13800TIP3    H141343   3.324   0.065   3.024
13800TIP3    H241344   3.425   0.173   3.057
13801TIP3   OH241345   4.886   6.566   3.366
13801TIP3    H141346   4.829   6.643   3.368
13801TIP3    H241347   4.860   6.515   3.443
13802TIP3   OH241348   7.872   2.445   4.930
13802TIP3    H141349   7.868   2.508   5.002
13802TIP3    H241350   7.937   2.482   4.870
13803TIP3   OH241351   0.949   3.134   1.947
13803TIP3    H141352   0.940   3.229   1.955
13803TIP3    H241353   0.947   3.118   1.852
13804TIP3   OH241354   2.996   5.800   5.091
13804TIP3    H141355   3.051   5.728   5.060
13804TIP3    H241356   3.039   5.830   5.171
13805TIP3   OH241357   0.074   2.602   4.570
13805TIP3    H141358   0.137   2.643   4.511
13805TIP3    H241359   0.028   2.675   4.611
13806TIP3   OH241360   1.775   3.466   0.892
13806TIP3    H141361   1.748   3.523   0.964
13806TIP3    H241362   1.700   3.407   0.879
13807TIP3   OH241363   1.345   1.279   4.983
13807TIP3    H141364   1.328   1.228   5.062
13807TIP3    H241365   1.353   1.369   5.014
13808TIP3   OH241366   4.884   0.504   0.089
13808TIP3    H141367   4.941   0.580   0.076
13808TIP3    H241368   4.865   0.472   0.001
13809TIP3   OH241369   0.061   1.762   6.265
13809TIP3    H141370   0.055   1.673   6.230
13809TIP3    H241371  -0.012   1.808   6.224
13810TIP3   OH241372   2.808   7.717   4.048
13810TIP3    H141373   2.757   7.794   4.072
13810TIP3    H241374   2.806   7.662   4.126
13811TIP3   OH241375   6.466   3.721   1.912
13811TIP3    H141376   6.432   3.635   1.888
13811TIP3    H241377   6.509   3.706   1.997
13812TIP3   OH241378   1.884   7.149   2.149
13812TIP3    H141379   1.889   7.225   2.091
13812TIP3    H241380   1.791   7.132   2.158
13813TIP3   OH241381   2.648   6.449   2.480
13813TIP3    H141382   2.727   6.464   2.427
13813TIP3    H241383   2.653   6.357   2.505
13814TIP3   OH241384   6.260   1.638   4.400
13814TIP3    H141385   6.198   1.622   4.329
13814TIP3    H241386   6.262   1.557   4.450
13815TIP3   OH241387   3.036   4.575   4.451
13815TIP3    H141388   3.084   4.496   4.475
13815TIP3    H241389   3.102   4.633   4.413
13816TIP3   OH241390   7.782   1.603   6.455
13816TIP3    H141391   7.846   1.665   6.488
13816TIP3    H241392   7.827   1.518   6.459
13817TIP3   OH241393   1.199   4.381   3.798
13817TIP3    H141394   1.176   4.291   3.822
13817TIP3    H241395   1.232   4.373   3.708
13818TIP3   OH241396   1.084   1.337   4.868
13818TIP3    H141397   1.091   1.324   4.963
13818TIP3    H241398   1.155   1.284   4.831
13819TIP3   OH241399   4.033   1.979   3.083
13819TIP3    H141400   3.990   1.961   3.167
13819TIP3    H241401   3.971   1.949   3.017
13820TIP3   OH241402   2.299   6.136   4.561
13820TIP3    H141403   2.204   6.144   4.573
13820TIP3    H241404   2.308   6.108   4.469
13821TIP3   OH241405   4.934   7.507   0.752
13821TIP3    H141406   4.876   7.453   0.698
13821TIP3    H241407   5.020   7.466   0.744
13822TIP3   OH241408   2.120   5.964   3.790
13822TIP3    H141409   2.102   5.870   3.788
13822TIP3    H241410   2.114   5.991   3.698
13823TIP3   OH241411   5.930   0.979   3.598
13823TIP3    H141412   5.897   0.896   3.564
13823TIP3    H241413   5.860   1.042   3.578
13824TIP3   OH241414   3.937   2.407   0.531
13824TIP3    H141415   3.943   2.453   0.615
13824TIP3    H241416   4.022   2.422   0.489
13825TIP3   OH241417   1.666   1.512   3.760
13825TIP3    H141418   1.621   1.474   3.684
13825TIP3    H241419   1.596   1.553   3.811
13826TIP3   OH241420   4.757   6.151   5.470
13826TIP3    H141421   4.804   6.197   5.539
13826TIP3    H241422   4.817   6.081   5.443
13827TIP3   OH241423   6.085   0.563   3.535
13827TIP3    H141424   6.102   0.599   3.448
13827TIP3    H241425   6.083   0.468   3.521
13828TIP3   OH241426   3.096   3.990   5.066
13828TIP3    H141427   3.108   4.000   4.972
13828TIP3    H241428   3.182   4.006   5.104
13829TIP3   OH241429   3.988   4.111   2.081
13829TIP3    H141430   4.049   4.057   2.132
13829TIP3    H241431   4.045   4.170   2.031
13830TIP3   OH241432   1.137   5.440   0.570
13830TIP3    H141433   1.060   5.436   0.513
13830TIP3    H241434   1.102   5.464   0.656
13831TIP3   OH241435   2.289   7.784   5.438
13831TIP3    H141436   2.250   7.717   5.383
13831TIP3    H241437   2.373   7.804   5.395
13832TIP3   OH241438   0.421   3.340   3.991
13832TIP3    H141439   0.440   3.285   4.068
13832TIP3    H241440   0.399   3.425   4.027
13833TIP3   OH241441   1.330   6.141   4.702
13833TIP3    H141442   1.419   6.144   4.737
13833TIP3    H241443   1.283   6.208   4.750
13834TIP3   OH241444   6.951   4.036   2.925
13834TIP3    H141445   6.941   3.949   2.965
13834TIP3    H241446   7.010   4.082   2.984
13835TIP3   OH241447   6.195   2.720   1.977
13835TIP3    H141448   6.248   2.796   1.951
13835TIP3    H241449   6.119   2.724   1.919
13836TIP3   OH241450   5.876   2.108   0.341
13836TIP3    H141451   5.860   2.202   0.341
13836TIP3    H241452   5.970   2.100   0.359
13837TIP3   OH241453   7.118   3.459   5.601
13837TIP3    H141454   7.078   3.537   5.562
13837TIP3    H241455   7.099   3.466   5.694
13838TIP3   OH241456   6.841   3.223   1.082
13838TIP3    H141457   6.845   3.145   1.138
13838TIP3    H241458   6.927   3.228   1.042
13839TIP3   OH241459   5.098   0.323   5.538
13839TIP3    H141460   5.008   0.318   5.569
13839TIP3    H241461   5.145   0.259   5.592
13840TIP3   OH241462   7.175   6.525   6.076
13840TIP3    H141463   7.192   6.486   6.162
13840TIP3    H241464   7.249   6.585   6.062
13841TIP3   OH241465   4.356   0.315   4.341
13841TIP3    H141466   4.373   0.334   4.249
13841TIP3    H241467   4.389   0.391   4.388
13842TIP3   OH241468   6.597   3.935   4.680
13842TIP3    H141469   6.592   3.853   4.630
13842TIP3    H241470   6.632   3.999   4.618
13843TIP3   OH241471   5.891   2.442   5.397
13843TIP3    H141472   5.936   2.359   5.382
13843TIP3    H241473   5.882   2.480   5.309
13844TIP3   OH241474   3.637   4.436   3.782
13844TIP3    H141475   3.715   4.486   3.757
13844TIP3    H241476   3.671   4.362   3.832
13845TIP3   OH241477   2.088   3.766   3.846
13845TIP3    H141478   2.060   3.769   3.754
13845TIP3    H241479   2.012   3.795   3.895
13846TIP3   OH241480   4.467   2.619   5.561
13846TIP3    H141481   4.492   2.562   5.488
13846TIP3    H241482   4.550   2.641   5.603
13847TIP3   OH241483   6.517   3.810   2.910
13847TIP3    H141484   6.426   3.841   2.907
13847TIP3    H241485   6.524   3.751   2.835
13848TIP3   OH241486   5.784   0.856   1.691
13848TIP3    H141487   5.756   0.765   1.693
13848TIP3    H241488   5.879   0.853   1.683
13849TIP3   OH241489   6.936   7.144   5.655
13849TIP3    H141490   6.897   7.156   5.742
13849TIP3    H241491   6.984   7.061   5.663
13850TIP3   OH241492   7.473   5.313   5.396
13850TIP3    H141493   7.529   5.384   5.428
13850TIP3    H241494   7.464   5.331   5.302
13851TIP3   OH241495   8.236   6.428   5.544
13851TIP3    H141496   8.294   6.437   5.619
13851TIP3    H241497   8.281   6.368   5.485
13852TIP3   OH241498   5.270   5.554   0.632
13852TIP3    H141499   5.188   5.517   0.662
13852TIP3    H241500   5.287   5.512   0.547
13853TIP3   OH241501   3.239   7.797   3.420
13853TIP3    H141502   3.307   7.743   3.461
13853TIP3    H241503   3.247   7.778   3.327
13854TIP3   OH241504   0.242   0.623   5.023
13854TIP3    H141505   0.300   0.692   5.055
13854TIP3    H241506   0.157   0.666   5.012
13855TIP3   OH241507   5.508   1.862   2.940
13855TIP3    H141508   5.523   1.809   3.019
13855TIP3    H241509   5.446   1.929   2.968
13856TIP3   OH241510   5.822   6.116   3.357
13856TIP3    H141511   5.881   6.189   3.378
13856TIP3    H241512   5.867   6.038   3.390
13857TIP3   OH241513   0.374   5.804   6.610
13857TIP3    H141514   0.435   5.862   6.566
13857TIP3    H241515   0.288   5.843   6.594
13858TIP3   OH241516   1.821   2.794   3.561
13858TIP3    H141517   1.850   2.881   3.587
13858TIP3    H241518   1.886   2.735   3.600
13859TIP3   OH241519   4.903   5.358   3.394
13859TIP3    H141520   4.984   5.409   3.402
13859TIP3    H241521   4.914   5.307   3.314
13860TIP3   OH241522   8.059   4.977   4.533
13860TIP3    H141523   8.137   5.017   4.572
13860TIP3    H241524   8.075   4.883   4.538
13861TIP3   OH241525   7.126   4.787   1.899
13861TIP3    H141526   7.094   4.790   1.989
13861TIP3    H241527   7.199   4.849   1.897
13862TIP3   OH241528   1.904   0.944   4.505
13862TIP3    H141529   1.834   1.008   4.490
13862TIP3    H241530   1.943   0.930   4.419
13863TIP3   OH241531   4.855   0.899   4.655
13863TIP3    H141532   4.797   0.861   4.590
13863TIP3    H241533   4.867   0.830   4.721
13864TIP3   OH241534   7.341   1.958   3.643
13864TIP3    H141535   7.274   1.961   3.575
13864TIP3    H241536   7.372   2.048   3.650
13865TIP3   OH241537   6.227   7.771   6.595
13865TIP3    H141538   6.321   7.784   6.598
13865TIP3    H241539   6.214   7.699   6.533
13866TIP3   OH241540   6.756   0.111   6.336
13866TIP3    H141541   6.836   0.087   6.289
13866TIP3    H241542   6.785   0.169   6.406
13867TIP3   OH241543   5.563   6.330   6.357
13867TIP3    H141544   5.500   6.283   6.411
13867TIP3    H241545   5.551   6.422   6.381
13868TIP3   OH241546   1.456   1.614   2.437
13868TIP3    H141547   1.550   1.604   2.423
13868TIP3    H241548   1.436   1.559   2.512
13869TIP3   OH241549   6.644   1.312   3.618
13869TIP3    H141550   6.668   1.220   3.614
13869TIP3    H241551   6.690   1.353   3.544
13870TIP3   OH241552   4.081   3.917   2.221
13870TIP3    H141553   4.034   3.858   2.280
13870TIP3    H241554   4.150   3.954   2.276
13871TIP3   OH241555   2.094   0.552   4.232
13871TIP3    H141556   2.073   0.470   4.187
13871TIP3    H241557   2.045   0.618   4.184
13872TIP3   OH241558   3.006   3.057   1.023
13872TIP3    H141559   2.961   3.140   1.038
13872TIP3    H241560   3.086   3.063   1.075
13873TIP3   OH241561   1.463   3.628   4.604
13873TIP3    H141562   1.425   3.542   4.584
13873TIP3    H241563   1.388   3.688   4.603
13874TIP3   OH241564   6.410   4.059   6.331
13874TIP3    H141565   6.448   4.118   6.266
13874TIP3    H241566   6.357   4.116   6.386
13875TIP3   OH241567   0.110   7.183   4.330
13875TIP3    H141568   0.131   7.217   4.243
13875TIP3    H241569   0.175   7.224   4.388
13876TIP3   OH241570   7.505   5.915   4.195
13876TIP3    H141571   7.498   5.949   4.284
13876TIP3    H241572   7.416   5.885   4.175
13877TIP3   OH241573   0.252   2.647   5.437
13877TIP3    H141574   0.342   2.661   5.408
13877TIP3    H241575   0.230   2.559   5.406
13878TIP3   OH241576   0.881   2.621   6.597
13878TIP3    H141577   0.967   2.654   6.572
13878TIP3    H241578   0.880   2.531   6.564
13879TIP3   OH241579   4.279   4.083   4.008
13879TIP3    H141580   4.280   4.156   4.071
13879TIP3    H241581   4.186   4.065   3.995
13880TIP3   OH241582   6.815   2.688   3.905
13880TIP3    H141583   6.808   2.738   3.986
13880TIP3    H241584   6.907   2.661   3.902
13881TIP3   OH241585   6.210   5.200   3.597
13881TIP3    H141586   6.274   5.133   3.576
13881TIP3    H241587   6.161   5.165   3.672
13882TIP3   OH241588   1.298   6.905   0.609
13882TIP3    H141589   1.266   6.995   0.614
13882TIP3    H241590   1.241   6.862   0.546
13883TIP3   OH241591   5.791   2.552   5.167
13883TIP3    H141592   5.812   2.601   5.088
13883TIP3    H241593   5.760   2.467   5.136
13884TIP3   OH241594   3.315   3.884   3.138
13884TIP3    H141595   3.352   3.873   3.050
13884TIP3    H241596   3.221   3.895   3.123
13885TIP3   OH241597   5.184   6.894   6.701
13885TIP3    H141598   5.140   6.899   6.786
13885TIP3    H241599   5.148   6.968   6.652
13886TIP3   OH241600   0.716   2.371   2.744
13886TIP3    H141601   0.636   2.318   2.750
13886TIP3    H241602   0.685   2.459   2.722
13887TIP3   OH241603   6.720   6.699   2.657
13887TIP3    H141604   6.712   6.646   2.578
13887TIP3    H241605   6.711   6.789   2.625
13888TIP3   OH241606   0.608   3.026   4.381
13888TIP3    H141607   0.673   3.061   4.443
13888TIP3    H241608   0.614   2.931   4.391
13889TIP3   OH241609   5.228   0.728   5.259
13889TIP3    H141610   5.224   0.799   5.324
13889TIP3    H241611   5.248   0.772   5.177
13890TIP3   OH241612   1.868   7.264   0.082
13890TIP3    H141613   1.901   7.336   0.028
13890TIP3    H241614   1.937   7.249   0.146
13891TIP3   OH241615   2.094   3.952   1.196
13891TIP3    H141616   2.144   3.903   1.130
13891TIP3    H241617   2.103   3.900   1.276
13892TIP3   OH241618   4.389   3.631   1.686
13892TIP3    H141619   4.441   3.555   1.709
13892TIP3    H241620   4.356   3.612   1.598
13893TIP3   OH241621   2.509   7.292   0.760
13893TIP3    H141622   2.585   7.348   0.741
13893TIP3    H241623   2.531   7.247   0.841
13894TIP3   OH241624   5.094   1.798   5.224
13894TIP3    H141625   5.112   1.861   5.154
13894TIP3    H241626   5.047   1.726   5.180
13895TIP3   OH241627   2.109   7.590   6.706
13895TIP3    H141628   2.037   7.536   6.673
13895TIP3    H241629   2.067   7.672   6.731
13896TIP3   OH241630   1.093   0.878   4.439
13896TIP3    H141631   1.148   0.812   4.396
13896TIP3    H241632   1.156   0.938   4.480
13897TIP3   OH241633   0.962   3.975   2.038
13897TIP3    H141634   1.010   4.020   1.968
13897TIP3    H241635   0.871   4.002   2.026
13898TIP3   OH241636   8.105   6.493   4.382
13898TIP3    H141637   8.170   6.494   4.311
13898TIP3    H241638   8.153   6.519   4.460
13899TIP3   OH241639   2.888   3.741   4.957
13899TIP3    H141640   2.908   3.761   4.865
13899TIP3    H241641   2.796   3.763   4.967
13900TIP3   OH241642   5.220   4.426   3.523
13900TIP3    H141643   5.178   4.512   3.529
13900TIP3    H241644   5.312   4.442   3.543
13901TIP3   OH241645   6.479   4.223   0.310
13901TIP3    H141646   6.450   4.198   0.398
13901TIP3    H241647   6.408   4.194   0.253
13902TIP3   OH241648   2.604   3.775   1.896
13902TIP3    H141649   2.533   3.839   1.892
13902TIP3    H241650   2.589   3.727   1.978
13903TIP3   OH241651   7.630   4.293   2.615
13903TIP3    H141652   7.620   4.381   2.651
13903TIP3    H241653   7.592   4.235   2.682
13904TIP3   OH241654   1.267   5.898   0.281
13904TIP3    H141655   1.246   5.893   0.188
13904TIP3    H241656   1.204   5.961   0.317
13905TIP3   OH241657   5.173   6.114   5.315
13905TIP3    H141658   5.159   6.055   5.241
13905TIP3    H241659   5.094   6.168   5.318
13906TIP3   OH241660   4.573   4.040   1.593
13906TIP3    H141661   4.552   3.946   1.590
13906TIP3    H241662   4.500   4.080   1.639
13907TIP3   OH241663   2.830   0.032   3.611
13907TIP3    H141664   2.759  -0.029   3.591
13907TIP3    H241665   2.806   0.070   3.695
13908TIP3   OH241666   6.931   0.633   0.268
13908TIP3    H141667   6.958   0.553   0.224
13908TIP3    H241668   6.974   0.630   0.354
13909TIP3   OH241669   8.233   7.652   5.147
13909TIP3    H141670   8.223   7.579   5.208
13909TIP3    H241671   8.277   7.720   5.198
13910TIP3   OH241672   1.145   5.408   3.936
13910TIP3    H141673   1.085   5.415   4.010
13910TIP3    H241674   1.232   5.406   3.975
13911TIP3   OH241675   6.057   7.080   3.014
13911TIP3    H141676   6.133   7.022   3.017
13911TIP3    H241677   5.987   7.031   3.056
13912TIP3   OH241678   2.631   2.779   3.350
13912TIP3    H141679   2.614   2.847   3.416
13912TIP3    H241680   2.705   2.813   3.299
13913TIP3   OH241681   6.004   4.829   6.690
13913TIP3    H141682   5.988   4.858   6.600
13913TIP3    H241683   6.026   4.736   6.681
13914TIP3   OH241684   5.694   4.455   2.545
13914TIP3    H141685   5.655   4.503   2.472
13914TIP3    H241686   5.620   4.414   2.589
13915TIP3   OH241687   0.800   1.073   1.922
13915TIP3    H141688   0.857   1.148   1.939
13915TIP3    H241689   0.774   1.041   2.009
13916TIP3   OH241690   5.760   6.216   5.706
13916TIP3    H141691   5.829   6.271   5.744
13916TIP3    H241692   5.757   6.242   5.614
13917TIP3   OH241693   5.081   3.925   6.588
13917TIP3    H141694   5.151   3.870   6.552
13917TIP3    H241695   5.105   3.936   6.680
13918TIP3   OH241696   3.786   6.464   1.015
13918TIP3    H141697   3.757   6.514   1.091
13918TIP3    H241698   3.779   6.525   0.942
13919TIP3   OH241699   2.024   6.091   6.743
13919TIP3    H141700   2.110   6.113   6.777
13919TIP3    H241701   1.963   6.139   6.799
13920TIP3   OH241702   3.510   6.679   3.987
13920TIP3    H141703   3.444   6.722   3.932
13920TIP3    H241704   3.472   6.594   4.008
13921TIP3   OH241705   5.935   4.646   1.742
13921TIP3    H141706   5.850   4.670   1.777
13921TIP3    H241707   5.931   4.669   1.649
13922TIP3   OH241708   4.446   6.501   6.628
13922TIP3    H141709   4.399   6.490   6.711
13922TIP3    H241710   4.444   6.595   6.612
13923TIP3   OH241711   1.935   6.107   5.585
13923TIP3    H141712   1.875   6.033   5.571
13923TIP3    H241713   1.955   6.139   5.497
13924TIP3   OH241714   5.720   7.803   6.562
13924TIP3    H141715   5.695   7.756   6.482
13924TIP3    H241716   5.679   7.889   6.554
13925TIP3   OH241717   0.888   6.319   1.239
13925TIP3    H141718   0.873   6.257   1.310
13925TIP3    H241719   0.963   6.371   1.267
13926TIP3   OH241720   6.835   2.734   5.987
13926TIP3    H141721   6.859   2.814   6.034
13926TIP3    H241722   6.918   2.695   5.961
13927TIP3   OH241723   5.295   4.765   3.363
13927TIP3    H141724   5.225   4.699   3.364
13927TIP3    H241725   5.365   4.724   3.313
13928TIP3   OH241726   7.461   3.720   5.751
13928TIP3    H141727   7.447   3.719   5.845
13928TIP3    H241728   7.533   3.782   5.738
13929TIP3   OH241729   4.425   4.468   2.641
13929TIP3    H141730   4.331   4.464   2.653
13929TIP3    H241731   4.454   4.377   2.642
13930TIP3   OH241732   7.404   4.488   6.084
13930TIP3    H141733   7.335   4.513   6.024
13930TIP3    H241734   7.485   4.497   6.034
13931TIP3   OH241735   2.918   0.480   2.828
13931TIP3    H141736   2.933   0.503   2.737
13931TIP3    H241737   2.993   0.515   2.875
13932TIP3   OH241738   5.066   0.332   2.873
13932TIP3    H141739   5.133   0.386   2.915
13932TIP3    H241740   5.115   0.270   2.819
13933TIP3   OH241741   2.477   2.661   0.475
13933TIP3    H141742   2.497   2.755   0.471
13933TIP3    H241743   2.562   2.619   0.486
13934TIP3   OH241744   7.220   4.940   4.002
13934TIP3    H141745   7.289   4.984   4.051
13934TIP3    H241746   7.254   4.852   3.986
13935TIP3   OH241747   7.875   7.371   4.386
13935TIP3    H141748   7.871   7.345   4.478
13935TIP3    H241749   7.948   7.433   4.382
13936TIP3   OH241750   2.799   6.964   3.696
13936TIP3    H141751   2.704   6.950   3.702
13936TIP3    H241752   2.810   7.059   3.707
13937TIP3   OH241753   5.204   6.356   6.325
13937TIP3    H141754   5.181   6.349   6.417
13937TIP3    H241755   5.209   6.266   6.294
13938TIP3   OH241756   2.578   0.294   1.483
13938TIP3    H141757   2.549   0.223   1.540
13938TIP3    H241758   2.584   0.370   1.542
13939TIP3   OH241759   7.329   3.302   0.349
13939TIP3    H141760   7.339   3.390   0.386
13939TIP3    H241761   7.402   3.252   0.385
13940TIP3   OH241762   1.988   5.671   2.817
13940TIP3    H141763   1.953   5.745   2.767
13940TIP3    H241764   1.940   5.674   2.900
13941TIP3   OH241765   3.323   0.468   2.843
13941TIP3    H141766   3.248   0.424   2.803
13941TIP3    H241767   3.399   0.420   2.810
13942TIP3   OH241768   6.015   3.905   4.298
13942TIP3    H141769   5.925   3.911   4.329
13942TIP3    H241770   6.053   3.990   4.316
13943TIP3   OH241771   5.603   4.371   2.127
13943TIP3    H141772   5.695   4.392   2.113
13943TIP3    H241773   5.562   4.383   2.042
13944TIP3   OH241774   0.795   5.356   2.881
13944TIP3    H141775   0.722   5.394   2.832
13944TIP3    H241776   0.793   5.263   2.858
13945TIP3   OH241777   2.247   3.718   0.355
13945TIP3    H141778   2.153   3.700   0.347
13945TIP3    H241779   2.282   3.704   0.267
13946TIP3   OH241780   0.475   6.025   5.162
13946TIP3    H141781   0.388   6.063   5.171
13946TIP3    H241782   0.520   6.047   5.244
13947TIP3   OH241783   4.037   5.784   0.757
13947TIP3    H141784   4.117   5.824   0.722
13947TIP3    H241785   4.010   5.842   0.828
13948TIP3   OH241786   6.135   7.762   1.010
13948TIP3    H141787   6.210   7.786   1.064
13948TIP3    H241788   6.144   7.668   0.995
13949TIP3   OH241789   0.094   4.160   5.570
13949TIP3    H141790   0.164   4.220   5.544
13949TIP3    H241791   0.090   4.167   5.665
13950TIP3   OH241792   1.482   6.015   2.888
13950TIP3    H141793   1.514   6.103   2.905
13950TIP3    H241794   1.560   5.964   2.868
13951TIP3   OH241795   1.221   6.014   2.883
13951TIP3    H141796   1.206   5.945   2.818
13951TIP3    H241797   1.317   6.019   2.889
13952TIP3   OH241798   1.860   3.172   1.166
13952TIP3    H141799   1.943   3.133   1.139
13952TIP3    H241800   1.796   3.136   1.105
13953TIP3   OH241801   3.235   2.021   4.543
13953TIP3    H141802   3.291   2.087   4.502
13953TIP3    H241803   3.146   2.053   4.527
13954TIP3   OH241804   7.158   0.229   6.521
13954TIP3    H141805   7.099   0.156   6.539
13954TIP3    H241806   7.192   0.254   6.606
13955TIP3   OH241807   3.818   3.174   2.637
13955TIP3    H141808   3.784   3.258   2.667
13955TIP3    H241809   3.824   3.182   2.542
13956TIP3   OH241810   5.694   5.701   1.450
13956TIP3    H141811   5.604   5.704   1.483
13956TIP3    H241812   5.748   5.701   1.529
13957TIP3   OH241813   3.163   1.666   0.045
13957TIP3    H141814   3.169   1.633  -0.045
13957TIP3    H241815   3.254   1.665   0.076
13958TIP3   OH241816   7.963   3.512   4.200
13958TIP3    H141817   8.056   3.533   4.211
13958TIP3    H241818   7.960   3.416   4.203
13959TIP3   OH241819   4.415   5.314   1.905
13959TIP3    H141820   4.389   5.402   1.931
13959TIP3    H241821   4.456   5.326   1.819
13960TIP3   OH241822   0.220   5.611   4.928
13960TIP3    H141823   0.312   5.587   4.937
13960TIP3    H241824   0.179   5.580   5.009
13961TIP3   OH241825   6.432   2.879   6.601
13961TIP3    H141826   6.507   2.830   6.634
13961TIP3    H241827   6.437   2.869   6.506
13962TIP3   OH241828   2.247   6.178   0.614
13962TIP3    H141829   2.326   6.191   0.666
13962TIP3    H241830   2.175   6.192   0.675
13963TIP3   OH241831   0.397   6.156   5.599
13963TIP3    H141832   0.362   6.228   5.547
13963TIP3    H241833   0.361   6.171   5.687
13964TIP3   OH241834   6.035   1.871   6.354
13964TIP3    H141835   6.012   1.828   6.437
13964TIP3    H241836   6.118   1.831   6.329
13965TIP3   OH241837   7.093   3.708   4.053
13965TIP3    H141838   7.162   3.767   4.083
13965TIP3    H241839   7.126   3.672   3.970
13966TIP3   OH241840   4.458   3.004   6.344
13966TIP3    H141841   4.394   2.958   6.399
13966TIP3    H241842   4.541   2.991   6.389
13967TIP3   OH241843   2.609   1.493   4.062
13967TIP3    H141844   2.532   1.443   4.091
13967TIP3    H241845   2.683   1.437   4.084
13968TIP3   OH241846   0.784   3.689   3.698
13968TIP3    H141847   0.844   3.708   3.770
13968TIP3    H241848   0.718   3.758   3.702
13969TIP3   OH241849   2.283   5.714   2.322
13969TIP3    H141850   2.322   5.628   2.305
13969TIP3    H241851   2.193   5.695   2.349
13970TIP3   OH241852   7.948   1.583   3.217
13970TIP3    H141853   7.926   1.642   3.145
13970TIP3    H241854   8.025   1.622   3.258
13971TIP3   OH241855   6.894   0.352   1.883
13971TIP3    H141856   6.959   0.409   1.925
13971TIP3    H241857   6.828   0.338   1.950
13972TIP3   OH241858   2.474   6.692   2.592
13972TIP3    H141859   2.438   6.692   2.503
13972TIP3    H241860   2.554   6.640   2.585
13973TIP3   OH241861   6.322   0.924   5.455
13973TIP3    H141862   6.250   0.960   5.403
13973TIP3    H241863   6.401   0.960   5.414
13974TIP3   OH241864   8.037   4.639   1.781
13974TIP3    H141865   8.120   4.597   1.757
13974TIP3    H241866   8.037   4.721   1.732
13975TIP3   OH241867   4.597   3.198   5.138
13975TIP3    H141868   4.681   3.235   5.166
13975TIP3    H241869   4.534   3.268   5.154
13976TIP3   OH241870   1.699   7.278   4.097
13976TIP3    H141871   1.789   7.246   4.103
13976TIP3    H241872   1.694   7.349   4.160
13977TIP3   OH241873   7.737   1.994   0.135
13977TIP3    H141874   7.643   1.976   0.144
13977TIP3    H241875   7.757   1.970   0.045
13978TIP3   OH241876   7.891   2.406   0.732
13978TIP3    H141877   7.900   2.332   0.792
13978TIP3    H241878   7.831   2.374   0.664
13979TIP3   OH241879   5.103   1.910   1.087
13979TIP3    H141880   5.152   1.913   1.004
13979TIP3    H241881   5.056   1.993   1.090
13980TIP3   OH241882   2.318   7.419   3.589
13980TIP3    H141883   2.235   7.439   3.632
13980TIP3    H241884   2.293   7.366   3.513
13981TIP3   OH241885   3.973   3.604   4.408
13981TIP3    H141886   3.901   3.559   4.452
13981TIP3    H241887   3.977   3.690   4.451
13982TIP3   OH241888   7.638   3.132   4.124
13982TIP3    H141889   7.694   3.184   4.067
13982TIP3    H241890   7.695   3.103   4.195
13983TIP3   OH241891   5.832   6.456   0.621
13983TIP3    H141892   5.785   6.415   0.693
13983TIP3    H241893   5.920   6.418   0.624
13984TIP3   OH241894   3.334   6.707   0.871
13984TIP3    H141895   3.280   6.784   0.852
13984TIP3    H241896   3.289   6.663   0.943
13985TIP3   OH241897   0.616   3.343   4.516
13985TIP3    H141898   0.554   3.403   4.475
13985TIP3    H241899   0.696   3.352   4.463
13986TIP3   OH241900   1.036   1.838   4.100
13986TIP3    H141901   0.979   1.811   4.172
13986TIP3    H241902   0.976   1.872   4.034
13987TIP3   OH241903   1.680   3.908   5.427
13987TIP3    H141904   1.661   3.925   5.335
13987TIP3    H241905   1.775   3.894   5.430
13988TIP3   OH241906   6.593   0.799   0.610
13988TIP3    H141907   6.517   0.848   0.580
13988TIP3    H241908   6.628   0.758   0.530
13989TIP3   OH241909   0.179   5.391   0.983
13989TIP3    H141910   0.208   5.482   0.977
13989TIP3    H241911   0.259   5.342   1.000
13990TIP3   OH241912   6.198   3.994   1.563
13990TIP3    H141913   6.152   4.050   1.626
13990TIP3    H241914   6.184   4.037   1.478
13991TIP3   OH241915   3.557   7.487   6.500
13991TIP3    H141916   3.514   7.566   6.468
13991TIP3    H241917   3.615   7.517   6.570
13992TIP3   OH241918   5.229   1.878   0.841
13992TIP3    H141919   5.247   1.917   0.755
13992TIP3    H241920   5.222   1.784   0.824
13993TIP3   OH241921   0.723   6.845   5.608
13993TIP3    H141922   0.786   6.916   5.597
13993TIP3    H241923   0.727   6.796   5.527
13994TIP3   OH241924   0.126   2.390   5.391
13994TIP3    H141925   0.144   2.378   5.298
13994TIP3    H241926   0.183   2.326   5.434
13995TIP3   OH241927   3.880   0.335   0.313
13995TIP3    H141928   3.806   0.306   0.367
13995TIP3    H241929   3.923   0.402   0.366
13996TIP3   OH241930   6.863   1.730   1.919
13996TIP3    H141931   6.829   1.769   1.838
13996TIP3    H241932   6.941   1.782   1.939
13997TIP3   OH241933   3.404   1.729   2.978
13997TIP3    H141934   3.392   1.636   2.960
13997TIP3    H241935   3.476   1.733   3.041
13998TIP3   OH241936   5.677   7.462   6.019
13998TIP3    H141937   5.608   7.439   5.957
13998TIP3    H241938   5.647   7.426   6.102
13999TIP3   OH241939   6.947   6.040   5.626
13999TIP3    H141940   6.973   6.065   5.714
13999TIP3    H241941   6.875   5.978   5.638
14000TIP3   OH241942   2.555   0.611   1.044
14000TIP3    H141943   2.621   0.545   1.063
14000TIP3    H241944   2.474   0.562   1.032
14001TIP3   OH241945   0.928   6.303   5.040
14001TIP3    H141946   0.853   6.251   5.009
14001TIP3    H241947   0.988   6.239   5.077
14002TIP3   OH241948   1.779   1.808   1.371
14002TIP3    H141949   1.786   1.713   1.379
14002TIP3    H241950   1.686   1.824   1.355
14003TIP3   OH241951   3.081   4.887   1.537
14003TIP3    H141952   3.108   4.977   1.519
14003TIP3    H241953   3.156   4.848   1.582
14004TIP3   OH241954   5.985   6.602   3.563
14004TIP3    H141955   6.020   6.691   3.569
14004TIP3    H241956   5.897   6.613   3.527
14005TIP3   OH241957   5.248   0.131   4.322
14005TIP3    H141958   5.258   0.069   4.395
14005TIP3    H241959   5.199   0.204   4.359
14006TIP3   OH241960   1.433   2.463   3.481
14006TIP3    H141961   1.458   2.373   3.461
14006TIP3    H241962   1.359   2.455   3.542
14007TIP3   OH241963   3.679   6.482   3.741
14007TIP3    H141964   3.766   6.517   3.724
14007TIP3    H241965   3.685   6.444   3.829
14008TIP3   OH241966   2.290   7.285   3.294
14008TIP3    H141967   2.213   7.331   3.261
14008TIP3    H241968   2.274   7.193   3.273
14009TIP3   OH241969   6.812   2.633   5.582
14009TIP3    H141970   6.803   2.564   5.647
14009TIP3    H241971   6.733   2.627   5.529
14010TIP3   OH241972   4.607   7.278   3.626
14010TIP3    H141973   4.598   7.214   3.696
14010TIP3    H241974   4.697   7.269   3.596
14011TIP3   OH241975   7.229   5.192   2.598
14011TIP3    H141976   7.309   5.191   2.545
14011TIP3    H241977   7.256   5.159   2.684
14012TIP3   OH241978   6.724   2.085   2.347
14012TIP3    H141979   6.793   2.022   2.367
14012TIP3    H241980   6.652   2.032   2.313
14013TIP3   OH241981   1.494   1.165   1.493
14013TIP3    H141982   1.566   1.105   1.511
14013TIP3    H241983   1.434   1.115   1.437
14014TIP3   OH241984   4.572   1.988   4.184
14014TIP3    H141985   4.616   2.030   4.257
14014TIP3    H241986   4.612   1.902   4.177
14015TIP3   OH241987   2.569   2.297   2.535
14015TIP3    H141988   2.502   2.363   2.517
14015TIP3    H241989   2.560   2.234   2.464
14016TIP3   OH241990   0.242   5.745   2.749
14016TIP3    H141991   0.247   5.661   2.794
14016TIP3    H241992   0.326   5.752   2.702
14017TIP3   OH241993   3.299   2.581   5.036
14017TIP3    H141994   3.372   2.521   5.043
14017TIP3    H241995   3.224   2.526   5.012
14018TIP3   OH241996   1.115   6.728   1.885
14018TIP3    H141997   1.022   6.709   1.885
14018TIP3    H241998   1.123   6.809   1.835
14019TIP3   OH241999   2.885   4.052   6.532
14019TIP3    H142000   2.934   3.977   6.497
14019TIP3    H242001   2.951   4.119   6.548
14020TIP3   OH242002   5.374   5.947   5.598
14020TIP3    H142003   5.382   5.884   5.670
14020TIP3    H242004   5.424   6.023   5.627
14021TIP3   OH242005   2.604   5.480   1.131
14021TIP3    H142006   2.562   5.469   1.217
14021TIP3    H242007   2.540   5.528   1.079
14022TIP3   OH242008   0.602   0.388   6.680
14022TIP3    H142009   0.680   0.421   6.636
14022TIP3    H242010   0.631   0.372   6.770
14023TIP3   OH242011   3.576   4.652   4.682
14023TIP3    H142012   3.487   4.631   4.708
14023TIP3    H242013   3.593   4.737   4.723
14024TIP3   OH242014   5.590   3.457   0.935
14024TIP3    H142015   5.616   3.534   0.986
14024TIP3    H242016   5.495   3.464   0.930
14025TIP3   OH242017   6.095   5.320   6.431
14025TIP3    H142018   6.091   5.392   6.368
14025TIP3    H242019   6.171   5.341   6.486
14026TIP3   OH242020   0.691   0.719   4.995
14026TIP3    H142021   0.716   0.764   5.076
14026TIP3    H242022   0.656   0.789   4.939
14027TIP3   OH242023   3.639   7.691   1.028
14027TIP3    H142024   3.700   7.641   1.082
14027TIP3    H242025   3.661   7.783   1.046
14028TIP3   OH242026   5.671   4.349   6.313
14028TIP3    H142027   5.709   4.363   6.226
14028TIP3    H242028   5.710   4.266   6.342
14029TIP3   OH242029   7.900   4.534   3.192
14029TIP3    H142030   7.836   4.497   3.131
14029TIP3    H242031   7.850   4.597   3.244
14030TIP3   OH242032   7.272   2.542   2.100
14030TIP3    H142033   7.191   2.492   2.113
14030TIP3    H242034   7.260   2.584   2.015
14031TIP3   OH242035   1.378   0.510   4.044
14031TIP3    H142036   1.283   0.506   4.045
14031TIP3    H242037   1.398   0.581   3.982
14032TIP3   OH242038   7.311   4.872   5.034
14032TIP3    H142039   7.356   4.819   5.101
14032TIP3    H242040   7.350   4.959   5.042
14033TIP3   OH242041   7.358   2.466   1.674
14033TIP3    H142042   7.320   2.524   1.740
14033TIP3    H242043   7.308   2.385   1.680
14034TIP3   OH242044   6.406   6.542   5.041
14034TIP3    H142045   6.360   6.623   5.022
14034TIP3    H242046   6.470   6.566   5.108
14035TIP3   OH242047   6.004   7.268   5.756
14035TIP3    H142048   5.974   7.339   5.813
14035TIP3    H242049   6.017   7.193   5.814
14036TIP3   OH242050   0.421   0.210   0.659
14036TIP3    H142051   0.483   0.206   0.732
14036TIP3    H242052   0.357   0.276   0.685
14037TIP3   OH242053   4.794   6.253   2.892
14037TIP3    H142054   4.847   6.198   2.949
14037TIP3    H242055   4.760   6.321   2.950
14038TIP3   OH242056   1.226   4.418   5.225
14038TIP3    H142057   1.223   4.376   5.139
14038TIP3    H242058   1.246   4.346   5.286
14039TIP3   OH242059   8.213   1.437   6.598
14039TIP3    H142060   8.237   1.525   6.569
14039TIP3    H242061   8.293   1.386   6.590
14040TIP3   OH242062   5.986   7.597   5.648
14040TIP3    H142063   5.899   7.623   5.678
14040TIP3    H242064   5.978   7.595   5.552
14041TIP3   OH242065   7.659   2.434   6.262
14041TIP3    H142066   7.577   2.446   6.215
14041TIP3    H242067   7.636   2.443   6.355
14042TIP3   OH242068   1.279   2.753   1.863
14042TIP3    H142069   1.271   2.671   1.814
14042TIP3    H242070   1.274   2.726   1.955
14043TIP3   OH242071   5.433   5.607   2.332
14043TIP3    H142072   5.444   5.665   2.256
14043TIP3    H242073   5.343   5.623   2.361
14044TIP3   OH242074   0.420   3.225   0.939
14044TIP3    H142075   0.443   3.305   0.890
14044TIP3    H242076   0.428   3.155   0.875
14045TIP3   OH242077   8.228   2.356   5.976
14045TIP3    H142078   8.244   2.450   5.981
14045TIP3    H242079   8.293   2.323   5.913
14046TIP3   OH242080   6.831   3.785   4.992
14046TIP3    H142081   6.773   3.850   5.031
14046TIP3    H242082   6.809   3.703   5.036
14047TIP3   OH242083   2.142   7.346   1.147
14047TIP3    H142084   2.096   7.307   1.073
14047TIP3    H242085   2.151   7.439   1.124
14048TIP3   OH242086   6.237   6.752   1.541
14048TIP3    H142087   6.243   6.715   1.629
14048TIP3    H242088   6.312   6.811   1.535
14049TIP3   OH242089   0.535   6.333   5.213
14049TIP3    H142090   0.482   6.345   5.291
14049TIP3    H242091   0.573   6.245   5.224
14050TIP3   OH242092   0.556   4.618   0.212
14050TIP3    H142093   0.471   4.620   0.167
14050TIP3    H242094   0.619   4.599   0.143
14051TIP3   OH242095   4.458   2.212   5.520
14051TIP3    H142096   4.533   2.217   5.461
14051TIP3    H242097   4.460   2.123   5.555
14052TIP3   OH242098   6.399   4.455   5.147
14052TIP3    H142099   6.396   4.360   5.161
14052TIP3    H242100   6.453   4.488   5.219
14053TIP3   OH242101   1.975   1.991   2.688
14053TIP3    H142102   1.977   1.955   2.777
14053TIP3    H242103   1.899   1.950   2.647
14054TIP3   OH242104   2.173   2.436   4.544
14054TIP3    H142105   2.195   2.351   4.581
14054TIP3    H242106   2.256   2.484   4.542
14055TIP3   OH242107   5.510   3.488   3.555
14055TIP3    H142108   5.503   3.420   3.622
14055TIP3    H242109   5.450   3.460   3.486
14056TIP3   OH242110   4.491   3.671   5.048
14056TIP3    H142111   4.448   3.700   4.968
14056TIP3    H242112   4.425   3.679   5.117
14057TIP3   OH242113   5.783   6.304   3.065
14057TIP3    H142114   5.730   6.373   3.025
14057TIP3    H242115   5.790   6.330   3.157
14058TIP3   OH242116   1.952   2.660   5.211
14058TIP3    H142117   2.037   2.649   5.254
14058TIP3    H242118   1.963   2.616   5.126
14059TIP3   OH242119   3.546   0.020   5.568
14059TIP3    H142120   3.523   0.058   5.484
14059TIP3    H242121   3.560  -0.073   5.550
14060TIP3   OH242122   3.964   2.598   5.633
14060TIP3    H142123   3.992   2.648   5.711
14060TIP3    H242124   3.904   2.533   5.667
14061TIP3   OH242125   6.935   1.966   0.623
14061TIP3    H142126   6.897   2.048   0.655
14061TIP3    H242127   7.016   1.956   0.673
14062TIP3   OH242128   1.732   2.814   5.265
14062TIP3    H142129   1.640   2.790   5.266
14062TIP3    H242130   1.779   2.733   5.246
14063TIP3   OH242131   4.917   2.972   4.521
14063TIP3    H142132   4.842   3.022   4.554
14063TIP3    H242133   4.900   2.963   4.427
14064TIP3   OH242134   5.778   4.943   2.220
14064TIP3    H142135   5.798   4.886   2.294
14064TIP3    H242136   5.855   5.000   2.212
14065TIP3   OH242137   3.692   2.575   4.868
14065TIP3    H142138   3.602   2.563   4.840
14065TIP3    H242139   3.685   2.615   4.954
14066TIP3   OH242140   2.825   1.072   5.394
14066TIP3    H142141   2.863   1.109   5.315
14066TIP3    H242142   2.896   1.023   5.435
14067TIP3   OH242143   3.996   6.750   6.432
14067TIP3    H142144   3.921   6.754   6.372
14067TIP3    H242145   3.959   6.768   6.518
14068TIP3   OH242146   2.476   7.454   4.064
14068TIP3    H142147   2.498   7.467   3.972
14068TIP3    H242148   2.380   7.455   4.067
14069TIP3   OH242149   1.872   3.882   2.778
14069TIP3    H142150   1.828   3.812   2.729
14069TIP3    H242151   1.867   3.853   2.869
14070TIP3   OH242152   3.169   0.685   6.524
14070TIP3    H142153   3.205   0.751   6.466
14070TIP3    H242154   3.121   0.625   6.467
14071TIP3   OH242155   2.281   7.744   4.250
14071TIP3    H142156   2.209   7.752   4.313
14071TIP3    H242157   2.352   7.795   4.288
14072TIP3   OH242158   5.270   6.117   2.739
14072TIP3    H142159   5.274   6.202   2.782
14072TIP3    H242160   5.303   6.133   2.650
14073TIP3   OH242161   3.960   2.700   1.581
14073TIP3    H142162   3.937   2.793   1.591
14073TIP3    H242163   3.877   2.653   1.589
14074TIP3   OH242164   5.111   6.871   2.724
14074TIP3    H142165   5.187   6.830   2.764
14074TIP3    H242166   5.080   6.933   2.789
14075TIP3   OH242167   4.270   7.007   4.752
14075TIP3    H142168   4.214   7.074   4.713
14075TIP3    H242169   4.302   7.046   4.833
14076TIP3   OH242170   6.079   4.533   1.076
14076TIP3    H142171   6.066   4.591   1.150
14076TIP3    H242172   6.034   4.452   1.099
14077TIP3   OH242173   8.091   0.588   4.797
14077TIP3    H142174   8.068   0.521   4.732
14077TIP3    H242175   8.049   0.667   4.765
14078TIP3   OH242176   3.662   1.653   0.390
14078TIP3    H142177   3.567   1.650   0.393
14078TIP3    H242178   3.682   1.736   0.346
14079TIP3   OH242179   6.037   1.208   4.497
14079TIP3    H142180   6.026   1.126   4.544
14079TIP3    H242181   5.948   1.242   4.487
14080TIP3   OH242182   3.622   1.642   0.782
14080TIP3    H142183   3.632   1.548   0.764
14080TIP3    H242184   3.614   1.647   0.878
14081TIP3   OH242185   3.701   2.459   3.440
14081TIP3    H142186   3.779   2.508   3.417
14081TIP3    H242187   3.713   2.437   3.533
14082TIP3   OH242188   4.899   0.962   3.752
14082TIP3    H142189   4.957   0.886   3.748
14082TIP3    H242190   4.907   0.993   3.842
14083TIP3   OH242191   3.810   2.682   5.999
14083TIP3    H142192   3.837   2.676   6.091
14083TIP3    H242193   3.775   2.595   5.978
14084TIP3   OH242194   1.327   0.935   1.380
14084TIP3    H142195   1.263   0.868   1.356
14084TIP3    H242196   1.376   0.896   1.453
14085TIP3   OH242197   0.193   3.384   0.514
14085TIP3    H142198   0.135   3.378   0.438
14085TIP3    H242199   0.179   3.473   0.547
14086TIP3   OH242200   3.718   0.870   3.051
14086TIP3    H142201   3.792   0.818   3.020
14086TIP3    H242202   3.754   0.926   3.119
14087TIP3   OH242203   3.258   2.464   3.281
14087TIP3    H142204   3.272   2.497   3.193
14087TIP3    H242205   3.343   2.428   3.307
14088TIP3   OH242206   0.345   6.776   5.259
14088TIP3    H142207   0.390   6.705   5.214
14088TIP3    H242208   0.367   6.764   5.352
14089TIP3   OH242209   6.511   6.972   6.540
14089TIP3    H142210   6.449   6.960   6.468
14089TIP3    H242211   6.578   7.031   6.506
14090TIP3   OH242212   2.050   2.242   3.814
14090TIP3    H142213   2.143   2.240   3.793
14090TIP3    H242214   2.013   2.167   3.767
14091TIP3   OH242215   1.391   1.360   1.924
14091TIP3    H142216   1.296   1.357   1.913
14091TIP3    H242217   1.424   1.380   1.836
14092TIP3   OH242218   6.389   2.377   0.266
14092TIP3    H142219   6.316   2.318   0.245
14092TIP3    H242220   6.399   2.432   0.188
14093TIP3   OH242221   7.072   7.189   0.590
14093TIP3    H142222   7.007   7.126   0.561
14093TIP3    H242223   7.080   7.251   0.518
14094TIP3   OH242224   7.913   2.807   6.304
14094TIP3    H142225   7.916   2.901   6.289
14094TIP3    H242226   7.892   2.798   6.397
14095TIP3   OH242227   1.757   2.522   3.554
14095TIP3    H142228   1.808   2.476   3.488
14095TIP3    H242229   1.736   2.606   3.514
14096TIP3   OH242230   4.834   0.021   0.904
14096TIP3    H142231   4.907   0.071   0.939
14096TIP3    H242232   4.848   0.019   0.810
14097TIP3   OH242233   5.033   5.983   2.713
14097TIP3    H142234   5.017   5.990   2.619
14097TIP3    H242235   5.112   6.033   2.728
14098TIP3   OH242236   1.739   3.396   2.798
14098TIP3    H142237   1.690   3.415   2.878
14098TIP3    H242238   1.714   3.307   2.774
14099TIP3   OH242239   0.429   1.792   1.168
14099TIP3    H142240   0.368   1.802   1.241
14099TIP3    H242241   0.516   1.802   1.208
14100TIP3   OH242242   0.036   3.491   1.710
14100TIP3    H142243  -0.031   3.441   1.663
14100TIP3    H242244   0.117   3.475   1.661
14101TIP3   OH242245   8.326   2.016   0.803
14101TIP3    H142246   8.231   2.017   0.819
14101TIP3    H242247   8.355   1.932   0.837
14102TIP3   OH242248   3.242   0.096   0.183
14102TIP3    H142249   3.266   0.039   0.257
14102TIP3    H242250   3.316   0.156   0.175
14103TIP3   OH242251   5.324   5.233   5.927
14103TIP3    H142252   5.275   5.161   5.887
14103TIP3    H242253   5.346   5.290   5.854
14104TIP3   OH242254   2.476   4.852   4.385
14104TIP3    H142255   2.518   4.865   4.300
14104TIP3    H242256   2.444   4.939   4.409
14105TIP3   OH242257   0.751   5.938   0.852
14105TIP3    H142258   0.757   5.974   0.764
14105TIP3    H242259   0.773   6.012   0.910
14106TIP3   OH242260   3.153   3.402   2.775
14106TIP3    H142261   3.098   3.463   2.824
14106TIP3    H242262   3.105   3.387   2.693
14107TIP3   OH242263   8.079   7.224   4.167
14107TIP3    H142264   8.086   7.217   4.263
14107TIP3    H242265   8.165   7.256   4.139
14108TIP3   OH242266   6.851   3.728   6.658
14108TIP3    H142267   6.922   3.755   6.600
14108TIP3    H242268   6.797   3.670   6.605
14109TIP3   OH242269   1.208   7.504   4.406
14109TIP3    H142270   1.272   7.535   4.342
14109TIP3    H242271   1.187   7.415   4.377
14110TIP3   OH242272   4.647   3.131   6.674
14110TIP3    H142273   4.556   3.103   6.683
14110TIP3    H242274   4.660   3.193   6.746
14111TIP3   OH242275   1.562   5.648   5.822
14111TIP3    H142276   1.649   5.608   5.822
14111TIP3    H242277   1.503   5.575   5.842
14112TIP3   OH242278   4.261   0.979   5.417
14112TIP3    H142279   4.224   1.041   5.355
14112TIP3    H242280   4.186   0.932   5.453
14113TIP3   OH242281   5.623   4.001   0.251
14113TIP3    H142282   5.582   4.063   0.312
14113TIP3    H242283   5.644   3.925   0.304
14114TIP3   OH242284   1.488   4.112   0.363
14114TIP3    H142285   1.569   4.077   0.327
14114TIP3    H242286   1.516   4.166   0.437
14115TIP3   OH242287   7.582   1.066   0.957
14115TIP3    H142288   7.594   0.981   0.914
14115TIP3    H242289   7.670   1.102   0.965
14116TIP3   OH242290   4.908   6.482   1.257
14116TIP3    H142291   5.000   6.502   1.272
14116TIP3    H242292   4.903   6.458   1.165
14117TIP3   OH242293   6.361   0.929   4.172
14117TIP3    H142294   6.272   0.948   4.200
14117TIP3    H242295   6.405   0.898   4.252
14118TIP3   OH242296   4.938   5.288   4.666
14118TIP3    H142297   5.018   5.239   4.644
14118TIP3    H242298   4.915   5.256   4.753
14119TIP3   OH242299   7.040   6.447   1.429
14119TIP3    H142300   7.135   6.453   1.443
14119TIP3    H242301   7.004   6.440   1.517
14120TIP3   OH242302   1.083   4.709   3.123
14120TIP3    H142303   1.164   4.663   3.143
14120TIP3    H242304   1.019   4.675   3.186
14121TIP3   OH242305   7.963   6.349   1.733
14121TIP3    H142306   7.953   6.402   1.812
14121TIP3    H242307   7.959   6.412   1.661
14122TIP3   OH242308   7.162   5.490   2.369
14122TIP3    H142309   7.093   5.549   2.399
14122TIP3    H242310   7.234   5.548   2.345
14123TIP3   OH242311   8.151   2.967   4.344
14123TIP3    H142312   8.181   3.034   4.283
14123TIP3    H242313   8.159   2.885   4.296
14124TIP3   OH242314   0.314   3.397   1.667
14124TIP3    H142315   0.366   3.321   1.693
14124TIP3    H242316   0.371   3.446   1.608
14125TIP3   OH242317   2.840   0.319   2.537
14125TIP3    H142318   2.797   0.395   2.499
14125TIP3    H242319   2.917   0.354   2.582
14126TIP3   OH242320   2.996   0.437   6.113
14126TIP3    H142321   3.074   0.456   6.060
14126TIP3    H242322   2.961   0.356   6.077
14127TIP3   OH242323   4.112   3.141   6.612
14127TIP3    H142324   4.095   3.232   6.638
14127TIP3    H242325   4.123   3.145   6.517
14128TIP3   OH242326   1.185   3.694   0.184
14128TIP3    H142327   1.126   3.760   0.217
14128TIP3    H242328   1.175   3.620   0.244
14129TIP3   OH242329   2.702   4.484   1.691
14129TIP3    H142330   2.766   4.415   1.706
14129TIP3    H242331   2.753   4.557   1.655
14130TIP3   OH242332   4.053   1.016   1.560
14130TIP3    H142333   4.030   0.940   1.613
14130TIP3    H242334   4.143   1.036   1.584
14131TIP3   OH242335   1.619   0.124   6.179
14131TIP3    H142336   1.618   0.085   6.266
14131TIP3    H242337   1.634   0.218   6.195
14132TIP3   OH242338   7.054   1.678   1.678
14132TIP3    H142339   7.098   1.626   1.610
14132TIP3    H242340   7.125   1.727   1.720
14133TIP3   OH242341   0.139   1.684   3.455
14133TIP3    H142342   0.090   1.657   3.533
14133TIP3    H242343   0.211   1.622   3.450
14134TIP3   OH242344   5.510   6.403   3.018
14134TIP3    H142345   5.415   6.392   3.014
14134TIP3    H242346   5.546   6.323   2.979
14135TIP3   OH242347   5.125   3.559   2.994
14135TIP3    H142348   5.087   3.515   3.070
14135TIP3    H242349   5.071   3.529   2.920
14136TIP3   OH242350   3.621   6.455   4.644
14136TIP3    H142351   3.698   6.511   4.641
14136TIP3    H242352   3.559   6.504   4.699
14137TIP3   OH242353   7.064   3.386   3.249
14137TIP3    H142354   7.056   3.400   3.343
14137TIP3    H242355   7.124   3.455   3.220
14138TIP3   OH242356   6.137   4.776   0.803
14138TIP3    H142357   6.099   4.805   0.720
14138TIP3    H242358   6.145   4.681   0.794
14139TIP3   OH242359   3.257   3.431   1.037
14139TIP3    H142360   3.341   3.476   1.024
14139TIP3    H242361   3.212   3.441   0.953
14140TIP3   OH242362   0.627   7.544   6.231
14140TIP3    H142363   0.707   7.493   6.218
14140TIP3    H242364   0.599   7.569   6.143
14141TIP3   OH242365   6.485   4.760   4.383
14141TIP3    H142366   6.397   4.725   4.396
14141TIP3    H242367   6.543   4.695   4.424
14142TIP3   OH242368   1.550   5.096   1.201
14142TIP3    H142369   1.599   5.148   1.264
14142TIP3    H242370   1.526   5.158   1.132
14143TIP3   OH242371   3.781   6.646   0.773
14143TIP3    H142372   3.690   6.632   0.747
14143TIP3    H242373   3.793   6.741   0.769
14144TIP3   OH242374   2.415   5.370   0.525
14144TIP3    H142375   2.481   5.380   0.457
14144TIP3    H242376   2.376   5.284   0.508
14145TIP3   OH242377   1.901   1.145   0.731
14145TIP3    H142378   1.960   1.164   0.658
14145TIP3    H242379   1.814   1.137   0.691
14146TIP3   OH242380   7.195   6.551   4.598
14146TIP3    H142381   7.239   6.470   4.626
14146TIP3    H242382   7.103   6.527   4.590
14147TIP3   OH242383   5.854   7.336   3.531
14147TIP3    H142384   5.880   7.426   3.548
14147TIP3    H242385   5.912   7.284   3.586
14148TIP3   OH242386   3.400   1.017   5.435
14148TIP3    H142387   3.334   0.955   5.404
14148TIP3    H242388   3.475   1.003   5.378
14149TIP3   OH242389   1.642   1.716   0.477
14149TIP3    H142390   1.692   1.638   0.502
14149TIP3    H242391   1.631   1.707   0.382
14150TIP3   OH242392   7.088   4.534   4.039
14150TIP3    H142393   7.156   4.596   4.065
14150TIP3    H242394   7.006   4.579   4.063
14151TIP3   OH242395   3.127   2.962   6.490
14151TIP3    H142396   3.204   2.911   6.515
14151TIP3    H242397   3.054   2.914   6.529
14152TIP3   OH242398   5.335   4.233   5.629
14152TIP3    H142399   5.408   4.210   5.686
14152TIP3    H242400   5.297   4.148   5.604
14153TIP3   OH242401   1.877   4.840   1.808
14153TIP3    H142402   1.939   4.912   1.799
14153TIP3    H242403   1.814   4.854   1.737
14154TIP3   OH242404   7.361   3.431   2.974
14154TIP3    H142405   7.331   3.521   2.979
14154TIP3    H242406   7.429   3.432   2.906
14155TIP3   OH242407   4.112   2.127   3.743
14155TIP3    H142408   4.069   2.043   3.752
14155TIP3    H242409   4.110   2.164   3.832
14156TIP3   OH242410   4.812   7.713   0.560
14156TIP3    H142411   4.864   7.634   0.573
14156TIP3    H242412   4.737   7.703   0.619
14157TIP3   OH242413   0.456   0.430   0.295
14157TIP3    H142414   0.497   0.459   0.213
14157TIP3    H242415   0.363   0.425   0.275
14158TIP3   OH242416   0.635   3.920   3.730
14158TIP3    H142417   0.550   3.912   3.773
14158TIP3    H242418   0.668   4.005   3.757
14159TIP3   OH242419   7.972   7.754   2.245
14159TIP3    H142420   8.010   7.727   2.328
14159TIP3    H242421   7.983   7.849   2.243
14160TIP3   OH242422   0.412   3.101   2.096
14160TIP3    H142423   0.490   3.053   2.124
14160TIP3    H242424   0.392   3.160   2.168
14161TIP3   OH242425   2.798   4.401   4.317
14161TIP3    H142426   2.850   4.413   4.396
14161TIP3    H242427   2.810   4.309   4.294
14162TIP3   OH242428   6.834   0.627   3.214
14162TIP3    H142429   6.884   0.631   3.133
14162TIP3    H242430   6.879   0.559   3.266
14163TIP3   OH242431   0.262   5.098   4.063
14163TIP3    H142432   0.251   5.121   3.970
14163TIP3    H242433   0.204   5.024   4.076
14164TIP3   OH242434   1.185   5.127   3.922
14164TIP3    H142435   1.141   5.211   3.931
14164TIP3    H242436   1.232   5.115   4.004
14165TIP3   OH242437   3.001   4.542   4.810
14165TIP3    H142438   3.085   4.587   4.807
14165TIP3    H242439   2.948   4.594   4.871
14166TIP3   OH242440   1.959   1.479   1.553
14166TIP3    H142441   2.040   1.511   1.513
14166TIP3    H242442   1.936   1.546   1.618
14167TIP3   OH242443   8.072   6.389   2.595
14167TIP3    H142444   8.107   6.456   2.653
14167TIP3    H242445   8.148   6.334   2.572
14168TIP3   OH242446   4.191   1.146   1.329
14168TIP3    H142447   4.145   1.220   1.287
14168TIP3    H242448   4.134   1.120   1.401
14169TIP3   OH242449   1.758   6.960   0.312
14169TIP3    H142450   1.820   7.018   0.268
14169TIP3    H242451   1.792   6.872   0.298
14170TIP3   OH242452   5.037   1.960   2.984
14170TIP3    H142453   5.003   2.034   2.934
14170TIP3    H242454   4.960   1.906   3.003
14171TIP3   OH242455   1.803   2.827   0.707
14171TIP3    H142456   1.797   2.923   0.697
14171TIP3    H242457   1.712   2.798   0.710
14172TIP3   OH242458   1.879   4.023   1.459
14172TIP3    H142459   1.831   3.940   1.453
14172TIP3    H242460   1.945   4.007   1.527
14173TIP3   OH242461   3.553   7.089   4.471
14173TIP3    H142462   3.524   7.059   4.385
14173TIP3    H242463   3.649   7.083   4.468
14174TIP3   OH242464   3.889   4.559   5.273
14174TIP3    H142465   3.845   4.629   5.322
14174TIP3    H242466   3.873   4.581   5.181
14175TIP3   OH242467   3.282   0.263   4.890
14175TIP3    H142468   3.287   0.302   4.977
14175TIP3    H242469   3.354   0.200   4.887
14176TIP3   OH242470   3.357   1.262   0.816
14176TIP3    H142471   3.329   1.286   0.728
14176TIP3    H242472   3.277   1.234   0.860
14177TIP3   OH242473   3.106   4.621   4.004
14177TIP3    H142474   3.110   4.650   4.096
14177TIP3    H242475   3.040   4.679   3.965
14178TIP3   OH242476   0.937   5.407   3.457
14178TIP3    H142477   0.906   5.399   3.547
14178TIP3    H242478   1.024   5.367   3.458
14179TIP3   OH242479   4.381   3.774   2.898
14179TIP3    H142480   4.390   3.859   2.940
14179TIP3    H242481   4.341   3.792   2.813
14180TIP3   OH242482   5.190   4.907   6.659
14180TIP3    H142483   5.200   4.945   6.746
14180TIP3    H242484   5.269   4.933   6.612
14181TIP3   OH242485   6.355   0.391   1.077
14181TIP3    H142486   6.396   0.331   1.015
14181TIP3    H242487   6.262   0.368   1.074
14182TIP3   OH242488   7.362   5.254   1.970
14182TIP3    H142489   7.294   5.239   2.035
14182TIP3    H242490   7.358   5.348   1.952
14183TIP3   OH242491   3.734   4.203   1.017
14183TIP3    H142492   3.680   4.157   1.082
14183TIP3    H242493   3.737   4.143   0.942
14184TIP3   OH242494   3.218   2.037   1.745
14184TIP3    H142495   3.247   2.122   1.779
14184TIP3    H242496   3.183   1.991   1.822
14185TIP3   OH242497   5.725   7.150   2.027
14185TIP3    H142498   5.677   7.070   2.045
14185TIP3    H242499   5.764   7.174   2.111
14186TIP3   OH242500   7.191   2.768   6.027
14186TIP3    H142501   7.151   2.816   5.954
14186TIP3    H242502   7.256   2.711   5.986
14187TIP3   OH242503   5.663   6.803   0.103
14187TIP3    H142504   5.614   6.840   0.030
14187TIP3    H242505   5.749   6.782   0.066
14188TIP3   OH242506   2.910   7.551   6.384
14188TIP3    H142507   2.940   7.606   6.311
14188TIP3    H242508   2.839   7.601   6.424
14189TIP3   OH242509   4.498   7.647   4.037
14189TIP3    H142510   4.454   7.654   3.953
14189TIP3    H242511   4.530   7.736   4.055
14190TIP3   OH242512   4.752   5.056   2.664
14190TIP3    H142513   4.797   5.063   2.579
14190TIP3    H242514   4.679   4.996   2.648
14191TIP3   OH242515   7.906   0.996   0.415
14191TIP3    H142516   7.827   1.039   0.382
14191TIP3    H242517   7.926   0.929   0.351
14192TIP3   OH242518   0.588   5.828   6.131
14192TIP3    H142519   0.599   5.918   6.163
14192TIP3    H242520   0.555   5.839   6.041
14193TIP3   OH242521   3.893   0.892   2.142
14193TIP3    H142522   3.849   0.807   2.147
14193TIP3    H242523   3.959   0.888   2.211
14194TIP3   OH242524   5.309   3.216   0.725
14194TIP3    H142525   5.250   3.170   0.665
14194TIP3    H242526   5.386   3.236   0.673
14195TIP3   OH242527   7.277   3.522   5.088
14195TIP3    H142528   7.325   3.571   5.154
14195TIP3    H242529   7.197   3.493   5.132
14196TIP3   OH242530   2.193   3.242   2.903
14196TIP3    H142531   2.244   3.319   2.926
14196TIP3    H242532   2.196   3.186   2.981
14197TIP3   OH242533   4.003   7.598   5.585
14197TIP3    H142534   3.953   7.622   5.507
14197TIP3    H242535   3.991   7.504   5.594
14198TIP3   OH242536   4.759   5.756   2.966
14198TIP3    H142537   4.842   5.710   2.975
14198TIP3    H242538   4.782   5.849   2.972
14199TIP3   OH242539   1.326   2.728   3.611
14199TIP3    H142540   1.330   2.691   3.523
14199TIP3    H242541   1.349   2.820   3.599
14200TIP3   OH242542   6.570   4.031   3.425
14200TIP3    H142543   6.644   4.023   3.365
14200TIP3    H242544   6.553   4.125   3.428
14201TIP3   OH242545   0.594   6.940   3.781
14201TIP3    H142546   0.644   7.011   3.822
14201TIP3    H242547   0.585   6.967   3.690
14202TIP3   OH242548   2.358   5.787   4.562
14202TIP3    H142549   2.391   5.855   4.620
14202TIP3    H242550   2.326   5.718   4.620
14203TIP3   OH242551   5.361   6.470   2.280
14203TIP3    H142552   5.326   6.487   2.193
14203TIP3    H242553   5.408   6.387   2.272
14204TIP3   OH242554   6.388   5.532   3.164
14204TIP3    H142555   6.472   5.508   3.124
14204TIP3    H242556   6.359   5.610   3.116
14205TIP3   OH242557   2.571   6.108   5.869
14205TIP3    H142558   2.480   6.094   5.842
14205TIP3    H242559   2.566   6.138   5.960
14206TIP3   OH242560   2.328   6.868   3.997
14206TIP3    H142561   2.405   6.912   4.033
14206TIP3    H242562   2.345   6.775   4.010
14207TIP3   OH242563   3.373   3.622   1.567
14207TIP3    H142564   3.365   3.657   1.656
14207TIP3    H242565   3.288   3.581   1.550
14208TIP3   OH242566   4.790   4.058   3.251
14208TIP3    H142567   4.798   4.144   3.210
14208TIP3    H242568   4.766   4.076   3.341
14209TIP3   OH242569   2.205   4.608   6.003
14209TIP3    H142570   2.217   4.701   6.023
14209TIP3    H242571   2.288   4.567   6.027
14210TIP3   OH242572   1.709   1.484   4.680
14210TIP3    H142573   1.745   1.567   4.649
14210TIP3    H242574   1.619   1.484   4.649
14211TIP3   OH242575   1.746   2.365   5.746
14211TIP3    H142576   1.686   2.291   5.748
14211TIP3    H242577   1.803   2.347   5.671
14212TIP3   OH242578   2.472   0.126   5.689
14212TIP3    H142579   2.419   0.189   5.639
14212TIP3    H242580   2.463   0.044   5.640
14213TIP3   OH242581   1.359   1.713   1.478
14213TIP3    H142582   1.424   1.724   1.409
14213TIP3    H242583   1.324   1.625   1.464
14214TIP3   OH242584   5.643   7.521   2.904
14214TIP3    H142585   5.613   7.436   2.873
14214TIP3    H242586   5.665   7.506   2.997
14215TIP3   OH242587   7.668   7.146   4.505
14215TIP3    H142588   7.741   7.191   4.548
14215TIP3    H242589   7.606   7.215   4.482
14216TIP3   OH242590   1.761   6.061   3.580
14216TIP3    H142591   1.798   6.008   3.650
14216TIP3    H242592   1.747   6.000   3.508
14217TIP3   OH242593   0.693   0.076   6.269
14217TIP3    H142594   0.618   0.050   6.216
14217TIP3    H242595   0.757   0.006   6.258
14218TIP3   OH242596   3.295   0.788   3.173
14218TIP3    H142597   3.355   0.862   3.161
14218TIP3    H242598   3.327   0.744   3.252
14219TIP3   OH242599   3.631   5.759   4.111
14219TIP3    H142600   3.625   5.663   4.110
14219TIP3    H242601   3.678   5.779   4.192
14220TIP3   OH242602   4.522   5.587   6.505
14220TIP3    H142603   4.517   5.622   6.593
14220TIP3    H242604   4.605   5.539   6.503
14221TIP3   OH242605   0.281   2.943   3.598
14221TIP3    H142606   0.367   2.924   3.559
14221TIP3    H242607   0.259   3.030   3.565
14222TIP3   OH242608   6.517   0.388   5.193
14222TIP3    H142609   6.451   0.420   5.254
14222TIP3    H242610   6.517   0.452   5.122
14223TIP3   OH242611   6.395   1.855   0.630
14223TIP3    H142612   6.443   1.903   0.562
14223TIP3    H242613   6.436   1.768   0.631
14224TIP3   OH242614   2.878   2.147   2.837
14224TIP3    H142615   2.930   2.190   2.770
14224TIP3    H242616   2.788   2.151   2.804
14225TIP3   OH242617   0.305   0.736   0.786
14225TIP3    H142618   0.363   0.726   0.711
14225TIP3    H242619   0.272   0.647   0.803
14226TIP3   OH242620   2.886   5.926   1.164
14226TIP3    H142621   2.855   5.838   1.141
14226TIP3    H242622   2.833   5.951   1.239
14227TIP3   OH242623   0.458   3.161   4.196
14227TIP3    H142624   0.505   3.133   4.275
14227TIP3    H242625   0.367   3.167   4.223
14228TIP3   OH242626   6.991   4.802   5.144
14228TIP3    H142627   7.060   4.759   5.193
14228TIP3    H242628   6.912   4.752   5.163
14229TIP3   OH242629   0.955   5.531   1.636
14229TIP3    H142630   0.899   5.506   1.710
14229TIP3    H242631   1.019   5.591   1.673
14230TIP3   OH242632   2.123   1.908   3.234
14230TIP3    H142633   2.080   1.991   3.253
14230TIP3    H242634   2.051   1.846   3.223
14231TIP3   OH242635   2.686   7.056   5.397
14231TIP3    H142636   2.629   7.051   5.474
14231TIP3    H242637   2.746   7.127   5.417
14232TIP3   OH242638   4.055   0.733   3.743
14232TIP3    H142639   4.100   0.731   3.828
14232TIP3    H242640   3.966   0.702   3.763
14233TIP3   OH242641   3.296   7.469   3.290
14233TIP3    H142642   3.311   7.381   3.256
14233TIP3    H242643   3.204   7.487   3.271
14234TIP3   OH242644   0.294   2.043   0.497
14234TIP3    H142645   0.303   2.075   0.407
14234TIP3    H242646   0.225   2.097   0.535
14235TIP3   OH242647   5.619   4.612   5.089
14235TIP3    H142648   5.663   4.563   5.158
14235TIP3    H242649   5.687   4.626   5.022
14236TIP3   OH242650   0.164   1.890   4.922
14236TIP3    H142651   0.091   1.829   4.936
14236TIP3    H242652   0.127   1.960   4.868
14237TIP3   OH242653   4.777   1.864   6.220
14237TIP3    H142654   4.782   1.916   6.300
14237TIP3    H242655   4.771   1.774   6.250
14238TIP3   OH242656   7.173   3.520  -0.005
14238TIP3    H142657   7.116   3.578   0.045
14238TIP3    H242658   7.112   3.462  -0.052
14239TIP3   OH242659   0.579   3.026   6.035
14239TIP3    H142660   0.503   3.021   5.977
14239TIP3    H242661   0.543   3.012   6.123
14240TIP3   OH242662   5.380   4.695   6.652
14240TIP3    H142663   5.376   4.789   6.636
14240TIP3    H242664   5.468   4.679   6.686
14241TIP3   OH242665   2.356   0.148   5.031
14241TIP3    H142666   2.290   0.125   4.966
14241TIP3    H242667   2.439   0.117   4.994
14242TIP3   OH242668   0.484   1.938   6.766
14242TIP3    H142669   0.426   1.863   6.769
14242TIP3    H242670   0.457   1.987   6.688
14243TIP3   OH242671   3.365   5.032   3.599
14243TIP3    H142672   3.454   5.044   3.566
14243TIP3    H242673   3.373   5.038   3.694
14244TIP3   OH242674   6.385   2.934   5.805
14244TIP3    H142675   6.324   2.861   5.817
14244TIP3    H242676   6.338   3.011   5.838
14245TIP3   OH242677   0.380   3.878   0.115
14245TIP3    H142678   0.452   3.915   0.064
14245TIP3    H242679   0.331   3.825   0.052
14246TIP3   OH242680   2.784   5.213   0.433
14246TIP3    H142681   2.873   5.247   0.427
14246TIP3    H242682   2.777   5.150   0.361
14247TIP3   OH242683   5.518   3.352   3.173
14247TIP3    H142684   5.473   3.372   3.091
14247TIP3    H242685   5.581   3.284   3.150
14248TIP3   OH242686   5.994   6.923   4.600
14248TIP3    H142687   5.991   6.971   4.517
14248TIP3    H242688   6.008   6.832   4.574
14249TIP3   OH242689   5.403   6.712   0.369
14249TIP3    H142690   5.472   6.757   0.321
14249TIP3    H242691   5.447   6.639   0.414
14250TIP3   OH242692   3.669   4.274   6.113
14250TIP3    H142693   3.609   4.348   6.123
14250TIP3    H242694   3.739   4.290   6.176
14251TIP3   OH242695   0.225   3.955   3.295
14251TIP3    H142696   0.165   3.955   3.221
14251TIP3    H242697   0.191   4.022   3.354
14252TIP3   OH242698   3.786   7.228   3.228
14252TIP3    H142699   3.734   7.149   3.213
14252TIP3    H242700   3.738   7.297   3.181
14253TIP3   OH242701   5.377   1.006   4.389
14253TIP3    H142702   5.418   0.952   4.322
14253TIP3    H242703   5.340   0.944   4.452
14254TIP3   OH242704   5.971   0.934   2.687
14254TIP3    H142705   5.949   1.013   2.637
14254TIP3    H242706   6.038   0.890   2.634
14255TIP3   OH242707   3.200   1.609   3.602
14255TIP3    H142708   3.132   1.648   3.656
14255TIP3    H242709   3.219   1.674   3.535
14256TIP3   OH242710   8.253   3.381   1.350
14256TIP3    H142711   8.316   3.326   1.395
14256TIP3    H242712   8.234   3.334   1.269
14257TIP3   OH242713   1.682   7.498   1.238
14257TIP3    H142714   1.632   7.444   1.298
14257TIP3    H242715   1.700   7.441   1.163
14258TIP3   OH242716   5.374   0.721   0.777
14258TIP3    H142717   5.279   0.738   0.784
14258TIP3    H242718   5.398   0.754   0.691
14259TIP3   OH242719   1.843   2.457   1.266
14259TIP3    H142720   1.804   2.415   1.190
14259TIP3    H242721   1.788   2.534   1.281
14260TIP3   OH242722   8.165   2.089   6.641
14260TIP3    H142723   8.109   2.143   6.586
14260TIP3    H242724   8.108   2.018   6.670
14261TIP3   OH242725   3.083   6.108   3.861
14261TIP3    H142726   3.078   6.082   3.953
14261TIP3    H242727   3.065   6.203   3.861
14262TIP3   OH242728   2.694   6.420   1.819
14262TIP3    H142729   2.650   6.365   1.754
14262TIP3    H242730   2.719   6.359   1.889
14263TIP3   OH242731   2.855   1.563   5.713
14263TIP3    H142732   2.929   1.577   5.654
14263TIP3    H242733   2.892   1.514   5.786
14264TIP3   OH242734   0.566   5.490   2.731
14264TIP3    H142735   0.554   5.580   2.700
14264TIP3    H242736   0.589   5.440   2.653
14265TIP3   OH242737   7.562   6.282   3.655
14265TIP3    H142738   7.571   6.228   3.733
14265TIP3    H242739   7.639   6.262   3.603
14266TIP3   OH242740   0.714   6.731   5.326
14266TIP3    H142741   0.665   6.803   5.286
14266TIP3    H242742   0.673   6.652   5.290
14267TIP3   OH242743   6.195   2.108   0.710
14267TIP3    H142744   6.170   2.159   0.633
14267TIP3    H242745   6.210   2.173   0.779
14268TIP3   OH242746   0.312   4.476   0.483
14268TIP3    H142747   0.245   4.499   0.548
14268TIP3    H242748   0.354   4.560   0.462
14269TIP3   OH242749   2.968   7.476   0.458
14269TIP3    H142750   2.931   7.487   0.370
14269TIP3    H242751   2.956   7.561   0.500
14270TIP3   OH242752   4.256   3.357   0.475
14270TIP3    H142753   4.329   3.401   0.519
14270TIP3    H242754   4.245   3.275   0.522
14271TIP3   OH242755   1.471   7.806   0.400
14271TIP3    H142756   1.469   7.799   0.495
14271TIP3    H242757   1.564   7.819   0.379
14272TIP3   OH242758   0.213   4.214   3.781
14272TIP3    H142759   0.135   4.251   3.740
14272TIP3    H242760   0.187   4.125   3.807
14273TIP3   OH242761   4.280   0.069   5.892
14273TIP3    H142762   4.297   0.159   5.920
14273TIP3    H242763   4.274   0.075   5.796
14274TIP3   OH242764   0.803   2.525   5.343
14274TIP3    H142765   0.751   2.525   5.423
14274TIP3    H242766   0.769   2.451   5.292
14275TIP3   OH242767   7.548   0.540   6.607
14275TIP3    H142768   7.599   0.483   6.665
14275TIP3    H242769   7.587   0.626   6.619
14276TIP3   OH242770   2.429   5.031   4.944
14276TIP3    H142771   2.381   4.977   4.882
14276TIP3    H242772   2.493   4.972   4.983
14277TIP3   OH242773   4.868   7.365   1.071
14277TIP3    H142774   4.935   7.299   1.053
14277TIP3    H242775   4.912   7.448   1.051
14278TIP3   OH242776   6.278   2.385   3.429
14278TIP3    H142777   6.186   2.403   3.410
14278TIP3    H242778   6.278   2.294   3.460
14279TIP3   OH242779   5.462   3.164   1.549
14279TIP3    H142780   5.398   3.204   1.490
14279TIP3    H242781   5.440   3.200   1.635
14280TIP3   OH242782   6.362   6.276   5.546
14280TIP3    H142783   6.332   6.242   5.462
14280TIP3    H242784   6.333   6.211   5.610
14281TIP3   OH242785   3.105   7.756   2.579
14281TIP3    H142786   3.075   7.769   2.669
14281TIP3    H242787   3.159   7.678   2.583
14282TIP3   OH242788   3.155   2.270   1.344
14282TIP3    H142789   3.087   2.299   1.284
14282TIP3    H242790   3.111   2.265   1.429
14283TIP3   OH242791   5.170   1.916   2.399
14283TIP3    H142792   5.189   1.843   2.458
14283TIP3    H242793   5.177   1.879   2.311
14284TIP3   OH242794   3.849   5.886   1.897
14284TIP3    H142795   3.770   5.856   1.851
14284TIP3    H242796   3.824   5.967   1.939
14285TIP3   OH242797   7.824   6.698   3.223
14285TIP3    H142798   7.736   6.712   3.256
14285TIP3    H242799   7.819   6.717   3.129
14286TIP3   OH242800   7.208   7.285   4.382
14286TIP3    H142801   7.257   7.213   4.342
14286TIP3    H242802   7.215   7.357   4.320
14287TIP3   OH242803   2.885   6.042   0.896
14287TIP3    H142804   2.865   6.058   0.988
14287TIP3    H242805   2.853   5.953   0.880
14288TIP3   OH242806   5.650   3.027   4.312
14288TIP3    H142807   5.635   3.057   4.222
14288TIP3    H242808   5.589   2.954   4.324
14289TIP3   OH242809   0.952   0.932   4.922
14289TIP3    H142810   1.028   0.979   4.887
14289TIP3    H242811   0.944   0.855   4.866
14290TIP3   OH242812   6.640   0.384   3.504
14290TIP3    H142813   6.619   0.477   3.498
14290TIP3    H242814   6.676   0.361   3.418
14291TIP3   OH242815   2.560   0.077   0.958
14291TIP3    H142816   2.606   0.024   1.024
14291TIP3    H242817   2.624   0.145   0.934
14292TIP3   OH242818   6.257   6.386   4.647
14292TIP3    H142819   6.250   6.473   4.606
14292TIP3    H242820   6.220   6.326   4.583
14293TIP3   OH242821   5.658   1.723   5.090
14293TIP3    H142822   5.738   1.753   5.132
14293TIP3    H242823   5.620   1.801   5.051
14294TIP3   OH242824   4.736   3.419   4.002
14294TIP3    H142825   4.684   3.470   3.940
14294TIP3    H242826   4.675   3.353   4.035
14295TIP3   OH242827   3.068   4.248   5.663
14295TIP3    H142828   2.997   4.196   5.624
14295TIP3    H242829   3.061   4.231   5.757
14296TIP3   OH242830   4.030   6.153   2.283
14296TIP3    H142831   4.023   6.184   2.374
14296TIP3    H242832   3.980   6.071   2.282
14297TIP3   OH242833   7.172   4.293   3.362
14297TIP3    H142834   7.210   4.277   3.275
14297TIP3    H242835   7.188   4.386   3.378
14298TIP3   OH242836   7.683   4.997   4.367
14298TIP3    H142837   7.768   5.035   4.389
14298TIP3    H242838   7.619   5.057   4.405
14299TIP3   OH242839   7.614   6.837   5.226
14299TIP3    H142840   7.590   6.750   5.256
14299TIP3    H242841   7.697   6.824   5.179
14300TIP3   OH242842   2.971   0.296   2.058
14300TIP3    H142843   2.943   0.360   1.993
14300TIP3    H242844   2.904   0.228   2.055
14301TIP3   OH242845   0.640   2.445   0.668
14301TIP3    H142846   0.709   2.402   0.718
14301TIP3    H242847   0.562   2.390   0.681
14302TIP3   OH242848   5.414   3.100   5.695
14302TIP3    H142849   5.473   3.131   5.764
14302TIP3    H242850   5.419   3.005   5.700
14303TIP3   OH242851   3.554   0.209   1.482
14303TIP3    H142852   3.602   0.291   1.497
14303TIP3    H242853   3.609   0.160   1.421
14304TIP3   OH242854   7.098   0.993   1.779
14304TIP3    H142855   7.042   0.915   1.784
14304TIP3    H242856   7.143   0.996   1.863
14305TIP3   OH242857   7.067   7.475   0.057
14305TIP3    H142858   7.131   7.424   0.008
14305TIP3    H242859   6.990   7.479  -0.001
14306TIP3   OH242860   0.223   7.364   2.909
14306TIP3    H142861   0.165   7.301   2.951
14306TIP3    H242862   0.186   7.377   2.822
14307TIP3   OH242863   3.817   7.048   4.389
14307TIP3    H142864   3.853   7.095   4.464
14307TIP3    H242865   3.796   7.117   4.326
14308TIP3   OH242866   1.892   6.819   4.630
14308TIP3    H142867   1.948   6.777   4.695
14308TIP3    H242868   1.811   6.767   4.632
14309TIP3   OH242869   5.775   7.284   1.217
14309TIP3    H142870   5.817   7.209   1.258
14309TIP3    H242871   5.682   7.261   1.214
14310TIP3   OH242872   7.194   0.114   5.300
14310TIP3    H142873   7.199   0.133   5.207
14310TIP3    H242874   7.110   0.150   5.328
14311TIP3   OH242875   3.564   0.275   5.694
14311TIP3    H142876   3.571   0.260   5.789
14311TIP3    H242877   3.568   0.187   5.656
14312TIP3   OH242878   4.644   2.370   1.377
14312TIP3    H142879   4.564   2.327   1.408
14312TIP3    H242880   4.699   2.377   1.455
14313TIP3   OH242881   4.271   6.939   3.058
14313TIP3    H142882   4.312   6.994   3.125
14313TIP3    H242883   4.288   6.850   3.086
14314TIP3   OH242884   5.188   1.827   2.142
14314TIP3    H142885   5.150   1.744   2.170
14314TIP3    H242886   5.282   1.810   2.134
14315TIP3   OH242887   3.883   7.169   4.648
14315TIP3    H142888   3.971   7.202   4.669
14315TIP3    H242889   3.824   7.240   4.673
14316TIP3   OH242890   0.948   3.966   4.855
14316TIP3    H142891   0.916   3.926   4.936
14316TIP3    H242892   0.977   3.892   4.802
14317TIP3   OH242893   8.216   3.629   1.430
14317TIP3    H142894   8.182   3.626   1.519
14317TIP3    H242895   8.211   3.538   1.399
14318TIP3   OH242896   1.803   0.644   2.267
14318TIP3    H142897   1.857   0.720   2.248
14318TIP3    H242898   1.816   0.628   2.361
14319TIP3   OH242899   7.413   5.555   1.022
14319TIP3    H142900   7.344   5.591   1.077
14319TIP3    H242901   7.471   5.629   1.004
14320TIP3   OH242902   7.364   5.221   3.443
14320TIP3    H142903   7.332   5.145   3.393
14320TIP3    H242904   7.381   5.187   3.530
14321TIP3   OH242905   2.193   7.767   3.977
14321TIP3    H142906   2.239   7.710   4.039
14321TIP3    H242907   2.263   7.808   3.926
14322TIP3   OH242908   6.249   7.602   3.884
14322TIP3    H142909   6.157   7.594   3.857
14322TIP3    H242910   6.297   7.547   3.821
14323TIP3   OH242911   3.827   0.803   5.985
14323TIP3    H142912   3.783   0.720   5.998
14323TIP3    H242913   3.787   0.861   6.050
14324TIP3   OH242914   3.471   5.531   6.751
14324TIP3    H142915   3.408   5.591   6.789
14324TIP3    H242916   3.462   5.542   6.656
14325TIP3   OH242917   7.831   2.831   3.618
14325TIP3    H142918   7.750   2.780   3.614
14325TIP3    H242919   7.810   2.914   3.575
14326TIP3   OH242920   7.259   5.877   6.179
14326TIP3    H142921   7.203   5.917   6.246
14326TIP3    H242922   7.203   5.868   6.102
14327TIP3   OH242923   0.165   1.333   6.304
14327TIP3    H142924   0.183   1.367   6.391
14327TIP3    H242925   0.118   1.403   6.259
14328TIP3   OH242926   4.690   7.127   5.534
14328TIP3    H142927   4.724   7.122   5.624
14328TIP3    H242928   4.767   7.115   5.479
14329TIP3   OH242929   0.768   4.572   4.849
14329TIP3    H142930   0.858   4.585   4.820
14329TIP3    H242931   0.775   4.557   4.943
14330TIP3   OH242932   1.429   0.417   5.680
14330TIP3    H142933   1.370   0.386   5.611
14330TIP3    H242934   1.453   0.505   5.653
14331TIP3   OH242935   7.840   0.541   1.320
14331TIP3    H142936   7.840   0.635   1.302
14331TIP3    H242937   7.906   0.505   1.261
14332TIP3   OH242938   2.857   3.442   5.917
14332TIP3    H142939   2.773   3.398   5.929
14332TIP3    H242940   2.836   3.522   5.869
14333TIP3   OH242941   2.926   3.478   3.105
14333TIP3    H142942   2.857   3.534   3.141
14333TIP3    H242943   2.879   3.408   3.059
14334TIP3   OH242944   4.402   6.505   1.266
14334TIP3    H142945   4.480   6.551   1.297
14334TIP3    H242946   4.397   6.526   1.173
14335TIP3   OH242947   6.482   5.687   1.003
14335TIP3    H142948   6.547   5.700   1.072
14335TIP3    H242949   6.523   5.723   0.925
14336TIP3   OH242950   2.262   3.245   1.896
14336TIP3    H142951   2.273   3.336   1.921
14336TIP3    H242952   2.255   3.246   1.801
14337TIP3   OH242953   7.741   6.337   5.675
14337TIP3    H142954   7.830   6.358   5.647
14337TIP3    H242955   7.710   6.273   5.611
14338TIP3   OH242956   5.528   1.495   3.888
14338TIP3    H142957   5.531   1.462   3.978
14338TIP3    H242958   5.489   1.424   3.837
14339TIP3   OH242959   7.643   7.540   3.713
14339TIP3    H142960   7.679   7.624   3.742
14339TIP3    H242961   7.570   7.564   3.656
14340TIP3   OH242962   6.323   1.535   5.881
14340TIP3    H142963   6.387   1.603   5.862
14340TIP3    H242964   6.357   1.456   5.838
14341TIP3   OH242965   3.566   4.882   1.463
14341TIP3    H142966   3.657   4.873   1.492
14341TIP3    H242967   3.525   4.798   1.484
14342TIP3   OH242968   6.763   1.269   4.469
14342TIP3    H142969   6.677   1.302   4.497
14342TIP3    H242970   6.767   1.291   4.376
14343TIP3   OH242971   2.174   2.869   0.732
14343TIP3    H142972   2.215   2.858   0.646
14343TIP3    H242973   2.229   2.819   0.792
14344TIP3   OH242974   0.936   0.082   5.483
14344TIP3    H142975   0.951   0.014   5.549
14344TIP3    H242976   0.866   0.136   5.520
14345TIP3   OH242977   3.387   6.077   6.077
14345TIP3    H142978   3.415   6.126   6.154
14345TIP3    H242979   3.357   5.993   6.111
14346TIP3   OH242980   6.093   5.969   2.306
14346TIP3    H142981   6.114   5.877   2.293
14346TIP3    H242982   6.078   5.978   2.400
14347TIP3   OH242983   6.091   5.338   4.242
14347TIP3    H142984   6.066   5.289   4.164
14347TIP3    H242985   6.062   5.284   4.315
14348TIP3   OH242986   3.731   1.911   1.437
14348TIP3    H142987   3.807   1.888   1.491
14348TIP3    H242988   3.753   1.997   1.400
14349TIP3   OH242989   5.274   7.637   1.352
14349TIP3    H142990   5.354   7.658   1.401
14349TIP3    H242991   5.279   7.693   1.274
14350TIP3   OH242992   4.685   1.730   4.193
14350TIP3    H142993   4.678   1.639   4.163
14350TIP3    H242994   4.749   1.728   4.264
14351TIP3   OH242995   6.788   1.908   5.759
14351TIP3    H142996   6.701   1.884   5.727
14351TIP3    H242997   6.804   1.994   5.720
14352TIP3   OH242998   2.594   2.133   6.210
14352TIP3    H142999   2.637   2.051   6.236
14352TIP3    H243000   2.580   2.180   6.292
14353TIP3   OH243001   2.379   0.520   3.252
14353TIP3    H143002   2.318   0.446   3.244
14353TIP3    H243003   2.460   0.489   3.214
14354TIP3   OH243004   4.369   3.388   3.846
14354TIP3    H143005   4.446   3.445   3.837
14354TIP3    H243006   4.295   3.445   3.826
14355TIP3   OH243007   5.796   5.483   4.032
14355TIP3    H143008   5.867   5.484   3.967
14355TIP3    H243009   5.772   5.575   4.042
14356TIP3   OH243010   0.770   0.710   2.161
14356TIP3    H143011   0.765   0.616   2.178
14356TIP3    H243012   0.860   0.724   2.129
14357TIP3   OH243013   7.285   0.992   1.563
14357TIP3    H143014   7.222   0.958   1.499
14357TIP3    H243015   7.235   0.999   1.645
14358TIP3   OH243016   0.557   1.498   2.059
14358TIP3    H143017   0.622   1.462   2.118
14358TIP3    H243018   0.580   1.591   2.051
14359TIP3   OH243019   2.040   3.005   5.372
14359TIP3    H143020   2.079   2.999   5.459
14359TIP3    H243021   2.111   3.041   5.317
14360TIP3   OH243022   5.643   1.563   6.286
14360TIP3    H143023   5.717   1.619   6.310
14360TIP3    H243024   5.660   1.539   6.195
14361TIP3   OH243025   1.197   5.481   2.818
14361TIP3    H143026   1.279   5.531   2.818
14361TIP3    H243027   1.144   5.521   2.886
14362TIP3   OH243028   7.943   2.461   3.694
14362TIP3    H143029   7.900   2.410   3.625
14362TIP3    H243030   7.872   2.492   3.750
14363TIP3   OH243031   7.415   5.127   5.043
14363TIP3    H143032   7.391   5.148   4.953
14363TIP3    H243033   7.397   5.207   5.092
14364TIP3   OH243034   0.219   7.058   6.377
14364TIP3    H143035   0.253   6.968   6.375
14364TIP3    H243036   0.139   7.052   6.429
14365TIP3   OH243037   0.465   2.422   1.522
14365TIP3    H143038   0.464   2.443   1.615
14365TIP3    H243039   0.534   2.477   1.485
14366TIP3   OH243040   0.665   2.631   3.062
14366TIP3    H143041   0.754   2.603   3.084
14366TIP3    H243042   0.614   2.550   3.060
14367TIP3   OH243043   0.075   6.014   3.773
14367TIP3    H143044  -0.011   6.054   3.755
14367TIP3    H243045   0.055   5.936   3.824
14368TIP3   OH243046   5.307   4.048   2.412
14368TIP3    H143047   5.394   4.034   2.449
14368TIP3    H243048   5.314   4.016   2.322
14369TIP3   OH243049   1.482   6.428   4.581
14369TIP3    H143050   1.418   6.395   4.517
14369TIP3    H243051   1.565   6.389   4.555
14370TIP3   OH243052   3.397   7.742   3.928
14370TIP3    H143053   3.474   7.797   3.911
14370TIP3    H243054   3.323   7.803   3.921
14371TIP3   OH243055   5.403   2.204   3.798
14371TIP3    H143056   5.479   2.238   3.752
14371TIP3    H243057   5.409   2.243   3.886
14372TIP3   OH243058   1.676   0.918   3.320
14372TIP3    H143059   1.666   0.859   3.394
14372TIP3    H243060   1.766   0.905   3.290
14373TIP3   OH243061   5.374   3.402   4.209
14373TIP3    H143062   5.334   3.423   4.125
14373TIP3    H243063   5.355   3.309   4.222
14374TIP3   OH243064   7.300   7.867   3.004
14374TIP3    H143065   7.239   7.800   3.033
14374TIP3    H243066   7.370   7.819   2.960
14375TIP3   OH243067   5.169   4.211   0.762
14375TIP3    H143068   5.136   4.122   0.776
14375TIP3    H243069   5.207   4.209   0.675
14376TIP3   OH243070   4.921   0.394   0.965
14376TIP3    H143071   4.931   0.337   0.888
14376TIP3    H243072   4.994   0.369   1.022
14377TIP3   OH243073   7.441   7.754   5.525
14377TIP3    H143074   7.379   7.783   5.457
14377TIP3    H243075   7.506   7.703   5.477
14378TIP3   OH243076   7.353   2.872   2.803
14378TIP3    H143077   7.293   2.934   2.844
14378TIP3    H243078   7.322   2.865   2.713
14379TIP3   OH243079   1.874   1.524   6.302
14379TIP3    H143080   1.798   1.511   6.359
14379TIP3    H243081   1.849   1.596   6.244
14380TIP3   OH243082   4.939   5.591   0.932
14380TIP3    H143083   4.853   5.632   0.939
14380TIP3    H243084   4.978   5.633   0.855
14381TIP3   OH243085   2.149   5.279   2.431
14381TIP3    H143086   2.112   5.309   2.514
14381TIP3    H243087   2.175   5.189   2.448
14382TIP3   OH243088   4.847   7.759   4.580
14382TIP3    H143089   4.815   7.692   4.520
14382TIP3    H243090   4.838   7.720   4.667
14383TIP3   OH243091   1.952   7.218   5.908
14383TIP3    H143092   1.895   7.261   5.845
14383TIP3    H243093   1.912   7.236   5.993
14384TIP3   OH243094   0.570   2.927   5.250
14384TIP3    H143095   0.532   2.938   5.338
14384TIP3    H243096   0.520   2.987   5.195
14385TIP3   OH243097   0.446   1.910   4.846
14385TIP3    H143098   0.354   1.936   4.845
14385TIP3    H243099   0.452   1.849   4.920
14386TIP3   OH243100   0.702   0.023   0.663
14386TIP3    H143101   0.636   0.071   0.712
14386TIP3    H243102   0.778   0.021   0.721
14387TIP3   OH243103   4.936   0.608   6.283
14387TIP3    H143104   5.001   0.542   6.305
14387TIP3    H243105   4.853   0.571   6.315
14388TIP3   OH243106   2.464   5.864   5.505
14388TIP3    H143107   2.528   5.864   5.576
14388TIP3    H243108   2.393   5.920   5.537
14389TIP3   OH243109   4.681   0.951   4.027
14389TIP3    H143110   4.766   0.977   4.062
14389TIP3    H243111   4.672   1.000   3.946
14390TIP3   OH243112   7.063   0.376   4.621
14390TIP3    H143113   6.992   0.368   4.557
14390TIP3    H243114   7.083   0.470   4.622
14391TIP3   OH243115   2.726   6.261   6.323
14391TIP3    H143116   2.688   6.337   6.368
14391TIP3    H243117   2.658   6.232   6.263
14392TIP3   OH243118   3.239   3.911   6.130
14392TIP3    H143119   3.158   3.862   6.142
14392TIP3    H243120   3.263   3.939   6.219
14393TIP3   OH243121   7.397   4.755   3.151
14393TIP3    H143122   7.307   4.787   3.141
14393TIP3    H243123   7.390   4.661   3.140
14394TIP3   OH243124   6.749   3.716   0.811
14394TIP3    H143125   6.702   3.772   0.873
14394TIP3    H243126   6.732   3.627   0.841
14395TIP3   OH243127   4.939   3.647   6.738
14395TIP3    H143128   4.877   3.716   6.715
14395TIP3    H243129   4.920   3.576   6.677
14396TIP3   OH243130   7.217   0.553   6.699
14396TIP3    H143131   7.270   0.629   6.674
14396TIP3    H243132   7.159   0.539   6.624
14397TIP3   OH243133   4.528   7.377   0.498
14397TIP3    H143134   4.504   7.343   0.412
14397TIP3    H243135   4.480   7.322   0.561
14398TIP3   OH243136   7.062   2.521   6.494
14398TIP3    H143137   7.117   2.560   6.562
14398TIP3    H243138   7.089   2.565   6.413
14399TIP3   OH243139   0.879   7.226   0.560
14399TIP3    H143140   0.962   7.261   0.593
14399TIP3    H243141   0.905   7.159   0.497
14400TIP3   OH243142   6.771   5.554   1.998
14400TIP3    H143143   6.817   5.507   2.068
14400TIP3    H243144   6.801   5.511   1.918
14401TIP3   OH243145   5.089   6.798   6.110
14401TIP3    H143146   5.047   6.742   6.175
14401TIP3    H243147   5.017   6.836   6.060
14402TIP3   OH243148   6.511   3.696   0.465
14402TIP3    H143149   6.522   3.701   0.370
14402TIP3    H243150   6.533   3.784   0.496
14403TIP3   OH243151   0.106   4.144   5.863
14403TIP3    H143152   0.172   4.199   5.906
14403TIP3    H243153   0.145   4.056   5.864
14404TIP3   OH243154   2.103   6.185   1.007
14404TIP3    H143155   2.143   6.110   0.964
14404TIP3    H243156   2.094   6.158   1.098
14405TIP3   OH243157   4.668   1.440   3.491
14405TIP3    H143158   4.646   1.347   3.486
14405TIP3    H243159   4.736   1.452   3.425
14406TIP3   OH243160   7.042   7.537   4.706
14406TIP3    H143161   6.985   7.486   4.763
14406TIP3    H243162   7.086   7.598   4.766
14407TIP3   OH243163   2.805   5.530   5.059
14407TIP3    H143164   2.817   5.613   5.104
14407TIP3    H243165   2.849   5.542   4.974
14408TIP3   OH243166   5.378   7.478   2.294
14408TIP3    H143167   5.460   7.431   2.277
14408TIP3    H243168   5.325   7.462   2.216
14409TIP3   OH243169   6.338   5.869   1.242
14409TIP3    H143170   6.331   5.910   1.328
14409TIP3    H243171   6.420   5.819   1.245
14410TIP3   OH243172   1.248   1.099   5.659
14410TIP3    H143173   1.198   1.160   5.712
14410TIP3    H243174   1.216   1.110   5.570
14411TIP3   OH243175   7.942   0.341   3.622
14411TIP3    H143176   7.974   0.271   3.678
14411TIP3    H243177   8.005   0.347   3.550
14412TIP3   OH243178   7.689   5.467   3.759
14412TIP3    H143179   7.753   5.537   3.764
14412TIP3    H243180   7.676   5.453   3.665
14413TIP3   OH243181   0.962   1.448   6.388
14413TIP3    H143182   0.905   1.525   6.394
14413TIP3    H243183   0.982   1.426   6.479
14414TIP3   OH243184   7.543   2.268   2.606
14414TIP3    H143185   7.492   2.307   2.535
14414TIP3    H243186   7.478   2.247   2.674
14415TIP3   OH243187   1.343   3.918   5.735
14415TIP3    H143188   1.310   3.929   5.824
14415TIP3    H243189   1.386   3.832   5.736
14416TIP3   OH243190   0.044   6.054   3.470
14416TIP3    H143191   0.043   6.139   3.426
14416TIP3    H243192   0.108   6.065   3.540
14417TIP3   OH243193   2.784   2.493   5.116
14417TIP3    H143194   2.742   2.444   5.187
14417TIP3    H243195   2.803   2.427   5.049
14418TIP3   OH243196   4.767   2.104   4.044
14418TIP3    H143197   4.755   2.164   3.970
14418TIP3    H243198   4.677   2.084   4.072
14419TIP3   OH243199   2.885   2.616   3.964
14419TIP3    H143200   2.834   2.585   3.889
14419TIP3    H243201   2.937   2.540   3.991
14420TIP3   OH243202   1.191   4.115   3.847
14420TIP3    H143203   1.275   4.104   3.802
14420TIP3    H243204   1.181   4.035   3.898
14421TIP3   OH243205   3.039   5.318   0.402
14421TIP3    H143206   3.085   5.402   0.414
14421TIP3    H243207   3.059   5.292   0.312
14422TIP3   OH243208   7.068   6.712   1.639
14422TIP3    H143209   6.988   6.744   1.597
14422TIP3    H243210   7.137   6.770   1.608
14423TIP3   OH243211   7.851   6.464   3.718
14423TIP3    H143212   7.944   6.451   3.704
14423TIP3    H243213   7.809   6.416   3.647
14424TIP3   OH243214   6.398   3.632   3.151
14424TIP3    H143215   6.375   3.689   3.225
14424TIP3    H243216   6.372   3.682   3.074
14425TIP3   OH243217   6.725   5.175   3.592
14425TIP3    H143218   6.751   5.110   3.658
14425TIP3    H243219   6.767   5.146   3.511
14426TIP3   OH243220   5.561   2.349   4.837
14426TIP3    H143221   5.546   2.443   4.830
14426TIP3    H243222   5.639   2.341   4.892
14427TIP3   OH243223   7.871   6.149   4.619
14427TIP3    H143224   7.833   6.236   4.635
14427TIP3    H243225   7.965   6.165   4.612
14428TIP3   OH243226   4.664   1.267   4.950
14428TIP3    H143227   4.640   1.332   4.884
14428TIP3    H243228   4.731   1.214   4.907
14429TIP3   OH243229   6.093   5.823   6.491
14429TIP3    H143230   6.149   5.768   6.435
14429TIP3    H243231   6.103   5.911   6.455
14430TIP3   OH243232   7.021   5.724   6.020
14430TIP3    H143233   7.013   5.730   5.925
14430TIP3    H243234   7.003   5.812   6.052
14431TIP3   OH243235   7.726   0.357   4.273
14431TIP3    H143236   7.775   0.277   4.289
14431TIP3    H243237   7.710   0.394   4.359
14432TIP3   OH243238   2.154   2.632   3.494
14432TIP3    H143239   2.212   2.557   3.482
14432TIP3    H243240   2.213   2.704   3.518
14433TIP3   OH243241   7.470   3.577   0.182
14433TIP3    H143242   7.387   3.554   0.223
14433TIP3    H243243   7.458   3.668   0.154
14434TIP3   OH243244   2.790   1.423   0.642
14434TIP3    H143245   2.737   1.356   0.684
14434TIP3    H243246   2.727   1.476   0.592
14435TIP3   OH243247   6.542   2.723   2.026
14435TIP3    H143248   6.467   2.782   2.015
14435TIP3    H243249   6.556   2.719   2.120
14436TIP3   OH243250   1.221   1.835   3.108
14436TIP3    H143251   1.192   1.870   3.024
14436TIP3    H243252   1.311   1.867   3.118
14437TIP3   OH243253   7.326   1.226   2.262
14437TIP3    H143254   7.357   1.160   2.325
14437TIP3    H243255   7.244   1.258   2.299
14438TIP3   OH243256   5.097   1.291   5.011
14438TIP3    H143257   5.068   1.373   4.972
14438TIP3    H243258   5.040   1.278   5.087
14439TIP3   OH243259   2.272   0.506   3.863
14439TIP3    H143260   2.328   0.578   3.891
14439TIP3    H243261   2.217   0.543   3.794
14440TIP3   OH243262   4.945   0.222   5.835
14440TIP3    H143263   5.021   0.165   5.849
14440TIP3    H243264   4.906   0.190   5.754
14441TIP3   OH243265   5.160   5.484   4.558
14441TIP3    H143266   5.071   5.511   4.533
14441TIP3    H243267   5.213   5.499   4.480
14442TIP3   OH243268   7.350   1.842   5.631
14442TIP3    H143269   7.442   1.837   5.656
14442TIP3    H243270   7.352   1.874   5.541
14443TIP3   OH243271   5.232   4.149   5.968
14443TIP3    H143272   5.310   4.118   6.015
14443TIP3    H243273   5.168   4.166   6.038
14444TIP3   OH243274   0.159   7.112   6.078
14444TIP3    H143275   0.177   7.102   6.171
14444TIP3    H243276   0.149   7.206   6.065
14445TIP3   OH243277   1.033   1.237   0.849
14445TIP3    H143278   1.074   1.319   0.876
14445TIP3    H243279   0.974   1.215   0.921
14446TIP3   OH243280   2.726   2.742   4.867
14446TIP3    H143281   2.667   2.779   4.932
14446TIP3    H243282   2.687   2.658   4.844
14447TIP3   OH243283   2.667   7.703   5.812
14447TIP3    H143284   2.681   7.797   5.823
14447TIP3    H243285   2.711   7.663   5.887
14448TIP3   OH243286   4.744   2.445   4.717
14448TIP3    H143287   4.744   2.538   4.739
14448TIP3    H243288   4.660   2.412   4.748
14449TIP3   OH243289   4.646   7.674   1.086
14449TIP3    H143290   4.633   7.583   1.057
14449TIP3    H243291   4.739   7.690   1.071
14450TIP3   OH243292   7.991   2.264   1.312
14450TIP3    H143293   8.003   2.319   1.389
14450TIP3    H243294   7.981   2.325   1.239
14451TIP3   OH243295   0.591   5.767   2.187
14451TIP3    H143296   0.523   5.824   2.152
14451TIP3    H243297   0.551   5.680   2.188
14452TIP3   OH243298   4.950   0.193   4.367
14452TIP3    H143299   4.865   0.177   4.408
14452TIP3    H243300   5.006   0.223   4.438
14453TIP3   OH243301   7.738   1.369   0.600
14453TIP3    H143302   7.657   1.350   0.647
14453TIP3    H243303   7.803   1.383   0.669
14454TIP3   OH243304   2.947   2.710   5.203
14454TIP3    H143305   2.886   2.643   5.171
14454TIP3    H243306   2.967   2.763   5.126
14455TIP3   OH243307   0.255   0.141   6.100
14455TIP3    H143308   0.256   0.233   6.071
14455TIP3    H243309   0.173   0.106   6.066
14456TIP3   OH243310   5.613   7.712   1.334
14456TIP3    H143311   5.632   7.799   1.370
14456TIP3    H243312   5.670   7.706   1.257
14457TIP3   OH243313   2.943   0.461   0.064
14457TIP3    H143314   2.911   0.441  -0.024
14457TIP3    H243315   3.036   0.481   0.052
14458TIP3   OH243316   5.924   3.064   6.746
14458TIP3    H143317   5.918   2.974   6.780
14458TIP3    H243318   5.879   3.061   6.662
14459TIP3   OH243319   5.775   0.562   3.769
14459TIP3    H143320   5.835   0.504   3.816
14459TIP3    H243321   5.807   0.650   3.787
14460TIP3   OH243322   2.812   5.523   6.601
14460TIP3    H143323   2.759   5.585   6.652
14460TIP3    H243324   2.899   5.529   6.641
14461TIP3   OH243325   2.297   5.049   1.731
14461TIP3    H143326   2.326   5.015   1.815
14461TIP3    H243327   2.201   5.044   1.735
14462TIP3   OH243328   7.794   5.113   1.434
14462TIP3    H143329   7.850   5.039   1.407
14462TIP3    H243330   7.705   5.076   1.434
14463TIP3   OH243331   3.066   4.740   0.730
14463TIP3    H143332   2.971   4.725   0.725
14463TIP3    H243333   3.104   4.661   0.692
14464TIP3   OH243334   3.061   5.800   1.828
14464TIP3    H143335   3.156   5.788   1.834
14464TIP3    H243336   3.028   5.714   1.801
14465TIP3   OH243337   5.150   3.542   3.387
14465TIP3    H143338   5.085   3.594   3.435
14465TIP3    H243339   5.222   3.604   3.370
14466TIP3   OH243340   5.154   6.299   3.304
14466TIP3    H143341   5.085   6.285   3.369
14466TIP3    H243342   5.140   6.389   3.273
14467TIP3   OH243343   1.636   4.164   5.491
14467TIP3    H143344   1.619   4.072   5.511
14467TIP3    H243345   1.730   4.175   5.503
14468TIP3   OH243346   2.360   3.714   3.258
14468TIP3    H143347   2.389   3.782   3.198
14468TIP3    H243348   2.297   3.662   3.206
14469TIP3   OH243349   5.552   7.049   2.275
14469TIP3    H143350   5.636   7.087   2.300
14469TIP3    H243351   5.575   6.968   2.229
14470TIP3   OH243352   5.425   6.201   2.310
14470TIP3    H143353   5.379   6.136   2.256
14470TIP3    H243354   5.517   6.177   2.303
14471TIP3   OH243355   5.187   1.366   3.458
14471TIP3    H143356   5.134   1.287   3.446
14471TIP3    H243357   5.243   1.347   3.533
14472TIP3   OH243358   4.784   5.840   2.472
14472TIP3    H143359   4.808   5.814   2.561
14472TIP3    H243360   4.753   5.759   2.431
14473TIP3   OH243361   2.186   2.158   2.676
14473TIP3    H143362   2.147   2.074   2.651
14473TIP3    H243363   2.114   2.207   2.715
14474TIP3   OH243364   8.190   1.405   0.406
14474TIP3    H143365   8.104   1.363   0.401
14474TIP3    H243366   8.186   1.459   0.485
14475TIP3   OH243367   5.004   2.627   3.517
14475TIP3    H143368   4.949   2.696   3.553
14475TIP3    H243369   5.093   2.649   3.545
14476TIP3   OH243370   0.938   0.697   0.358
14476TIP3    H143371   0.992   0.744   0.422
14476TIP3    H243372   0.892   0.631   0.409
14477TIP3   OH243373   6.790   3.962   5.227
14477TIP3    H143374   6.780   4.012   5.308
14477TIP3    H243375   6.877   3.986   5.195
14478TIP3   OH243376   5.159   0.459   6.308
14478TIP3    H143377   5.243   0.429   6.342
14478TIP3    H243378   5.175   0.471   6.214
14479TIP3   OH243379   3.228   0.939   2.792
14479TIP3    H143380   3.237   0.939   2.697
14479TIP3    H243381   3.168   1.011   2.811
14480TIP3   OH243382   8.213   4.863   2.316
14480TIP3    H143383   8.152   4.832   2.249
14480TIP3    H243384   8.285   4.800   2.313
14481TIP3   OH243385   3.442   5.562   4.929
14481TIP3    H143386   3.465   5.648   4.893
14481TIP3    H243387   3.523   5.512   4.926
14482TIP3   OH243388   6.120   4.843   6.410
14482TIP3    H143389   6.191   4.806   6.358
14482TIP3    H243390   6.117   4.936   6.385
14483TIP3   OH243391   1.938   2.212   1.537
14483TIP3    H143392   1.985   2.277   1.485
14483TIP3    H243393   1.966   2.229   1.627
14484TIP3   OH243394   1.090   6.139   1.433
14484TIP3    H143395   1.101   6.145   1.528
14484TIP3    H243396   1.012   6.084   1.422
14485TIP3   OH243397   0.233   2.675   4.346
14485TIP3    H143398   0.268   2.609   4.286
14485TIP3    H243399   0.243   2.758   4.299
14486TIP3   OH243400   6.080   4.118   6.296
14486TIP3    H143401   6.142   4.099   6.366
14486TIP3    H243402   6.085   4.213   6.284
14487TIP3   OH243403   6.748   2.041   0.143
14487TIP3    H143404   6.840   2.015   0.136
14487TIP3    H243405   6.751   2.129   0.181
14488TIP3   OH243406   1.847   3.720   6.087
14488TIP3    H143407   1.819   3.636   6.050
14488TIP3    H243408   1.905   3.758   6.021
14489TIP3   OH243409   7.840   4.788   6.494
14489TIP3    H143410   7.774   4.809   6.428
14489TIP3    H243411   7.904   4.860   6.489
14490TIP3   OH243412   8.019   7.666   3.329
14490TIP3    H143413   7.941   7.612   3.317
14490TIP3    H243414   7.988   7.745   3.372
14491TIP3   OH243415   1.625   7.718   5.416
14491TIP3    H143416   1.681   7.783   5.459
14491TIP3    H243417   1.537   7.756   5.419
14492TIP3   OH243418   3.094   0.051   2.628
14492TIP3    H143419   3.179   0.063   2.586
14492TIP3    H243420   3.114   0.037   2.720
14493TIP3   OH243421   7.973   2.220   3.517
14493TIP3    H143422   7.975   2.258   3.429
14493TIP3    H243423   8.063   2.229   3.549
14494TIP3   OH243424   6.157   2.500   5.211
14494TIP3    H143425   6.159   2.417   5.259
14494TIP3    H243426   6.227   2.552   5.251
14495TIP3   OH243427   1.695   0.713   1.547
14495TIP3    H143428   1.680   0.619   1.546
14495TIP3    H243429   1.749   0.728   1.625
14496TIP3   OH243430   4.151   1.346   4.007
14496TIP3    H143431   4.072   1.303   3.975
14496TIP3    H243432   4.150   1.330   4.102
14497TIP3   OH243433   7.580   4.457   5.353
14497TIP3    H143434   7.605   4.366   5.338
14497TIP3    H243435   7.519   4.454   5.427
14498TIP3   OH243436   3.565   6.231   6.753
14498TIP3    H143437   3.477   6.194   6.763
14498TIP3    H243438   3.557   6.293   6.680
14499TIP3   OH243439   0.113   1.082   4.607
14499TIP3    H143440   0.061   1.156   4.642
14499TIP3    H243441   0.055   1.040   4.544
14500TIP3   OH243442   5.174   1.138   5.682
14500TIP3    H143443   5.130   1.066   5.726
14500TIP3    H243444   5.263   1.106   5.666
14501TIP3   OH243445   3.706   3.341   3.449
14501TIP3    H143446   3.628   3.328   3.395
14501TIP3    H243447   3.729   3.253   3.478
14502TIP3   OH243448   2.622   5.294   6.117
14502TIP3    H143449   2.596   5.382   6.146
14502TIP3    H243450   2.628   5.302   6.021
14503TIP3   OH243451   4.726   7.650   1.667
14503TIP3    H143452   4.713   7.726   1.611
14503TIP3    H243453   4.640   7.609   1.673
14504TIP3   OH243454   5.448   3.259   2.393
14504TIP3    H143455   5.436   3.317   2.468
14504TIP3    H243456   5.360   3.224   2.376
14505TIP3   OH243457   5.427   1.030   5.602
14505TIP3    H143458   5.458   0.965   5.539
14505TIP3    H243459   5.480   1.107   5.584
14506TIP3   OH243460   3.003   4.500   5.533
14506TIP3    H143461   3.090   4.537   5.544
14506TIP3    H243462   3.010   4.412   5.570
14507TIP3   OH243463   4.218   4.305   6.269
14507TIP3    H143464   4.125   4.328   6.266
14507TIP3    H243465   4.219   4.215   6.303
14508TIP3   OH243466   4.559   1.106   2.699
14508TIP3    H143467   4.499   1.146   2.636
14508TIP3    H243468   4.510   1.033   2.736
14509TIP3   OH243469   6.263   4.545   3.024
14509TIP3    H143470   6.247   4.477   3.089
14509TIP3    H243471   6.356   4.538   3.003
14510TIP3   OH243472   6.309   2.244   3.036
14510TIP3    H143473   6.278   2.333   3.022
14510TIP3    H243474   6.258   2.191   2.974
14511TIP3   OH243475   7.143   1.731   3.788
14511TIP3    H143476   7.217   1.671   3.786
14511TIP3    H243477   7.170   1.805   3.734
14512TIP3   OH243478   2.377   5.811   3.512
14512TIP3    H143479   2.374   5.898   3.552
14512TIP3    H243480   2.469   5.800   3.488
14513TIP3   OH243481   3.143   0.096   3.012
14513TIP3    H143482   3.122   0.187   3.032
14513TIP3    H243483   3.060   0.049   3.024
14514TIP3   OH243484   1.117   1.122   1.691
14514TIP3    H143485   1.113   1.208   1.732
14514TIP3    H243486   1.094   1.138   1.599
14515TIP3   OH243487   3.929   3.800   5.776
14515TIP3    H143488   3.834   3.789   5.780
14515TIP3    H243489   3.958   3.790   5.866
14516TIP3   OH243490   3.226   6.454   4.738
14516TIP3    H143491   3.177   6.473   4.657
14516TIP3    H243492   3.162   6.469   4.808
14517TIP3   OH243493   2.101   4.675   2.200
14517TIP3    H143494   2.083   4.678   2.106
14517TIP3    H243495   2.047   4.744   2.237
14518TIP3   OH243496   2.732   6.653   2.740
14518TIP3    H143497   2.683   6.729   2.771
14518TIP3    H243498   2.758   6.677   2.651
14519TIP3   OH243499   8.089   7.247   0.716
14519TIP3    H143500   8.065   7.256   0.624
14519TIP3    H243501   8.014   7.283   0.764
14520TIP3   OH243502   4.447   2.659   2.729
14520TIP3    H143503   4.521   2.647   2.789
14520TIP3    H243504   4.487   2.665   2.642
14521TIP3   OH243505   5.297   1.961   1.705
14521TIP3    H143506   5.276   2.026   1.638
14521TIP3    H243507   5.275   1.877   1.666
14522TIP3   OH243508   7.466   2.631   0.871
14522TIP3    H143509   7.494   2.614   0.961
14522TIP3    H243510   7.425   2.717   0.875
14523TIP3   OH243511   7.292   3.806   0.337
14523TIP3    H143512   7.254   3.719   0.325
14523TIP3    H243513   7.220   3.866   0.320
14524TIP3   OH243514   6.644   2.764   0.632
14524TIP3    H143515   6.603   2.683   0.664
14524TIP3    H243516   6.681   2.805   0.710
14525TIP3   OH243517   6.570   6.799   6.748
14525TIP3    H143518   6.543   6.858   6.678
14525TIP3    H243519   6.629   6.851   6.802
14526TIP3   OH243520   1.479   7.370   3.972
14526TIP3    H143521   1.506   7.457   3.942
14526TIP3    H243522   1.554   7.338   4.022
14527TIP3   OH243523   0.456   0.462   3.614
14527TIP3    H143524   0.542   0.488   3.581
14527TIP3    H243525   0.399   0.537   3.597
14528TIP3   OH243526   2.394   4.533   5.089
14528TIP3    H143527   2.313   4.500   5.130
14528TIP3    H243528   2.464   4.483   5.132
14529TIP3   OH243529   5.309   1.494   6.129
14529TIP3    H143530   5.356   1.575   6.111
14529TIP3    H243531   5.353   1.427   6.076
14530TIP3   OH243532   1.464   0.787   4.180
14530TIP3    H143533   1.534   0.761   4.240
14530TIP3    H243534   1.491   0.753   4.095
14531TIP3   OH243535   0.793   0.175   1.241
14531TIP3    H143536   0.768   0.218   1.159
14531TIP3    H243537   0.820   0.247   1.298
14532TIP3   OH243538   4.701   6.323   4.619
14532TIP3    H143539   4.636   6.341   4.551
14532TIP3    H243540   4.770   6.388   4.602
14533TIP3   OH243541   6.256   5.683   4.974
14533TIP3    H143542   6.193   5.733   5.027
14533TIP3    H243543   6.243   5.715   4.885
14534TIP3   OH243544   7.345   7.649   5.046
14534TIP3    H143545   7.414   7.636   4.982
14534TIP3    H243546   7.296   7.566   5.045
14535TIP3   OH243547   7.059   5.875   4.451
14535TIP3    H143548   7.028   5.946   4.508
14535TIP3    H243549   7.124   5.917   4.394
14536TIP3   OH243550   4.206   7.382   3.680
14536TIP3    H143551   4.113   7.401   3.691
14536TIP3    H243552   4.214   7.290   3.707
14537TIP3   OH243553   7.635   6.335   1.898
14537TIP3    H143554   7.648   6.429   1.914
14537TIP3    H243555   7.553   6.314   1.943
14538TIP3   OH243556   1.568   4.209   5.965
14538TIP3    H143557   1.526   4.216   5.879
14538TIP3    H243558   1.587   4.116   5.974
14539TIP3   OH243559   1.854   4.196   3.049
14539TIP3    H143560   1.939   4.214   3.010
14539TIP3    H243561   1.866   4.115   3.099
14540TIP3   OH243562   4.577   7.137   6.462
14540TIP3    H143563   4.632   7.208   6.430
14540TIP3    H243564   4.514   7.121   6.392
14541TIP3   OH243565   0.108   1.426   3.286
14541TIP3    H143566   0.022   1.435   3.327
14541TIP3    H243567   0.144   1.345   3.323
14542TIP3   OH243568   0.542   1.821   0.913
14542TIP3    H143569   0.480   1.809   0.984
14542TIP3    H243570   0.626   1.839   0.957
14543TIP3   OH243571   7.735   0.513   4.499
14543TIP3    H143572   7.667   0.530   4.564
14543TIP3    H243573   7.788   0.593   4.499
14544TIP3   OH243574   3.891   7.058   0.300
14544TIP3    H143575   3.974   7.052   0.348
14544TIP3    H243576   3.910   7.117   0.227
14545TIP3   OH243577   6.873   7.447   1.796
14545TIP3    H143578   6.873   7.542   1.804
14545TIP3    H243579   6.818   7.416   1.868
14546TIP3   OH243580   7.887   0.129   4.317
14546TIP3    H143581   7.851   0.053   4.271
14546TIP3    H243582   7.873   0.109   4.410
14547TIP3   OH243583   7.507   0.509   4.027
14547TIP3    H143584   7.475   0.599   4.036
14547TIP3    H243585   7.466   0.462   4.100
14548TIP3   OH243586   7.275   7.408   3.837
14548TIP3    H143587   7.271   7.398   3.742
14548TIP3    H243588   7.248   7.322   3.871
14549TIP3   OH243589   6.835   5.664   1.088
14549TIP3    H143590   6.898   5.679   1.017
14549TIP3    H243591   6.848   5.736   1.148
14550TIP3   OH243592   0.179   2.213   4.221
14550TIP3    H143593   0.206   2.125   4.248
14550TIP3    H243594   0.088   2.203   4.195
14551TIP3   OH243595   5.875   2.289   0.035
14551TIP3    H143596   5.836   2.303   0.121
14551TIP3    H243597   5.806   2.249  -0.017
14552TIP3   OH243598   0.462   2.066   6.148
14552TIP3    H143599   0.426   1.992   6.099
14552TIP3    H243600   0.474   2.134   6.082
14553TIP3   OH243601   3.744   2.272   6.205
14553TIP3    H143602   3.689   2.349   6.192
14553TIP3    H243603   3.793   2.290   6.285
14554TIP3   OH243604   5.026   3.311   6.124
14554TIP3    H143605   5.006   3.395   6.165
14554TIP3    H243606   4.948   3.291   6.072
14555TIP3   OH243607   3.729   7.608   3.628
14555TIP3    H143608   3.725   7.569   3.715
14555TIP3    H243609   3.797   7.675   3.636
14556TIP3   OH243610   1.374   0.920   0.913
14556TIP3    H143611   1.325   0.998   0.936
14556TIP3    H243612   1.335   0.890   0.831
14557TIP3   OH243613   5.434   5.543   4.006
14557TIP3    H143614   5.498   5.473   3.995
14557TIP3    H243615   5.351   5.497   4.018
14558TIP3   OH243616   2.438   5.551   3.184
14558TIP3    H143617   2.372   5.620   3.192
14558TIP3    H243618   2.429   5.519   3.094
14559TIP3   OH243619   5.134   6.343   0.749
14559TIP3    H143620   5.051   6.294   0.753
14559TIP3    H243621   5.108   6.435   0.754
14560TIP3   OH243622   4.360   3.845   2.607
14560TIP3    H143623   4.308   3.779   2.561
14560TIP3    H243624   4.432   3.865   2.547
14561TIP3   OH243625   7.658   1.120   5.037
14561TIP3    H143626   7.569   1.109   5.004
14561TIP3    H243627   7.650   1.115   5.132
14562TIP3   OH243628   8.074   3.414   1.656
14562TIP3    H143629   8.005   3.448   1.714
14562TIP3    H243630   8.030   3.401   1.572
14563TIP3   OH243631   3.694   3.044   1.439
14563TIP3    H143632   3.661   3.124   1.480
14563TIP3    H243633   3.677   3.056   1.345
14564TIP3   OH243634   6.618   5.227   4.998
14564TIP3    H143635   6.560   5.293   4.961
14564TIP3    H243636   6.705   5.267   4.993
14565TIP3   OH243637   4.278   1.065   1.714
14565TIP3    H143638   4.305   1.157   1.717
14565TIP3    H243639   4.349   1.018   1.758
14566TIP3   OH243640   8.007   5.616   4.301
14566TIP3    H143641   8.094   5.655   4.310
14566TIP3    H243642   7.947   5.691   4.299
14567TIP3   OH243643   4.651   7.739   0.249
14567TIP3    H143644   4.630   7.683   0.323
14567TIP3    H243645   4.648   7.828   0.284
14568TIP3   OH243646   4.635   3.208   2.227
14568TIP3    H143647   4.626   3.127   2.176
14568TIP3    H243648   4.551   3.253   2.215
14569TIP3   OH243649   8.165   4.776   2.658
14569TIP3    H143650   8.205   4.709   2.713
14569TIP3    H243651   8.120   4.727   2.589
14570TIP3   OH243652   1.455   7.808   3.261
14570TIP3    H143653   1.363   7.807   3.233
14570TIP3    H243654   1.504   7.779   3.185
14571TIP3   OH243655   4.582   1.658   1.714
14571TIP3    H143656   4.540   1.597   1.775
14571TIP3    H243657   4.510   1.686   1.657
14572TIP3   OH243658   5.264   6.927   3.592
14572TIP3    H143659   5.274   6.919   3.497
14572TIP3    H243660   5.205   6.856   3.616
14573TIP3   OH243661   6.224   4.146   2.240
14573TIP3    H143662   6.221   4.238   2.213
14573TIP3    H243663   6.132   4.117   2.236
14574TIP3   OH243664   0.367   7.483   3.913
14574TIP3    H143665   0.377   7.495   3.819
14574TIP3    H243666   0.334   7.567   3.945
14575TIP3   OH243667   7.801   7.622   5.958
14575TIP3    H143668   7.819   7.706   5.916
14575TIP3    H243669   7.801   7.559   5.887
14576TIP3   OH243670   2.941   6.373   5.256
14576TIP3    H143671   2.926   6.321   5.335
14576TIP3    H243672   2.880   6.446   5.265
14577TIP3   OH243673   7.371   3.734   5.257
14577TIP3    H143674   7.300   3.760   5.199
14577TIP3    H243675   7.339   3.755   5.345
14578TIP3   OH243676   3.380   3.055   3.347
14578TIP3    H143677   3.417   3.039   3.433
14578TIP3    H243678   3.289   3.079   3.364
14579TIP3   OH243679   7.028   4.969   0.528
14579TIP3    H143680   7.081   4.890   0.517
14579TIP3    H243681   6.956   4.958   0.465
14580TIP3   OH243682   5.001   7.561   2.589
14580TIP3    H143683   4.919   7.584   2.544
14580TIP3    H243684   4.982   7.477   2.631
14581TIP3   OH243685   6.305   4.036   3.166
14581TIP3    H143686   6.385   4.074   3.201
14581TIP3    H243687   6.282   3.966   3.228
14582TIP3   OH243688   2.848   7.138   1.593
14582TIP3    H143689   2.843   7.058   1.541
14582TIP3    H243690   2.836   7.208   1.529
14583TIP3   OH243691   1.974   3.416   0.320
14583TIP3    H143692   1.986   3.429   0.226
14583TIP3    H243693   1.951   3.503   0.354
14584TIP3   OH243694   3.487   1.788   5.935
14584TIP3    H143695   3.494   1.873   5.978
14584TIP3    H243696   3.576   1.753   5.934
14585TIP3   OH243697   1.237   0.610   0.428
14585TIP3    H143698   1.226   0.515   0.416
14585TIP3    H243699   1.215   0.625   0.520
14586TIP3   OH243700   5.132   6.737   1.662
14586TIP3    H143701   5.112   6.644   1.675
14586TIP3    H243702   5.218   6.748   1.702
14587TIP3   OH243703   6.351   2.834   3.665
14587TIP3    H143704   6.441   2.807   3.681
14587TIP3    H243705   6.307   2.822   3.749
14588TIP3   OH243706   6.431   4.503   4.853
14588TIP3    H143707   6.400   4.417   4.825
14588TIP3    H243708   6.417   4.504   4.948
14589TIP3   OH243709   6.301   2.002   5.632
14589TIP3    H143710   6.256   1.919   5.616
14589TIP3    H243711   6.393   1.978   5.640
14590TIP3   OH243712   4.764   1.650   0.026
14590TIP3    H143713   4.740   1.654  -0.067
14590TIP3    H243714   4.788   1.559   0.041
14591TIP3   OH243715   8.126   2.627   3.091
14591TIP3    H143716   8.161   2.707   3.129
14591TIP3    H243717   8.031   2.635   3.103
14592TIP3   OH243718   6.164   0.141   2.324
14592TIP3    H143719   6.137   0.187   2.403
14592TIP3    H243720   6.086   0.141   2.268
14593TIP3   OH243721   1.188   1.662   0.820
14593TIP3    H143722   1.158   1.591   0.877
14593TIP3    H243723   1.234   1.618   0.749
14594TIP3   OH243724   4.926   7.565   2.120
14594TIP3    H143725   4.859   7.596   2.059
14594TIP3    H243726   4.879   7.558   2.204
14595TIP3   OH243727   2.666   2.015   2.352
14595TIP3    H143728   2.737   2.053   2.405
14595TIP3    H243729   2.618   1.960   2.413
14596TIP3   OH243730   5.684   4.904   4.493
14596TIP3    H143731   5.747   4.879   4.426
14596TIP3    H243732   5.607   4.850   4.474
14597TIP3   OH243733   6.516   7.091   3.443
14597TIP3    H143734   6.510   7.147   3.366
14597TIP3    H243735   6.532   7.003   3.407
14598TIP3   OH243736   6.008   2.711   2.331
14598TIP3    H143737   6.075   2.773   2.357
14598TIP3    H243738   6.054   2.645   2.279
14599TIP3   OH243739   4.898   7.759   6.643
14599TIP3    H143740   4.962   7.748   6.572
14599TIP3    H243741   4.832   7.691   6.626
14600TIP3   OH243742   6.383   7.712   5.723
14600TIP3    H143743   6.306   7.655   5.720
14600TIP3    H243744   6.368   7.770   5.797
14601TIP3   OH243745   1.168   6.247   4.096
14601TIP3    H143746   1.174   6.237   4.191
14601TIP3    H243747   1.107   6.178   4.069
14602TIP3   OH243748   5.615   2.348   4.294
14602TIP3    H143749   5.679   2.397   4.347
14602TIP3    H243750   5.658   2.264   4.277
14603TIP3   OH243751   1.815   3.378   1.372
14603TIP3    H143752   1.734   3.358   1.418
14603TIP3    H243753   1.824   3.308   1.307
14604TIP3   OH243754   1.915   3.194   3.228
14604TIP3    H143755   1.972   3.174   3.302
14604TIP3    H243756   1.967   3.170   3.151
14605TIP3   OH243757   0.021   6.344   0.576
14605TIP3    H143758  -0.042   6.407   0.611
14605TIP3    H243759   0.102   6.363   0.623
14606TIP3   OH243760   7.208   5.738   0.365
14606TIP3    H143761   7.150   5.700   0.300
14606TIP3    H243762   7.244   5.663   0.412
14607TIP3   OH243763   0.956   0.254   0.799
14607TIP3    H143764   0.943   0.166   0.835
14607TIP3    H243765   0.907   0.254   0.717
14608TIP3   OH243766   0.730   3.370   3.143
14608TIP3    H143767   0.734   3.460   3.110
14608TIP3    H243768   0.653   3.333   3.101
14609TIP3   OH243769   7.089   7.480   2.047
14609TIP3    H143770   7.120   7.566   2.022
14609TIP3    H243771   7.129   7.420   1.983
14610TIP3   OH243772   0.165   4.088   1.070
14610TIP3    H143773   0.187   4.075   0.978
14610TIP3    H243774   0.223   4.027   1.117
14611TIP3   OH243775   3.823   7.768   0.098
14611TIP3    H143776   3.808   7.824   0.022
14611TIP3    H243777   3.741   7.721   0.110
14612TIP3   OH243778   8.144   5.811   1.120
14612TIP3    H143779   8.149   5.879   1.188
14612TIP3    H243780   8.167   5.856   1.039
14613TIP3   OH243781   1.647   6.655   0.766
14613TIP3    H143782   1.685   6.711   0.699
14613TIP3    H243783   1.693   6.679   0.847
14614TIP3   OH243784   0.367   2.937   0.520
14614TIP3    H143785   0.275   2.938   0.547
14614TIP3    H243786   0.375   3.009   0.458
14615TIP3   OH243787   0.207   3.918   2.147
14615TIP3    H143788   0.180   3.972   2.073
14615TIP3    H243789   0.235   3.836   2.108
14616TIP3   OH243790   7.374   3.320   3.658
14616TIP3    H143791   7.410   3.397   3.702
14616TIP3    H243792   7.382   3.250   3.722
14617TIP3   OH243793   0.806   1.247   3.164
14617TIP3    H143794   0.805   1.279   3.255
14617TIP3    H243795   0.717   1.260   3.133
14618TIP3   OH243796   4.998   6.749   5.506
14618TIP3    H143797   4.904   6.748   5.487
14618TIP3    H243798   5.009   6.678   5.571
14619TIP3   OH243799   0.121   1.978   3.900
14619TIP3    H143800   0.084   2.044   3.959
14619TIP3    H243801   0.210   2.009   3.883
14620TIP3   OH243802   0.441   5.976   1.530
14620TIP3    H143803   0.495   6.047   1.495
14620TIP3    H243804   0.503   5.918   1.574
14621TIP3   OH243805   2.124   1.713   0.805
14621TIP3    H143806   2.126   1.800   0.846
14621TIP3    H243807   2.119   1.731   0.711
14622TIP3   OH243808   7.903   0.154   0.496
14622TIP3    H143809   7.998   0.167   0.498
14622TIP3    H243810   7.872   0.192   0.578
14623TIP3   OH243811   6.230   1.566   2.240
14623TIP3    H143812   6.287   1.625   2.190
14623TIP3    H243813   6.152   1.618   2.258
14624TIP3   OH243814   0.618   3.469   5.371
14624TIP3    H143815   0.615   3.380   5.336
14624TIP3    H243816   0.532   3.482   5.411
14625TIP3   OH243817   5.560   1.849   5.736
14625TIP3    H143818   5.556   1.929   5.685
14625TIP3    H243819   5.585   1.877   5.824
14626TIP3   OH243820   6.654   0.658   2.953
14626TIP3    H143821   6.656   0.576   2.904
14626TIP3    H243822   6.679   0.633   3.042
14627TIP3   OH243823   1.650   1.751   5.704
14627TIP3    H143824   1.631   1.678   5.763
14627TIP3    H243825   1.686   1.819   5.761
14628TIP3   OH243826   5.680   0.533   2.622
14628TIP3    H143827   5.616   0.534   2.550
14628TIP3    H243828   5.712   0.622   2.627
14629TIP3   OH243829   3.108   2.178   0.737
14629TIP3    H143830   3.038   2.169   0.803
14629TIP3    H243831   3.184   2.206   0.788
14630TIP3   OH243832   3.275   4.604   4.738
14630TIP3    H143833   3.329   4.554   4.799
14630TIP3    H243834   3.298   4.696   4.755
14631TIP3   OH243835   4.198   5.310   3.184
14631TIP3    H143836   4.237   5.278   3.103
14631TIP3    H243837   4.141   5.381   3.157
14632TIP3   OH243838   3.399   6.276   4.868
14632TIP3    H143839   3.342   6.349   4.845
14632TIP3    H243840   3.381   6.258   4.960
14633TIP3   OH243841   3.248   3.077   0.176
14633TIP3    H143842   3.265   3.083   0.270
14633TIP3    H243843   3.153   3.073   0.168
14634TIP3   OH243844   7.681   6.120   4.075
14634TIP3    H143845   7.593   6.084   4.074
14634TIP3    H243846   7.673   6.206   4.033
14635TIP3   OH243847   2.995   1.118   4.678
14635TIP3    H143848   2.990   1.154   4.767
14635TIP3    H243849   2.922   1.056   4.674
14636TIP3   OH243850   7.675   1.255   3.320
14636TIP3    H143851   7.759   1.215   3.294
14636TIP3    H243852   7.692   1.349   3.322
14637TIP3   OH243853   8.044   4.603   6.570
14637TIP3    H143854   7.974   4.667   6.554
14637TIP3    H243855   8.015   4.555   6.647
14638TIP3   OH243856   4.547   5.085   4.898
14638TIP3    H143857   4.493   5.024   4.847
14638TIP3    H243858   4.512   5.079   4.987
14639TIP3   OH243859   6.246   6.632   0.727
14639TIP3    H143860   6.326   6.635   0.780
14639TIP3    H243861   6.180   6.594   0.786
14640TIP3   OH243862   3.531   1.004   1.758
14640TIP3    H143863   3.593   0.946   1.802
14640TIP3    H243864   3.586   1.063   1.707
14641TIP3   OH243865   5.451   7.765   1.796
14641TIP3    H143866   5.543   7.784   1.810
14641TIP3    H243867   5.446   7.731   1.706
14642TIP3   OH243868   0.192   6.665   0.874
14642TIP3    H143869   0.249   6.639   0.946
14642TIP3    H243870   0.206   6.759   0.866
14643TIP3   OH243871   7.474   3.755   6.068
14643TIP3    H143872   7.497   3.847   6.067
14643TIP3    H243873   7.546   3.712   6.114
14644TIP3   OH243874   6.560   7.153   3.713
14644TIP3    H143875   6.512   7.081   3.672
14644TIP3    H243876   6.626   7.178   3.649
14645TIP3   OH243877   2.203   5.813   1.618
14645TIP3    H143878   2.211   5.719   1.630
14645TIP3    H243879   2.274   5.850   1.672
14646TIP3   OH243880   7.137   1.563   6.219
14646TIP3    H143881   7.181   1.642   6.250
14646TIP3    H243882   7.053   1.562   6.265
14647TIP3   OH243883   4.112   4.470   2.064
14647TIP3    H143884   4.196   4.462   2.110
14647TIP3    H243885   4.082   4.558   2.084
14648TIP3   OH243886   1.789   1.480   0.524
14648TIP3    H143887   1.885   1.471   0.519
14648TIP3    H243888   1.767   1.446   0.611
14649TIP3   OH243889   7.463   1.380   5.390
14649TIP3    H143890   7.531   1.417   5.446
14649TIP3    H243891   7.440   1.450   5.330
14650TIP3   OH243892   1.305   7.740   0.632
14650TIP3    H143893   1.225   7.759   0.583
14650TIP3    H243894   1.275   7.708   0.717
14651TIP3   OH243895   5.835   5.776   1.705
14651TIP3    H143896   5.908   5.743   1.756
14651TIP3    H243897   5.860   5.865   1.682
14652TIP3   OH243898   4.303   4.859   6.159
14652TIP3    H143899   4.309   4.912   6.239
14652TIP3    H243900   4.221   4.811   6.168
14653TIP3   OH243901   3.847   3.662   1.365
14653TIP3    H143902   3.774   3.657   1.427
14653TIP3    H243903   3.836   3.746   1.321
14654TIP3   OH243904   6.618   6.898   3.220
14654TIP3    H143905   6.641   6.970   3.160
14654TIP3    H243906   6.632   6.819   3.169
14655TIP3   OH243907   2.344   2.093   3.500
14655TIP3    H143908   2.407   2.027   3.528
14655TIP3    H243909   2.259   2.051   3.512
14656TIP3   OH243910   5.041   0.438   5.303
14656TIP3    H143911   4.964   0.488   5.329
14656TIP3    H243912   5.090   0.425   5.384
14657TIP3   OH243913   8.096   5.848   5.458
14657TIP3    H143914   8.150   5.926   5.467
14657TIP3    H243915   8.117   5.813   5.371
14658TIP3   OH243916   1.558   0.179   0.606
14658TIP3    H143917   1.488   0.169   0.542
14658TIP3    H243918   1.600   0.093   0.610
14659TIP3   OH243919   5.976   7.796   6.691
14659TIP3    H143920   5.926   7.811   6.611
14659TIP3    H243921   6.065   7.824   6.670
14660TIP3   OH243922   0.094   1.757   2.889
14660TIP3    H143923   0.098   1.741   2.795
14660TIP3    H243924   0.077   1.671   2.928
14661TIP3   OH243925   1.583   0.744   1.943
14661TIP3    H143926   1.535   0.808   1.996
14661TIP3    H243927   1.515   0.685   1.910
14662TIP3   OH243928   4.817   0.248   3.538
14662TIP3    H143929   4.749   0.284   3.594
14662TIP3    H243930   4.770   0.211   3.464
14663TIP3   OH243931   7.667   6.885   2.132
14663TIP3    H143932   7.665   6.796   2.167
14663TIP3    H243933   7.638   6.940   2.205
14664TIP3   OH243934   7.038   3.799   0.626
14664TIP3    H143935   6.975   3.743   0.581
14664TIP3    H243936   7.039   3.880   0.576
14665TIP3   OH243937   6.140   6.159   1.339
14665TIP3    H143938   6.173   6.107   1.412
14665TIP3    H243939   6.216   6.171   1.282
14666TIP3   OH243940   1.815   5.497   5.822
14666TIP3    H143941   1.878   5.563   5.791
14666TIP3    H243942   1.857   5.458   5.899
14667TIP3   OH243943   2.068   5.206   0.311
14667TIP3    H143944   2.019   5.172   0.237
14667TIP3    H243945   2.054   5.301   0.308
14668TIP3   OH243946   3.900   6.473   4.879
14668TIP3    H143947   3.922   6.466   4.972
14668TIP3    H243948   3.980   6.449   4.834
14669TIP3   OH243949   5.331   7.417   5.613
14669TIP3    H143950   5.341   7.461   5.528
14669TIP3    H243951   5.237   7.399   5.619
14670TIP3   OH243952   0.687   6.159   6.646
14670TIP3    H143953   0.660   6.100   6.576
14670TIP3    H243954   0.716   6.238   6.601
14671TIP3   OH243955   5.182   0.766   3.011
14671TIP3    H143956   5.246   0.741   2.945
14671TIP3    H243957   5.147   0.851   2.981
14672TIP3   OH243958   7.461   3.693   3.810
14672TIP3    H143959   7.529   3.688   3.743
14672TIP3    H243960   7.423   3.780   3.799
14673TIP3   OH243961   3.341   1.554   2.253
14673TIP3    H143962   3.414   1.502   2.286
14673TIP3    H243963   3.266   1.495   2.259
14674TIP3   OH243964   7.736   4.207   4.656
14674TIP3    H143965   7.755   4.237   4.745
14674TIP3    H243966   7.810   4.237   4.604
14675TIP3   OH243967   2.918   4.862   5.254
14675TIP3    H143968   2.839   4.916   5.256
14675TIP3    H243969   2.888   4.776   5.284
14676TIP3   OH243970   5.528   3.038   6.579
14676TIP3    H143971   5.609   3.062   6.535
14676TIP3    H243972   5.506   3.113   6.634
14677TIP3   OH243973   6.876   0.075   4.292
14677TIP3    H143974   6.969   0.050   4.295
14677TIP3    H243975   6.850   0.060   4.201
14678TIP3   OH243976   6.598   3.161   5.290
14678TIP3    H143977   6.583   3.067   5.300
14678TIP3    H243978   6.650   3.169   5.210
14679TIP3   OH243979   3.712   2.388   2.686
14679TIP3    H143980   3.685   2.330   2.757
14679TIP3    H243981   3.807   2.378   2.681
14680TIP3   OH243982   5.370   4.004   1.933
14680TIP3    H143983   5.376   3.910   1.947
14680TIP3    H243984   5.407   4.043   2.013
14681TIP3   OH243985   4.932   1.052   1.959
14681TIP3    H143986   4.896   1.132   1.921
14681TIP3    H243987   4.926   0.987   1.889
14682TIP3   OH243988   2.496   1.957   4.205
14682TIP3    H143989   2.582   1.987   4.233
14682TIP3    H243990   2.434   2.016   4.249
14683TIP3   OH243991   3.340   3.687   2.806
14683TIP3    H143992   3.420   3.649   2.842
14683TIP3    H243993   3.270   3.630   2.838
14684TIP3   OH243994   4.877   6.834   5.936
14684TIP3    H143995   4.820   6.832   6.013
14684TIP3    H243996   4.848   6.760   5.883
14685TIP3   OH243997   7.941   6.987   2.086
14685TIP3    H143998   7.930   7.003   2.180
14685TIP3    H243999   7.855   6.957   2.057
14686TIP3   OH244000   2.663   2.422   3.507
14686TIP3    H144001   2.682   2.336   3.544
14686TIP3    H244002   2.748   2.456   3.478
14687TIP3   OH244003   1.844   6.538   6.612
14687TIP3    H144004   1.874   6.584   6.690
14687TIP3    H244005   1.757   6.575   6.595
14688TIP3   OH244006   2.274   0.909   6.681
14688TIP3    H144007   2.364   0.893   6.654
14688TIP3    H244008   2.263   1.004   6.670
14689TIP3   OH244009   1.477   1.988   1.087
14689TIP3    H144010   1.492   1.959   0.998
14689TIP3    H244011   1.422   2.066   1.078
14690TIP3   OH244012   5.300   4.085   4.197
14690TIP3    H144013   5.230   4.021   4.207
14690TIP3    H244014   5.341   4.089   4.283
14691TIP3   OH244015   2.013   5.491   5.087
14691TIP3    H144016   1.921   5.480   5.113
14691TIP3    H244017   2.063   5.459   5.162
14692TIP3   OH244018   5.285   2.060   1.439
14692TIP3    H144019   5.222   2.094   1.375
14692TIP3    H244020   5.310   1.974   1.406
14693TIP3   OH244021   8.065   7.643   4.938
14693TIP3    H144022   8.116   7.701   4.994
14693TIP3    H244023   8.007   7.596   4.998
14694TIP3   OH244024   4.726   1.137   4.596
14694TIP3    H144025   4.774   1.075   4.650
14694TIP3    H244026   4.774   1.139   4.513
14695TIP3   OH244027   4.869   3.561   0.465
14695TIP3    H144028   4.870   3.608   0.381
14695TIP3    H244029   4.818   3.617   0.523
14696TIP3   OH244030   7.547   5.706   0.322
14696TIP3    H144031   7.622   5.765   0.328
14696TIP3    H244032   7.522   5.688   0.413
14697TIP3   OH244033   4.983   3.479   3.713
14697TIP3    H144034   4.998   3.390   3.746
14697TIP3    H244035   4.898   3.474   3.669
14698TIP3   OH244036   6.932   5.300   6.193
14698TIP3    H144037   6.984   5.372   6.226
14698TIP3    H244038   6.848   5.340   6.170
14699TIP3   OH244039   3.639   2.359   0.652
14699TIP3    H144040   3.704   2.422   0.621
14699TIP3    H244041   3.678   2.321   0.730
14700TIP3   OH244042   4.980   4.846   4.552
14700TIP3    H144043   4.909   4.900   4.586
14700TIP3    H244044   4.937   4.768   4.518
14701TIP3   OH244045   1.851   5.306   2.651
14701TIP3    H144046   1.916   5.375   2.641
14701TIP3    H244047   1.883   5.234   2.596
14702TIP3   OH244048   6.655   2.640   4.432
14702TIP3    H144049   6.605   2.667   4.355
14702TIP3    H244050   6.621   2.695   4.503
14703TIP3   OH244051   6.495   1.605   1.664
14703TIP3    H144052   6.580   1.649   1.656
14703TIP3    H244053   6.432   1.677   1.676
14704TIP3   OH244054   5.309   6.935   4.166
14704TIP3    H144055   5.304   6.840   4.161
14704TIP3    H244056   5.251   6.966   4.096
14705TIP3   OH244057   7.617   5.507   1.401
14705TIP3    H144058   7.534   5.504   1.447
14705TIP3    H244059   7.629   5.599   1.378
14706TIP3   OH244060   7.872   1.764   3.708
14706TIP3    H144061   7.803   1.721   3.760
14706TIP3    H244062   7.950   1.710   3.722
14707TIP3   OH244063   3.573   4.667   3.543
14707TIP3    H144064   3.666   4.664   3.566
14707TIP3    H244065   3.568   4.633   3.454
14708TIP3   OH244066   5.861   2.220   6.579
14708TIP3    H144067   5.791   2.192   6.520
14708TIP3    H244068   5.827   2.299   6.621
14709TIP3   OH244069   3.316   6.748   0.370
14709TIP3    H144070   3.312   6.658   0.400
14709TIP3    H244071   3.382   6.790   0.425
14710TIP3   OH244072   3.271   6.159   5.599
14710TIP3    H144073   3.224   6.242   5.603
14710TIP3    H244074   3.216   6.098   5.650
14711TIP3   OH244075   3.475   0.177   0.345
14711TIP3    H144076   3.427   0.096   0.362
14711TIP3    H244077   3.562   0.162   0.381
14712TIP3   OH244078   0.708   4.262   2.544
14712TIP3    H144079   0.683   4.293   2.631
14712TIP3    H244080   0.742   4.173   2.559
14713TIP3   OH244081   6.927   2.039   2.028
14713TIP3    H144082   6.994   2.030   1.961
14713TIP3    H244083   6.881   2.120   2.006
14714TIP3   OH244084   7.257   0.548   0.978
14714TIP3    H144085   7.349   0.523   0.989
14714TIP3    H244086   7.208   0.481   1.024
14715TIP3   OH244087   3.589   5.055   5.845
14715TIP3    H144088   3.634   5.139   5.847
14715TIP3    H244089   3.525   5.060   5.916
14716TIP3   OH244090   4.558   4.645   5.215
14716TIP3    H144091   4.640   4.657   5.263
14716TIP3    H244092   4.510   4.726   5.230
14717TIP3   OH244093   7.545   6.668   3.255
14717TIP3    H144094   7.483   6.681   3.183
14717TIP3    H244095   7.564   6.574   3.254
14718TIP3   OH244096   4.977   5.880   2.135
14718TIP3    H144097   5.016   5.967   2.138
14718TIP3    H244098   5.045   5.823   2.172
14719TIP3   OH244099   2.031   7.073   3.579
14719TIP3    H144100   1.948   7.076   3.626
14719TIP3    H244101   2.012   7.111   3.493
14720TIP3   OH244102   0.449   5.705   4.108
14720TIP3    H144103   0.442   5.610   4.117
14720TIP3    H244104   0.455   5.720   4.014
14721TIP3   OH244105   2.926   4.663   1.672
14721TIP3    H144106   2.982   4.732   1.636
14721TIP3    H244107   2.933   4.674   1.767
14722TIP3   OH244108   0.335   4.654   5.737
14722TIP3    H144109   0.422   4.694   5.741
14722TIP3    H244110   0.353   4.560   5.725
14723TIP3   OH244111   6.131   1.448   3.397
14723TIP3    H144112   6.093   1.364   3.425
14723TIP3    H244113   6.226   1.435   3.406
14724TIP3   OH244114   8.212   5.218   0.622
14724TIP3    H144115   8.241   5.134   0.584
14724TIP3    H244116   8.188   5.196   0.712
14725TIP3   OH244117   1.926   2.377   4.815
14725TIP3    H144118   1.960   2.299   4.857
14725TIP3    H244119   1.866   2.345   4.748
14726TIP3   OH244120   5.838   0.365   1.910
14726TIP3    H144121   5.770   0.362   1.843
14726TIP3    H244122   5.918   0.383   1.862
14727TIP3   OH244123   7.168   6.812   4.682
14727TIP3    H144124   7.186   6.719   4.667
14727TIP3    H244125   7.188   6.854   4.599
14728TIP3   OH244126   4.177   5.151   3.929
14728TIP3    H144127   4.193   5.245   3.935
14728TIP3    H244128   4.200   5.117   4.015
14729TIP3   OH244129   3.598   7.672   5.523
14729TIP3    H144130   3.557   7.728   5.457
14729TIP3    H244131   3.621   7.592   5.476
14730TIP3   OH244132   7.228   2.296   3.829
14730TIP3    H144133   7.202   2.222   3.883
14730TIP3    H244134   7.147   2.329   3.791
14731TIP3   OH244135   4.097   3.787   1.233
14731TIP3    H144136   4.126   3.813   1.146
14731TIP3    H244137   4.058   3.701   1.220
14732TIP3   OH244138   2.857   0.043   0.662
14732TIP3    H144139   2.864  -0.032   0.721
14732TIP3    H244140   2.835   0.116   0.721
14733TIP3   OH244141   4.203   0.404   0.342
14733TIP3    H144142   4.278   0.449   0.383
14733TIP3    H244143   4.126   0.443   0.384
14734TIP3   OH244144   4.292   7.215   3.980
14734TIP3    H144145   4.299   7.164   3.899
14734TIP3    H244146   4.317   7.154   4.049
14735TIP3   OH244147   4.426   3.773   4.797
14735TIP3    H144148   4.501   3.829   4.776
14735TIP3    H244149   4.410   3.723   4.717
14736TIP3   OH244150   1.646   6.482   0.528
14736TIP3    H144151   1.629   6.542   0.601
14736TIP3    H244152   1.606   6.525   0.452
14737TIP3   OH244153   0.559   4.441   3.768
14737TIP3    H144154   0.573   4.420   3.860
14737TIP3    H244155   0.544   4.357   3.726
14738TIP3   OH244156   6.051   6.383   5.559
14738TIP3    H144157   5.983   6.436   5.602
14738TIP3    H244158   6.105   6.351   5.631
14739TIP3   OH244159   7.780   0.144   5.814
14739TIP3    H144160   7.791   0.055   5.781
14739TIP3    H244161   7.768   0.134   5.908
14740TIP3   OH244162   5.198   1.586   2.284
14740TIP3    H144163   5.214   1.620   2.372
14740TIP3    H244164   5.182   1.492   2.297
14741TIP3   OH244165   1.353   1.292   1.267
14741TIP3    H144166   1.416   1.248   1.325
14741TIP3    H244167   1.394   1.376   1.246
14742TIP3   OH244168   6.538   2.418   6.669
14742TIP3    H144169   6.492   2.460   6.742
14742TIP3    H244170   6.619   2.385   6.707
14743TIP3   OH244171   1.070   7.247   1.921
14743TIP3    H144172   1.110   7.218   2.003
14743TIP3    H244173   1.105   7.335   1.907
14744TIP3   OH244174   6.016   5.379   5.382
14744TIP3    H144175   5.990   5.351   5.294
14744TIP3    H244176   5.956   5.333   5.441
14745TIP3   OH244177   2.083   1.090   3.575
14745TIP3    H144178   1.994   1.125   3.583
14745TIP3    H244179   2.111   1.073   3.664
14746TIP3   OH244180   4.280   4.254   3.358
14746TIP3    H144181   4.228   4.185   3.399
14746TIP3    H244182   4.220   4.296   3.297
14747TIP3   OH244183   6.525   4.758   5.829
14747TIP3    H144184   6.535   4.663   5.824
14747TIP3    H244185   6.431   4.771   5.844
14748TIP3   OH244186   1.050   7.091   4.926
14748TIP3    H144187   1.038   7.033   4.851
14748TIP3    H244188   1.041   7.179   4.890
14749TIP3   OH244189   6.313   6.613   4.503
14749TIP3    H144190   6.376   6.625   4.432
14749TIP3    H244191   6.346   6.667   4.575
14750TIP3   OH244192   0.776   6.359   6.413
14750TIP3    H144193   0.772   6.436   6.470
14750TIP3    H244194   0.867   6.331   6.417
14751TIP3   OH244195   0.038   3.700   4.391
14751TIP3    H144196   0.027   3.719   4.298
14751TIP3    H244197  -0.043   3.658   4.417
14752TIP3   OH244198   0.438   6.325   2.278
14752TIP3    H144199   0.400   6.411   2.299
14752TIP3    H244200   0.517   6.320   2.331
14753TIP3   OH244201   3.019   1.302   4.491
14753TIP3    H144202   2.926   1.325   4.481
14753TIP3    H244203   3.019   1.233   4.557
14754TIP3   OH244204   4.508   1.796   3.183
14754TIP3    H144205   4.533   1.827   3.270
14754TIP3    H244206   4.451   1.721   3.200
14755TIP3   OH244207   2.112   5.999   3.024
14755TIP3    H144208   2.143   6.087   3.003
14755TIP3    H244209   2.156   5.943   2.960
14756TIP3   OH244210   4.968   0.707   0.998
14756TIP3    H144211   5.035   0.710   1.067
14756TIP3    H244212   4.947   0.614   0.989
14757TIP3   OH244213   1.646   7.089   4.966
14757TIP3    H144214   1.656   7.040   4.884
14757TIP3    H244215   1.594   7.032   5.022
14758TIP3   OH244216   2.609   2.014   0.297
14758TIP3    H144217   2.609   2.046   0.207
14758TIP3    H244218   2.642   2.088   0.348
14759TIP3   OH244219   6.542   1.081   6.335
14759TIP3    H144220   6.464   1.125   6.301
14759TIP3    H244221   6.532   1.085   6.430
14760TIP3   OH244222   5.884   7.678   2.883
14760TIP3    H144223   5.960   7.640   2.927
14760TIP3    H244224   5.815   7.614   2.893
14761TIP3   OH244225   8.098   1.091   1.348
14761TIP3    H144226   8.020   1.131   1.387
14761TIP3    H244227   8.118   1.017   1.405
14762TIP3   OH244228   0.219   2.527   1.971
14762TIP3    H144229   0.186   2.441   1.943
14762TIP3    H244230   0.296   2.506   2.024
14763TIP3   OH244231   6.250   5.294   0.029
14763TIP3    H144232   6.253   5.256   0.116
14763TIP3    H244233   6.182   5.361   0.035
14764TIP3   OH244234   5.776   2.829   2.230
14764TIP3    H144235   5.805   2.832   2.138
14764TIP3    H244236   5.856   2.812   2.279
14765TIP3   OH244237   6.809   3.785   1.332
14765TIP3    H144238   6.856   3.868   1.337
14765TIP3    H244239   6.779   3.769   1.421
14766TIP3   OH244240   0.935   2.931   2.692
14766TIP3    H144241   0.966   3.021   2.681
14766TIP3    H244242   1.014   2.882   2.715
14767TIP3   OH244243   0.459   4.803   3.395
14767TIP3    H144244   0.523   4.736   3.419
14767TIP3    H244245   0.484   4.828   3.306
14768TIP3   OH244246   0.400   0.566   6.579
14768TIP3    H144247   0.442   0.486   6.610
14768TIP3    H244248   0.453   0.592   6.503
14769TIP3   OH244249   0.069   6.064   5.748
14769TIP3    H144250   0.087   6.050   5.841
14769TIP3    H244251   0.059   5.975   5.713
14770TIP3   OH244252   7.136   2.167   5.901
14770TIP3    H144253   7.043   2.161   5.921
14770TIP3    H244254   7.167   2.077   5.905
14771TIP3   OH244255   6.348   2.929   0.614
14771TIP3    H144256   6.371   3.022   0.619
14771TIP3    H244257   6.254   2.927   0.627
14772TIP3   OH244258   5.760   4.652   4.859
14772TIP3    H144259   5.803   4.734   4.883
14772TIP3    H244260   5.798   4.629   4.774
14773TIP3   OH244261   6.244   7.350   4.092
14773TIP3    H144262   6.162   7.397   4.106
14773TIP3    H244263   6.238   7.317   4.002
14774TIP3   OH244264   6.596   7.687   5.884
14774TIP3    H144265   6.537   7.714   5.813
14774TIP3    H244266   6.577   7.749   5.955
14775TIP3   OH244267   2.959   6.317   6.496
14775TIP3    H144268   3.044   6.336   6.456
14775TIP3    H244269   2.904   6.291   6.422
14776TIP3   OH244270   0.960   4.254   5.838
14776TIP3    H144271   1.043   4.232   5.882
14776TIP3    H244272   0.893   4.210   5.890
14777TIP3   OH244273   6.854   5.874   1.251
14777TIP3    H144274   6.922   5.918   1.303
14777TIP3    H244275   6.803   5.945   1.213
14778TIP3   OH244276   3.274   0.964   1.713
14778TIP3    H144277   3.367   0.950   1.726
14778TIP3    H244278   3.249   1.025   1.783
14779TIP3   OH244279   7.811   1.529   1.142
14779TIP3    H144280   7.902   1.538   1.114
14779TIP3    H244281   7.804   1.586   1.219
14780TIP3   OH244282   7.256   6.729   3.268
14780TIP3    H144283   7.253   6.814   3.312
14780TIP3    H244284   7.297   6.748   3.184
14781TIP3   OH244285   8.181   2.305   0.667
14781TIP3    H144286   8.165   2.279   0.758
14781TIP3    H244287   8.129   2.384   0.655
14782TIP3   OH244288   3.467   2.820   3.241
14782TIP3    H144289   3.426   2.903   3.217
14782TIP3    H244290   3.415   2.753   3.196
14783TIP3   OH244291   7.993   0.581   6.725
14783TIP3    H144292   8.010   0.511   6.789
14783TIP3    H244293   7.937   0.642   6.772
14784TIP3   OH244294   4.858   5.366   0.819
14784TIP3    H144295   4.930   5.304   0.820
14784TIP3    H244296   4.891   5.442   0.867
14785TIP3   OH244297   4.128   2.352   3.924
14785TIP3    H144298   4.143   2.343   4.018
14785TIP3    H244299   4.046   2.401   3.917
14786TIP3   OH244300   7.145   2.281   2.232
14786TIP3    H144301   7.132   2.318   2.319
14786TIP3    H244302   7.059   2.249   2.206
14787TIP3   OH244303   1.470   4.895   2.049
14787TIP3    H144304   1.481   4.969   1.990
14787TIP3    H244305   1.544   4.837   2.029
14788TIP3   OH244306   2.994   2.409   5.490
14788TIP3    H144307   2.947   2.328   5.472
14788TIP3    H244308   2.925   2.475   5.501
14789TIP3   OH244309   0.764   1.530   2.257
14789TIP3    H144310   0.750   1.615   2.299
14789TIP3    H244311   0.859   1.519   2.259
14790TIP3   OH244312   0.893   0.946   3.257
14790TIP3    H144313   0.940   0.981   3.181
14790TIP3    H244314   0.916   0.853   3.259
14791TIP3   OH244315   0.873   1.246   3.953
14791TIP3    H144316   0.956   1.202   3.935
14791TIP3    H244317   0.890   1.338   3.935
14792TIP3   OH244318   2.948   6.862   6.495
14792TIP3    H144319   3.001   6.941   6.510
14792TIP3    H244320   3.002   6.790   6.528
14793TIP3   OH244321   1.213   1.659   3.981
14793TIP3    H144322   1.191   1.592   4.047
14793TIP3    H244323   1.178   1.740   4.018
14794TIP3   OH244324   3.830   6.171   0.352
14794TIP3    H144325   3.838   6.266   0.343
14794TIP3    H244326   3.910   6.144   0.397
14795TIP3   OH244327   0.167   3.676   3.338
14795TIP3    H144328   0.217   3.630   3.405
14795TIP3    H244329   0.208   3.762   3.332
14796TIP3   OH244330   0.327   7.325   2.411
14796TIP3    H144331   0.353   7.315   2.319
14796TIP3    H244332   0.239   7.361   2.407
14797TIP3   OH244333   7.242   7.756   0.702
14797TIP3    H144334   7.280   7.789   0.784
14797TIP3    H244335   7.303   7.688   0.674
14798TIP3   OH244336   4.054   7.559   3.064
14798TIP3    H144337   4.148   7.543   3.051
14798TIP3    H244338   4.015   7.472   3.065
14799TIP3   OH244339   5.830   3.634   4.140
14799TIP3    H144340   5.910   3.656   4.092
14799TIP3    H244341   5.765   3.696   4.107
14800TIP3   OH244342   4.269   5.561   3.610
14800TIP3    H144343   4.300   5.477   3.575
14800TIP3    H244344   4.290   5.558   3.703
14801TIP3   OH244345   2.901   0.917   1.293
14801TIP3    H144346   2.918   1.011   1.294
14801TIP3    H244347   2.829   0.904   1.355
14802TIP3   OH244348   4.022   1.898   1.991
14802TIP3    H144349   4.101   1.911   2.045
14802TIP3    H244350   3.949   1.904   2.053
14803TIP3   OH244351   8.153   6.904   2.897
14803TIP3    H144352   8.182   6.968   2.832
14803TIP3    H244353   8.090   6.951   2.951
14804TIP3   OH244354   4.880   3.145   0.747
14804TIP3    H144355   4.823   3.118   0.675
14804TIP3    H244356   4.931   3.217   0.711
14805TIP3   OH244357   3.670   7.256   5.816
14805TIP3    H144358   3.631   7.170   5.800
14805TIP3    H244359   3.664   7.300   5.732
14806TIP3   OH244360   0.545   5.908   0.581
14806TIP3    H144361   0.491   5.952   0.646
14806TIP3    H244362   0.635   5.936   0.601
14807TIP3   OH244363   6.711   7.306   2.623
14807TIP3    H144364   6.651   7.330   2.694
14807TIP3    H244365   6.729   7.388   2.577
14808TIP3   OH244366   5.233   6.499   6.003
14808TIP3    H144367   5.209   6.406   5.997
14808TIP3    H244368   5.179   6.533   6.075
14809TIP3   OH244369   6.843   5.408   4.989
14809TIP3    H144370   6.914   5.420   4.926
14809TIP3    H244371   6.838   5.491   5.037
14810TIP3   OH244372   0.192   5.056   1.004
14810TIP3    H144373   0.286   5.070   1.013
14810TIP3    H244374   0.154   5.098   1.082
14811TIP3   OH244375   1.071   6.963   4.357
14811TIP3    H144376   1.085   7.026   4.428
14811TIP3    H244377   1.109   7.004   4.280
14812TIP3   OH244378   3.748   2.225   5.233
14812TIP3    H144379   3.665   2.261   5.201
14812TIP3    H244380   3.723   2.141   5.273
14813TIP3   OH244381   6.497   2.028   0.447
14813TIP3    H144382   6.540   2.111   0.429
14813TIP3    H244383   6.417   2.031   0.394
14814TIP3   OH244384   3.859   0.230   1.734
14814TIP3    H144385   3.864   0.231   1.829
14814TIP3    H244386   3.929   0.289   1.706
14815TIP3   OH244387   0.589   5.309   1.026
14815TIP3    H144388   0.568   5.222   1.060
14815TIP3    H244389   0.563   5.306   0.934
14816TIP3   OH244390   6.115   1.901   2.708
14816TIP3    H144391   6.170   1.926   2.634
14816TIP3    H244392   6.036   1.865   2.668
14817TIP3   OH244393   1.286   7.527   6.255
14817TIP3    H144394   1.330   7.540   6.172
14817TIP3    H244395   1.351   7.552   6.321
14818TIP3   OH244396   3.594   3.199   2.994
14818TIP3    H144397   3.672   3.231   2.948
14818TIP3    H244398   3.598   3.104   2.984
14819TIP3   OH244399   2.962   6.804   3.868
14819TIP3    H144400   3.049   6.845   3.868
14819TIP3    H244401   2.907   6.865   3.819
14820TIP3   OH244402   0.647   3.371   0.024
14820TIP3    H144403   0.620   3.285   0.055
14820TIP3    H244404   0.739   3.360  -0.001
14821TIP3   OH244405   4.879   6.654   4.929
14821TIP3    H144406   4.908   6.641   4.839
14821TIP3    H244407   4.851   6.745   4.932
14822TIP3   OH244408   2.346   4.460   4.041
14822TIP3    H144409   2.305   4.546   4.055
14822TIP3    H244410   2.439   4.474   4.058
14823TIP3   OH244411   6.972   6.439   3.121
14823TIP3    H144412   6.889   6.454   3.076
14823TIP3    H244413   7.033   6.413   3.052
14824TIP3   OH244414   0.072   2.049   4.709
14824TIP3    H144415   0.029   2.030   4.626
14824TIP3    H244416   0.015   2.112   4.752
14825TIP3   OH244417   7.852   6.856   5.078
14825TIP3    H144418   7.913   6.912   5.030
14825TIP3    H244419   7.900   6.775   5.093
14826TIP3   OH244420   4.304   1.696   2.596
14826TIP3    H144421   4.286   1.664   2.684
14826TIP3    H244422   4.227   1.748   2.573
14827TIP3   OH244423   6.807   5.347   0.591
14827TIP3    H144424   6.750   5.328   0.666
14827TIP3    H244425   6.763   5.306   0.516
14828TIP3   OH244426   3.403   0.557   3.665
14828TIP3    H144427   3.390   0.484   3.725
14828TIP3    H244428   3.490   0.542   3.627
14829TIP3   OH244429   2.758   2.356   1.593
14829TIP3    H144430   2.690   2.297   1.558
14829TIP3    H244431   2.837   2.333   1.545
14830TIP3   OH244432   1.862   0.196   3.208
14830TIP3    H144433   1.926   0.136   3.246
14830TIP3    H244434   1.818   0.146   3.140
   8.29688   7.82237   6.77437   0.00000   0.00000  -2.76562   0.00000  -2.76562  -3.91118
