Title t= 428.00000 step= 214000
46055
    1GLY      N    1   3.021   3.154   0.657
    1GLY    HT1    2   3.107   3.178   0.711
    1GLY    HT2    3   3.022   3.205   0.567
    1GLY    HT3    4   3.034   3.056   0.625
    1GLY     CA    5   2.908   3.157   0.745
    1GLY    HA1    6   2.863   3.058   0.751
    1GLY    HA2    7   2.843   3.226   0.693
    1GLY      C    8   2.928   3.232   0.874
    1GLY      O    9   2.971   3.162   0.969
    2PRO      N   10   2.911   3.363   0.894
    2PRO     CD   11   2.875   3.461   0.786
    2PRO    HD1   12   2.766   3.456   0.765
    2PRO    HD2   13   2.937   3.442   0.696
    2PRO     CA   14   2.935   3.429   1.017
    2PRO     HA   15   3.042   3.433   1.034
    2PRO     CB   16   2.884   3.576   0.996
    2PRO    HB1   17   2.932   3.646   1.068
    2PRO    HB2   18   2.776   3.598   1.008
    2PRO     CG   19   2.913   3.595   0.844
    2PRO    HG1   20   2.856   3.680   0.801
    2PRO    HG2   21   3.021   3.612   0.822
    2PRO      C   22   2.857   3.366   1.132
    2PRO      O   23   2.738   3.333   1.118
    3GLY      N   24   2.929   3.336   1.240
    3GLY     HN   25   3.026   3.358   1.233
    3GLY     CA   26   2.881   3.279   1.369
    3GLY    HA1   27   2.957   3.206   1.392
    3GLY    HA2   28   2.779   3.244   1.358
    3GLY      C   29   2.873   3.391   1.475
    3GLY      O   30   2.901   3.505   1.447
    4ALA      N   31   2.831   3.369   1.597
    4ALA     HN   32   2.803   3.277   1.621
    4ALA     CA   33   2.850   3.467   1.705
    4ALA     HA   34   2.813   3.562   1.671
    4ALA     CB   35   2.765   3.431   1.824
    4ALA    HB1   36   2.795   3.332   1.865
    4ALA    HB2   37   2.663   3.407   1.787
    4ALA    HB3   38   2.769   3.511   1.901
    4ALA      C   39   2.996   3.466   1.753
    4ALA      O   40   3.071   3.368   1.751
    5PRO      N   41   3.042   3.579   1.809
    5PRO     CD   42   2.988   3.711   1.788
    5PRO    HD1   43   2.895   3.722   1.849
    5PRO    HD2   44   2.960   3.722   1.681
    5PRO     CA   45   3.167   3.587   1.892
    5PRO     HA   46   3.244   3.553   1.825
    5PRO     CB   47   3.176   3.735   1.934
    5PRO    HB1   48   3.279   3.771   1.954
    5PRO    HB2   49   3.121   3.739   2.031
    5PRO     CG   50   3.100   3.807   1.825
    5PRO    HG1   51   3.059   3.904   1.862
    5PRO    HG2   52   3.168   3.812   1.737
    5PRO      C   53   3.176   3.483   2.001
    5PRO      O   54   3.084   3.411   2.035
    6GLY      N   55   3.301   3.445   2.048
    6GLY     HN   56   3.374   3.502   2.011
    6GLY     CA   57   3.334   3.339   2.139
    6GLY    HA1   58   3.429   3.369   2.182
    6GLY    HA2   59   3.331   3.247   2.084
    6GLY      C   60   3.252   3.334   2.266
    6GLY      O   61   3.216   3.443   2.310
    7PRO      N   62   3.225   3.220   2.335
    7PRO     CD   63   3.238   3.084   2.276
    7PRO    HD1   64   3.344   3.052   2.273
    7PRO    HD2   65   3.195   3.074   2.174
    7PRO     CA   66   3.137   3.220   2.446
    7PRO     HA   67   3.046   3.240   2.392
    7PRO     CB   68   3.141   3.078   2.499
    7PRO    HB1   69   3.052   3.050   2.559
    7PRO    HB2   70   3.219   3.054   2.575
    7PRO     CG   71   3.154   2.999   2.374
    7PRO    HG1   72   3.208   2.905   2.397
    7PRO    HG2   73   3.055   2.966   2.337
    7PRO      C   74   3.160   3.330   2.561
    7PRO      O   75   3.280   3.367   2.594
    8GLY      N   76   3.062   3.393   2.622
    8GLY     HN   77   2.969   3.363   2.604
    8GLY     CA   78   3.082   3.508   2.711
    8GLY    HA1   79   2.999   3.577   2.715
    8GLY    HA2   80   3.173   3.561   2.686
    8GLY      C   81   3.086   3.460   2.856
    8GLY      O   82   3.031   3.354   2.883
    9ALA      N   83   3.140   3.535   2.951
    9ALA     HN   84   3.173   3.627   2.930
    9ALA     CA   85   3.151   3.501   3.092
    9ALA     HA   86   3.177   3.396   3.096
    9ALA     CB   87   3.244   3.594   3.169
    9ALA    HB1   88   3.321   3.633   3.098
    9ALA    HB2   89   3.278   3.552   3.265
    9ALA    HB3   90   3.194   3.692   3.186
    9ALA      C   91   3.012   3.515   3.153
    9ALA      O   92   2.928   3.588   3.105
   10PRO      N   93   2.984   3.457   3.278
   10PRO     CD   94   3.073   3.359   3.345
   10PRO    HD1   95   3.167   3.403   3.383
   10PRO    HD2   96   3.094   3.284   3.265
   10PRO     CA   97   2.856   3.471   3.344
   10PRO     HA   98   2.781   3.422   3.284
   10PRO     CB   99   2.871   3.399   3.478
   10PRO    HB1  100   2.773   3.352   3.501
   10PRO    HB2  101   2.913   3.458   3.562
   10PRO     CG  102   2.978   3.295   3.454
   10PRO    HG1  103   3.035   3.264   3.544
   10PRO    HG2  104   2.933   3.200   3.416
   10PRO      C  105   2.803   3.613   3.356
   10PRO      O  106   2.881   3.710   3.348
   11GLY      N  107   2.670   3.624   3.364
   11GLY     HN  108   2.607   3.547   3.374
   11GLY     CA  109   2.609   3.757   3.385
   11GLY    HA1  110   2.504   3.741   3.365
   11GLY    HA2  111   2.661   3.826   3.320
   11GLY      C  112   2.609   3.793   3.538
   11GLY      O  113   2.625   3.701   3.620
   12PRO      N  114   2.579   3.918   3.577
   12PRO     CD  115   2.560   4.024   3.469
   12PRO    HD1  116   2.463   4.007   3.419
   12PRO    HD2  117   2.626   4.023   3.379
   12PRO     CA  118   2.541   3.964   3.709
   12PRO     HA  119   2.637   3.959   3.759
   12PRO     CB  120   2.488   4.107   3.681
   12PRO    HB1  121   2.505   4.176   3.766
   12PRO    HB2  122   2.380   4.105   3.659
   12PRO     CG  123   2.565   4.150   3.553
   12PRO    HG1  124   2.517   4.241   3.514
   12PRO    HG2  125   2.666   4.182   3.587
   12PRO      C  126   2.454   3.875   3.787
   12PRO      O  127   2.364   3.818   3.722
   13GLY      N  128   2.464   3.861   3.917
   13GLY     HN  129   2.536   3.914   3.961
   13GLY     CA  130   2.378   3.767   3.990
   13GLY    HA1  131   2.428   3.671   3.986
   13GLY    HA2  132   2.278   3.767   3.950
   13GLY      C  133   2.371   3.809   4.130
   13GLY      O  134   2.396   3.926   4.165
   14ALA      N  135   2.341   3.716   4.223
   14ALA     HN  136   2.346   3.619   4.200
   14ALA     CA  137   2.314   3.741   4.366
   14ALA     HA  138   2.233   3.813   4.363
   14ALA     CB  139   2.292   3.605   4.441
   14ALA    HB1  140   2.223   3.606   4.528
   14ALA    HB2  141   2.385   3.547   4.456
   14ALA    HB3  142   2.233   3.551   4.363
   14ALA      C  143   2.435   3.816   4.434
   14ALA      O  144   2.552   3.783   4.425
   15PRO      N  145   2.413   3.923   4.520
   15PRO     CD  146   2.283   3.988   4.549
   15PRO    HD1  147   2.211   3.907   4.572
   15PRO    HD2  148   2.250   4.045   4.459
   15PRO     CA  149   2.511   3.968   4.614
   15PRO     HA  150   2.611   3.975   4.575
   15PRO     CB  151   2.459   4.110   4.653
   15PRO    HB1  152   2.487   4.173   4.566
   15PRO    HB2  153   2.495   4.158   4.746
   15PRO     CG  154   2.307   4.089   4.656
   15PRO    HG1  155   2.260   4.056   4.751
   15PRO    HG2  156   2.264   4.189   4.633
   15PRO      C  157   2.528   3.871   4.730
   15PRO    OT1  158   2.434   3.806   4.777
   15PRO    OT2  159   2.645   3.868   4.781
   16LIT    LIT  160   5.604   4.588   2.513
   17LIT    LIT  161   3.088   4.903   3.083
   18LIT    LIT  162   3.098   2.836   1.790
   19LIT    LIT  163   4.827   5.826   3.006
   20LIT    LIT  164   2.911   5.353   2.231
   21LIT    LIT  165   2.292   5.638   0.474
   22LIT    LIT  166   1.860   2.035   5.979
   23LIT    LIT  167   6.972   4.933   3.649
   24LIT    LIT  168   2.361   3.963   3.046
   25LIT    LIT  169   3.877   0.266   5.863
   26LIT    LIT  170   7.333   3.279   5.359
   27LIT    LIT  171   1.621   4.259   3.473
   28LIT    LIT  172   1.273   6.498   4.016
   29LIT    LIT  173   7.625   6.908   6.687
   30LIT    LIT  174   4.248   5.780   4.159
   31LIT    LIT  175   0.888   2.670   4.458
   32LIT    LIT  176   5.294   1.154   0.293
   33LIT    LIT  177   4.739   6.122   2.347
   34LIT    LIT  178   7.814   7.002   0.163
   35LIT    LIT  179   8.157   0.312   3.869
   36LIT    LIT  180   7.386   0.044   2.102
   37LIT    LIT  181   3.769   5.440   0.461
   38LIT    LIT  182   0.795   2.898   0.836
   39LIT    LIT  183   3.005   1.879   3.576
   40LIT    LIT  184   8.260   6.252   4.461
   41LIT    LIT  185   5.153   5.051   0.227
   42LIT    LIT  186   6.611   5.161   1.510
   43LIT    LIT  187   3.488   1.770   0.236
   44LIT    LIT  188   4.337   7.222   2.341
   45LIT    LIT  189   0.563   7.911   2.057
   46LIT    LIT  190   1.671   3.119   4.859
   47LIT    LIT  191   0.766   0.708   1.511
   48LIT    LIT  192   2.363   7.777   2.389
   49LIT    LIT  193   7.223   0.448   5.380
   50LIT    LIT  194   5.291   3.784   1.494
   51LIT    LIT  195   5.511   0.982   0.737
   52LIT    LIT  196   5.974   0.670   5.513
   53LIT    LIT  197   1.134   3.797   0.339
   54LIT    LIT  198   5.758   2.004   5.635
   55LIT    LIT  199   1.388   2.150   4.452
   56LIT    LIT  200   7.569   4.889   4.717
   57LIT    LIT  201   4.892   5.399   0.501
   58LIT    LIT  202   2.539   3.784   4.932
   59CLA    CLA  203   3.636   7.513   2.602
   60CLA    CLA  204   4.063   5.660   4.242
   61CLA    CLA  205   4.737   2.899   6.674
   62CLA    CLA  206   2.371   7.591   2.869
   63CLA    CLA  207   2.554   5.959   3.338
   64CLA    CLA  208   3.008   6.431   4.462
   65CLA    CLA  209   5.316   5.531   0.344
   66CLA    CLA  210   0.060   5.258   0.104
   67CLA    CLA  211   1.135   3.564   2.907
   68CLA    CLA  212   6.947   5.896   3.816
   69CLA    CLA  213   6.000   6.241   2.372
   70CLA    CLA  214   4.766   0.236   0.261
   71CLA    CLA  215   2.773   1.921   2.722
   72CLA    CLA  216   7.662   4.720   4.841
   73CLA    CLA  217   1.191   6.136   6.445
   74CLA    CLA  218   5.536   7.281   1.615
   75CLA    CLA  219   1.563   3.939   0.035
   76CLA    CLA  220   1.727   3.055   1.230
   77CLA    CLA  221   4.369   0.809   6.246
   78CLA    CLA  222   7.662   2.074   4.623
   79CLA    CLA  223   5.512   3.458   2.408
   80CLA    CLA  224   3.566   3.574   6.395
   81CLA    CLA  225   1.795   1.221   1.284
   82CLA    CLA  226   2.609   4.570   1.768
   83CLA    CLA  227   7.575   6.455   4.614
   84CLA    CLA  228   1.267   7.103   2.220
   85CLA    CLA  229   8.200   6.815   0.203
   86CLA    CLA  230   7.895   2.697   5.371
   87CLA    CLA  231   2.010   4.196   0.267
   88CLA    CLA  232   8.245   3.969   3.300
   89CLA    CLA  233   3.175   3.631   0.557
   90CLA    CLA  234   1.443   3.152   6.095
   91CLA    CLA  235   5.570   6.138   0.729
   92CLA    CLA  236   5.928   5.065   0.753
   93CLA    CLA  237   2.123   1.311   6.610
   94CLA    CLA  238   7.958   0.215   3.914
   95CLA    CLA  239   3.114   2.167   0.948
   96CLA    CLA  240   7.001   2.193   4.159
   97CLA    CLA  241   3.898   2.981   3.968
   98CLA    CLA  242   7.030   1.949   5.725
   99CLA    CLA  243   2.136   4.578   3.077
  100CLA    CLA  244   5.675   1.489   4.122
  101CLA    CLA  245   7.383   1.128   3.081
  102TIP3   OH2  246   7.722   7.368   6.530
  102TIP3    H1  247   7.757   7.368   6.619
  102TIP3    H2  248   7.793   7.402   6.475
  103TIP3   OH2  249   1.523   3.432   2.189
  103TIP3    H1  250   1.482   3.416   2.274
  103TIP3    H2  251   1.596   3.492   2.209
  104TIP3   OH2  252   6.878   6.949   5.035
  104TIP3    H1  253   6.802   7.007   5.027
  104TIP3    H2  254   6.945   7.002   5.078
  105TIP3   OH2  255   1.670   1.671   3.911
  105TIP3    H1  256   1.626   1.750   3.879
  105TIP3    H2  257   1.694   1.623   3.831
  106TIP3   OH2  258   3.081   5.706   1.473
  106TIP3    H1  259   2.993   5.675   1.455
  106TIP3    H2  260   3.110   5.654   1.549
  107TIP3   OH2  261   6.552   4.316   5.226
  107TIP3    H1  262   6.598   4.271   5.155
  107TIP3    H2  263   6.460   4.314   5.200
  108TIP3   OH2  264   1.955   2.809   6.541
  108TIP3    H1  265   1.864   2.780   6.530
  108TIP3    H2  266   1.949   2.887   6.596
  109TIP3   OH2  267   6.927   6.291   4.963
  109TIP3    H1  268   6.999   6.352   4.982
  109TIP3    H2  269   6.940   6.219   5.025
  110TIP3   OH2  270   3.102   2.387   2.494
  110TIP3    H1  271   3.024   2.398   2.441
  110TIP3    H2  272   3.140   2.475   2.499
  111TIP3   OH2  273   1.579   1.032   6.652
  111TIP3    H1  274   1.620   1.039   6.566
  111TIP3    H2  275   1.499   0.980   6.636
  112TIP3   OH2  276   5.525   0.674   2.016
  112TIP3    H1  277   5.595   0.616   2.046
  112TIP3    H2  278   5.525   0.747   2.079
  113TIP3   OH2  279   0.595   6.738   2.476
  113TIP3    H1  280   0.599   6.824   2.518
  113TIP3    H2  281   0.681   6.700   2.492
  114TIP3   OH2  282   0.933   3.274   3.905
  114TIP3    H1  283   0.988   3.280   3.983
  114TIP3    H2  284   0.936   3.182   3.880
  115TIP3   OH2  285   0.442   2.620   6.661
  115TIP3    H1  286   0.485   2.575   6.734
  115TIP3    H2  287   0.496   2.697   6.644
  116TIP3   OH2  288   3.814   5.145   0.142
  116TIP3    H1  289   3.757   5.189   0.080
  116TIP3    H2  290   3.795   5.052   0.130
  117TIP3   OH2  291   1.242   0.913   1.864
  117TIP3    H1  292   1.337   0.907   1.848
  117TIP3    H2  293   1.235   0.924   1.959
  118TIP3   OH2  294   4.688   3.137   1.862
  118TIP3    H1  295   4.760   3.073   1.865
  118TIP3    H2  296   4.627   3.101   1.798
  119TIP3   OH2  297   8.089   1.736   5.087
  119TIP3    H1  298   8.136   1.687   5.020
  119TIP3    H2  299   8.103   1.828   5.063
  120TIP3   OH2  300   0.478   1.710   3.431
  120TIP3    H1  301   0.386   1.690   3.449
  120TIP3    H2  302   0.483   1.805   3.437
  121TIP3   OH2  303   6.345   0.082   2.173
  121TIP3    H1  304   6.347  -0.005   2.214
  121TIP3    H2  305   6.265   0.081   2.120
  122TIP3   OH2  306   5.868   7.940   2.739
  122TIP3    H1  307   5.959   7.970   2.742
  122TIP3    H2  308   5.873   7.853   2.700
  123TIP3   OH2  309   0.567   2.649   6.071
  123TIP3    H1  310   0.637   2.603   6.117
  123TIP3    H2  311   0.612   2.711   6.014
  124TIP3   OH2  312   4.838   5.509   1.710
  124TIP3    H1  313   4.871   5.599   1.709
  124TIP3    H2  314   4.912   5.457   1.743
  125TIP3   OH2  315   2.616   5.400   6.135
  125TIP3    H1  316   2.656   5.377   6.051
  125TIP3    H2  317   2.685   5.384   6.200
  126TIP3   OH2  318   1.421   2.883   0.044
  126TIP3    H1  319   1.331   2.914   0.051
  126TIP3    H2  320   1.419   2.820  -0.028
  127TIP3   OH2  321   6.249   6.685   3.640
  127TIP3    H1  322   6.329   6.654   3.598
  127TIP3    H2  323   6.197   6.722   3.569
  128TIP3   OH2  324   7.292   2.552   2.433
  128TIP3    H1  325   7.373   2.603   2.427
  128TIP3    H2  326   7.240   2.597   2.499
  129TIP3   OH2  327   8.202   2.550   1.158
  129TIP3    H1  328   8.107   2.565   1.157
  129TIP3    H2  329   8.213   2.468   1.205
  130TIP3   OH2  330   8.036   6.502   0.586
  130TIP3    H1  331   8.120   6.485   0.629
  130TIP3    H2  332   7.970   6.468   0.648
  131TIP3   OH2  333   7.780   2.377   4.609
  131TIP3    H1  334   7.729   2.308   4.652
  131TIP3    H2  335   7.797   2.343   4.521
  132TIP3   OH2  336   7.475   7.555   4.988
  132TIP3    H1  337   7.548   7.494   4.992
  132TIP3    H2  338   7.514   7.641   5.007
  133TIP3   OH2  339   6.126   1.108   3.631
  133TIP3    H1  340   6.036   1.132   3.654
  133TIP3    H2  341   6.117   1.054   3.552
  134TIP3   OH2  342   6.091   6.078   0.031
  134TIP3    H1  343   6.051   6.134  -0.035
  134TIP3    H2  344   6.032   6.082   0.106
  135TIP3   OH2  345   0.715   7.235   5.216
  135TIP3    H1  346   0.659   7.193   5.281
  135TIP3    H2  347   0.676   7.211   5.132
  136TIP3   OH2  348   3.770   7.238   2.531
  136TIP3    H1  349   3.740   7.193   2.610
  136TIP3    H2  350   3.724   7.322   2.533
  137TIP3   OH2  351   0.734   2.045   4.315
  137TIP3    H1  352   0.737   1.950   4.307
  137TIP3    H2  353   0.825   2.071   4.328
  138TIP3   OH2  354   0.785   7.648   1.515
  138TIP3    H1  355   0.736   7.688   1.587
  138TIP3    H2  356   0.753   7.558   1.511
  139TIP3   OH2  357   1.904   5.451   0.574
  139TIP3    H1  358   1.970   5.481   0.636
  139TIP3    H2  359   1.903   5.518   0.505
  140TIP3   OH2  360   5.577   1.499   5.918
  140TIP3    H1  361   5.616   1.532   5.999
  140TIP3    H2  362   5.548   1.410   5.940
  141TIP3   OH2  363   6.723   6.576   1.470
  141TIP3    H1  364   6.779   6.505   1.438
  141TIP3    H2  365   6.689   6.618   1.391
  142TIP3   OH2  366   3.508   2.597   5.358
  142TIP3    H1  367   3.569   2.645   5.414
  142TIP3    H2  368   3.554   2.515   5.337
  143TIP3   OH2  369   6.874   7.085   0.756
  143TIP3    H1  370   6.908   7.013   0.809
  143TIP3    H2  371   6.795   7.113   0.802
  144TIP3   OH2  372   6.839   4.536   1.394
  144TIP3    H1  373   6.893   4.515   1.318
  144TIP3    H2  374   6.751   4.550   1.358
  145TIP3   OH2  375   0.471   7.420   4.583
  145TIP3    H1  376   0.439   7.409   4.672
  145TIP3    H2  377   0.470   7.332   4.546
  146TIP3   OH2  378   6.526   7.306   1.537
  146TIP3    H1  379   6.566   7.262   1.612
  146TIP3    H2  380   6.600   7.336   1.484
  147TIP3   OH2  381   7.554   7.615   6.159
  147TIP3    H1  382   7.571   7.604   6.252
  147TIP3    H2  383   7.538   7.709   6.148
  148TIP3   OH2  384   7.657   4.390   4.007
  148TIP3    H1  385   7.748   4.418   4.007
  148TIP3    H2  386   7.643   4.353   3.919
  149TIP3   OH2  387   5.082   3.435   4.702
  149TIP3    H1  388   5.095   3.515   4.753
  149TIP3    H2  389   5.133   3.448   4.622
  150TIP3   OH2  390   3.985   4.214   4.291
  150TIP3    H1  391   4.036   4.237   4.368
  150TIP3    H2  392   3.900   4.256   4.305
  151TIP3   OH2  393   0.048   4.061   1.436
  151TIP3    H1  394   0.091   4.109   1.365
  151TIP3    H2  395   0.120   4.026   1.488
  152TIP3   OH2  396   1.112   4.884   0.971
  152TIP3    H1  397   1.147   4.867   0.884
  152TIP3    H2  398   1.020   4.859   0.966
  153TIP3   OH2  399   5.908   4.325   2.356
  153TIP3    H1  400   5.938   4.234   2.348
  153TIP3    H2  401   5.969   4.375   2.302
  154TIP3   OH2  402   5.231   1.658   4.697
  154TIP3    H1  403   5.194   1.734   4.653
  154TIP3    H2  404   5.281   1.694   4.770
  155TIP3   OH2  405   3.599   0.352   3.481
  155TIP3    H1  406   3.580   0.335   3.573
  155TIP3    H2  407   3.629   0.443   3.479
  156TIP3   OH2  408   0.761   3.666   3.773
  156TIP3    H1  409   0.701   3.596   3.799
  156TIP3    H2  410   0.763   3.724   3.849
  157TIP3   OH2  411   5.247   6.449   0.881
  157TIP3    H1  412   5.233   6.374   0.824
  157TIP3    H2  413   5.342   6.457   0.890
  158TIP3   OH2  414   1.060   2.640   3.575
  158TIP3    H1  415   1.069   2.727   3.537
  158TIP3    H2  416   1.032   2.585   3.502
  159TIP3   OH2  417   5.103   6.379   4.842
  159TIP3    H1  418   5.011   6.406   4.848
  159TIP3    H2  419   5.140   6.436   4.775
  160TIP3   OH2  420   6.981   0.060   6.387
  160TIP3    H1  421   6.975   0.053   6.483
  160TIP3    H2  422   6.896   0.095   6.361
  161TIP3   OH2  423   5.965   6.904   6.479
  161TIP3    H1  424   5.919   6.936   6.557
  161TIP3    H2  425   5.927   6.954   6.406
  162TIP3   OH2  426   6.736   7.879   4.485
  162TIP3    H1  427   6.825   7.912   4.473
  162TIP3    H2  428   6.747   7.789   4.516
  163TIP3   OH2  429   4.112   4.425   0.689
  163TIP3    H1  430   4.044   4.373   0.647
  163TIP3    H2  431   4.106   4.404   0.782
  164TIP3   OH2  432   5.614   1.100   6.442
  164TIP3    H1  433   5.664   1.162   6.495
  164TIP3    H2  434   5.672   1.079   6.368
  165TIP3   OH2  435   7.799   3.984   4.464
  165TIP3    H1  436   7.887   3.982   4.501
  165TIP3    H2  437   7.809   4.032   4.381
  166TIP3   OH2  438   6.214   5.777   4.200
  166TIP3    H1  439   6.122   5.804   4.206
  166TIP3    H2  440   6.246   5.819   4.119
  167TIP3   OH2  441   4.924   3.339   2.085
  167TIP3    H1  442   4.923   3.250   2.121
  167TIP3    H2  443   4.899   3.327   1.993
  168TIP3   OH2  444   2.171   0.624   6.050
  168TIP3    H1  445   2.103   0.681   6.085
  168TIP3    H2  446   2.240   0.683   6.023
  169TIP3   OH2  447   0.190   6.704   3.949
  169TIP3    H1  448   0.123   6.676   3.887
  169TIP3    H2  449   0.215   6.625   3.997
  170TIP3   OH2  450   3.298   5.172   2.840
  170TIP3    H1  451   3.353   5.233   2.889
  170TIP3    H2  452   3.345   5.089   2.846
  171TIP3   OH2  453   6.480   5.239   5.278
  171TIP3    H1  454   6.527   5.158   5.258
  171TIP3    H2  455   6.396   5.229   5.234
  172TIP3   OH2  456   1.786   5.890   6.641
  172TIP3    H1  457   1.733   5.961   6.678
  172TIP3    H2  458   1.784   5.905   6.547
  173TIP3   OH2  459   7.802   5.807   3.967
  173TIP3    H1  460   7.708   5.820   3.980
  173TIP3    H2  461   7.809   5.738   3.901
  174TIP3   OH2  462   0.187   3.118   6.470
  174TIP3    H1  463   0.168   3.031   6.506
  174TIP3    H2  464   0.178   3.178   6.544
  175TIP3   OH2  465   3.059   5.883   5.975
  175TIP3    H1  466   2.973   5.842   5.984
  175TIP3    H2  467   3.122   5.813   5.991
  176TIP3   OH2  468   5.901   4.217   1.102
  176TIP3    H1  469   5.858   4.245   1.183
  176TIP3    H2  470   5.979   4.271   1.096
  177TIP3   OH2  471   8.190   7.559   3.725
  177TIP3    H1  472   8.232   7.542   3.641
  177TIP3    H2  473   8.252   7.615   3.772
  178TIP3   OH2  474   2.201   7.233   5.694
  178TIP3    H1  475   2.289   7.229   5.658
  178TIP3    H2  476   2.203   7.176   5.771
  179TIP3   OH2  477   6.167   3.476   0.680
  179TIP3    H1  478   6.118   3.466   0.599
  179TIP3    H2  479   6.171   3.388   0.718
  180TIP3   OH2  480   8.210   6.280   5.638
  180TIP3    H1  481   8.297   6.291   5.676
  180TIP3    H2  482   8.207   6.343   5.566
  181TIP3   OH2  483   7.150   3.642   6.032
  181TIP3    H1  484   7.098   3.567   6.061
  181TIP3    H2  485   7.211   3.658   6.104
  182TIP3   OH2  486   1.333   2.956   4.259
  182TIP3    H1  487   1.288   2.904   4.325
  182TIP3    H2  488   1.409   2.992   4.304
  183TIP3   OH2  489   2.911   6.208   1.245
  183TIP3    H1  490   2.961   6.158   1.179
  183TIP3    H2  491   2.946   6.178   1.329
  184TIP3   OH2  492   0.434   1.490   1.044
  184TIP3    H1  493   0.427   1.543   1.124
  184TIP3    H2  494   0.419   1.400   1.073
  185TIP3   OH2  495   5.151   4.564   0.106
  185TIP3    H1  496   5.241   4.547   0.080
  185TIP3    H2  497   5.115   4.617   0.035
  186TIP3   OH2  498   1.613   2.788   3.697
  186TIP3    H1  499   1.526   2.749   3.696
  186TIP3    H2  500   1.663   2.736   3.634
  187TIP3   OH2  501   0.452   3.796   3.510
  187TIP3    H1  502   0.546   3.811   3.515
  187TIP3    H2  503   0.442   3.703   3.530
  188TIP3   OH2  504   7.167   1.235   6.634
  188TIP3    H1  505   7.167   1.290   6.556
  188TIP3    H2  506   7.086   1.258   6.680
  189TIP3   OH2  507   2.656   2.001   4.659
  189TIP3    H1  508   2.698   1.998   4.573
  189TIP3    H2  509   2.562   1.997   4.641
  190TIP3   OH2  510   6.016   1.333   3.050
  190TIP3    H1  511   5.940   1.278   3.029
  190TIP3    H2  512   6.066   1.282   3.114
  191TIP3   OH2  513   1.971   4.526   4.280
  191TIP3    H1  514   1.904   4.476   4.234
  191TIP3    H2  515   2.054   4.500   4.240
  192TIP3   OH2  516   3.195   4.603   6.299
  192TIP3    H1  517   3.224   4.684   6.339
  192TIP3    H2  518   3.261   4.584   6.232
  193TIP3   OH2  519   6.783   1.485   5.261
  193TIP3    H1  520   6.741   1.438   5.334
  193TIP3    H2  521   6.827   1.559   5.303
  194TIP3   OH2  522   0.592   2.144   2.880
  194TIP3    H1  523   0.657   2.173   2.816
  194TIP3    H2  524   0.573   2.223   2.932
  195TIP3   OH2  525   2.618   7.336   4.560
  195TIP3    H1  526   2.688   7.349   4.497
  195TIP3    H2  527   2.594   7.243   4.551
  196TIP3   OH2  528   1.824   4.806   6.313
  196TIP3    H1  529   1.836   4.712   6.325
  196TIP3    H2  530   1.734   4.816   6.282
  197TIP3   OH2  531   1.790   2.136   1.376
  197TIP3    H1  532   1.733   2.131   1.298
  197TIP3    H2  533   1.879   2.132   1.341
  198TIP3   OH2  534   4.847   3.221   1.302
  198TIP3    H1  535   4.754   3.244   1.299
  198TIP3    H2  536   4.854   3.160   1.376
  199TIP3   OH2  537   0.777   5.488   3.845
  199TIP3    H1  538   0.829   5.493   3.925
  199TIP3    H2  539   0.814   5.413   3.798
  200TIP3   OH2  540   1.526   6.001   3.994
  200TIP3    H1  541   1.613   5.970   4.021
  200TIP3    H2  542   1.486   6.034   4.075
  201TIP3   OH2  543   4.646   6.229   3.017
  201TIP3    H1  544   4.630   6.148   2.967
  201TIP3    H2  545   4.642   6.201   3.109
  202TIP3   OH2  546   5.879   6.828   5.509
  202TIP3    H1  547   5.841   6.815   5.596
  202TIP3    H2  548   5.904   6.921   5.508
  203TIP3   OH2  549   6.826   1.403   2.017
  203TIP3    H1  550   6.906   1.381   1.969
  203TIP3    H2  551   6.855   1.467   2.082
  204TIP3   OH2  552   6.168   2.748   3.741
  204TIP3    H1  553   6.175   2.716   3.830
  204TIP3    H2  554   6.073   2.753   3.725
  205TIP3   OH2  555   5.859   4.372   5.508
  205TIP3    H1  556   5.819   4.285   5.507
  205TIP3    H2  557   5.786   4.432   5.522
  206TIP3   OH2  558   8.342   2.503   3.538
  206TIP3    H1  559   8.379   2.454   3.464
  206TIP3    H2  560   8.405   2.490   3.609
  207TIP3   OH2  561   2.629   1.366   1.627
  207TIP3    H1  562   2.703   1.307   1.613
  207TIP3    H2  563   2.576   1.323   1.694
  208TIP3   OH2  564   1.627   1.053   0.238
  208TIP3    H1  565   1.683   1.013   0.172
  208TIP3    H2  566   1.548   1.079   0.190
  209TIP3   OH2  567   4.686   1.693   0.706
  209TIP3    H1  568   4.732   1.625   0.754
  209TIP3    H2  569   4.733   1.699   0.623
  210TIP3   OH2  570   2.192   6.838   6.651
  210TIP3    H1  571   2.277   6.836   6.607
  210TIP3    H2  572   2.166   6.746   6.658
  211TIP3   OH2  573   7.664   6.020   4.096
  211TIP3    H1  574   7.656   5.946   4.157
  211TIP3    H2  575   7.602   6.001   4.026
  212TIP3   OH2  576   2.863   7.112   2.458
  212TIP3    H1  577   2.787   7.108   2.515
  212TIP3    H2  578   2.882   7.205   2.449
  213TIP3   OH2  579   5.111   2.006   0.483
  213TIP3    H1  580   5.119   1.914   0.508
  213TIP3    H2  581   5.079   2.049   0.563
  214TIP3   OH2  582   6.842   0.542   2.705
  214TIP3    H1  583   6.903   0.472   2.682
  214TIP3    H2  584   6.759   0.497   2.724
  215TIP3   OH2  585   0.285   5.568   3.319
  215TIP3    H1  586   0.246   5.544   3.403
  215TIP3    H2  587   0.254   5.657   3.303
  216TIP3   OH2  588   4.517   4.702   4.496
  216TIP3    H1  589   4.516   4.772   4.561
  216TIP3    H2  590   4.441   4.648   4.518
  217TIP3   OH2  591   4.988   3.095   2.180
  217TIP3    H1  592   4.994   3.003   2.155
  217TIP3    H2  593   5.080   3.124   2.184
  218TIP3   OH2  594   4.844   3.510   6.137
  218TIP3    H1  595   4.900   3.552   6.071
  218TIP3    H2  596   4.799   3.583   6.179
  219TIP3   OH2  597   6.235   6.203   3.765
  219TIP3    H1  598   6.209   6.129   3.709
  219TIP3    H2  599   6.329   6.210   3.753
  220TIP3   OH2  600   6.219   0.922   4.853
  220TIP3    H1  601   6.199   1.001   4.803
  220TIP3    H2  602   6.307   0.897   4.823
  221TIP3   OH2  603   6.555   3.323   1.753
  221TIP3    H1  604   6.574   3.317   1.659
  221TIP3    H2  605   6.574   3.235   1.786
  222TIP3   OH2  606   5.459   1.646   3.427
  222TIP3    H1  607   5.460   1.646   3.523
  222TIP3    H2  608   5.545   1.680   3.402
  223TIP3   OH2  609   4.774   4.970   6.302
  223TIP3    H1  610   4.734   5.057   6.302
  223TIP3    H2  611   4.868   4.987   6.294
  224TIP3   OH2  612   0.571   4.763   2.268
  224TIP3    H1  613   0.527   4.693   2.317
  224TIP3    H2  614   0.613   4.817   2.335
  225TIP3   OH2  615   2.670   3.143   5.599
  225TIP3    H1  616   2.649   3.209   5.664
  225TIP3    H2  617   2.756   3.170   5.565
  226TIP3   OH2  618   3.529   1.065   3.283
  226TIP3    H1  619   3.506   1.113   3.204
  226TIP3    H2  620   3.516   1.128   3.354
  227TIP3   OH2  621   1.865   2.034   6.796
  227TIP3    H1  622   1.852   2.047   6.702
  227TIP3    H2  623   1.944   2.084   6.816
  228TIP3   OH2  624   6.798   2.166   6.768
  228TIP3    H1  625   6.749   2.213   6.701
  228TIP3    H2  626   6.840   2.235   6.820
  229TIP3   OH2  627   8.369   5.932   4.881
  229TIP3    H1  628   8.370   5.930   4.786
  229TIP3    H2  629   8.352   6.023   4.903
  230TIP3   OH2  630   2.218   1.866   6.785
  230TIP3    H1  631   2.201   1.959   6.800
  230TIP3    H2  632   2.275   1.840   6.858
  231TIP3   OH2  633   6.415   2.956   5.612
  231TIP3    H1  634   6.369   2.880   5.577
  231TIP3    H2  635   6.470   2.921   5.682
  232TIP3   OH2  636   8.040   2.586   0.470
  232TIP3    H1  637   8.059   2.565   0.562
  232TIP3    H2  638   7.964   2.644   0.474
  233TIP3   OH2  639   0.223   5.333   1.884
  233TIP3    H1  640   0.209   5.294   1.797
  233TIP3    H2  641   0.282   5.272   1.928
  234TIP3   OH2  642   3.725   0.617   2.763
  234TIP3    H1  643   3.707   0.596   2.854
  234TIP3    H2  644   3.809   0.575   2.744
  235TIP3   OH2  645   4.749   0.532   0.289
  235TIP3    H1  646   4.683   0.541   0.357
  235TIP3    H2  647   4.757   0.438   0.275
  236TIP3   OH2  648   2.796   2.428   2.678
  236TIP3    H1  649   2.831   2.349   2.719
  236TIP3    H2  650   2.704   2.408   2.662
  237TIP3   OH2  651   3.036   2.999   3.592
  237TIP3    H1  652   3.000   2.930   3.647
  237TIP3    H2  653   3.053   2.956   3.508
  238TIP3   OH2  654   3.429   0.837   1.400
  238TIP3    H1  655   3.463   0.920   1.436
  238TIP3    H2  656   3.334   0.846   1.403
  239TIP3   OH2  657   6.549   0.101   1.986
  239TIP3    H1  658   6.596   0.023   2.015
  239TIP3    H2  659   6.469   0.102   2.039
  240TIP3   OH2  660   6.868   7.317   2.295
  240TIP3    H1  661   6.858   7.317   2.200
  240TIP3    H2  662   6.912   7.234   2.314
  241TIP3   OH2  663   2.065   0.622   1.335
  241TIP3    H1  664   2.020   0.644   1.254
  241TIP3    H2  665   2.148   0.670   1.330
  242TIP3   OH2  666   6.074   6.940   3.792
  242TIP3    H1  667   6.095   6.905   3.878
  242TIP3    H2  668   6.072   7.035   3.803
  243TIP3   OH2  669   8.353   2.435   4.737
  243TIP3    H1  670   8.438   2.392   4.728
  243TIP3    H2  671   8.292   2.374   4.696
  244TIP3   OH2  672   0.071   2.129   6.063
  244TIP3    H1  673   0.041   2.219   6.047
  244TIP3    H2  674   0.023   2.077   5.998
  245TIP3   OH2  675   2.054   3.027   6.641
  245TIP3    H1  676   2.135   3.013   6.689
  245TIP3    H2  677   2.054   3.120   6.619
  246TIP3   OH2  678   2.635   3.365   5.775
  246TIP3    H1  679   2.689   3.329   5.845
  246TIP3    H2  680   2.683   3.441   5.744
  247TIP3   OH2  681   4.976   1.444   1.069
  247TIP3    H1  682   4.978   1.349   1.080
  247TIP3    H2  683   5.019   1.478   1.148
  248TIP3   OH2  684   3.630   5.161   3.104
  248TIP3    H1  685   3.614   5.094   3.037
  248TIP3    H2  686   3.692   5.221   3.062
  249TIP3   OH2  687   5.946   0.917   5.828
  249TIP3    H1  688   5.863   0.960   5.848
  249TIP3    H2  689   6.003   0.939   5.902
  250TIP3   OH2  690   6.067   2.673   5.822
  250TIP3    H1  691   5.978   2.640   5.813
  250TIP3    H2  692   6.121   2.610   5.775
  251TIP3   OH2  693   5.122   5.565   6.062
  251TIP3    H1  694   5.171   5.532   5.986
  251TIP3    H2  695   5.070   5.491   6.092
  252TIP3   OH2  696   3.474   2.848   4.740
  252TIP3    H1  697   3.445   2.867   4.651
  252TIP3    H2  698   3.491   2.754   4.740
  253TIP3   OH2  699   6.071   3.484   5.737
  253TIP3    H1  700   6.004   3.418   5.753
  253TIP3    H2  701   6.043   3.559   5.788
  254TIP3   OH2  702   4.353   1.080   4.790
  254TIP3    H1  703   4.432   1.134   4.782
  254TIP3    H2  704   4.281   1.140   4.771
  255TIP3   OH2  705   4.052   2.558   3.156
  255TIP3    H1  706   3.994   2.497   3.112
  255TIP3    H2  707   4.127   2.567   3.096
  256TIP3   OH2  708   1.512   3.919   6.126
  256TIP3    H1  709   1.524   3.998   6.179
  256TIP3    H2  710   1.547   3.848   6.179
  257TIP3   OH2  711   2.636   4.842   0.463
  257TIP3    H1  712   2.626   4.866   0.371
  257TIP3    H2  713   2.663   4.751   0.461
  258TIP3   OH2  714   5.721   3.755   1.169
  258TIP3    H1  715   5.791   3.780   1.110
  258TIP3    H2  716   5.665   3.833   1.175
  259TIP3   OH2  717   4.895   6.898   4.253
  259TIP3    H1  718   4.932   6.915   4.340
  259TIP3    H2  719   4.875   6.804   4.253
  260TIP3   OH2  720   3.515   4.777   1.641
  260TIP3    H1  721   3.588   4.838   1.636
  260TIP3    H2  722   3.444   4.820   1.593
  261TIP3   OH2  723   6.718   2.644   5.330
  261TIP3    H1  724   6.647   2.675   5.273
  261TIP3    H2  725   6.771   2.588   5.273
  262TIP3   OH2  726   6.635   1.015   2.779
  262TIP3    H1  727   6.669   0.931   2.748
  262TIP3    H2  728   6.615   1.000   2.871
  263TIP3   OH2  729   3.744   7.759   4.902
  263TIP3    H1  730   3.797   7.717   4.969
  263TIP3    H2  731   3.795   7.837   4.876
  264TIP3   OH2  732   6.071   7.071   5.784
  264TIP3    H1  733   6.123   7.021   5.721
  264TIP3    H2  734   6.116   7.156   5.789
  265TIP3   OH2  735   4.603   5.410   1.631
  265TIP3    H1  736   4.643   5.351   1.568
  265TIP3    H2  737   4.676   5.444   1.682
  266TIP3   OH2  738   7.318   4.112   2.814
  266TIP3    H1  739   7.228   4.137   2.835
  266TIP3    H2  740   7.369   4.139   2.890
  267TIP3   OH2  741   1.934   3.470   2.533
  267TIP3    H1  742   1.990   3.548   2.537
  267TIP3    H2  743   1.935   3.445   2.441
  268TIP3   OH2  744   3.308   7.139   4.692
  268TIP3    H1  745   3.249   7.067   4.669
  268TIP3    H2  746   3.369   7.101   4.755
  269TIP3   OH2  747   1.580   4.145   6.311
  269TIP3    H1  748   1.532   4.145   6.394
  269TIP3    H2  749   1.672   4.139   6.337
  270TIP3   OH2  750   7.501   6.425   4.139
  270TIP3    H1  751   7.476   6.484   4.211
  270TIP3    H2  752   7.422   6.374   4.123
  271TIP3   OH2  753   2.261   1.208   2.989
  271TIP3    H1  754   2.336   1.156   3.018
  271TIP3    H2  755   2.239   1.172   2.903
  272TIP3   OH2  756   3.922   7.527   0.377
  272TIP3    H1  757   3.867   7.468   0.429
  272TIP3    H2  758   3.860   7.576   0.324
  273TIP3   OH2  759   4.851   7.167   3.181
  273TIP3    H1  760   4.881   7.121   3.259
  273TIP3    H2  761   4.900   7.249   3.181
  274TIP3   OH2  762   6.616   7.189   0.855
  274TIP3    H1  763   6.614   7.118   0.919
  274TIP3    H2  764   6.627   7.269   0.906
  275TIP3   OH2  765   7.505   7.023   3.213
  275TIP3    H1  766   7.456   7.038   3.132
  275TIP3    H2  767   7.437   7.002   3.278
  276TIP3   OH2  768   6.330   0.348   3.651
  276TIP3    H1  769   6.403   0.391   3.607
  276TIP3    H2  770   6.262   0.341   3.584
  277TIP3   OH2  771   0.490   5.024   2.931
  277TIP3    H1  772   0.398   5.040   2.950
  277TIP3    H2  773   0.518   5.101   2.881
  278TIP3   OH2  774   8.051   5.954   5.853
  278TIP3    H1  775   8.015   5.876   5.896
  278TIP3    H2  776   8.114   5.921   5.790
  279TIP3   OH2  777   5.205   0.800   5.155
  279TIP3    H1  778   5.231   0.873   5.099
  279TIP3    H2  779   5.228   0.829   5.244
  280TIP3   OH2  780   0.036   5.050   1.939
  280TIP3    H1  781   0.091   5.008   2.005
  280TIP3    H2  782  -0.053   5.018   1.959
  281TIP3   OH2  783   0.852   4.431   2.717
  281TIP3    H1  784   0.904   4.465   2.790
  281TIP3    H2  785   0.873   4.338   2.714
  282TIP3   OH2  786   6.932   0.085   4.211
  282TIP3    H1  787   6.915   0.106   4.119
  282TIP3    H2  788   6.912  -0.008   4.219
  283TIP3   OH2  789   7.598   6.375   3.725
  283TIP3    H1  790   7.516   6.326   3.733
  283TIP3    H2  791   7.585   6.452   3.781
  284TIP3   OH2  792   6.177   5.614   1.915
  284TIP3    H1  793   6.176   5.669   1.837
  284TIP3    H2  794   6.105   5.648   1.968
  285TIP3   OH2  795   1.302   4.368   2.738
  285TIP3    H1  796   1.266   4.452   2.768
  285TIP3    H2  797   1.238   4.336   2.674
  286TIP3   OH2  798   1.769   5.165   5.409
  286TIP3    H1  799   1.835   5.190   5.344
  286TIP3    H2  800   1.794   5.212   5.488
  287TIP3   OH2  801   5.115   6.404   6.223
  287TIP3    H1  802   5.125   6.496   6.250
  287TIP3    H2  803   5.197   6.384   6.178
  288TIP3   OH2  804   8.358   4.347   1.838
  288TIP3    H1  805   8.370   4.292   1.915
  288TIP3    H2  806   8.287   4.305   1.789
  289TIP3   OH2  807   8.053   2.228   0.084
  289TIP3    H1  808   7.961   2.210   0.103
  289TIP3    H2  809   8.099   2.206   0.165
  290TIP3   OH2  810   0.175   7.456   6.007
  290TIP3    H1  811   0.265   7.423   6.019
  290TIP3    H2  812   0.184   7.526   5.942
  291TIP3   OH2  813   6.406   5.886   1.475
  291TIP3    H1  814   6.451   5.953   1.423
  291TIP3    H2  815   6.465   5.870   1.549
  292TIP3   OH2  816   1.055   6.953   5.514
  292TIP3    H1  817   0.979   7.010   5.508
  292TIP3    H2  818   1.036   6.881   5.454
  293TIP3   OH2  819   2.880   6.810   3.451
  293TIP3    H1  820   2.890   6.893   3.498
  293TIP3    H2  821   2.786   6.794   3.449
  294TIP3   OH2  822   2.789   4.422   2.433
  294TIP3    H1  823   2.748   4.502   2.465
  294TIP3    H2  824   2.873   4.417   2.479
  295TIP3   OH2  825   4.774   1.504   0.896
  295TIP3    H1  826   4.850   1.480   0.948
  295TIP3    H2  827   4.699   1.478   0.949
  296TIP3   OH2  828   2.525   5.455   0.895
  296TIP3    H1  829   2.473   5.515   0.842
  296TIP3    H2  830   2.565   5.395   0.832
  297TIP3   OH2  831   1.081   2.873   2.524
  297TIP3    H1  832   1.079   2.778   2.514
  297TIP3    H2  833   1.023   2.891   2.599
  298TIP3   OH2  834   2.702   0.673  -0.010
  298TIP3    H1  835   2.649   0.594  -0.011
  298TIP3    H2  836   2.754   0.666   0.069
  299TIP3   OH2  837   7.159   1.160   4.481
  299TIP3    H1  838   7.120   1.221   4.544
  299TIP3    H2  839   7.203   1.217   4.417
  300TIP3   OH2  840   2.611   6.850   0.065
  300TIP3    H1  841   2.570   6.770   0.032
  300TIP3    H2  842   2.659   6.885  -0.010
  301TIP3   OH2  843   5.875   4.939   5.099
  301TIP3    H1  844   5.889   4.868   5.037
  301TIP3    H2  845   5.819   5.001   5.052
  302TIP3   OH2  846   0.913   3.754   1.575
  302TIP3    H1  847   0.895   3.681   1.516
  302TIP3    H2  848   0.888   3.832   1.526
  303TIP3   OH2  849   4.028   7.287   4.258
  303TIP3    H1  850   4.091   7.359   4.261
  303TIP3    H2  851   3.951   7.321   4.302
  304TIP3   OH2  852   4.167   0.994   3.845
  304TIP3    H1  853   4.127   1.072   3.806
  304TIP3    H2  854   4.104   0.965   3.912
  305TIP3   OH2  855   1.580   2.905   0.461
  305TIP3    H1  856   1.506   2.960   0.436
  305TIP3    H2  857   1.587   2.916   0.556
  306TIP3   OH2  858   5.714   2.386   6.770
  306TIP3    H1  859   5.775   2.319   6.740
  306TIP3    H2  860   5.711   2.376   6.865
  307TIP3   OH2  861   0.384   5.251   4.861
  307TIP3    H1  862   0.478   5.267   4.869
  307TIP3    H2  863   0.344   5.338   4.869
  308TIP3   OH2  864   5.920   5.528   4.387
  308TIP3    H1  865   5.873   5.528   4.470
  308TIP3    H2  866   5.890   5.450   4.342
  309TIP3   OH2  867   4.896   1.236   2.611
  309TIP3    H1  868   4.815   1.192   2.584
  309TIP3    H2  869   4.949   1.239   2.531
  310TIP3   OH2  870   4.747   5.002   0.220
  310TIP3    H1  871   4.710   4.988   0.132
  310TIP3    H2  872   4.680   5.052   0.266
  311TIP3   OH2  873   0.430   4.719   6.390
  311TIP3    H1  874   0.519   4.731   6.423
  311TIP3    H2  875   0.374   4.742   6.464
  312TIP3   OH2  876   7.388   0.437   2.192
  312TIP3    H1  877   7.444   0.441   2.269
  312TIP3    H2  878   7.433   0.488   2.125
  313TIP3   OH2  879   5.855   3.689   4.762
  313TIP3    H1  880   5.898   3.651   4.838
  313TIP3    H2  881   5.766   3.655   4.765
  314TIP3   OH2  882   4.874   1.965   3.875
  314TIP3    H1  883   4.888   2.046   3.825
  314TIP3    H2  884   4.948   1.910   3.853
  315TIP3   OH2  885   6.766   6.687   5.386
  315TIP3    H1  886   6.806   6.613   5.432
  315TIP3    H2  887   6.806   6.764   5.425
  316TIP3   OH2  888   7.606   2.567   5.304
  316TIP3    H1  889   7.696   2.584   5.332
  316TIP3    H2  890   7.607   2.477   5.272
  317TIP3   OH2  891   5.247   2.345   0.450
  317TIP3    H1  892   5.336   2.378   0.445
  317TIP3    H2  893   5.237   2.289   0.373
  318TIP3   OH2  894   6.599   6.822   5.709
  318TIP3    H1  895   6.613   6.890   5.643
  318TIP3    H2  896   6.506   6.801   5.702
  319TIP3   OH2  897   2.009   7.161   2.009
  319TIP3    H1  898   2.027   7.087   2.067
  319TIP3    H2  899   1.920   7.188   2.031
  320TIP3   OH2  900   2.668   1.784   5.871
  320TIP3    H1  901   2.637   1.749   5.954
  320TIP3    H2  902   2.604   1.752   5.806
  321TIP3   OH2  903   5.470   6.817   5.536
  321TIP3    H1  904   5.479   6.729   5.499
  321TIP3    H2  905   5.511   6.874   5.471
  322TIP3   OH2  906   5.184   4.194   1.927
  322TIP3    H1  907   5.276   4.209   1.953
  322TIP3    H2  908   5.134   4.223   2.003
  323TIP3   OH2  909   8.170   5.433   0.772
  323TIP3    H1  910   8.159   5.528   0.766
  323TIP3    H2  911   8.081   5.400   0.787
  324TIP3   OH2  912   4.218   3.320   4.636
  324TIP3    H1  913   4.259   3.350   4.555
  324TIP3    H2  914   4.221   3.225   4.630
  325TIP3   OH2  915   1.944   0.846   1.722
  325TIP3    H1  916   1.955   0.874   1.631
  325TIP3    H2  917   1.866   0.790   1.720
  326TIP3   OH2  918   5.368   1.639   6.333
  326TIP3    H1  919   5.385   1.700   6.405
  326TIP3    H2  920   5.357   1.554   6.376
  327TIP3   OH2  921   6.098   2.926   6.519
  327TIP3    H1  922   6.075   2.855   6.460
  327TIP3    H2  923   6.188   2.949   6.496
  328TIP3   OH2  924   8.403   7.756   1.078
  328TIP3    H1  925   8.362   7.669   1.083
  328TIP3    H2  926   8.398   7.778   0.985
  329TIP3   OH2  927   3.558   4.941   5.111
  329TIP3    H1  928   3.576   4.882   5.184
  329TIP3    H2  929   3.644   4.966   5.077
  330TIP3   OH2  930   4.228   1.936   1.191
  330TIP3    H1  931   4.267   1.849   1.183
  330TIP3    H2  932   4.301   1.997   1.182
  331TIP3   OH2  933   6.704   2.831   6.194
  331TIP3    H1  934   6.794   2.803   6.209
  331TIP3    H2  935   6.662   2.822   6.280
  332TIP3   OH2  936   6.932   5.303   0.892
  332TIP3    H1  937   7.002   5.249   0.928
  332TIP3    H2  938   6.977   5.371   0.842
  333TIP3   OH2  939   4.605   6.140   5.451
  333TIP3    H1  940   4.617   6.178   5.537
  333TIP3    H2  941   4.523   6.090   5.458
  334TIP3   OH2  942   8.355   3.996   0.541
  334TIP3    H1  943   8.409   4.076   0.541
  334TIP3    H2  944   8.417   3.925   0.523
  335TIP3   OH2  945   0.597   2.051   6.797
  335TIP3    H1  946   0.682   2.066   6.755
  335TIP3    H2  947   0.538   2.114   6.755
  336TIP3   OH2  948   5.585   6.542   2.106
  336TIP3    H1  949   5.667   6.564   2.063
  336TIP3    H2  950   5.611   6.508   2.192
  337TIP3   OH2  951   8.187   1.687   6.248
  337TIP3    H1  952   8.109   1.686   6.304
  337TIP3    H2  953   8.169   1.755   6.184
  338TIP3   OH2  954   3.790   1.493   1.443
  338TIP3    H1  955   3.807   1.421   1.383
  338TIP3    H2  956   3.789   1.571   1.387
  339TIP3   OH2  957   6.527   4.619   3.198
  339TIP3    H1  958   6.456   4.679   3.174
  339TIP3    H2  959   6.571   4.599   3.115
  340TIP3   OH2  960   4.594   4.262   3.948
  340TIP3    H1  961   4.615   4.169   3.958
  340TIP3    H2  962   4.499   4.266   3.963
  341TIP3   OH2  963   4.045   2.201   6.323
  341TIP3    H1  964   4.014   2.197   6.232
  341TIP3    H2  965   4.128   2.248   6.318
  342TIP3   OH2  966   2.361   3.147   6.609
  342TIP3    H1  967   2.412   3.125   6.687
  342TIP3    H2  968   2.364   3.067   6.556
  343TIP3   OH2  969   6.280   3.766   2.106
  343TIP3    H1  970   6.329   3.697   2.061
  343TIP3    H2  971   6.258   3.828   2.038
  344TIP3   OH2  972   1.465   7.510   2.765
  344TIP3    H1  973   1.427   7.503   2.852
  344TIP3    H2  974   1.486   7.603   2.755
  345TIP3   OH2  975   7.258   5.784   4.980
  345TIP3    H1  976   7.251   5.862   4.925
  345TIP3    H2  977   7.238   5.711   4.922
  346TIP3   OH2  978   4.926   5.295   6.442
  346TIP3    H1  979   4.877   5.344   6.376
  346TIP3    H2  980   4.859   5.252   6.496
  347TIP3   OH2  981   7.714   5.607   2.269
  347TIP3    H1  982   7.768   5.668   2.319
  347TIP3    H2  983   7.743   5.520   2.299
  348TIP3   OH2  984   7.381   1.357   0.969
  348TIP3    H1  985   7.391   1.450   0.992
  348TIP3    H2  986   7.308   1.355   0.907
  349TIP3   OH2  987   4.900   0.970   0.206
  349TIP3    H1  988   4.935   0.940   0.122
  349TIP3    H2  989   4.919   1.063   0.208
  350TIP3   OH2  990   2.286   2.741   2.125
  350TIP3    H1  991   2.300   2.790   2.044
  350TIP3    H2  992   2.369   2.696   2.140
  351TIP3   OH2  993   0.097   7.001   3.381
  351TIP3    H1  994   0.040   7.037   3.313
  351TIP3    H2  995   0.058   6.916   3.401
  352TIP3   OH2  996   5.334   6.059   4.399
  352TIP3    H1  997   5.370   6.146   4.414
  352TIP3    H2  998   5.392   6.020   4.334
  353TIP3   OH2  999   2.194   0.402   3.203
  353TIP3    H1 1000   2.122   0.461   3.179
  353TIP3    H2 1001   2.154   0.338   3.261
  354TIP3   OH2 1002   6.342   2.814   2.672
  354TIP3    H1 1003   6.330   2.847   2.761
  354TIP3    H2 1004   6.268   2.850   2.623
  355TIP3   OH2 1005   4.488   5.865   0.111
  355TIP3    H1 1006   4.569   5.881   0.063
  355TIP3    H2 1007   4.424   5.845   0.043
  356TIP3   OH2 1008   4.535   2.685   6.238
  356TIP3    H1 1009   4.601   2.747   6.207
  356TIP3    H2 1010   4.497   2.726   6.316
  357TIP3   OH2 1011   5.300   3.966   1.414
  357TIP3    H1 1012   5.336   3.951   1.327
  357TIP3    H2 1013   5.264   4.054   1.411
  358TIP3   OH2 1014   1.771   6.454   1.597
  358TIP3    H1 1015   1.768   6.416   1.685
  358TIP3    H2 1016   1.781   6.548   1.612
  359TIP3   OH2 1017   6.782   3.793   0.077
  359TIP3    H1 1018   6.804   3.734   0.148
  359TIP3    H2 1019   6.763   3.877   0.119
  360TIP3   OH2 1020   7.053   7.212   0.290
  360TIP3    H1 1021   7.032   7.139   0.232
  360TIP3    H2 1022   7.117   7.177   0.351
  361TIP3   OH2 1023   2.978   1.421   2.488
  361TIP3    H1 1024   2.951   1.375   2.409
  361TIP3    H2 1025   2.918   1.495   2.495
  362TIP3   OH2 1026   5.768   7.483   1.635
  362TIP3    H1 1027   5.816   7.414   1.589
  362TIP3    H2 1028   5.680   7.448   1.645
  363TIP3   OH2 1029   5.745   0.849   3.596
  363TIP3    H1 1030   5.836   0.820   3.597
  363TIP3    H2 1031   5.696   0.776   3.558
  364TIP3   OH2 1032   2.148   3.896   6.475
  364TIP3    H1 1033   2.236   3.932   6.469
  364TIP3    H2 1034   2.102   3.930   6.398
  365TIP3   OH2 1035   7.720   7.480   5.765
  365TIP3    H1 1036   7.677   7.404   5.805
  365TIP3    H2 1037   7.662   7.504   5.692
  366TIP3   OH2 1038   8.101   7.641   0.705
  366TIP3    H1 1039   8.176   7.640   0.646
  366TIP3    H2 1040   8.071   7.731   0.704
  367TIP3   OH2 1041   0.713   6.735   1.068
  367TIP3    H1 1042   0.749   6.727   0.980
  367TIP3    H2 1043   0.710   6.645   1.101
  368TIP3   OH2 1044   3.567   0.384   4.303
  368TIP3    H1 1045   3.643   0.405   4.358
  368TIP3    H2 1046   3.565   0.288   4.300
  369TIP3   OH2 1047   4.682   7.603   1.298
  369TIP3    H1 1048   4.657   7.544   1.369
  369TIP3    H2 1049   4.731   7.673   1.342
  370TIP3   OH2 1050   2.108   5.282   0.267
  370TIP3    H1 1051   2.013   5.292   0.276
  370TIP3    H2 1052   2.121   5.187   0.267
  371TIP3   OH2 1053   4.073   0.580   2.229
  371TIP3    H1 1054   4.115   0.582   2.143
  371TIP3    H2 1055   4.085   0.490   2.259
  372TIP3   OH2 1056   1.527   3.648   2.523
  372TIP3    H1 1057   1.454   3.588   2.539
  372TIP3    H2 1058   1.585   3.636   2.598
  373TIP3   OH2 1059   4.430   4.793   0.294
  373TIP3    H1 1060   4.360   4.792   0.359
  373TIP3    H2 1061   4.385   4.810   0.211
  374TIP3   OH2 1062   2.388   0.841   3.382
  374TIP3    H1 1063   2.370   0.798   3.299
  374TIP3    H2 1064   2.437   0.920   3.359
  375TIP3   OH2 1065   5.066   4.919   6.496
  375TIP3    H1 1066   5.100   5.005   6.520
  375TIP3    H2 1067   5.017   4.935   6.415
  376TIP3   OH2 1068   2.939   7.690   2.422
  376TIP3    H1 1069   3.026   7.720   2.396
  376TIP3    H2 1070   2.927   7.724   2.511
  377TIP3   OH2 1071   7.955   3.241   4.564
  377TIP3    H1 1072   7.875   3.273   4.606
  377TIP3    H2 1073   7.943   3.146   4.558
  378TIP3   OH2 1074   4.071   2.670   2.700
  378TIP3    H1 1075   4.017   2.606   2.746
  378TIP3    H2 1076   4.144   2.620   2.664
  379TIP3   OH2 1077   5.879   0.249   1.749
  379TIP3    H1 1078   5.828   0.214   1.676
  379TIP3    H2 1079   5.970   0.239   1.723
  380TIP3   OH2 1080   1.581   5.822   0.547
  380TIP3    H1 1081   1.553   5.907   0.582
  380TIP3    H2 1082   1.663   5.803   0.592
  381TIP3   OH2 1083   1.152   3.031   6.494
  381TIP3    H1 1084   1.126   2.939   6.490
  381TIP3    H2 1085   1.160   3.057   6.402
  382TIP3   OH2 1086   7.528   0.699   6.547
  382TIP3    H1 1087   7.516   0.794   6.542
  382TIP3    H2 1088   7.574   0.685   6.630
  383TIP3   OH2 1089   7.863   4.843   5.277
  383TIP3    H1 1090   7.906   4.838   5.362
  383TIP3    H2 1091   7.927   4.886   5.220
  384TIP3   OH2 1092   5.145   1.434   3.983
  384TIP3    H1 1093   5.136   1.372   3.910
  384TIP3    H2 1094   5.238   1.451   3.988
  385TIP3   OH2 1095   5.506   4.600   2.688
  385TIP3    H1 1096   5.476   4.532   2.748
  385TIP3    H2 1097   5.435   4.664   2.687
  386TIP3   OH2 1098   7.650   4.141   6.297
  386TIP3    H1 1099   7.673   4.099   6.380
  386TIP3    H2 1100   7.562   4.174   6.309
  387TIP3   OH2 1101   2.869   1.941   1.342
  387TIP3    H1 1102   2.906   1.988   1.267
  387TIP3    H2 1103   2.888   1.997   1.418
  388TIP3   OH2 1104   3.486   1.781   6.488
  388TIP3    H1 1105   3.476   1.832   6.569
  388TIP3    H2 1106   3.410   1.805   6.436
  389TIP3   OH2 1107   4.030   6.410   4.919
  389TIP3    H1 1108   3.968   6.400   4.847
  389TIP3    H2 1109   4.096   6.342   4.905
  390TIP3   OH2 1110   1.207   4.564   1.419
  390TIP3    H1 1111   1.290   4.610   1.425
  390TIP3    H2 1112   1.170   4.592   1.335
  391TIP3   OH2 1113   7.333   1.759   1.999
  391TIP3    H1 1114   7.340   1.707   1.919
  391TIP3    H2 1115   7.283   1.705   2.060
  392TIP3   OH2 1116   3.235   7.670   4.699
  392TIP3    H1 1117   3.215   7.749   4.750
  392TIP3    H2 1118   3.160   7.613   4.711
  393TIP3   OH2 1119   2.458   4.728   5.194
  393TIP3    H1 1120   2.368   4.737   5.163
  393TIP3    H2 1121   2.452   4.668   5.269
  394TIP3   OH2 1122   3.257   5.192   3.771
  394TIP3    H1 1123   3.206   5.115   3.746
  394TIP3    H2 1124   3.206   5.266   3.739
  395TIP3   OH2 1125   2.920   6.840   1.009
  395TIP3    H1 1126   2.916   6.837   1.104
  395TIP3    H2 1127   2.874   6.921   0.985
  396TIP3   OH2 1128   5.740   6.123   5.041
  396TIP3    H1 1129   5.695   6.188   5.095
  396TIP3    H2 1130   5.817   6.098   5.093
  397TIP3   OH2 1131   7.976   4.725   2.441
  397TIP3    H1 1132   7.919   4.784   2.391
  397TIP3    H2 1133   8.001   4.657   2.378
  398TIP3   OH2 1134   4.172   2.235   1.145
  398TIP3    H1 1135   4.218   2.184   1.079
  398TIP3    H2 1136   4.086   2.251   1.107
  399TIP3   OH2 1137   2.381   2.389   3.708
  399TIP3    H1 1138   2.305   2.440   3.678
  399TIP3    H2 1139   2.426   2.362   3.629
  400TIP3   OH2 1140   1.552   5.280   1.954
  400TIP3    H1 1141   1.528   5.233   2.034
  400TIP3    H2 1142   1.469   5.315   1.921
  401TIP3   OH2 1143   6.253   6.388   3.198
  401TIP3    H1 1144   6.277   6.311   3.250
  401TIP3    H2 1145   6.174   6.362   3.152
  402TIP3   OH2 1146   4.980   4.459   1.476
  402TIP3    H1 1147   4.937   4.467   1.562
  402TIP3    H2 1148   4.960   4.542   1.432
  403TIP3   OH2 1149   6.521   0.288   5.561
  403TIP3    H1 1150   6.499   0.361   5.503
  403TIP3    H2 1151   6.617   0.288   5.564
  404TIP3   OH2 1152   0.705   2.606   2.057
  404TIP3    H1 1153   0.793   2.594   2.091
  404TIP3    H2 1154   0.706   2.563   1.971
  405TIP3   OH2 1155   1.386   0.339   0.730
  405TIP3    H1 1156   1.415   0.248   0.735
  405TIP3    H2 1157   1.305   0.335   0.680
  406TIP3   OH2 1158   5.351   5.297   2.240
  406TIP3    H1 1159   5.262   5.296   2.274
  406TIP3    H2 1160   5.357   5.380   2.193
  407TIP3   OH2 1161   2.857   2.672   3.181
  407TIP3    H1 1162   2.894   2.600   3.129
  407TIP3    H2 1163   2.858   2.640   3.271
  408TIP3   OH2 1164   7.989   0.871   3.358
  408TIP3    H1 1165   7.907   0.901   3.397
  408TIP3    H2 1166   8.024   0.949   3.314
  409TIP3   OH2 1167   3.599   5.604   5.609
  409TIP3    H1 1168   3.517   5.577   5.568
  409TIP3    H2 1169   3.645   5.652   5.540
  410TIP3   OH2 1170   1.930   5.951   6.199
  410TIP3    H1 1171   2.024   5.936   6.200
  410TIP3    H2 1172   1.920   6.040   6.165
  411TIP3   OH2 1173   1.511   0.768   1.286
  411TIP3    H1 1174   1.595   0.785   1.327
  411TIP3    H2 1175   1.447   0.814   1.340
  412TIP3   OH2 1176   4.717   2.514   6.163
  412TIP3    H1 1177   4.638   2.565   6.184
  412TIP3    H2 1178   4.760   2.564   6.094
  413TIP3   OH2 1179   4.004   7.777   3.758
  413TIP3    H1 1180   4.093   7.795   3.788
  413TIP3    H2 1181   3.988   7.686   3.782
  414TIP3   OH2 1182   7.455   1.646   1.785
  414TIP3    H1 1183   7.517   1.706   1.745
  414TIP3    H2 1184   7.405   1.610   1.711
  415TIP3   OH2 1185   6.497   5.581   6.736
  415TIP3    H1 1186   6.523   5.491   6.757
  415TIP3    H2 1187   6.417   5.571   6.684
  416TIP3   OH2 1188   4.048   3.227   5.557
  416TIP3    H1 1189   4.053   3.151   5.616
  416TIP3    H2 1190   4.056   3.190   5.469
  417TIP3   OH2 1191   3.472   3.673   6.113
  417TIP3    H1 1192   3.389   3.706   6.148
  417TIP3    H2 1193   3.522   3.645   6.190
  418TIP3   OH2 1194   2.993   0.727   0.991
  418TIP3    H1 1195   2.942   0.783   1.049
  418TIP3    H2 1196   3.022   0.786   0.921
  419TIP3   OH2 1197   6.068   2.086   2.373
  419TIP3    H1 1198   6.156   2.050   2.365
  419TIP3    H2 1199   6.012   2.022   2.328
  420TIP3   OH2 1200   3.478   0.547   3.903
  420TIP3    H1 1201   3.440   0.590   3.980
  420TIP3    H2 1202   3.492   0.618   3.841
  421TIP3   OH2 1203   5.020   5.338   1.949
  421TIP3    H1 1204   4.955   5.267   1.948
  421TIP3    H2 1205   4.983   5.403   2.009
  422TIP3   OH2 1206   6.957   5.261   1.306
  422TIP3    H1 1207   6.946   5.351   1.337
  422TIP3    H2 1208   7.047   5.259   1.272
  423TIP3   OH2 1209   1.225   5.217   4.980
  423TIP3    H1 1210   1.244   5.198   4.888
  423TIP3    H2 1211   1.291   5.281   5.005
  424TIP3   OH2 1212   4.913   0.695   0.428
  424TIP3    H1 1213   4.970   0.732   0.361
  424TIP3    H2 1214   4.833   0.671   0.381
  425TIP3   OH2 1215   1.285   7.575   0.094
  425TIP3    H1 1216   1.209   7.619   0.057
  425TIP3    H2 1217   1.338   7.646   0.131
  426TIP3   OH2 1218   3.713   1.341   1.052
  426TIP3    H1 1219   3.674   1.257   1.027
  426TIP3    H2 1220   3.713   1.392   0.970
  427TIP3   OH2 1221   7.575   5.664   6.621
  427TIP3    H1 1222   7.663   5.687   6.590
  427TIP3    H2 1223   7.578   5.677   6.715
  428TIP3   OH2 1224   1.210   3.604   2.083
  428TIP3    H1 1225   1.281   3.541   2.093
  428TIP3    H2 1226   1.183   3.624   2.172
  429TIP3   OH2 1227   0.519   3.484   6.230
  429TIP3    H1 1228   0.514   3.566   6.280
  429TIP3    H2 1229   0.583   3.431   6.278
  430TIP3   OH2 1230   3.292   7.861   1.524
  430TIP3    H1 1231   3.306   7.887   1.616
  430TIP3    H2 1232   3.197   7.865   1.512
  431TIP3   OH2 1233   5.349   7.436   1.464
  431TIP3    H1 1234   5.397   7.365   1.506
  431TIP3    H2 1235   5.393   7.448   1.379
  432TIP3   OH2 1236   1.109   2.320   3.616
  432TIP3    H1 1237   1.068   2.362   3.540
  432TIP3    H2 1238   1.202   2.337   3.606
  433TIP3   OH2 1239   1.191   5.189   0.359
  433TIP3    H1 1240   1.223   5.274   0.388
  433TIP3    H2 1241   1.183   5.137   0.439
  434TIP3   OH2 1242   7.709   0.347   6.845
  434TIP3    H1 1243   7.659   0.304   6.776
  434TIP3    H2 1244   7.670   0.315   6.927
  435TIP3   OH2 1245   4.838   5.992   5.045
  435TIP3    H1 1246   4.903   6.034   4.990
  435TIP3    H2 1247   4.789   6.064   5.085
  436TIP3   OH2 1248   7.200   0.551   1.277
  436TIP3    H1 1249   7.203   0.466   1.233
  436TIP3    H2 1250   7.267   0.547   1.345
  437TIP3   OH2 1251   1.891   1.395   3.124
  437TIP3    H1 1252   1.834   1.449   3.070
  437TIP3    H2 1253   1.980   1.424   3.103
  438TIP3   OH2 1254   0.029   0.170   6.371
  438TIP3    H1 1255   0.039   0.231   6.444
  438TIP3    H2 1256   0.031   0.225   6.293
  439TIP3   OH2 1257   1.250   7.414   6.613
  439TIP3    H1 1258   1.225   7.502   6.585
  439TIP3    H2 1259   1.178   7.358   6.583
  440TIP3   OH2 1260   7.189   6.979   3.713
  440TIP3    H1 1261   7.150   6.952   3.796
  440TIP3    H2 1262   7.231   7.063   3.733
  441TIP3   OH2 1263   4.339   5.802   4.607
  441TIP3    H1 1264   4.357   5.716   4.568
  441TIP3    H2 1265   4.398   5.862   4.562
  442TIP3   OH2 1266   3.698   3.431   2.321
  442TIP3    H1 1267   3.641   3.368   2.366
  442TIP3    H2 1268   3.786   3.393   2.328
  443TIP3   OH2 1269   6.636   5.107   0.656
  443TIP3    H1 1270   6.669   5.187   0.614
  443TIP3    H2 1271   6.582   5.065   0.588
  444TIP3   OH2 1272   3.037   7.462   6.062
  444TIP3    H1 1273   3.119   7.508   6.082
  444TIP3    H2 1274   3.059   7.369   6.070
  445TIP3   OH2 1275   2.548   2.356   2.947
  445TIP3    H1 1276   2.533   2.449   2.964
  445TIP3    H2 1277   2.461   2.317   2.942
  446TIP3   OH2 1278   6.480   1.728   4.748
  446TIP3    H1 1279   6.507   1.644   4.785
  446TIP3    H2 1280   6.515   1.727   4.659
  447TIP3   OH2 1281   2.787   2.401   4.999
  447TIP3    H1 1282   2.842   2.338   5.044
  447TIP3    H2 1283   2.727   2.348   4.946
  448TIP3   OH2 1284   3.318   4.701   0.111
  448TIP3    H1 1285   3.303   4.626   0.168
  448TIP3    H2 1286   3.412   4.697   0.090
  449TIP3   OH2 1287   4.553   1.044   1.826
  449TIP3    H1 1288   4.526   0.965   1.872
  449TIP3    H2 1289   4.490   1.053   1.754
  450TIP3   OH2 1290   0.918   0.695   2.863
  450TIP3    H1 1291   0.918   0.655   2.950
  450TIP3    H2 1292   1.010   0.696   2.836
  451TIP3   OH2 1293   3.137   4.528   3.093
  451TIP3    H1 1294   3.160   4.503   3.183
  451TIP3    H2 1295   3.044   4.505   3.085
  452TIP3   OH2 1296   1.232   5.854   2.972
  452TIP3    H1 1297   1.325   5.834   2.959
  452TIP3    H2 1298   1.229   5.950   2.979
  453TIP3   OH2 1299   5.570   2.353   1.041
  453TIP3    H1 1300   5.618   2.373   0.961
  453TIP3    H2 1301   5.605   2.269   1.070
  454TIP3   OH2 1302   7.487   0.707   3.471
  454TIP3    H1 1303   7.486   0.672   3.381
  454TIP3    H2 1304   7.415   0.662   3.515
  455TIP3   OH2 1305   7.253   1.564   0.315
  455TIP3    H1 1306   7.176   1.620   0.308
  455TIP3    H2 1307   7.327   1.624   0.302
  456TIP3   OH2 1308   4.225   0.181   1.143
  456TIP3    H1 1309   4.262   0.252   1.196
  456TIP3    H2 1310   4.159   0.224   1.089
  457TIP3   OH2 1311   1.245   3.564   4.677
  457TIP3    H1 1312   1.265   3.497   4.742
  457TIP3    H2 1313   1.151   3.580   4.686
  458TIP3   OH2 1314   7.742   0.007   1.027
  458TIP3    H1 1315   7.714   0.088   0.986
  458TIP3    H2 1316   7.834   0.022   1.051
  459TIP3   OH2 1317   7.164   3.194   3.304
  459TIP3    H1 1318   7.146   3.103   3.329
  459TIP3    H2 1319   7.188   3.237   3.386
  460TIP3   OH2 1320   7.292   0.100   2.751
  460TIP3    H1 1321   7.282   0.103   2.846
  460TIP3    H2 1322   7.318   0.189   2.726
  461TIP3   OH2 1323   4.360   0.748   4.299
  461TIP3    H1 1324   4.445   0.792   4.304
  461TIP3    H2 1325   4.355   0.699   4.381
  462TIP3   OH2 1326   7.562   6.885   1.537
  462TIP3    H1 1327   7.574   6.903   1.444
  462TIP3    H2 1328   7.497   6.950   1.566
  463TIP3   OH2 1329   0.658   0.494   3.603
  463TIP3    H1 1330   0.568   0.519   3.624
  463TIP3    H2 1331   0.699   0.478   3.688
  464TIP3   OH2 1332   2.899   1.485   6.647
  464TIP3    H1 1333   2.959   1.541   6.598
  464TIP3    H2 1334   2.932   1.396   6.632
  465TIP3   OH2 1335   2.344   4.700   6.451
  465TIP3    H1 1336   2.307   4.756   6.520
  465TIP3    H2 1337   2.328   4.611   6.481
  466TIP3   OH2 1338   4.256   1.399   5.008
  466TIP3    H1 1339   4.297   1.358   5.083
  466TIP3    H2 1340   4.253   1.330   4.941
  467TIP3   OH2 1341   4.141   4.041   5.223
  467TIP3    H1 1342   4.052   4.070   5.241
  467TIP3    H2 1343   4.167   4.090   5.145
  468TIP3   OH2 1344   6.969   3.872   1.734
  468TIP3    H1 1345   6.879   3.887   1.706
  468TIP3    H2 1346   7.003   3.960   1.753
  469TIP3   OH2 1347   3.692   3.081   3.377
  469TIP3    H1 1348   3.676   3.144   3.448
  469TIP3    H2 1349   3.606   3.040   3.362
  470TIP3   OH2 1350   8.271   6.021   0.492
  470TIP3    H1 1351   8.325   6.088   0.534
  470TIP3    H2 1352   8.183   6.036   0.528
  471TIP3   OH2 1353   1.548   4.389   2.560
  471TIP3    H1 1354   1.455   4.371   2.572
  471TIP3    H2 1355   1.592   4.306   2.579
  472TIP3   OH2 1356   3.378   0.609   1.536
  472TIP3    H1 1357   3.378   0.682   1.474
  472TIP3    H2 1358   3.442   0.635   1.603
  473TIP3   OH2 1359   4.930   6.285   1.791
  473TIP3    H1 1360   4.958   6.269   1.881
  473TIP3    H2 1361   4.884   6.369   1.794
  474TIP3   OH2 1362   6.268   4.373   6.120
  474TIP3    H1 1363   6.233   4.287   6.144
  474TIP3    H2 1364   6.356   4.353   6.086
  475TIP3   OH2 1365   5.111   2.067   2.595
  475TIP3    H1 1366   5.040   2.116   2.636
  475TIP3    H2 1367   5.070   1.985   2.566
  476TIP3   OH2 1368   5.738   0.464   2.658
  476TIP3    H1 1369   5.782   0.382   2.684
  476TIP3    H2 1370   5.791   0.533   2.698
  477TIP3   OH2 1371   1.971   1.526   6.212
  477TIP3    H1 1372   1.929   1.499   6.130
  477TIP3    H2 1373   2.051   1.572   6.184
  478TIP3   OH2 1374   7.878   2.807   2.087
  478TIP3    H1 1375   7.786   2.781   2.077
  478TIP3    H2 1376   7.873   2.894   2.126
  479TIP3   OH2 1377   7.667   1.234   3.337
  479TIP3    H1 1378   7.703   1.246   3.425
  479TIP3    H2 1379   7.585   1.186   3.351
  480TIP3   OH2 1380   6.800   3.366   4.002
  480TIP3    H1 1381   6.734   3.315   3.955
  480TIP3    H2 1382   6.805   3.449   3.954
  481TIP3   OH2 1383   1.185   7.539   3.673
  481TIP3    H1 1384   1.125   7.478   3.715
  481TIP3    H2 1385   1.224   7.589   3.745
  482TIP3   OH2 1386   2.452   4.071   1.404
  482TIP3    H1 1387   2.433   4.048   1.313
  482TIP3    H2 1388   2.393   4.016   1.455
  483TIP3   OH2 1389   4.254   4.719   6.612
  483TIP3    H1 1390   4.287   4.662   6.543
  483TIP3    H2 1391   4.203   4.786   6.566
  484TIP3   OH2 1392   3.723   7.343   2.913
  484TIP3    H1 1393   3.675   7.368   2.835
  484TIP3    H2 1394   3.776   7.268   2.885
  485TIP3   OH2 1395   6.250   7.226   1.480
  485TIP3    H1 1396   6.263   7.180   1.396
  485TIP3    H2 1397   6.331   7.274   1.494
  486TIP3   OH2 1398  -0.010   2.540   6.783
  486TIP3    H1 1399  -0.006   2.539   6.688
  486TIP3    H2 1400   0.059   2.601   6.810
  487TIP3   OH2 1401   6.686   7.122   2.114
  487TIP3    H1 1402   6.739   7.042   2.115
  487TIP3    H2 1403   6.636   7.118   2.196
  488TIP3   OH2 1404   2.574   0.921   6.263
  488TIP3    H1 1405   2.537   0.990   6.207
  488TIP3    H2 1406   2.649   0.963   6.306
  489TIP3   OH2 1407   7.910   4.904   6.847
  489TIP3    H1 1408   8.001   4.877   6.858
  489TIP3    H2 1409   7.890   4.881   6.756
  490TIP3   OH2 1410   1.066   1.310   5.797
  490TIP3    H1 1411   1.063   1.282   5.706
  490TIP3    H2 1412   1.078   1.405   5.793
  491TIP3   OH2 1413   0.999   2.558   0.537
  491TIP3    H1 1414   1.050   2.601   0.605
  491TIP3    H2 1415   1.015   2.465   0.550
  492TIP3   OH2 1416   7.028   4.994   6.708
  492TIP3    H1 1417   7.009   4.906   6.678
  492TIP3    H2 1418   6.984   5.051   6.645
  493TIP3   OH2 1419   1.314   6.608   2.024
  493TIP3    H1 1420   1.382   6.601   1.957
  493TIP3    H2 1421   1.252   6.672   1.989
  494TIP3   OH2 1422   2.935   0.664   4.998
  494TIP3    H1 1423   2.912   0.729   4.931
  494TIP3    H2 1424   2.940   0.714   5.079
  495TIP3   OH2 1425   6.126   1.926   4.834
  495TIP3    H1 1426   6.077   1.952   4.912
  495TIP3    H2 1427   6.200   1.987   4.831
  496TIP3   OH2 1428   2.969   0.372   5.080
  496TIP3    H1 1429   2.936   0.459   5.061
  496TIP3    H2 1430   2.890   0.320   5.097
  497TIP3   OH2 1431   2.159   6.827   5.712
  497TIP3    H1 1432   2.170   6.896   5.778
  497TIP3    H2 1433   2.128   6.751   5.761
  498TIP3   OH2 1434   1.780   0.879   2.996
  498TIP3    H1 1435   1.777   0.900   2.902
  498TIP3    H2 1436   1.812   0.959   3.038
  499TIP3   OH2 1437   0.827   1.689   6.105
  499TIP3    H1 1438   0.862   1.602   6.124
  499TIP3    H2 1439   0.770   1.709   6.179
  500TIP3   OH2 1440   7.885   3.383   3.680
  500TIP3    H1 1441   7.942   3.307   3.678
  500TIP3    H2 1442   7.912   3.431   3.758
  501TIP3   OH2 1443   2.597   4.184   5.057
  501TIP3    H1 1444   2.595   4.210   5.149
  501TIP3    H2 1445   2.688   4.160   5.041
  502TIP3   OH2 1446   2.329   1.396   1.517
  502TIP3    H1 1447   2.399   1.408   1.580
  502TIP3    H2 1448   2.372   1.357   1.440
  503TIP3   OH2 1449   3.833   2.842   4.366
  503TIP3    H1 1450   3.884   2.777   4.318
  503TIP3    H2 1451   3.754   2.796   4.393
  504TIP3   OH2 1452   4.052   0.942   2.350
  504TIP3    H1 1453   3.998   0.886   2.405
  504TIP3    H2 1454   4.002   0.952   2.269
  505TIP3   OH2 1455   5.401   7.802   3.716
  505TIP3    H1 1456   5.408   7.716   3.674
  505TIP3    H2 1457   5.485   7.813   3.762
  506TIP3   OH2 1458   7.708   7.428   5.179
  506TIP3    H1 1459   7.754   7.346   5.197
  506TIP3    H2 1460   7.616   7.408   5.196
  507TIP3   OH2 1461   5.048   2.580   5.956
  507TIP3    H1 1462   5.069   2.505   5.901
  507TIP3    H2 1463   5.055   2.547   6.045
  508TIP3   OH2 1464   0.976   0.370   5.534
  508TIP3    H1 1465   0.914   0.385   5.605
  508TIP3    H2 1466   0.926   0.389   5.454
  509TIP3   OH2 1467   2.101   2.548   5.829
  509TIP3    H1 1468   2.192   2.521   5.824
  509TIP3    H2 1469   2.103   2.634   5.872
  510TIP3   OH2 1470   1.891   0.176   1.577
  510TIP3    H1 1471   1.899   0.127   1.659
  510TIP3    H2 1472   1.805   0.218   1.583
  511TIP3   OH2 1473   0.909   1.939   6.770
  511TIP3    H1 1474   0.920   2.031   6.747
  511TIP3    H2 1475   0.880   1.897   6.689
  512TIP3   OH2 1476   3.728   0.887   3.410
  512TIP3    H1 1477   3.812   0.917   3.444
  512TIP3    H2 1478   3.693   0.961   3.361
  513TIP3   OH2 1479   6.271   6.493   0.917
  513TIP3    H1 1480   6.304   6.404   0.932
  513TIP3    H2 1481   6.325   6.526   0.846
  514TIP3   OH2 1482   2.369   2.840   1.761
  514TIP3    H1 1483   2.285   2.866   1.798
  514TIP3    H2 1484   2.361   2.746   1.748
  515TIP3   OH2 1485   1.830   2.833   1.411
  515TIP3    H1 1486   1.811   2.898   1.343
  515TIP3    H2 1487   1.925   2.837   1.422
  516TIP3   OH2 1488   6.156   7.303   4.518
  516TIP3    H1 1489   6.222   7.347   4.465
  516TIP3    H2 1490   6.094   7.267   4.454
  517TIP3   OH2 1491   0.881   5.462   6.248
  517TIP3    H1 1492   0.815   5.525   6.219
  517TIP3    H2 1493   0.964   5.510   6.243
  518TIP3   OH2 1494   2.267   6.471   2.627
  518TIP3    H1 1495   2.203   6.414   2.584
  518TIP3    H2 1496   2.216   6.516   2.696
  519TIP3   OH2 1497   4.972   3.406   2.760
  519TIP3    H1 1498   5.025   3.337   2.721
  519TIP3    H2 1499   4.885   3.394   2.722
  520TIP3   OH2 1500   2.025   1.438   4.147
  520TIP3    H1 1501   2.083   1.365   4.127
  520TIP3    H2 1502   1.992   1.419   4.234
  521TIP3   OH2 1503   0.380   0.962   0.159
  521TIP3    H1 1504   0.473   0.986   0.167
  521TIP3    H2 1505   0.356   0.992   0.071
  522TIP3   OH2 1506   1.658   6.121   1.090
  522TIP3    H1 1507   1.690   6.166   1.169
  522TIP3    H2 1508   1.588   6.178   1.057
  523TIP3   OH2 1509   3.896   5.156   2.229
  523TIP3    H1 1510   3.851   5.073   2.213
  523TIP3    H2 1511   3.858   5.188   2.311
  524TIP3   OH2 1512   5.798   0.464   3.810
  524TIP3    H1 1513   5.878   0.514   3.826
  524TIP3    H2 1514   5.791   0.406   3.885
  525TIP3   OH2 1515   0.574   7.680   1.180
  525TIP3    H1 1516   0.569   7.741   1.254
  525TIP3    H2 1517   0.501   7.705   1.123
  526TIP3   OH2 1518   1.347   3.320   5.411
  526TIP3    H1 1519   1.316   3.410   5.417
  526TIP3    H2 1520   1.268   3.267   5.399
  527TIP3   OH2 1521   2.657   2.094   1.914
  527TIP3    H1 1522   2.643   2.025   1.978
  527TIP3    H2 1523   2.587   2.083   1.850
  528TIP3   OH2 1524   7.415   7.320   1.510
  528TIP3    H1 1525   7.434   7.245   1.455
  528TIP3    H2 1526   7.478   7.387   1.482
  529TIP3   OH2 1527   1.267   1.001   4.103
  529TIP3    H1 1528   1.314   0.975   4.023
  529TIP3    H2 1529   1.218   1.080   4.078
  530TIP3   OH2 1530   0.751   5.349   1.594
  530TIP3    H1 1531   0.741   5.420   1.657
  530TIP3    H2 1532   0.827   5.374   1.542
  531TIP3   OH2 1533   5.673   4.961   0.911
  531TIP3    H1 1534   5.682   4.877   0.956
  531TIP3    H2 1535   5.724   5.022   0.964
  532TIP3   OH2 1536   7.947   6.625   4.663
  532TIP3    H1 1537   8.010   6.603   4.594
  532TIP3    H2 1538   8.000   6.665   4.732
  533TIP3   OH2 1539   6.493   0.626   6.047
  533TIP3    H1 1540   6.436   0.695   6.080
  533TIP3    H2 1541   6.554   0.671   5.989
  534TIP3   OH2 1542   0.035   3.637   2.230
  534TIP3    H1 1543   0.130   3.634   2.221
  534TIP3    H2 1544   0.003   3.663   2.144
  535TIP3   OH2 1545   3.724   1.359   6.385
  535TIP3    H1 1546   3.747   1.451   6.371
  535TIP3    H2 1547   3.759   1.314   6.309
  536TIP3   OH2 1548   0.427   5.047   0.686
  536TIP3    H1 1549   0.482   4.976   0.653
  536TIP3    H2 1550   0.485   5.100   0.740
  537TIP3   OH2 1551   4.641   7.495   4.803
  537TIP3    H1 1552   4.617   7.474   4.894
  537TIP3    H2 1553   4.627   7.413   4.756
  538TIP3   OH2 1554   8.407   0.449   1.018
  538TIP3    H1 1555   8.313   0.466   1.023
  538TIP3    H2 1556   8.429   0.408   1.101
  539TIP3   OH2 1557   8.099   3.717   1.537
  539TIP3    H1 1558   8.128   3.780   1.472
  539TIP3    H2 1559   8.031   3.666   1.493
  540TIP3   OH2 1560   7.828   4.336   1.816
  540TIP3    H1 1561   7.757   4.395   1.843
  540TIP3    H2 1562   7.898   4.394   1.788
  541TIP3   OH2 1563   6.485   3.219   5.297
  541TIP3    H1 1564   6.395   3.252   5.299
  541TIP3    H2 1565   6.478   3.133   5.256
  542TIP3   OH2 1566   1.044   6.015   2.070
  542TIP3    H1 1567   1.094   6.047   2.145
  542TIP3    H2 1568   1.088   5.935   2.044
  543TIP3   OH2 1569   5.318   6.442   4.106
  543TIP3    H1 1570   5.315   6.538   4.116
  543TIP3    H2 1571   5.266   6.409   4.180
  544TIP3   OH2 1572   7.049   3.250   6.626
  544TIP3    H1 1573   6.998   3.259   6.546
  544TIP3    H2 1574   7.006   3.309   6.688
  545TIP3   OH2 1575   7.086   1.514   6.477
  545TIP3    H1 1576   7.043   1.590   6.438
  545TIP3    H2 1577   7.125   1.548   6.557
  546TIP3   OH2 1578   0.843   6.443   6.546
  546TIP3    H1 1579   0.751   6.444   6.573
  546TIP3    H2 1580   0.868   6.535   6.543
  547TIP3   OH2 1581   1.550   3.177   1.781
  547TIP3    H1 1582   1.502   3.209   1.705
  547TIP3    H2 1583   1.603   3.252   1.810
  548TIP3   OH2 1584   7.977   5.774   0.436
  548TIP3    H1 1585   7.882   5.782   0.440
  548TIP3    H2 1586   8.004   5.758   0.527
  549TIP3   OH2 1587   2.211   3.389   5.877
  549TIP3    H1 1588   2.287   3.415   5.927
  549TIP3    H2 1589   2.241   3.316   5.823
  550TIP3   OH2 1590   3.316   7.532   3.378
  550TIP3    H1 1591   3.356   7.547   3.293
  550TIP3    H2 1592   3.372   7.467   3.420
  551TIP3   OH2 1593   1.201   2.946   4.010
  551TIP3    H1 1594   1.222   3.025   3.961
  551TIP3    H2 1595   1.250   2.956   4.092
  552TIP3   OH2 1596   0.437   3.872   6.626
  552TIP3    H1 1597   0.528   3.894   6.646
  552TIP3    H2 1598   0.434   3.777   6.631
  553TIP3   OH2 1599   6.463   0.233   2.517
  553TIP3    H1 1600   6.466   0.328   2.506
  553TIP3    H2 1601   6.548   0.203   2.485
  554TIP3   OH2 1602   1.585   3.633   1.848
  554TIP3    H1 1603   1.490   3.623   1.838
  554TIP3    H2 1604   1.596   3.686   1.926
  555TIP3   OH2 1605   8.302   2.864   4.248
  555TIP3    H1 1606   8.345   2.917   4.315
  555TIP3    H2 1607   8.280   2.927   4.179
  556TIP3   OH2 1608   7.023   0.656   1.932
  556TIP3    H1 1609   7.107   0.693   1.906
  556TIP3    H2 1610   7.043   0.601   2.008
  557TIP3   OH2 1611   0.329   6.483   5.473
  557TIP3    H1 1612   0.369   6.504   5.557
  557TIP3    H2 1613   0.386   6.417   5.435
  558TIP3   OH2 1614   7.542   6.211   1.825
  558TIP3    H1 1615   7.576   6.201   1.914
  558TIP3    H2 1616   7.463   6.158   1.823
  559TIP3   OH2 1617   3.619   3.585   6.705
  559TIP3    H1 1618   3.708   3.619   6.713
  559TIP3    H2 1619   3.601   3.587   6.611
  560TIP3   OH2 1620   4.030   0.102   2.504
  560TIP3    H1 1621   3.981   0.020   2.516
  560TIP3    H2 1622   4.101   0.096   2.568
  561TIP3   OH2 1623   0.930   2.145   3.710
  561TIP3    H1 1624   0.923   2.120   3.618
  561TIP3    H2 1625   0.999   2.211   3.712
  562TIP3   OH2 1626   3.599   0.079   6.039
  562TIP3    H1 1627   3.638   0.048   6.121
  562TIP3    H2 1628   3.581   0.172   6.054
  563TIP3   OH2 1629   8.163   0.739   2.964
  563TIP3    H1 1630   8.155   0.831   2.987
  563TIP3    H2 1631   8.140   0.692   3.044
  564TIP3   OH2 1632   5.188   7.423   2.457
  564TIP3    H1 1633   5.093   7.435   2.448
  564TIP3    H2 1634   5.225   7.506   2.426
  565TIP3   OH2 1635   1.976   6.776   1.498
  565TIP3    H1 1636   1.981   6.735   1.585
  565TIP3    H2 1637   2.067   6.792   1.474
  566TIP3   OH2 1638   1.022   5.409   0.269
  566TIP3    H1 1639   0.975   5.433   0.349
  566TIP3    H2 1640   1.086   5.343   0.298
  567TIP3   OH2 1641   8.087   3.067   1.932
  567TIP3    H1 1642   7.992   3.066   1.919
  567TIP3    H2 1643   8.119   3.132   1.870
  568TIP3   OH2 1644   0.296   0.055   1.357
  568TIP3    H1 1645   0.204   0.055   1.383
  568TIP3    H2 1646   0.343   0.030   1.437
  569TIP3   OH2 1647   1.266   7.892   0.750
  569TIP3    H1 1648   1.181   7.912   0.791
  569TIP3    H2 1649   1.257   7.921   0.660
  570TIP3   OH2 1650   7.217   6.979   3.304
  570TIP3    H1 1651   7.189   7.022   3.224
  570TIP3    H2 1652   7.200   7.043   3.373
  571TIP3   OH2 1653   7.314   1.868   6.033
  571TIP3    H1 1654   7.318   1.786   5.984
  571TIP3    H2 1655   7.287   1.933   5.969
  572TIP3   OH2 1656   7.783   5.366   1.051
  572TIP3    H1 1657   7.832   5.444   1.078
  572TIP3    H2 1658   7.693   5.397   1.041
  573TIP3   OH2 1659   4.406   2.727   2.630
  573TIP3    H1 1660   4.363   2.652   2.590
  573TIP3    H2 1661   4.499   2.705   2.630
  574TIP3   OH2 1662   4.542   3.624   3.774
  574TIP3    H1 1663   4.477   3.596   3.710
  574TIP3    H2 1664   4.624   3.632   3.725
  575TIP3   OH2 1665   7.392   6.741   0.049
  575TIP3    H1 1666   7.434   6.697   0.123
  575TIP3    H2 1667   7.464   6.767  -0.008
  576TIP3   OH2 1668   3.963   5.610   6.350
  576TIP3    H1 1669   3.952   5.630   6.257
  576TIP3    H2 1670   3.973   5.696   6.391
  577TIP3   OH2 1671   6.154   5.994   1.876
  577TIP3    H1 1672   6.135   5.972   1.785
  577TIP3    H2 1673   6.212   5.924   1.906
  578TIP3   OH2 1674   1.386   1.874   6.330
  578TIP3    H1 1675   1.346   1.881   6.243
  578TIP3    H2 1676   1.453   1.941   6.332
  579TIP3   OH2 1677   3.151   1.718   4.755
  579TIP3    H1 1678   3.075   1.707   4.811
  579TIP3    H2 1679   3.203   1.786   4.798
  580TIP3   OH2 1680   4.598   3.324   3.729
  580TIP3    H1 1681   4.513   3.361   3.702
  580TIP3    H2 1682   4.657   3.399   3.729
  581TIP3   OH2 1683   3.192   2.253   3.773
  581TIP3    H1 1684   3.114   2.307   3.785
  581TIP3    H2 1685   3.202   2.206   3.856
  582TIP3   OH2 1686   2.893   3.593   4.347
  582TIP3    H1 1687   2.830   3.554   4.408
  582TIP3    H2 1688   2.842   3.611   4.268
  583TIP3   OH2 1689   3.053   7.860   6.640
  583TIP3    H1 1690   3.018   7.938   6.598
  583TIP3    H2 1691   3.101   7.893   6.716
  584TIP3   OH2 1692   5.360   2.476   1.452
  584TIP3    H1 1693   5.358   2.568   1.424
  584TIP3    H2 1694   5.445   2.466   1.495
  585TIP3   OH2 1695   0.233   6.441   2.272
  585TIP3    H1 1696   0.236   6.410   2.363
  585TIP3    H2 1697   0.165   6.388   2.231
  586TIP3   OH2 1698   7.620   1.794   6.496
  586TIP3    H1 1699   7.599   1.796   6.589
  586TIP3    H2 1700   7.539   1.766   6.454
  587TIP3   OH2 1701   1.185   6.005   4.417
  587TIP3    H1 1702   1.228   6.040   4.495
  587TIP3    H2 1703   1.114   5.951   4.452
  588TIP3   OH2 1704   7.629   0.462   4.971
  588TIP3    H1 1705   7.580   0.383   4.950
  588TIP3    H2 1706   7.716   0.430   4.996
  589TIP3   OH2 1707   0.024   4.139   3.750
  589TIP3    H1 1708  -0.044   4.183   3.699
  589TIP3    H2 1709   0.086   4.209   3.772
  590TIP3   OH2 1710   0.954   4.226   0.566
  590TIP3    H1 1711   0.870   4.229   0.612
  590TIP3    H2 1712   0.945   4.291   0.496
  591TIP3   OH2 1713   3.463   3.328   3.148
  591TIP3    H1 1714   3.493   3.284   3.069
  591TIP3    H2 1715   3.509   3.283   3.220
  592TIP3   OH2 1716   1.269   6.207   3.228
  592TIP3    H1 1717   1.271   6.196   3.133
  592TIP3    H2 1718   1.284   6.119   3.262
  593TIP3   OH2 1719   2.387   4.779   1.853
  593TIP3    H1 1720   2.450   4.828   1.906
  593TIP3    H2 1721   2.437   4.706   1.817
  594TIP3   OH2 1722   7.752   5.682   4.870
  594TIP3    H1 1723   7.762   5.686   4.775
  594TIP3    H2 1724   7.680   5.742   4.889
  595TIP3   OH2 1725   4.199   6.997   1.391
  595TIP3    H1 1726   4.240   6.936   1.330
  595TIP3    H2 1727   4.146   7.055   1.336
  596TIP3   OH2 1728   7.350   6.675   1.279
  596TIP3    H1 1729   7.417   6.622   1.320
  596TIP3    H2 1730   7.326   6.740   1.345
  597TIP3   OH2 1731   4.715   5.654   0.726
  597TIP3    H1 1732   4.661   5.709   0.668
  597TIP3    H2 1733   4.651   5.605   0.778
  598TIP3   OH2 1734   2.157   1.399   5.197
  598TIP3    H1 1735   2.148   1.340   5.272
  598TIP3    H2 1736   2.168   1.340   5.122
  599TIP3   OH2 1737   1.948   4.786   6.039
  599TIP3    H1 1738   1.913   4.763   6.125
  599TIP3    H2 1739   2.033   4.826   6.058
  600TIP3   OH2 1740   7.214   0.757   6.746
  600TIP3    H1 1741   7.165   0.774   6.665
  600TIP3    H2 1742   7.184   0.671   6.774
  601TIP3   OH2 1743   0.427   6.090   5.593
  601TIP3    H1 1744   0.438   6.163   5.532
  601TIP3    H2 1745   0.516   6.065   5.617
  602TIP3   OH2 1746   5.216   4.228   4.917
  602TIP3    H1 1747   5.155   4.226   4.991
  602TIP3    H2 1748   5.186   4.301   4.863
  603TIP3   OH2 1749   3.046   3.773   5.588
  603TIP3    H1 1750   3.051   3.678   5.591
  603TIP3    H2 1751   3.000   3.798   5.668
  604TIP3   OH2 1752   3.677   7.378   4.128
  604TIP3    H1 1753   3.681   7.415   4.217
  604TIP3    H2 1754   3.629   7.443   4.077
  605TIP3   OH2 1755   7.872   2.523   5.634
  605TIP3    H1 1756   7.875   2.562   5.547
  605TIP3    H2 1757   7.801   2.458   5.628
  606TIP3   OH2 1758   6.557   4.310   0.277
  606TIP3    H1 1759   6.560   4.308   0.181
  606TIP3    H2 1760   6.511   4.392   0.297
  607TIP3   OH2 1761   5.632   1.799   4.560
  607TIP3    H1 1762   5.711   1.746   4.564
  607TIP3    H2 1763   5.583   1.763   4.486
  608TIP3   OH2 1764   1.730   7.044   0.181
  608TIP3    H1 1765   1.648   7.093   0.176
  608TIP3    H2 1766   1.760   7.054   0.271
  609TIP3   OH2 1767   3.601   0.130   4.082
  609TIP3    H1 1768   3.634   0.045   4.052
  609TIP3    H2 1769   3.507   0.126   4.068
  610TIP3   OH2 1770   7.552   3.913   5.684
  610TIP3    H1 1771   7.495   3.882   5.613
  610TIP3    H2 1772   7.526   3.862   5.760
  611TIP3   OH2 1773   0.951   4.552   5.986
  611TIP3    H1 1774   0.884   4.615   5.959
  611TIP3    H2 1775   1.029   4.578   5.936
  612TIP3   OH2 1776   7.554   6.874   0.810
  612TIP3    H1 1777   7.554   6.876   0.905
  612TIP3    H2 1778   7.645   6.893   0.785
  613TIP3   OH2 1779   6.422   4.961   4.893
  613TIP3    H1 1780   6.351   5.005   4.848
  613TIP3    H2 1781   6.481   5.032   4.920
  614TIP3   OH2 1782   0.964   2.822   0.930
  614TIP3    H1 1783   1.016   2.745   0.951
  614TIP3    H2 1784   0.948   2.865   1.014
  615TIP3   OH2 1785   7.546   0.953   4.385
  615TIP3    H1 1786   7.564   0.992   4.471
  615TIP3    H2 1787   7.451   0.948   4.380
  616TIP3   OH2 1788   4.307   2.369   1.964
  616TIP3    H1 1789   4.356   2.322   2.032
  616TIP3    H2 1790   4.216   2.364   1.994
  617TIP3   OH2 1791   1.210   4.431   5.011
  617TIP3    H1 1792   1.139   4.375   4.980
  617TIP3    H2 1793   1.188   4.450   5.102
  618TIP3   OH2 1794   1.525   7.581   4.171
  618TIP3    H1 1795   1.590   7.586   4.101
  618TIP3    H2 1796   1.480   7.666   4.169
  619TIP3   OH2 1797   5.057   7.407   1.316
  619TIP3    H1 1798   5.146   7.431   1.342
  619TIP3    H2 1799   5.036   7.330   1.368
  620TIP3   OH2 1800   4.209   2.943   4.854
  620TIP3    H1 1801   4.301   2.927   4.833
  620TIP3    H2 1802   4.207   3.035   4.883
  621TIP3   OH2 1803   2.563   3.386   2.724
  621TIP3    H1 1804   2.536   3.400   2.815
  621TIP3    H2 1805   2.502   3.438   2.672
  622TIP3   OH2 1806   5.763   5.464   3.023
  622TIP3    H1 1807   5.691   5.488   2.965
  622TIP3    H2 1808   5.724   5.463   3.111
  623TIP3   OH2 1809   3.726   3.487   4.188
  623TIP3    H1 1810   3.689   3.399   4.194
  623TIP3    H2 1811   3.765   3.503   4.273
  624TIP3   OH2 1812   4.852   3.144   4.253
  624TIP3    H1 1813   4.849   3.117   4.161
  624TIP3    H2 1814   4.816   3.232   4.253
  625TIP3   OH2 1815   8.069   4.456   4.861
  625TIP3    H1 1816   8.019   4.463   4.942
  625TIP3    H2 1817   8.038   4.530   4.807
  626TIP3   OH2 1818   7.001   5.292   4.873
  626TIP3    H1 1819   6.965   5.279   4.960
  626TIP3    H2 1820   6.952   5.366   4.837
  627TIP3   OH2 1821   6.287   3.467   4.980
  627TIP3    H1 1822   6.221   3.416   5.028
  627TIP3    H2 1823   6.267   3.558   5.002
  628TIP3   OH2 1824   1.000   1.133   0.542
  628TIP3    H1 1825   1.034   1.072   0.607
  628TIP3    H2 1826   0.907   1.113   0.536
  629TIP3   OH2 1827   7.267   5.004   5.712
  629TIP3    H1 1828   7.312   4.919   5.707
  629TIP3    H2 1829   7.338   5.069   5.710
  630TIP3   OH2 1830   2.812   0.764   1.678
  630TIP3    H1 1831   2.896   0.727   1.705
  630TIP3    H2 1832   2.825   0.791   1.588
  631TIP3   OH2 1833   5.016   4.465   6.401
  631TIP3    H1 1834   4.935   4.418   6.423
  631TIP3    H2 1835   4.987   4.553   6.378
  632TIP3   OH2 1836   0.369   1.607   4.147
  632TIP3    H1 1837   0.418   1.541   4.097
  632TIP3    H2 1838   0.418   1.616   4.228
  633TIP3   OH2 1839   3.962   4.790   2.287
  633TIP3    H1 1840   3.972   4.799   2.192
  633TIP3    H2 1841   3.889   4.729   2.298
  634TIP3   OH2 1842   7.683   1.526   2.195
  634TIP3    H1 1843   7.705   1.433   2.190
  634TIP3    H2 1844   7.607   1.536   2.137
  635TIP3   OH2 1845   0.705   3.176   1.609
  635TIP3    H1 1846   0.682   3.086   1.586
  635TIP3    H2 1847   0.756   3.168   1.690
  636TIP3   OH2 1848   6.100   5.058   3.148
  636TIP3    H1 1849   6.105   4.985   3.210
  636TIP3    H2 1850   6.189   5.066   3.113
  637TIP3   OH2 1851   3.195   0.096   5.952
  637TIP3    H1 1852   3.103   0.122   5.944
  637TIP3    H2 1853   3.193   0.000   5.946
  638TIP3   OH2 1854   0.805   7.132   0.087
  638TIP3    H1 1855   0.812   7.119   0.181
  638TIP3    H2 1856   0.739   7.201   0.077
  639TIP3   OH2 1857   7.516   7.003   0.376
  639TIP3    H1 1858   7.520   6.908   0.382
  639TIP3    H2 1859   7.425   7.022   0.354
  640TIP3   OH2 1860   8.384   4.561   4.052
  640TIP3    H1 1861   8.369   4.654   4.072
  640TIP3    H2 1862   8.318   4.515   4.103
  641TIP3   OH2 1863   3.773   2.371   6.025
  641TIP3    H1 1864   3.815   2.396   6.107
  641TIP3    H2 1865   3.707   2.307   6.050
  642TIP3   OH2 1866   5.525   5.903   5.413
  642TIP3    H1 1867   5.580   5.860   5.479
  642TIP3    H2 1868   5.517   5.993   5.443
  643TIP3   OH2 1869   5.193   4.202   4.460
  643TIP3    H1 1870   5.120   4.236   4.512
  643TIP3    H2 1871   5.152   4.168   4.381
  644TIP3   OH2 1872   0.313   7.591   5.772
  644TIP3    H1 1873   0.375   7.518   5.763
  644TIP3    H2 1874   0.345   7.639   5.848
  645TIP3   OH2 1875   5.065   2.976   5.157
  645TIP3    H1 1876   4.998   3.018   5.211
  645TIP3    H2 1877   5.025   2.966   5.071
  646TIP3   OH2 1878   1.745   5.792   4.373
  646TIP3    H1 1879   1.657   5.763   4.397
  646TIP3    H2 1880   1.791   5.799   4.457
  647TIP3   OH2 1881   2.370   5.616   2.037
  647TIP3    H1 1882   2.362   5.563   2.116
  647TIP3    H2 1883   2.464   5.613   2.015
  648TIP3   OH2 1884   2.290   0.157   6.089
  648TIP3    H1 1885   2.256   0.069   6.107
  648TIP3    H2 1886   2.214   0.215   6.098
  649TIP3   OH2 1887   3.678   5.367   5.702
  649TIP3    H1 1888   3.646   5.455   5.682
  649TIP3    H2 1889   3.655   5.316   5.625
  650TIP3   OH2 1890   6.267   5.892   6.467
  650TIP3    H1 1891   6.243   5.899   6.375
  650TIP3    H2 1892   6.200   5.836   6.506
  651TIP3   OH2 1893   3.178   7.282   5.742
  651TIP3    H1 1894   3.127   7.351   5.699
  651TIP3    H2 1895   3.234   7.329   5.804
  652TIP3   OH2 1896   3.376   2.236   5.375
  652TIP3    H1 1897   3.364   2.191   5.292
  652TIP3    H2 1898   3.461   2.279   5.368
  653TIP3   OH2 1899   2.424   1.805   5.321
  653TIP3    H1 1900   2.393   1.714   5.322
  653TIP3    H2 1901   2.370   1.848   5.255
  654TIP3   OH2 1902   0.691   6.474   3.165
  654TIP3    H1 1903   0.625   6.515   3.109
  654TIP3    H2 1904   0.650   6.471   3.252
  655TIP3   OH2 1905   2.394   3.008   1.091
  655TIP3    H1 1906   2.414   3.008   1.184
  655TIP3    H2 1907   2.301   2.984   1.086
  656TIP3   OH2 1908   6.797   3.049   6.659
  656TIP3    H1 1909   6.767   3.127   6.706
  656TIP3    H2 1910   6.824   2.988   6.728
  657TIP3   OH2 1911   2.688   3.480   2.381
  657TIP3    H1 1912   2.764   3.499   2.327
  657TIP3    H2 1913   2.641   3.564   2.387
  658TIP3   OH2 1914   2.060   6.867   3.394
  658TIP3    H1 1915   1.990   6.891   3.455
  658TIP3    H2 1916   2.088   6.951   3.357
  659TIP3   OH2 1917   1.473   0.397   6.446
  659TIP3    H1 1918   1.533   0.332   6.409
  659TIP3    H2 1919   1.442   0.447   6.371
  660TIP3   OH2 1920   3.335   2.209   2.425
  660TIP3    H1 1921   3.334   2.221   2.330
  660TIP3    H2 1922   3.252   2.246   2.455
  661TIP3   OH2 1923   3.935   1.762   5.229
  661TIP3    H1 1924   3.937   1.732   5.320
  661TIP3    H2 1925   4.009   1.717   5.188
  662TIP3   OH2 1926   4.156   0.531   3.389
  662TIP3    H1 1927   4.234   0.536   3.334
  662TIP3    H2 1928   4.182   0.573   3.471
  663TIP3   OH2 1929   2.651   1.183   3.454
  663TIP3    H1 1930   2.636   1.092   3.429
  663TIP3    H2 1931   2.603   1.234   3.388
  664TIP3   OH2 1932   2.349   3.490   2.569
  664TIP3    H1 1933   2.289   3.499   2.642
  664TIP3    H2 1934   2.293   3.488   2.491
  665TIP3   OH2 1935   0.074   4.244   4.116
  665TIP3    H1 1936   0.001   4.297   4.083
  665TIP3    H2 1937   0.105   4.292   4.193
  666TIP3   OH2 1938   8.134   4.972   0.270
  666TIP3    H1 1939   8.228   4.973   0.252
  666TIP3    H2 1940   8.094   4.947   0.187
  667TIP3   OH2 1941   7.292   4.250   5.596
  667TIP3    H1 1942   7.203   4.216   5.585
  667TIP3    H2 1943   7.338   4.224   5.516
  668TIP3   OH2 1944   4.797   0.322   1.186
  668TIP3    H1 1945   4.750   0.241   1.203
  668TIP3    H2 1946   4.846   0.306   1.105
  669TIP3   OH2 1947   7.549   2.564   1.267
  669TIP3    H1 1948   7.628   2.523   1.303
  669TIP3    H2 1949   7.478   2.532   1.324
  670TIP3   OH2 1950   3.596   5.261   2.372
  670TIP3    H1 1951   3.611   5.278   2.465
  670TIP3    H2 1952   3.533   5.189   2.371
  671TIP3   OH2 1953   6.577   5.972   1.123
  671TIP3    H1 1954   6.626   6.031   1.065
  671TIP3    H2 1955   6.596   6.004   1.211
  672TIP3   OH2 1956   1.094   5.235   5.965
  672TIP3    H1 1957   1.120   5.147   5.938
  672TIP3    H2 1958   1.148   5.254   6.042
  673TIP3   OH2 1959   3.794   1.750   1.328
  673TIP3    H1 1960   3.820   1.836   1.296
  673TIP3    H2 1961   3.876   1.708   1.354
  674TIP3   OH2 1962   3.768   3.577   5.918
  674TIP3    H1 1963   3.741   3.502   5.864
  674TIP3    H2 1964   3.707   3.577   5.991
  675TIP3   OH2 1965   0.155   6.381   6.795
  675TIP3    H1 1966   0.218   6.363   6.725
  675TIP3    H2 1967   0.079   6.329   6.772
  676TIP3   OH2 1968   4.687   7.579   1.757
  676TIP3    H1 1969   4.619   7.522   1.721
  676TIP3    H2 1970   4.770   7.537   1.733
  677TIP3   OH2 1971   6.127   6.350   2.098
  677TIP3    H1 1972   6.128   6.442   2.121
  677TIP3    H2 1973   6.081   6.307   2.171
  678TIP3   OH2 1974   3.237   5.991   4.809
  678TIP3    H1 1975   3.247   6.068   4.865
  678TIP3    H2 1976   3.152   5.953   4.834
  679TIP3   OH2 1977   0.186   4.505   6.216
  679TIP3    H1 1978   0.102   4.460   6.207
  679TIP3    H2 1979   0.204   4.538   6.128
  680TIP3   OH2 1980   2.845   0.625   4.679
  680TIP3    H1 1981   2.815   0.562   4.745
  680TIP3    H2 1982   2.772   0.686   4.671
  681TIP3   OH2 1983   6.002   3.882   0.233
  681TIP3    H1 1984   6.013   3.971   0.268
  681TIP3    H2 1985   6.078   3.871   0.175
  682TIP3   OH2 1986   5.863   7.885   5.591
  682TIP3    H1 1987   5.769   7.901   5.589
  682TIP3    H2 1988   5.902   7.967   5.562
  683TIP3   OH2 1989   6.535   5.780   6.357
  683TIP3    H1 1990   6.443   5.776   6.383
  683TIP3    H2 1991   6.549   5.700   6.307
  684TIP3   OH2 1992   7.572   0.114   2.959
  684TIP3    H1 1993   7.656   0.078   2.986
  684TIP3    H2 1994   7.507   0.052   2.991
  685TIP3   OH2 1995   6.601   2.003   6.629
  685TIP3    H1 1996   6.554   2.052   6.696
  685TIP3    H2 1997   6.680   1.972   6.673
  686TIP3   OH2 1998   0.725   1.342   3.675
  686TIP3    H1 1999   0.662   1.292   3.623
  686TIP3    H2 2000   0.706   1.434   3.655
  687TIP3   OH2 2001   1.672   0.328   1.633
  687TIP3    H1 2002   1.601   0.301   1.691
  687TIP3    H2 2003   1.709   0.406   1.675
  688TIP3   OH2 2004   2.574   0.227   1.176
  688TIP3    H1 2005   2.551   0.155   1.235
  688TIP3    H2 2006   2.668   0.240   1.190
  689TIP3   OH2 2007   4.943   5.389   1.127
  689TIP3    H1 2008   5.021   5.444   1.137
  689TIP3    H2 2009   4.945   5.360   1.036
  690TIP3   OH2 2010   7.594   7.488   4.636
  690TIP3    H1 2011   7.647   7.529   4.704
  690TIP3    H2 2012   7.503   7.500   4.666
  691TIP3   OH2 2013   2.166   3.623   6.363
  691TIP3    H1 2014   2.135   3.575   6.439
  691TIP3    H2 2015   2.163   3.715   6.390
  692TIP3   OH2 2016   0.674   1.735   3.841
  692TIP3    H1 2017   0.582   1.756   3.858
  692TIP3    H2 2018   0.715   1.820   3.822
  693TIP3   OH2 2019   4.515   0.490   2.573
  693TIP3    H1 2020   4.502   0.507   2.480
  693TIP3    H2 2021   4.570   0.411   2.575
  694TIP3   OH2 2022   2.302   6.981   5.484
  694TIP3    H1 2023   2.232   6.957   5.545
  694TIP3    H2 2024   2.258   7.037   5.420
  695TIP3   OH2 2025   3.886   1.567   2.881
  695TIP3    H1 2026   3.972   1.603   2.862
  695TIP3    H2 2027   3.875   1.496   2.819
  696TIP3   OH2 2028   4.607   1.505   6.115
  696TIP3    H1 2029   4.604   1.437   6.049
  696TIP3    H2 2030   4.560   1.468   6.190
  697TIP3   OH2 2031   3.042   5.824   2.425
  697TIP3    H1 2032   2.979   5.758   2.396
  697TIP3    H2 2033   3.037   5.822   2.520
  698TIP3   OH2 2034   6.903   6.631   4.712
  698TIP3    H1 2035   6.904   6.721   4.680
  698TIP3    H2 2036   6.992   6.615   4.742
  699TIP3   OH2 2037   4.545   0.158   6.619
  699TIP3    H1 2038   4.462   0.196   6.647
  699TIP3    H2 2039   4.609   0.227   6.635
  700TIP3   OH2 2040   7.857   2.604   2.279
  700TIP3    H1 2041   7.866   2.669   2.210
  700TIP3    H2 2042   7.944   2.564   2.286
  701TIP3   OH2 2043   0.968   2.221   0.545
  701TIP3    H1 2044   0.985   2.127   0.532
  701TIP3    H2 2045   0.906   2.225   0.617
  702TIP3   OH2 2046   4.252   3.426   1.878
  702TIP3    H1 2047   4.219   3.398   1.963
  702TIP3    H2 2048   4.337   3.465   1.896
  703TIP3   OH2 2049   0.241   6.505   3.293
  703TIP3    H1 2050   0.248   6.491   3.387
  703TIP3    H2 2051   0.147   6.519   3.278
  704TIP3   OH2 2052   6.816   5.415   4.105
  704TIP3    H1 2053   6.744   5.402   4.167
  704TIP3    H2 2054   6.787   5.487   4.049
  705TIP3   OH2 2055   8.393   3.953   2.259
  705TIP3    H1 2056   8.380   4.047   2.276
  705TIP3    H2 2057   8.326   3.911   2.313
  706TIP3   OH2 2058   0.654   1.326   5.992
  706TIP3    H1 2059   0.664   1.334   5.897
  706TIP3    H2 2060   0.560   1.338   6.007
  707TIP3   OH2 2061   1.474   1.064   3.140
  707TIP3    H1 2062   1.459   1.123   3.215
  707TIP3    H2 2063   1.413   1.096   3.073
  708TIP3   OH2 2064   4.999   0.594   0.729
  708TIP3    H1 2065   4.909   0.563   0.718
  708TIP3    H2 2066   5.051   0.539   0.670
  709TIP3   OH2 2067   6.109   1.885   1.286
  709TIP3    H1 2068   6.181   1.875   1.224
  709TIP3    H2 2069   6.123   1.816   1.351
  710TIP3   OH2 2070   2.894   6.798   1.298
  710TIP3    H1 2071   2.966   6.839   1.347
  710TIP3    H2 2072   2.928   6.711   1.276
  711TIP3   OH2 2073   7.649   3.555   3.402
  711TIP3    H1 2074   7.641   3.483   3.339
  711TIP3    H2 2075   7.577   3.540   3.464
  712TIP3   OH2 2076   4.272   1.687   4.804
  712TIP3    H1 2077   4.182   1.656   4.804
  712TIP3    H2 2078   4.325   1.608   4.802
  713TIP3   OH2 2079   4.589   5.022   1.289
  713TIP3    H1 2080   4.585   4.928   1.272
  713TIP3    H2 2081   4.666   5.052   1.241
  714TIP3   OH2 2082   7.280   0.999   5.608
  714TIP3    H1 2083   7.223   1.052   5.663
  714TIP3    H2 2084   7.356   0.979   5.664
  715TIP3   OH2 2085   2.187   2.952   1.927
  715TIP3    H1 2086   2.112   2.994   1.885
  715TIP3    H2 2087   2.222   3.019   1.986
  716TIP3   OH2 2088   2.521   4.760   0.062
  716TIP3    H1 2089   2.578   4.836   0.055
  716TIP3    H2 2090   2.493   4.742  -0.028
  717TIP3   OH2 2091   6.513   6.970   1.630
  717TIP3    H1 2092   6.423   6.983   1.658
  717TIP3    H2 2093   6.507   6.909   1.557
  718TIP3   OH2 2094   4.824   2.729   3.712
  718TIP3    H1 2095   4.804   2.679   3.633
  718TIP3    H2 2096   4.861   2.664   3.772
  719TIP3   OH2 2097   6.451   6.521   3.812
  719TIP3    H1 2098   6.463   6.483   3.899
  719TIP3    H2 2099   6.370   6.572   3.819
  720TIP3   OH2 2100   1.070   4.499   3.382
  720TIP3    H1 2101   1.094   4.444   3.308
  720TIP3    H2 2102   1.061   4.587   3.345
  721TIP3   OH2 2103   3.685   6.945   0.727
  721TIP3    H1 2104   3.660   6.946   0.635
  721TIP3    H2 2105   3.652   6.862   0.761
  722TIP3   OH2 2106   7.912   2.137   1.577
  722TIP3    H1 2107   7.835   2.108   1.627
  722TIP3    H2 2108   7.875   2.193   1.508
  723TIP3   OH2 2109   3.423   0.348   5.064
  723TIP3    H1 2110   3.392   0.331   5.153
  723TIP3    H2 2111   3.345   0.338   5.010
  724TIP3   OH2 2112   0.635   4.106   1.200
  724TIP3    H1 2113   0.715   4.155   1.219
  724TIP3    H2 2114   0.581   4.119   1.278
  725TIP3   OH2 2115   2.455   3.819   0.728
  725TIP3    H1 2116   2.444   3.724   0.736
  725TIP3    H2 2117   2.413   3.855   0.806
  726TIP3   OH2 2118   5.722   3.474   4.259
  726TIP3    H1 2119   5.776   3.430   4.194
  726TIP3    H2 2120   5.784   3.518   4.317
  727TIP3   OH2 2121   2.482   0.738   6.765
  727TIP3    H1 2122   2.519   0.820   6.733
  727TIP3    H2 2123   2.394   0.736   6.728
  728TIP3   OH2 2124   4.650   1.035   1.075
  728TIP3    H1 2125   4.694   0.991   1.148
  728TIP3    H2 2126   4.719   1.046   1.009
  729TIP3   OH2 2127   3.058   7.171   6.694
  729TIP3    H1 2128   3.095   7.161   6.781
  729TIP3    H2 2129   2.999   7.097   6.683
  730TIP3   OH2 2130   5.710   4.940   3.425
  730TIP3    H1 2131   5.631   4.901   3.388
  730TIP3    H2 2132   5.738   5.004   3.359
  731TIP3   OH2 2133   0.523   3.634   0.604
  731TIP3    H1 2134   0.523   3.607   0.512
  731TIP3    H2 2135   0.480   3.561   0.649
  732TIP3   OH2 2136   8.095   2.359   4.946
  732TIP3    H1 2137   8.026   2.306   4.986
  732TIP3    H2 2138   8.176   2.317   4.974
  733TIP3   OH2 2139   8.022   4.659   6.568
  733TIP3    H1 2140   7.968   4.738   6.568
  733TIP3    H2 2141   7.959   4.587   6.558
  734TIP3   OH2 2142   3.824   5.509   0.278
  734TIP3    H1 2143   3.918   5.530   0.277
  734TIP3    H2 2144   3.787   5.559   0.206
  735TIP3   OH2 2145   2.065   5.834   1.302
  735TIP3    H1 2146   2.043   5.910   1.247
  735TIP3    H2 2147   2.135   5.789   1.253
  736TIP3   OH2 2148   3.638   4.212   4.982
  736TIP3    H1 2149   3.559   4.244   4.939
  736TIP3    H2 2150   3.702   4.283   4.970
  737TIP3   OH2 2151   2.681   3.581   4.543
  737TIP3    H1 2152   2.619   3.554   4.611
  737TIP3    H2 2153   2.639   3.655   4.500
  738TIP3   OH2 2154   2.785   6.113   2.995
  738TIP3    H1 2155   2.857   6.102   3.057
  738TIP3    H2 2156   2.752   6.201   3.011
  739TIP3   OH2 2157   6.844   5.929   1.261
  739TIP3    H1 2158   6.877   5.984   1.190
  739TIP3    H2 2159   6.874   5.841   1.240
  740TIP3   OH2 2160   0.802   0.074   5.347
  740TIP3    H1 2161   0.894   0.048   5.342
  740TIP3    H2 2162   0.764   0.020   5.415
  741TIP3   OH2 2163   5.448   6.902   0.287
  741TIP3    H1 2164   5.364   6.885   0.329
  741TIP3    H2 2165   5.510   6.907   0.360
  742TIP3   OH2 2166   7.354   6.314   3.409
  742TIP3    H1 2167   7.395   6.400   3.406
  742TIP3    H2 2168   7.345   6.295   3.502
  743TIP3   OH2 2169   1.567   1.362   1.450
  743TIP3    H1 2170   1.630   1.310   1.400
  743TIP3    H2 2171   1.620   1.414   1.511
  744TIP3   OH2 2172   8.215   3.650   6.750
  744TIP3    H1 2173   8.182   3.632   6.662
  744TIP3    H2 2174   8.197   3.744   6.763
  745TIP3   OH2 2175   6.226   3.625   1.395
  745TIP3    H1 2176   6.213   3.543   1.348
  745TIP3    H2 2177   6.276   3.600   1.473
  746TIP3   OH2 2178   4.735   5.977   3.867
  746TIP3    H1 2179   4.772   5.978   3.779
  746TIP3    H2 2180   4.781   6.048   3.913
  747TIP3   OH2 2181   2.763   2.255   1.692
  747TIP3    H1 2182   2.789   2.338   1.732
  747TIP3    H2 2183   2.727   2.204   1.764
  748TIP3   OH2 2184   7.883   0.167   3.390
  748TIP3    H1 2185   7.930   0.210   3.461
  748TIP3    H2 2186   7.816   0.115   3.434
  749TIP3   OH2 2187   0.411   2.647   0.803
  749TIP3    H1 2188   0.377   2.643   0.714
  749TIP3    H2 2189   0.415   2.556   0.832
  750TIP3   OH2 2190   0.362   6.974   6.823
  750TIP3    H1 2191   0.302   7.025   6.770
  750TIP3    H2 2192   0.329   6.983   6.913
  751TIP3   OH2 2193   0.675   0.180   2.611
  751TIP3    H1 2194   0.595   0.230   2.596
  751TIP3    H2 2195   0.741   0.246   2.633
  752TIP3   OH2 2196   5.322   2.347   2.655
  752TIP3    H1 2197   5.375   2.306   2.724
  752TIP3    H2 2198   5.324   2.283   2.583
  753TIP3   OH2 2199   6.462   2.444   2.753
  753TIP3    H1 2200   6.446   2.480   2.666
  753TIP3    H2 2201   6.487   2.520   2.806
  754TIP3   OH2 2202   2.947   7.635   5.044
  754TIP3    H1 2203   2.946   7.603   4.954
  754TIP3    H2 2204   2.865   7.603   5.082
  755TIP3   OH2 2205   0.270   4.280   3.585
  755TIP3    H1 2206   0.278   4.186   3.602
  755TIP3    H2 2207   0.306   4.321   3.663
  756TIP3   OH2 2208   0.281   5.524   4.865
  756TIP3    H1 2209   0.186   5.526   4.851
  756TIP3    H2 2210   0.297   5.596   4.927
  757TIP3   OH2 2211   5.272   3.367   6.141
  757TIP3    H1 2212   5.249   3.458   6.159
  757TIP3    H2 2213   5.217   3.316   6.201
  758TIP3   OH2 2214   0.389   1.385   5.465
  758TIP3    H1 2215   0.348   1.455   5.515
  758TIP3    H2 2216   0.316   1.335   5.429
  759TIP3   OH2 2217   1.476   0.652   1.023
  759TIP3    H1 2218   1.470   0.692   1.110
  759TIP3    H2 2219   1.385   0.636   0.998
  760TIP3   OH2 2220   6.775   3.711   2.965
  760TIP3    H1 2221   6.834   3.662   3.023
  760TIP3    H2 2222   6.730   3.773   3.023
  761TIP3   OH2 2223   4.384   1.046   1.607
  761TIP3    H1 2224   4.290   1.048   1.623
  761TIP3    H2 2225   4.392   1.022   1.514
  762TIP3   OH2 2226   5.798   6.498   5.625
  762TIP3    H1 2227   5.816   6.405   5.637
  762TIP3    H2 2228   5.865   6.542   5.679
  763TIP3   OH2 2229   7.669   4.289   1.502
  763TIP3    H1 2230   7.726   4.343   1.448
  763TIP3    H2 2231   7.585   4.334   1.502
  764TIP3   OH2 2232   3.845   0.195   4.245
  764TIP3    H1 2233   3.900   0.270   4.223
  764TIP3    H2 2234   3.804   0.169   4.162
  765TIP3   OH2 2235   2.790   0.878   3.784
  765TIP3    H1 2236   2.783   0.900   3.691
  765TIP3    H2 2237   2.884   0.873   3.801
  766TIP3   OH2 2238   6.396   6.863   2.386
  766TIP3    H1 2239   6.354   6.945   2.359
  766TIP3    H2 2240   6.324   6.800   2.391
  767TIP3   OH2 2241   2.120   2.731   3.579
  767TIP3    H1 2242   2.140   2.682   3.499
  767TIP3    H2 2243   2.074   2.668   3.634
  768TIP3   OH2 2244   3.290   1.162   2.622
  768TIP3    H1 2245   3.247   1.080   2.599
  768TIP3    H2 2246   3.230   1.230   2.594
  769TIP3   OH2 2247   0.832   2.429   3.892
  769TIP3    H1 2248   0.897   2.372   3.852
  769TIP3    H2 2249   0.859   2.517   3.867
  770TIP3   OH2 2250   7.624   1.521   3.370
  770TIP3    H1 2251   7.544   1.521   3.423
  770TIP3    H2 2252   7.655   1.431   3.372
  771TIP3   OH2 2253   1.396   3.646   1.179
  771TIP3    H1 2254   1.415   3.605   1.095
  771TIP3    H2 2255   1.476   3.696   1.199
  772TIP3   OH2 2256   0.867   1.513   2.953
  772TIP3    H1 2257   0.837   1.464   3.029
  772TIP3    H2 2258   0.868   1.449   2.882
  773TIP3   OH2 2259   1.180   2.800   5.667
  773TIP3    H1 2260   1.204   2.773   5.578
  773TIP3    H2 2261   1.258   2.781   5.719
  774TIP3   OH2 2262   4.267   4.692   2.870
  774TIP3    H1 2263   4.290   4.628   2.937
  774TIP3    H2 2264   4.313   4.772   2.896
  775TIP3   OH2 2265   4.926   6.899   1.521
  775TIP3    H1 2266   4.857   6.880   1.458
  775TIP3    H2 2267   4.993   6.832   1.504
  776TIP3   OH2 2268   0.438   7.492   2.328
  776TIP3    H1 2269   0.509   7.431   2.348
  776TIP3    H2 2270   0.372   7.476   2.396
  777TIP3   OH2 2271   4.894   1.746   3.407
  777TIP3    H1 2272   4.944   1.819   3.371
  777TIP3    H2 2273   4.836   1.786   3.472
  778TIP3   OH2 2274   1.906   3.035   2.470
  778TIP3    H1 2275   1.983   2.978   2.476
  778TIP3    H2 2276   1.832   2.975   2.461
  779TIP3   OH2 2277   6.909   3.302   3.021
  779TIP3    H1 2278   6.885   3.250   3.098
  779TIP3    H2 2279   6.957   3.241   2.965
  780TIP3   OH2 2280   5.458   4.380   3.237
  780TIP3    H1 2281   5.399   4.305   3.238
  780TIP3    H2 2282   5.516   4.365   3.312
  781TIP3   OH2 2283   7.092   6.778   4.919
  781TIP3    H1 2284   7.017   6.838   4.928
  781TIP3    H2 2285   7.143   6.791   4.999
  782TIP3   OH2 2286   0.052   1.484   0.372
  782TIP3    H1 2287   0.129   1.540   0.380
  782TIP3    H2 2288   0.003   1.499   0.453
  783TIP3   OH2 2289   4.015   3.957   4.917
  783TIP3    H1 2290   3.925   3.971   4.887
  783TIP3    H2 2291   4.042   4.042   4.950
  784TIP3   OH2 2292   8.065   4.322   2.026
  784TIP3    H1 2293   7.982   4.309   2.072
  784TIP3    H2 2294   8.115   4.242   2.044
  785TIP3   OH2 2295   2.841   5.119   6.574
  785TIP3    H1 2296   2.878   5.201   6.609
  785TIP3    H2 2297   2.908   5.087   6.513
  786TIP3   OH2 2298   6.618   0.296   1.427
  786TIP3    H1 2299   6.565   0.349   1.367
  786TIP3    H2 2300   6.652   0.226   1.372
  787TIP3   OH2 2301   1.505   1.911   3.812
  787TIP3    H1 2302   1.510   1.923   3.717
  787TIP3    H2 2303   1.424   1.955   3.838
  788TIP3   OH2 2304   8.244   5.046   5.675
  788TIP3    H1 2305   8.229   5.134   5.710
  788TIP3    H2 2306   8.221   4.988   5.748
  789TIP3   OH2 2307   3.060   1.677   6.510
  789TIP3    H1 2308   3.049   1.740   6.438
  789TIP3    H2 2309   3.080   1.731   6.586
  790TIP3   OH2 2310   2.484   4.486   5.329
  790TIP3    H1 2311   2.545   4.432   5.378
  790TIP3    H2 2312   2.465   4.436   5.250
  791TIP3   OH2 2313   4.758   6.013   1.540
  791TIP3    H1 2314   4.675   6.029   1.585
  791TIP3    H2 2315   4.734   6.006   1.447
  792TIP3   OH2 2316   4.156   2.530   6.209
  792TIP3    H1 2317   4.062   2.510   6.212
  792TIP3    H2 2318   4.165   2.612   6.258
  793TIP3   OH2 2319   5.196   4.298   3.955
  793TIP3    H1 2320   5.261   4.245   3.908
  793TIP3    H2 2321   5.248   4.356   4.011
  794TIP3   OH2 2322   0.426   4.539   3.689
  794TIP3    H1 2323   0.468   4.455   3.707
  794TIP3    H2 2324   0.460   4.565   3.603
  795TIP3   OH2 2325   5.906   6.574   4.337
  795TIP3    H1 2326   5.918   6.490   4.294
  795TIP3    H2 2327   5.990   6.619   4.326
  796TIP3   OH2 2328   7.840   2.635   1.829
  796TIP3    H1 2329   7.806   2.646   1.918
  796TIP3    H2 2330   7.932   2.613   1.841
  797TIP3   OH2 2331   6.399   6.094   5.969
  797TIP3    H1 2332   6.329   6.159   5.975
  797TIP3    H2 2333   6.462   6.121   6.036
  798TIP3   OH2 2334   1.293   4.787   6.101
  798TIP3    H1 2335   1.291   4.864   6.158
  798TIP3    H2 2336   1.385   4.761   6.101
  799TIP3   OH2 2337   5.353   6.061   5.935
  799TIP3    H1 2338   5.422   5.996   5.947
  799TIP3    H2 2339   5.273   6.016   5.962
  800TIP3   OH2 2340   1.926   1.927   4.025
  800TIP3    H1 2341   1.992   1.955   4.089
  800TIP3    H2 2342   1.973   1.867   3.967
  801TIP3   OH2 2343   4.249   1.802   5.575
  801TIP3    H1 2344   4.276   1.797   5.667
  801TIP3    H2 2345   4.239   1.711   5.547
  802TIP3   OH2 2346   7.452   7.864   6.132
  802TIP3    H1 2347   7.417   7.876   6.220
  802TIP3    H2 2348   7.375   7.864   6.075
  803TIP3   OH2 2349   8.005   7.716   2.200
  803TIP3    H1 2350   8.058   7.768   2.261
  803TIP3    H2 2351   7.987   7.635   2.247
  804TIP3   OH2 2352   6.959   2.278   1.202
  804TIP3    H1 2353   6.915   2.312   1.280
  804TIP3    H2 2354   7.025   2.218   1.237
  805TIP3   OH2 2355   3.210   5.434   0.418
  805TIP3    H1 2356   3.159   5.355   0.405
  805TIP3    H2 2357   3.268   5.413   0.491
  806TIP3   OH2 2358   0.669   0.217   0.354
  806TIP3    H1 2359   0.685   0.185   0.443
  806TIP3    H2 2360   0.583   0.259   0.358
  807TIP3   OH2 2361   7.141   7.195   3.089
  807TIP3    H1 2362   7.235   7.204   3.072
  807TIP3    H2 2363   7.101   7.200   3.002
  808TIP3   OH2 2364   5.348   2.400   5.740
  808TIP3    H1 2365   5.361   2.458   5.665
  808TIP3    H2 2366   5.353   2.312   5.704
  809TIP3   OH2 2367   6.684   7.189   1.741
  809TIP3    H1 2368   6.625   7.114   1.738
  809TIP3    H2 2369   6.762   7.158   1.786
  810TIP3   OH2 2370   7.602   4.657   6.377
  810TIP3    H1 2371   7.522   4.685   6.332
  810TIP3    H2 2372   7.621   4.571   6.341
  811TIP3   OH2 2373   5.780   0.396   5.936
  811TIP3    H1 2374   5.839   0.384   5.861
  811TIP3    H2 2375   5.761   0.307   5.965
  812TIP3   OH2 2376   1.883   4.902   5.319
  812TIP3    H1 2377   1.946   4.974   5.329
  812TIP3    H2 2378   1.849   4.889   5.408
  813TIP3   OH2 2379   4.135   2.356   1.636
  813TIP3    H1 2380   4.104   2.283   1.689
  813TIP3    H2 2381   4.202   2.398   1.689
  814TIP3   OH2 2382   0.451   3.431   5.026
  814TIP3    H1 2383   0.363   3.456   5.055
  814TIP3    H2 2384   0.483   3.374   5.095
  815TIP3   OH2 2385   7.825   1.046   4.458
  815TIP3    H1 2386   7.758   0.986   4.423
  815TIP3    H2 2387   7.898   0.989   4.480
  816TIP3   OH2 2388   6.780   6.754   3.504
  816TIP3    H1 2389   6.872   6.777   3.494
  816TIP3    H2 2390   6.762   6.694   3.432
  817TIP3   OH2 2391   6.191   4.881   5.868
  817TIP3    H1 2392   6.254   4.809   5.863
  817TIP3    H2 2393   6.107   4.842   5.846
  818TIP3   OH2 2394   1.349   1.459   6.797
  818TIP3    H1 2395   1.333   1.509   6.718
  818TIP3    H2 2396   1.440   1.429   6.788
  819TIP3   OH2 2397   4.417   1.742   6.318
  819TIP3    H1 2398   4.447   1.822   6.275
  819TIP3    H2 2399   4.333   1.723   6.277
  820TIP3   OH2 2400   7.645   5.151   2.886
  820TIP3    H1 2401   7.584   5.083   2.914
  820TIP3    H2 2402   7.591   5.215   2.840
  821TIP3   OH2 2403   5.016   4.983   4.150
  821TIP3    H1 2404   4.985   4.901   4.113
  821TIP3    H2 2405   5.091   5.008   4.096
  822TIP3   OH2 2406   5.341   1.012   4.975
  822TIP3    H1 2407   5.435   1.012   4.960
  822TIP3    H2 2408   5.308   1.085   4.923
  823TIP3   OH2 2409   3.842   3.494   5.374
  823TIP3    H1 2410   3.751   3.483   5.402
  823TIP3    H2 2411   3.847   3.585   5.344
  824TIP3   OH2 2412   0.857   7.628   1.969
  824TIP3    H1 2413   0.898   7.649   2.054
  824TIP3    H2 2414   0.897   7.546   1.943
  825TIP3   OH2 2415   4.949   4.259   3.867
  825TIP3    H1 2416   5.034   4.287   3.902
  825TIP3    H2 2417   4.953   4.163   3.869
  826TIP3   OH2 2418   1.358   0.208   4.051
  826TIP3    H1 2419   1.341   0.241   4.140
  826TIP3    H2 2420   1.433   0.149   4.062
  827TIP3   OH2 2421   1.665   2.247   6.329
  827TIP3    H1 2422   1.667   2.236   6.424
  827TIP3    H2 2423   1.713   2.328   6.313
  828TIP3   OH2 2424   3.340   0.203   4.065
  828TIP3    H1 2425   3.374   0.282   4.108
  828TIP3    H2 2426   3.246   0.220   4.056
  829TIP3   OH2 2427   6.172   1.372   1.469
  829TIP3    H1 2428   6.108   1.322   1.520
  829TIP3    H2 2429   6.126   1.451   1.443
  830TIP3   OH2 2430   0.394   0.304   6.257
  830TIP3    H1 2431   0.415   0.242   6.187
  830TIP3    H2 2432   0.360   0.381   6.212
  831TIP3   OH2 2433   6.784   0.420   1.058
  831TIP3    H1 2434   6.750   0.340   1.099
  831TIP3    H2 2435   6.851   0.389   0.997
  832TIP3   OH2 2436   3.567   2.355   1.985
  832TIP3    H1 2437   3.581   2.430   1.927
  832TIP3    H2 2438   3.610   2.281   1.941
  833TIP3   OH2 2439   4.426   2.831   5.750
  833TIP3    H1 2440   4.446   2.917   5.788
  833TIP3    H2 2441   4.339   2.842   5.712
  834TIP3   OH2 2442   5.661   2.894   6.756
  834TIP3    H1 2443   5.663   2.798   6.749
  834TIP3    H2 2444   5.673   2.911   6.850
  835TIP3   OH2 2445   3.894   4.482   3.450
  835TIP3    H1 2446   3.829   4.541   3.489
  835TIP3    H2 2447   3.842   4.420   3.399
  836TIP3   OH2 2448   6.558   4.536   1.846
  836TIP3    H1 2449   6.467   4.545   1.818
  836TIP3    H2 2450   6.573   4.442   1.848
  837TIP3   OH2 2451   6.874   7.155   1.219
  837TIP3    H1 2452   6.937   7.083   1.209
  837TIP3    H2 2453   6.795   7.113   1.252
  838TIP3   OH2 2454   4.344   5.651   2.127
  838TIP3    H1 2455   4.296   5.581   2.172
  838TIP3    H2 2456   4.398   5.605   2.063
  839TIP3   OH2 2457   8.193   2.197   3.501
  839TIP3    H1 2458   8.283   2.211   3.532
  839TIP3    H2 2459   8.201   2.132   3.432
  840TIP3   OH2 2460   8.286   4.849   6.632
  840TIP3    H1 2461   8.287   4.774   6.572
  840TIP3    H2 2462   8.266   4.924   6.576
  841TIP3   OH2 2463   3.439   3.241   3.439
  841TIP3    H1 2464   3.400   3.258   3.524
  841TIP3    H2 2465   3.364   3.230   3.380
  842TIP3   OH2 2466   4.795   7.740   5.797
  842TIP3    H1 2467   4.728   7.792   5.753
  842TIP3    H2 2468   4.759   7.722   5.883
  843TIP3   OH2 2469   2.666   3.647   3.070
  843TIP3    H1 2470   2.743   3.613   3.115
  843TIP3    H2 2471   2.679   3.622   2.978
  844TIP3   OH2 2472   6.576   3.346   0.475
  844TIP3    H1 2473   6.517   3.290   0.525
  844TIP3    H2 2474   6.533   3.359   0.391
  845TIP3   OH2 2475   0.199   5.054   0.821
  845TIP3    H1 2476   0.225   5.074   0.911
  845TIP3    H2 2477   0.281   5.050   0.773
  846TIP3   OH2 2478   1.431   7.377   6.829
  846TIP3    H1 2479   1.502   7.439   6.841
  846TIP3    H2 2480   1.377   7.415   6.759
  847TIP3   OH2 2481   2.484   3.286   4.307
  847TIP3    H1 2482   2.576   3.270   4.285
  847TIP3    H2 2483   2.478   3.266   4.400
  848TIP3   OH2 2484   8.358   6.855   5.951
  848TIP3    H1 2485   8.416   6.780   5.948
  848TIP3    H2 2486   8.287   6.834   5.891
  849TIP3   OH2 2487   7.040   2.825   5.903
  849TIP3    H1 2488   7.045   2.874   5.985
  849TIP3    H2 2489   7.005   2.888   5.840
  850TIP3   OH2 2490   2.127   6.506   0.471
  850TIP3    H1 2491   2.082   6.505   0.386
  850TIP3    H2 2492   2.177   6.587   0.470
  851TIP3   OH2 2493   0.689   5.822   5.026
  851TIP3    H1 2494   0.736   5.901   5.053
  851TIP3    H2 2495   0.758   5.758   5.008
  852TIP3   OH2 2496   5.523   7.865   2.579
  852TIP3    H1 2497   5.490   7.806   2.647
  852TIP3    H2 2498   5.567   7.935   2.628
  853TIP3   OH2 2499   5.070   0.857   0.678
  853TIP3    H1 2500   5.118   0.841   0.597
  853TIP3    H2 2501   5.030   0.773   0.700
  854TIP3   OH2 2502   5.819   4.968   0.132
  854TIP3    H1 2503   5.744   5.023   0.156
  854TIP3    H2 2504   5.827   4.978   0.038
  855TIP3   OH2 2505   5.262   7.295   5.726
  855TIP3    H1 2506   5.296   7.218   5.771
  855TIP3    H2 2507   5.279   7.367   5.786
  856TIP3   OH2 2508   5.178   0.227   2.113
  856TIP3    H1 2509   5.237   0.184   2.051
  856TIP3    H2 2510   5.175   0.318   2.083
  857TIP3   OH2 2511   0.157   2.438   5.023
  857TIP3    H1 2512   0.068   2.414   4.998
  857TIP3    H2 2513   0.146   2.504   5.091
  858TIP3   OH2 2514   7.499   2.844   3.757
  858TIP3    H1 2515   7.487   2.778   3.826
  858TIP3    H2 2516   7.573   2.897   3.788
  859TIP3   OH2 2517   0.902   1.658   3.991
  859TIP3    H1 2518   0.826   1.687   3.941
  859TIP3    H2 2519   0.977   1.672   3.933
  860TIP3   OH2 2520   7.694   6.283   6.126
  860TIP3    H1 2521   7.716   6.193   6.099
  860TIP3    H2 2522   7.662   6.274   6.215
  861TIP3   OH2 2523   7.225   3.441   5.366
  861TIP3    H1 2524   7.165   3.459   5.294
  861TIP3    H2 2525   7.249   3.528   5.400
  862TIP3   OH2 2526   7.292   2.466   1.292
  862TIP3    H1 2527   7.243   2.451   1.373
  862TIP3    H2 2528   7.257   2.549   1.259
  863TIP3   OH2 2529   3.792   7.454   6.452
  863TIP3    H1 2530   3.765   7.401   6.377
  863TIP3    H2 2531   3.887   7.439   6.459
  864TIP3   OH2 2532   0.032   1.085   4.532
  864TIP3    H1 2533   0.030   0.990   4.521
  864TIP3    H2 2534   0.018   1.119   4.443
  865TIP3   OH2 2535   5.656   0.102   4.625
  865TIP3    H1 2536   5.712   0.060   4.560
  865TIP3    H2 2537   5.616   0.030   4.673
  866TIP3   OH2 2538   4.145   2.664   1.354
  866TIP3    H1 2539   4.170   2.571   1.354
  866TIP3    H2 2540   4.225   2.710   1.380
  867TIP3   OH2 2541   2.223   4.153   1.105
  867TIP3    H1 2542   2.222   4.093   1.030
  867TIP3    H2 2543   2.288   4.219   1.082
  868TIP3   OH2 2544   4.312   4.217   4.826
  868TIP3    H1 2545   4.340   4.126   4.831
  868TIP3    H2 2546   4.266   4.223   4.742
  869TIP3   OH2 2547   1.687   7.140   3.393
  869TIP3    H1 2548   1.748   7.147   3.320
  869TIP3    H2 2549   1.602   7.125   3.351
  870TIP3   OH2 2550   7.507   6.729   0.360
  870TIP3    H1 2551   7.571   6.713   0.429
  870TIP3    H2 2552   7.540   6.679   0.285
  871TIP3   OH2 2553   4.638   3.883   1.869
  871TIP3    H1 2554   4.679   3.829   1.936
  871TIP3    H2 2555   4.552   3.904   1.905
  872TIP3   OH2 2556   2.095   2.340   3.215
  872TIP3    H1 2557   2.124   2.389   3.292
  872TIP3    H2 2558   2.077   2.252   3.248
  873TIP3   OH2 2559   6.150   4.810   0.268
  873TIP3    H1 2560   6.191   4.884   0.223
  873TIP3    H2 2561   6.219   4.773   0.322
  874TIP3   OH2 2562   2.973   6.283   1.925
  874TIP3    H1 2563   2.963   6.372   1.959
  874TIP3    H2 2564   3.050   6.249   1.970
  875TIP3   OH2 2565   5.442   6.318   6.822
  875TIP3    H1 2566   5.394   6.390   6.781
  875TIP3    H2 2567   5.481   6.271   6.748
  876TIP3   OH2 2568   4.693   7.439   3.358
  876TIP3    H1 2569   4.672   7.349   3.333
  876TIP3    H2 2570   4.675   7.444   3.452
  877TIP3   OH2 2571   2.469   4.435   5.060
  877TIP3    H1 2572   2.549   4.413   5.013
  877TIP3    H2 2573   2.464   4.530   5.057
  878TIP3   OH2 2574   3.272   0.146   3.781
  878TIP3    H1 2575   3.205   0.192   3.730
  878TIP3    H2 2576   3.272   0.190   3.866
  879TIP3   OH2 2577   7.669   7.347   1.300
  879TIP3    H1 2578   7.759   7.378   1.293
  879TIP3    H2 2579   7.620   7.424   1.330
  880TIP3   OH2 2580   2.358   4.200   6.683
  880TIP3    H1 2581   2.339   4.143   6.757
  880TIP3    H2 2582   2.450   4.184   6.663
  881TIP3   OH2 2583   3.823   4.074   4.541
  881TIP3    H1 2584   3.846   4.048   4.451
  881TIP3    H2 2585   3.765   4.149   4.529
  882TIP3   OH2 2586   1.578   4.606   0.433
  882TIP3    H1 2587   1.614   4.678   0.380
  882TIP3    H2 2588   1.533   4.550   0.370
  883TIP3   OH2 2589   3.491   1.600   1.350
  883TIP3    H1 2590   3.470   1.627   1.440
  883TIP3    H2 2591   3.423   1.640   1.297
  884TIP3   OH2 2592   2.946   3.501   2.261
  884TIP3    H1 2593   2.973   3.510   2.169
  884TIP3    H2 2594   3.009   3.440   2.299
  885TIP3   OH2 2595   3.475   7.065   6.129
  885TIP3    H1 2596   3.517   6.995   6.178
  885TIP3    H2 2597   3.393   7.027   6.097
  886TIP3   OH2 2598   6.418   3.585   1.627
  886TIP3    H1 2599   6.458   3.513   1.578
  886TIP3    H2 2600   6.403   3.549   1.714
  887TIP3   OH2 2601   3.043   3.726   4.885
  887TIP3    H1 2602   2.977   3.735   4.816
  887TIP3    H2 2603   3.029   3.803   4.940
  888TIP3   OH2 2604   0.878   2.603   0.287
  888TIP3    H1 2605   0.942   2.550   0.239
  888TIP3    H2 2606   0.915   2.610   0.375
  889TIP3   OH2 2607   8.128   5.516   4.034
  889TIP3    H1 2608   8.068   5.518   4.108
  889TIP3    H2 2609   8.211   5.547   4.069
  890TIP3   OH2 2610   5.039   6.064   4.808
  890TIP3    H1 2611   5.125   6.027   4.785
  890TIP3    H2 2612   5.047   6.157   4.789
  891TIP3   OH2 2613   3.381   3.846   6.485
  891TIP3    H1 2614   3.428   3.780   6.434
  891TIP3    H2 2615   3.377   3.811   6.573
  892TIP3   OH2 2616   6.492   2.379   5.724
  892TIP3    H1 2617   6.567   2.429   5.692
  892TIP3    H2 2618   6.502   2.293   5.683
  893TIP3   OH2 2619   0.743   6.526   1.893
  893TIP3    H1 2620   0.816   6.585   1.913
  893TIP3    H2 2621   0.784   6.454   1.845
  894TIP3   OH2 2622   6.347   1.751   1.810
  894TIP3    H1 2623   6.282   1.690   1.845
  894TIP3    H2 2624   6.408   1.695   1.760
  895TIP3   OH2 2625   7.998   5.409   6.054
  895TIP3    H1 2626   7.980   5.503   6.057
  895TIP3    H2 2627   8.088   5.401   6.086
  896TIP3   OH2 2628   0.039   2.036   1.743
  896TIP3    H1 2629   0.030   1.949   1.703
  896TIP3    H2 2630  -0.030   2.089   1.702
  897TIP3   OH2 2631   0.032   7.797   2.921
  897TIP3    H1 2632   0.123   7.795   2.892
  897TIP3    H2 2633   0.012   7.706   2.944
  898TIP3   OH2 2634   5.212   3.092   4.068
  898TIP3    H1 2635   5.245   3.031   4.134
  898TIP3    H2 2636   5.219   3.045   3.985
  899TIP3   OH2 2637   2.897   2.810   3.738
  899TIP3    H1 2638   2.805   2.798   3.763
  899TIP3    H2 2639   2.928   2.722   3.717
  900TIP3   OH2 2640   3.119   6.075   3.855
  900TIP3    H1 2641   3.147   6.165   3.871
  900TIP3    H2 2642   3.101   6.040   3.942
  901TIP3   OH2 2643   1.251   5.683   4.345
  901TIP3    H1 2644   1.217   5.687   4.434
  901TIP3    H2 2645   1.209   5.756   4.299
  902TIP3   OH2 2646   5.854   1.024   4.076
  902TIP3    H1 2647   5.903   0.964   4.132
  902TIP3    H2 2648   5.884   1.111   4.101
  903TIP3   OH2 2649   1.707   7.659   6.378
  903TIP3    H1 2650   1.735   7.572   6.406
  903TIP3    H2 2651   1.771   7.719   6.418
  904TIP3   OH2 2652   1.706   1.965   2.339
  904TIP3    H1 2653   1.730   1.990   2.250
  904TIP3    H2 2654   1.661   2.041   2.375
  905TIP3   OH2 2655   1.618   0.422   3.585
  905TIP3    H1 2656   1.530   0.451   3.609
  905TIP3    H2 2657   1.646   0.483   3.517
  906TIP3   OH2 2658   5.296   0.408   6.319
  906TIP3    H1 2659   5.251   0.338   6.272
  906TIP3    H2 2660   5.389   0.386   6.313
  907TIP3   OH2 2661   7.190   7.749   0.921
  907TIP3    H1 2662   7.118   7.788   0.871
  907TIP3    H2 2663   7.218   7.675   0.868
  908TIP3   OH2 2664   7.733   5.953   0.523
  908TIP3    H1 2665   7.690   5.946   0.608
  908TIP3    H2 2666   7.703   6.036   0.488
  909TIP3   OH2 2667   3.163   7.711   1.805
  909TIP3    H1 2668   3.234   7.773   1.790
  909TIP3    H2 2669   3.154   7.707   1.900
  910TIP3   OH2 2670   4.069   7.387   5.268
  910TIP3    H1 2671   4.057   7.437   5.349
  910TIP3    H2 2672   4.064   7.296   5.295
  911TIP3   OH2 2673   4.631   2.644   5.865
  911TIP3    H1 2674   4.669   2.707   5.804
  911TIP3    H2 2675   4.542   2.675   5.881
  912TIP3   OH2 2676   5.983   7.529   4.633
  912TIP3    H1 2677   5.901   7.487   4.662
  912TIP3    H2 2678   6.031   7.459   4.589
  913TIP3   OH2 2679   1.368   3.790   2.308
  913TIP3    H1 2680   1.424   3.744   2.370
  913TIP3    H2 2681   1.279   3.761   2.329
  914TIP3   OH2 2682   6.483   0.700   5.073
  914TIP3    H1 2683   6.564   0.713   5.122
  914TIP3    H2 2684   6.418   0.676   5.139
  915TIP3   OH2 2685   7.919   6.600   4.988
  915TIP3    H1 2686   7.906   6.563   5.075
  915TIP3    H2 2687   7.834   6.593   4.945
  916TIP3   OH2 2688   5.378   2.608   4.061
  916TIP3    H1 2689   5.305   2.579   4.006
  916TIP3    H2 2690   5.429   2.528   4.077
  917TIP3   OH2 2691   2.076   6.019   2.895
  917TIP3    H1 2692   2.119   6.091   2.848
  917TIP3    H2 2693   2.129   6.007   2.974
  918TIP3   OH2 2694   4.514   6.944   2.483
  918TIP3    H1 2695   4.532   6.971   2.393
  918TIP3    H2 2696   4.419   6.952   2.493
  919TIP3   OH2 2697   5.850   0.333   3.502
  919TIP3    H1 2698   5.798   0.296   3.431
  919TIP3    H2 2699   5.806   0.416   3.523
  920TIP3   OH2 2700   7.206   0.347   4.831
  920TIP3    H1 2701   7.159   0.271   4.795
  920TIP3    H2 2702   7.156   0.423   4.800
  921TIP3   OH2 2703   4.883   7.223   1.728
  921TIP3    H1 2704   4.963   7.235   1.780
  921TIP3    H2 2705   4.913   7.228   1.637
  922TIP3   OH2 2706   0.339   2.557   5.932
  922TIP3    H1 2707   0.435   2.560   5.923
  922TIP3    H2 2708   0.322   2.603   6.014
  923TIP3   OH2 2709   6.862   5.142   6.156
  923TIP3    H1 2710   6.887   5.067   6.210
  923TIP3    H2 2711   6.943   5.168   6.111
  924TIP3   OH2 2712   3.309   5.372   3.336
  924TIP3    H1 2713   3.373   5.367   3.406
  924TIP3    H2 2714   3.233   5.416   3.374
  925TIP3   OH2 2715   0.761   6.726   4.375
  925TIP3    H1 2716   0.669   6.749   4.381
  925TIP3    H2 2717   0.807   6.809   4.390
  926TIP3   OH2 2718   8.011   6.085   1.210
  926TIP3    H1 2719   7.982   6.125   1.128
  926TIP3    H2 2720   8.104   6.109   1.216
  927TIP3   OH2 2721   7.310   4.534   5.617
  927TIP3    H1 2722   7.318   4.442   5.590
  927TIP3    H2 2723   7.269   4.530   5.703
  928TIP3   OH2 2724   2.355   4.513   2.165
  928TIP3    H1 2725   2.327   4.602   2.183
  928TIP3    H2 2726   2.370   4.510   2.071
  929TIP3   OH2 2727   1.286   3.942   5.786
  929TIP3    H1 2728   1.288   3.908   5.696
  929TIP3    H2 2729   1.218   4.009   5.784
  930TIP3   OH2 2730   5.338   4.783   3.054
  930TIP3    H1 2731   5.324   4.756   3.145
  930TIP3    H2 2732   5.409   4.727   3.023
  931TIP3   OH2 2733   0.943   0.041   2.876
  931TIP3    H1 2734   0.998  -0.019   2.927
  931TIP3    H2 2735   0.854   0.021   2.904
  932TIP3   OH2 2736   3.429   5.872   1.436
  932TIP3    H1 2737   3.464   5.872   1.347
  932TIP3    H2 2738   3.397   5.961   1.448
  933TIP3   OH2 2739   6.189   1.410   3.674
  933TIP3    H1 2740   6.221   1.352   3.605
  933TIP3    H2 2741   6.124   1.465   3.631
  934TIP3   OH2 2742   7.423   4.688   2.943
  934TIP3    H1 2743   7.388   4.600   2.957
  934TIP3    H2 2744   7.518   4.675   2.940
  935TIP3   OH2 2745   4.858   0.441   2.007
  935TIP3    H1 2746   4.836   0.349   2.024
  935TIP3    H2 2747   4.781   0.490   2.036
  936TIP3   OH2 2748   3.761   4.373   4.331
  936TIP3    H1 2749   3.734   4.383   4.422
  936TIP3    H2 2750   3.685   4.335   4.287
  937TIP3   OH2 2751   0.065   6.459   5.887
  937TIP3    H1 2752   0.107   6.506   5.815
  937TIP3    H2 2753  -0.016   6.507   5.903
  938TIP3   OH2 2754   1.191   3.183   3.566
  938TIP3    H1 2755   1.148   3.223   3.490
  938TIP3    H2 2756   1.285   3.195   3.550
  939TIP3   OH2 2757   2.263   5.097   1.678
  939TIP3    H1 2758   2.182   5.138   1.649
  939TIP3    H2 2759   2.263   5.011   1.636
  940TIP3   OH2 2760   0.520   5.260   1.923
  940TIP3    H1 2761   0.539   5.328   1.988
  940TIP3    H2 2762   0.604   5.243   1.881
  941TIP3   OH2 2763   6.543   2.698   2.508
  941TIP3    H1 2764   6.468   2.725   2.561
  941TIP3    H2 2765   6.617   2.747   2.544
  942TIP3   OH2 2766   2.961   1.570   3.926
  942TIP3    H1 2767   2.871   1.574   3.956
  942TIP3    H2 2768   2.977   1.477   3.909
  943TIP3   OH2 2769   2.248   6.577   4.228
  943TIP3    H1 2770   2.329   6.526   4.230
  943TIP3    H2 2771   2.185   6.518   4.185
  944TIP3   OH2 2772   8.291   7.599   2.152
  944TIP3    H1 2773   8.291   7.646   2.068
  944TIP3    H2 2774   8.291   7.506   2.127
  945TIP3   OH2 2775   7.692   4.383   6.148
  945TIP3    H1 2776   7.707   4.295   6.182
  945TIP3    H2 2777   7.678   4.370   6.054
  946TIP3   OH2 2778   8.028   3.731   1.934
  946TIP3    H1 2779   7.934   3.716   1.924
  946TIP3    H2 2780   8.058   3.661   1.992
  947TIP3   OH2 2781   6.975   4.208   5.581
  947TIP3    H1 2782   6.928   4.211   5.498
  947TIP3    H2 2783   6.951   4.125   5.621
  948TIP3   OH2 2784   4.460   3.117   5.480
  948TIP3    H1 2785   4.454   3.096   5.387
  948TIP3    H2 2786   4.419   3.203   5.487
  949TIP3   OH2 2787   1.176   4.326   3.178
  949TIP3    H1 2788   1.141   4.340   3.090
  949TIP3    H2 2789   1.230   4.247   3.171
  950TIP3   OH2 2790   3.941   7.022   6.208
  950TIP3    H1 2791   3.929   7.081   6.133
  950TIP3    H2 2792   3.855   6.982   6.221
  951TIP3   OH2 2793   0.928   6.468   4.665
  951TIP3    H1 2794   0.851   6.493   4.614
  951TIP3    H2 2795   0.934   6.535   4.733
  952TIP3   OH2 2796   7.386   6.444   2.392
  952TIP3    H1 2797   7.298   6.482   2.385
  952TIP3    H2 2798   7.373   6.360   2.435
  953TIP3   OH2 2799   2.745   4.882   6.204
  953TIP3    H1 2800   2.687   4.922   6.269
  953TIP3    H2 2801   2.790   4.956   6.164
  954TIP3   OH2 2802   5.162   2.602   1.305
  954TIP3    H1 2803   5.173   2.509   1.324
  954TIP3    H2 2804   5.068   2.614   1.295
  955TIP3   OH2 2805   4.101   2.572   3.414
  955TIP3    H1 2806   4.012   2.560   3.446
  955TIP3    H2 2807   4.094   2.564   3.319
  956TIP3   OH2 2808   3.102   0.412   6.261
  956TIP3    H1 2809   3.063   0.395   6.175
  956TIP3    H2 2810   3.042   0.475   6.302
  957TIP3   OH2 2811   1.832   7.871   4.524
  957TIP3    H1 2812   1.765   7.867   4.592
  957TIP3    H2 2813   1.798   7.935   4.461
  958TIP3   OH2 2814   1.030   3.478   3.749
  958TIP3    H1 2815   1.031   3.548   3.815
  958TIP3    H2 2816   0.992   3.403   3.794
  959TIP3   OH2 2817   7.125   4.706   4.324
  959TIP3    H1 2818   7.154   4.796   4.341
  959TIP3    H2 2819   7.030   4.710   4.332
  960TIP3   OH2 2820   0.324   7.527   0.466
  960TIP3    H1 2821   0.270   7.548   0.542
  960TIP3    H2 2822   0.357   7.612   0.436
  961TIP3   OH2 2823   0.345   6.740   6.689
  961TIP3    H1 2824   0.347   6.796   6.767
  961TIP3    H2 2825   0.409   6.779   6.630
  962TIP3   OH2 2826   1.808   0.226   4.206
  962TIP3    H1 2827   1.792   0.167   4.280
  962TIP3    H2 2828   1.877   0.183   4.155
  963TIP3   OH2 2829   5.859   6.346   0.588
  963TIP3    H1 2830   5.947   6.361   0.553
  963TIP3    H2 2831   5.851   6.251   0.593
  964TIP3   OH2 2832   2.937   2.206   1.200
  964TIP3    H1 2833   2.982   2.186   1.118
  964TIP3    H2 2834   3.003   2.246   1.255
  965TIP3   OH2 2835   8.402   6.742   5.118
  965TIP3    H1 2836   8.319   6.756   5.071
  965TIP3    H2 2837   8.441   6.830   5.123
  966TIP3   OH2 2838   8.256   6.026   2.331
  966TIP3    H1 2839   8.250   5.999   2.239
  966TIP3    H2 2840   8.273   6.120   2.328
  967TIP3   OH2 2841   2.763   1.978   2.414
  967TIP3    H1 2842   2.761   1.953   2.506
  967TIP3    H2 2843   2.836   2.040   2.407
  968TIP3   OH2 2844   0.344   3.344   6.486
  968TIP3    H1 2845   0.381   3.350   6.574
  968TIP3    H2 2846   0.335   3.250   6.469
  969TIP3   OH2 2847   5.303   2.775   5.030
  969TIP3    H1 2848   5.357   2.854   5.042
  969TIP3    H2 2849   5.337   2.713   5.094
  970TIP3   OH2 2850   7.011   7.896   3.741
  970TIP3    H1 2851   7.066   7.821   3.761
  970TIP3    H2 2852   7.046   7.931   3.659
  971TIP3   OH2 2853   5.413   5.692   2.665
  971TIP3    H1 2854   5.400   5.750   2.740
  971TIP3    H2 2855   5.397   5.748   2.589
  972TIP3   OH2 2856   7.738   4.042   2.354
  972TIP3    H1 2857   7.813   4.070   2.406
  972TIP3    H2 2858   7.756   4.075   2.266
  973TIP3   OH2 2859   6.124   6.375   3.957
  973TIP3    H1 2860   6.184   6.322   3.904
  973TIP3    H2 2861   6.145   6.465   3.935
  974TIP3   OH2 2862   6.558   7.553   6.325
  974TIP3    H1 2863   6.476   7.511   6.298
  974TIP3    H2 2864   6.614   7.549   6.248
  975TIP3   OH2 2865   3.463   7.537   5.138
  975TIP3    H1 2866   3.378   7.525   5.095
  975TIP3    H2 2867   3.463   7.628   5.167
  976TIP3   OH2 2868   2.044   0.990   3.999
  976TIP3    H1 2869   2.005   0.959   3.917
  976TIP3    H2 2870   2.107   0.921   4.022
  977TIP3   OH2 2871   3.608   2.315   2.473
  977TIP3    H1 2872   3.526   2.269   2.492
  977TIP3    H2 2873   3.595   2.402   2.510
  978TIP3   OH2 2874   6.644   3.254   6.066
  978TIP3    H1 2875   6.652   3.348   6.081
  978TIP3    H2 2876   6.550   3.236   6.072
  979TIP3   OH2 2877   1.041   1.262   5.523
  979TIP3    H1 2878   0.976   1.332   5.525
  979TIP3    H2 2879   1.111   1.297   5.468
  980TIP3   OH2 2880   1.244   2.643   1.359
  980TIP3    H1 2881   1.302   2.630   1.435
  980TIP3    H2 2882   1.215   2.734   1.367
  981TIP3   OH2 2883   6.063   4.578   4.399
  981TIP3    H1 2884   6.059   4.662   4.445
  981TIP3    H2 2885   5.975   4.565   4.364
  982TIP3   OH2 2886   2.604   4.691   6.060
  982TIP3    H1 2887   2.514   4.704   6.090
  982TIP3    H2 2888   2.658   4.736   6.126
  983TIP3   OH2 2889   3.238   2.767   3.578
  983TIP3    H1 2890   3.302   2.838   3.574
  983TIP3    H2 2891   3.203   2.771   3.667
  984TIP3   OH2 2892   1.252   3.527   5.848
  984TIP3    H1 2893   1.161   3.549   5.833
  984TIP3    H2 2894   1.275   3.573   5.929
  985TIP3   OH2 2895   4.302   2.079   5.928
  985TIP3    H1 2896   4.281   1.997   5.883
  985TIP3    H2 2897   4.363   2.124   5.869
  986TIP3   OH2 2898   4.289   4.096   5.433
  986TIP3    H1 2899   4.248   4.083   5.347
  986TIP3    H2 2900   4.229   4.055   5.495
  987TIP3   OH2 2901   6.279   2.645   6.068
  987TIP3    H1 2902   6.264   2.731   6.105
  987TIP3    H2 2903   6.231   2.647   5.984
  988TIP3   OH2 2904   7.758   7.156   6.127
  988TIP3    H1 2905   7.696   7.100   6.175
  988TIP3    H2 2906   7.707   7.235   6.107
  989TIP3   OH2 2907   5.691   6.645   3.657
  989TIP3    H1 2908   5.671   6.661   3.749
  989TIP3    H2 2909   5.765   6.703   3.638
  990TIP3   OH2 2910   5.993   5.414   0.369
  990TIP3    H1 2911   5.913   5.368   0.395
  990TIP3    H2 2912   6.058   5.390   0.435
  991TIP3   OH2 2913   3.861   4.605   4.216
  991TIP3    H1 2914   3.776   4.634   4.181
  991TIP3    H2 2915   3.844   4.518   4.250
  992TIP3   OH2 2916   5.596   5.586   1.491
  992TIP3    H1 2917   5.651   5.522   1.445
  992TIP3    H2 2918   5.621   5.670   1.454
  993TIP3   OH2 2919   4.925   2.871   1.125
  993TIP3    H1 2920   5.021   2.864   1.124
  993TIP3    H2 2921   4.894   2.781   1.126
  994TIP3   OH2 2922   1.260   7.348   4.201
  994TIP3    H1 2923   1.254   7.443   4.198
  994TIP3    H2 2924   1.201   7.322   4.272
  995TIP3   OH2 2925   4.932   4.120   1.209
  995TIP3    H1 2926   4.858   4.137   1.267
  995TIP3    H2 2927   5.009   4.128   1.265
  996TIP3   OH2 2928   3.504   7.459   5.572
  996TIP3    H1 2929   3.549   7.537   5.601
  996TIP3    H2 2930   3.412   7.484   5.567
  997TIP3   OH2 2931   8.380   0.486   6.545
  997TIP3    H1 2932   8.312   0.433   6.587
  997TIP3    H2 2933   8.341   0.572   6.535
  998TIP3   OH2 2934   6.842   3.621   6.329
  998TIP3    H1 2935   6.760   3.628   6.378
  998TIP3    H2 2936   6.888   3.547   6.369
  999TIP3   OH2 2937   7.252   5.420   5.772
  999TIP3    H1 2938   7.224   5.480   5.704
  999TIP3    H2 2939   7.171   5.383   5.807
 1000TIP3   OH2 2940   6.565   3.923   4.675
 1000TIP3    H1 2941   6.649   3.920   4.721
 1000TIP3    H2 2942   6.557   4.013   4.645
 1001TIP3   OH2 2943   3.968   3.688   5.175
 1001TIP3    H1 2944   4.041   3.722   5.123
 1001TIP3    H2 2945   3.957   3.752   5.245
 1002TIP3   OH2 2946   6.504   0.494   5.380
 1002TIP3    H1 2947   6.547   0.465   5.300
 1002TIP3    H2 2948   6.504   0.590   5.374
 1003TIP3   OH2 2949   4.699   3.428   2.630
 1003TIP3    H1 2950   4.712   3.520   2.652
 1003TIP3    H2 2951   4.614   3.406   2.669
 1004TIP3   OH2 2952   0.412   7.135   3.747
 1004TIP3    H1 2953   0.375   7.218   3.777
 1004TIP3    H2 2954   0.452   7.155   3.663
 1005TIP3   OH2 2955   0.437   5.205   3.901
 1005TIP3    H1 2956   0.417   5.255   3.981
 1005TIP3    H2 2957   0.358   5.154   3.884
 1006TIP3   OH2 2958   7.867   1.675   2.034
 1006TIP3    H1 2959   7.795   1.659   2.094
 1006TIP3    H2 2960   7.919   1.594   2.035
 1007TIP3   OH2 2961   5.011   4.791   2.040
 1007TIP3    H1 2962   4.929   4.768   2.082
 1007TIP3    H2 2963   4.992   4.787   1.946
 1008TIP3   OH2 2964   6.507   3.612   0.134
 1008TIP3    H1 2965   6.576   3.672   0.160
 1008TIP3    H2 2966   6.438   3.668   0.099
 1009TIP3   OH2 2967   4.674   4.147   5.869
 1009TIP3    H1 2968   4.637   4.185   5.789
 1009TIP3    H2 2969   4.767   4.170   5.866
 1010TIP3   OH2 2970   3.680   5.822   5.398
 1010TIP3    H1 2971   3.641   5.823   5.310
 1010TIP3    H2 2972   3.651   5.904   5.438
 1011TIP3   OH2 2973   4.596   4.768   1.868
 1011TIP3    H1 2974   4.674   4.761   1.923
 1011TIP3    H2 2975   4.529   4.720   1.917
 1012TIP3   OH2 2976   4.895   6.971   6.093
 1012TIP3    H1 2977   4.967   7.022   6.131
 1012TIP3    H2 2978   4.938   6.892   6.059
 1013TIP3   OH2 2979   6.100   0.167   2.005
 1013TIP3    H1 2980   6.005   0.159   2.010
 1013TIP3    H2 2981   6.117   0.262   2.011
 1014TIP3   OH2 2982   3.565   7.289   4.374
 1014TIP3    H1 2983   3.522   7.265   4.292
 1014TIP3    H2 2984   3.545   7.382   4.385
 1015TIP3   OH2 2985   2.194   4.444   5.359
 1015TIP3    H1 2986   2.179   4.478   5.447
 1015TIP3    H2 2987   2.283   4.473   5.336
 1016TIP3   OH2 2988   1.208   5.267   3.392
 1016TIP3    H1 2989   1.251   5.296   3.312
 1016TIP3    H2 2990   1.144   5.202   3.363
 1017TIP3   OH2 2991   7.074   0.105   5.618
 1017TIP3    H1 2992   7.045   0.015   5.635
 1017TIP3    H2 2993   7.073   0.148   5.703
 1018TIP3   OH2 2994   0.882   7.912   5.024
 1018TIP3    H1 2995   0.796   7.936   4.989
 1018TIP3    H2 2996   0.863   7.859   5.102
 1019TIP3   OH2 2997   0.083   2.701   2.748
 1019TIP3    H1 2998   0.100   2.782   2.700
 1019TIP3    H2 2999   0.041   2.730   2.829
 1020TIP3   OH2 3000   7.885   7.390   3.169
 1020TIP3    H1 3001   7.895   7.387   3.264
 1020TIP3    H2 3002   7.964   7.347   3.135
 1021TIP3   OH2 3003   3.780   6.893   5.931
 1021TIP3    H1 3004   3.812   6.974   5.893
 1021TIP3    H2 3005   3.710   6.865   5.873
 1022TIP3   OH2 3006   6.824   1.645   1.624
 1022TIP3    H1 3007   6.757   1.589   1.663
 1022TIP3    H2 3008   6.793   1.734   1.638
 1023TIP3   OH2 3009   5.724   3.639   2.227
 1023TIP3    H1 3010   5.734   3.588   2.147
 1023TIP3    H2 3011   5.660   3.590   2.279
 1024TIP3   OH2 3012   4.095   4.498   5.703
 1024TIP3    H1 3013   4.085   4.467   5.793
 1024TIP3    H2 3014   4.183   4.534   5.699
 1025TIP3   OH2 3015   7.785   3.494   4.196
 1025TIP3    H1 3016   7.730   3.572   4.203
 1025TIP3    H2 3017   7.818   3.480   4.286
 1026TIP3   OH2 3018   4.988   6.753   1.830
 1026TIP3    H1 3019   5.071   6.790   1.861
 1026TIP3    H2 3020   4.929   6.829   1.824
 1027TIP3   OH2 3021   6.469   6.876   5.216
 1027TIP3    H1 3022   6.401   6.809   5.214
 1027TIP3    H2 3023   6.544   6.834   5.174
 1028TIP3   OH2 3024   0.013   4.903   5.117
 1028TIP3    H1 3025   0.079   4.837   5.097
 1028TIP3    H2 3026  -0.012   4.939   5.032
 1029TIP3   OH2 3027   5.704   4.962   6.856
 1029TIP3    H1 3028   5.718   4.890   6.794
 1029TIP3    H2 3029   5.613   4.952   6.883
 1030TIP3   OH2 3030   1.045   5.547   3.212
 1030TIP3    H1 3031   1.080   5.470   3.166
 1030TIP3    H2 3032   0.981   5.511   3.273
 1031TIP3   OH2 3033   5.157   7.929   2.169
 1031TIP3    H1 3034   5.143   7.839   2.139
 1031TIP3    H2 3035   5.087   7.979   2.127
 1032TIP3   OH2 3036   3.082   5.030   6.430
 1032TIP3    H1 3037   3.165   5.024   6.478
 1032TIP3    H2 3038   3.055   4.938   6.418
 1033TIP3   OH2 3039   3.524   6.270   6.429
 1033TIP3    H1 3040   3.568   6.206   6.484
 1033TIP3    H2 3041   3.457   6.219   6.382
 1034TIP3   OH2 3042   4.491   5.629   5.322
 1034TIP3    H1 3043   4.422   5.584   5.273
 1034TIP3    H2 3044   4.569   5.575   5.309
 1035TIP3   OH2 3045   8.263   2.062   0.617
 1035TIP3    H1 3046   8.355   2.056   0.646
 1035TIP3    H2 3047   8.216   2.004   0.675
 1036TIP3   OH2 3048   7.828   0.200   6.225
 1036TIP3    H1 3049   7.748   0.253   6.225
 1036TIP3    H2 3050   7.896   0.258   6.257
 1037TIP3   OH2 3051   1.001   1.451   4.759
 1037TIP3    H1 3052   1.029   1.360   4.764
 1037TIP3    H2 3053   0.973   1.474   4.848
 1038TIP3   OH2 3054   6.167   0.271   1.692
 1038TIP3    H1 3055   6.261   0.260   1.706
 1038TIP3    H2 3056   6.157   0.278   1.597
 1039TIP3   OH2 3057   1.535   5.328   5.767
 1039TIP3    H1 3058   1.521   5.241   5.804
 1039TIP3    H2 3059   1.456   5.377   5.791
 1040TIP3   OH2 3060   5.561   5.734   1.783
 1040TIP3    H1 3061   5.580   5.819   1.824
 1040TIP3    H2 3062   5.556   5.753   1.690
 1041TIP3   OH2 3063   0.888   7.717   1.284
 1041TIP3    H1 3064   0.862   7.696   1.373
 1041TIP3    H2 3065   0.827   7.786   1.257
 1042TIP3   OH2 3066   4.308   4.637   3.572
 1042TIP3    H1 3067   4.359   4.581   3.631
 1042TIP3    H2 3068   4.235   4.669   3.626
 1043TIP3   OH2 3069   3.574   3.654   2.188
 1043TIP3    H1 3070   3.607   3.584   2.245
 1043TIP3    H2 3071   3.650   3.710   2.172
 1044TIP3   OH2 3072   0.853   0.669   6.294
 1044TIP3    H1 3073   0.881   0.708   6.211
 1044TIP3    H2 3074   0.912   0.708   6.360
 1045TIP3   OH2 3075   4.590   1.157   5.265
 1045TIP3    H1 3076   4.613   1.153   5.358
 1045TIP3    H2 3077   4.520   1.093   5.255
 1046TIP3   OH2 3078   3.836   7.891   5.895
 1046TIP3    H1 3079   3.830   7.805   5.936
 1046TIP3    H2 3080   3.860   7.951   5.966
 1047TIP3   OH2 3081   1.734   0.634   2.588
 1047TIP3    H1 3082   1.700   0.548   2.561
 1047TIP3    H2 3083   1.809   0.649   2.531
 1048TIP3   OH2 3084   2.477   5.809   3.779
 1048TIP3    H1 3085   2.475   5.725   3.735
 1048TIP3    H2 3086   2.520   5.792   3.863
 1049TIP3   OH2 3087   5.338   5.205   0.932
 1049TIP3    H1 3088   5.370   5.122   0.965
 1049TIP3    H2 3089   5.288   5.242   1.005
 1050TIP3   OH2 3090   7.447   5.792   5.202
 1050TIP3    H1 3091   7.378   5.815   5.139
 1050TIP3    H2 3092   7.436   5.698   5.216
 1051TIP3   OH2 3093   0.852   6.652   1.421
 1051TIP3    H1 3094   0.866   6.746   1.408
 1051TIP3    H2 3095   0.846   6.616   1.333
 1052TIP3   OH2 3096   2.033   4.866   2.960
 1052TIP3    H1 3097   1.950   4.887   3.004
 1052TIP3    H2 3098   2.063   4.786   3.003
 1053TIP3   OH2 3099   0.052   1.233   6.397
 1053TIP3    H1 3100   0.068   1.229   6.303
 1053TIP3    H2 3101   0.071   1.324   6.421
 1054TIP3   OH2 3102   6.596   4.891   1.081
 1054TIP3    H1 3103   6.662   4.944   1.037
 1054TIP3    H2 3104   6.527   4.952   1.104
 1055TIP3   OH2 3105   1.047   0.859   2.189
 1055TIP3    H1 3106   1.023   0.950   2.206
 1055TIP3    H2 3107   0.980   0.826   2.129
 1056TIP3   OH2 3108   0.038   3.332   3.165
 1056TIP3    H1 3109   0.009   3.423   3.159
 1056TIP3    H2 3110   0.041   3.314   3.259
 1057TIP3   OH2 3111   7.394   1.922   4.482
 1057TIP3    H1 3112   7.328   1.988   4.502
 1057TIP3    H2 3113   7.462   1.936   4.547
 1058TIP3   OH2 3114   2.840   0.915   1.118
 1058TIP3    H1 3115   2.903   0.958   1.176
 1058TIP3    H2 3116   2.760   0.966   1.128
 1059TIP3   OH2 3117   0.054   3.262   1.830
 1059TIP3    H1 3118   0.119   3.332   1.829
 1059TIP3    H2 3119   0.018   3.264   1.919
 1060TIP3   OH2 3120   7.580   1.003   0.457
 1060TIP3    H1 3121   7.650   1.024   0.519
 1060TIP3    H2 3122   7.505   0.981   0.512
 1061TIP3   OH2 3123   1.289   4.945   0.503
 1061TIP3    H1 3124   1.327   5.008   0.442
 1061TIP3    H2 3125   1.359   4.881   0.518
 1062TIP3   OH2 3126   5.743   3.069   6.275
 1062TIP3    H1 3127   5.767   3.068   6.367
 1062TIP3    H2 3128   5.663   3.017   6.271
 1063TIP3   OH2 3129   6.490   7.094   6.706
 1063TIP3    H1 3130   6.578   7.101   6.670
 1063TIP3    H2 3131   6.491   7.151   6.783
 1064TIP3   OH2 3132   4.135   7.357   1.984
 1064TIP3    H1 3133   4.044   7.329   1.979
 1064TIP3    H2 3134   4.146   7.391   2.073
 1065TIP3   OH2 3135   7.091   0.772   5.580
 1065TIP3    H1 3136   7.144   0.834   5.531
 1065TIP3    H2 3137   7.104   0.797   5.672
 1066TIP3   OH2 3138   2.030   0.742   2.703
 1066TIP3    H1 3139   2.097   0.810   2.694
 1066TIP3    H2 3140   1.982   0.745   2.621
 1067TIP3   OH2 3141   6.303   2.173   0.526
 1067TIP3    H1 3142   6.284   2.262   0.495
 1067TIP3    H2 3143   6.308   2.120   0.447
 1068TIP3   OH2 3144   1.841   1.176   6.615
 1068TIP3    H1 3145   1.933   1.202   6.618
 1068TIP3    H2 3146   1.816   1.183   6.523
 1069TIP3   OH2 3147   3.006   3.485   5.606
 1069TIP3    H1 3148   3.072   3.463   5.540
 1069TIP3    H2 3149   3.048   3.468   5.690
 1070TIP3   OH2 3150   4.243   0.441   0.168
 1070TIP3    H1 3151   4.187   0.376   0.210
 1070TIP3    H2 3152   4.223   0.434   0.075
 1071TIP3   OH2 3153   5.448   2.286   1.895
 1071TIP3    H1 3154   5.375   2.335   1.857
 1071TIP3    H2 3155   5.513   2.280   1.825
 1072TIP3   OH2 3156   2.809   2.989   4.472
 1072TIP3    H1 3157   2.862   2.910   4.468
 1072TIP3    H2 3158   2.764   2.985   4.556
 1073TIP3   OH2 3159   1.931   1.413   5.956
 1073TIP3    H1 3160   1.863   1.461   5.910
 1073TIP3    H2 3161   1.959   1.345   5.894
 1074TIP3   OH2 3162   2.680   3.659   1.429
 1074TIP3    H1 3163   2.752   3.596   1.439
 1074TIP3    H2 3164   2.655   3.682   1.518
 1075TIP3   OH2 3165   0.717   1.993   3.767
 1075TIP3    H1 3166   0.638   2.046   3.758
 1075TIP3    H2 3167   0.787   2.050   3.735
 1076TIP3   OH2 3168   0.948   3.291   2.823
 1076TIP3    H1 3169   1.000   3.367   2.847
 1076TIP3    H2 3170   0.922   3.252   2.906
 1077TIP3   OH2 3171   2.374   7.707   1.019
 1077TIP3    H1 3172   2.388   7.773   0.951
 1077TIP3    H2 3173   2.431   7.735   1.091
 1078TIP3   OH2 3174   4.381   3.785   2.430
 1078TIP3    H1 3175   4.361   3.789   2.523
 1078TIP3    H2 3176   4.475   3.768   2.425
 1079TIP3   OH2 3177   2.122   7.291   4.797
 1079TIP3    H1 3178   2.164   7.207   4.817
 1079TIP3    H2 3179   2.134   7.343   4.877
 1080TIP3   OH2 3180   0.284   2.865   0.271
 1080TIP3    H1 3181   0.212   2.927   0.280
 1080TIP3    H2 3182   0.249   2.782   0.303
 1081TIP3   OH2 3183   5.699   6.683   6.393
 1081TIP3    H1 3184   5.723   6.737   6.317
 1081TIP3    H2 3185   5.660   6.745   6.454
 1082TIP3   OH2 3186   5.831   6.038   0.595
 1082TIP3    H1 3187   5.788   6.000   0.519
 1082TIP3    H2 3188   5.761   6.055   0.658
 1083TIP3   OH2 3189   2.136   7.445   0.533
 1083TIP3    H1 3190   2.208   7.503   0.508
 1083TIP3    H2 3191   2.152   7.365   0.484
 1084TIP3   OH2 3192   4.527   1.417   3.076
 1084TIP3    H1 3193   4.473   1.341   3.099
 1084TIP3    H2 3194   4.583   1.431   3.153
 1085TIP3   OH2 3195   3.293   1.104   4.237
 1085TIP3    H1 3196   3.361   1.092   4.171
 1085TIP3    H2 3197   3.337   1.082   4.320
 1086TIP3   OH2 3198   7.166   3.769   3.007
 1086TIP3    H1 3199   7.173   3.694   3.067
 1086TIP3    H2 3200   7.167   3.845   3.064
 1087TIP3   OH2 3201   7.924   5.807   4.354
 1087TIP3    H1 3202   7.934   5.727   4.301
 1087TIP3    H2 3203   7.945   5.878   4.293
 1088TIP3   OH2 3204   6.718   7.538   6.093
 1088TIP3    H1 3205   6.795   7.514   6.145
 1088TIP3    H2 3206   6.726   7.486   6.013
 1089TIP3   OH2 3207   8.337   4.509   3.356
 1089TIP3    H1 3208   8.260   4.453   3.370
 1089TIP3    H2 3209   8.410   4.447   3.349
 1090TIP3   OH2 3210   4.717   5.836   5.615
 1090TIP3    H1 3211   4.630   5.805   5.642
 1090TIP3    H2 3212   4.719   5.823   5.520
 1091TIP3   OH2 3213   0.029   4.322   6.799
 1091TIP3    H1 3214   0.093   4.356   6.736
 1091TIP3    H2 3215  -0.020   4.257   6.750
 1092TIP3   OH2 3216   2.236   2.952   0.539
 1092TIP3    H1 3217   2.252   2.965   0.633
 1092TIP3    H2 3218   2.146   2.982   0.527
 1093TIP3   OH2 3219   6.483   0.492   3.485
 1093TIP3    H1 3220   6.499   0.464   3.395
 1093TIP3    H2 3221   6.562   0.540   3.510
 1094TIP3   OH2 3222   2.838   7.052   3.660
 1094TIP3    H1 3223   2.815   7.042   3.753
 1094TIP3    H2 3224   2.769   7.108   3.625
 1095TIP3   OH2 3225   6.454   6.714   4.661
 1095TIP3    H1 3226   6.478   6.804   4.684
 1095TIP3    H2 3227   6.466   6.665   4.742
 1096TIP3   OH2 3228   6.952   3.132   5.466
 1096TIP3    H1 3229   6.908   3.206   5.508
 1096TIP3    H2 3230   6.904   3.118   5.385
 1097TIP3   OH2 3231   4.555   6.173   6.673
 1097TIP3    H1 3232   4.603   6.256   6.676
 1097TIP3    H2 3233   4.481   6.186   6.732
 1098TIP3   OH2 3234   8.115   2.309   1.796
 1098TIP3    H1 3235   8.096   2.227   1.750
 1098TIP3    H2 3236   8.203   2.296   1.832
 1099TIP3   OH2 3237   1.450   2.582   4.680
 1099TIP3    H1 3238   1.388   2.571   4.608
 1099TIP3    H2 3239   1.520   2.636   4.645
 1100TIP3   OH2 3240   1.819   4.225   1.382
 1100TIP3    H1 3241   1.891   4.178   1.340
 1100TIP3    H2 3242   1.763   4.156   1.418
 1101TIP3   OH2 3243   4.811   5.579   0.085
 1101TIP3    H1 3244   4.810   5.575   0.181
 1101TIP3    H2 3245   4.832   5.671   0.066
 1102TIP3   OH2 3246   0.792   6.412   4.119
 1102TIP3    H1 3247   0.844   6.331   4.119
 1102TIP3    H2 3248   0.855   6.480   4.141
 1103TIP3   OH2 3249   2.082   1.702   5.814
 1103TIP3    H1 3250   2.122   1.780   5.776
 1103TIP3    H2 3251   2.075   1.641   5.741
 1104TIP3   OH2 3252   3.629   4.528   1.741
 1104TIP3    H1 3253   3.612   4.622   1.734
 1104TIP3    H2 3254   3.694   4.510   1.673
 1105TIP3   OH2 3255   7.090   0.874   5.851
 1105TIP3    H1 3256   7.157   0.936   5.878
 1105TIP3    H2 3257   7.111   0.793   5.898
 1106TIP3   OH2 3258   3.514   3.272   4.994
 1106TIP3    H1 3259   3.545   3.355   4.957
 1106TIP3    H2 3260   3.517   3.287   5.089
 1107TIP3   OH2 3261   5.212   6.905   4.013
 1107TIP3    H1 3262   5.272   6.844   3.971
 1107TIP3    H2 3263   5.142   6.850   4.048
 1108TIP3   OH2 3264   4.532   1.794   3.286
 1108TIP3    H1 3265   4.520   1.722   3.349
 1108TIP3    H2 3266   4.480   1.769   3.210
 1109TIP3   OH2 3267   2.459   3.408   0.330
 1109TIP3    H1 3268   2.453   3.497   0.366
 1109TIP3    H2 3269   2.369   3.374   0.336
 1110TIP3   OH2 3270   4.984   2.393   5.200
 1110TIP3    H1 3271   4.935   2.451   5.142
 1110TIP3    H2 3272   4.997   2.313   5.149
 1111TIP3   OH2 3273   3.633   3.198   3.859
 1111TIP3    H1 3274   3.645   3.221   3.766
 1111TIP3    H2 3275   3.722   3.195   3.894
 1112TIP3   OH2 3276   8.209   6.546   5.950
 1112TIP3    H1 3277   8.122   6.505   5.949
 1112TIP3    H2 3278   8.235   6.542   6.042
 1113TIP3   OH2 3279   3.153   1.567   5.433
 1113TIP3    H1 3280   3.188   1.594   5.348
 1113TIP3    H2 3281   3.184   1.633   5.494
 1114TIP3   OH2 3282   4.685   2.583   4.486
 1114TIP3    H1 3283   4.630   2.523   4.436
 1114TIP3    H2 3284   4.669   2.669   4.447
 1115TIP3   OH2 3285   2.786   4.720   2.167
 1115TIP3    H1 3286   2.878   4.722   2.139
 1115TIP3    H2 3287   2.754   4.636   2.137
 1116TIP3   OH2 3288   3.960   6.032   3.278
 1116TIP3    H1 3289   3.971   5.940   3.255
 1116TIP3    H2 3290   3.882   6.060   3.230
 1117TIP3   OH2 3291   1.484   5.942   4.713
 1117TIP3    H1 3292   1.402   5.942   4.764
 1117TIP3    H2 3293   1.514   5.851   4.716
 1118TIP3   OH2 3294   4.722   3.679   2.754
 1118TIP3    H1 3295   4.742   3.665   2.847
 1118TIP3    H2 3296   4.806   3.701   2.714
 1119TIP3   OH2 3297   3.787   3.236   3.613
 1119TIP3    H1 3298   3.819   3.253   3.701
 1119TIP3    H2 3299   3.830   3.154   3.587
 1120TIP3   OH2 3300   0.620   2.779   0.475
 1120TIP3    H1 3301   0.679   2.756   0.547
 1120TIP3    H2 3302   0.670   2.760   0.396
 1121TIP3   OH2 3303   3.374   2.921   5.749
 1121TIP3    H1 3304   3.430   2.958   5.682
 1121TIP3    H2 3305   3.285   2.942   5.721
 1122TIP3   OH2 3306   2.828   0.046   0.580
 1122TIP3    H1 3307   2.756  -0.012   0.553
 1122TIP3    H2 3308   2.803   0.074   0.669
 1123TIP3   OH2 3309   2.220   7.195   2.620
 1123TIP3    H1 3310   2.215   7.188   2.524
 1123TIP3    H2 3311   2.171   7.275   2.640
 1124TIP3   OH2 3312   0.271   4.039   1.603
 1124TIP3    H1 3313   0.352   4.020   1.651
 1124TIP3    H2 3314   0.282   4.129   1.573
 1125TIP3   OH2 3315   3.159   0.650   2.328
 1125TIP3    H1 3316   3.159   0.558   2.299
 1125TIP3    H2 3317   3.157   0.644   2.424
 1126TIP3   OH2 3318   1.202   5.643   5.831
 1126TIP3    H1 3319   1.229   5.674   5.918
 1126TIP3    H2 3320   1.106   5.648   5.833
 1127TIP3   OH2 3321   4.857   4.420   5.732
 1127TIP3    H1 3322   4.905   4.339   5.752
 1127TIP3    H2 3323   4.877   4.479   5.805
 1128TIP3   OH2 3324   1.924   0.193   6.451
 1128TIP3    H1 3325   1.890   0.153   6.531
 1128TIP3    H2 3326   2.017   0.168   6.449
 1129TIP3   OH2 3327   7.142   6.610   3.968
 1129TIP3    H1 3328   7.112   6.606   3.877
 1129TIP3    H2 3329   7.179   6.698   3.976
 1130TIP3   OH2 3330   6.768   4.589   0.237
 1130TIP3    H1 3331   6.750   4.676   0.272
 1130TIP3    H2 3332   6.755   4.530   0.311
 1131TIP3   OH2 3333   1.234   3.245   5.850
 1131TIP3    H1 3334   1.248   3.329   5.892
 1131TIP3    H2 3335   1.289   3.184   5.899
 1132TIP3   OH2 3336   1.617   0.346   2.239
 1132TIP3    H1 3337   1.533   0.310   2.269
 1132TIP3    H2 3338   1.650   0.281   2.177
 1133TIP3   OH2 3339   3.412   0.842   0.292
 1133TIP3    H1 3340   3.493   0.876   0.331
 1133TIP3    H2 3341   3.361   0.919   0.269
 1134TIP3   OH2 3342   6.742   2.840   3.065
 1134TIP3    H1 3343   6.724   2.889   3.145
 1134TIP3    H2 3344   6.835   2.820   3.069
 1135TIP3   OH2 3345   7.318   4.404   2.695
 1135TIP3    H1 3346   7.407   4.378   2.722
 1135TIP3    H2 3347   7.323   4.410   2.600
 1136TIP3   OH2 3348   0.399   4.720   0.860
 1136TIP3    H1 3349   0.377   4.717   0.767
 1136TIP3    H2 3350   0.358   4.800   0.892
 1137TIP3   OH2 3351   1.373   0.877   0.177
 1137TIP3    H1 3352   1.395   0.893   0.269
 1137TIP3    H2 3353   1.394   0.785   0.163
 1138TIP3   OH2 3354   2.829   3.944   4.940
 1138TIP3    H1 3355   2.859   4.034   4.929
 1138TIP3    H2 3356   2.763   3.932   4.871
 1139TIP3   OH2 3357   5.394   2.617   5.917
 1139TIP3    H1 3358   5.457   2.591   5.984
 1139TIP3    H2 3359   5.389   2.542   5.858
 1140TIP3   OH2 3360   6.068   2.554   3.929
 1140TIP3    H1 3361   6.058   2.507   4.011
 1140TIP3    H2 3362   6.089   2.486   3.865
 1141TIP3   OH2 3363   7.615   7.601   3.624
 1141TIP3    H1 3364   7.602   7.671   3.688
 1141TIP3    H2 3365   7.538   7.607   3.567
 1142TIP3   OH2 3366   3.771   7.632  -0.023
 1142TIP3    H1 3367   3.750   7.628   0.070
 1142TIP3    H2 3368   3.777   7.726  -0.041
 1143TIP3   OH2 3369   0.598   2.158   3.247
 1143TIP3    H1 3370   0.607   2.130   3.155
 1143TIP3    H2 3371   0.601   2.253   3.243
 1144TIP3   OH2 3372   5.736   5.051   1.888
 1144TIP3    H1 3373   5.766   5.022   1.802
 1144TIP3    H2 3374   5.761   4.979   1.947
 1145TIP3   OH2 3375   0.903   5.681   5.356
 1145TIP3    H1 3376   0.967   5.743   5.322
 1145TIP3    H2 3377   0.947   5.596   5.349
 1146TIP3   OH2 3378   6.356   4.803   1.587
 1146TIP3    H1 3379   6.444   4.767   1.578
 1146TIP3    H2 3380   6.299   4.726   1.591
 1147TIP3   OH2 3381   2.106   5.359   1.465
 1147TIP3    H1 3382   2.191   5.320   1.448
 1147TIP3    H2 3383   2.125   5.450   1.487
 1148TIP3   OH2 3384   0.415   2.761   4.448
 1148TIP3    H1 3385   0.428   2.823   4.376
 1148TIP3    H2 3386   0.337   2.793   4.493
 1149TIP3   OH2 3387   3.185   5.628   5.945
 1149TIP3    H1 3388   3.265   5.578   5.932
 1149TIP3    H2 3389   3.124   5.566   5.986
 1150TIP3   OH2 3390   5.356   1.860   2.971
 1150TIP3    H1 3391   5.441   1.833   3.006
 1150TIP3    H2 3392   5.375   1.938   2.919
 1151TIP3   OH2 3393   0.283   2.496   2.092
 1151TIP3    H1 3394   0.217   2.541   2.040
 1151TIP3    H2 3395   0.315   2.563   2.153
 1152TIP3   OH2 3396   0.695   5.908   4.711
 1152TIP3    H1 3397   0.751   5.855   4.654
 1152TIP3    H2 3398   0.639   5.843   4.755
 1153TIP3   OH2 3399   5.056   4.677   3.890
 1153TIP3    H1 3400   5.086   4.711   3.806
 1153TIP3    H2 3401   4.960   4.676   3.883
 1154TIP3   OH2 3402   1.148   7.362   3.931
 1154TIP3    H1 3403   1.181   7.362   4.021
 1154TIP3    H2 3404   1.221   7.326   3.879
 1155TIP3   OH2 3405   4.201   3.194   0.403
 1155TIP3    H1 3406   4.215   3.191   0.497
 1155TIP3    H2 3407   4.120   3.245   0.392
 1156TIP3   OH2 3408   6.401   0.820   6.673
 1156TIP3    H1 3409   6.471   0.804   6.736
 1156TIP3    H2 3410   6.380   0.913   6.683
 1157TIP3   OH2 3411   3.837   5.690   1.487
 1157TIP3    H1 3412   3.764   5.699   1.548
 1157TIP3    H2 3413   3.817   5.751   1.416
 1158TIP3   OH2 3414   6.323   4.202   0.375
 1158TIP3    H1 3415   6.276   4.270   0.424
 1158TIP3    H2 3416   6.412   4.235   0.368
 1159TIP3   OH2 3417   5.396   3.472   1.693
 1159TIP3    H1 3418   5.429   3.514   1.772
 1159TIP3    H2 3419   5.469   3.476   1.631
 1160TIP3   OH2 3420   6.561   4.591   6.802
 1160TIP3    H1 3421   6.584   4.629   6.717
 1160TIP3    H2 3422   6.499   4.654   6.840
 1161TIP3   OH2 3423   8.006   2.252   2.217
 1161TIP3    H1 3424   8.044   2.325   2.265
 1161TIP3    H2 3425   8.081   2.204   2.182
 1162TIP3   OH2 3426   7.524   3.925   3.515
 1162TIP3    H1 3427   7.599   3.983   3.527
 1162TIP3    H2 3428   7.525   3.903   3.422
 1163TIP3   OH2 3429   3.367   7.829   3.006
 1163TIP3    H1 3430   3.435   7.874   2.955
 1163TIP3    H2 3431   3.296   7.893   3.012
 1164TIP3   OH2 3432   5.580   5.554   5.139
 1164TIP3    H1 3433   5.570   5.522   5.229
 1164TIP3    H2 3434   5.594   5.648   5.149
 1165TIP3   OH2 3435   4.131   3.855   3.810
 1165TIP3    H1 3436   4.042   3.866   3.843
 1165TIP3    H2 3437   4.142   3.760   3.803
 1166TIP3   OH2 3438   7.817   5.499   3.408
 1166TIP3    H1 3439   7.753   5.553   3.363
 1166TIP3    H2 3440   7.777   5.412   3.413
 1167TIP3   OH2 3441   4.124   5.136   2.112
 1167TIP3    H1 3442   4.037   5.147   2.150
 1167TIP3    H2 3443   4.110   5.129   2.018
 1168TIP3   OH2 3444   3.899   4.321   3.211
 1168TIP3    H1 3445   3.974   4.322   3.152
 1168TIP3    H2 3446   3.914   4.244   3.266
 1169TIP3   OH2 3447   4.149   0.496   5.586
 1169TIP3    H1 3448   4.083   0.437   5.549
 1169TIP3    H2 3449   4.217   0.501   5.519
 1170TIP3   OH2 3450   0.790   1.830   3.372
 1170TIP3    H1 3451   0.873   1.831   3.420
 1170TIP3    H2 3452   0.815   1.809   3.282
 1171TIP3   OH2 3453   7.404   4.047   3.912
 1171TIP3    H1 3454   7.414   4.097   3.832
 1171TIP3    H2 3455   7.438   4.105   3.981
 1172TIP3   OH2 3456   1.800   2.956   4.502
 1172TIP3    H1 3457   1.830   3.046   4.495
 1172TIP3    H2 3458   1.747   2.942   4.423
 1173TIP3   OH2 3459   1.176   2.990   4.583
 1173TIP3    H1 3460   1.116   2.963   4.653
 1173TIP3    H2 3461   1.212   2.908   4.550
 1174TIP3   OH2 3462   0.158   3.697   5.596
 1174TIP3    H1 3463   0.078   3.740   5.626
 1174TIP3    H2 3464   0.160   3.714   5.502
 1175TIP3   OH2 3465   6.229   1.536   3.035
 1175TIP3    H1 3466   6.153   1.478   3.033
 1175TIP3    H2 3467   6.289   1.493   3.097
 1176TIP3   OH2 3468   7.016   1.906   6.028
 1176TIP3    H1 3469   7.100   1.945   6.051
 1176TIP3    H2 3470   7.001   1.933   5.938
 1177TIP3   OH2 3471   8.257   4.517   2.122
 1177TIP3    H1 3472   8.268   4.588   2.058
 1177TIP3    H2 3473   8.195   4.457   2.080
 1178TIP3   OH2 3474   7.595   0.949   2.630
 1178TIP3    H1 3475   7.516   0.979   2.676
 1178TIP3    H2 3476   7.660   0.938   2.699
 1179TIP3   OH2 3477   5.325   2.396   5.378
 1179TIP3    H1 3478   5.273   2.319   5.400
 1179TIP3    H2 3479   5.334   2.392   5.283
 1180TIP3   OH2 3480   1.003   3.858   2.580
 1180TIP3    H1 3481   0.968   3.770   2.595
 1180TIP3    H2 3482   0.935   3.902   2.530
 1181TIP3   OH2 3483   5.263   7.087  -0.018
 1181TIP3    H1 3484   5.233   7.036   0.057
 1181TIP3    H2 3485   5.344   7.129   0.013
 1182TIP3   OH2 3486   7.529   6.538   1.428
 1182TIP3    H1 3487   7.540   6.538   1.523
 1182TIP3    H2 3488   7.618   6.538   1.393
 1183TIP3   OH2 3489   8.247   6.770   2.905
 1183TIP3    H1 3490   8.244   6.685   2.862
 1183TIP3    H2 3491   8.210   6.756   2.992
 1184TIP3   OH2 3492   3.919   2.332   1.134
 1184TIP3    H1 3493   3.891   2.422   1.119
 1184TIP3    H2 3494   3.920   2.323   1.230
 1185TIP3   OH2 3495   6.022   4.775   4.887
 1185TIP3    H1 3496   6.100   4.828   4.903
 1185TIP3    H2 3497   6.041   4.692   4.931
 1186TIP3   OH2 3498   1.733   7.433   4.611
 1186TIP3    H1 3499   1.804   7.369   4.615
 1186TIP3    H2 3500   1.757   7.490   4.538
 1187TIP3   OH2 3501   4.341   1.514   4.120
 1187TIP3    H1 3502   4.322   1.533   4.028
 1187TIP3    H2 3503   4.355   1.600   4.159
 1188TIP3   OH2 3504   3.758   4.001   4.815
 1188TIP3    H1 3505   3.761   4.025   4.722
 1188TIP3    H2 3506   3.714   4.075   4.857
 1189TIP3   OH2 3507   3.143   2.047   6.130
 1189TIP3    H1 3508   3.229   2.008   6.113
 1189TIP3    H2 3509   3.112   2.076   6.044
 1190TIP3   OH2 3510   5.140   5.931   6.046
 1190TIP3    H1 3511   5.140   5.860   6.110
 1190TIP3    H2 3512   5.063   5.984   6.069
 1191TIP3   OH2 3513   1.684   6.430   2.569
 1191TIP3    H1 3514   1.674   6.479   2.650
 1191TIP3    H2 3515   1.646   6.344   2.588
 1192TIP3   OH2 3516   1.740   2.068   0.414
 1192TIP3    H1 3517   1.685   2.054   0.491
 1192TIP3    H2 3518   1.726   2.160   0.391
 1193TIP3   OH2 3519   5.916   1.968   5.538
 1193TIP3    H1 3520   5.929   2.033   5.469
 1193TIP3    H2 3521   5.999   1.921   5.543
 1194TIP3   OH2 3522   4.204   0.055   6.874
 1194TIP3    H1 3523   4.118   0.084   6.843
 1194TIP3    H2 3524   4.261   0.130   6.858
 1195TIP3   OH2 3525   4.422   2.572   0.667
 1195TIP3    H1 3526   4.386   2.489   0.698
 1195TIP3    H2 3527   4.397   2.636   0.734
 1196TIP3   OH2 3528   1.060   5.249   1.721
 1196TIP3    H1 3529   1.005   5.313   1.766
 1196TIP3    H2 3530   1.029   5.164   1.751
 1197TIP3   OH2 3531   4.215   0.242   0.633
 1197TIP3    H1 3532   4.158   0.175   0.595
 1197TIP3    H2 3533   4.271   0.194   0.694
 1198TIP3   OH2 3534   3.415   1.812   3.724
 1198TIP3    H1 3535   3.352   1.742   3.707
 1198TIP3    H2 3536   3.474   1.811   3.649
 1199TIP3   OH2 3537   4.208   5.011   4.989
 1199TIP3    H1 3538   4.180   4.924   4.961
 1199TIP3    H2 3539   4.169   5.071   4.925
 1200TIP3   OH2 3540   4.203   4.323   2.118
 1200TIP3    H1 3541   4.156   4.263   2.177
 1200TIP3    H2 3542   4.206   4.406   2.166
 1201TIP3   OH2 3543   5.532   4.996   2.691
 1201TIP3    H1 3544   5.576   5.017   2.773
 1201TIP3    H2 3545   5.602   4.988   2.627
 1202TIP3   OH2 3546   4.606   5.662   6.654
 1202TIP3    H1 3547   4.654   5.717   6.591
 1202TIP3    H2 3548   4.672   5.599   6.684
 1203TIP3   OH2 3549   6.698   4.642   6.011
 1203TIP3    H1 3550   6.662   4.694   6.084
 1203TIP3    H2 3551   6.705   4.553   6.046
 1204TIP3   OH2 3552   5.888   5.485   2.551
 1204TIP3    H1 3553   5.969   5.437   2.533
 1204TIP3    H2 3554   5.825   5.417   2.576
 1205TIP3   OH2 3555   5.386   1.423   4.584
 1205TIP3    H1 3556   5.318   1.489   4.572
 1205TIP3    H2 3557   5.468   1.470   4.567
 1206TIP3   OH2 3558   0.997   7.147   6.202
 1206TIP3    H1 3559   1.039   7.092   6.136
 1206TIP3    H2 3560   0.987   7.091   6.278
 1207TIP3   OH2 3561   4.154   1.860   0.093
 1207TIP3    H1 3562   4.118   1.926   0.035
 1207TIP3    H2 3563   4.144   1.896   0.181
 1208TIP3   OH2 3564   5.068   2.266   1.304
 1208TIP3    H1 3565   5.079   2.313   1.221
 1208TIP3    H2 3566   4.990   2.212   1.290
 1209TIP3   OH2 3567   6.244   7.406   6.329
 1209TIP3    H1 3568   6.188   7.472   6.372
 1209TIP3    H2 3569   6.226   7.325   6.376
 1210TIP3   OH2 3570   1.842   6.990   4.102
 1210TIP3    H1 3571   1.889   6.909   4.122
 1210TIP3    H2 3572   1.870   7.050   4.171
 1211TIP3   OH2 3573   0.102   4.158   5.173
 1211TIP3    H1 3574   0.086   4.253   5.170
 1211TIP3    H2 3575   0.130   4.142   5.262
 1212TIP3   OH2 3576   0.931   3.026   4.249
 1212TIP3    H1 3577   0.976   3.108   4.231
 1212TIP3    H2 3578   0.874   3.012   4.172
 1213TIP3   OH2 3579   4.127   4.887   4.610
 1213TIP3    H1 3580   4.070   4.839   4.549
 1213TIP3    H2 3581   4.134   4.974   4.572
 1214TIP3   OH2 3582   8.428   7.684   5.996
 1214TIP3    H1 3583   8.438   7.598   6.035
 1214TIP3    H2 3584   8.333   7.697   5.990
 1215TIP3   OH2 3585   7.803   0.108   4.164
 1215TIP3    H1 3586   7.874   0.136   4.107
 1215TIP3    H2 3587   7.725   0.111   4.108
 1216TIP3   OH2 3588   7.490   1.208   4.871
 1216TIP3    H1 3589   7.497   1.296   4.908
 1216TIP3    H2 3590   7.514   1.150   4.944
 1217TIP3   OH2 3591   3.617   0.448   2.109
 1217TIP3    H1 3592   3.635   0.391   2.034
 1217TIP3    H2 3593   3.524   0.472   2.098
 1218TIP3   OH2 3594   0.997   4.707   4.920
 1218TIP3    H1 3595   0.950   4.640   4.870
 1218TIP3    H2 3596   1.073   4.661   4.956
 1219TIP3   OH2 3597   0.820   7.723   6.642
 1219TIP3    H1 3598   0.861   7.638   6.626
 1219TIP3    H2 3599   0.807   7.726   6.736
 1220TIP3   OH2 3600   6.338   2.895   3.229
 1220TIP3    H1 3601   6.401   2.884   3.300
 1220TIP3    H2 3602   6.266   2.946   3.268
 1221TIP3   OH2 3603   0.198   1.882   0.224
 1221TIP3    H1 3604   0.214   1.896   0.317
 1221TIP3    H2 3605   0.146   1.801   0.220
 1222TIP3   OH2 3606   3.135   7.104   2.197
 1222TIP3    H1 3607   3.125   7.098   2.292
 1222TIP3    H2 3608   3.046   7.118   2.165
 1223TIP3   OH2 3609   5.804   7.073   5.783
 1223TIP3    H1 3610   5.782   6.980   5.783
 1223TIP3    H2 3611   5.899   7.075   5.781
 1224TIP3   OH2 3612   1.838   4.379   4.719
 1224TIP3    H1 3613   1.743   4.376   4.708
 1224TIP3    H2 3614   1.853   4.453   4.777
 1225TIP3   OH2 3615   1.915   2.578   0.918
 1225TIP3    H1 3616   2.001   2.585   0.877
 1225TIP3    H2 3617   1.934   2.541   1.005
 1226TIP3   OH2 3618   3.969   2.805   1.850
 1226TIP3    H1 3619   4.054   2.816   1.893
 1226TIP3    H2 3620   3.932   2.894   1.848
 1227TIP3   OH2 3621   3.781   3.556   2.696
 1227TIP3    H1 3622   3.740   3.480   2.739
 1227TIP3    H2 3623   3.840   3.517   2.631
 1228TIP3   OH2 3624   4.550   6.215   4.507
 1228TIP3    H1 3625   4.508   6.198   4.591
 1228TIP3    H2 3626   4.486   6.266   4.457
 1229TIP3   OH2 3627   7.776   5.953   6.387
 1229TIP3    H1 3628   7.778   5.888   6.457
 1229TIP3    H2 3629   7.834   6.023   6.418
 1230TIP3   OH2 3630   4.410   0.964   5.233
 1230TIP3    H1 3631   4.459   0.882   5.241
 1230TIP3    H2 3632   4.323   0.936   5.205
 1231TIP3   OH2 3633   0.060   3.190   4.909
 1231TIP3    H1 3634   0.072   3.110   4.959
 1231TIP3    H2 3635   0.108   3.175   4.828
 1232TIP3   OH2 3636   2.854   6.831   0.209
 1232TIP3    H1 3637   2.781   6.829   0.147
 1232TIP3    H2 3638   2.889   6.920   0.203
 1233TIP3   OH2 3639   2.720   3.372   6.613
 1233TIP3    H1 3640   2.651   3.431   6.641
 1233TIP3    H2 3641   2.801   3.415   6.640
 1234TIP3   OH2 3642   4.247   4.303   6.192
 1234TIP3    H1 3643   4.220   4.322   6.102
 1234TIP3    H2 3644   4.283   4.214   6.187
 1235TIP3   OH2 3645   1.541   5.888   3.198
 1235TIP3    H1 3646   1.465   5.898   3.256
 1235TIP3    H2 3647   1.503   5.861   3.114
 1236TIP3   OH2 3648   1.116   5.903   0.684
 1236TIP3    H1 3649   1.120   5.815   0.647
 1236TIP3    H2 3650   1.185   5.904   0.751
 1237TIP3   OH2 3651   0.308   1.097   2.840
 1237TIP3    H1 3652   0.386   1.080   2.787
 1237TIP3    H2 3653   0.341   1.138   2.919
 1238TIP3   OH2 3654   1.111   3.724   2.342
 1238TIP3    H1 3655   1.064   3.646   2.370
 1238TIP3    H2 3656   1.089   3.790   2.408
 1239TIP3   OH2 3657   2.782   7.658   0.492
 1239TIP3    H1 3658   2.769   7.564   0.504
 1239TIP3    H2 3659   2.855   7.665   0.431
 1240TIP3   OH2 3660   6.118   6.379   6.723
 1240TIP3    H1 3661   6.142   6.351   6.634
 1240TIP3    H2 3662   6.137   6.472   6.725
 1241TIP3   OH2 3663   6.504   4.426   2.561
 1241TIP3    H1 3664   6.541   4.431   2.650
 1241TIP3    H2 3665   6.523   4.337   2.533
 1242TIP3   OH2 3666   1.762   0.914   2.731
 1242TIP3    H1 3667   1.769   0.819   2.722
 1242TIP3    H2 3668   1.678   0.936   2.690
 1243TIP3   OH2 3669   1.442   3.377   0.661
 1243TIP3    H1 3670   1.500   3.417   0.725
 1243TIP3    H2 3671   1.404   3.301   0.706
 1244TIP3   OH2 3672   0.509   1.891   2.858
 1244TIP3    H1 3673   0.557   1.969   2.883
 1244TIP3    H2 3674   0.520   1.886   2.763
 1245TIP3   OH2 3675   5.132   5.251   4.329
 1245TIP3    H1 3676   5.204   5.190   4.316
 1245TIP3    H2 3677   5.090   5.222   4.410
 1246TIP3   OH2 3678   3.491   7.674   0.038
 1246TIP3    H1 3679   3.432   7.749   0.050
 1246TIP3    H2 3680   3.546   7.700  -0.036
 1247TIP3   OH2 3681   1.823   1.751   6.593
 1247TIP3    H1 3682   1.858   1.758   6.681
 1247TIP3    H2 3683   1.899   1.762   6.536
 1248TIP3   OH2 3684   6.234   0.111   6.423
 1248TIP3    H1 3685   6.141   0.093   6.428
 1248TIP3    H2 3686   6.244   0.200   6.457
 1249TIP3   OH2 3687   6.402   7.514   5.831
 1249TIP3    H1 3688   6.374   7.605   5.828
 1249TIP3    H2 3689   6.390   7.488   5.923
 1250TIP3   OH2 3690   1.753   3.233   2.577
 1250TIP3    H1 3691   1.810   3.310   2.585
 1250TIP3    H2 3692   1.804   3.170   2.527
 1251TIP3   OH2 3693   5.056   2.840   2.218
 1251TIP3    H1 3694   5.119   2.801   2.158
 1251TIP3    H2 3695   5.005   2.766   2.252
 1252TIP3   OH2 3696   7.842   5.069   0.929
 1252TIP3    H1 3697   7.865   5.075   1.022
 1252TIP3    H2 3698   7.926   5.058   0.884
 1253TIP3   OH2 3699   6.603   0.753   5.325
 1253TIP3    H1 3700   6.559   0.833   5.298
 1253TIP3    H2 3701   6.660   0.779   5.397
 1254TIP3   OH2 3702   0.578   4.072   3.957
 1254TIP3    H1 3703   0.546   3.987   3.926
 1254TIP3    H2 3704   0.669   4.075   3.929
 1255TIP3   OH2 3705   4.018   6.169   1.026
 1255TIP3    H1 3706   4.014   6.159   0.931
 1255TIP3    H2 3707   4.072   6.095   1.055
 1256TIP3   OH2 3708   5.106   7.644   6.532
 1256TIP3    H1 3709   5.024   7.688   6.555
 1256TIP3    H2 3710   5.135   7.686   6.451
 1257TIP3   OH2 3711   1.790   3.806   6.504
 1257TIP3    H1 3712   1.754   3.790   6.417
 1257TIP3    H2 3713   1.828   3.894   6.498
 1258TIP3   OH2 3714   3.623   5.573   5.112
 1258TIP3    H1 3715   3.609   5.640   5.045
 1258TIP3    H2 3716   3.540   5.524   5.116
 1259TIP3   OH2 3717   3.277   6.312   1.858
 1259TIP3    H1 3718   3.235   6.254   1.795
 1259TIP3    H2 3719   3.222   6.391   1.858
 1260TIP3   OH2 3720   1.700   2.644   1.580
 1260TIP3    H1 3721   1.743   2.719   1.538
 1260TIP3    H2 3722   1.611   2.676   1.598
 1261TIP3   OH2 3723   0.725   3.770   5.223
 1261TIP3    H1 3724   0.820   3.760   5.231
 1261TIP3    H2 3725   0.702   3.717   5.147
 1262TIP3   OH2 3726   0.777   3.798   3.535
 1262TIP3    H1 3727   0.777   3.762   3.624
 1262TIP3    H2 3728   0.870   3.813   3.516
 1263TIP3   OH2 3729   2.109   6.111   6.729
 1263TIP3    H1 3730   2.123   6.180   6.794
 1263TIP3    H2 3731   2.045   6.052   6.770
 1264TIP3   OH2 3732   0.416   3.138   4.342
 1264TIP3    H1 3733   0.467   3.162   4.265
 1264TIP3    H2 3734   0.475   3.151   4.416
 1265TIP3   OH2 3735   3.296   7.095   3.920
 1265TIP3    H1 3736   3.214   7.103   3.871
 1265TIP3    H2 3737   3.361   7.069   3.854
 1266TIP3   OH2 3738   1.795   6.761   4.986
 1266TIP3    H1 3739   1.863   6.821   4.953
 1266TIP3    H2 3740   1.758   6.807   5.061
 1267TIP3   OH2 3741   6.464   5.354   2.135
 1267TIP3    H1 3742   6.464   5.414   2.061
 1267TIP3    H2 3743   6.377   5.362   2.173
 1268TIP3   OH2 3744   4.672   3.253   0.097
 1268TIP3    H1 3745   4.613   3.189   0.135
 1268TIP3    H2 3746   4.693   3.313   0.169
 1269TIP3   OH2 3747   7.940   2.333   6.466
 1269TIP3    H1 3748   7.863   2.307   6.414
 1269TIP3    H2 3749   8.006   2.355   6.401
 1270TIP3   OH2 3750   7.495   1.331   5.700
 1270TIP3    H1 3751   7.413   1.356   5.658
 1270TIP3    H2 3752   7.559   1.332   5.629
 1271TIP3   OH2 3753   6.440   7.125   4.668
 1271TIP3    H1 3754   6.525   7.166   4.653
 1271TIP3    H2 3755   6.384   7.196   4.700
 1272TIP3   OH2 3756   3.232   1.133   5.854
 1272TIP3    H1 3757   3.207   1.206   5.798
 1272TIP3    H2 3758   3.323   1.151   5.878
 1273TIP3   OH2 3759   1.687   0.123   4.519
 1273TIP3    H1 3760   1.637   0.183   4.574
 1273TIP3    H2 3761   1.714   0.053   4.578
 1274TIP3   OH2 3762   5.004   3.476   4.293
 1274TIP3    H1 3763   4.912   3.456   4.309
 1274TIP3    H2 3764   5.032   3.527   4.368
 1275TIP3   OH2 3765   6.155   1.082   6.385
 1275TIP3    H1 3766   6.230   1.058   6.332
 1275TIP3    H2 3767   6.125   1.166   6.350
 1276TIP3   OH2 3768   2.695   4.977   0.093
 1276TIP3    H1 3769   2.776   4.950   0.136
 1276TIP3    H2 3770   2.723   5.036   0.023
 1277TIP3   OH2 3771   1.267   7.448   5.120
 1277TIP3    H1 3772   1.226   7.534   5.125
 1277TIP3    H2 3773   1.207   7.396   5.066
 1278TIP3   OH2 3774   2.023   6.002   3.896
 1278TIP3    H1 3775   2.076   5.945   3.840
 1278TIP3    H2 3776   2.072   6.008   3.977
 1279TIP3   OH2 3777   7.691   2.787   5.128
 1279TIP3    H1 3778   7.756   2.772   5.197
 1279TIP3    H2 3779   7.731   2.747   5.050
 1280TIP3   OH2 3780   7.507   3.319   2.406
 1280TIP3    H1 3781   7.512   3.232   2.444
 1280TIP3    H2 3782   7.441   3.364   2.460
 1281TIP3   OH2 3783   4.134   1.645   0.465
 1281TIP3    H1 3784   4.158   1.725   0.417
 1281TIP3    H2 3785   4.160   1.663   0.556
 1282TIP3   OH2 3786   3.436   0.047   4.899
 1282TIP3    H1 3787   3.359   0.095   4.869
 1282TIP3    H2 3788   3.492   0.041   4.822
 1283TIP3   OH2 3789   1.458   2.484   1.543
 1283TIP3    H1 3790   1.454   2.564   1.595
 1283TIP3    H2 3791   1.543   2.446   1.563
 1284TIP3   OH2 3792   1.776   3.399   0.896
 1284TIP3    H1 3793   1.811   3.344   0.965
 1284TIP3    H2 3794   1.772   3.343   0.819
 1285TIP3   OH2 3795   6.297   4.595   1.787
 1285TIP3    H1 3796   6.218   4.639   1.819
 1285TIP3    H2 3797   6.265   4.519   1.738
 1286TIP3   OH2 3798   0.643   3.138   2.626
 1286TIP3    H1 3799   0.627   3.044   2.619
 1286TIP3    H2 3800   0.556   3.178   2.629
 1287TIP3   OH2 3801   0.422   4.320   1.338
 1287TIP3    H1 3802   0.388   4.302   1.250
 1287TIP3    H2 3803   0.400   4.412   1.354
 1288TIP3   OH2 3804   2.781   5.695   2.412
 1288TIP3    H1 3805   2.767   5.775   2.463
 1288TIP3    H2 3806   2.714   5.699   2.344
 1289TIP3   OH2 3807   8.112   3.930   1.762
 1289TIP3    H1 3808   8.090   3.873   1.836
 1289TIP3    H2 3809   8.108   3.873   1.685
 1290TIP3   OH2 3810   4.852   4.755   2.799
 1290TIP3    H1 3811   4.862   4.834   2.746
 1290TIP3    H2 3812   4.938   4.712   2.794
 1291TIP3   OH2 3813   3.852   1.792   0.986
 1291TIP3    H1 3814   3.804   1.797   1.069
 1291TIP3    H2 3815   3.864   1.699   0.970
 1292TIP3   OH2 3816   0.256   4.945   5.860
 1292TIP3    H1 3817   0.328   4.886   5.836
 1292TIP3    H2 3818   0.299   5.029   5.877
 1293TIP3   OH2 3819   3.148   1.630   3.104
 1293TIP3    H1 3820   3.137   1.555   3.162
 1293TIP3    H2 3821   3.059   1.656   3.081
 1294TIP3   OH2 3822   5.403   5.339   3.185
 1294TIP3    H1 3823   5.385   5.246   3.175
 1294TIP3    H2 3824   5.422   5.370   3.096
 1295TIP3   OH2 3825   2.474   3.535   4.721
 1295TIP3    H1 3826   2.472   3.504   4.812
 1295TIP3    H2 3827   2.449   3.628   4.727
 1296TIP3   OH2 3828   6.266   2.598   0.699
 1296TIP3    H1 3829   6.259   2.507   0.670
 1296TIP3    H2 3830   6.316   2.594   0.781
 1297TIP3   OH2 3831   3.708   2.197   1.495
 1297TIP3    H1 3832   3.738   2.107   1.507
 1297TIP3    H2 3833   3.783   2.243   1.459
 1298TIP3   OH2 3834   6.698   6.393   6.447
 1298TIP3    H1 3835   6.706   6.349   6.532
 1298TIP3    H2 3836   6.777   6.447   6.441
 1299TIP3   OH2 3837   4.438   4.642   6.800
 1299TIP3    H1 3838   4.420   4.551   6.778
 1299TIP3    H2 3839   4.394   4.693   6.733
 1300TIP3   OH2 3840   6.260   1.456   2.359
 1300TIP3    H1 3841   6.183   1.442   2.304
 1300TIP3    H2 3842   6.235   1.529   2.416
 1301TIP3   OH2 3843   1.756   3.596   1.648
 1301TIP3    H1 3844   1.700   3.600   1.726
 1301TIP3    H2 3845   1.783   3.504   1.643
 1302TIP3   OH2 3846   4.637   2.590   4.005
 1302TIP3    H1 3847   4.560   2.539   3.979
 1302TIP3    H2 3848   4.607   2.642   4.080
 1303TIP3   OH2 3849   3.377   4.162   5.190
 1303TIP3    H1 3850   3.470   4.142   5.176
 1303TIP3    H2 3851   3.371   4.257   5.182
 1304TIP3   OH2 3852   6.919   7.778   4.140
 1304TIP3    H1 3853   6.880   7.739   4.062
 1304TIP3    H2 3854   6.985   7.838   4.106
 1305TIP3   OH2 3855   5.272   3.452   4.488
 1305TIP3    H1 3856   5.286   3.529   4.432
 1305TIP3    H2 3857   5.290   3.377   4.430
 1306TIP3   OH2 3858   3.393   4.509   5.829
 1306TIP3    H1 3859   3.399   4.569   5.903
 1306TIP3    H2 3860   3.416   4.424   5.865
 1307TIP3   OH2 3861   3.995   5.312   4.281
 1307TIP3    H1 3862   3.917   5.367   4.268
 1307TIP3    H2 3863   4.058   5.370   4.324
 1308TIP3   OH2 3864   7.673   3.748   4.163
 1308TIP3    H1 3865   7.634   3.741   4.076
 1308TIP3    H2 3866   7.754   3.796   4.149
 1309TIP3   OH2 3867   2.494   0.568   4.000
 1309TIP3    H1 3868   2.453   0.586   3.915
 1309TIP3    H2 3869   2.481   0.474   4.013
 1310TIP3   OH2 3870   1.551   0.816   4.539
 1310TIP3    H1 3871   1.496   0.876   4.488
 1310TIP3    H2 3872   1.528   0.833   4.630
 1311TIP3   OH2 3873   7.468   3.954   6.143
 1311TIP3    H1 3874   7.516   3.874   6.123
 1311TIP3    H2 3875   7.508   3.988   6.224
 1312TIP3   OH2 3876   5.701   5.406   1.042
 1312TIP3    H1 3877   5.758   5.460   0.987
 1312TIP3    H2 3878   5.612   5.428   1.015
 1313TIP3   OH2 3879   0.459   2.090   5.498
 1313TIP3    H1 3880   0.548   2.115   5.472
 1313TIP3    H2 3881   0.452   1.998   5.475
 1314TIP3   OH2 3882   6.643   3.973   0.489
 1314TIP3    H1 3883   6.584   4.035   0.531
 1314TIP3    H2 3884   6.587   3.898   0.468
 1315TIP3   OH2 3885   6.912   3.270   0.976
 1315TIP3    H1 3886   6.889   3.177   0.967
 1315TIP3    H2 3887   6.977   3.285   0.907
 1316TIP3   OH2 3888   7.150   0.423   4.043
 1316TIP3    H1 3889   7.131   0.353   4.104
 1316TIP3    H2 3890   7.231   0.462   4.075
 1317TIP3   OH2 3891   0.153   5.293   2.947
 1317TIP3    H1 3892   0.143   5.388   2.942
 1317TIP3    H2 3893   0.132   5.271   3.037
 1318TIP3   OH2 3894   6.743   5.172   6.814
 1318TIP3    H1 3895   6.771   5.087   6.781
 1318TIP3    H2 3896   6.736   5.159   6.909
 1319TIP3   OH2 3897   0.872   2.035   5.825
 1319TIP3    H1 3898   0.787   2.078   5.822
 1319TIP3    H2 3899   0.899   2.040   5.917
 1320TIP3   OH2 3900   2.431   2.062   3.305
 1320TIP3    H1 3901   2.396   1.978   3.333
 1320TIP3    H2 3902   2.425   2.060   3.209
 1321TIP3   OH2 3903   6.653   5.338   5.114
 1321TIP3    H1 3904   6.587   5.313   5.179
 1321TIP3    H2 3905   6.678   5.255   5.073
 1322TIP3   OH2 3906   6.135   7.201   3.483
 1322TIP3    H1 3907   6.191   7.155   3.546
 1322TIP3    H2 3908   6.192   7.266   3.444
 1323TIP3   OH2 3909   1.006   0.421   0.943
 1323TIP3    H1 3910   0.931   0.415   1.002
 1323TIP3    H2 3911   0.972   0.391   0.859
 1324TIP3   OH2 3912   4.715   1.952   4.455
 1324TIP3    H1 3913   4.651   2.022   4.452
 1324TIP3    H2 3914   4.712   1.912   4.368
 1325TIP3   OH2 3915   4.428   5.679   3.325
 1325TIP3    H1 3916   4.431   5.680   3.421
 1325TIP3    H2 3917   4.452   5.768   3.299
 1326TIP3   OH2 3918   4.840   2.907   1.864
 1326TIP3    H1 3919   4.811   2.861   1.786
 1326TIP3    H2 3920   4.935   2.914   1.854
 1327TIP3   OH2 3921   2.464   7.636   4.223
 1327TIP3    H1 3922   2.454   7.725   4.256
 1327TIP3    H2 3923   2.557   7.617   4.231
 1328TIP3   OH2 3924   6.343   6.910   3.967
 1328TIP3    H1 3925   6.357   6.885   4.058
 1328TIP3    H2 3926   6.286   6.987   3.972
 1329TIP3   OH2 3927   5.874   3.441   5.984
 1329TIP3    H1 3928   5.779   3.440   5.978
 1329TIP3    H2 3929   5.900   3.527   5.951
 1330TIP3   OH2 3930   3.134   2.164   6.577
 1330TIP3    H1 3931   3.085   2.221   6.636
 1330TIP3    H2 3932   3.123   2.203   6.490
 1331TIP3   OH2 3933   0.594   4.981   0.329
 1331TIP3    H1 3934   0.570   5.003   0.239
 1331TIP3    H2 3935   0.652   4.905   0.321
 1332TIP3   OH2 3936   3.837   0.521   1.919
 1332TIP3    H1 3937   3.752   0.507   1.877
 1332TIP3    H2 3938   3.815   0.555   2.006
 1333TIP3   OH2 3939   5.887   6.252   5.624
 1333TIP3    H1 3940   5.922   6.173   5.581
 1333TIP3    H2 3941   5.813   6.220   5.675
 1334TIP3   OH2 3942   4.769   7.458   6.737
 1334TIP3    H1 3943   4.784   7.456   6.831
 1334TIP3    H2 3944   4.702   7.525   6.725
 1335TIP3   OH2 3945   2.182   7.259   3.139
 1335TIP3    H1 3946   2.211   7.242   3.050
 1335TIP3    H2 3947   2.170   7.354   3.142
 1336TIP3   OH2 3948   2.707   4.164   0.167
 1336TIP3    H1 3949   2.776   4.164   0.100
 1336TIP3    H2 3950   2.719   4.082   0.214
 1337TIP3   OH2 3951   6.983   1.285   4.056
 1337TIP3    H1 3952   7.010   1.233   3.980
 1337TIP3    H2 3953   6.959   1.370   4.020
 1338TIP3   OH2 3954   7.459   6.175   5.638
 1338TIP3    H1 3955   7.380   6.135   5.674
 1338TIP3    H2 3956   7.526   6.160   5.705
 1339TIP3   OH2 3957   1.349   7.535   4.434
 1339TIP3    H1 3958   1.378   7.468   4.496
 1339TIP3    H2 3959   1.415   7.534   4.365
 1340TIP3   OH2 3960   8.190   5.395   3.346
 1340TIP3    H1 3961   8.240   5.454   3.289
 1340TIP3    H2 3962   8.204   5.308   3.310
 1341TIP3   OH2 3963   7.760   0.172   3.663
 1341TIP3    H1 3964   7.769   0.258   3.620
 1341TIP3    H2 3965   7.820   0.176   3.737
 1342TIP3   OH2 3966   1.295   5.251   4.269
 1342TIP3    H1 3967   1.201   5.265   4.275
 1342TIP3    H2 3968   1.328   5.330   4.227
 1343TIP3   OH2 3969   2.963   5.935   1.034
 1343TIP3    H1 3970   2.943   5.845   1.057
 1343TIP3    H2 3971   3.035   5.960   1.092
 1344TIP3   OH2 3972   6.137   0.316   1.417
 1344TIP3    H1 3973   6.187   0.325   1.335
 1344TIP3    H2 3974   6.059   0.369   1.403
 1345TIP3   OH2 3975   8.176   0.711   4.136
 1345TIP3    H1 3976   8.110   0.672   4.193
 1345TIP3    H2 3977   8.129   0.732   4.056
 1346TIP3   OH2 3978   1.853   2.451   6.275
 1346TIP3    H1 3979   1.871   2.457   6.181
 1346TIP3    H2 3980   1.940   2.443   6.315
 1347TIP3   OH2 3981   6.203   4.096   2.769
 1347TIP3    H1 3982   6.209   4.129   2.679
 1347TIP3    H2 3983   6.266   4.023   2.771
 1348TIP3   OH2 3984   3.561   3.870   3.470
 1348TIP3    H1 3985   3.574   3.964   3.478
 1348TIP3    H2 3986   3.562   3.854   3.376
 1349TIP3   OH2 3987   4.925   6.495   2.239
 1349TIP3    H1 3988   4.969   6.447   2.309
 1349TIP3    H2 3989   4.995   6.545   2.197
 1350TIP3   OH2 3990   6.479   4.089   4.201
 1350TIP3    H1 3991   6.568   4.117   4.223
 1350TIP3    H2 3992   6.488   4.048   4.115
 1351TIP3   OH2 3993   2.773   5.581   4.572
 1351TIP3    H1 3994   2.802   5.619   4.655
 1351TIP3    H2 3995   2.695   5.632   4.549
 1352TIP3   OH2 3996   8.278   3.131   4.116
 1352TIP3    H1 3997   8.255   3.181   4.195
 1352TIP3    H2 3998   8.199   3.135   4.062
 1353TIP3   OH2 3999   7.857   0.878   1.559
 1353TIP3    H1 4000   7.948   0.883   1.589
 1353TIP3    H2 4001   7.807   0.854   1.637
 1354TIP3   OH2 4002   7.554   7.830   4.720
 1354TIP3    H1 4003   7.556   7.817   4.815
 1354TIP3    H2 4004   7.582   7.920   4.707
 1355TIP3   OH2 4005   2.251   3.669   2.002
 1355TIP3    H1 4006   2.222   3.758   1.978
 1355TIP3    H2 4007   2.319   3.649   1.938
 1356TIP3   OH2 4008   4.744   0.183   2.034
 1356TIP3    H1 4009   4.731   0.140   1.950
 1356TIP3    H2 4010   4.656   0.189   2.072
 1357TIP3   OH2 4011   1.870   5.558   6.131
 1357TIP3    H1 4012   1.823   5.518   6.204
 1357TIP3    H2 4013   1.802   5.582   6.068
 1358TIP3   OH2 4014   4.771   0.492   2.791
 1358TIP3    H1 4015   4.735   0.503   2.879
 1358TIP3    H2 4016   4.696   0.469   2.737
 1359TIP3   OH2 4017   6.755   7.788   5.793
 1359TIP3    H1 4018   6.731   7.857   5.731
 1359TIP3    H2 4019   6.694   7.799   5.865
 1360TIP3   OH2 4020   5.873   4.842   1.345
 1360TIP3    H1 4021   5.835   4.760   1.312
 1360TIP3    H2 4022   5.960   4.846   1.306
 1361TIP3   OH2 4023   3.643   6.149   0.066
 1361TIP3    H1 4024   3.681   6.168  -0.019
 1361TIP3    H2 4025   3.717   6.154   0.127
 1362TIP3   OH2 4026   2.464   4.002   6.023
 1362TIP3    H1 4027   2.544   3.980   6.070
 1362TIP3    H2 4028   2.406   3.927   6.039
 1363TIP3   OH2 4029   1.028   3.063   4.951
 1363TIP3    H1 4030   0.958   3.094   5.009
 1363TIP3    H2 4031   1.101   3.044   5.009
 1364TIP3   OH2 4032   6.007   2.708   0.191
 1364TIP3    H1 4033   6.055   2.627   0.172
 1364TIP3    H2 4034   6.073   2.765   0.232
 1365TIP3   OH2 4035   3.855   5.942   5.818
 1365TIP3    H1 4036   3.890   5.976   5.736
 1365TIP3    H2 4037   3.764   5.973   5.820
 1366TIP3   OH2 4038   4.109   5.775   4.744
 1366TIP3    H1 4039   4.117   5.680   4.730
 1366TIP3    H2 4040   4.196   5.809   4.724
 1367TIP3   OH2 4041   6.211   2.454   5.710
 1367TIP3    H1 4042   6.180   2.364   5.710
 1367TIP3    H2 4043   6.299   2.450   5.746
 1368TIP3   OH2 4044   4.767   7.463   5.470
 1368TIP3    H1 4045   4.731   7.378   5.497
 1368TIP3    H2 4046   4.692   7.522   5.470
 1369TIP3   OH2 4047   8.139   1.057   2.198
 1369TIP3    H1 4048   8.204   1.077   2.265
 1369TIP3    H2 4049   8.185   1.000   2.136
 1370TIP3   OH2 4050   3.121   1.947   0.487
 1370TIP3    H1 4051   3.068   1.921   0.562
 1370TIP3    H2 4052   3.199   1.987   0.525
 1371TIP3   OH2 4053   3.145   0.084   1.444
 1371TIP3    H1 4054   3.207   0.113   1.377
 1371TIP3    H2 4055   3.067   0.059   1.395
 1372TIP3   OH2 4056   4.695   0.905   3.686
 1372TIP3    H1 4057   4.704   0.990   3.729
 1372TIP3    H2 4058   4.685   0.843   3.758
 1373TIP3   OH2 4059   6.362   0.588   1.100
 1373TIP3    H1 4060   6.272   0.556   1.103
 1373TIP3    H2 4061   6.407   0.539   1.168
 1374TIP3   OH2 4062   4.032   2.884   5.064
 1374TIP3    H1 4063   4.076   2.968   5.072
 1374TIP3    H2 4064   3.991   2.885   4.978
 1375TIP3   OH2 4065   4.344   2.800   4.070
 1375TIP3    H1 4066   4.252   2.773   4.073
 1375TIP3    H2 4067   4.344   2.880   4.017
 1376TIP3   OH2 4068   3.102   6.060   2.790
 1376TIP3    H1 4069   3.158   6.052   2.713
 1376TIP3    H2 4070   3.157   6.105   2.855
 1377TIP3   OH2 4071   0.208   5.916   4.501
 1377TIP3    H1 4072   0.173   5.956   4.421
 1377TIP3    H2 4073   0.297   5.950   4.508
 1378TIP3   OH2 4074   1.934   3.619   3.519
 1378TIP3    H1 4075   2.019   3.588   3.551
 1378TIP3    H2 4076   1.947   3.634   3.426
 1379TIP3   OH2 4077   7.627   4.504   5.376
 1379TIP3    H1 4078   7.565   4.438   5.346
 1379TIP3    H2 4079   7.621   4.575   5.312
 1380TIP3   OH2 4080   3.195   4.488   0.333
 1380TIP3    H1 4081   3.266   4.425   0.349
 1380TIP3    H2 4082   3.115   4.436   0.341
 1381TIP3   OH2 4083   1.732   6.871   3.462
 1381TIP3    H1 4084   1.719   6.965   3.450
 1381TIP3    H2 4085   1.767   6.863   3.551
 1382TIP3   OH2 4086   3.197   3.078   6.643
 1382TIP3    H1 4087   3.102   3.089   6.650
 1382TIP3    H2 4088   3.217   3.096   6.551
 1383TIP3   OH2 4089   3.657   7.598   1.194
 1383TIP3    H1 4090   3.629   7.590   1.102
 1383TIP3    H2 4091   3.575   7.606   1.243
 1384TIP3   OH2 4092   0.419   3.913   4.438
 1384TIP3    H1 4093   0.361   3.874   4.372
 1384TIP3    H2 4094   0.362   3.970   4.489
 1385TIP3   OH2 4095   7.873   7.793   3.640
 1385TIP3    H1 4096   7.906   7.719   3.588
 1385TIP3    H2 4097   7.795   7.822   3.592
 1386TIP3   OH2 4098   7.478   1.266   4.328
 1386TIP3    H1 4099   7.456   1.225   4.244
 1386TIP3    H2 4100   7.475   1.194   4.391
 1387TIP3   OH2 4101   1.935   6.085   0.228
 1387TIP3    H1 4102   2.008   6.142   0.203
 1387TIP3    H2 4103   1.897   6.056   0.145
 1388TIP3   OH2 4104   5.831   3.479   5.338
 1388TIP3    H1 4105   5.798   3.422   5.268
 1388TIP3    H2 4106   5.789   3.563   5.322
 1389TIP3   OH2 4107   6.820   7.469   5.680
 1389TIP3    H1 4108   6.757   7.417   5.630
 1389TIP3    H2 4109   6.840   7.414   5.756
 1390TIP3   OH2 4110   6.528   7.078   6.373
 1390TIP3    H1 4111   6.597   7.127   6.417
 1390TIP3    H2 4112   6.447   7.123   6.397
 1391TIP3   OH2 4113   5.766   0.774   6.205
 1391TIP3    H1 4114   5.818   0.834   6.259
 1391TIP3    H2 4115   5.704   0.734   6.267
 1392TIP3   OH2 4116   4.230   0.633   0.380
 1392TIP3    H1 4117   4.198   0.582   0.305
 1392TIP3    H2 4118   4.204   0.583   0.457
 1393TIP3   OH2 4119   6.510   3.718   3.775
 1393TIP3    H1 4120   6.442   3.779   3.804
 1393TIP3    H2 4121   6.591   3.769   3.779
 1394TIP3   OH2 4122   3.695   4.422   5.514
 1394TIP3    H1 4123   3.724   4.508   5.484
 1394TIP3    H2 4124   3.776   4.376   5.536
 1395TIP3   OH2 4125   2.471   2.632   2.980
 1395TIP3    H1 4126   2.407   2.697   2.952
 1395TIP3    H2 4127   2.550   2.683   3.000
 1396TIP3   OH2 4128   1.867   2.028   3.210
 1396TIP3    H1 4129   1.787   1.985   3.179
 1396TIP3    H2 4130   1.937   1.966   3.191
 1397TIP3   OH2 4131   0.912   5.574   6.586
 1397TIP3    H1 4132   0.996   5.567   6.541
 1397TIP3    H2 4133   0.864   5.496   6.560
 1398TIP3   OH2 4134   7.091   0.233   5.847
 1398TIP3    H1 4135   7.163   0.275   5.894
 1398TIP3    H2 4136   7.022   0.223   5.912
 1399TIP3   OH2 4137   7.458   2.210   2.018
 1399TIP3    H1 4138   7.516   2.272   1.975
 1399TIP3    H2 4139   7.394   2.187   1.950
 1400TIP3   OH2 4140   1.843   5.655   2.162
 1400TIP3    H1 4141   1.780   5.722   2.138
 1400TIP3    H2 4142   1.913   5.702   2.207
 1401TIP3   OH2 4143   4.648   0.283   3.958
 1401TIP3    H1 4144   4.667   0.376   3.951
 1401TIP3    H2 4145   4.666   0.248   3.871
 1402TIP3   OH2 4146   2.316   2.199   3.937
 1402TIP3    H1 4147   2.226   2.223   3.957
 1402TIP3    H2 4148   2.340   2.255   3.863
 1403TIP3   OH2 4149   7.957   3.501   1.745
 1403TIP3    H1 4150   7.877   3.545   1.775
 1403TIP3    H2 4151   7.983   3.549   1.667
 1404TIP3   OH2 4152   3.867   7.367   3.914
 1404TIP3    H1 4153   3.800   7.336   3.975
 1404TIP3    H2 4154   3.817   7.407   3.842
 1405TIP3   OH2 4155   4.562   0.008   6.867
 1405TIP3    H1 4156   4.525   0.039   6.785
 1405TIP3    H2 4157   4.648  -0.026   6.843
 1406TIP3   OH2 4158   1.206   7.276   4.819
 1406TIP3    H1 4159   1.148   7.204   4.794
 1406TIP3    H2 4160   1.291   7.252   4.783
 1407TIP3   OH2 4161   1.524   5.592   1.462
 1407TIP3    H1 4162   1.566   5.519   1.508
 1407TIP3    H2 4163   1.590   5.662   1.463
 1408TIP3   OH2 4164   2.573   7.526   6.512
 1408TIP3    H1 4165   2.547   7.444   6.553
 1408TIP3    H2 4166   2.632   7.567   6.575
 1409TIP3   OH2 4167   1.774   3.484   4.281
 1409TIP3    H1 4168   1.761   3.576   4.306
 1409TIP3    H2 4169   1.754   3.483   4.187
 1410TIP3   OH2 4170   3.319   3.295   6.762
 1410TIP3    H1 4171   3.246   3.237   6.743
 1410TIP3    H2 4172   3.367   3.302   6.679
 1411TIP3   OH2 4173   2.875   5.237   1.498
 1411TIP3    H1 4174   2.883   5.228   1.593
 1411TIP3    H2 4175   2.872   5.148   1.465
 1412TIP3   OH2 4176   4.047   6.719   4.485
 1412TIP3    H1 4177   4.081   6.786   4.545
 1412TIP3    H2 4178   4.048   6.762   4.399
 1413TIP3   OH2 4179   4.532   7.093   6.505
 1413TIP3    H1 4180   4.594   7.151   6.460
 1413TIP3    H2 4181   4.522   7.131   6.592
 1414TIP3   OH2 4182   7.568   6.994   3.618
 1414TIP3    H1 4183   7.543   7.039   3.699
 1414TIP3    H2 4184   7.487   6.952   3.589
 1415TIP3   OH2 4185   5.121   2.593   5.345
 1415TIP3    H1 4186   5.035   2.557   5.324
 1415TIP3    H2 4187   5.177   2.516   5.357
 1416TIP3   OH2 4188   6.109   1.675   5.339
 1416TIP3    H1 4189   6.139   1.731   5.267
 1416TIP3    H2 4190   6.027   1.637   5.307
 1417TIP3   OH2 4191   2.119   7.110   0.630
 1417TIP3    H1 4192   2.106   7.053   0.554
 1417TIP3    H2 4193   2.214   7.121   0.635
 1418TIP3   OH2 4194   2.245   7.278   5.256
 1418TIP3    H1 4195   2.248   7.355   5.199
 1418TIP3    H2 4196   2.251   7.313   5.345
 1419TIP3   OH2 4197   1.567   7.490   2.137
 1419TIP3    H1 4198   1.570   7.397   2.114
 1419TIP3    H2 4199   1.636   7.531   2.085
 1420TIP3   OH2 4200   4.822   0.376   6.730
 1420TIP3    H1 4201   4.786   0.376   6.642
 1420TIP3    H2 4202   4.844   0.468   6.748
 1421TIP3   OH2 4203   0.808   0.775   1.098
 1421TIP3    H1 4204   0.842   0.737   1.017
 1421TIP3    H2 4205   0.855   0.857   1.109
 1422TIP3   OH2 4206   1.701   0.293   6.037
 1422TIP3    H1 4207   1.669   0.207   6.067
 1422TIP3    H2 4208   1.781   0.308   6.088
 1423TIP3   OH2 4209   4.044   4.409   4.483
 1423TIP3    H1 4210   4.004   4.495   4.473
 1423TIP3    H2 4211   4.137   4.423   4.469
 1424TIP3   OH2 4212   7.099   0.309   1.060
 1424TIP3    H1 4213   7.180   0.275   1.021
 1424TIP3    H2 4214   7.031   0.289   0.995
 1425TIP3   OH2 4215   5.673   0.153   3.840
 1425TIP3    H1 4216   5.751   0.152   3.785
 1425TIP3    H2 4217   5.696   0.209   3.914
 1426TIP3   OH2 4218   0.482   7.136   1.115
 1426TIP3    H1 4219   0.467   7.053   1.070
 1426TIP3    H2 4220   0.556   7.117   1.174
 1427TIP3   OH2 4221   6.379   1.746   2.184
 1427TIP3    H1 4222   6.419   1.788   2.108
 1427TIP3    H2 4223   6.441   1.679   2.210
 1428TIP3   OH2 4224   3.819   0.828   6.496
 1428TIP3    H1 4225   3.868   0.770   6.438
 1428TIP3    H2 4226   3.867   0.824   6.579
 1429TIP3   OH2 4227   7.602   7.372   6.044
 1429TIP3    H1 4228   7.518   7.328   6.055
 1429TIP3    H2 4229   7.585   7.463   6.069
 1430TIP3   OH2 4230   3.407   6.271   4.399
 1430TIP3    H1 4231   3.331   6.223   4.366
 1430TIP3    H2 4232   3.404   6.355   4.354
 1431TIP3   OH2 4233   1.796   2.796   6.217
 1431TIP3    H1 4234   1.857   2.868   6.235
 1431TIP3    H2 4235   1.851   2.721   6.197
 1432TIP3   OH2 4236   8.319   1.270   3.296
 1432TIP3    H1 4237   8.379   1.299   3.365
 1432TIP3    H2 4238   8.347   1.181   3.276
 1433TIP3   OH2 4239   5.077   5.919   0.672
 1433TIP3    H1 4240   5.152   5.930   0.730
 1433TIP3    H2 4241   5.095   5.838   0.624
 1434TIP3   OH2 4242   2.031   0.474   2.460
 1434TIP3    H1 4243   1.999   0.563   2.453
 1434TIP3    H2 4244   2.015   0.450   2.552
 1435TIP3   OH2 4245   0.299   4.017   4.018
 1435TIP3    H1 4246   0.220   4.053   4.060
 1435TIP3    H2 4247   0.330   3.951   4.079
 1436TIP3   OH2 4248   5.281   7.312   2.224
 1436TIP3    H1 4249   5.214   7.245   2.210
 1436TIP3    H2 4250   5.251   7.361   2.301
 1437TIP3   OH2 4251   7.292   4.720   4.101
 1437TIP3    H1 4252   7.233   4.678   4.164
 1437TIP3    H2 4253   7.256   4.699   4.016
 1438TIP3   OH2 4254   5.947   5.837   5.260
 1438TIP3    H1 4255   6.014   5.904   5.244
 1438TIP3    H2 4256   5.878   5.857   5.197
 1439TIP3   OH2 4257   1.645   2.256   1.615
 1439TIP3    H1 4258   1.705   2.228   1.684
 1439TIP3    H2 4259   1.674   2.210   1.537
 1440TIP3   OH2 4260   7.628   1.279   1.219
 1440TIP3    H1 4261   7.716   1.317   1.217
 1440TIP3    H2 4262   7.638   1.199   1.272
 1441TIP3   OH2 4263   7.945   2.504   4.758
 1441TIP3    H1 4264   8.019   2.451   4.789
 1441TIP3    H2 4265   7.893   2.444   4.706
 1442TIP3   OH2 4266   1.481   7.826   0.885
 1442TIP3    H1 4267   1.524   7.910   0.901
 1442TIP3    H2 4268   1.393   7.850   0.856
 1443TIP3   OH2 4269   0.077   6.057   3.066
 1443TIP3    H1 4270   0.065   6.035   2.974
 1443TIP3    H2 4271   0.169   6.040   3.084
 1444TIP3   OH2 4272   4.213   2.193   0.011
 1444TIP3    H1 4273   4.150   2.140  -0.038
 1444TIP3    H2 4274   4.162   2.233   0.081
 1445TIP3   OH2 4275   3.855   2.605   1.371
 1445TIP3    H1 4276   3.856   2.510   1.382
 1445TIP3    H2 4277   3.939   2.625   1.330
 1446TIP3   OH2 4278   2.427   6.109   1.766
 1446TIP3    H1 4279   2.385   6.103   1.681
 1446TIP3    H2 4280   2.486   6.033   1.769
 1447TIP3   OH2 4281   1.031   6.330   3.245
 1447TIP3    H1 4282   1.028   6.417   3.286
 1447TIP3    H2 4283   1.113   6.292   3.275
 1448TIP3   OH2 4284   4.603   7.382   4.229
 1448TIP3    H1 4285   4.601   7.295   4.268
 1448TIP3    H2 4286   4.533   7.382   4.164
 1449TIP3   OH2 4287   5.758   7.393   4.736
 1449TIP3    H1 4288   5.715   7.461   4.788
 1449TIP3    H2 4289   5.717   7.311   4.765
 1450TIP3   OH2 4290   8.318   0.615   4.958
 1450TIP3    H1 4291   8.261   0.678   5.002
 1450TIP3    H2 4292   8.312   0.536   5.011
 1451TIP3   OH2 4293   6.841   2.244   3.614
 1451TIP3    H1 4294   6.910   2.221   3.676
 1451TIP3    H2 4295   6.761   2.244   3.666
 1452TIP3   OH2 4296   6.004   3.463   0.419
 1452TIP3    H1 4297   5.942   3.478   0.490
 1452TIP3    H2 4298   5.979   3.528   0.352
 1453TIP3   OH2 4299   6.743   1.864   5.751
 1453TIP3    H1 4300   6.730   1.870   5.657
 1453TIP3    H2 4301   6.822   1.915   5.767
 1454TIP3   OH2 4302   5.927   6.936   4.717
 1454TIP3    H1 4303   5.947   6.988   4.795
 1454TIP3    H2 4304   5.871   6.865   4.748
 1455TIP3   OH2 4305   1.512   5.656   4.420
 1455TIP3    H1 4306   1.514   5.605   4.339
 1455TIP3    H2 4307   1.421   5.651   4.449
 1456TIP3   OH2 4308   3.024   0.354   1.956
 1456TIP3    H1 4309   2.951   0.340   2.017
 1456TIP3    H2 4310   3.087   0.406   2.005
 1457TIP3   OH2 4311   5.496   2.588   0.430
 1457TIP3    H1 4312   5.565   2.566   0.493
 1457TIP3    H2 4313   5.447   2.659   0.472
 1458TIP3   OH2 4314   7.097   6.504   5.040
 1458TIP3    H1 4315   7.094   6.590   4.998
 1458TIP3    H2 4316   7.018   6.501   5.094
 1459TIP3   OH2 4317   6.239   5.916   0.235
 1459TIP3    H1 4318   6.279   5.975   0.171
 1459TIP3    H2 4319   6.270   5.948   0.320
 1460TIP3   OH2 4320   2.606   7.263   1.553
 1460TIP3    H1 4321   2.681   7.210   1.527
 1460TIP3    H2 4322   2.539   7.199   1.577
 1461TIP3   OH2 4323   8.158   6.320   2.028
 1461TIP3    H1 4324   8.234   6.362   1.986
 1461TIP3    H2 4325   8.163   6.229   2.000
 1462TIP3   OH2 4326   7.287   4.957   1.092
 1462TIP3    H1 4327   7.304   4.960   0.998
 1462TIP3    H2 4328   7.205   4.909   1.100
 1463TIP3   OH2 4329   2.415   6.174   6.002
 1463TIP3    H1 4330   2.390   6.252   5.953
 1463TIP3    H2 4331   2.458   6.117   5.938
 1464TIP3   OH2 4332   4.295   0.484   1.513
 1464TIP3    H1 4333   4.326   0.545   1.579
 1464TIP3    H2 4334   4.242   0.537   1.453
 1465TIP3   OH2 4335   0.379   5.359   6.246
 1465TIP3    H1 4336   0.303   5.369   6.304
 1465TIP3    H2 4337   0.371   5.430   6.183
 1466TIP3   OH2 4338   6.184   2.782   5.073
 1466TIP3    H1 4339   6.204   2.712   5.010
 1466TIP3    H2 4340   6.093   2.806   5.053
 1467TIP3   OH2 4341   4.281   3.794   0.595
 1467TIP3    H1 4342   4.289   3.850   0.518
 1467TIP3    H2 4343   4.371   3.766   0.614
 1468TIP3   OH2 4344   0.760   2.274   1.195
 1468TIP3    H1 4345   0.849   2.250   1.170
 1468TIP3    H2 4346   0.711   2.192   1.187
 1469TIP3   OH2 4347   1.460   6.280   0.931
 1469TIP3    H1 4348   1.532   6.238   0.883
 1469TIP3    H2 4349   1.484   6.373   0.932
 1470TIP3   OH2 4350   7.985   2.053   4.612
 1470TIP3    H1 4351   8.031   1.994   4.671
 1470TIP3    H2 4352   7.897   2.061   4.649
 1471TIP3   OH2 4353   5.661   4.317   4.882
 1471TIP3    H1 4354   5.644   4.364   4.801
 1471TIP3    H2 4355   5.695   4.384   4.942
 1472TIP3   OH2 4356   8.233   6.766   1.091
 1472TIP3    H1 4357   8.216   6.856   1.119
 1472TIP3    H2 4358   8.157   6.742   1.038
 1473TIP3   OH2 4359   5.307   1.814   1.983
 1473TIP3    H1 4360   5.380   1.860   1.941
 1473TIP3    H2 4361   5.339   1.725   1.994
 1474TIP3   OH2 4362   2.507   7.573   0.153
 1474TIP3    H1 4363   2.516   7.668   0.158
 1474TIP3    H2 4364   2.544   7.550   0.068
 1475TIP3   OH2 4365   2.283   7.403   1.250
 1475TIP3    H1 4366   2.218   7.442   1.307
 1475TIP3    H2 4367   2.366   7.414   1.296
 1476TIP3   OH2 4368   3.000   1.712   5.009
 1476TIP3    H1 4369   2.993   1.758   5.093
 1476TIP3    H2 4370   3.068   1.645   5.024
 1477TIP3   OH2 4371   6.045   5.025   6.090
 1477TIP3    H1 4372   6.127   4.998   6.049
 1477TIP3    H2 4373   6.007   4.944   6.124
 1478TIP3   OH2 4374   0.392   0.883   1.617
 1478TIP3    H1 4375   0.375   0.971   1.582
 1478TIP3    H2 4376   0.321   0.830   1.582
 1479TIP3   OH2 4377   5.320   4.827   2.682
 1479TIP3    H1 4378   5.407   4.865   2.685
 1479TIP3    H2 4379   5.261   4.903   2.676
 1480TIP3   OH2 4380   7.330   0.107   1.642
 1480TIP3    H1 4381   7.247   0.144   1.611
 1480TIP3    H2 4382   7.313   0.014   1.654
 1481TIP3   OH2 4383   5.186   2.592   4.532
 1481TIP3    H1 4384   5.091   2.600   4.521
 1481TIP3    H2 4385   5.216   2.550   4.451
 1482TIP3   OH2 4386   2.105   7.146   4.155
 1482TIP3    H1 4387   2.125   7.057   4.124
 1482TIP3    H2 4388   2.135   7.203   4.084
 1483TIP3   OH2 4389   4.531   1.940   1.067
 1483TIP3    H1 4390   4.569   2.027   1.078
 1483TIP3    H2 4391   4.527   1.905   1.156
 1484TIP3   OH2 4392   0.031   5.486   4.787
 1484TIP3    H1 4393  -0.004   5.417   4.732
 1484TIP3    H2 4394   0.039   5.562   4.729
 1485TIP3   OH2 4395   2.265   5.909   0.119
 1485TIP3    H1 4396   2.301   5.964   0.188
 1485TIP3    H2 4397   2.334   5.906   0.053
 1486TIP3   OH2 4398   3.843   3.906   0.459
 1486TIP3    H1 4399   3.762   3.938   0.498
 1486TIP3    H2 4400   3.815   3.836   0.400
 1487TIP3   OH2 4401   0.684   1.078   4.397
 1487TIP3    H1 4402   0.731   1.079   4.480
 1487TIP3    H2 4403   0.703   0.992   4.359
 1488TIP3   OH2 4404   7.740   3.535   5.810
 1488TIP3    H1 4405   7.701   3.517   5.895
 1488TIP3    H2 4406   7.820   3.584   5.830
 1489TIP3   OH2 4407   6.339   3.489   6.425
 1489TIP3    H1 4408   6.261   3.517   6.472
 1489TIP3    H2 4409   6.381   3.425   6.484
 1490TIP3   OH2 4410   0.944   7.153   2.705
 1490TIP3    H1 4411   0.970   7.136   2.614
 1490TIP3    H2 4412   1.024   7.140   2.755
 1491TIP3   OH2 4413   7.043   1.329   6.159
 1491TIP3    H1 4414   6.978   1.308   6.227
 1491TIP3    H2 4415   7.023   1.419   6.134
 1492TIP3   OH2 4416   0.944   6.987   5.012
 1492TIP3    H1 4417   0.905   6.942   4.936
 1492TIP3    H2 4418   0.934   7.080   4.992
 1493TIP3   OH2 4419   0.859   5.240   1.113
 1493TIP3    H1 4420   0.771   5.206   1.133
 1493TIP3    H2 4421   0.842   5.319   1.061
 1494TIP3   OH2 4422   6.874   7.173   2.584
 1494TIP3    H1 4423   6.906   7.264   2.587
 1494TIP3    H2 4424   6.817   7.166   2.661
 1495TIP3   OH2 4425   4.366   3.056   5.232
 1495TIP3    H1 4426   4.401   3.078   5.146
 1495TIP3    H2 4427   4.381   2.962   5.241
 1496TIP3   OH2 4428   5.768   5.269   5.654
 1496TIP3    H1 4429   5.772   5.229   5.741
 1496TIP3    H2 4430   5.731   5.356   5.670
 1497TIP3   OH2 4431   0.484   3.175   1.902
 1497TIP3    H1 4432   0.398   3.134   1.910
 1497TIP3    H2 4433   0.533   3.118   1.844
 1498TIP3   OH2 4434   7.813   5.211   3.739
 1498TIP3    H1 4435   7.756   5.275   3.696
 1498TIP3    H2 4436   7.864   5.262   3.801
 1499TIP3   OH2 4437   5.418  -0.009   4.311
 1499TIP3    H1 4438   5.440   0.034   4.393
 1499TIP3    H2 4439   5.364   0.054   4.264
 1500TIP3   OH2 4440   6.386   0.540   3.055
 1500TIP3    H1 4441   6.298   0.508   3.035
 1500TIP3    H2 4442   6.404   0.604   2.987
 1501TIP3   OH2 4443   1.508   1.622   5.470
 1501TIP3    H1 4444   1.535   1.709   5.498
 1501TIP3    H2 4445   1.503   1.570   5.550
 1502TIP3   OH2 4446   6.089   5.506   6.114
 1502TIP3    H1 4447   6.174   5.464   6.098
 1502TIP3    H2 4448   6.092   5.585   6.060
 1503TIP3   OH2 4449   6.219   1.648   4.400
 1503TIP3    H1 4450   6.221   1.658   4.495
 1503TIP3    H2 4451   6.310   1.634   4.375
 1504TIP3   OH2 4452   2.920   1.397   0.010
 1504TIP3    H1 4453   2.948   1.414   0.100
 1504TIP3    H2 4454   2.877   1.311   0.014
 1505TIP3   OH2 4455   1.848   6.070   2.720
 1505TIP3    H1 4456   1.858   6.164   2.736
 1505TIP3    H2 4457   1.890   6.028   2.795
 1506TIP3   OH2 4458   1.599   1.516   0.959
 1506TIP3    H1 4459   1.539   1.442   0.974
 1506TIP3    H2 4460   1.611   1.555   1.046
 1507TIP3   OH2 4461   7.542   5.550   4.130
 1507TIP3    H1 4462   7.526   5.641   4.155
 1507TIP3    H2 4463   7.489   5.537   4.052
 1508TIP3   OH2 4464   3.268   0.807   5.739
 1508TIP3    H1 4465   3.245   0.828   5.648
 1508TIP3    H2 4466   3.355   0.845   5.751
 1509TIP3   OH2 4467   3.191   4.857   3.234
 1509TIP3    H1 4468   3.245   4.935   3.249
 1509TIP3    H2 4469   3.223   4.793   3.297
 1510TIP3   OH2 4470   6.103   2.366   1.247
 1510TIP3    H1 4471   6.016   2.327   1.244
 1510TIP3    H2 4472   6.096   2.435   1.312
 1511TIP3   OH2 4473   5.796   2.869   4.539
 1511TIP3    H1 4474   5.742   2.928   4.592
 1511TIP3    H2 4475   5.866   2.843   4.598
 1512TIP3   OH2 4476   7.238   2.599   0.595
 1512TIP3    H1 4477   7.290   2.677   0.612
 1512TIP3    H2 4478   7.295   2.543   0.542
 1513TIP3   OH2 4479   5.541   2.526   2.877
 1513TIP3    H1 4480   5.517   2.437   2.904
 1513TIP3    H2 4481   5.559   2.571   2.960
 1514TIP3   OH2 4482   6.785   1.871   4.602
 1514TIP3    H1 4483   6.871   1.874   4.643
 1514TIP3    H2 4484   6.767   1.961   4.575
 1515TIP3   OH2 4485   5.222   3.830   1.671
 1515TIP3    H1 4486   5.297   3.852   1.725
 1515TIP3    H2 4487   5.147   3.836   1.730
 1516TIP3   OH2 4488   2.232   2.100   2.335
 1516TIP3    H1 4489   2.229   2.163   2.407
 1516TIP3    H2 4490   2.325   2.082   2.324
 1517TIP3   OH2 4491   3.080   6.285   4.070
 1517TIP3    H1 4492   3.107   6.251   4.155
 1517TIP3    H2 4493   3.162   6.309   4.026
 1518TIP3   OH2 4494   4.996   4.388   3.115
 1518TIP3    H1 4495   5.044   4.431   3.044
 1518TIP3    H2 4496   5.059   4.381   3.186
 1519TIP3   OH2 4497   8.375   6.489   2.693
 1519TIP3    H1 4498   8.280   6.498   2.702
 1519TIP3    H2 4499   8.393   6.399   2.719
 1520TIP3   OH2 4500   5.077   3.633   4.941
 1520TIP3    H1 4501   5.102   3.644   5.032
 1520TIP3    H2 4502   5.087   3.720   4.902
 1521TIP3   OH2 4503   3.082   7.155   5.465
 1521TIP3    H1 4504   3.175   7.154   5.488
 1521TIP3    H2 4505   3.039   7.202   5.536
 1522TIP3   OH2 4506   2.716   7.362   3.583
 1522TIP3    H1 4507   2.628   7.342   3.614
 1522TIP3    H2 4508   2.718   7.457   3.576
 1523TIP3   OH2 4509   4.052   7.216   6.770
 1523TIP3    H1 4510   4.146   7.228   6.766
 1523TIP3    H2 4511   4.026   7.199   6.679
 1524TIP3   OH2 4512   2.205   3.578   3.450
 1524TIP3    H1 4513   2.266   3.548   3.518
 1524TIP3    H2 4514   2.202   3.506   3.387
 1525TIP3   OH2 4515   4.572   4.111   0.294
 1525TIP3    H1 4516   4.589   4.137   0.384
 1525TIP3    H2 4517   4.633   4.040   0.277
 1526TIP3   OH2 4518   5.941   2.620   0.721
 1526TIP3    H1 4519   5.999   2.681   0.674
 1526TIP3    H2 4520   5.979   2.615   0.809
 1527TIP3   OH2 4521   5.332   3.076   1.736
 1527TIP3    H1 4522   5.330   3.152   1.795
 1527TIP3    H2 4523   5.296   3.109   1.654
 1528TIP3   OH2 4524   2.008   6.384   4.665
 1528TIP3    H1 4525   1.975   6.359   4.579
 1528TIP3    H2 4526   1.964   6.467   4.685
 1529TIP3   OH2 4527   7.917   7.487   6.347
 1529TIP3    H1 4528   7.918   7.578   6.377
 1529TIP3    H2 4529   7.991   7.446   6.393
 1530TIP3   OH2 4530   5.008   4.721   5.273
 1530TIP3    H1 4531   4.959   4.788   5.321
 1530TIP3    H2 4532   5.016   4.756   5.184
 1531TIP3   OH2 4533   2.955   7.086   5.821
 1531TIP3    H1 4534   3.017   7.153   5.852
 1531TIP3    H2 4535   3.011   7.014   5.791
 1532TIP3   OH2 4536   2.020   6.951   2.180
 1532TIP3    H1 4537   1.974   6.871   2.205
 1532TIP3    H2 4538   2.112   6.934   2.201
 1533TIP3   OH2 4539   3.590   0.498   1.824
 1533TIP3    H1 4540   3.580   0.578   1.772
 1533TIP3    H2 4541   3.504   0.455   1.818
 1534TIP3   OH2 4542   3.321   1.877   3.039
 1534TIP3    H1 4543   3.285   1.799   3.082
 1534TIP3    H2 4544   3.299   1.866   2.947
 1535TIP3   OH2 4545   3.046   0.978   4.376
 1535TIP3    H1 4546   3.023   0.894   4.336
 1535TIP3    H2 4547   3.128   1.003   4.334
 1536TIP3   OH2 4548   1.471   1.613   2.780
 1536TIP3    H1 4549   1.450   1.565   2.700
 1536TIP3    H2 4550   1.425   1.696   2.772
 1537TIP3   OH2 4551   3.041   0.401   2.319
 1537TIP3    H1 4552   2.979   0.473   2.306
 1537TIP3    H2 4553   2.990   0.333   2.364
 1538TIP3   OH2 4554   6.881   7.837   1.745
 1538TIP3    H1 4555   6.919   7.909   1.795
 1538TIP3    H2 4556   6.817   7.797   1.804
 1539TIP3   OH2 4557   2.821   7.812   4.146
 1539TIP3    H1 4558   2.786   7.871   4.213
 1539TIP3    H2 4559   2.780   7.728   4.165
 1540TIP3   OH2 4560   4.551   4.932   6.611
 1540TIP3    H1 4561   4.486   4.867   6.586
 1540TIP3    H2 4562   4.630   4.906   6.564
 1541TIP3   OH2 4563   4.441   7.339   0.958
 1541TIP3    H1 4564   4.502   7.290   1.013
 1541TIP3    H2 4565   4.404   7.406   1.017
 1542TIP3   OH2 4566   1.147   3.380   6.548
 1542TIP3    H1 4567   1.206   3.309   6.573
 1542TIP3    H2 4568   1.158   3.446   6.616
 1543TIP3   OH2 4569   5.172   0.603   3.035
 1543TIP3    H1 4570   5.249   0.640   3.078
 1543TIP3    H2 4571   5.120   0.679   3.010
 1544TIP3   OH2 4572   5.116   7.464   3.682
 1544TIP3    H1 4573   5.057   7.536   3.658
 1544TIP3    H2 4574   5.147   7.487   3.769
 1545TIP3   OH2 4575   5.001   2.316   2.367
 1545TIP3    H1 4576   5.039   2.324   2.280
 1545TIP3    H2 4577   4.911   2.286   2.352
 1546TIP3   OH2 4578   3.829   2.066   6.416
 1546TIP3    H1 4579   3.855   1.983   6.455
 1546TIP3    H2 4580   3.911   2.102   6.381
 1547TIP3   OH2 4581   4.550   1.856   2.876
 1547TIP3    H1 4582   4.472   1.825   2.830
 1547TIP3    H2 4583   4.592   1.916   2.815
 1548TIP3   OH2 4584   5.695   1.999   0.497
 1548TIP3    H1 4585   5.604   2.022   0.518
 1548TIP3    H2 4586   5.738   2.083   0.483
 1549TIP3   OH2 4587   6.178   3.157   6.241
 1549TIP3    H1 4588   6.100   3.111   6.212
 1549TIP3    H2 4589   6.159   3.185   6.330
 1550TIP3   OH2 4590   3.520   0.157   3.118
 1550TIP3    H1 4591   3.607   0.166   3.079
 1550TIP3    H2 4592   3.525   0.210   3.198
 1551TIP3   OH2 4593   5.024   2.369   2.645
 1551TIP3    H1 4594   5.038   2.357   2.551
 1551TIP3    H2 4595   5.110   2.353   2.684
 1552TIP3   OH2 4596   3.034   2.524   4.292
 1552TIP3    H1 4597   3.064   2.474   4.368
 1552TIP3    H2 4598   2.971   2.586   4.328
 1553TIP3   OH2 4599   4.436   5.931   4.829
 1553TIP3    H1 4600   4.504   5.878   4.872
 1553TIP3    H2 4601   4.427   5.892   4.742
 1554TIP3   OH2 4602   5.474   5.341   4.962
 1554TIP3    H1 4603   5.532   5.398   5.012
 1554TIP3    H2 4604   5.398   5.329   5.019
 1555TIP3   OH2 4605   6.201   2.879   0.277
 1555TIP3    H1 4606   6.189   2.974   0.282
 1555TIP3    H2 4607   6.296   2.867   0.273
 1556TIP3   OH2 4608   3.788   4.856   1.628
 1556TIP3    H1 4609   3.813   4.894   1.713
 1556TIP3    H2 4610   3.801   4.927   1.566
 1557TIP3   OH2 4611   4.535   5.922   4.466
 1557TIP3    H1 4612   4.609   5.983   4.457
 1557TIP3    H2 4613   4.565   5.842   4.424
 1558TIP3   OH2 4614   5.090   0.220   5.256
 1558TIP3    H1 4615   5.114   0.256   5.341
 1558TIP3    H2 4616   5.006   0.177   5.271
 1559TIP3   OH2 4617   1.307   2.121   2.806
 1559TIP3    H1 4618   1.231   2.178   2.794
 1559TIP3    H2 4619   1.352   2.157   2.882
 1560TIP3   OH2 4620   0.964   7.167   1.042
 1560TIP3    H1 4621   0.936   7.098   1.103
 1560TIP3    H2 4622   0.885   7.219   1.026
 1561TIP3   OH2 4623   1.632   5.008   5.177
 1561TIP3    H1 4624   1.573   5.059   5.233
 1561TIP3    H2 4625   1.713   5.002   5.226
 1562TIP3   OH2 4626   1.930   3.116   0.075
 1562TIP3    H1 4627   1.886   3.141   0.156
 1562TIP3    H2 4628   1.861   3.077   0.021
 1563TIP3   OH2 4629   3.110   6.323   5.408
 1563TIP3    H1 4630   3.102   6.312   5.503
 1563TIP3    H2 4631   3.068   6.245   5.372
 1564TIP3   OH2 4632   7.850   2.161   2.413
 1564TIP3    H1 4633   7.912   2.189   2.346
 1564TIP3    H2 4634   7.789   2.103   2.367
 1565TIP3   OH2 4635   7.993   1.178   1.906
 1565TIP3    H1 4636   7.921   1.126   1.872
 1565TIP3    H2 4637   8.057   1.114   1.938
 1566TIP3   OH2 4638   1.297   6.647   6.030
 1566TIP3    H1 4639   1.325   6.694   6.108
 1566TIP3    H2 4640   1.213   6.608   6.054
 1567TIP3   OH2 4641   3.524   4.211   1.574
 1567TIP3    H1 4642   3.577   4.284   1.544
 1567TIP3    H2 4643   3.482   4.178   1.494
 1568TIP3   OH2 4644   6.182   5.235   5.187
 1568TIP3    H1 4645   6.152   5.311   5.236
 1568TIP3    H2 4646   6.157   5.160   5.241
 1569TIP3   OH2 4647   3.937   0.488   3.054
 1569TIP3    H1 4648   3.867   0.505   3.117
 1569TIP3    H2 4649   4.003   0.441   3.104
 1570TIP3   OH2 4650   1.497   0.783   3.772
 1570TIP3    H1 4651   1.460   0.849   3.831
 1570TIP3    H2 4652   1.477   0.699   3.813
 1571TIP3   OH2 4653   1.158   0.875   5.595
 1571TIP3    H1 4654   1.225   0.911   5.653
 1571TIP3    H2 4655   1.087   0.849   5.653
 1572TIP3   OH2 4656   1.102   7.025   6.537
 1572TIP3    H1 4657   1.193   7.026   6.507
 1572TIP3    H2 4658   1.108   7.015   6.632
 1573TIP3   OH2 4659   2.016   6.460   1.869
 1573TIP3    H1 4660   2.031   6.373   1.906
 1573TIP3    H2 4661   1.921   6.467   1.863
 1574TIP3   OH2 4662   4.647   7.691   0.257
 1574TIP3    H1 4663   4.639   7.604   0.298
 1574TIP3    H2 4664   4.615   7.678   0.168
 1575TIP3   OH2 4665   2.083   2.064   0.078
 1575TIP3    H1 4666   1.999   2.023   0.056
 1575TIP3    H2 4667   2.120   2.089  -0.007
 1576TIP3   OH2 4668   1.503   2.598   1.142
 1576TIP3    H1 4669   1.475   2.688   1.160
 1576TIP3    H2 4670   1.548   2.571   1.222
 1577TIP3   OH2 4671   0.292   2.500   1.078
 1577TIP3    H1 4672   0.366   2.445   1.053
 1577TIP3    H2 4673   0.317   2.588   1.052
 1578TIP3   OH2 4674   0.225   4.723   3.731
 1578TIP3    H1 4675   0.296   4.659   3.720
 1578TIP3    H2 4676   0.242   4.790   3.666
 1579TIP3   OH2 4677   4.685   4.829   5.187
 1579TIP3    H1 4678   4.735   4.850   5.266
 1579TIP3    H2 4679   4.684   4.910   5.136
 1580TIP3   OH2 4680   8.359   7.672   2.625
 1580TIP3    H1 4681   8.363   7.766   2.611
 1580TIP3    H2 4682   8.298   7.640   2.559
 1581TIP3   OH2 4683   0.779   3.478   6.672
 1581TIP3    H1 4684   0.815   3.452   6.586
 1581TIP3    H2 4685   0.834   3.552   6.699
 1582TIP3   OH2 4686   7.886   3.086   1.015
 1582TIP3    H1 4687   7.840   3.150   0.961
 1582TIP3    H2 4688   7.851   3.001   0.988
 1583TIP3   OH2 4689   3.832   4.793   6.136
 1583TIP3    H1 4690   3.913   4.844   6.133
 1583TIP3    H2 4691   3.768   4.847   6.090
 1584TIP3   OH2 4692   3.896   2.138   5.633
 1584TIP3    H1 4693   3.846   2.086   5.569
 1584TIP3    H2 4694   3.987   2.124   5.608
 1585TIP3   OH2 4695   7.908   7.169   0.126
 1585TIP3    H1 4696   8.001   7.154   0.111
 1585TIP3    H2 4697   7.900   7.263   0.138
 1586TIP3   OH2 4698   7.103   6.629   2.671
 1586TIP3    H1 4699   7.040   6.697   2.644
 1586TIP3    H2 4700   7.048   6.554   2.694
 1587TIP3   OH2 4701   2.412   3.966   0.457
 1587TIP3    H1 4702   2.322   3.946   0.432
 1587TIP3    H2 4703   2.446   3.884   0.492
 1588TIP3   OH2 4704   1.285   2.070   3.875
 1588TIP3    H1 4705   1.310   2.162   3.871
 1588TIP3    H2 4706   1.218   2.067   3.944
 1589TIP3   OH2 4707   4.685   5.724   4.324
 1589TIP3    H1 4708   4.761   5.720   4.265
 1589TIP3    H2 4709   4.610   5.709   4.267
 1590TIP3   OH2 4710   6.118   2.782   0.574
 1590TIP3    H1 4711   6.114   2.819   0.486
 1590TIP3    H2 4712   6.189   2.718   0.570
 1591TIP3   OH2 4713   3.582   1.181   3.024
 1591TIP3    H1 4714   3.574   1.136   2.940
 1591TIP3    H2 4715   3.578   1.274   3.002
 1592TIP3   OH2 4716   5.033   7.508   5.130
 1592TIP3    H1 4717   4.966   7.561   5.171
 1592TIP3    H2 4718   4.999   7.490   5.042
 1593TIP3   OH2 4719   3.575   3.039   1.006
 1593TIP3    H1 4720   3.661   3.016   1.041
 1593TIP3    H2 4721   3.581   3.133   0.986
 1594TIP3   OH2 4722   5.065   4.250   5.141
 1594TIP3    H1 4723   4.990   4.222   5.088
 1594TIP3    H2 4724   5.044   4.339   5.167
 1595TIP3   OH2 4725   1.016   5.984   1.228
 1595TIP3    H1 4726   1.057   6.025   1.152
 1595TIP3    H2 4727   0.949   6.045   1.256
 1596TIP3   OH2 4728   1.734   4.851   2.984
 1596TIP3    H1 4729   1.675   4.836   2.910
 1596TIP3    H2 4730   1.755   4.763   3.015
 1597TIP3   OH2 4731   0.200   6.921   6.367
 1597TIP3    H1 4732   0.107   6.938   6.380
 1597TIP3    H2 4733   0.242   7.005   6.382
 1598TIP3   OH2 4734   2.013   3.235   0.517
 1598TIP3    H1 4735   1.957   3.160   0.539
 1598TIP3    H2 4736   1.971   3.275   0.441
 1599TIP3   OH2 4737   5.878   3.160   5.317
 1599TIP3    H1 4738   5.937   3.085   5.315
 1599TIP3    H2 4739   5.815   3.143   5.247
 1600TIP3   OH2 4740   0.476   6.664   1.965
 1600TIP3    H1 4741   0.531   6.711   2.028
 1600TIP3    H2 4742   0.493   6.571   1.983
 1601TIP3   OH2 4743   6.904   2.450   2.932
 1601TIP3    H1 4744   6.973   2.440   2.998
 1601TIP3    H2 4745   6.829   2.405   2.969
 1602TIP3   OH2 4746   5.696   2.216   5.268
 1602TIP3    H1 4747   5.784   2.179   5.279
 1602TIP3    H2 4748   5.658   2.214   5.355
 1603TIP3   OH2 4749   0.918   3.509   5.004
 1603TIP3    H1 4750   0.831   3.551   5.002
 1603TIP3    H2 4751   0.921   3.459   4.923
 1604TIP3   OH2 4752   8.017   5.050   3.634
 1604TIP3    H1 4753   7.948   5.099   3.678
 1604TIP3    H2 4754   8.072   5.117   3.593
 1605TIP3   OH2 4755   6.843   4.870   6.289
 1605TIP3    H1 4756   6.886   4.785   6.278
 1605TIP3    H2 4757   6.753   4.855   6.261
 1606TIP3   OH2 4758   7.954   7.333   3.434
 1606TIP3    H1 4759   8.031   7.280   3.415
 1606TIP3    H2 4760   7.886   7.270   3.457
 1607TIP3   OH2 4761   1.907   7.789   2.356
 1607TIP3    H1 4762   1.932   7.882   2.353
 1607TIP3    H2 4763   1.840   7.781   2.288
 1608TIP3   OH2 4764   3.166   0.117   4.687
 1608TIP3    H1 4765   3.095   0.180   4.679
 1608TIP3    H2 4766   3.246   0.170   4.683
 1609TIP3   OH2 4767   4.518   2.727   2.135
 1609TIP3    H1 4768   4.533   2.808   2.184
 1609TIP3    H2 4769   4.600   2.710   2.090
 1610TIP3   OH2 4770   4.399   4.054   1.092
 1610TIP3    H1 4771   4.422   3.963   1.108
 1610TIP3    H2 4772   4.466   4.104   1.139
 1611TIP3   OH2 4773   3.542   0.963   6.034
 1611TIP3    H1 4774   3.506   1.050   6.016
 1611TIP3    H2 4775   3.594   0.974   6.114
 1612TIP3   OH2 4776   8.171   0.143   6.397
 1612TIP3    H1 4777   8.202   0.181   6.314
 1612TIP3    H2 4778   8.237   0.078   6.420
 1613TIP3   OH2 4779   6.471   7.318   3.962
 1613TIP3    H1 4780   6.491   7.411   3.969
 1613TIP3    H2 4781   6.422   7.310   3.880
 1614TIP3   OH2 4782   7.711   5.103   0.265
 1614TIP3    H1 4783   7.747   5.023   0.226
 1614TIP3    H2 4784   7.765   5.120   0.342
 1615TIP3   OH2 4785   4.761   5.624   3.717
 1615TIP3    H1 4786   4.741   5.633   3.624
 1615TIP3    H2 4787   4.689   5.571   3.752
 1616TIP3   OH2 4788   1.908   5.653   6.858
 1616TIP3    H1 4789   1.848   5.685   6.792
 1616TIP3    H2 4790   1.852   5.629   6.932
 1617TIP3   OH2 4791   0.201   3.498   4.270
 1617TIP3    H1 4792   0.192   3.403   4.264
 1617TIP3    H2 4793   0.179   3.519   4.361
 1618TIP3   OH2 4794   6.365   7.643   0.571
 1618TIP3    H1 4795   6.423   7.611   0.640
 1618TIP3    H2 4796   6.422   7.649   0.493
 1619TIP3   OH2 4797   6.356   4.662   3.880
 1619TIP3    H1 4798   6.379   4.755   3.877
 1619TIP3    H2 4799   6.394   4.625   3.800
 1620TIP3   OH2 4800   5.997   7.932   0.514
 1620TIP3    H1 4801   6.001   7.840   0.487
 1620TIP3    H2 4802   6.087   7.955   0.535
 1621TIP3   OH2 4803   3.759   4.492   5.051
 1621TIP3    H1 4804   3.808   4.536   5.119
 1621TIP3    H2 4805   3.701   4.559   5.016
 1622TIP3   OH2 4806   6.265   4.188   3.029
 1622TIP3    H1 4807   6.241   4.148   2.946
 1622TIP3    H2 4808   6.182   4.222   3.064
 1623TIP3   OH2 4809   7.707   0.695   0.036
 1623TIP3    H1 4810   7.795   0.719   0.007
 1623TIP3    H2 4811   7.701   0.732   0.124
 1624TIP3   OH2 4812   6.458   6.537   5.761
 1624TIP3    H1 4813   6.409   6.507   5.684
 1624TIP3    H2 4814   6.549   6.518   5.740
 1625TIP3   OH2 4815   5.953   7.645   4.326
 1625TIP3    H1 4816   5.876   7.627   4.378
 1625TIP3    H2 4817   5.961   7.741   4.327
 1626TIP3   OH2 4818   3.718   0.526   1.197
 1626TIP3    H1 4819   3.646   0.589   1.193
 1626TIP3    H2 4820   3.767   0.540   1.116
 1627TIP3   OH2 4821   0.218   0.951   4.236
 1627TIP3    H1 4822   0.256   0.938   4.323
 1627TIP3    H2 4823   0.132   0.910   4.241
 1628TIP3   OH2 4824   5.558   6.969   5.324
 1628TIP3    H1 4825   5.646   6.993   5.296
 1628TIP3    H2 4826   5.503   6.981   5.247
 1629TIP3   OH2 4827   3.316   7.077   5.201
 1629TIP3    H1 4828   3.235   7.122   5.177
 1629TIP3    H2 4829   3.384   7.144   5.190
 1630TIP3   OH2 4830   2.005   4.629   2.758
 1630TIP3    H1 4831   2.048   4.593   2.835
 1630TIP3    H2 4832   1.940   4.690   2.793
 1631TIP3   OH2 4833   6.488   0.211   6.809
 1631TIP3    H1 4834   6.490   0.119   6.784
 1631TIP3    H2 4835   6.394   0.232   6.813
 1632TIP3   OH2 4836   1.175   4.681   0.200
 1632TIP3    H1 4837   1.105   4.719   0.253
 1632TIP3    H2 4838   1.255   4.709   0.243
 1633TIP3   OH2 4839   0.621   3.321   0.440
 1633TIP3    H1 4840   0.559   3.253   0.414
 1633TIP3    H2 4841   0.680   3.276   0.501
 1634TIP3   OH2 4842   2.466   3.420   6.014
 1634TIP3    H1 4843   2.489   3.487   6.078
 1634TIP3    H2 4844   2.528   3.432   5.943
 1635TIP3   OH2 4845   4.032   4.182   3.644
 1635TIP3    H1 4846   4.078   4.102   3.673
 1635TIP3    H2 4847   4.066   4.198   3.556
 1636TIP3   OH2 4848   1.507   5.676   6.555
 1636TIP3    H1 4849   1.427   5.678   6.608
 1636TIP3    H2 4850   1.502   5.755   6.502
 1637TIP3   OH2 4851   7.352   0.056   5.093
 1637TIP3    H1 4852   7.285   0.026   5.032
 1637TIP3    H2 4853   7.433   0.015   5.061
 1638TIP3   OH2 4854   6.892   2.822   1.811
 1638TIP3    H1 4855   6.813   2.770   1.827
 1638TIP3    H2 4856   6.939   2.822   1.894
 1639TIP3   OH2 4857   4.106   0.011   3.330
 1639TIP3    H1 4858   4.036  -0.040   3.371
 1639TIP3    H2 4859   4.110   0.092   3.381
 1640TIP3   OH2 4860   4.090   5.246   2.510
 1640TIP3    H1 4861   4.039   5.168   2.486
 1640TIP3    H2 4862   4.047   5.318   2.464
 1641TIP3   OH2 4863   1.342   2.759   0.982
 1641TIP3    H1 4864   1.293   2.783   0.903
 1641TIP3    H2 4865   1.391   2.681   0.957
 1642TIP3   OH2 4866   1.596   1.231   1.039
 1642TIP3    H1 4867   1.597   1.136   1.032
 1642TIP3    H2 4868   1.650   1.250   1.116
 1643TIP3   OH2 4869   7.163   6.539   6.297
 1643TIP3    H1 4870   7.072   6.537   6.328
 1643TIP3    H2 4871   7.156   6.536   6.202
 1644TIP3   OH2 4872   4.798   3.870   5.126
 1644TIP3    H1 4873   4.763   3.784   5.104
 1644TIP3    H2 4874   4.779   3.881   5.219
 1645TIP3   OH2 4875   0.692   7.400   1.528
 1645TIP3    H1 4876   0.622   7.335   1.525
 1645TIP3    H2 4877   0.724   7.397   1.619
 1646TIP3   OH2 4878   3.438   2.307   3.899
 1646TIP3    H1 4879   3.407   2.268   3.817
 1646TIP3    H2 4880   3.491   2.382   3.872
 1647TIP3   OH2 4881   6.646   2.508   2.348
 1647TIP3    H1 4882   6.599   2.552   2.419
 1647TIP3    H2 4883   6.717   2.568   2.326
 1648TIP3   OH2 4884   7.800   4.508   1.352
 1648TIP3    H1 4885   7.803   4.546   1.264
 1648TIP3    H2 4886   7.742   4.567   1.401
 1649TIP3   OH2 4887   7.529   0.996   6.521
 1649TIP3    H1 4888   7.454   1.011   6.463
 1649TIP3    H2 4889   7.490   0.990   6.609
 1650TIP3   OH2 4890   3.050   4.691   5.394
 1650TIP3    H1 4891   2.963   4.658   5.374
 1650TIP3    H2 4892   3.041   4.732   5.481
 1651TIP3   OH2 4893   2.927   0.746   2.058
 1651TIP3    H1 4894   2.979   0.814   2.100
 1651TIP3    H2 4895   2.956   0.747   1.967
 1652TIP3   OH2 4896   0.178   5.576   0.528
 1652TIP3    H1 4897   0.119   5.553   0.456
 1652TIP3    H2 4898   0.142   5.531   0.604
 1653TIP3   OH2 4899   4.535   1.985   0.255
 1653TIP3    H1 4900   4.628   1.983   0.274
 1653TIP3    H2 4901   4.495   1.933   0.325
 1654TIP3   OH2 4902   6.042   0.002   5.599
 1654TIP3    H1 4903   6.061   0.071   5.535
 1654TIP3    H2 4904   5.954   0.022   5.630
 1655TIP3   OH2 4905   3.273   6.443   5.150
 1655TIP3    H1 4906   3.310   6.526   5.122
 1655TIP3    H2 4907   3.181   6.463   5.167
 1656TIP3   OH2 4908   1.733   3.107   4.068
 1656TIP3    H1 4909   1.778   3.192   4.065
 1656TIP3    H2 4910   1.733   3.076   3.978
 1657TIP3   OH2 4911   1.397   7.184   0.437
 1657TIP3    H1 4912   1.350   7.267   0.436
 1657TIP3    H2 4913   1.363   7.138   0.514
 1658TIP3   OH2 4914   8.148   0.891   0.907
 1658TIP3    H1 4915   8.060   0.869   0.877
 1658TIP3    H2 4916   8.158   0.984   0.888
 1659TIP3   OH2 4917   3.643   2.262   6.458
 1659TIP3    H1 4918   3.561   2.221   6.484
 1659TIP3    H2 4919   3.709   2.192   6.466
 1660TIP3   OH2 4920   7.779   2.679   3.383
 1660TIP3    H1 4921   7.810   2.634   3.462
 1660TIP3    H2 4922   7.695   2.716   3.409
 1661TIP3   OH2 4923   4.192   3.666   5.817
 1661TIP3    H1 4924   4.138   3.685   5.894
 1661TIP3    H2 4925   4.207   3.571   5.822
 1662TIP3   OH2 4926   5.948   6.559   2.291
 1662TIP3    H1 4927   5.918   6.590   2.206
 1662TIP3    H2 4928   5.926   6.465   2.292
 1663TIP3   OH2 4929   4.940   7.022   3.418
 1663TIP3    H1 4930   4.979   7.093   3.469
 1663TIP3    H2 4931   4.904   6.962   3.484
 1664TIP3   OH2 4932   4.297   2.323   6.294
 1664TIP3    H1 4933   4.272   2.401   6.245
 1664TIP3    H2 4934   4.320   2.356   6.381
 1665TIP3   OH2 4935   3.714   4.969   5.347
 1665TIP3    H1 4936   3.788   4.910   5.333
 1665TIP3    H2 4937   3.649   4.916   5.393
 1666TIP3   OH2 4938   7.304   0.832   3.235
 1666TIP3    H1 4939   7.283   0.841   3.328
 1666TIP3    H2 4940   7.326   0.921   3.206
 1667TIP3   OH2 4941   0.744   0.729   0.479
 1667TIP3    H1 4942   0.692   0.649   0.489
 1667TIP3    H2 4943   0.805   0.710   0.409
 1668TIP3   OH2 4944   5.462   6.983   5.052
 1668TIP3    H1 4945   5.368   6.996   5.042
 1668TIP3    H2 4946   5.500   7.068   5.029
 1669TIP3   OH2 4947   2.569   2.383   3.235
 1669TIP3    H1 4948   2.571   2.350   3.145
 1669TIP3    H2 4949   2.518   2.463   3.231
 1670TIP3   OH2 4950   5.247   2.571   2.520
 1670TIP3    H1 4951   5.267   2.485   2.557
 1670TIP3    H2 4952   5.327   2.597   2.473
 1671TIP3   OH2 4953   2.645   1.906   3.008
 1671TIP3    H1 4954   2.563   1.858   2.997
 1671TIP3    H2 4955   2.690   1.896   2.924
 1672TIP3   OH2 4956   7.777   5.515   0.254
 1672TIP3    H1 4957   7.856   5.501   0.201
 1672TIP3    H2 4958   7.705   5.503   0.193
 1673TIP3   OH2 4959   0.192   2.858   0.660
 1673TIP3    H1 4960   0.117   2.799   0.668
 1673TIP3    H2 4961   0.264   2.802   0.630
 1674TIP3   OH2 4962   0.245   2.869   5.377
 1674TIP3    H1 4963   0.212   2.951   5.342
 1674TIP3    H2 4964   0.168   2.821   5.405
 1675TIP3   OH2 4965   5.081   2.019   0.197
 1675TIP3    H1 4966   5.138   2.037   0.272
 1675TIP3    H2 4967   5.086   2.098   0.143
 1676TIP3   OH2 4968   5.269   1.209   5.170
 1676TIP3    H1 4969   5.177   1.230   5.181
 1676TIP3    H2 4970   5.270   1.131   5.115
 1677TIP3   OH2 4971   0.443   2.380   0.826
 1677TIP3    H1 4972   0.499   2.355   0.753
 1677TIP3    H2 4973   0.473   2.326   0.899
 1678TIP3   OH2 4974   7.343   7.501   3.274
 1678TIP3    H1 4975   7.366   7.426   3.219
 1678TIP3    H2 4976   7.332   7.464   3.361
 1679TIP3   OH2 4977   3.805   6.159   2.987
 1679TIP3    H1 4978   3.759   6.134   3.067
 1679TIP3    H2 4979   3.746   6.131   2.916
 1680TIP3   OH2 4980   5.686   3.329   3.848
 1680TIP3    H1 4981   5.610   3.348   3.904
 1680TIP3    H2 4982   5.719   3.415   3.823
 1681TIP3   OH2 4983   1.293   0.439   0.323
 1681TIP3    H1 4984   1.225   0.483   0.271
 1681TIP3    H2 4985   1.243   0.385   0.385
 1682TIP3   OH2 4986   3.198   1.425   5.831
 1682TIP3    H1 4987   3.133   1.492   5.853
 1682TIP3    H2 4988   3.247   1.411   5.912
 1683TIP3   OH2 4989   3.432   6.122   1.535
 1683TIP3    H1 4990   3.422   6.138   1.629
 1683TIP3    H2 4991   3.512   6.169   1.511
 1684TIP3   OH2 4992  -0.005   5.481   6.339
 1684TIP3    H1 4993   0.036   5.567   6.330
 1684TIP3    H2 4994   0.064   5.425   6.374
 1685TIP3   OH2 4995   6.807   2.048   2.924
 1685TIP3    H1 4996   6.880   1.994   2.954
 1685TIP3    H2 4997   6.822   2.058   2.829
 1686TIP3   OH2 4998   3.084   1.452   3.321
 1686TIP3    H1 4999   2.999   1.476   3.358
 1686TIP3    H2 5000   3.121   1.391   3.385
 1687TIP3   OH2 5001   0.857   2.902   6.370
 1687TIP3    H1 5002   0.920   2.913   6.299
 1687TIP3    H2 5003   0.890   2.828   6.420
 1688TIP3   OH2 5004   8.380   6.690   4.218
 1688TIP3    H1 5005   8.365   6.765   4.161
 1688TIP3    H2 5006   8.369   6.614   4.161
 1689TIP3   OH2 5007   5.083   5.466   3.124
 1689TIP3    H1 5008   5.093   5.394   3.187
 1689TIP3    H2 5009   5.001   5.445   3.078
 1690TIP3   OH2 5010   2.008   2.118   5.630
 1690TIP3    H1 5011   1.982   2.104   5.539
 1690TIP3    H2 5012   2.092   2.163   5.624
 1691TIP3   OH2 5013   4.643   2.842   1.211
 1691TIP3    H1 5014   4.592   2.773   1.254
 1691TIP3    H2 5015   4.711   2.865   1.274
 1692TIP3   OH2 5016   4.119   6.067   4.677
 1692TIP3    H1 5017   4.094   6.116   4.599
 1692TIP3    H2 5018   4.135   5.978   4.645
 1693TIP3   OH2 5019   1.871   4.899   4.709
 1693TIP3    H1 5020   1.829   4.978   4.675
 1693TIP3    H2 5021   1.805   4.831   4.700
 1694TIP3   OH2 5022   2.344   7.424   6.157
 1694TIP3    H1 5023   2.436   7.448   6.148
 1694TIP3    H2 5024   2.345   7.351   6.219
 1695TIP3   OH2 5025   1.047   4.109   6.640
 1695TIP3    H1 5026   1.031   4.192   6.596
 1695TIP3    H2 5027   1.016   4.042   6.579
 1696TIP3   OH2 5028   1.407   4.834   3.101
 1696TIP3    H1 5029   1.476   4.864   3.041
 1696TIP3    H2 5030   1.447   4.841   3.188
 1697TIP3   OH2 5031   8.130   5.010   4.280
 1697TIP3    H1 5032   8.121   4.917   4.262
 1697TIP3    H2 5033   8.205   5.038   4.228
 1698TIP3   OH2 5034   6.240   4.996   0.073
 1698TIP3    H1 5035   6.249   5.082   0.033
 1698TIP3    H2 5036   6.303   4.941   0.026
 1699TIP3   OH2 5037   1.119   6.365   6.619
 1699TIP3    H1 5038   1.026   6.387   6.610
 1699TIP3    H2 5039   1.135   6.299   6.551
 1700TIP3   OH2 5040   4.576   0.880   5.903
 1700TIP3    H1 5041   4.642   0.913   5.964
 1700TIP3    H2 5042   4.554   0.793   5.938
 1701TIP3   OH2 5043   5.420   5.538   0.635
 1701TIP3    H1 5044   5.375   5.552   0.552
 1701TIP3    H2 5045   5.469   5.619   0.651
 1702TIP3   OH2 5046   3.799   4.699   4.696
 1702TIP3    H1 5047   3.820   4.712   4.604
 1702TIP3    H2 5048   3.842   4.617   4.720
 1703TIP3   OH2 5049   7.657   1.107   2.408
 1703TIP3    H1 5050   7.744   1.076   2.380
 1703TIP3    H2 5051   7.642   1.061   2.491
 1704TIP3   OH2 5052   7.949   7.661   2.875
 1704TIP3    H1 5053   8.019   7.605   2.909
 1704TIP3    H2 5054   7.990   7.747   2.867
 1705TIP3   OH2 5055   6.606   2.806   1.191
 1705TIP3    H1 5056   6.690   2.776   1.156
 1705TIP3    H2 5057   6.604   2.771   1.280
 1706TIP3   OH2 5058   5.908   5.849   3.440
 1706TIP3    H1 5059   5.937   5.920   3.498
 1706TIP3    H2 5060   5.977   5.843   3.374
 1707TIP3   OH2 5061   1.740   4.849   0.507
 1707TIP3    H1 5062   1.804   4.810   0.567
 1707TIP3    H2 5063   1.688   4.908   0.563
 1708TIP3   OH2 5064   3.950   5.630   2.664
 1708TIP3    H1 5065   4.024   5.619   2.604
 1708TIP3    H2 5066   3.884   5.675   2.612
 1709TIP3   OH2 5067   7.941   1.478   3.441
 1709TIP3    H1 5068   7.851   1.505   3.427
 1709TIP3    H2 5069   7.980   1.550   3.490
 1710TIP3   OH2 5070   3.570   2.978   6.508
 1710TIP3    H1 5071   3.575   2.985   6.603
 1710TIP3    H2 5072   3.660   2.959   6.481
 1711TIP3   OH2 5073   7.933   7.599   3.465
 1711TIP3    H1 5074   7.865   7.615   3.400
 1711TIP3    H2 5075   7.933   7.504   3.477
 1712TIP3   OH2 5076   7.271   5.995   2.185
 1712TIP3    H1 5077   7.339   6.004   2.252
 1712TIP3    H2 5078   7.260   6.083   2.151
 1713TIP3   OH2 5079   5.428   2.649   5.235
 1713TIP3    H1 5080   5.473   2.573   5.199
 1713TIP3    H2 5081   5.386   2.617   5.315
 1714TIP3   OH2 5082   2.880   3.475   4.866
 1714TIP3    H1 5083   2.949   3.533   4.833
 1714TIP3    H2 5084   2.902   3.462   4.958
 1715TIP3   OH2 5085   3.255   0.602   1.133
 1715TIP3    H1 5086   3.260   0.541   1.059
 1715TIP3    H2 5087   3.167   0.640   1.128
 1716TIP3   OH2 5088   6.488   2.116   1.834
 1716TIP3    H1 5089   6.436   2.096   1.912
 1716TIP3    H2 5090   6.444   2.069   1.764
 1717TIP3   OH2 5091   6.857   6.712   5.727
 1717TIP3    H1 5092   6.765   6.734   5.710
 1717TIP3    H2 5093   6.856   6.617   5.742
 1718TIP3   OH2 5094   6.793   6.298   2.424
 1718TIP3    H1 5095   6.824   6.240   2.494
 1718TIP3    H2 5096   6.772   6.380   2.468
 1719TIP3   OH2 5097   7.350   3.694   3.271
 1719TIP3    H1 5098   7.432   3.730   3.236
 1719TIP3    H2 5099   7.353   3.601   3.247
 1720TIP3   OH2 5100   4.268   5.949   4.258
 1720TIP3    H1 5101   4.333   5.973   4.324
 1720TIP3    H2 5102   4.213   6.026   4.250
 1721TIP3   OH2 5103   3.592   5.430   2.167
 1721TIP3    H1 5104   3.680   5.425   2.131
 1721TIP3    H2 5105   3.595   5.377   2.247
 1722TIP3   OH2 5106   6.851   4.137   2.791
 1722TIP3    H1 5107   6.878   4.138   2.699
 1722TIP3    H2 5108   6.860   4.045   2.817
 1723TIP3   OH2 5109   6.216   7.590   4.377
 1723TIP3    H1 5110   6.147   7.622   4.434
 1723TIP3    H2 5111   6.199   7.632   4.293
 1724TIP3   OH2 5112   4.449   6.756   4.833
 1724TIP3    H1 5113   4.487   6.676   4.798
 1724TIP3    H2 5114   4.364   6.728   4.869
 1725TIP3   OH2 5115   5.222   5.107   3.921
 1725TIP3    H1 5116   5.285   5.110   3.849
 1725TIP3    H2 5117   5.211   5.198   3.948
 1726TIP3   OH2 5118   1.935   1.439   0.468
 1726TIP3    H1 5119   1.936   1.502   0.396
 1726TIP3    H2 5120   1.868   1.472   0.528
 1727TIP3   OH2 5121   4.927   4.762   3.368
 1727TIP3    H1 5122   4.893   4.770   3.279
 1727TIP3    H2 5123   4.864   4.810   3.422
 1728TIP3   OH2 5124   0.548   2.444   5.359
 1728TIP3    H1 5125   0.490   2.430   5.434
 1728TIP3    H2 5126   0.599   2.521   5.383
 1729TIP3   OH2 5127   2.614   4.486   0.103
 1729TIP3    H1 5128   2.591   4.574   0.073
 1729TIP3    H2 5129   2.533   4.450   0.138
 1730TIP3   OH2 5130   1.542   2.354   4.765
 1730TIP3    H1 5131   1.519   2.445   4.745
 1730TIP3    H2 5132   1.620   2.337   4.711
 1731TIP3   OH2 5133   3.138   0.338   0.309
 1731TIP3    H1 5134   3.068   0.336   0.243
 1731TIP3    H2 5135   3.191   0.413   0.283
 1732TIP3   OH2 5136   0.568   6.353   4.283
 1732TIP3    H1 5137   0.640   6.409   4.255
 1732TIP3    H2 5138   0.531   6.319   4.201
 1733TIP3   OH2 5139   3.874   7.600   4.264
 1733TIP3    H1 5140   3.936   7.670   4.285
 1733TIP3    H2 5141   3.833   7.628   4.182
 1734TIP3   OH2 5142   0.578   5.833   6.089
 1734TIP3    H1 5143   0.537   5.910   6.129
 1734TIP3    H2 5144   0.665   5.863   6.063
 1735TIP3   OH2 5145   2.031   6.273   3.808
 1735TIP3    H1 5146   2.015   6.187   3.846
 1735TIP3    H2 5147   2.080   6.255   3.728
 1736TIP3   OH2 5148   1.167   5.686   0.515
 1736TIP3    H1 5149   1.123   5.604   0.495
 1736TIP3    H2 5150   1.174   5.731   0.430
 1737TIP3   OH2 5151   4.424   6.869   5.841
 1737TIP3    H1 5152   4.467   6.860   5.926
 1737TIP3    H2 5153   4.436   6.961   5.818
 1738TIP3   OH2 5154   4.506   3.868   0.059
 1738TIP3    H1 5155   4.466   3.927   0.122
 1738TIP3    H2 5156   4.597   3.861   0.087
 1739TIP3   OH2 5157   1.118   1.710   3.838
 1739TIP3    H1 5158   1.212   1.697   3.854
 1739TIP3    H2 5159   1.091   1.631   3.791
 1740TIP3   OH2 5160   5.654   6.603   4.204
 1740TIP3    H1 5161   5.636   6.509   4.194
 1740TIP3    H2 5162   5.746   6.607   4.231
 1741TIP3   OH2 5163   3.873   0.617   5.884
 1741TIP3    H1 5164   3.880   0.702   5.928
 1741TIP3    H2 5165   3.817   0.633   5.808
 1742TIP3   OH2 5166   5.833   2.495   1.178
 1742TIP3    H1 5167   5.836   2.412   1.129
 1742TIP3    H2 5168   5.814   2.469   1.268
 1743TIP3   OH2 5169   4.619   1.362   0.705
 1743TIP3    H1 5170   4.524   1.351   0.707
 1743TIP3    H2 5171   4.636   1.432   0.768
 1744TIP3   OH2 5172   5.070   1.982   6.575
 1744TIP3    H1 5173   4.996   2.018   6.527
 1744TIP3    H2 5174   5.095   1.904   6.525
 1745TIP3   OH2 5175   5.987   5.890   4.121
 1745TIP3    H1 5176   6.010   5.978   4.151
 1745TIP3    H2 5177   5.892   5.885   4.132
 1746TIP3   OH2 5178   2.747   3.636   0.463
 1746TIP3    H1 5179   2.653   3.647   0.447
 1746TIP3    H2 5180   2.769   3.552   0.423
 1747TIP3   OH2 5181   1.860   5.601   2.994
 1747TIP3    H1 5182   1.935   5.556   2.956
 1747TIP3    H2 5183   1.790   5.588   2.930
 1748TIP3   OH2 5184   1.042   6.291   2.004
 1748TIP3    H1 5185   1.052   6.209   2.053
 1748TIP3    H2 5186   1.102   6.352   2.046
 1749TIP3   OH2 5187   5.519   1.555   1.329
 1749TIP3    H1 5188   5.577   1.628   1.353
 1749TIP3    H2 5189   5.453   1.552   1.398
 1750TIP3   OH2 5190   5.587   5.110   3.819
 1750TIP3    H1 5191   5.612   5.163   3.743
 1750TIP3    H2 5192   5.516   5.055   3.787
 1751TIP3   OH2 5193   6.886   5.304   3.875
 1751TIP3    H1 5194   6.891   5.333   3.966
 1751TIP3    H2 5195   6.887   5.208   3.881
 1752TIP3   OH2 5196   6.132   4.998   3.718
 1752TIP3    H1 5197   6.047   4.990   3.762
 1752TIP3    H2 5198   6.127   4.936   3.645
 1753TIP3   OH2 5199   3.357   4.212   3.993
 1753TIP3    H1 5200   3.266   4.181   3.990
 1753TIP3    H2 5201   3.387   4.209   3.902
 1754TIP3   OH2 5202   2.571   4.536   4.379
 1754TIP3    H1 5203   2.518   4.466   4.416
 1754TIP3    H2 5204   2.510   4.590   4.329
 1755TIP3   OH2 5205   4.571   5.245   4.661
 1755TIP3    H1 5206   4.626   5.183   4.613
 1755TIP3    H2 5207   4.600   5.331   4.631
 1756TIP3   OH2 5208   3.908   3.593   6.676
 1756TIP3    H1 5209   3.989   3.626   6.714
 1756TIP3    H2 5210   3.935   3.558   6.591
 1757TIP3   OH2 5211   0.306   0.175   2.171
 1757TIP3    H1 5212   0.242   0.193   2.103
 1757TIP3    H2 5213   0.261   0.197   2.253
 1758TIP3   OH2 5214   4.452   5.990   3.907
 1758TIP3    H1 5215   4.476   6.015   3.996
 1758TIP3    H2 5216   4.534   5.994   3.857
 1759TIP3   OH2 5217   2.062   6.994   5.271
 1759TIP3    H1 5218   2.073   7.068   5.211
 1759TIP3    H2 5219   2.109   6.922   5.229
 1760TIP3   OH2 5220   2.572   1.983   3.560
 1760TIP3    H1 5221   2.668   1.973   3.562
 1760TIP3    H2 5222   2.553   2.011   3.471
 1761TIP3   OH2 5223   1.611   1.599   4.847
 1761TIP3    H1 5224   1.546   1.529   4.856
 1761TIP3    H2 5225   1.668   1.588   4.923
 1762TIP3   OH2 5226   8.303   5.684   5.529
 1762TIP3    H1 5227   8.271   5.699   5.618
 1762TIP3    H2 5228   8.304   5.771   5.489
 1763TIP3   OH2 5229   8.263   0.686   0.303
 1763TIP3    H1 5230   8.297   0.749   0.366
 1763TIP3    H2 5231   8.309   0.604   0.322
 1764TIP3   OH2 5232   7.992   4.143   4.063
 1764TIP3    H1 5233   8.071   4.195   4.078
 1764TIP3    H2 5234   8.023   4.063   4.020
 1765TIP3   OH2 5235   8.055   6.777   3.446
 1765TIP3    H1 5236   8.065   6.704   3.506
 1765TIP3    H2 5237   8.013   6.846   3.498
 1766TIP3   OH2 5238   6.839   1.556   6.852
 1766TIP3    H1 5239   6.879   1.469   6.842
 1766TIP3    H2 5240   6.745   1.540   6.843
 1767TIP3   OH2 5241   4.062   6.854   0.529
 1767TIP3    H1 5242   4.125   6.822   0.464
 1767TIP3    H2 5243   4.115   6.896   0.596
 1768TIP3   OH2 5244   5.558   4.957   5.344
 1768TIP3    H1 5245   5.654   4.952   5.351
 1768TIP3    H2 5246   5.540   5.049   5.327
 1769TIP3   OH2 5247   4.997   7.370   6.567
 1769TIP3    H1 5248   5.061   7.441   6.561
 1769TIP3    H2 5249   4.926   7.406   6.619
 1770TIP3   OH2 5250   6.598   0.273   5.874
 1770TIP3    H1 5251   6.503   0.280   5.874
 1770TIP3    H2 5252   6.620   0.242   5.786
 1771TIP3   OH2 5253   1.849   6.078   1.655
 1771TIP3    H1 5254   1.890   6.010   1.602
 1771TIP3    H2 5255   1.770   6.102   1.606
 1772TIP3   OH2 5256   3.425   2.468   5.084
 1772TIP3    H1 5257   3.396   2.555   5.113
 1772TIP3    H2 5258   3.519   2.468   5.098
 1773TIP3   OH2 5259   4.719   0.721   0.977
 1773TIP3    H1 5260   4.629   0.739   1.006
 1773TIP3    H2 5261   4.771   0.725   1.058
 1774TIP3   OH2 5262   5.407   3.134   3.390
 1774TIP3    H1 5263   5.374   3.220   3.416
 1774TIP3    H2 5264   5.329   3.078   3.388
 1775TIP3   OH2 5265   8.361   6.676   1.922
 1775TIP3    H1 5266   8.448   6.646   1.950
 1775TIP3    H2 5267   8.311   6.684   2.004
 1776TIP3   OH2 5268   3.511   0.845   3.101
 1776TIP3    H1 5269   3.587   0.787   3.109
 1776TIP3    H2 5270   3.521   0.908   3.172
 1777TIP3   OH2 5271   4.382   3.407   5.424
 1777TIP3    H1 5272   4.299   3.438   5.388
 1777TIP3    H2 5273   4.448   3.463   5.385
 1778TIP3   OH2 5274   0.993   4.770   6.373
 1778TIP3    H1 5275   1.054   4.819   6.428
 1778TIP3    H2 5276   0.951   4.838   6.318
 1779TIP3   OH2 5277   2.540   7.389   1.070
 1779TIP3    H1 5278   2.502   7.398   1.158
 1779TIP3    H2 5279   2.475   7.429   1.012
 1780TIP3   OH2 5280   5.923   3.936   1.076
 1780TIP3    H1 5281   5.934   3.976   0.990
 1780TIP3    H2 5282   5.975   3.992   1.134
 1781TIP3   OH2 5283   5.134   0.988   4.751
 1781TIP3    H1 5284   5.063   0.928   4.770
 1781TIP3    H2 5285   5.104   1.038   4.675
 1782TIP3   OH2 5286   4.177   0.606   1.973
 1782TIP3    H1 5287   4.137   0.557   1.901
 1782TIP3    H2 5288   4.197   0.692   1.936
 1783TIP3   OH2 5289   7.831   6.845   1.593
 1783TIP3    H1 5290   7.744   6.884   1.603
 1783TIP3    H2 5291   7.891   6.912   1.624
 1784TIP3   OH2 5292   0.964   5.165   2.558
 1784TIP3    H1 5293   1.018   5.134   2.486
 1784TIP3    H2 5294   0.916   5.087   2.586
 1785TIP3   OH2 5295   8.123   2.163   3.767
 1785TIP3    H1 5296   8.148   2.192   3.680
 1785TIP3    H2 5297   8.064   2.089   3.752
 1786TIP3   OH2 5298   0.859   6.934   3.557
 1786TIP3    H1 5299   0.927   6.939   3.490
 1786TIP3    H2 5300   0.842   7.025   3.582
 1787TIP3   OH2 5301   4.281   7.805   2.566
 1787TIP3    H1 5302   4.373   7.830   2.573
 1787TIP3    H2 5303   4.253   7.793   2.657
 1788TIP3   OH2 5304   1.863   2.031   0.895
 1788TIP3    H1 5305   1.915   2.110   0.913
 1788TIP3    H2 5306   1.926   1.959   0.897
 1789TIP3   OH2 5307   4.072   5.578   0.191
 1789TIP3    H1 5308   4.085   5.518   0.118
 1789TIP3    H2 5309   4.051   5.662   0.150
 1790TIP3   OH2 5310   0.950   5.294   3.721
 1790TIP3    H1 5311   1.017   5.361   3.735
 1790TIP3    H2 5312   0.932   5.259   3.809
 1791TIP3   OH2 5313   0.511   1.352   0.289
 1791TIP3    H1 5314   0.520   1.281   0.226
 1791TIP3    H2 5315   0.600   1.370   0.319
 1792TIP3   OH2 5316   2.736   0.116   2.608
 1792TIP3    H1 5317   2.796   0.042   2.617
 1792TIP3    H2 5318   2.717   0.142   2.698
 1793TIP3   OH2 5319   5.514   5.561   4.743
 1793TIP3    H1 5320   5.557   5.574   4.827
 1793TIP3    H2 5321   5.430   5.606   4.752
 1794TIP3   OH2 5322   1.808   4.383   1.613
 1794TIP3    H1 5323   1.839   4.337   1.534
 1794TIP3    H2 5324   1.780   4.468   1.581
 1795TIP3   OH2 5325   1.551   4.789   0.897
 1795TIP3    H1 5326   1.511   4.862   0.945
 1795TIP3    H2 5327   1.640   4.783   0.932
 1796TIP3   OH2 5328   1.621   1.550   0.340
 1796TIP3    H1 5329   1.659   1.554   0.428
 1796TIP3    H2 5330   1.588   1.460   0.333
 1797TIP3   OH2 5331   6.415   6.366   6.588
 1797TIP3    H1 5332   6.373   6.401   6.510
 1797TIP3    H2 5333   6.506   6.351   6.562
 1798TIP3   OH2 5334   3.408   2.918   1.821
 1798TIP3    H1 5335   3.497   2.943   1.843
 1798TIP3    H2 5336   3.367   3.000   1.792
 1799TIP3   OH2 5337   3.771   1.720   0.585
 1799TIP3    H1 5338   3.856   1.759   0.566
 1799TIP3    H2 5339   3.731   1.704   0.500
 1800TIP3   OH2 5340   6.002   6.177   4.388
 1800TIP3    H1 5341   5.985   6.204   4.298
 1800TIP3    H2 5342   6.009   6.259   4.437
 1801TIP3   OH2 5343   6.204   7.568   6.751
 1801TIP3    H1 5344   6.200   7.631   6.679
 1801TIP3    H2 5345   6.116   7.570   6.789
 1802TIP3   OH2 5346   7.741   7.874   6.164
 1802TIP3    H1 5347   7.758   7.787   6.129
 1802TIP3    H2 5348   7.648   7.889   6.149
 1803TIP3   OH2 5349   1.227   7.427   2.267
 1803TIP3    H1 5350   1.199   7.444   2.177
 1803TIP3    H2 5351   1.259   7.337   2.264
 1804TIP3   OH2 5352   0.947   4.702   0.029
 1804TIP3    H1 5353   0.981   4.740   0.110
 1804TIP3    H2 5354   0.889   4.632   0.057
 1805TIP3   OH2 5355   4.998   5.493   5.185
 1805TIP3    H1 5356   4.918   5.482   5.236
 1805TIP3    H2 5357   5.012   5.587   5.182
 1806TIP3   OH2 5358   2.020   5.644   5.321
 1806TIP3    H1 5359   2.004   5.701   5.396
 1806TIP3    H2 5360   2.021   5.556   5.359
 1807TIP3   OH2 5361   7.999   1.437   2.039
 1807TIP3    H1 5362   7.957   1.356   2.068
 1807TIP3    H2 5363   8.058   1.410   1.969
 1808TIP3   OH2 5364   2.583   3.695   5.512
 1808TIP3    H1 5365   2.655   3.749   5.545
 1808TIP3    H2 5366   2.625   3.613   5.486
 1809TIP3   OH2 5367   5.579   4.723   3.679
 1809TIP3    H1 5368   5.525   4.662   3.729
 1809TIP3    H2 5369   5.647   4.751   3.740
 1810TIP3   OH2 5370   1.169   2.897   1.403
 1810TIP3    H1 5371   1.099   2.941   1.451
 1810TIP3    H2 5372   1.198   2.962   1.339
 1811TIP3   OH2 5373   7.047   4.863   1.733
 1811TIP3    H1 5374   6.996   4.927   1.783
 1811TIP3    H2 5375   7.042   4.783   1.786
 1812TIP3   OH2 5376   2.558   5.678   6.542
 1812TIP3    H1 5377   2.633   5.627   6.509
 1812TIP3    H2 5378   2.485   5.653   6.485
 1813TIP3   OH2 5379   1.050   0.911   1.173
 1813TIP3    H1 5380   1.079   0.831   1.216
 1813TIP3    H2 5381   1.100   0.915   1.091
 1814TIP3   OH2 5382   5.615   2.165   1.658
 1814TIP3    H1 5383   5.575   2.087   1.696
 1814TIP3    H2 5384   5.542   2.214   1.622
 1815TIP3   OH2 5385   5.781   2.190   5.699
 1815TIP3    H1 5386   5.851   2.243   5.737
 1815TIP3    H2 5387   5.726   2.252   5.651
 1816TIP3   OH2 5388   1.218   3.834   0.894
 1816TIP3    H1 5389   1.228   3.881   0.977
 1816TIP3    H2 5390   1.167   3.893   0.839
 1817TIP3   OH2 5391   5.811   1.533   1.232
 1817TIP3    H1 5392   5.717   1.516   1.236
 1817TIP3    H2 5393   5.819   1.626   1.215
 1818TIP3   OH2 5394   7.085   3.027   6.087
 1818TIP3    H1 5395   7.011   3.073   6.128
 1818TIP3    H2 5396   7.117   3.087   6.020
 1819TIP3   OH2 5397   4.703   7.318   1.936
 1819TIP3    H1 5398   4.679   7.403   1.898
 1819TIP3    H2 5399   4.774   7.286   1.880
 1820TIP3   OH2 5400   0.099   6.861   2.811
 1820TIP3    H1 5401   0.104   6.938   2.868
 1820TIP3    H2 5402   0.007   6.834   2.814
 1821TIP3   OH2 5403   3.180   6.837   3.494
 1821TIP3    H1 5404   3.126   6.901   3.449
 1821TIP3    H2 5405   3.139   6.826   3.580
 1822TIP3   OH2 5406   6.605   6.516   0.497
 1822TIP3    H1 5407   6.665   6.556   0.435
 1822TIP3    H2 5408   6.520   6.557   0.478
 1823TIP3   OH2 5409   7.261   6.070   1.403
 1823TIP3    H1 5410   7.268   6.165   1.409
 1823TIP3    H2 5411   7.352   6.039   1.409
 1824TIP3   OH2 5412   0.817   3.511   0.322
 1824TIP3    H1 5413   0.795   3.479   0.235
 1824TIP3    H2 5414   0.770   3.453   0.382
 1825TIP3   OH2 5415   0.569   0.209   5.018
 1825TIP3    H1 5416   0.495   0.229   4.961
 1825TIP3    H2 5417   0.591   0.118   4.999
 1826TIP3   OH2 5418   2.260   0.800   4.446
 1826TIP3    H1 5419   2.287   0.730   4.386
 1826TIP3    H2 5420   2.331   0.804   4.510
 1827TIP3   OH2 5421   8.353   3.420   5.488
 1827TIP3    H1 5422   8.410   3.386   5.557
 1827TIP3    H2 5423   8.412   3.436   5.414
 1828TIP3   OH2 5424   3.951   0.748   1.420
 1828TIP3    H1 5425   3.900   0.714   1.494
 1828TIP3    H2 5426   3.887   0.763   1.351
 1829TIP3   OH2 5427   0.995   6.686   5.177
 1829TIP3    H1 5428   1.076   6.647   5.210
 1829TIP3    H2 5429   0.968   6.629   5.106
 1830TIP3   OH2 5430   7.212   3.138   6.354
 1830TIP3    H1 5431   7.152   3.066   6.336
 1830TIP3    H2 5432   7.158   3.216   6.347
 1831TIP3   OH2 5433   3.120   6.231   0.449
 1831TIP3    H1 5434   3.112   6.271   0.362
 1831TIP3    H2 5435   3.209   6.195   0.450
 1832TIP3   OH2 5436   7.135   7.180   3.979
 1832TIP3    H1 5437   7.141   7.173   4.074
 1832TIP3    H2 5438   7.060   7.126   3.955
 1833TIP3   OH2 5439   0.662   2.831   2.239
 1833TIP3    H1 5440   0.577   2.831   2.284
 1833TIP3    H2 5441   0.647   2.783   2.158
 1834TIP3   OH2 5442   3.898   3.464   4.386
 1834TIP3    H1 5443   3.959   3.392   4.371
 1834TIP3    H2 5444   3.874   3.457   4.479
 1835TIP3   OH2 5445   1.835   1.162   4.113
 1835TIP3    H1 5446   1.814   1.073   4.142
 1835TIP3    H2 5447   1.931   1.167   4.120
 1836TIP3   OH2 5448   1.786   6.554   1.076
 1836TIP3    H1 5449   1.714   6.598   1.029
 1836TIP3    H2 5450   1.813   6.616   1.143
 1837TIP3   OH2 5451   5.128   4.709   2.891
 1837TIP3    H1 5452   5.202   4.729   2.948
 1837TIP3    H2 5453   5.143   4.619   2.862
 1838TIP3   OH2 5454   3.975   4.064   3.331
 1838TIP3    H1 5455   3.937   4.024   3.410
 1838TIP3    H2 5456   4.067   4.038   3.333
 1839TIP3   OH2 5457   4.188   3.763   5.013
 1839TIP3    H1 5458   4.254   3.814   5.060
 1839TIP3    H2 5459   4.130   3.829   4.976
 1840TIP3   OH2 5460   0.666   5.556   1.805
 1840TIP3    H1 5461   0.736   5.532   1.866
 1840TIP3    H2 5462   0.585   5.541   1.854
 1841TIP3   OH2 5463   0.502   4.445   5.073
 1841TIP3    H1 5464   0.448   4.498   5.015
 1841TIP3    H2 5465   0.549   4.510   5.127
 1842TIP3   OH2 5466   3.498   1.298   2.169
 1842TIP3    H1 5467   3.423   1.251   2.133
 1842TIP3    H2 5468   3.572   1.240   2.152
 1843TIP3   OH2 5469   1.772   7.600   4.403
 1843TIP3    H1 5470   1.793   7.601   4.310
 1843TIP3    H2 5471   1.788   7.690   4.433
 1844TIP3   OH2 5472   8.389   5.083   6.750
 1844TIP3    H1 5473   8.304   5.120   6.724
 1844TIP3    H2 5474   8.387   4.993   6.717
 1845TIP3   OH2 5475   1.980   5.012   1.553
 1845TIP3    H1 5476   1.988   5.099   1.515
 1845TIP3    H2 5477   1.896   4.979   1.521
 1846TIP3   OH2 5478   7.179   2.721   1.223
 1846TIP3    H1 5479   7.199   2.765   1.305
 1846TIP3    H2 5480   7.198   2.786   1.155
 1847TIP3   OH2 5481   2.284   5.155   6.507
 1847TIP3    H1 5482   2.343   5.226   6.531
 1847TIP3    H2 5483   2.224   5.194   6.443
 1848TIP3   OH2 5484   3.704   2.480   3.320
 1848TIP3    H1 5485   3.721   2.437   3.403
 1848TIP3    H2 5486   3.684   2.570   3.343
 1849TIP3   OH2 5487   0.234   2.998   3.131
 1849TIP3    H1 5488   0.209   3.064   3.067
 1849TIP3    H2 5489   0.225   2.915   3.085
 1850TIP3   OH2 5490   7.748   1.562   1.682
 1850TIP3    H1 5491   7.708   1.643   1.651
 1850TIP3    H2 5492   7.737   1.566   1.777
 1851TIP3   OH2 5493   2.481   4.845   4.851
 1851TIP3    H1 5494   2.462   4.916   4.790
 1851TIP3    H2 5495   2.512   4.773   4.797
 1852TIP3   OH2 5496   7.630   6.275   1.582
 1852TIP3    H1 5497   7.597   6.233   1.661
 1852TIP3    H2 5498   7.725   6.269   1.589
 1853TIP3   OH2 5499   4.948   2.917   3.561
 1853TIP3    H1 5500   4.878   2.868   3.604
 1853TIP3    H2 5501   4.903   2.981   3.506
 1854TIP3   OH2 5502   2.766   6.296   6.611
 1854TIP3    H1 5503   2.855   6.321   6.586
 1854TIP3    H2 5504   2.770   6.283   6.705
 1855TIP3   OH2 5505   4.589   2.169   6.555
 1855TIP3    H1 5506   4.580   2.217   6.472
 1855TIP3    H2 5507   4.608   2.079   6.528
 1856TIP3   OH2 5508   7.221   6.827   6.139
 1856TIP3    H1 5509   7.184   6.896   6.194
 1856TIP3    H2 5510   7.145   6.774   6.114
 1857TIP3   OH2 5511   4.953   5.796   3.673
 1857TIP3    H1 5512   4.932   5.774   3.582
 1857TIP3    H2 5513   4.872   5.781   3.721
 1858TIP3   OH2 5514   8.072   6.247   1.692
 1858TIP3    H1 5515   8.131   6.323   1.691
 1858TIP3    H2 5516   7.995   6.278   1.739
 1859TIP3   OH2 5517   6.640   4.174   4.403
 1859TIP3    H1 5518   6.721   4.134   4.436
 1859TIP3    H2 5519   6.656   4.268   4.411
 1860TIP3   OH2 5520   8.078   2.432   0.693
 1860TIP3    H1 5521   8.069   2.364   0.759
 1860TIP3    H2 5522   8.133   2.499   0.735
 1861TIP3   OH2 5523   1.690   0.745   1.667
 1861TIP3    H1 5524   1.741   0.700   1.600
 1861TIP3    H2 5525   1.608   0.696   1.672
 1862TIP3   OH2 5526   2.855   4.222   4.932
 1862TIP3    H1 5527   2.802   4.283   4.881
 1862TIP3    H2 5528   2.938   4.267   4.945
 1863TIP3   OH2 5529   4.338   7.725   6.097
 1863TIP3    H1 5530   4.307   7.708   6.008
 1863TIP3    H2 5531   4.329   7.819   6.109
 1864TIP3   OH2 5532   5.840   0.047   0.119
 1864TIP3    H1 5533   5.757   0.029   0.163
 1864TIP3    H2 5534   5.824   0.022   0.028
 1865TIP3   OH2 5535   2.565   4.034   3.031
 1865TIP3    H1 5536   2.607   3.984   2.960
 1865TIP3    H2 5537   2.626   4.105   3.050
 1866TIP3   OH2 5538   0.445   2.847   6.421
 1866TIP3    H1 5539   0.447   2.753   6.406
 1866TIP3    H2 5540   0.366   2.861   6.473
 1867TIP3   OH2 5541   2.600   6.469   3.880
 1867TIP3    H1 5542   2.688   6.481   3.917
 1867TIP3    H2 5543   2.542   6.469   3.956
 1868TIP3   OH2 5544   4.257   5.745   5.978
 1868TIP3    H1 5545   4.334   5.793   6.006
 1868TIP3    H2 5546   4.183   5.803   5.998
 1869TIP3   OH2 5547   3.491   6.842   6.469
 1869TIP3    H1 5548   3.418   6.839   6.532
 1869TIP3    H2 5549   3.501   6.934   6.448
 1870TIP3   OH2 5550   4.722   3.729   1.011
 1870TIP3    H1 5551   4.753   3.645   0.979
 1870TIP3    H2 5552   4.795   3.789   0.996
 1871TIP3   OH2 5553   4.944   4.622   5.924
 1871TIP3    H1 5554   4.962   4.693   5.863
 1871TIP3    H2 5555   4.876   4.656   5.982
 1872TIP3   OH2 5556   1.149   2.750   2.892
 1872TIP3    H1 5557   1.231   2.780   2.851
 1872TIP3    H2 5558   1.089   2.824   2.881
 1873TIP3   OH2 5559   2.271   3.147   1.629
 1873TIP3    H1 5560   2.178   3.126   1.624
 1873TIP3    H2 5561   2.275   3.225   1.684
 1874TIP3   OH2 5562   3.853   2.016   3.610
 1874TIP3    H1 5563   3.770   2.031   3.565
 1874TIP3    H2 5564   3.829   1.979   3.695
 1875TIP3   OH2 5565   3.872   5.091   3.560
 1875TIP3    H1 5566   3.813   5.075   3.486
 1875TIP3    H2 5567   3.817   5.134   3.626
 1876TIP3   OH2 5568   4.097   4.075   1.491
 1876TIP3    H1 5569   4.145   4.144   1.443
 1876TIP3    H2 5570   4.152   4.057   1.567
 1877TIP3   OH2 5571   6.306   4.371   3.939
 1877TIP3    H1 5572   6.306   4.466   3.943
 1877TIP3    H2 5573   6.238   4.343   3.999
 1878TIP3   OH2 5574   0.281   2.826   6.043
 1878TIP3    H1 5575   0.240   2.894   5.990
 1878TIP3    H2 5576   0.207   2.784   6.089
 1879TIP3   OH2 5577   0.744   3.455   1.670
 1879TIP3    H1 5578   0.695   3.380   1.634
 1879TIP3    H2 5579   0.814   3.415   1.722
 1880TIP3   OH2 5580   1.415   0.513   1.379
 1880TIP3    H1 5581   1.413   0.570   1.456
 1880TIP3    H2 5582   1.509   0.498   1.364
 1881TIP3   OH2 5583   3.221   4.783   5.942
 1881TIP3    H1 5584   3.315   4.801   5.951
 1881TIP3    H2 5585   3.178   4.862   5.976
 1882TIP3   OH2 5586   3.026   3.690   1.311
 1882TIP3    H1 5587   3.004   3.600   1.334
 1882TIP3    H2 5588   2.984   3.743   1.379
 1883TIP3   OH2 5589   4.901   3.184   2.428
 1883TIP3    H1 5590   4.908   3.137   2.345
 1883TIP3    H2 5591   4.984   3.165   2.472
 1884TIP3   OH2 5592   5.622   0.030   1.017
 1884TIP3    H1 5593   5.664  -0.009   0.941
 1884TIP3    H2 5594   5.568   0.101   0.981
 1885TIP3   OH2 5595   6.738   0.924   3.604
 1885TIP3    H1 5596   6.788   0.947   3.682
 1885TIP3    H2 5597   6.736   0.828   3.605
 1886TIP3   OH2 5598   0.716   4.833   4.352
 1886TIP3    H1 5599   0.736   4.926   4.338
 1886TIP3    H2 5600   0.660   4.809   4.278
 1887TIP3   OH2 5601   4.375   6.624   5.067
 1887TIP3    H1 5602   4.341   6.702   5.110
 1887TIP3    H2 5603   4.311   6.606   4.998
 1888TIP3   OH2 5604   2.206   3.095   4.976
 1888TIP3    H1 5605   2.134   3.145   5.015
 1888TIP3    H2 5606   2.172   3.068   4.891
 1889TIP3   OH2 5607   0.332   3.229   5.903
 1889TIP3    H1 5608   0.278   3.243   5.980
 1889TIP3    H2 5609   0.393   3.303   5.902
 1890TIP3   OH2 5610   7.780   7.610   5.445
 1890TIP3    H1 5611   7.713   7.652   5.392
 1890TIP3    H2 5612   7.833   7.682   5.478
 1891TIP3   OH2 5613   5.462   3.978   1.110
 1891TIP3    H1 5614   5.394   4.029   1.066
 1891TIP3    H2 5615   5.544   4.019   1.082
 1892TIP3   OH2 5616   4.386   2.716   0.416
 1892TIP3    H1 5617   4.387   2.660   0.339
 1892TIP3    H2 5618   4.375   2.656   0.490
 1893TIP3   OH2 5619   0.295   7.170   6.294
 1893TIP3    H1 5620   0.265   7.229   6.363
 1893TIP3    H2 5621   0.347   7.226   6.236
 1894TIP3   OH2 5622   0.267   0.976   3.309
 1894TIP3    H1 5623   0.324   1.022   3.371
 1894TIP3    H2 5624   0.292   0.884   3.317
 1895TIP3   OH2 5625   3.928   1.889   4.977
 1895TIP3    H1 5626   3.997   1.952   4.997
 1895TIP3    H2 5627   3.920   1.837   5.057
 1896TIP3   OH2 5628   8.377   2.250   3.014
 1896TIP3    H1 5629   8.470   2.227   3.015
 1896TIP3    H2 5630   8.336   2.179   2.964
 1897TIP3   OH2 5631   2.836   6.263   2.219
 1897TIP3    H1 5632   2.757   6.312   2.196
 1897TIP3    H2 5633   2.887   6.259   2.138
 1898TIP3   OH2 5634   1.222   2.512   4.508
 1898TIP3    H1 5635   1.173   2.506   4.426
 1898TIP3    H2 5636   1.195   2.435   4.558
 1899TIP3   OH2 5637   4.977   1.622   4.361
 1899TIP3    H1 5638   4.996   1.677   4.437
 1899TIP3    H2 5639   4.999   1.677   4.285
 1900TIP3   OH2 5640   7.726   2.527   0.964
 1900TIP3    H1 5641   7.788   2.465   0.927
 1900TIP3    H2 5642   7.765   2.555   1.046
 1901TIP3   OH2 5643   4.495   2.597   1.226
 1901TIP3    H1 5644   4.521   2.535   1.158
 1901TIP3    H2 5645   4.437   2.547   1.283
 1902TIP3   OH2 5646   1.976   6.132   5.510
 1902TIP3    H1 5647   2.019   6.183   5.441
 1902TIP3    H2 5648   1.952   6.050   5.467
 1903TIP3   OH2 5649   7.705   1.261   3.626
 1903TIP3    H1 5650   7.679   1.320   3.697
 1903TIP3    H2 5651   7.798   1.245   3.641
 1904TIP3   OH2 5652   5.573   4.770   2.455
 1904TIP3    H1 5653   5.593   4.844   2.513
 1904TIP3    H2 5654   5.537   4.812   2.376
 1905TIP3   OH2 5655   5.975   7.343   6.123
 1905TIP3    H1 5656   5.943   7.431   6.103
 1905TIP3    H2 5657   6.027   7.354   6.203
 1906TIP3   OH2 5658   7.036   0.906   2.673
 1906TIP3    H1 5659   7.046   1.001   2.680
 1906TIP3    H2 5660   7.040   0.875   2.763
 1907TIP3   OH2 5661   5.907   4.540   1.239
 1907TIP3    H1 5662   5.883   4.453   1.270
 1907TIP3    H2 5663   5.967   4.524   1.166
 1908TIP3   OH2 5664   8.057   1.958   3.377
 1908TIP3    H1 5665   7.968   1.930   3.399
 1908TIP3    H2 5666   8.113   1.891   3.415
 1909TIP3   OH2 5667   3.676   1.992   2.075
 1909TIP3    H1 5668   3.707   2.062   2.133
 1909TIP3    H2 5669   3.691   1.912   2.125
 1910TIP3   OH2 5670   5.795   6.681   4.831
 1910TIP3    H1 5671   5.730   6.725   4.886
 1910TIP3    H2 5672   5.854   6.638   4.893
 1911TIP3   OH2 5673   5.401   0.610   6.586
 1911TIP3    H1 5674   5.381   0.519   6.566
 1911TIP3    H2 5675   5.324   0.642   6.634
 1912TIP3   OH2 5676   7.942   7.392   5.438
 1912TIP3    H1 5677   7.891   7.472   5.430
 1912TIP3    H2 5678   7.954   7.362   5.348
 1913TIP3   OH2 5679   5.028   5.302   6.110
 1913TIP3    H1 5680   5.022   5.251   6.191
 1913TIP3    H2 5681   5.054   5.238   6.043
 1914TIP3   OH2 5682   6.390   3.257   4.329
 1914TIP3    H1 5683   6.403   3.198   4.403
 1914TIP3    H2 5684   6.399   3.344   4.366
 1915TIP3   OH2 5685   3.003   3.583   6.326
 1915TIP3    H1 5686   3.007   3.643   6.400
 1915TIP3    H2 5687   3.092   3.549   6.316
 1916TIP3   OH2 5688   6.278   1.545   6.498
 1916TIP3    H1 5689   6.216   1.479   6.527
 1916TIP3    H2 5690   6.253   1.624   6.546
 1917TIP3   OH2 5691   3.337   2.070   3.332
 1917TIP3    H1 5692   3.375   2.091   3.246
 1917TIP3    H2 5693   3.243   2.076   3.318
 1918TIP3   OH2 5694   7.394   6.202   0.710
 1918TIP3    H1 5695   7.333   6.152   0.764
 1918TIP3    H2 5696   7.338   6.256   0.654
 1919TIP3   OH2 5697   8.300   5.280   2.374
 1919TIP3    H1 5698   8.343   5.348   2.425
 1919TIP3    H2 5699   8.261   5.326   2.300
 1920TIP3   OH2 5700   0.772   5.338   2.586
 1920TIP3    H1 5701   0.807   5.415   2.630
 1920TIP3    H2 5702   0.849   5.284   2.568
 1921TIP3   OH2 5703   2.246   5.378   4.107
 1921TIP3    H1 5704   2.296   5.438   4.052
 1921TIP3    H2 5705   2.307   5.354   4.176
 1922TIP3   OH2 5706   1.949   3.809   5.480
 1922TIP3    H1 5707   1.950   3.899   5.512
 1922TIP3    H2 5708   1.857   3.790   5.466
 1923TIP3   OH2 5709   4.724   3.543   3.574
 1923TIP3    H1 5710   4.713   3.570   3.482
 1923TIP3    H2 5711   4.818   3.530   3.584
 1924TIP3   OH2 5712   1.723   3.754   4.316
 1924TIP3    H1 5713   1.712   3.758   4.411
 1924TIP3    H2 5714   1.634   3.753   4.282
 1925TIP3   OH2 5715   5.125   1.739   0.550
 1925TIP3    H1 5716   5.105   1.728   0.643
 1925TIP3    H2 5717   5.152   1.651   0.521
 1926TIP3   OH2 5718   6.377   3.488   6.143
 1926TIP3    H1 5719   6.383   3.403   6.099
 1926TIP3    H2 5720   6.401   3.470   6.234
 1927TIP3   OH2 5721   7.740   2.856   6.380
 1927TIP3    H1 5722   7.686   2.805   6.319
 1927TIP3    H2 5723   7.715   2.823   6.466
 1928TIP3   OH2 5724   2.297   7.823   4.869
 1928TIP3    H1 5725   2.381   7.788   4.898
 1928TIP3    H2 5726   2.281   7.782   4.784
 1929TIP3   OH2 5727   6.075   2.283   2.565
 1929TIP3    H1 5728   5.992   2.251   2.600
 1929TIP3    H2 5729   6.094   2.224   2.492
 1930TIP3   OH2 5730   1.969   2.903   0.361
 1930TIP3    H1 5731   1.918   2.979   0.389
 1930TIP3    H2 5732   1.946   2.891   0.269
 1931TIP3   OH2 5733   6.309   6.374   4.499
 1931TIP3    H1 5734   6.217   6.348   4.496
 1931TIP3    H2 5735   6.323   6.403   4.590
 1932TIP3   OH2 5736   1.889   5.334   2.503
 1932TIP3    H1 5737   1.874   5.316   2.595
 1932TIP3    H2 5738   1.847   5.419   2.488
 1933TIP3   OH2 5739   2.737   4.650   2.590
 1933TIP3    H1 5740   2.681   4.706   2.536
 1933TIP3    H2 5741   2.699   4.656   2.678
 1934TIP3   OH2 5742   4.982   3.668   2.656
 1934TIP3    H1 5743   5.055   3.652   2.597
 1934TIP3    H2 5744   4.976   3.590   2.711
 1935TIP3   OH2 5745   1.729   6.731   3.882
 1935TIP3    H1 5746   1.777   6.783   3.817
 1935TIP3    H2 5747   1.776   6.648   3.886
 1936TIP3   OH2 5748   6.555   1.023   0.076
 1936TIP3    H1 5749   6.606   1.091   0.120
 1936TIP3    H2 5750   6.540   1.057  -0.012
 1937TIP3   OH2 5751   7.940   6.250   2.180
 1937TIP3    H1 5752   7.950   6.161   2.147
 1937TIP3    H2 5753   7.990   6.304   2.118
 1938TIP3   OH2 5754   6.518   3.948   3.950
 1938TIP3    H1 5755   6.460   3.983   3.882
 1938TIP3    H2 5756   6.578   4.020   3.970
 1939TIP3   OH2 5757   2.576   0.447   4.544
 1939TIP3    H1 5758   2.574   0.534   4.504
 1939TIP3    H2 5759   2.666   0.417   4.531
 1940TIP3   OH2 5760   0.407   6.408   1.721
 1940TIP3    H1 5761   0.450   6.459   1.790
 1940TIP3    H2 5762   0.374   6.330   1.767
 1941TIP3   OH2 5763   0.784   4.011   1.832
 1941TIP3    H1 5764   0.843   4.074   1.791
 1941TIP3    H2 5765   0.704   4.061   1.850
 1942TIP3   OH2 5766   2.378   2.015   3.035
 1942TIP3    H1 5767   2.431   1.987   2.960
 1942TIP3    H2 5768   2.334   2.094   3.005
 1943TIP3   OH2 5769   0.671   2.541   3.559
 1943TIP3    H1 5770   0.587   2.579   3.584
 1943TIP3    H2 5771   0.736   2.601   3.594
 1944TIP3   OH2 5772   8.304   4.165   5.733
 1944TIP3    H1 5773   8.323   4.195   5.822
 1944TIP3    H2 5774   8.317   4.071   5.736
 1945TIP3   OH2 5775   0.538   7.169   2.576
 1945TIP3    H1 5776   0.524   7.171   2.481
 1945TIP3    H2 5777   0.615   7.112   2.587
 1946TIP3   OH2 5778   6.434   4.851   2.088
 1946TIP3    H1 5779   6.526   4.879   2.098
 1946TIP3    H2 5780   6.408   4.886   2.003
 1947TIP3   OH2 5781   0.550   4.784   4.131
 1947TIP3    H1 5782   0.487   4.713   4.136
 1947TIP3    H2 5783   0.562   4.800   4.037
 1948TIP3   OH2 5784   6.475   1.729   3.571
 1948TIP3    H1 5785   6.496   1.693   3.657
 1948TIP3    H2 5786   6.412   1.799   3.589
 1949TIP3   OH2 5787   3.121   0.780   6.604
 1949TIP3    H1 5788   3.125   0.796   6.698
 1949TIP3    H2 5789   3.172   0.700   6.590
 1950TIP3   OH2 5790   1.216   6.315   4.050
 1950TIP3    H1 5791   1.151   6.281   4.112
 1950TIP3    H2 5792   1.240   6.240   3.996
 1951TIP3   OH2 5793   3.743   3.299   1.789
 1951TIP3    H1 5794   3.769   3.366   1.726
 1951TIP3    H2 5795   3.725   3.347   1.870
 1952TIP3   OH2 5796   6.306   5.174   0.472
 1952TIP3    H1 5797   6.277   5.221   0.550
 1952TIP3    H2 5798   6.226   5.165   0.419
 1953TIP3   OH2 5799   3.288   7.861   0.079
 1953TIP3    H1 5800   3.205   7.886   0.119
 1953TIP3    H2 5801   3.313   7.937   0.026
 1954TIP3   OH2 5802   7.181   5.038   1.565
 1954TIP3    H1 5803   7.148   4.992   1.643
 1954TIP3    H2 5804   7.242   5.104   1.599
 1955TIP3   OH2 5805   4.026   5.937   2.204
 1955TIP3    H1 5806   4.044   5.933   2.110
 1955TIP3    H2 5807   3.967   5.863   2.220
 1956TIP3   OH2 5808   4.754   0.762   1.903
 1956TIP3    H1 5809   4.776   0.680   1.947
 1956TIP3    H2 5810   4.798   0.829   1.956
 1957TIP3   OH2 5811   6.338   4.522   0.287
 1957TIP3    H1 5812   6.290   4.469   0.223
 1957TIP3    H2 5813   6.363   4.601   0.238
 1958TIP3   OH2 5814   7.582   3.565   2.085
 1958TIP3    H1 5815   7.558   3.588   2.175
 1958TIP3    H2 5816   7.500   3.545   2.042
 1959TIP3   OH2 5817   1.169   1.205   1.589
 1959TIP3    H1 5818   1.259   1.194   1.621
 1959TIP3    H2 5819   1.135   1.281   1.637
 1960TIP3   OH2 5820   4.636   4.411   0.396
 1960TIP3    H1 5821   4.607   4.437   0.309
 1960TIP3    H2 5822   4.699   4.340   0.380
 1961TIP3   OH2 5823   7.326   7.705   3.959
 1961TIP3    H1 5824   7.291   7.669   3.877
 1961TIP3    H2 5825   7.399   7.648   3.981
 1962TIP3   OH2 5826   2.892   3.314   6.268
 1962TIP3    H1 5827   2.916   3.402   6.296
 1962TIP3    H2 5828   2.876   3.322   6.174
 1963TIP3   OH2 5829   0.940   6.836   2.308
 1963TIP3    H1 5830   0.900   6.755   2.277
 1963TIP3    H2 5831   1.031   6.830   2.279
 1964TIP3   OH2 5832   0.821   2.304   0.312
 1964TIP3    H1 5833   0.890   2.281   0.250
 1964TIP3    H2 5834   0.855   2.277   0.397
 1965TIP3   OH2 5835   4.263   7.685   5.070
 1965TIP3    H1 5836   4.186   7.630   5.085
 1965TIP3    H2 5837   4.283   7.722   5.156
 1966TIP3   OH2 5838   6.199   7.731   6.517
 1966TIP3    H1 5839   6.289   7.762   6.503
 1966TIP3    H2 5840   6.166   7.714   6.429
 1967TIP3   OH2 5841   5.390   1.376   2.753
 1967TIP3    H1 5842   5.424   1.440   2.815
 1967TIP3    H2 5843   5.319   1.332   2.800
 1968TIP3   OH2 5844   7.214   4.696   2.714
 1968TIP3    H1 5845   7.220   4.680   2.620
 1968TIP3    H2 5846   7.303   4.720   2.740
 1969TIP3   OH2 5847   5.321   4.406   3.686
 1969TIP3    H1 5848   5.337   4.459   3.765
 1969TIP3    H2 5849   5.278   4.466   3.626
 1970TIP3   OH2 5850   2.357   4.202   2.169
 1970TIP3    H1 5851   2.292   4.266   2.143
 1970TIP3    H2 5852   2.433   4.254   2.197
 1971TIP3   OH2 5853   5.352   4.053   6.161
 1971TIP3    H1 5854   5.360   3.959   6.147
 1971TIP3    H2 5855   5.431   4.090   6.121
 1972TIP3   OH2 5856   7.821   3.459   1.241
 1972TIP3    H1 5857   7.727   3.451   1.258
 1972TIP3    H2 5858   7.850   3.369   1.228
 1973TIP3   OH2 5859   2.880   4.299   6.581
 1973TIP3    H1 5860   2.873   4.283   6.487
 1973TIP3    H2 5861   2.923   4.384   6.588
 1974TIP3   OH2 5862   3.968   0.987   4.054
 1974TIP3    H1 5863   3.921   1.055   4.101
 1974TIP3    H2 5864   4.057   0.990   4.089
 1975TIP3   OH2 5865   0.659   0.082   1.120
 1975TIP3    H1 5866   0.628   0.044   1.037
 1975TIP3    H2 5867   0.643   0.013   1.185
 1976TIP3   OH2 5868   3.590   2.572   1.825
 1976TIP3    H1 5869   3.578   2.628   1.748
 1976TIP3    H2 5870   3.683   2.550   1.824
 1977TIP3   OH2 5871   3.817   6.259   3.617
 1977TIP3    H1 5872   3.865   6.325   3.567
 1977TIP3    H2 5873   3.740   6.304   3.650
 1978TIP3   OH2 5874   5.249   3.361   0.146
 1978TIP3    H1 5875   5.281   3.361   0.236
 1978TIP3    H2 5876   5.242   3.454   0.123
 1979TIP3   OH2 5877   1.850   6.616   2.736
 1979TIP3    H1 5878   1.805   6.633   2.819
 1979TIP3    H2 5879   1.818   6.686   2.678
 1980TIP3   OH2 5880   6.533   0.545   1.323
 1980TIP3    H1 5881   6.521   0.632   1.360
 1980TIP3    H2 5882   6.612   0.551   1.270
 1981TIP3   OH2 5883   5.698   4.928   5.957
 1981TIP3    H1 5884   5.604   4.912   5.967
 1981TIP3    H2 5885   5.703   4.996   5.889
 1982TIP3   OH2 5886   7.706   1.557   2.836
 1982TIP3    H1 5887   7.610   1.558   2.837
 1982TIP3    H2 5888   7.731   1.553   2.928
 1983TIP3   OH2 5889   1.949   5.057   0.080
 1983TIP3    H1 5890   1.940   5.041   0.174
 1983TIP3    H2 5891   2.043   5.071   0.068
 1984TIP3   OH2 5892   1.420   3.553   4.116
 1984TIP3    H1 5893   1.428   3.559   4.211
 1984TIP3    H2 5894   1.389   3.639   4.088
 1985TIP3   OH2 5895   3.159   0.827   1.478
 1985TIP3    H1 5896   3.208   0.854   1.556
 1985TIP3    H2 5897   3.099   0.759   1.509
 1986TIP3   OH2 5898   4.193   6.845   1.641
 1986TIP3    H1 5899   4.162   6.906   1.709
 1986TIP3    H2 5900   4.207   6.900   1.564
 1987TIP3   OH2 5901   5.820   4.537   6.549
 1987TIP3    H1 5902   5.911   4.567   6.545
 1987TIP3    H2 5903   5.820   4.457   6.496
 1988TIP3   OH2 5904   6.011   1.549   5.591
 1988TIP3    H1 5905   6.068   1.476   5.611
 1988TIP3    H2 5906   6.069   1.617   5.556
 1989TIP3   OH2 5907   3.511   3.530   2.891
 1989TIP3    H1 5908   3.525   3.487   2.807
 1989TIP3    H2 5909   3.545   3.468   2.956
 1990TIP3   OH2 5910   7.742   5.363   5.942
 1990TIP3    H1 5911   7.832   5.388   5.960
 1990TIP3    H2 5912   7.749   5.281   5.893
 1991TIP3   OH2 5913   7.892   4.098   1.909
 1991TIP3    H1 5914   7.858   4.186   1.891
 1991TIP3    H2 5915   7.953   4.080   1.838
 1992TIP3   OH2 5916   0.923   4.625   4.311
 1992TIP3    H1 5917   0.905   4.652   4.221
 1992TIP3    H2 5918   0.863   4.677   4.364
 1993TIP3   OH2 5919   0.293   1.570   4.616
 1993TIP3    H1 5920   0.235   1.509   4.570
 1993TIP3    H2 5921   0.262   1.568   4.707
 1994TIP3   OH2 5922   2.221   4.525   4.089
 1994TIP3    H1 5923   2.135   4.559   4.066
 1994TIP3    H2 5924   2.249   4.474   4.013
 1995TIP3   OH2 5925   7.663   1.022   2.100
 1995TIP3    H1 5926   7.742   0.985   2.137
 1995TIP3    H2 5927   7.621   1.067   2.173
 1996TIP3   OH2 5928   3.584   5.057   0.350
 1996TIP3    H1 5929   3.674   5.083   0.368
 1996TIP3    H2 5930   3.577   4.968   0.385
 1997TIP3   OH2 5931   0.017   0.131   2.753
 1997TIP3    H1 5932  -0.023   0.121   2.839
 1997TIP3    H2 5933   0.106   0.098   2.763
 1998TIP3   OH2 5934   7.139   3.597   0.550
 1998TIP3    H1 5935   7.135   3.533   0.478
 1998TIP3    H2 5936   7.094   3.554   0.623
 1999TIP3   OH2 5937   8.313   5.679   1.096
 1999TIP3    H1 5938   8.269   5.626   1.029
 1999TIP3    H2 5939   8.406   5.664   1.081
 2000TIP3   OH2 5940   4.933   2.628   1.735
 2000TIP3    H1 5941   4.988   2.703   1.715
 2000TIP3    H2 5942   4.961   2.600   1.822
 2001TIP3   OH2 5943   4.709   6.190   5.198
 2001TIP3    H1 5944   4.668   6.272   5.171
 2001TIP3    H2 5945   4.655   6.159   5.270
 2002TIP3   OH2 5946   7.456   7.621   2.310
 2002TIP3    H1 5947   7.405   7.642   2.232
 2002TIP3    H2 5948   7.470   7.527   2.305
 2003TIP3   OH2 5949   4.420   7.850   2.094
 2003TIP3    H1 5950   4.371   7.851   2.012
 2003TIP3    H2 5951   4.452   7.760   2.102
 2004TIP3   OH2 5952   5.683   1.643   6.460
 2004TIP3    H1 5953   5.609   1.700   6.477
 2004TIP3    H2 5954   5.760   1.697   6.478
 2005TIP3   OH2 5955   0.844   6.721   3.221
 2005TIP3    H1 5956   0.847   6.795   3.161
 2005TIP3    H2 5957   0.756   6.685   3.210
 2006TIP3   OH2 5958   5.305   7.664   5.084
 2006TIP3    H1 5959   5.293   7.569   5.089
 2006TIP3    H2 5960   5.257   7.699   5.159
 2007TIP3   OH2 5961   8.088   5.249   0.232
 2007TIP3    H1 5962   8.087   5.158   0.263
 2007TIP3    H2 5963   8.112   5.300   0.309
 2008TIP3   OH2 5964   7.916   2.505   6.689
 2008TIP3    H1 5965   7.954   2.467   6.610
 2008TIP3    H2 5966   7.847   2.444   6.714
 2009TIP3   OH2 5967   4.282   1.641   1.107
 2009TIP3    H1 5968   4.346   1.602   1.048
 2009TIP3    H2 5969   4.205   1.585   1.100
 2010TIP3   OH2 5970   1.780   1.810   3.536
 2010TIP3    H1 5971   1.863   1.836   3.496
 2010TIP3    H2 5972   1.725   1.784   3.462
 2011TIP3   OH2 5973   3.970   0.451   2.795
 2011TIP3    H1 5974   3.944   0.464   2.886
 2011TIP3    H2 5975   4.058   0.490   2.789
 2012TIP3   OH2 5976   5.614   6.931   0.070
 2012TIP3    H1 5977   5.562   6.933   0.150
 2012TIP3    H2 5978   5.667   6.851   0.078
 2013TIP3   OH2 5979   3.419   4.517   2.554
 2013TIP3    H1 5980   3.378   4.604   2.558
 2013TIP3    H2 5981   3.349   4.456   2.574
 2014TIP3   OH2 5982   2.633   6.632   5.078
 2014TIP3    H1 5983   2.645   6.563   5.143
 2014TIP3    H2 5984   2.689   6.605   5.005
 2015TIP3   OH2 5985   4.575   7.083   4.281
 2015TIP3    H1 5986   4.504   7.081   4.218
 2015TIP3    H2 5987   4.568   6.999   4.327
 2016TIP3   OH2 5988   7.596   0.350   6.244
 2016TIP3    H1 5989   7.562   0.289   6.310
 2016TIP3    H2 5990   7.547   0.431   6.257
 2017TIP3   OH2 5991   7.609   0.610   0.464
 2017TIP3    H1 5992   7.615   0.651   0.551
 2017TIP3    H2 5993   7.646   0.523   0.477
 2018TIP3   OH2 5994   6.709   6.423   5.789
 2018TIP3    H1 5995   6.732   6.413   5.881
 2018TIP3    H2 5996   6.757   6.353   5.744
 2019TIP3   OH2 5997   3.573   7.798   4.194
 2019TIP3    H1 5998   3.652   7.852   4.195
 2019TIP3    H2 5999   3.554   7.785   4.101
 2020TIP3   OH2 6000   4.562   0.456   4.737
 2020TIP3    H1 6001   4.517   0.530   4.697
 2020TIP3    H2 6002   4.647   0.490   4.764
 2021TIP3   OH2 6003   5.193   4.025   2.792
 2021TIP3    H1 6004   5.239   3.981   2.721
 2021TIP3    H2 6005   5.253   4.021   2.866
 2022TIP3   OH2 6006   1.488   4.107   4.449
 2022TIP3    H1 6007   1.419   4.150   4.398
 2022TIP3    H2 6008   1.524   4.177   4.504
 2023TIP3   OH2 6009   8.116   3.486   4.695
 2023TIP3    H1 6010   8.199   3.481   4.647
 2023TIP3    H2 6011   8.064   3.415   4.659
 2024TIP3   OH2 6012   0.581   3.551   2.124
 2024TIP3    H1 6013   0.643   3.624   2.111
 2024TIP3    H2 6014   0.621   3.498   2.192
 2025TIP3   OH2 6015   4.789   3.835   5.412
 2025TIP3    H1 6016   4.698   3.854   5.432
 2025TIP3    H2 6017   4.814   3.768   5.476
 2026TIP3   OH2 6018   4.062   2.176   1.821
 2026TIP3    H1 6019   4.037   2.203   1.909
 2026TIP3    H2 6020   3.987   2.124   1.790
 2027TIP3   OH2 6021   1.407   6.382   4.560
 2027TIP3    H1 6022   1.342   6.313   4.576
 2027TIP3    H2 6023   1.488   6.335   4.541
 2028TIP3   OH2 6024   7.001   0.431   0.499
 2028TIP3    H1 6025   7.077   0.435   0.441
 2028TIP3    H2 6026   6.969   0.341   0.492
 2029TIP3   OH2 6027   0.650   7.460   2.001
 2029TIP3    H1 6028   0.563   7.498   1.986
 2029TIP3    H2 6029   0.699   7.531   2.043
 2030TIP3   OH2 6030   6.575   2.308   0.650
 2030TIP3    H1 6031   6.591   2.283   0.559
 2030TIP3    H2 6032   6.661   2.310   0.691
 2031TIP3   OH2 6033   3.520   1.310   4.015
 2031TIP3    H1 6034   3.505   1.216   4.013
 2031TIP3    H2 6035   3.586   1.323   4.083
 2032TIP3   OH2 6036   3.563   3.866   2.439
 2032TIP3    H1 6037   3.555   3.893   2.531
 2032TIP3    H2 6038   3.486   3.811   2.424
 2033TIP3   OH2 6039   4.531   4.294   3.133
 2033TIP3    H1 6040   4.626   4.294   3.119
 2033TIP3    H2 6041   4.494   4.289   3.045
 2034TIP3   OH2 6042   3.754   1.574   4.501
 2034TIP3    H1 6043   3.793   1.548   4.418
 2034TIP3    H2 6044   3.808   1.531   4.568
 2035TIP3   OH2 6045   8.320   2.821   0.629
 2035TIP3    H1 6046   8.316   2.754   0.560
 2035TIP3    H2 6047   8.332   2.903   0.582
 2036TIP3   OH2 6048   3.298   4.773   1.370
 2036TIP3    H1 6049   3.250   4.691   1.365
 2036TIP3    H2 6050   3.294   4.808   1.281
 2037TIP3   OH2 6051   5.921   1.938   3.294
 2037TIP3    H1 6052   5.898   1.913   3.204
 2037TIP3    H2 6053   5.920   1.856   3.343
 2038TIP3   OH2 6054   0.442   7.056   4.685
 2038TIP3    H1 6055   0.490   6.982   4.722
 2038TIP3    H2 6056   0.351   7.041   4.712
 2039TIP3   OH2 6057   4.361   0.380   3.842
 2039TIP3    H1 6058   4.345   0.473   3.854
 2039TIP3    H2 6059   4.278   0.338   3.866
 2040TIP3   OH2 6060   8.165   6.019   2.035
 2040TIP3    H1 6061   8.080   5.983   2.011
 2040TIP3    H2 6062   8.227   5.972   1.979
 2041TIP3   OH2 6063   3.848   6.016   3.736
 2041TIP3    H1 6064   3.774   5.962   3.707
 2041TIP3    H2 6065   3.839   6.097   3.685
 2042TIP3   OH2 6066   2.064   5.582   0.776
 2042TIP3    H1 6067   2.039   5.662   0.823
 2042TIP3    H2 6068   2.156   5.568   0.798
 2043TIP3   OH2 6069   3.924   1.419   4.661
 2043TIP3    H1 6070   3.879   1.392   4.741
 2043TIP3    H2 6071   4.011   1.379   4.669
 2044TIP3   OH2 6072   0.113   0.487   2.029
 2044TIP3    H1 6073   0.117   0.545   1.953
 2044TIP3    H2 6074   0.123   0.399   1.993
 2045TIP3   OH2 6075   6.969   7.318   6.776
 2045TIP3    H1 6076   6.989   7.404   6.739
 2045TIP3    H2 6077   6.930   7.269   6.703
 2046TIP3   OH2 6078   7.080   6.593   3.692
 2046TIP3    H1 6079   7.032   6.674   3.678
 2046TIP3    H2 6080   7.030   6.526   3.645
 2047TIP3   OH2 6081   7.659   6.555   1.906
 2047TIP3    H1 6082   7.659   6.643   1.945
 2047TIP3    H2 6083   7.586   6.556   1.845
 2048TIP3   OH2 6084   7.285   3.776   6.246
 2048TIP3    H1 6085   7.340   3.702   6.221
 2048TIP3    H2 6086   7.332   3.853   6.215
 2049TIP3   OH2 6087   0.531   0.788   6.543
 2049TIP3    H1 6088   0.606   0.846   6.559
 2049TIP3    H2 6089   0.455   0.839   6.570
 2050TIP3   OH2 6090   3.751   2.273   4.350
 2050TIP3    H1 6091   3.769   2.238   4.262
 2050TIP3    H2 6092   3.818   2.232   4.405
 2051TIP3   OH2 6093   3.107   0.730   2.884
 2051TIP3    H1 6094   3.098   0.739   2.979
 2051TIP3    H2 6095   3.038   0.785   2.848
 2052TIP3   OH2 6096   7.084   2.230   2.310
 2052TIP3    H1 6097   6.993   2.232   2.281
 2052TIP3    H2 6098   7.096   2.311   2.359
 2053TIP3   OH2 6099   2.094   3.982   6.235
 2053TIP3    H1 6100   2.022   4.017   6.183
 2053TIP3    H2 6101   2.161   3.958   6.171
 2054TIP3   OH2 6102   7.103   1.965   3.558
 2054TIP3    H1 6103   7.161   2.039   3.540
 2054TIP3    H2 6104   7.142   1.922   3.634
 2055TIP3   OH2 6105   3.652   3.441   0.434
 2055TIP3    H1 6106   3.740   3.410   0.457
 2055TIP3    H2 6107   3.605   3.363   0.406
 2056TIP3   OH2 6108   3.304   1.732   0.288
 2056TIP3    H1 6109   3.240   1.793   0.250
 2056TIP3    H2 6110   3.266   1.706   0.372
 2057TIP3   OH2 6111   3.769   7.544   6.821
 2057TIP3    H1 6112   3.713   7.481   6.775
 2057TIP3    H2 6113   3.824   7.491   6.878
 2058TIP3   OH2 6114   0.135   5.080   2.772
 2058TIP3    H1 6115   0.042   5.062   2.755
 2058TIP3    H2 6116   0.134   5.151   2.836
 2059TIP3   OH2 6117   8.292   4.688   1.135
 2059TIP3    H1 6118   8.246   4.622   1.186
 2059TIP3    H2 6119   8.328   4.641   1.060
 2060TIP3   OH2 6120   1.013   4.518   2.937
 2060TIP3    H1 6121   1.041   4.427   2.944
 2060TIP3    H2 6122   1.093   4.569   2.951
 2061TIP3   OH2 6123   2.174   2.184   6.464
 2061TIP3    H1 6124   2.091   2.202   6.508
 2061TIP3    H2 6125   2.240   2.197   6.532
 2062TIP3   OH2 6126   1.968   0.670   0.389
 2062TIP3    H1 6127   1.895   0.731   0.395
 2062TIP3    H2 6128   2.044   0.725   0.371
 2063TIP3   OH2 6129   4.748   7.172   2.924
 2063TIP3    H1 6130   4.776   7.142   3.010
 2063TIP3    H2 6131   4.817   7.231   2.895
 2064TIP3   OH2 6132   7.369   1.065   2.775
 2064TIP3    H1 6133   7.274   1.060   2.766
 2064TIP3    H2 6134   7.384   1.070   2.869
 2065TIP3   OH2 6135   4.162   4.636   1.673
 2065TIP3    H1 6136   4.148   4.581   1.750
 2065TIP3    H2 6137   4.216   4.708   1.705
 2066TIP3   OH2 6138   0.394   6.157   1.872
 2066TIP3    H1 6139   0.320   6.099   1.854
 2066TIP3    H2 6140   0.462   6.100   1.907
 2067TIP3   OH2 6141   2.403   1.899   1.126
 2067TIP3    H1 6142   2.413   1.834   1.195
 2067TIP3    H2 6143   2.429   1.982   1.167
 2068TIP3   OH2 6144   2.736   4.756   5.400
 2068TIP3    H1 6145   2.664   4.755   5.337
 2068TIP3    H2 6146   2.694   4.757   5.486
 2069TIP3   OH2 6147   3.350   3.860   0.891
 2069TIP3    H1 6148   3.431   3.896   0.927
 2069TIP3    H2 6149   3.318   3.800   0.959
 2070TIP3   OH2 6150   7.321   0.770   4.962
 2070TIP3    H1 6151   7.412   0.748   4.943
 2070TIP3    H2 6152   7.271   0.718   4.900
 2071TIP3   OH2 6153   2.018   0.794   4.566
 2071TIP3    H1 6154   2.105   0.793   4.525
 2071TIP3    H2 6155   2.019   0.721   4.627
 2072TIP3   OH2 6156   2.856   2.943   6.638
 2072TIP3    H1 6157   2.841   2.981   6.724
 2072TIP3    H2 6158   2.882   3.017   6.583
 2073TIP3   OH2 6159   4.789   3.083   6.422
 2073TIP3    H1 6160   4.794   3.020   6.494
 2073TIP3    H2 6161   4.696   3.103   6.413
 2074TIP3   OH2 6162   4.713   5.449   6.346
 2074TIP3    H1 6163   4.662   5.521   6.308
 2074TIP3    H2 6164   4.653   5.374   6.344
 2075TIP3   OH2 6165   5.250   6.208   0.692
 2075TIP3    H1 6166   5.337   6.196   0.729
 2075TIP3    H2 6167   5.238   6.133   0.633
 2076TIP3   OH2 6168   2.919   5.418   4.179
 2076TIP3    H1 6169   2.973   5.403   4.256
 2076TIP3    H2 6170   2.891   5.509   4.187
 2077TIP3   OH2 6171   4.683   0.276   2.542
 2077TIP3    H1 6172   4.670   0.194   2.496
 2077TIP3    H2 6173   4.761   0.314   2.502
 2078TIP3   OH2 6174   6.686   3.900   1.664
 2078TIP3    H1 6175   6.681   3.808   1.691
 2078TIP3    H2 6176   6.705   3.897   1.571
 2079TIP3   OH2 6177   0.444   6.663   4.617
 2079TIP3    H1 6178   0.461   6.707   4.533
 2079TIP3    H2 6179   0.353   6.635   4.612
 2080TIP3   OH2 6180   1.079   7.042   3.864
 2080TIP3    H1 6181   1.117   7.030   3.951
 2080TIP3    H2 6182   1.120   7.122   3.831
 2081TIP3   OH2 6183   5.782   7.137   6.187
 2081TIP3    H1 6184   5.775   7.164   6.278
 2081TIP3    H2 6185   5.841   7.202   6.148
 2082TIP3   OH2 6186   0.605   4.380   2.888
 2082TIP3    H1 6187   0.670   4.427   2.837
 2082TIP3    H2 6188   0.606   4.422   2.974
 2083TIP3   OH2 6189   1.256   0.950   6.737
 2083TIP3    H1 6190   1.277   1.042   6.751
 2083TIP3    H2 6191   1.200   0.927   6.811
 2084TIP3   OH2 6192   0.061   5.350   3.205
 2084TIP3    H1 6193   0.147   5.365   3.243
 2084TIP3    H2 6194   0.024   5.278   3.256
 2085TIP3   OH2 6195   2.043   6.203   3.181
 2085TIP3    H1 6196   2.090   6.272   3.134
 2085TIP3    H2 6197   1.999   6.249   3.253
 2086TIP3   OH2 6198   3.336   5.708   0.711
 2086TIP3    H1 6199   3.323   5.791   0.665
 2086TIP3    H2 6200   3.266   5.706   0.777
 2087TIP3   OH2 6201   8.021   2.640   2.786
 2087TIP3    H1 6202   7.935   2.617   2.822
 2087TIP3    H2 6203   8.072   2.559   2.791
 2088TIP3   OH2 6204   2.190   3.992   1.474
 2088TIP3    H1 6205   2.153   4.032   1.395
 2088TIP3    H2 6206   2.115   3.978   1.531
 2089TIP3   OH2 6207   3.267   4.791   2.331
 2089TIP3    H1 6208   3.206   4.717   2.333
 2089TIP3    H2 6209   3.319   4.781   2.410
 2090TIP3   OH2 6210   8.034   6.102   3.746
 2090TIP3    H1 6211   8.102   6.169   3.750
 2090TIP3    H2 6212   8.013   6.084   3.838
 2091TIP3   OH2 6213   3.746   5.472   6.494
 2091TIP3    H1 6214   3.715   5.501   6.580
 2091TIP3    H2 6215   3.825   5.522   6.479
 2092TIP3   OH2 6216   4.399   2.496   6.036
 2092TIP3    H1 6217   4.425   2.549   6.111
 2092TIP3    H2 6218   4.309   2.470   6.054
 2093TIP3   OH2 6219   3.402   3.444   0.646
 2093TIP3    H1 6220   3.343   3.517   0.626
 2093TIP3    H2 6221   3.351   3.389   0.706
 2094TIP3   OH2 6222   3.601   5.966   3.610
 2094TIP3    H1 6223   3.607   6.017   3.530
 2094TIP3    H2 6224   3.507   5.963   3.630
 2095TIP3   OH2 6225   7.300   2.742   3.342
 2095TIP3    H1 6226   7.389   2.750   3.377
 2095TIP3    H2 6227   7.257   2.680   3.400
 2096TIP3   OH2 6228   8.082   3.976   2.119
 2096TIP3    H1 6229   8.001   3.991   2.071
 2096TIP3    H2 6230   8.105   3.885   2.100
 2097TIP3   OH2 6231   7.807   2.405   6.104
 2097TIP3    H1 6232   7.813   2.443   6.016
 2097TIP3    H2 6233   7.792   2.479   6.162
 2098TIP3   OH2 6234   5.376   0.821   0.018
 2098TIP3    H1 6235   5.397   0.732   0.049
 2098TIP3    H2 6236   5.435   0.834  -0.057
 2099TIP3   OH2 6237   5.229   3.177   2.274
 2099TIP3    H1 6238   5.285   3.137   2.341
 2099TIP3    H2 6239   5.282   3.247   2.238
 2100TIP3   OH2 6240   5.148   1.950   5.245
 2100TIP3    H1 6241   5.133   1.858   5.265
 2100TIP3    H2 6242   5.201   1.949   5.165
 2101TIP3   OH2 6243   8.045   6.871   3.855
 2101TIP3    H1 6244   8.052   6.778   3.834
 2101TIP3    H2 6245   8.130   6.908   3.832
 2102TIP3   OH2 6246   2.878   4.951   1.460
 2102TIP3    H1 6247   2.833   4.867   1.465
 2102TIP3    H2 6248   2.971   4.929   1.453
 2103TIP3   OH2 6249   3.064   7.030   1.811
 2103TIP3    H1 6250   2.990   7.019   1.872
 2103TIP3    H2 6251   3.054   7.120   1.779
 2104TIP3   OH2 6252   0.653   3.064   2.930
 2104TIP3    H1 6253   0.633   3.134   2.867
 2104TIP3    H2 6254   0.718   3.102   2.988
 2105TIP3   OH2 6255   8.348   3.465   0.900
 2105TIP3    H1 6256   8.383   3.540   0.853
 2105TIP3    H2 6257   8.346   3.492   0.992
 2106TIP3   OH2 6258   0.547   0.245   6.732
 2106TIP3    H1 6259   0.561   0.259   6.639
 2106TIP3    H2 6260   0.576   0.155   6.748
 2107TIP3   OH2 6261   7.305   6.881   5.656
 2107TIP3    H1 6262   7.212   6.890   5.635
 2107TIP3    H2 6263   7.344   6.846   5.576
 2108TIP3   OH2 6264   4.249   2.675   4.941
 2108TIP3    H1 6265   4.238   2.647   5.032
 2108TIP3    H2 6266   4.227   2.768   4.942
 2109TIP3   OH2 6267   1.896   7.303   5.617
 2109TIP3    H1 6268   1.886   7.351   5.699
 2109TIP3    H2 6269   1.989   7.282   5.612
 2110TIP3   OH2 6270   3.509   4.102   6.823
 2110TIP3    H1 6271   3.570   4.122   6.753
 2110TIP3    H2 6272   3.563   4.062   6.891
 2111TIP3   OH2 6273   4.936   6.523   4.562
 2111TIP3    H1 6274   4.944   6.431   4.539
 2111TIP3    H2 6275   4.902   6.523   4.651
 2112TIP3   OH2 6276   5.310   5.754   2.417
 2112TIP3    H1 6277   5.226   5.713   2.435
 2112TIP3    H2 6278   5.291   5.819   2.349
 2113TIP3   OH2 6279   5.804   2.346   5.936
 2113TIP3    H1 6280   5.885   2.343   5.986
 2113TIP3    H2 6281   5.752   2.272   5.969
 2114TIP3   OH2 6282   1.524   5.603   3.352
 2114TIP3    H1 6283   1.431   5.593   3.372
 2114TIP3    H2 6284   1.556   5.666   3.416
 2115TIP3   OH2 6285   0.788   2.403   4.163
 2115TIP3    H1 6286   0.770   2.404   4.069
 2115TIP3    H2 6287   0.701   2.402   4.204
 2116TIP3   OH2 6288   1.059   0.039   4.754
 2116TIP3    H1 6289   1.153   0.036   4.772
 2116TIP3    H2 6290   1.049  -0.007   4.671
 2117TIP3   OH2 6291   6.646   3.232   2.190
 2117TIP3    H1 6292   6.619   3.184   2.268
 2117TIP3    H2 6293   6.696   3.306   2.223
 2118TIP3   OH2 6294   1.888   2.480   3.045
 2118TIP3    H1 6295   1.827   2.407   3.061
 2118TIP3    H2 6296   1.959   2.467   3.108
 2119TIP3   OH2 6297   4.529   1.783   5.968
 2119TIP3    H1 6298   4.596   1.800   6.034
 2119TIP3    H2 6299   4.481   1.706   6.001
 2120TIP3   OH2 6300   5.439   6.474   5.599
 2120TIP3    H1 6301   5.400   6.391   5.626
 2120TIP3    H2 6302   5.374   6.540   5.625
 2121TIP3   OH2 6303   0.558   3.720   6.345
 2121TIP3    H1 6304   0.556   3.691   6.436
 2121TIP3    H2 6305   0.531   3.812   6.348
 2122TIP3   OH2 6306   7.755   3.666   1.573
 2122TIP3    H1 6307   7.720   3.577   1.583
 2122TIP3    H2 6308   7.759   3.679   1.478
 2123TIP3   OH2 6309   7.984   5.127   5.903
 2123TIP3    H1 6310   8.010   5.215   5.927
 2123TIP3    H2 6311   8.062   5.074   5.918
 2124TIP3   OH2 6312   1.215   7.728   3.918
 2124TIP3    H1 6313   1.300   7.685   3.926
 2124TIP3    H2 6314   1.227   7.814   3.958
 2125TIP3   OH2 6315   4.113   1.604   1.715
 2125TIP3    H1 6316   4.031   1.579   1.672
 2125TIP3    H2 6317   4.181   1.568   1.658
 2126TIP3   OH2 6318   6.910   6.697   6.765
 2126TIP3    H1 6319   6.861   6.744   6.833
 2126TIP3    H2 6320   6.893   6.604   6.783
 2127TIP3   OH2 6321   7.252   4.451   5.881
 2127TIP3    H1 6322   7.248   4.477   5.973
 2127TIP3    H2 6323   7.177   4.393   5.869
 2128TIP3   OH2 6324   2.011   7.846   2.802
 2128TIP3    H1 6325   2.017   7.755   2.774
 2128TIP3    H2 6326   2.093   7.885   2.774
 2129TIP3   OH2 6327   1.804   4.537   0.187
 2129TIP3    H1 6328   1.739   4.469   0.202
 2129TIP3    H2 6329   1.864   4.530   0.261
 2130TIP3   OH2 6330   3.874   4.000   1.353
 2130TIP3    H1 6331   3.953   4.037   1.391
 2130TIP3    H2 6332   3.803   4.056   1.385
 2131TIP3   OH2 6333   7.045   3.650   1.896
 2131TIP3    H1 6334   7.017   3.697   1.975
 2131TIP3    H2 6335   6.995   3.691   1.825
 2132TIP3   OH2 6336   0.848   1.047   5.423
 2132TIP3    H1 6337   0.903   0.999   5.361
 2132TIP3    H2 6338   0.832   1.131   5.381
 2133TIP3   OH2 6339   4.252   7.838   3.860
 2133TIP3    H1 6340   4.261   7.813   3.952
 2133TIP3    H2 6341   4.341   7.828   3.824
 2134TIP3   OH2 6342   1.847   3.344   3.565
 2134TIP3    H1 6343   1.847   3.350   3.470
 2134TIP3    H2 6344   1.863   3.433   3.595
 2135TIP3   OH2 6345   2.697   0.383   6.316
 2135TIP3    H1 6346   2.696   0.472   6.280
 2135TIP3    H2 6347   2.607   0.354   6.310
 2136TIP3   OH2 6348   4.123   3.000   6.150
 2136TIP3    H1 6349   4.028   3.001   6.137
 2136TIP3    H2 6350   4.159   3.019   6.063
 2137TIP3   OH2 6351   3.707   6.528   0.296
 2137TIP3    H1 6352   3.780   6.584   0.269
 2137TIP3    H2 6353   3.730   6.500   0.385
 2138TIP3   OH2 6354   4.360   5.060   1.482
 2138TIP3    H1 6355   4.373   4.973   1.520
 2138TIP3    H2 6356   4.407   5.058   1.399
 2139TIP3   OH2 6357   0.183   4.915   4.470
 2139TIP3    H1 6358   0.267   4.956   4.447
 2139TIP3    H2 6359   0.198   4.879   4.557
 2140TIP3   OH2 6360   1.582   3.619   5.252
 2140TIP3    H1 6361   1.590   3.653   5.341
 2140TIP3    H2 6362   1.637   3.541   5.251
 2141TIP3   OH2 6363   7.307   7.824   5.354
 2141TIP3    H1 6364   7.253   7.878   5.412
 2141TIP3    H2 6365   7.289   7.858   5.266
 2142TIP3   OH2 6366   7.899   4.926   4.785
 2142TIP3    H1 6367   7.829   4.879   4.830
 2142TIP3    H2 6368   7.875   5.019   4.794
 2143TIP3   OH2 6369   0.378   6.321   3.123
 2143TIP3    H1 6370   0.337   6.383   3.183
 2143TIP3    H2 6371   0.312   6.305   3.056
 2144TIP3   OH2 6372   8.118   6.849   5.817
 2144TIP3    H1 6373   8.062   6.885   5.749
 2144TIP3    H2 6374   8.066   6.780   5.858
 2145TIP3   OH2 6375   0.503   7.898   5.134
 2145TIP3    H1 6376   0.579   7.922   5.082
 2145TIP3    H2 6377   0.443   7.858   5.071
 2146TIP3   OH2 6378   6.777   0.799   2.591
 2146TIP3    H1 6379   6.794   0.706   2.604
 2146TIP3    H2 6380   6.859   0.842   2.613
 2147TIP3   OH2 6381   4.656   0.713   3.395
 2147TIP3    H1 6382   4.671   0.741   3.486
 2147TIP3    H2 6383   4.722   0.645   3.380
 2148TIP3   OH2 6384   6.380   3.276   2.799
 2148TIP3    H1 6385   6.458   3.265   2.744
 2148TIP3    H2 6386   6.410   3.330   2.872
 2149TIP3   OH2 6387   7.359   7.343   1.772
 2149TIP3    H1 6388   7.370   7.340   1.677
 2149TIP3    H2 6389   7.422   7.409   1.801
 2150TIP3   OH2 6390   3.417   5.295   6.697
 2150TIP3    H1 6391   3.467   5.248   6.630
 2150TIP3    H2 6392   3.401   5.381   6.660
 2151TIP3   OH2 6393   0.642   6.767   0.604
 2151TIP3    H1 6394   0.683   6.741   0.521
 2151TIP3    H2 6395   0.704   6.740   0.671
 2152TIP3   OH2 6396   8.081   7.895   1.795
 2152TIP3    H1 6397   8.152   7.939   1.842
 2152TIP3    H2 6398   8.001   7.927   1.836
 2153TIP3   OH2 6399   2.707   3.913   4.228
 2153TIP3    H1 6400   2.654   3.881   4.301
 2153TIP3    H2 6401   2.721   3.837   4.172
 2154TIP3   OH2 6402   0.869   6.168   6.440
 2154TIP3    H1 6403   0.845   6.260   6.444
 2154TIP3    H2 6404   0.964   6.167   6.430
 2155TIP3   OH2 6405   8.384   5.824   1.444
 2155TIP3    H1 6406   8.330   5.888   1.490
 2155TIP3    H2 6407   8.435   5.875   1.382
 2156TIP3   OH2 6408   1.826   7.813   3.649
 2156TIP3    H1 6409   1.790   7.898   3.676
 2156TIP3    H2 6410   1.879   7.785   3.724
 2157TIP3   OH2 6411   5.619   3.484   0.460
 2157TIP3    H1 6412   5.531   3.484   0.497
 2157TIP3    H2 6413   5.642   3.391   0.453
 2158TIP3   OH2 6414   0.928   0.100   1.100
 2158TIP3    H1 6415   0.846   0.142   1.125
 2158TIP3    H2 6416   0.918   0.009   1.129
 2159TIP3   OH2 6417   7.021   4.378   4.778
 2159TIP3    H1 6418   7.094   4.404   4.722
 2159TIP3    H2 6419   6.946   4.372   4.720
 2160TIP3   OH2 6420   6.524   1.024   0.622
 2160TIP3    H1 6421   6.551   1.109   0.586
 2160TIP3    H2 6422   6.439   1.041   0.663
 2161TIP3   OH2 6423   5.822   1.370   3.474
 2161TIP3    H1 6424   5.854   1.289   3.514
 2161TIP3    H2 6425   5.864   1.440   3.525
 2162TIP3   OH2 6426   7.599   3.127   1.093
 2162TIP3    H1 6427   7.556   3.066   1.034
 2162TIP3    H2 6428   7.609   3.207   1.042
 2163TIP3   OH2 6429   0.934   6.200   5.705
 2163TIP3    H1 6430   0.939   6.284   5.751
 2163TIP3    H2 6431   0.955   6.135   5.772
 2164TIP3   OH2 6432   6.768   5.859   4.063
 2164TIP3    H1 6433   6.815   5.884   3.984
 2164TIP3    H2 6434   6.720   5.938   4.089
 2165TIP3   OH2 6435   4.794   7.173   5.025
 2165TIP3    H1 6436   4.744   7.113   4.970
 2165TIP3    H2 6437   4.765   7.154   5.114
 2166TIP3   OH2 6438   3.387   6.421   5.982
 2166TIP3    H1 6439   3.311   6.475   5.961
 2166TIP3    H2 6440   3.352   6.332   5.990
 2167TIP3   OH2 6441   2.025   1.937   3.476
 2167TIP3    H1 6442   2.094   1.929   3.542
 2167TIP3    H2 6443   2.054   1.881   3.404
 2168TIP3   OH2 6444   6.722   2.473   4.903
 2168TIP3    H1 6445   6.648   2.530   4.881
 2168TIP3    H2 6446   6.799   2.524   4.879
 2169TIP3   OH2 6447   7.462   6.925   4.136
 2169TIP3    H1 6448   7.540   6.947   4.084
 2169TIP3    H2 6449   7.487   6.945   4.226
 2170TIP3   OH2 6450   0.264   1.908   0.913
 2170TIP3    H1 6451   0.310   1.849   0.854
 2170TIP3    H2 6452   0.325   1.980   0.927
 2171TIP3   OH2 6453   6.506   5.064   1.630
 2171TIP3    H1 6454   6.450   5.122   1.682
 2171TIP3    H2 6455   6.530   4.993   1.689
 2172TIP3   OH2 6456   5.069   3.823   1.903
 2172TIP3    H1 6457   5.097   3.908   1.935
 2172TIP3    H2 6458   5.115   3.760   1.959
 2173TIP3   OH2 6459   5.381   5.721   1.001
 2173TIP3    H1 6460   5.452   5.756   1.055
 2173TIP3    H2 6461   5.414   5.636   0.970
 2174TIP3   OH2 6462   3.783   0.838   5.267
 2174TIP3    H1 6463   3.831   0.914   5.301
 2174TIP3    H2 6464   3.839   0.763   5.288
 2175TIP3   OH2 6465   4.885   0.251   6.346
 2175TIP3    H1 6466   4.972   0.211   6.347
 2175TIP3    H2 6467   4.895   0.326   6.287
 2176TIP3   OH2 6468   2.679   5.781   0.412
 2176TIP3    H1 6469   2.717   5.836   0.344
 2176TIP3    H2 6470   2.754   5.734   0.450
 2177TIP3   OH2 6471   3.374   2.844   6.731
 2177TIP3    H1 6472   3.306   2.912   6.725
 2177TIP3    H2 6473   3.435   2.877   6.797
 2178TIP3   OH2 6474   6.740   0.215   6.243
 2178TIP3    H1 6475   6.744   0.310   6.253
 2178TIP3    H2 6476   6.647   0.194   6.245
 2179TIP3   OH2 6477   8.176   6.190   6.554
 2179TIP3    H1 6478   8.092   6.177   6.511
 2179TIP3    H2 6479   8.233   6.227   6.487
 2180TIP3   OH2 6480   0.599   4.774   1.074
 2180TIP3    H1 6481   0.592   4.787   1.169
 2180TIP3    H2 6482   0.512   4.796   1.041
 2181TIP3   OH2 6483   5.207   4.630   1.199
 2181TIP3    H1 6484   5.119   4.595   1.208
 2181TIP3    H2 6485   5.196   4.725   1.210
 2182TIP3   OH2 6486   4.580   7.050   1.850
 2182TIP3    H1 6487   4.658   7.030   1.799
 2182TIP3    H2 6488   4.607   7.121   1.908
 2183TIP3   OH2 6489   0.760   5.040   1.567
 2183TIP3    H1 6490   0.849   5.075   1.554
 2183TIP3    H2 6491   0.709   5.079   1.497
 2184TIP3   OH2 6492   2.532   3.361   3.398
 2184TIP3    H1 6493   2.534   3.287   3.337
 2184TIP3    H2 6494   2.541   3.320   3.484
 2185TIP3   OH2 6495   3.076   7.616   1.328
 2185TIP3    H1 6496   3.041   7.609   1.417
 2185TIP3    H2 6497   2.999   7.632   1.274
 2186TIP3   OH2 6498   4.396   2.214   0.225
 2186TIP3    H1 6499   4.440   2.135   0.258
 2186TIP3    H2 6500   4.330   2.181   0.164
 2187TIP3   OH2 6501   2.203   4.545   3.663
 2187TIP3    H1 6502   2.117   4.585   3.651
 2187TIP3    H2 6503   2.251   4.568   3.584
 2188TIP3   OH2 6504   0.539   7.602   6.809
 2188TIP3    H1 6505   0.583   7.518   6.797
 2188TIP3    H2 6506   0.477   7.587   6.881
 2189TIP3   OH2 6507   4.325   3.913   3.593
 2189TIP3    H1 6508   4.295   3.906   3.683
 2189TIP3    H2 6509   4.303   4.003   3.567
 2190TIP3   OH2 6510   0.807   4.955   2.667
 2190TIP3    H1 6511   0.731   4.948   2.609
 2190TIP3    H2 6512   0.788   4.894   2.738
 2191TIP3   OH2 6513   1.485   5.876   1.617
 2191TIP3    H1 6514   1.566   5.830   1.594
 2191TIP3    H2 6515   1.499   5.906   1.707
 2192TIP3   OH2 6516   3.714   0.406   1.436
 2192TIP3    H1 6517   3.783   0.340   1.434
 2192TIP3    H2 6518   3.713   0.443   1.348
 2193TIP3   OH2 6519   3.936   4.757   6.731
 2193TIP3    H1 6520   3.865   4.693   6.730
 2193TIP3    H2 6521   3.976   4.750   6.644
 2194TIP3   OH2 6522   7.907   2.174   5.020
 2194TIP3    H1 6523   7.861   2.194   5.101
 2194TIP3    H2 6524   7.837   2.162   4.955
 2195TIP3   OH2 6525   4.593   5.661   0.328
 2195TIP3    H1 6526   4.578   5.730   0.264
 2195TIP3    H2 6527   4.506   5.629   0.351
 2196TIP3   OH2 6528   4.346   4.025   3.870
 2196TIP3    H1 6529   4.340   4.095   3.934
 2196TIP3    H2 6530   4.259   3.985   3.871
 2197TIP3   OH2 6531   4.331   0.149   2.417
 2197TIP3    H1 6532   4.355   0.058   2.403
 2197TIP3    H2 6533   4.329   0.159   2.512
 2198TIP3   OH2 6534   4.692   1.547   3.286
 2198TIP3    H1 6535   4.722   1.632   3.256
 2198TIP3    H2 6536   4.617   1.566   3.343
 2199TIP3   OH2 6537   7.984   1.204   6.357
 2199TIP3    H1 6538   8.018   1.127   6.310
 2199TIP3    H2 6539   7.978   1.272   6.290
 2200TIP3   OH2 6540   2.219   6.766   5.114
 2200TIP3    H1 6541   2.216   6.754   5.019
 2200TIP3    H2 6542   2.295   6.823   5.128
 2201TIP3   OH2 6543   3.332   7.555   1.264
 2201TIP3    H1 6544   3.338   7.462   1.284
 2201TIP3    H2 6545   3.242   7.578   1.285
 2202TIP3   OH2 6546   7.661   5.842   1.901
 2202TIP3    H1 6547   7.630   5.839   1.991
 2202TIP3    H2 6548   7.657   5.751   1.871
 2203TIP3   OH2 6549   0.119   6.249   1.305
 2203TIP3    H1 6550   0.102   6.302   1.227
 2203TIP3    H2 6551   0.178   6.302   1.358
 2204TIP3   OH2 6552   0.242   7.029   6.068
 2204TIP3    H1 6553   0.296   7.070   6.135
 2204TIP3    H2 6554   0.159   7.076   6.071
 2205TIP3   OH2 6555   5.986   7.016   1.464
 2205TIP3    H1 6556   6.060   6.973   1.420
 2205TIP3    H2 6557   5.978   6.971   1.547
 2206TIP3   OH2 6558   5.902   7.937   1.859
 2206TIP3    H1 6559   5.950   7.907   1.935
 2206TIP3    H2 6560   5.872   7.857   1.816
 2207TIP3   OH2 6561   8.185   1.673   1.167
 2207TIP3    H1 6562   8.209   1.659   1.075
 2207TIP3    H2 6563   8.142   1.758   1.168
 2208TIP3   OH2 6564   0.620   4.963   3.657
 2208TIP3    H1 6565   0.712   4.988   3.666
 2208TIP3    H2 6566   0.580   5.034   3.608
 2209TIP3   OH2 6567   4.471   4.674   3.337
 2209TIP3    H1 6568   4.535   4.608   3.365
 2209TIP3    H2 6569   4.400   4.665   3.400
 2210TIP3   OH2 6570   1.583   4.121   0.448
 2210TIP3    H1 6571   1.592   4.147   0.540
 2210TIP3    H2 6572   1.500   4.073   0.445
 2211TIP3   OH2 6573   0.460   5.461   6.580
 2211TIP3    H1 6574   0.544   5.417   6.564
 2211TIP3    H2 6575   0.453   5.465   6.675
 2212TIP3   OH2 6576   3.693   2.729   5.506
 2212TIP3    H1 6577   3.717   2.818   5.483
 2212TIP3    H2 6578   3.657   2.735   5.594
 2213TIP3   OH2 6579   3.265   7.034   3.216
 2213TIP3    H1 6580   3.196   6.969   3.228
 2213TIP3    H2 6581   3.267   7.050   3.121
 2214TIP3   OH2 6582   2.872   6.195   4.629
 2214TIP3    H1 6583   2.936   6.130   4.602
 2214TIP3    H2 6584   2.897   6.275   4.582
 2215TIP3   OH2 6585   1.871   7.223   3.555
 2215TIP3    H1 6586   1.899   7.303   3.512
 2215TIP3    H2 6587   1.803   7.188   3.497
 2216TIP3   OH2 6588   3.630   3.892   0.908
 2216TIP3    H1 6589   3.646   3.802   0.880
 2216TIP3    H2 6590   3.700   3.943   0.868
 2217TIP3   OH2 6591   4.415   7.040   3.885
 2217TIP3    H1 6592   4.507   7.055   3.862
 2217TIP3    H2 6593   4.383   6.981   3.817
 2218TIP3   OH2 6594   4.248   5.528   5.817
 2218TIP3    H1 6595   4.206   5.549   5.734
 2218TIP3    H2 6596   4.239   5.608   5.869
 2219TIP3   OH2 6597   2.331   4.499   0.226
 2219TIP3    H1 6598   2.348   4.414   0.185
 2219TIP3    H2 6599   2.268   4.480   0.295
 2220TIP3   OH2 6600   0.215   7.494   2.161
 2220TIP3    H1 6601   0.169   7.533   2.235
 2220TIP3    H2 6602   0.298   7.464   2.197
 2221TIP3   OH2 6603   5.992   3.950   2.607
 2221TIP3    H1 6604   6.073   3.956   2.658
 2221TIP3    H2 6605   5.980   3.856   2.593
 2222TIP3   OH2 6606   0.733   6.762   5.449
 2222TIP3    H1 6607   0.639   6.764   5.431
 2222TIP3    H2 6608   0.769   6.836   5.401
 2223TIP3   OH2 6609   1.522   7.114   6.777
 2223TIP3    H1 6610   1.455   7.170   6.815
 2223TIP3    H2 6611   1.601   7.132   6.828
 2224TIP3   OH2 6612   0.952   6.521   0.024
 2224TIP3    H1 6613   0.973   6.507   0.116
 2224TIP3    H2 6614   0.878   6.462   0.007
 2225TIP3   OH2 6615   7.540   4.829   6.620
 2225TIP3    H1 6616   7.497   4.909   6.591
 2225TIP3    H2 6617   7.530   4.768   6.547
 2226TIP3   OH2 6618   0.460   4.361   3.241
 2226TIP3    H1 6619   0.426   4.335   3.155
 2226TIP3    H2 6620   0.553   4.377   3.225
 2227TIP3   OH2 6621   2.027   5.000   0.786
 2227TIP3    H1 6622   1.960   5.007   0.854
 2227TIP3    H2 6623   2.103   4.962   0.831
 2228TIP3   OH2 6624   6.413   1.352   0.168
 2228TIP3    H1 6625   6.412   1.440   0.130
 2228TIP3    H2 6626   6.505   1.324   0.160
 2229TIP3   OH2 6627   3.264   1.902   2.773
 2229TIP3    H1 6628   3.194   1.931   2.715
 2229TIP3    H2 6629   3.333   1.968   2.762
 2230TIP3   OH2 6630   8.210   5.684   5.799
 2230TIP3    H1 6631   8.248   5.717   5.880
 2230TIP3    H2 6632   8.116   5.675   5.818
 2231TIP3   OH2 6633   1.453   7.389   4.677
 2231TIP3    H1 6634   1.452   7.411   4.770
 2231TIP3    H2 6635   1.543   7.408   4.649
 2232TIP3   OH2 6636   7.495   2.881   1.887
 2232TIP3    H1 6637   7.541   2.941   1.945
 2232TIP3    H2 6638   7.403   2.906   1.895
 2233TIP3   OH2 6639   7.051   4.112   4.700
 2233TIP3    H1 6640   7.142   4.088   4.721
 2233TIP3    H2 6641   7.039   4.198   4.739
 2234TIP3   OH2 6642   7.615   2.375   1.891
 2234TIP3    H1 6643   7.706   2.402   1.895
 2234TIP3    H2 6644   7.569   2.448   1.850
 2235TIP3   OH2 6645   6.781   5.799   0.349
 2235TIP3    H1 6646   6.853   5.751   0.390
 2235TIP3    H2 6647   6.824   5.871   0.302
 2236TIP3   OH2 6648   1.541   6.663   1.297
 2236TIP3    H1 6649   1.528   6.703   1.211
 2236TIP3    H2 6650   1.544   6.738   1.357
 2237TIP3   OH2 6651   2.918   5.716   0.715
 2237TIP3    H1 6652   2.850   5.707   0.782
 2237TIP3    H2 6653   2.999   5.724   0.765
 2238TIP3   OH2 6654   0.085   2.871   2.500
 2238TIP3    H1 6655   0.024   2.936   2.536
 2238TIP3    H2 6656   0.169   2.917   2.495
 2239TIP3   OH2 6657   6.811   6.031   2.925
 2239TIP3    H1 6658   6.807   6.098   2.857
 2239TIP3    H2 6659   6.887   5.978   2.902
 2240TIP3   OH2 6660   2.609   3.922   5.766
 2240TIP3    H1 6661   2.520   3.905   5.733
 2240TIP3    H2 6662   2.598   3.926   5.861
 2241TIP3   OH2 6663   7.145   3.971   1.297
 2241TIP3    H1 6664   7.125   3.886   1.336
 2241TIP3    H2 6665   7.238   3.966   1.273
 2242TIP3   OH2 6666   7.962   3.677   1.288
 2242TIP3    H1 6667   7.905   3.603   1.268
 2242TIP3    H2 6668   8.025   3.680   1.215
 2243TIP3   OH2 6669   6.376   2.243   1.194
 2243TIP3    H1 6670   6.433   2.188   1.139
 2243TIP3    H2 6671   6.322   2.291   1.132
 2244TIP3   OH2 6672   1.469   1.222   4.174
 2244TIP3    H1 6673   1.398   1.160   4.192
 2244TIP3    H2 6674   1.476   1.223   4.078
 2245TIP3   OH2 6675   4.754   4.962   0.618
 2245TIP3    H1 6676   4.675   4.967   0.564
 2245TIP3    H2 6677   4.722   4.963   0.708
 2246TIP3   OH2 6678   2.589   1.662   3.368
 2246TIP3    H1 6679   2.673   1.619   3.382
 2246TIP3    H2 6680   2.533   1.628   3.437
 2247TIP3   OH2 6681   5.795   4.758   4.122
 2247TIP3    H1 6682   5.886   4.786   4.109
 2247TIP3    H2 6683   5.799   4.701   4.199
 2248TIP3   OH2 6684   6.883   0.410   3.696
 2248TIP3    H1 6685   6.886   0.422   3.601
 2248TIP3    H2 6686   6.874   0.315   3.708
 2249TIP3   OH2 6687   5.991   1.557   3.250
 2249TIP3    H1 6688   6.082   1.583   3.262
 2249TIP3    H2 6689   5.995   1.485   3.187
 2250TIP3   OH2 6690   0.222   5.847   4.942
 2250TIP3    H1 6691   0.287   5.884   5.002
 2250TIP3    H2 6692   0.147   5.906   4.948
 2251TIP3   OH2 6693   2.557   1.008   3.262
 2251TIP3    H1 6694   2.538   1.072   3.193
 2251TIP3    H2 6695   2.608   0.940   3.219
 2252TIP3   OH2 6696   8.271   1.368   0.753
 2252TIP3    H1 6697   8.209   1.302   0.782
 2252TIP3    H2 6698   8.354   1.342   0.792
 2253TIP3   OH2 6699   1.911   1.198   3.774
 2253TIP3    H1 6700   1.887   1.106   3.764
 2253TIP3    H2 6701   1.853   1.230   3.843
 2254TIP3   OH2 6702   7.234   1.191   0.152
 2254TIP3    H1 6703   7.263   1.205   0.061
 2254TIP3    H2 6704   7.146   1.156   0.144
 2255TIP3   OH2 6705   2.543   6.778   5.421
 2255TIP3    H1 6706   2.504   6.692   5.432
 2255TIP3    H2 6707   2.475   6.839   5.452
 2256TIP3   OH2 6708   0.111   1.593   2.153
 2256TIP3    H1 6709   0.101   1.562   2.243
 2256TIP3    H2 6710   0.025   1.627   2.130
 2257TIP3   OH2 6711   5.349   0.095   4.624
 2257TIP3    H1 6712   5.289   0.160   4.587
 2257TIP3    H2 6713   5.303   0.012   4.614
 2258TIP3   OH2 6714   0.386   1.776   5.856
 2258TIP3    H1 6715   0.335   1.833   5.914
 2258TIP3    H2 6716   0.392   1.693   5.904
 2259TIP3   OH2 6717   7.889   5.388   6.339
 2259TIP3    H1 6718   7.892   5.368   6.432
 2259TIP3    H2 6719   7.980   5.409   6.316
 2260TIP3   OH2 6720   2.833   2.759   5.830
 2260TIP3    H1 6721   2.797   2.709   5.903
 2260TIP3    H2 6722   2.794   2.718   5.752
 2261TIP3   OH2 6723   0.880   2.966   1.419
 2261TIP3    H1 6724   0.915   3.021   1.490
 2261TIP3    H2 6725   0.785   2.970   1.431
 2262TIP3   OH2 6726   3.776   6.935   6.683
 2262TIP3    H1 6727   3.849   6.952   6.624
 2262TIP3    H2 6728   3.739   6.852   6.653
 2263TIP3   OH2 6729   0.299   6.917   5.006
 2263TIP3    H1 6730   0.232   6.959   5.061
 2263TIP3    H2 6731   0.275   6.943   4.917
 2264TIP3   OH2 6732   0.882   5.099   2.030
 2264TIP3    H1 6733   0.847   5.146   1.955
 2264TIP3    H2 6734   0.807   5.085   2.088
 2265TIP3   OH2 6735   4.989   0.943   4.505
 2265TIP3    H1 6736   4.920   0.974   4.445
 2265TIP3    H2 6737   5.068   0.942   4.451
 2266TIP3   OH2 6738   0.127   4.419   5.459
 2266TIP3    H1 6739   0.168   4.498   5.494
 2266TIP3    H2 6740   0.033   4.432   5.473
 2267TIP3   OH2 6741   6.118   0.241   3.034
 2267TIP3    H1 6742   6.065   0.306   3.080
 2267TIP3    H2 6743   6.197   0.232   3.087
 2268TIP3   OH2 6744   5.792   7.398   0.102
 2268TIP3    H1 6745   5.863   7.406   0.167
 2268TIP3    H2 6746   5.796   7.480   0.053
 2269TIP3   OH2 6747   2.280   3.855   2.333
 2269TIP3    H1 6748   2.258   3.903   2.254
 2269TIP3    H2 6749   2.337   3.914   2.382
 2270TIP3   OH2 6750   1.087   5.326   2.875
 2270TIP3    H1 6751   1.160   5.272   2.844
 2270TIP3    H2 6752   1.105   5.413   2.840
 2271TIP3   OH2 6753   7.410   7.490   0.603
 2271TIP3    H1 6754   7.362   7.463   0.681
 2271TIP3    H2 6755   7.466   7.415   0.583
 2272TIP3   OH2 6756   8.235   4.765   1.502
 2272TIP3    H1 6757   8.224   4.856   1.529
 2272TIP3    H2 6758   8.290   4.770   1.424
 2273TIP3   OH2 6759   2.846   7.828   4.836
 2273TIP3    H1 6760   2.932   7.789   4.853
 2273TIP3    H2 6761   2.784   7.757   4.849
 2274TIP3   OH2 6762   0.111   0.811   1.529
 2274TIP3    H1 6763   0.094   0.881   1.592
 2274TIP3    H2 6764   0.086   0.847   1.445
 2275TIP3   OH2 6765   5.296   3.276   1.899
 2275TIP3    H1 6766   5.335   3.347   1.847
 2275TIP3    H2 6767   5.326   3.293   1.988
 2276TIP3   OH2 6768   3.612   6.573   4.100
 2276TIP3    H1 6769   3.558   6.599   4.175
 2276TIP3    H2 6770   3.638   6.483   4.119
 2277TIP3   OH2 6771   2.665   4.210   1.161
 2277TIP3    H1 6772   2.665   4.280   1.096
 2277TIP3    H2 6773   2.597   4.235   1.223
 2278TIP3   OH2 6774   5.667   4.604   5.870
 2278TIP3    H1 6775   5.718   4.527   5.897
 2278TIP3    H2 6776   5.682   4.611   5.776
 2279TIP3   OH2 6777   2.665   6.598   2.371
 2279TIP3    H1 6778   2.570   6.585   2.370
 2279TIP3    H2 6779   2.689   6.605   2.278
 2280TIP3   OH2 6780   6.276   2.998   3.649
 2280TIP3    H1 6781   6.238   2.914   3.673
 2280TIP3    H2 6782   6.206   3.061   3.665
 2281TIP3   OH2 6783   3.741   4.102   6.651
 2281TIP3    H1 6784   3.706   4.040   6.588
 2281TIP3    H2 6785   3.833   4.113   6.627
 2282TIP3   OH2 6786   0.147   0.924   2.972
 2282TIP3    H1 6787   0.202   0.960   2.902
 2282TIP3    H2 6788   0.087   0.994   2.994
 2283TIP3   OH2 6789   5.611   7.506   6.746
 2283TIP3    H1 6790   5.555   7.518   6.669
 2283TIP3    H2 6791   5.567   7.555   6.815
 2284TIP3   OH2 6792   7.376   2.534   2.860
 2284TIP3    H1 6793   7.428   2.455   2.849
 2284TIP3    H2 6794   7.342   2.528   2.950
 2285TIP3   OH2 6795   2.762   0.130   2.890
 2285TIP3    H1 6796   2.683   0.132   2.944
 2285TIP3    H2 6797   2.798   0.042   2.902
 2286TIP3   OH2 6798   1.306   1.853   6.040
 2286TIP3    H1 6799   1.246   1.924   6.017
 2286TIP3    H2 6800   1.361   1.842   5.962
 2287TIP3   OH2 6801   4.265   0.255   3.210
 2287TIP3    H1 6802   4.319   0.224   3.283
 2287TIP3    H2 6803   4.178   0.267   3.247
 2288TIP3   OH2 6804   2.426   6.903   3.196
 2288TIP3    H1 6805   2.395   6.812   3.201
 2288TIP3    H2 6806   2.517   6.895   3.168
 2289TIP3   OH2 6807   6.572   1.002   6.090
 2289TIP3    H1 6808   6.518   1.080   6.097
 2289TIP3    H2 6809   6.648   1.020   6.146
 2290TIP3   OH2 6810   5.383   1.889   5.653
 2290TIP3    H1 6811   5.402   1.831   5.727
 2290TIP3    H2 6812   5.348   1.831   5.586
 2291TIP3   OH2 6813   5.598   2.402   2.320
 2291TIP3    H1 6814   5.530   2.404   2.387
 2291TIP3    H2 6815   5.678   2.427   2.367
 2292TIP3   OH2 6816   0.464   1.127   6.404
 2292TIP3    H1 6817   0.558   1.119   6.388
 2292TIP3    H2 6818   0.424   1.057   6.352
 2293TIP3   OH2 6819   8.120   4.730   6.122
 2293TIP3    H1 6820   8.164   4.673   6.059
 2293TIP3    H2 6821   8.039   4.683   6.145
 2294TIP3   OH2 6822   6.972   4.361   5.234
 2294TIP3    H1 6823   6.931   4.448   5.239
 2294TIP3    H2 6824   7.050   4.374   5.180
 2295TIP3   OH2 6825   2.134   6.478   3.356
 2295TIP3    H1 6826   2.093   6.473   3.442
 2295TIP3    H2 6827   2.062   6.497   3.296
 2296TIP3   OH2 6828   1.153   2.379   2.807
 2296TIP3    H1 6829   1.140   2.380   2.712
 2296TIP3    H2 6830   1.069   2.408   2.843
 2297TIP3   OH2 6831   2.379   7.644   6.356
 2297TIP3    H1 6832   2.426   7.665   6.275
 2297TIP3    H2 6833   2.442   7.595   6.409
 2298TIP3   OH2 6834   0.314   6.178   6.421
 2298TIP3    H1 6835   0.281   6.268   6.412
 2298TIP3    H2 6836   0.260   6.139   6.490
 2299TIP3   OH2 6837   5.657   2.109   4.493
 2299TIP3    H1 6838   5.600   2.032   4.494
 2299TIP3    H2 6839   5.746   2.073   4.481
 2300TIP3   OH2 6840   3.260   5.946   0.598
 2300TIP3    H1 6841   3.281   6.007   0.527
 2300TIP3    H2 6842   3.167   5.960   0.615
 2301TIP3   OH2 6843   0.645   0.543   6.485
 2301TIP3    H1 6844   0.608   0.615   6.536
 2301TIP3    H2 6845   0.671   0.582   6.402
 2302TIP3   OH2 6846   5.379   0.020   5.861
 2302TIP3    H1 6847   5.354  -0.008   5.949
 2302TIP3    H2 6848   5.382   0.115   5.866
 2303TIP3   OH2 6849   4.406   0.469   2.313
 2303TIP3    H1 6850   4.373   0.472   2.224
 2303TIP3    H2 6851   4.337   0.426   2.363
 2304TIP3   OH2 6852   4.838   4.708   4.099
 2304TIP3    H1 6853   4.920   4.665   4.076
 2304TIP3    H2 6854   4.844   4.723   4.194
 2305TIP3   OH2 6855   2.740   5.447   1.383
 2305TIP3    H1 6856   2.786   5.398   1.451
 2305TIP3    H2 6857   2.660   5.477   1.426
 2306TIP3   OH2 6858   5.788   3.941   4.636
 2306TIP3    H1 6859   5.825   3.969   4.552
 2306TIP3    H2 6860   5.826   3.855   4.652
 2307TIP3   OH2 6861   6.812   7.611   3.100
 2307TIP3    H1 6862   6.820   7.600   3.195
 2307TIP3    H2 6863   6.874   7.681   3.079
 2308TIP3   OH2 6864   6.799   7.443   0.347
 2308TIP3    H1 6865   6.741   7.440   0.423
 2308TIP3    H2 6866   6.754   7.390   0.281
 2309TIP3   OH2 6867   6.137   7.470   1.269
 2309TIP3    H1 6868   6.086   7.534   1.219
 2309TIP3    H2 6869   6.123   7.387   1.224
 2310TIP3   OH2 6870   3.904   2.268   3.122
 2310TIP3    H1 6871   3.859   2.285   3.039
 2310TIP3    H2 6872   3.847   2.207   3.168
 2311TIP3   OH2 6873   5.158   2.711   3.676
 2311TIP3    H1 6874   5.078   2.743   3.633
 2311TIP3    H2 6875   5.191   2.787   3.725
 2312TIP3   OH2 6876   6.005   7.394   5.182
 2312TIP3    H1 6877   5.926   7.402   5.236
 2312TIP3    H2 6878   6.025   7.483   5.155
 2313TIP3   OH2 6879   0.916   1.892   5.580
 2313TIP3    H1 6880   0.888   1.934   5.661
 2313TIP3    H2 6881   0.983   1.950   5.545
 2314TIP3   OH2 6882   6.251   4.452   2.698
 2314TIP3    H1 6883   6.299   4.432   2.618
 2314TIP3    H2 6884   6.297   4.404   2.767
 2315TIP3   OH2 6885   2.548   5.272   3.857
 2315TIP3    H1 6886   2.536   5.177   3.860
 2315TIP3    H2 6887   2.570   5.290   3.766
 2316TIP3   OH2 6888   2.602   7.789   2.715
 2316TIP3    H1 6889   2.542   7.727   2.757
 2316TIP3    H2 6890   2.689   7.755   2.734
 2317TIP3   OH2 6891   1.629   4.739   4.711
 2317TIP3    H1 6892   1.548   4.761   4.757
 2317TIP3    H2 6893   1.632   4.644   4.712
 2318TIP3   OH2 6894   1.451   7.750   6.747
 2318TIP3    H1 6895   1.451   7.838   6.786
 2318TIP3    H2 6896   1.469   7.691   6.820
 2319TIP3   OH2 6897   7.584   4.717   1.106
 2319TIP3    H1 6898   7.668   4.677   1.083
 2319TIP3    H2 6899   7.519   4.656   1.073
 2320TIP3   OH2 6900   0.735   5.978   3.786
 2320TIP3    H1 6901   0.809   5.978   3.724
 2320TIP3    H2 6902   0.772   6.012   3.867
 2321TIP3   OH2 6903   0.715   0.678   1.321
 2321TIP3    H1 6904   0.662   0.600   1.305
 2321TIP3    H2 6905   0.741   0.708   1.234
 2322TIP3   OH2 6906   4.684   3.089   3.615
 2322TIP3    H1 6907   4.663   3.177   3.644
 2322TIP3    H2 6908   4.679   3.035   3.694
 2323TIP3   OH2 6909   6.519   7.579   1.618
 2323TIP3    H1 6910   6.590   7.614   1.564
 2323TIP3    H2 6911   6.541   7.486   1.629
 2324TIP3   OH2 6912   6.099   0.527   4.215
 2324TIP3    H1 6913   6.022   0.554   4.166
 2324TIP3    H2 6914   6.076   0.440   4.248
 2325TIP3   OH2 6915   6.169   2.579   4.565
 2325TIP3    H1 6916   6.161   2.674   4.555
 2325TIP3    H2 6917   6.263   2.562   4.560
 2326TIP3   OH2 6918   6.883   4.515   4.959
 2326TIP3    H1 6919   6.824   4.582   4.925
 2326TIP3    H2 6920   6.920   4.473   4.881
 2327TIP3   OH2 6921   7.617   2.998   4.233
 2327TIP3    H1 6922   7.678   2.994   4.307
 2327TIP3    H2 6923   7.629   3.085   4.197
 2328TIP3   OH2 6924   3.441   0.178   2.094
 2328TIP3    H1 6925   3.421   0.231   2.017
 2328TIP3    H2 6926   3.396   0.222   2.166
 2329TIP3   OH2 6927   5.516   5.450   5.924
 2329TIP3    H1 6928   5.526   5.356   5.909
 2329TIP3    H2 6929   5.468   5.456   6.007
 2330TIP3   OH2 6930   0.125   1.480   2.399
 2330TIP3    H1 6931   0.035   1.473   2.431
 2330TIP3    H2 6932   0.173   1.520   2.472
 2331TIP3   OH2 6933   1.624   3.939   1.264
 2331TIP3    H1 6934   1.661   3.986   1.188
 2331TIP3    H2 6935   1.575   4.006   1.312
 2332TIP3   OH2 6936   6.646   5.384   2.812
 2332TIP3    H1 6937   6.675   5.401   2.722
 2332TIP3    H2 6938   6.676   5.460   2.862
 2333TIP3   OH2 6939   2.270   0.784   5.634
 2333TIP3    H1 6940   2.361   0.778   5.662
 2333TIP3    H2 6941   2.247   0.876   5.644
 2334TIP3   OH2 6942   6.820   1.529   4.034
 2334TIP3    H1 6943   6.792   1.503   3.947
 2334TIP3    H2 6944   6.741   1.564   4.075
 2335TIP3   OH2 6945   6.609   3.844   5.320
 2335TIP3    H1 6946   6.602   3.762   5.369
 2335TIP3    H2 6947   6.607   3.816   5.228
 2336TIP3   OH2 6948   0.524   2.046   4.123
 2336TIP3    H1 6949   0.586   2.084   4.185
 2336TIP3    H2 6950   0.560   1.959   4.104
 2337TIP3   OH2 6951   5.851   7.371   4.149
 2337TIP3    H1 6952   5.872   7.385   4.241
 2337TIP3    H2 6953   5.757   7.353   4.148
 2338TIP3   OH2 6954   7.721   1.763   4.548
 2338TIP3    H1 6955   7.812   1.745   4.571
 2338TIP3    H2 6956   7.709   1.856   4.565
 2339TIP3   OH2 6957   4.380   0.887   3.712
 2339TIP3    H1 6958   4.423   0.958   3.664
 2339TIP3    H2 6959   4.310   0.931   3.760
 2340TIP3   OH2 6960   0.637   5.454   0.383
 2340TIP3    H1 6961   0.673   5.396   0.450
 2340TIP3    H2 6962   0.699   5.527   0.379
 2341TIP3   OH2 6963   4.245   3.403   6.568
 2341TIP3    H1 6964   4.210   3.469   6.627
 2341TIP3    H2 6965   4.253   3.449   6.484
 2342TIP3   OH2 6966   7.274   2.672   5.982
 2342TIP3    H1 6967   7.286   2.744   6.045
 2342TIP3    H2 6968   7.220   2.709   5.912
 2343TIP3   OH2 6969   6.507   5.520   0.081
 2343TIP3    H1 6970   6.434   5.479   0.128
 2343TIP3    H2 6971   6.473   5.535  -0.008
 2344TIP3   OH2 6972   1.297   5.748   6.073
 2344TIP3    H1 6973   1.380   5.760   6.119
 2344TIP3    H2 6974   1.250   5.831   6.086
 2345TIP3   OH2 6975   0.774   4.325   6.076
 2345TIP3    H1 6976   0.806   4.409   6.041
 2345TIP3    H2 6977   0.719   4.290   6.006
 2346TIP3   OH2 6978   7.189   5.127   0.216
 2346TIP3    H1 6979   7.277   5.164   0.201
 2346TIP3    H2 6980   7.201   5.065   0.287
 2347TIP3   OH2 6981   7.493   2.614   5.814
 2347TIP3    H1 6982   7.442   2.636   5.892
 2347TIP3    H2 6983   7.536   2.532   5.836
 2348TIP3   OH2 6984   6.459   0.874   4.429
 2348TIP3    H1 6985   6.508   0.814   4.373
 2348TIP3    H2 6986   6.487   0.962   4.401
 2349TIP3   OH2 6987   6.528   7.364   2.160
 2349TIP3    H1 6988   6.559   7.451   2.135
 2349TIP3    H2 6989   6.594   7.304   2.126
 2350TIP3   OH2 6990   3.809   6.435   1.767
 2350TIP3    H1 6991   3.881   6.389   1.725
 2350TIP3    H2 6992   3.838   6.526   1.773
 2351TIP3   OH2 6993   0.923   5.454   1.838
 2351TIP3    H1 6994   0.920   5.484   1.929
 2351TIP3    H2 6995   0.977   5.520   1.794
 2352TIP3   OH2 6996   1.892   0.943   6.803
 2352TIP3    H1 6997   1.976   0.926   6.759
 2352TIP3    H2 6998   1.857   1.019   6.757
 2353TIP3   OH2 6999   2.444   5.024   2.370
 2353TIP3    H1 7000   2.360   5.044   2.409
 2353TIP3    H2 7001   2.449   5.082   2.293
 2354TIP3   OH2 7002   5.049   1.193   3.630
 2354TIP3    H1 7003   5.131   1.242   3.618
 2354TIP3    H2 7004   5.059   1.116   3.574
 2355TIP3   OH2 7005   4.532   0.726   5.274
 2355TIP3    H1 7006   4.596   0.685   5.216
 2355TIP3    H2 7007   4.497   0.653   5.326
 2356TIP3   OH2 7008   2.618   1.892   1.688
 2356TIP3    H1 7009   2.666   1.910   1.608
 2356TIP3    H2 7010   2.528   1.878   1.659
 2357TIP3   OH2 7011   1.752   1.042   4.968
 2357TIP3    H1 7012   1.745   0.946   4.967
 2357TIP3    H2 7013   1.796   1.064   4.886
 2358TIP3   OH2 7014   3.617   7.088   6.426
 2358TIP3    H1 7015   3.577   7.170   6.458
 2358TIP3    H2 7016   3.643   7.107   6.336
 2359TIP3   OH2 7017   7.906   7.449   0.151
 2359TIP3    H1 7018   7.817   7.486   0.156
 2359TIP3    H2 7019   7.952   7.489   0.225
 2360TIP3   OH2 7020   2.087   1.008   4.824
 2360TIP3    H1 7021   2.154   0.947   4.791
 2360TIP3    H2 7022   2.007   0.981   4.779
 2361TIP3   OH2 7023   1.785   2.580   4.926
 2361TIP3    H1 7024   1.693   2.596   4.946
 2361TIP3    H2 7025   1.786   2.557   4.833
 2362TIP3   OH2 7026   7.990   7.367   3.767
 2362TIP3    H1 7027   7.910   7.395   3.723
 2362TIP3    H2 7028   8.046   7.445   3.766
 2363TIP3   OH2 7029   8.332   1.443   4.289
 2363TIP3    H1 7030   8.412   1.429   4.237
 2363TIP3    H2 7031   8.325   1.538   4.296
 2364TIP3   OH2 7032   0.236   1.891   4.895
 2364TIP3    H1 7033   0.210   1.968   4.947
 2364TIP3    H2 7034   0.172   1.887   4.824
 2365TIP3   OH2 7035   0.349   6.408   5.889
 2365TIP3    H1 7036   0.400   6.467   5.943
 2365TIP3    H2 7037   0.258   6.435   5.904
 2366TIP3   OH2 7038   0.584   3.041   3.348
 2366TIP3    H1 7039   0.513   3.008   3.403
 2366TIP3    H2 7040   0.595   2.975   3.280
 2367TIP3   OH2 7041   1.569   1.306   6.706
 2367TIP3    H1 7042   1.561   1.214   6.681
 2367TIP3    H2 7043   1.610   1.348   6.630
 2368TIP3   OH2 7044   3.833   2.909   6.492
 2368TIP3    H1 7045   3.897   2.972   6.459
 2368TIP3    H2 7046   3.855   2.898   6.585
 2369TIP3   OH2 7047   6.101   4.183   6.470
 2369TIP3    H1 7048   6.139   4.167   6.557
 2369TIP3    H2 7049   6.141   4.265   6.441
 2370TIP3   OH2 7050   3.577   4.591   1.394
 2370TIP3    H1 7051   3.632   4.636   1.329
 2370TIP3    H2 7052   3.521   4.533   1.342
 2371TIP3   OH2 7053   6.719   0.474   5.987
 2371TIP3    H1 7054   6.680   0.393   5.952
 2371TIP3    H2 7055   6.645   0.521   6.026
 2372TIP3   OH2 7056   4.103   2.292   4.327
 2372TIP3    H1 7057   4.073   2.262   4.241
 2372TIP3    H2 7058   4.030   2.274   4.386
 2373TIP3   OH2 7059   4.833   0.056   0.969
 2373TIP3    H1 7060   4.753   0.005   0.982
 2373TIP3    H2 7061   4.887   0.001   0.913
 2374TIP3   OH2 7062   2.982   1.393   6.337
 2374TIP3    H1 7063   3.055   1.427   6.285
 2374TIP3    H2 7064   3.024   1.354   6.414
 2375TIP3   OH2 7065   4.500   1.766   5.427
 2375TIP3    H1 7066   4.415   1.810   5.425
 2375TIP3    H2 7067   4.514   1.747   5.520
 2376TIP3   OH2 7068   1.301   5.956   3.328
 2376TIP3    H1 7069   1.259   5.999   3.402
 2376TIP3    H2 7070   1.283   5.863   3.341
 2377TIP3   OH2 7071   3.864   3.648   2.176
 2377TIP3    H1 7072   3.913   3.583   2.124
 2377TIP3    H2 7073   3.860   3.725   2.119
 2378TIP3   OH2 7074   0.761   0.371   1.079
 2378TIP3    H1 7075   0.694   0.435   1.054
 2378TIP3    H2 7076   0.728   0.287   1.047
 2379TIP3   OH2 7077   5.750   0.243   1.099
 2379TIP3    H1 7078   5.829   0.192   1.078
 2379TIP3    H2 7079   5.678   0.193   1.060
 2380TIP3   OH2 7080   5.038   2.549   0.458
 2380TIP3    H1 7081   5.108   2.484   0.459
 2380TIP3    H2 7082   5.071   2.619   0.403
 2381TIP3   OH2 7083   2.459   7.118   0.661
 2381TIP3    H1 7084   2.464   7.213   0.669
 2381TIP3    H2 7085   2.539   7.094   0.615
 2382TIP3   OH2 7086   5.037   4.140   1.678
 2382TIP3    H1 7087   5.070   4.154   1.767
 2382TIP3    H2 7088   5.114   4.152   1.622
 2383TIP3   OH2 7089   6.758   5.078   0.903
 2383TIP3    H1 7090   6.702   5.080   0.825
 2383TIP3    H2 7091   6.808   5.160   0.899
 2384TIP3   OH2 7092   4.781   7.639   2.856
 2384TIP3    H1 7093   4.775   7.711   2.794
 2384TIP3    H2 7094   4.690   7.613   2.872
 2385TIP3   OH2 7095   0.640   4.460   6.467
 2385TIP3    H1 7096   0.721   4.486   6.511
 2385TIP3    H2 7097   0.605   4.541   6.431
 2386TIP3   OH2 7098   1.817   3.532   6.310
 2386TIP3    H1 7099   1.865   3.575   6.239
 2386TIP3    H2 7100   1.871   3.457   6.334
 2387TIP3   OH2 7101   6.044   5.914   2.352
 2387TIP3    H1 7102   6.014   5.893   2.441
 2387TIP3    H2 7103   6.052   6.009   2.352
 2388TIP3   OH2 7104   2.303   3.921   0.946
 2388TIP3    H1 7105   2.381   3.932   1.000
 2388TIP3    H2 7106   2.251   3.854   0.990
 2389TIP3   OH2 7107   2.541   2.998   6.300
 2389TIP3    H1 7108   2.516   3.016   6.209
 2389TIP3    H2 7109   2.587   3.076   6.329
 2390TIP3   OH2 7110   0.913   1.928   4.657
 2390TIP3    H1 7111   0.991   1.982   4.643
 2390TIP3    H2 7112   0.849   1.988   4.696
 2391TIP3   OH2 7113   7.029   3.029   0.387
 2391TIP3    H1 7114   6.990   2.992   0.466
 2391TIP3    H2 7115   7.117   2.991   0.384
 2392TIP3   OH2 7116   8.057   2.399   4.430
 2392TIP3    H1 7117   8.105   2.477   4.402
 2392TIP3    H2 7118   7.980   2.396   4.373
 2393TIP3   OH2 7119   0.369   1.964   4.364
 2393TIP3    H1 7120   0.431   1.896   4.392
 2393TIP3    H2 7121   0.406   1.998   4.283
 2394TIP3   OH2 7122   4.799   6.580   3.440
 2394TIP3    H1 7123   4.796   6.526   3.361
 2394TIP3    H2 7124   4.892   6.587   3.461
 2395TIP3   OH2 7125   0.261   0.080   6.538
 2395TIP3    H1 7126   0.172   0.106   6.562
 2395TIP3    H2 7127   0.312   0.160   6.545
 2396TIP3   OH2 7128   3.603   1.421   2.863
 2396TIP3    H1 7129   3.662   1.378   2.801
 2396TIP3    H2 7130   3.619   1.515   2.850
 2397TIP3   OH2 7131   6.922   6.745   0.055
 2397TIP3    H1 7132   7.012   6.739   0.090
 2397TIP3    H2 7133   6.912   6.665   0.003
 2398TIP3   OH2 7134   0.378   4.579   5.349
 2398TIP3    H1 7135   0.463   4.589   5.308
 2398TIP3    H2 7136   0.316   4.614   5.285
 2399TIP3   OH2 7137   6.422   5.267   4.849
 2399TIP3    H1 7138   6.477   5.240   4.776
 2399TIP3    H2 7139   6.457   5.352   4.875
 2400TIP3   OH2 7140   5.142   5.674   2.091
 2400TIP3    H1 7141   5.222   5.622   2.100
 2400TIP3    H2 7142   5.172   5.761   2.066
 2401TIP3   OH2 7143   8.351   7.811   3.235
 2401TIP3    H1 7144   8.291   7.777   3.302
 2401TIP3    H2 7145   8.295   7.858   3.174
 2402TIP3   OH2 7146   2.479   1.735   3.103
 2402TIP3    H1 7147   2.524   1.681   3.169
 2402TIP3    H2 7148   2.405   1.681   3.075
 2403TIP3   OH2 7149   4.316   7.291   5.686
 2403TIP3    H1 7150   4.399   7.246   5.700
 2403TIP3    H2 7151   4.258   7.222   5.652
 2404TIP3   OH2 7152   5.388   0.907   4.662
 2404TIP3    H1 7153   5.414   0.990   4.622
 2404TIP3    H2 7154   5.299   0.922   4.694
 2405TIP3   OH2 7155   5.921   7.815   3.587
 2405TIP3    H1 7156   5.924   7.720   3.597
 2405TIP3    H2 7157   5.854   7.831   3.521
 2406TIP3   OH2 7158   7.711   2.215   3.405
 2406TIP3    H1 7159   7.618   2.229   3.391
 2406TIP3    H2 7160   7.727   2.126   3.376
 2407TIP3   OH2 7161   7.149   1.853   5.397
 2407TIP3    H1 7162   7.239   1.827   5.375
 2407TIP3    H2 7163   7.155   1.888   5.485
 2408TIP3   OH2 7164   2.921   4.534   1.762
 2408TIP3    H1 7165   2.929   4.468   1.694
 2408TIP3    H2 7166   2.827   4.543   1.775
 2409TIP3   OH2 7167   8.224   0.090   3.488
 2409TIP3    H1 7168   8.203   0.031   3.561
 2409TIP3    H2 7169   8.202   0.039   3.410
 2410TIP3   OH2 7170   7.034   5.763   4.671
 2410TIP3    H1 7171   7.080   5.726   4.746
 2410TIP3    H2 7172   7.103   5.783   4.607
 2411TIP3   OH2 7173   5.158   5.415   3.979
 2411TIP3    H1 7174   5.108   5.430   4.059
 2411TIP3    H2 7175   5.093   5.383   3.916
 2412TIP3   OH2 7176   0.684   1.470   0.063
 2412TIP3    H1 7177   0.700   1.393   0.117
 2412TIP3    H2 7178   0.636   1.436  -0.013
 2413TIP3   OH2 7179   4.523   0.243   1.749
 2413TIP3    H1 7180   4.465   0.225   1.823
 2413TIP3    H2 7181   4.588   0.174   1.752
 2414TIP3   OH2 7182   1.382   5.655   2.467
 2414TIP3    H1 7183   1.403   5.707   2.390
 2414TIP3    H2 7184   1.345   5.718   2.529
 2415TIP3   OH2 7185   2.887   7.581   6.322
 2415TIP3    H1 7186   2.938   7.599   6.401
 2415TIP3    H2 7187   2.926   7.501   6.287
 2416TIP3   OH2 7188   4.352   7.363   3.088
 2416TIP3    H1 7189   4.407   7.298   3.131
 2416TIP3    H2 7190   4.263   7.329   3.097
 2417TIP3   OH2 7191   5.172   1.189   0.463
 2417TIP3    H1 7192   5.088   1.190   0.510
 2417TIP3    H2 7193   5.235   1.224   0.527
 2418TIP3   OH2 7194   2.615   4.316   2.229
 2418TIP3    H1 7195   2.681   4.342   2.293
 2418TIP3    H2 7196   2.642   4.359   2.148
 2419TIP3   OH2 7197   3.911   0.207   6.049
 2419TIP3    H1 7198   3.967   0.281   6.074
 2419TIP3    H2 7199   3.868   0.181   6.130
 2420TIP3   OH2 7200   2.733   6.145   4.046
 2420TIP3    H1 7201   2.774   6.229   4.065
 2420TIP3    H2 7202   2.767   6.119   3.961
 2421TIP3   OH2 7203   6.273   4.138   1.004
 2421TIP3    H1 7204   6.336   4.200   0.967
 2421TIP3    H2 7205   6.189   4.186   1.003
 2422TIP3   OH2 7206   5.218   6.330   2.044
 2422TIP3    H1 7207   5.253   6.372   2.123
 2422TIP3    H2 7208   5.220   6.399   1.978
 2423TIP3   OH2 7209   4.254   5.468   4.397
 2423TIP3    H1 7210   4.191   5.537   4.377
 2423TIP3    H2 7211   4.263   5.470   4.492
 2424TIP3   OH2 7212   7.717   1.578   6.811
 2424TIP3    H1 7213   7.792   1.571   6.870
 2424TIP3    H2 7214   7.671   1.494   6.820
 2425TIP3   OH2 7215   0.143   5.989   6.572
 2425TIP3    H1 7216   0.170   6.031   6.654
 2425TIP3    H2 7217   0.138   5.896   6.593
 2426TIP3   OH2 7218   6.104   2.127   4.608
 2426TIP3    H1 7219   6.198   2.110   4.608
 2426TIP3    H2 7220   6.063   2.041   4.598
 2427TIP3   OH2 7221   3.878   2.653   4.819
 2427TIP3    H1 7222   3.863   2.717   4.888
 2427TIP3    H2 7223   3.974   2.647   4.813
 2428TIP3   OH2 7224   5.405   4.961   0.979
 2428TIP3    H1 7225   5.368   4.890   0.926
 2428TIP3    H2 7226   5.496   4.968   0.950
 2429TIP3   OH2 7227   6.770   6.362   6.067
 2429TIP3    H1 7228   6.851   6.312   6.055
 2429TIP3    H2 7229   6.702   6.296   6.080
 2430TIP3   OH2 7230   2.451   1.337   1.261
 2430TIP3    H1 7231   2.541   1.326   1.230
 2430TIP3    H2 7232   2.432   1.256   1.308
 2431TIP3   OH2 7233   7.631   7.524   1.754
 2431TIP3    H1 7234   7.707   7.466   1.761
 2431TIP3    H2 7235   7.669   7.609   1.731
 2432TIP3   OH2 7236   3.226   4.584   3.371
 2432TIP3    H1 7237   3.179   4.533   3.437
 2432TIP3    H2 7238   3.317   4.584   3.401
 2433TIP3   OH2 7239   6.399   7.740   1.086
 2433TIP3    H1 7240   6.401   7.682   1.163
 2433TIP3    H2 7241   6.431   7.684   1.015
 2434TIP3   OH2 7242   2.687   1.928   6.253
 2434TIP3    H1 7243   2.737   1.948   6.332
 2434TIP3    H2 7244   2.687   1.832   6.248
 2435TIP3   OH2 7245   6.911   6.415   2.728
 2435TIP3    H1 7246   6.845   6.473   2.690
 2435TIP3    H2 7247   6.861   6.338   2.755
 2436TIP3   OH2 7248   0.571   3.194   4.565
 2436TIP3    H1 7249   0.663   3.169   4.561
 2436TIP3    H2 7250   0.531   3.129   4.623
 2437TIP3   OH2 7251   7.191   7.410   5.624
 2437TIP3    H1 7252   7.106   7.434   5.587
 2437TIP3    H2 7253   7.188   7.315   5.631
 2438TIP3   OH2 7254   7.961   3.569   2.775
 2438TIP3    H1 7255   8.041   3.604   2.736
 2438TIP3    H2 7256   7.938   3.495   2.718
 2439TIP3   OH2 7257   7.875   1.563   0.341
 2439TIP3    H1 7258   7.912   1.579   0.254
 2439TIP3    H2 7259   7.781   1.560   0.327
 2440TIP3   OH2 7260   0.564   0.446   4.075
 2440TIP3    H1 7261   0.491   0.438   4.137
 2440TIP3    H2 7262   0.640   0.415   4.125
 2441TIP3   OH2 7263   7.290   6.600   1.987
 2441TIP3    H1 7264   7.292   6.696   1.986
 2441TIP3    H2 7265   7.213   6.579   2.040
 2442TIP3   OH2 7266   2.060   2.789   5.979
 2442TIP3    H1 7267   2.005   2.860   5.943
 2442TIP3    H2 7268   2.138   2.833   6.011
 2443TIP3   OH2 7269   3.941   2.166   4.548
 2443TIP3    H1 7270   4.014   2.105   4.562
 2443TIP3    H2 7271   3.960   2.239   4.606
 2444TIP3   OH2 7272   2.958   3.229   5.184
 2444TIP3    H1 7273   2.922   3.143   5.167
 2444TIP3    H2 7274   3.050   3.223   5.156
 2445TIP3   OH2 7275   5.989   2.545   6.537
 2445TIP3    H1 7276   6.028   2.511   6.617
 2445TIP3    H2 7277   6.028   2.494   6.467
 2446TIP3   OH2 7278   4.618   4.956   6.020
 2446TIP3    H1 7279   4.606   4.929   6.111
 2446TIP3    H2 7280   4.571   5.039   6.013
 2447TIP3   OH2 7281   5.371   4.906   3.771
 2447TIP3    H1 7282   5.390   4.837   3.707
 2447TIP3    H2 7283   5.288   4.879   3.811
 2448TIP3   OH2 7284   5.533   4.685   0.760
 2448TIP3    H1 7285   5.606   4.733   0.720
 2448TIP3    H2 7286   5.455   4.736   0.736
 2449TIP3   OH2 7287   7.607   5.031   3.689
 2449TIP3    H1 7288   7.677   5.095   3.673
 2449TIP3    H2 7289   7.626   4.996   3.777
 2450TIP3   OH2 7290   3.048   2.163   2.146
 2450TIP3    H1 7291   3.040   2.255   2.122
 2450TIP3    H2 7292   2.986   2.118   2.089
 2451TIP3   OH2 7293   5.296   4.402   1.649
 2451TIP3    H1 7294   5.211   4.386   1.689
 2451TIP3    H2 7295   5.293   4.494   1.621
 2452TIP3   OH2 7296   7.235   4.680   1.564
 2452TIP3    H1 7297   7.158   4.686   1.507
 2452TIP3    H2 7298   7.310   4.680   1.504
 2453TIP3   OH2 7299   0.699   6.464   0.362
 2453TIP3    H1 7300   0.604   6.455   0.360
 2453TIP3    H2 7301   0.714   6.557   0.376
 2454TIP3   OH2 7302   7.975   0.035   1.172
 2454TIP3    H1 7303   8.068   0.018   1.188
 2454TIP3    H2 7304   7.930  -0.009   1.244
 2455TIP3   OH2 7305   2.102   0.344   6.052
 2455TIP3    H1 7306   2.119   0.438   6.053
 2455TIP3    H2 7307   2.019   0.335   6.098
 2456TIP3   OH2 7308   7.558   1.395   0.081
 2456TIP3    H1 7309   7.634   1.355   0.038
 2456TIP3    H2 7310   7.483   1.354   0.038
 2457TIP3   OH2 7311   3.416   2.112   0.956
 2457TIP3    H1 7312   3.327   2.148   0.958
 2457TIP3    H2 7313   3.411   2.035   1.012
 2458TIP3   OH2 7314   3.628   6.342   4.865
 2458TIP3    H1 7315   3.703   6.366   4.811
 2458TIP3    H2 7316   3.553   6.349   4.806
 2459TIP3   OH2 7317   5.018   5.550   6.727
 2459TIP3    H1 7318   4.966   5.486   6.775
 2459TIP3    H2 7319   5.013   5.630   6.780
 2460TIP3   OH2 7320   3.486   1.973   6.029
 2460TIP3    H1 7321   3.517   1.970   6.120
 2460TIP3    H2 7322   3.432   1.895   6.020
 2461TIP3   OH2 7323   6.687   3.690   0.914
 2461TIP3    H1 7324   6.745   3.619   0.942
 2461TIP3    H2 7325   6.614   3.688   0.977
 2462TIP3   OH2 7326   5.850   6.057   2.756
 2462TIP3    H1 7327   5.943   6.077   2.769
 2462TIP3    H2 7328   5.843   5.964   2.777
 2463TIP3   OH2 7329   1.944   4.826   1.744
 2463TIP3    H1 7330   2.016   4.845   1.805
 2463TIP3    H2 7331   1.943   4.901   1.684
 2464TIP3   OH2 7332   7.513   5.959   6.316
 2464TIP3    H1 7333   7.476   5.939   6.402
 2464TIP3    H2 7334   7.603   5.928   6.321
 2465TIP3   OH2 7335   5.304   5.871   1.596
 2465TIP3    H1 7336   5.219   5.908   1.574
 2465TIP3    H2 7337   5.364   5.912   1.534
 2466TIP3   OH2 7338   0.553   1.990   1.620
 2466TIP3    H1 7339   0.548   1.925   1.690
 2466TIP3    H2 7340   0.462   2.004   1.594
 2467TIP3   OH2 7341   3.960   1.584   2.554
 2467TIP3    H1 7342   4.006   1.587   2.638
 2467TIP3    H2 7343   3.983   1.498   2.518
 2468TIP3   OH2 7344   4.844   4.133   5.022
 2468TIP3    H1 7345   4.794   4.172   4.951
 2468TIP3    H2 7346   4.835   4.039   5.008
 2469TIP3   OH2 7347   4.445   5.086   0.975
 2469TIP3    H1 7348   4.395   5.004   0.970
 2469TIP3    H2 7349   4.379   5.155   0.967
 2470TIP3   OH2 7350   3.078   5.386   1.042
 2470TIP3    H1 7351   2.987   5.398   1.013
 2470TIP3    H2 7352   3.070   5.366   1.136
 2471TIP3   OH2 7353   6.189   5.553   4.392
 2471TIP3    H1 7354   6.094   5.552   4.382
 2471TIP3    H2 7355   6.219   5.625   4.337
 2472TIP3   OH2 7356   6.864   1.086   3.797
 2472TIP3    H1 7357   6.822   1.171   3.782
 2472TIP3    H2 7358   6.829   1.057   3.881
 2473TIP3   OH2 7359   7.388   5.780   1.330
 2473TIP3    H1 7360   7.385   5.829   1.413
 2473TIP3    H2 7361   7.474   5.737   1.331
 2474TIP3   OH2 7362   5.068   0.411   0.355
 2474TIP3    H1 7363   4.989   0.385   0.403
 2474TIP3    H2 7364   5.047   0.393   0.263
 2475TIP3   OH2 7365   2.587   4.652   1.099
 2475TIP3    H1 7366   2.600   4.610   1.184
 2475TIP3    H2 7367   2.596   4.746   1.117
 2476TIP3   OH2 7368   0.238   3.636   3.803
 2476TIP3    H1 7369   0.179   3.699   3.762
 2476TIP3    H2 7370   0.219   3.553   3.758
 2477TIP3   OH2 7371   1.546   1.007   5.231
 2477TIP3    H1 7372   1.516   1.030   5.319
 2477TIP3    H2 7373   1.638   0.985   5.243
 2478TIP3   OH2 7374   3.510   7.409   0.431
 2478TIP3    H1 7375   3.515   7.428   0.337
 2478TIP3    H2 7376   3.545   7.488   0.473
 2479TIP3   OH2 7377   1.440   7.208   3.115
 2479TIP3    H1 7378   1.363   7.151   3.125
 2479TIP3    H2 7379   1.512   7.147   3.094
 2480TIP3   OH2 7380   5.639   3.954   3.126
 2480TIP3    H1 7381   5.565   3.985   3.179
 2480TIP3    H2 7382   5.616   3.977   3.036
 2481TIP3   OH2 7383   3.502   3.726   0.153
 2481TIP3    H1 7384   3.440   3.666   0.194
 2481TIP3    H2 7385   3.508   3.697   0.062
 2482TIP3   OH2 7386   0.165   7.854   3.760
 2482TIP3    H1 7387   0.143   7.941   3.795
 2482TIP3    H2 7388   0.183   7.869   3.668
 2483TIP3   OH2 7389   1.194   7.646   0.547
 2483TIP3    H1 7390   1.242   7.717   0.590
 2483TIP3    H2 7391   1.168   7.682   0.463
 2484TIP3   OH2 7392   4.581   7.419   1.536
 2484TIP3    H1 7393   4.607   7.329   1.517
 2484TIP3    H2 7394   4.486   7.421   1.524
 2485TIP3   OH2 7395   6.411   5.199   1.037
 2485TIP3    H1 7396   6.487   5.231   0.989
 2485TIP3    H2 7397   6.368   5.278   1.070
 2486TIP3   OH2 7398   2.123   7.636   1.657
 2486TIP3    H1 7399   2.216   7.620   1.672
 2486TIP3    H2 7400   2.094   7.683   1.735
 2487TIP3   OH2 7401   3.391   2.543   3.459
 2487TIP3    H1 7402   3.355   2.630   3.473
 2487TIP3    H2 7403   3.316   2.490   3.431
 2488TIP3   OH2 7404   7.427   0.078   1.917
 2488TIP3    H1 7405   7.519   0.085   1.892
 2488TIP3    H2 7406   7.379   0.104   1.839
 2489TIP3   OH2 7407   3.963   0.927   2.091
 2489TIP3    H1 7408   4.025   0.983   2.046
 2489TIP3    H2 7409   3.945   0.856   2.028
 2490TIP3   OH2 7410   4.398   7.061   5.235
 2490TIP3    H1 7411   4.335   7.005   5.192
 2490TIP3    H2 7412   4.398   7.032   5.326
 2491TIP3   OH2 7413   6.990   0.600   2.958
 2491TIP3    H1 7414   7.070   0.549   2.944
 2491TIP3    H2 7415   6.939   0.586   2.878
 2492TIP3   OH2 7416   8.366   1.509   3.926
 2492TIP3    H1 7417   8.419   1.518   4.005
 2492TIP3    H2 7418   8.412   1.444   3.873
 2493TIP3   OH2 7419   5.431   1.316   3.760
 2493TIP3    H1 7420   5.487   1.299   3.684
 2493TIP3    H2 7421   5.484   1.374   3.815
 2494TIP3   OH2 7422   6.535   6.825   2.043
 2494TIP3    H1 7423   6.538   6.733   2.070
 2494TIP3    H2 7424   6.621   6.859   2.066
 2495TIP3   OH2 7425   5.619   5.939   5.997
 2495TIP3    H1 7426   5.646   5.848   6.006
 2495TIP3    H2 7427   5.595   5.966   6.086
 2496TIP3   OH2 7428   0.194   0.648   0.235
 2496TIP3    H1 7429   0.161   0.570   0.280
 2496TIP3    H2 7430   0.209   0.711   0.305
 2497TIP3   OH2 7431   5.803   7.042   5.236
 2497TIP3    H1 7432   5.816   7.115   5.297
 2497TIP3    H2 7433   5.816   7.081   5.149
 2498TIP3   OH2 7434   2.866   7.035   6.182
 2498TIP3    H1 7435   2.801   7.082   6.234
 2498TIP3    H2 7436   2.825   6.950   6.163
 2499TIP3   OH2 7437   6.254   1.744   0.823
 2499TIP3    H1 7438   6.264   1.839   0.823
 2499TIP3    H2 7439   6.279   1.717   0.735
 2500TIP3   OH2 7440   4.168   7.301   1.639
 2500TIP3    H1 7441   4.107   7.341   1.577
 2500TIP3    H2 7442   4.229   7.251   1.585
 2501TIP3   OH2 7443   2.126   0.563   5.718
 2501TIP3    H1 7444   2.172   0.547   5.801
 2501TIP3    H2 7445   2.174   0.636   5.678
 2502TIP3   OH2 7446   3.200   1.584   6.132
 2502TIP3    H1 7447   3.104   1.586   6.134
 2502TIP3    H2 7448   3.224   1.538   6.212
 2503TIP3   OH2 7449   0.708   6.151   2.819
 2503TIP3    H1 7450   0.781   6.172   2.878
 2503TIP3    H2 7451   0.651   6.094   2.871
 2504TIP3   OH2 7452   1.841   0.412   6.605
 2504TIP3    H1 7453   1.789   0.471   6.660
 2504TIP3    H2 7454   1.783   0.338   6.588
 2505TIP3   OH2 7455   4.114   0.061   6.396
 2505TIP3    H1 7456   4.138   0.148   6.429
 2505TIP3    H2 7457   4.180   0.002   6.432
 2506TIP3   OH2 7458   2.554   7.078   4.541
 2506TIP3    H1 7459   2.472   7.116   4.510
 2506TIP3    H2 7460   2.527   6.995   4.580
 2507TIP3   OH2 7461   2.955   0.007   6.844
 2507TIP3    H1 7462   3.023  -0.047   6.805
 2507TIP3    H2 7463   2.994   0.094   6.850
 2508TIP3   OH2 7464   3.895   5.206   4.942
 2508TIP3    H1 7465   3.977   5.191   4.895
 2508TIP3    H2 7466   3.847   5.268   4.887
 2509TIP3   OH2 7467   3.520   4.591   3.369
 2509TIP3    H1 7468   3.572   4.664   3.336
 2509TIP3    H2 7469   3.528   4.524   3.301
 2510TIP3   OH2 7470   6.608   7.087   1.314
 2510TIP3    H1 7471   6.549   7.079   1.389
 2510TIP3    H2 7472   6.611   7.181   1.296
 2511TIP3   OH2 7473   1.703   5.997   6.371
 2511TIP3    H1 7474   1.772   5.956   6.320
 2511TIP3    H2 7475   1.683   6.077   6.323
 2512TIP3   OH2 7476   5.975   6.245   4.910
 2512TIP3    H1 7477   5.980   6.231   5.005
 2512TIP3    H2 7478   5.997   6.160   4.872
 2513TIP3   OH2 7479   3.995   7.051   5.311
 2513TIP3    H1 7480   3.915   7.092   5.344
 2513TIP3    H2 7481   3.968   6.965   5.280
 2514TIP3   OH2 7482   7.277   2.428   3.881
 2514TIP3    H1 7483   7.277   2.340   3.920
 2514TIP3    H2 7484   7.214   2.422   3.809
 2515TIP3   OH2 7485   8.119   6.792   5.310
 2515TIP3    H1 7486   8.116   6.723   5.376
 2515TIP3    H2 7487   8.089   6.871   5.356
 2516TIP3   OH2 7488   0.955   6.653   4.856
 2516TIP3    H1 7489   0.915   6.726   4.809
 2516TIP3    H2 7490   1.044   6.683   4.875
 2517TIP3   OH2 7491   2.272   5.050   3.493
 2517TIP3    H1 7492   2.200   5.110   3.477
 2517TIP3    H2 7493   2.343   5.083   3.437
 2518TIP3   OH2 7494   6.632   2.348   6.633
 2518TIP3    H1 7495   6.613   2.390   6.550
 2518TIP3    H2 7496   6.555   2.365   6.687
 2519TIP3   OH2 7497   5.056   7.553   1.806
 2519TIP3    H1 7498   5.129   7.571   1.748
 2519TIP3    H2 7499   5.070   7.463   1.835
 2520TIP3   OH2 7500   0.744   6.757   2.868
 2520TIP3    H1 7501   0.731   6.783   2.776
 2520TIP3    H2 7502   0.659   6.722   2.894
 2521TIP3   OH2 7503   0.721   5.890   4.327
 2521TIP3    H1 7504   0.789   5.826   4.348
 2521TIP3    H2 7505   0.640   5.838   4.324
 2522TIP3   OH2 7506   3.448   5.261   4.570
 2522TIP3    H1 7507   3.431   5.291   4.660
 2522TIP3    H2 7508   3.495   5.334   4.529
 2523TIP3   OH2 7509   5.389   6.517   2.954
 2523TIP3    H1 7510   5.396   6.443   3.015
 2523TIP3    H2 7511   5.301   6.552   2.968
 2524TIP3   OH2 7512   2.422   4.199   5.639
 2524TIP3    H1 7513   2.352   4.240   5.690
 2524TIP3    H2 7514   2.501   4.213   5.691
 2525TIP3   OH2 7515   4.537   4.607   3.964
 2525TIP3    H1 7516   4.614   4.556   3.992
 2525TIP3    H2 7517   4.572   4.694   3.944
 2526TIP3   OH2 7518   4.998   3.645   2.350
 2526TIP3    H1 7519   5.083   3.613   2.382
 2526TIP3    H2 7520   4.942   3.568   2.349
 2527TIP3   OH2 7521   8.221   0.194   2.053
 2527TIP3    H1 7522   8.309   0.160   2.032
 2527TIP3    H2 7523   8.200   0.154   2.137
 2528TIP3   OH2 7524   1.652   4.853   2.489
 2528TIP3    H1 7525   1.743   4.847   2.519
 2528TIP3    H2 7526   1.658   4.876   2.396
 2529TIP3   OH2 7527   5.422   3.553   5.454
 2529TIP3    H1 7528   5.397   3.594   5.536
 2529TIP3    H2 7529   5.408   3.459   5.468
 2530TIP3   OH2 7530   7.417   0.516   6.395
 2530TIP3    H1 7531   7.322   0.524   6.409
 2530TIP3    H2 7532   7.455   0.586   6.447
 2531TIP3   OH2 7533   2.588   4.812   3.453
 2531TIP3    H1 7534   2.559   4.896   3.489
 2531TIP3    H2 7535   2.680   4.825   3.433
 2532TIP3   OH2 7536   1.870   6.225   5.166
 2532TIP3    H1 7537   1.833   6.310   5.187
 2532TIP3    H2 7538   1.870   6.221   5.070
 2533TIP3   OH2 7539   0.981   5.173   1.449
 2533TIP3    H1 7540   1.016   5.230   1.518
 2533TIP3    H2 7541   0.960   5.233   1.378
 2534TIP3   OH2 7542   4.396   3.307   4.411
 2534TIP3    H1 7543   4.491   3.299   4.413
 2534TIP3    H2 7544   4.365   3.219   4.387
 2535TIP3   OH2 7545   6.249   2.350   0.282
 2535TIP3    H1 7546   6.318   2.417   0.284
 2535TIP3    H2 7547   6.285   2.279   0.230
 2536TIP3   OH2 7548   3.822   7.831   2.131
 2536TIP3    H1 7549   3.778   7.747   2.121
 2536TIP3    H2 7550   3.916   7.809   2.134
 2537TIP3   OH2 7551   6.400   7.396   6.621
 2537TIP3    H1 7552   6.348   7.465   6.661
 2537TIP3    H2 7553   6.335   7.331   6.592
 2538TIP3   OH2 7554   0.649   0.269   1.525
 2538TIP3    H1 7555   0.638   0.182   1.486
 2538TIP3    H2 7556   0.602   0.264   1.609
 2539TIP3   OH2 7557   4.868   1.033   4.989
 2539TIP3    H1 7558   4.786   0.986   4.970
 2539TIP3    H2 7559   4.932   0.996   4.928
 2540TIP3   OH2 7560   1.228   2.401   2.543
 2540TIP3    H1 7561   1.318   2.391   2.511
 2540TIP3    H2 7562   1.178   2.336   2.493
 2541TIP3   OH2 7563   8.376   7.181   0.680
 2541TIP3    H1 7564   8.469   7.205   0.678
 2541TIP3    H2 7565   8.335   7.250   0.731
 2542TIP3   OH2 7566   6.801   5.631   4.409
 2542TIP3    H1 7567   6.724   5.652   4.356
 2542TIP3    H2 7568   6.822   5.712   4.455
 2543TIP3   OH2 7569   5.925   6.781   3.583
 2543TIP3    H1 7570   5.973   6.808   3.662
 2543TIP3    H2 7571   5.916   6.862   3.532
 2544TIP3   OH2 7572   5.676   4.089   0.975
 2544TIP3    H1 7573   5.763   4.124   0.995
 2544TIP3    H2 7574   5.693   4.017   0.914
 2545TIP3   OH2 7575   7.625   1.893   1.252
 2545TIP3    H1 7576   7.605   1.944   1.330
 2545TIP3    H2 7577   7.697   1.939   1.209
 2546TIP3   OH2 7578   7.210   1.481   2.107
 2546TIP3    H1 7579   7.197   1.406   2.049
 2546TIP3    H2 7580   7.305   1.486   2.119
 2547TIP3   OH2 7581   2.150   1.254   5.430
 2547TIP3    H1 7582   2.238   1.280   5.457
 2547TIP3    H2 7583   2.161   1.164   5.398
 2548TIP3   OH2 7584   7.901   5.585   1.159
 2548TIP3    H1 7585   7.973   5.616   1.215
 2548TIP3    H2 7586   7.885   5.658   1.099
 2549TIP3   OH2 7587   7.039   1.259   1.883
 2549TIP3    H1 7588   7.133   1.256   1.866
 2549TIP3    H2 7589   7.006   1.176   1.848
 2550TIP3   OH2 7590   1.502   1.492   3.280
 2550TIP3    H1 7591   1.464   1.473   3.194
 2550TIP3    H2 7592   1.430   1.531   3.330
 2551TIP3   OH2 7593   6.366   1.393   1.197
 2551TIP3    H1 7594   6.381   1.377   1.104
 2551TIP3    H2 7595   6.282   1.350   1.216
 2552TIP3   OH2 7596   2.235   6.030   3.123
 2552TIP3    H1 7597   2.311   6.050   3.179
 2552TIP3    H2 7598   2.178   6.106   3.133
 2553TIP3   OH2 7599   7.480   0.616   0.944
 2553TIP3    H1 7600   7.396   0.580   0.917
 2553TIP3    H2 7601   7.458   0.697   0.991
 2554TIP3   OH2 7602   8.422   4.149   4.439
 2554TIP3    H1 7603   8.414   4.111   4.527
 2554TIP3    H2 7604   8.336   4.137   4.400
 2555TIP3   OH2 7605   3.317   7.681   1.024
 2555TIP3    H1 7606   3.223   7.700   1.027
 2555TIP3    H2 7607   3.339   7.656   1.114
 2556TIP3   OH2 7608   0.044   0.303   1.253
 2556TIP3    H1 7609   0.058   0.357   1.331
 2556TIP3    H2 7610   0.015   0.219   1.287
 2557TIP3   OH2 7611   8.012   4.522   5.554
 2557TIP3    H1 7612   7.926   4.557   5.578
 2557TIP3    H2 7613   7.992   4.445   5.500
 2558TIP3   OH2 7614   3.142   2.098   1.639
 2558TIP3    H1 7615   3.195   2.067   1.566
 2558TIP3    H2 7616   3.195   2.083   1.717
 2559TIP3   OH2 7617   1.458   7.660   6.231
 2559TIP3    H1 7618   1.489   7.690   6.145
 2559TIP3    H2 7619   1.496   7.722   6.293
 2560TIP3   OH2 7620   1.639   0.198   0.457
 2560TIP3    H1 7621   1.675   0.266   0.515
 2560TIP3    H2 7622   1.644   0.236   0.370
 2561TIP3   OH2 7623   6.493   2.427   6.352
 2561TIP3    H1 7624   6.536   2.454   6.271
 2561TIP3    H2 7625   6.406   2.465   6.348
 2562TIP3   OH2 7626   1.988   1.214   0.769
 2562TIP3    H1 7627   2.032   1.251   0.845
 2562TIP3    H2 7628   1.895   1.236   0.782
 2563TIP3   OH2 7629   2.746   2.342   4.387
 2563TIP3    H1 7630   2.768   2.276   4.451
 2563TIP3    H2 7631   2.684   2.399   4.432
 2564TIP3   OH2 7632   7.069   0.678   3.362
 2564TIP3    H1 7633   7.010   0.751   3.344
 2564TIP3    H2 7634   7.112   0.702   3.444
 2565TIP3   OH2 7635   3.649   3.803   3.135
 2565TIP3    H1 7636   3.622   3.731   3.192
 2565TIP3    H2 7637   3.568   3.850   3.115
 2566TIP3   OH2 7638   4.522   4.130   3.373
 2566TIP3    H1 7639   4.511   4.034   3.375
 2566TIP3    H2 7640   4.550   4.149   3.283
 2567TIP3   OH2 7641   4.407   4.931   3.196
 2567TIP3    H1 7642   4.458   4.851   3.209
 2567TIP3    H2 7643   4.446   4.972   3.119
 2568TIP3   OH2 7644   2.223   3.597   0.383
 2568TIP3    H1 7645   2.150   3.615   0.324
 2568TIP3    H2 7646   2.182   3.584   0.469
 2569TIP3   OH2 7647   3.170   4.050   1.144
 2569TIP3    H1 7648   3.116   4.021   1.218
 2569TIP3    H2 7649   3.183   3.971   1.092
 2570TIP3   OH2 7650   0.922   3.665   1.839
 2570TIP3    H1 7651   0.833   3.694   1.860
 2570TIP3    H2 7652   0.930   3.681   1.745
 2571TIP3   OH2 7653   0.924   7.860   3.187
 2571TIP3    H1 7654   0.969   7.891   3.109
 2571TIP3    H2 7655   0.882   7.938   3.223
 2572TIP3   OH2 7656   7.392   4.828   2.307
 2572TIP3    H1 7657   7.350   4.750   2.271
 2572TIP3    H2 7658   7.399   4.811   2.401
 2573TIP3   OH2 7659   1.272   1.448   2.065
 2573TIP3    H1 7660   1.334   1.381   2.036
 2573TIP3    H2 7661   1.186   1.406   2.057
 2574TIP3   OH2 7662   2.607   6.384   2.108
 2574TIP3    H1 7663   2.536   6.381   2.044
 2574TIP3    H2 7664   2.628   6.478   2.116
 2575TIP3   OH2 7665   7.875   3.523   4.443
 2575TIP3    H1 7666   7.845   3.452   4.500
 2575TIP3    H2 7667   7.866   3.602   4.497
 2576TIP3   OH2 7668   0.802   2.861   3.604
 2576TIP3    H1 7669   0.787   2.955   3.605
 2576TIP3    H2 7670   0.829   2.842   3.514
 2577TIP3   OH2 7671   0.800   3.389   3.274
 2577TIP3    H1 7672   0.806   3.387   3.369
 2577TIP3    H2 7673   0.793   3.482   3.252
 2578TIP3   OH2 7674   0.309   3.819   0.250
 2578TIP3    H1 7675   0.328   3.752   0.315
 2578TIP3    H2 7676   0.217   3.840   0.263
 2579TIP3   OH2 7677   1.771   4.314   6.773
 2579TIP3    H1 7678   1.780   4.247   6.841
 2579TIP3    H2 7679   1.858   4.318   6.732
 2580TIP3   OH2 7680   1.001   7.768   5.622
 2580TIP3    H1 7681   1.091   7.791   5.646
 2580TIP3    H2 7682   0.946   7.815   5.684
 2581TIP3   OH2 7683   5.051   7.066   6.624
 2581TIP3    H1 7684   5.008   7.137   6.576
 2581TIP3    H2 7685   4.994   7.050   6.699
 2582TIP3   OH2 7686   4.951   4.974   2.367
 2582TIP3    H1 7687   5.005   4.975   2.288
 2582TIP3    H2 7688   4.873   5.025   2.343
 2583TIP3   OH2 7689   1.243   5.138   5.441
 2583TIP3    H1 7690   1.327   5.093   5.448
 2583TIP3    H2 7691   1.230   5.150   5.347
 2584TIP3   OH2 7692   7.357   0.904   2.477
 2584TIP3    H1 7693   7.343   0.997   2.458
 2584TIP3    H2 7694   7.449   0.898   2.501
 2585TIP3   OH2 7695   2.221   3.405   6.178
 2585TIP3    H1 7696   2.311   3.398   6.145
 2585TIP3    H2 7697   2.229   3.458   6.257
 2586TIP3   OH2 7698   6.627   4.580   4.866
 2586TIP3    H1 7699   6.534   4.561   4.860
 2586TIP3    H2 7700   6.652   4.608   4.778
 2587TIP3   OH2 7701   2.689   1.309   1.933
 2587TIP3    H1 7702   2.605   1.267   1.919
 2587TIP3    H2 7703   2.667   1.399   1.958
 2588TIP3   OH2 7704   2.550   6.067   1.138
 2588TIP3    H1 7705   2.585   6.012   1.068
 2588TIP3    H2 7706   2.571   6.156   1.112
 2589TIP3   OH2 7707   5.218   1.708   5.092
 2589TIP3    H1 7708   5.308   1.703   5.062
 2589TIP3    H2 7709   5.176   1.769   5.031
 2590TIP3   OH2 7710   4.823   4.960   6.847
 2590TIP3    H1 7711   4.908   5.003   6.840
 2590TIP3    H2 7712   4.835   4.874   6.809
 2591TIP3   OH2 7713   6.068   3.990   3.250
 2591TIP3    H1 7714   5.999   4.023   3.306
 2591TIP3    H2 7715   6.059   4.039   3.168
 2592TIP3   OH2 7716   1.031   0.401   0.409
 2592TIP3    H1 7717   0.998   0.362   0.490
 2592TIP3    H2 7718   0.970   0.373   0.341
 2593TIP3   OH2 7719   6.966   3.949   3.586
 2593TIP3    H1 7720   7.035   3.920   3.526
 2593TIP3    H2 7721   6.896   3.980   3.529
 2594TIP3   OH2 7722   4.511   1.359   3.645
 2594TIP3    H1 7723   4.477   1.373   3.734
 2594TIP3    H2 7724   4.598   1.322   3.659
 2595TIP3   OH2 7725   8.284   4.385   4.534
 2595TIP3    H1 7726   8.215   4.337   4.579
 2595TIP3    H2 7727   8.353   4.320   4.519
 2596TIP3   OH2 7728   1.676   0.496   0.523
 2596TIP3    H1 7729   1.769   0.492   0.544
 2596TIP3    H2 7730   1.640   0.562   0.582
 2597TIP3   OH2 7731   7.451   0.008   0.402
 2597TIP3    H1 7732   7.458   0.015   0.497
 2597TIP3    H2 7733   7.537  -0.022   0.373
 2598TIP3   OH2 7734   0.400   2.852   2.375
 2598TIP3    H1 7735   0.322   2.898   2.344
 2598TIP3    H2 7736   0.400   2.866   2.469
 2599TIP3   OH2 7737   1.186   5.355   3.869
 2599TIP3    H1 7738   1.275   5.382   3.845
 2599TIP3    H2 7739   1.193   5.261   3.884
 2600TIP3   OH2 7740   5.466   6.239   4.655
 2600TIP3    H1 7741   5.544   6.185   4.670
 2600TIP3    H2 7742   5.414   6.228   4.734
 2601TIP3   OH2 7743   7.008   5.964   1.967
 2601TIP3    H1 7744   7.076   5.923   1.915
 2601TIP3    H2 7745   6.968   6.029   1.908
 2602TIP3   OH2 7746   6.459   0.756   3.957
 2602TIP3    H1 7747   6.548   0.725   3.974
 2602TIP3    H2 7748   6.440   0.815   4.030
 2603TIP3   OH2 7749   5.443   3.491   4.181
 2603TIP3    H1 7750   5.532   3.495   4.214
 2603TIP3    H2 7751   5.429   3.398   4.162
 2604TIP3   OH2 7752   1.665   5.527   2.807
 2604TIP3    H1 7753   1.611   5.586   2.753
 2604TIP3    H2 7754   1.646   5.440   2.773
 2605TIP3   OH2 7755   2.627   2.344   0.704
 2605TIP3    H1 7756   2.575   2.274   0.665
 2605TIP3    H2 7757   2.655   2.308   0.788
 2606TIP3   OH2 7758   0.688   6.350   2.304
 2606TIP3    H1 7759   0.611   6.320   2.257
 2606TIP3    H2 7760   0.675   6.319   2.394
 2607TIP3   OH2 7761   0.540   6.801   6.499
 2607TIP3    H1 7762   0.576   6.889   6.509
 2607TIP3    H2 7763   0.531   6.789   6.404
 2608TIP3   OH2 7764   1.007   6.170   0.697
 2608TIP3    H1 7765   1.057   6.221   0.761
 2608TIP3    H2 7766   1.034   6.079   0.713
 2609TIP3   OH2 7767   5.570   4.010   2.423
 2609TIP3    H1 7768   5.530   4.029   2.338
 2609TIP3    H2 7769   5.643   3.952   2.404
 2610TIP3   OH2 7770   0.732   5.701   1.597
 2610TIP3    H1 7771   0.820   5.731   1.621
 2610TIP3    H2 7772   0.705   5.645   1.670
 2611TIP3   OH2 7773   1.502   0.227   3.351
 2611TIP3    H1 7774   1.434   0.245   3.416
 2611TIP3    H2 7775   1.469   0.267   3.271
 2612TIP3   OH2 7776   2.486   3.955   1.996
 2612TIP3    H1 7777   2.417   4.019   2.014
 2612TIP3    H2 7778   2.458   3.912   1.915
 2613TIP3   OH2 7779   5.609   2.116   5.993
 2613TIP3    H1 7780   5.631   2.095   5.902
 2613TIP3    H2 7781   5.601   2.030   6.035
 2614TIP3   OH2 7782   6.834   0.846   1.549
 2614TIP3    H1 7783   6.903   0.787   1.519
 2614TIP3    H2 7784   6.755   0.815   1.506
 2615TIP3   OH2 7785   8.313   2.686   2.431
 2615TIP3    H1 7786   8.391   2.740   2.447
 2615TIP3    H2 7787   8.307   2.629   2.507
 2616TIP3   OH2 7788   0.639   1.804   4.095
 2616TIP3    H1 7789   0.601   1.740   4.035
 2616TIP3    H2 7790   0.722   1.765   4.124
 2617TIP3   OH2 7791   1.058   0.586   0.659
 2617TIP3    H1 7792   1.022   0.498   0.652
 2617TIP3    H2 7793   1.082   0.610   0.570
 2618TIP3   OH2 7794   5.375   3.071   0.069
 2618TIP3    H1 7795   5.447   3.008   0.064
 2618TIP3    H2 7796   5.408   3.139   0.128
 2619TIP3   OH2 7797   2.063   3.019   0.937
 2619TIP3    H1 7798   1.993   3.069   0.980
 2619TIP3    H2 7799   2.104   3.081   0.877
 2620TIP3   OH2 7800   5.265   5.386   5.148
 2620TIP3    H1 7801   5.176   5.415   5.167
 2620TIP3    H2 7802   5.271   5.299   5.186
 2621TIP3   OH2 7803   6.655   7.322   5.514
 2621TIP3    H1 7804   6.685   7.258   5.450
 2621TIP3    H2 7805   6.568   7.349   5.483
 2622TIP3   OH2 7806   3.397   6.816   4.549
 2622TIP3    H1 7807   3.459   6.872   4.502
 2622TIP3    H2 7808   3.447   6.738   4.571
 2623TIP3   OH2 7809   1.412   1.464   3.025
 2623TIP3    H1 7810   1.409   1.521   2.949
 2623TIP3    H2 7811   1.341   1.401   3.012
 2624TIP3   OH2 7812   1.152   6.038   6.751
 2624TIP3    H1 7813   1.146   6.052   6.656
 2624TIP3    H2 7814   1.230   5.983   6.762
 2625TIP3   OH2 7815   3.642   7.683   5.637
 2625TIP3    H1 7816   3.730   7.721   5.646
 2625TIP3    H2 7817   3.600   7.735   5.568
 2626TIP3   OH2 7818   3.178   3.788   4.001
 2626TIP3    H1 7819   3.141   3.700   3.998
 2626TIP3    H2 7820   3.154   3.822   4.088
 2627TIP3   OH2 7821   1.857   0.618   4.217
 2627TIP3    H1 7822   1.815   0.551   4.164
 2627TIP3    H2 7823   1.949   0.592   4.220
 2628TIP3   OH2 7824   8.133   5.541   2.690
 2628TIP3    H1 7825   8.099   5.545   2.601
 2628TIP3    H2 7826   8.060   5.511   2.743
 2629TIP3   OH2 7827   1.998   3.717   3.818
 2629TIP3    H1 7828   1.926   3.744   3.761
 2629TIP3    H2 7829   1.992   3.776   3.893
 2630TIP3   OH2 7830   6.964   2.640   3.690
 2630TIP3    H1 7831   7.053   2.644   3.725
 2630TIP3    H2 7832   6.957   2.717   3.633
 2631TIP3   OH2 7833   8.231   1.938   2.923
 2631TIP3    H1 7834   8.200   1.979   3.004
 2631TIP3    H2 7835   8.207   2.001   2.854
 2632TIP3   OH2 7836   7.429   4.135   3.059
 2632TIP3    H1 7837   7.521   4.147   3.037
 2632TIP3    H2 7838   7.423   4.155   3.153
 2633TIP3   OH2 7839   4.327   3.243   3.210
 2633TIP3    H1 7840   4.265   3.243   3.138
 2633TIP3    H2 7841   4.381   3.166   3.196
 2634TIP3   OH2 7842   6.409   2.802   1.943
 2634TIP3    H1 7843   6.393   2.795   2.037
 2634TIP3    H2 7844   6.419   2.711   1.914
 2635TIP3   OH2 7845   2.578   4.060   6.523
 2635TIP3    H1 7846   2.604   4.101   6.441
 2635TIP3    H2 7847   2.544   3.975   6.498
 2636TIP3   OH2 7848   4.076   3.083   6.411
 2636TIP3    H1 7849   4.113   3.079   6.323
 2636TIP3    H2 7850   4.150   3.108   6.467
 2637TIP3   OH2 7851   7.512   2.184   0.195
 2637TIP3    H1 7852   7.523   2.113   0.131
 2637TIP3    H2 7853   7.418   2.201   0.197
 2638TIP3   OH2 7854   5.373   6.747   1.396
 2638TIP3    H1 7855   5.342   6.725   1.308
 2638TIP3    H2 7856   5.464   6.775   1.383
 2639TIP3   OH2 7857   1.528   7.459   3.098
 2639TIP3    H1 7858   1.486   7.374   3.108
 2639TIP3    H2 7859   1.564   7.478   3.185
 2640TIP3   OH2 7860   7.604   7.835   2.435
 2640TIP3    H1 7861   7.574   7.753   2.396
 2640TIP3    H2 7862   7.692   7.815   2.467
 2641TIP3   OH2 7863   4.926   0.234   3.248
 2641TIP3    H1 7864   4.863   0.192   3.190
 2641TIP3    H2 7865   4.992   0.271   3.188
 2642TIP3   OH2 7866   5.330   7.933   5.029
 2642TIP3    H1 7867   5.406   7.931   4.971
 2642TIP3    H2 7868   5.314   7.841   5.050
 2643TIP3   OH2 7869   1.516   0.458   5.159
 2643TIP3    H1 7870   1.469   0.519   5.102
 2643TIP3    H2 7871   1.606   0.490   5.159
 2644TIP3   OH2 7872   2.546   2.488   1.132
 2644TIP3    H1 7873   2.589   2.477   1.047
 2644TIP3    H2 7874   2.598   2.435   1.192
 2645TIP3   OH2 7875   6.007   7.076   2.911
 2645TIP3    H1 7876   6.065   7.002   2.928
 2645TIP3    H2 7877   5.978   7.064   2.820
 2646TIP3   OH2 7878   6.397   2.586   0.243
 2646TIP3    H1 7879   6.477   2.539   0.219
 2646TIP3    H2 7880   6.425   2.676   0.258
 2647TIP3   OH2 7881   4.965   7.636   0.263
 2647TIP3    H1 7882   4.887   7.649   0.209
 2647TIP3    H2 7883   4.937   7.573   0.330
 2648TIP3   OH2 7884   0.942   6.261   2.289
 2648TIP3    H1 7885   0.850   6.282   2.278
 2648TIP3    H2 7886   0.989   6.342   2.268
 2649TIP3   OH2 7887   7.350   6.165   6.257
 2649TIP3    H1 7888   7.358   6.213   6.339
 2649TIP3    H2 7889   7.414   6.095   6.263
 2650TIP3   OH2 7890   3.854   1.891   1.869
 2650TIP3    H1 7891   3.934   1.851   1.904
 2650TIP3    H2 7892   3.796   1.899   1.944
 2651TIP3   OH2 7893   3.153   6.726   5.234
 2651TIP3    H1 7894   3.168   6.802   5.291
 2651TIP3    H2 7895   3.239   6.707   5.196
 2652TIP3   OH2 7896   4.138   6.937   3.054
 2652TIP3    H1 7897   4.069   6.871   3.058
 2652TIP3    H2 7898   4.183   6.931   3.138
 2653TIP3   OH2 7899   8.217   5.248   3.574
 2653TIP3    H1 7900   8.201   5.307   3.501
 2653TIP3    H2 7901   8.263   5.301   3.639
 2654TIP3   OH2 7902   4.156   0.837   0.132
 2654TIP3    H1 7903   4.157   0.769   0.065
 2654TIP3    H2 7904   4.232   0.892   0.111
 2655TIP3   OH2 7905   1.727   1.056   0.697
 2655TIP3    H1 7906   1.673   1.018   0.628
 2655TIP3    H2 7907   1.690   1.143   0.711
 2656TIP3   OH2 7908   7.637   3.802   2.899
 2656TIP3    H1 7909   7.569   3.869   2.891
 2656TIP3    H2 7910   7.719   3.851   2.892
 2657TIP3   OH2 7911   0.123   7.491   2.415
 2657TIP3    H1 7912   0.160   7.478   2.502
 2657TIP3    H2 7913   0.060   7.419   2.405
 2658TIP3   OH2 7914   6.936   7.876   2.361
 2658TIP3    H1 7915   7.006   7.843   2.417
 2658TIP3    H2 7916   6.901   7.798   2.317
 2659TIP3   OH2 7917   3.979   0.763   0.774
 2659TIP3    H1 7918   4.062   0.723   0.797
 2659TIP3    H2 7919   3.969   0.746   0.680
 2660TIP3   OH2 7920   7.749   2.026   5.531
 2660TIP3    H1 7921   7.744   1.963   5.460
 2660TIP3    H2 7922   7.823   1.997   5.584
 2661TIP3   OH2 7923   7.818   5.568   4.139
 2661TIP3    H1 7924   7.751   5.500   4.136
 2661TIP3    H2 7925   7.775   5.645   4.100
 2662TIP3   OH2 7926   8.184   3.230   4.355
 2662TIP3    H1 7927   8.091   3.211   4.359
 2662TIP3    H2 7928   8.200   3.288   4.430
 2663TIP3   OH2 7929   4.589   4.416   3.366
 2663TIP3    H1 7930   4.557   4.393   3.279
 2663TIP3    H2 7931   4.580   4.335   3.416
 2664TIP3   OH2 7932   8.067   5.948   0.837
 2664TIP3    H1 7933   8.046   5.967   0.745
 2664TIP3    H2 7934   8.108   6.028   0.869
 2665TIP3   OH2 7935   5.256   5.091   5.189
 2665TIP3    H1 7936   5.275   4.998   5.175
 2665TIP3    H2 7937   5.161   5.094   5.204
 2666TIP3   OH2 7938   5.045   5.432   0.039
 2666TIP3    H1 7939   5.012   5.365  -0.023
 2666TIP3    H2 7940   4.976   5.498   0.040
 2667TIP3   OH2 7941   0.998   5.806   3.133
 2667TIP3    H1 7942   1.080   5.822   3.086
 2667TIP3    H2 7943   0.999   5.713   3.153
 2668TIP3   OH2 7944   3.966   6.674   2.443
 2668TIP3    H1 7945   3.903   6.717   2.502
 2668TIP3    H2 7946   3.915   6.607   2.398
 2669TIP3   OH2 7947   7.729   2.932   0.846
 2669TIP3    H1 7948   7.778   2.953   0.767
 2669TIP3    H2 7949   7.644   2.974   0.834
 2670TIP3   OH2 7950   6.740   6.634   3.920
 2670TIP3    H1 7951   6.746   6.550   3.875
 2670TIP3    H2 7952   6.685   6.616   3.996
 2671TIP3   OH2 7953   3.203   3.399   1.269
 2671TIP3    H1 7954   3.267   3.341   1.228
 2671TIP3    H2 7955   3.253   3.475   1.297
 2672TIP3   OH2 7956   6.688   1.770   6.130
 2672TIP3    H1 7957   6.703   1.864   6.136
 2672TIP3    H2 7958   6.710   1.736   6.217
 2673TIP3   OH2 7959   0.391   6.018   0.752
 2673TIP3    H1 7960   0.345   5.960   0.691
 2673TIP3    H2 7961   0.471   5.970   0.774
 2674TIP3   OH2 7962   7.121   7.062   0.944
 2674TIP3    H1 7963   7.099   7.149   0.912
 2674TIP3    H2 7964   7.112   7.067   1.039
 2675TIP3   OH2 7965   3.764   6.654   3.729
 2675TIP3    H1 7966   3.738   6.561   3.727
 2675TIP3    H2 7967   3.860   6.652   3.726
 2676TIP3   OH2 7968   2.355   1.899   0.514
 2676TIP3    H1 7969   2.398   1.976   0.551
 2676TIP3    H2 7970   2.426   1.838   0.496
 2677TIP3   OH2 7971   7.938   2.441   1.155
 2677TIP3    H1 7972   7.917   2.480   1.240
 2677TIP3    H2 7973   7.922   2.347   1.167
 2678TIP3   OH2 7974   3.348   3.501   5.654
 2678TIP3    H1 7975   3.301   3.466   5.579
 2678TIP3    H2 7976   3.281   3.512   5.722
 2679TIP3   OH2 7977   2.492   7.802   6.161
 2679TIP3    H1 7978   2.462   7.890   6.183
 2679TIP3    H2 7979   2.586   7.803   6.179
 2680TIP3   OH2 7980   1.192   3.135   2.454
 2680TIP3    H1 7981   1.230   3.049   2.470
 2680TIP3    H2 7982   1.100   3.126   2.478
 2681TIP3   OH2 7983   2.238   2.578   5.484
 2681TIP3    H1 7984   2.241   2.554   5.391
 2681TIP3    H2 7985   2.169   2.523   5.521
 2682TIP3   OH2 7986   2.774   5.742   2.909
 2682TIP3    H1 7987   2.850   5.790   2.943
 2682TIP3    H2 7988   2.698   5.791   2.941
 2683TIP3   OH2 7989   4.700   3.660   2.048
 2683TIP3    H1 7990   4.755   3.586   2.024
 2683TIP3    H2 7991   4.723   3.678   2.139
 2684TIP3   OH2 7992   6.234   1.764   6.657
 2684TIP3    H1 7993   6.175   1.745   6.730
 2684TIP3    H2 7994   6.200   1.846   6.620
 2685TIP3   OH2 7995   5.262   4.564   0.627
 2685TIP3    H1 7996   5.197   4.562   0.556
 2685TIP3    H2 7997   5.320   4.637   0.604
 2686TIP3   OH2 7998   4.127   0.843   6.511
 2686TIP3    H1 7999   4.114   0.935   6.486
 2686TIP3    H2 8000   4.212   0.820   6.474
 2687TIP3   OH2 8001   1.072   6.961   3.381
 2687TIP3    H1 8002   1.017   7.017   3.326
 2687TIP3    H2 8003   1.130   7.022   3.427
 2688TIP3   OH2 8004   5.251   5.191   1.934
 2688TIP3    H1 8005   5.193   5.259   1.968
 2688TIP3    H2 8006   5.339   5.228   1.941
 2689TIP3   OH2 8007   0.235   4.787   6.609
 2689TIP3    H1 8008   0.175   4.720   6.577
 2689TIP3    H2 8009   0.218   4.792   6.703
 2690TIP3   OH2 8010   4.110   4.020   4.508
 2690TIP3    H1 8011   4.046   3.985   4.569
 2690TIP3    H2 8012   4.149   3.943   4.467
 2691TIP3   OH2 8013   1.742   6.724   1.744
 2691TIP3    H1 8014   1.780   6.779   1.812
 2691TIP3    H2 8015   1.702   6.785   1.683
 2692TIP3   OH2 8016   2.667   6.365   5.965
 2692TIP3    H1 8017   2.670   6.302   6.037
 2692TIP3    H2 8018   2.625   6.318   5.893
 2693TIP3   OH2 8019   0.189   4.469   4.288
 2693TIP3    H1 8020   0.126   4.539   4.269
 2693TIP3    H2 8021   0.203   4.475   4.383
 2694TIP3   OH2 8022   1.146   6.280   1.742
 2694TIP3    H1 8023   1.131   6.301   1.834
 2694TIP3    H2 8024   1.168   6.187   1.743
 2695TIP3   OH2 8025   5.412   2.857   3.324
 2695TIP3    H1 8026   5.326   2.899   3.320
 2695TIP3    H2 8027   5.469   2.912   3.270
 2696TIP3   OH2 8028   3.230   0.392   6.779
 2696TIP3    H1 8029   3.184   0.461   6.826
 2696TIP3    H2 8030   3.172   0.369   6.707
 2697TIP3   OH2 8031   7.861   1.613   5.939
 2697TIP3    H1 8032   7.833   1.638   5.851
 2697TIP3    H2 8033   7.839   1.520   5.946
 2698TIP3   OH2 8034   2.040   0.148   5.080
 2698TIP3    H1 8035   2.089   0.174   5.001
 2698TIP3    H2 8036   2.089   0.185   5.152
 2699TIP3   OH2 8037   2.686   2.304   1.303
 2699TIP3    H1 8038   2.769   2.256   1.299
 2699TIP3    H2 8039   2.696   2.363   1.378
 2700TIP3   OH2 8040   4.365   7.472   4.595
 2700TIP3    H1 8041   4.372   7.512   4.682
 2700TIP3    H2 8042   4.429   7.401   4.597
 2701TIP3   OH2 8043   7.805   4.335   5.478
 2701TIP3    H1 8044   7.748   4.401   5.437
 2701TIP3    H2 8045   7.751   4.256   5.482
 2702TIP3   OH2 8046   3.116   7.091   3.724
 2702TIP3    H1 8047   3.161   7.119   3.644
 2702TIP3    H2 8048   3.023   7.096   3.702
 2703TIP3   OH2 8049   5.817   4.708   2.266
 2703TIP3    H1 8050   5.870   4.639   2.228
 2703TIP3    H2 8051   5.739   4.713   2.210
 2704TIP3   OH2 8052   4.611   7.836   3.606
 2704TIP3    H1 8053   4.539   7.828   3.544
 2704TIP3    H2 8054   4.578   7.793   3.686
 2705TIP3   OH2 8055   1.834   4.359   2.861
 2705TIP3    H1 8056   1.908   4.305   2.889
 2705TIP3    H2 8057   1.783   4.301   2.804
 2706TIP3   OH2 8058   5.894   2.955   2.069
 2706TIP3    H1 8059   5.957   2.920   2.133
 2706TIP3    H2 8060   5.877   2.881   2.010
 2707TIP3   OH2 8061   1.499   1.833   6.795
 2707TIP3    H1 8062   1.530   1.744   6.778
 2707TIP3    H2 8063   1.410   1.822   6.829
 2708TIP3   OH2 8064   5.133   3.573   2.072
 2708TIP3    H1 8065   5.066   3.515   2.036
 2708TIP3    H2 8066   5.098   3.601   2.157
 2709TIP3   OH2 8067   6.453   7.421   2.488
 2709TIP3    H1 8068   6.425   7.480   2.418
 2709TIP3    H2 8069   6.493   7.347   2.442
 2710TIP3   OH2 8070   0.192   3.500   1.808
 2710TIP3    H1 8071   0.187   3.595   1.800
 2710TIP3    H2 8072   0.280   3.482   1.842
 2711TIP3   OH2 8073   5.178   7.069   1.262
 2711TIP3    H1 8074   5.210   7.038   1.346
 2711TIP3    H2 8075   5.084   7.051   1.264
 2712TIP3   OH2 8076   6.944   7.429   6.229
 2712TIP3    H1 8077   6.929   7.339   6.201
 2712TIP3    H2 8078   6.926   7.428   6.323
 2713TIP3   OH2 8079   2.881   2.056   1.567
 2713TIP3    H1 8080   2.844   2.135   1.607
 2713TIP3    H2 8081   2.976   2.069   1.571
 2714TIP3   OH2 8082   1.172   7.289   4.440
 2714TIP3    H1 8083   1.169   7.376   4.481
 2714TIP3    H2 8084   1.254   7.251   4.471
 2715TIP3   OH2 8085   0.797   4.230   4.278
 2715TIP3    H1 8086   0.701   4.221   4.280
 2715TIP3    H2 8087   0.828   4.143   4.252
 2716TIP3   OH2 8088   6.910   1.546   1.383
 2716TIP3    H1 8089   6.885   1.586   1.466
 2716TIP3    H2 8090   6.950   1.463   1.407
 2717TIP3   OH2 8091   0.171   6.733   0.513
 2717TIP3    H1 8092   0.217   6.685   0.581
 2717TIP3    H2 8093   0.232   6.801   0.486
 2718TIP3   OH2 8094   0.094   2.559   6.291
 2718TIP3    H1 8095   0.012   2.516   6.316
 2718TIP3    H2 8096   0.069   2.649   6.273
 2719TIP3   OH2 8097   3.451   5.624   0.047
 2719TIP3    H1 8098   3.545   5.642   0.054
 2719TIP3    H2 8099   3.439   5.544   0.098
 2720TIP3   OH2 8100   3.763   2.169   2.261
 2720TIP3    H1 8101   3.711   2.209   2.330
 2720TIP3    H2 8102   3.839   2.131   2.306
 2721TIP3   OH2 8103   7.869   7.882   0.278
 2721TIP3    H1 8104   7.885   7.968   0.240
 2721TIP3    H2 8105   7.774   7.872   0.279
 2722TIP3   OH2 8106   0.570   6.962   0.259
 2722TIP3    H1 8107   0.490   6.909   0.266
 2722TIP3    H2 8108   0.639   6.898   0.242
 2723TIP3   OH2 8109   8.302   0.875   0.124
 2723TIP3    H1 8110   8.215   0.894   0.089
 2723TIP3    H2 8111   8.291   0.796   0.177
 2724TIP3   OH2 8112   4.032   7.652   6.692
 2724TIP3    H1 8113   3.978   7.608   6.758
 2724TIP3    H2 8114   4.013   7.606   6.611
 2725TIP3   OH2 8115   4.901   6.024   5.750
 2725TIP3    H1 8116   4.890   6.119   5.740
 2725TIP3    H2 8117   4.838   5.986   5.688
 2726TIP3   OH2 8118   5.089   1.896   4.925
 2726TIP3    H1 8119   5.005   1.852   4.934
 2726TIP3    H2 8120   5.068   1.989   4.927
 2727TIP3   OH2 8121   1.574   0.928   0.493
 2727TIP3    H1 8122   1.592   0.941   0.400
 2727TIP3    H2 8123   1.479   0.935   0.500
 2728TIP3   OH2 8124   4.118   2.063   5.069
 2728TIP3    H1 8125   4.161   2.137   5.113
 2728TIP3    H2 8126   4.164   2.054   4.986
 2729TIP3   OH2 8127   6.588   4.005   0.166
 2729TIP3    H1 8128   6.496   3.978   0.172
 2729TIP3    H2 8129   6.603   4.056   0.245
 2730TIP3   OH2 8130   1.201   3.118   1.154
 2730TIP3    H1 8131   1.283   3.080   1.122
 2730TIP3    H2 8132   1.225   3.206   1.184
 2731TIP3   OH2 8133   6.053   3.759   1.615
 2731TIP3    H1 8134   5.970   3.770   1.568
 2731TIP3    H2 8135   6.110   3.716   1.551
 2732TIP3   OH2 8136   1.929   7.440   5.841
 2732TIP3    H1 8137   2.014   7.415   5.875
 2732TIP3    H2 8138   1.927   7.535   5.846
 2733TIP3   OH2 8139   1.869   6.487   5.322
 2733TIP3    H1 8140   1.940   6.546   5.348
 2733TIP3    H2 8141   1.790   6.540   5.330
 2734TIP3   OH2 8142   7.812   6.011   2.750
 2734TIP3    H1 8143   7.866   5.961   2.810
 2734TIP3    H2 8144   7.873   6.049   2.687
 2735TIP3   OH2 8145   5.182   2.116   3.891
 2735TIP3    H1 8146   5.134   2.164   3.823
 2735TIP3    H2 8147   5.220   2.041   3.845
 2736TIP3   OH2 8148   4.489   7.745   2.760
 2736TIP3    H1 8149   4.480   7.841   2.762
 2736TIP3    H2 8150   4.497   7.721   2.852
 2737TIP3   OH2 8151   3.070   7.906   0.507
 2737TIP3    H1 8152   2.986   7.919   0.463
 2737TIP3    H2 8153   3.087   7.812   0.501
 2738TIP3   OH2 8154   4.713   1.553   2.893
 2738TIP3    H1 8155   4.618   1.560   2.879
 2738TIP3    H2 8156   4.732   1.620   2.959
 2739TIP3   OH2 8157   5.448   5.380   1.571
 2739TIP3    H1 8158   5.367   5.392   1.521
 2739TIP3    H2 8159   5.491   5.465   1.567
 2740TIP3   OH2 8160   5.304   7.335   4.311
 2740TIP3    H1 8161   5.255   7.285   4.245
 2740TIP3    H2 8162   5.283   7.292   4.394
 2741TIP3   OH2 8163   2.803   4.687   3.941
 2741TIP3    H1 8164   2.744   4.613   3.928
 2741TIP3    H2 8165   2.879   4.649   3.985
 2742TIP3   OH2 8166   5.894   5.010   0.470
 2742TIP3    H1 8167   5.901   4.915   0.462
 2742TIP3    H2 8168   5.914   5.028   0.562
 2743TIP3   OH2 8169   3.785   2.297   0.115
 2743TIP3    H1 8170   3.724   2.295   0.190
 2743TIP3    H2 8171   3.734   2.336   0.044
 2744TIP3   OH2 8172   4.320   5.205   2.664
 2744TIP3    H1 8173   4.238   5.202   2.615
 2744TIP3    H2 8174   4.358   5.290   2.644
 2745TIP3   OH2 8175   7.500   3.167   1.378
 2745TIP3    H1 8176   7.466   3.116   1.305
 2745TIP3    H2 8177   7.430   3.163   1.444
 2746TIP3   OH2 8178   6.373   3.934   0.425
 2746TIP3    H1 8179   6.295   3.882   0.441
 2746TIP3    H2 8180   6.341   4.024   0.419
 2747TIP3   OH2 8181   0.271   2.284   5.888
 2747TIP3    H1 8182   0.247   2.249   5.801
 2747TIP3    H2 8183   0.301   2.373   5.871
 2748TIP3   OH2 8184   6.997   6.653   0.555
 2748TIP3    H1 8185   7.086   6.636   0.586
 2748TIP3    H2 8186   6.995   6.613   0.467
 2749TIP3   OH2 8187   6.534   7.146   2.539
 2749TIP3    H1 8188   6.460   7.106   2.585
 2749TIP3    H2 8189   6.605   7.147   2.604
 2750TIP3   OH2 8190   2.487   3.452   1.431
 2750TIP3    H1 8191   2.471   3.423   1.342
 2750TIP3    H2 8192   2.517   3.542   1.423
 2751TIP3   OH2 8193   5.305   0.727   4.904
 2751TIP3    H1 8194   5.282   0.708   4.995
 2751TIP3    H2 8195   5.312   0.823   4.901
 2752TIP3   OH2 8196   6.946   7.419   2.708
 2752TIP3    H1 8197   6.862   7.453   2.741
 2752TIP3    H2 8198   7.007   7.492   2.719
 2753TIP3   OH2 8199   2.628   1.820   3.925
 2753TIP3    H1 8200   2.639   1.749   3.862
 2753TIP3    H2 8201   2.537   1.814   3.953
 2754TIP3   OH2 8202   1.873   3.331   1.633
 2754TIP3    H1 8203   1.817   3.255   1.643
 2754TIP3    H2 8204   1.956   3.297   1.602
 2755TIP3   OH2 8205   4.017   6.037   5.035
 2755TIP3    H1 8206   3.996   5.983   5.111
 2755TIP3    H2 8207   3.986   5.985   4.960
 2756TIP3   OH2 8208   1.063   3.827   3.475
 2756TIP3    H1 8209   1.102   3.878   3.547
 2756TIP3    H2 8210   1.031   3.893   3.414
 2757TIP3   OH2 8211   6.764   6.735   0.720
 2757TIP3    H1 8212   6.811   6.786   0.786
 2757TIP3    H2 8213   6.831   6.707   0.658
 2758TIP3   OH2 8214   0.746   1.478   4.494
 2758TIP3    H1 8215   0.677   1.437   4.442
 2758TIP3    H2 8216   0.705   1.496   4.579
 2759TIP3   OH2 8217   5.104   1.548   2.375
 2759TIP3    H1 8218   5.190   1.527   2.411
 2759TIP3    H2 8219   5.111   1.640   2.349
 2760TIP3   OH2 8220   3.991   7.458   1.774
 2760TIP3    H1 8221   4.002   7.553   1.763
 2760TIP3    H2 8222   4.058   7.433   1.838
 2761TIP3   OH2 8223   2.459   1.949   2.749
 2761TIP3    H1 8224   2.550   1.951   2.721
 2761TIP3    H2 8225   2.423   2.033   2.720
 2762TIP3   OH2 8226   8.374   7.800   0.234
 2762TIP3    H1 8227   8.345   7.782   0.145
 2762TIP3    H2 8228   8.392   7.714   0.272
 2763TIP3   OH2 8229   6.057   2.997   5.573
 2763TIP3    H1 8230   5.996   3.002   5.499
 2763TIP3    H2 8231   6.108   3.078   5.566
 2764TIP3   OH2 8232   2.681   0.419   3.142
 2764TIP3    H1 8233   2.588   0.417   3.119
 2764TIP3    H2 8234   2.684   0.462   3.227
 2765TIP3   OH2 8235   4.680   2.026   6.180
 2765TIP3    H1 8236   4.678   2.121   6.176
 2765TIP3    H2 8237   4.588   2.000   6.193
 2766TIP3   OH2 8238   7.550   7.555   1.419
 2766TIP3    H1 8239   7.582   7.595   1.499
 2766TIP3    H2 8240   7.496   7.622   1.378
 2767TIP3   OH2 8241   4.376   2.430   3.223
 2767TIP3    H1 8242   4.312   2.447   3.154
 2767TIP3    H2 8243   4.394   2.516   3.261
 2768TIP3   OH2 8244   6.855   6.122   0.762
 2768TIP3    H1 8245   6.943   6.132   0.724
 2768TIP3    H2 8246   6.798   6.109   0.687
 2769TIP3   OH2 8247   7.873   5.215   2.076
 2769TIP3    H1 8248   7.879   5.176   2.163
 2769TIP3    H2 8249   7.779   5.222   2.060
 2770TIP3   OH2 8250   4.414   5.396   4.182
 2770TIP3    H1 8251   4.361   5.416   4.259
 2770TIP3    H2 8252   4.359   5.338   4.130
 2771TIP3   OH2 8253   2.802   1.563   4.859
 2771TIP3    H1 8254   2.750   1.630   4.817
 2771TIP3    H2 8255   2.863   1.611   4.915
 2772TIP3   OH2 8256   7.398   4.992   1.838
 2772TIP3    H1 8257   7.474   5.027   1.792
 2772TIP3    H2 8258   7.328   5.055   1.821
 2773TIP3   OH2 8259   2.800   0.137   5.151
 2773TIP3    H1 8260   2.706   0.154   5.156
 2773TIP3    H2 8261   2.817   0.078   5.224
 2774TIP3   OH2 8262   1.954   1.752   2.864
 2774TIP3    H1 8263   1.974   1.659   2.875
 2774TIP3    H2 8264   1.996   1.776   2.781
 2775TIP3   OH2 8265   1.205   6.224   1.485
 2775TIP3    H1 8266   1.208   6.265   1.571
 2775TIP3    H2 8267   1.225   6.295   1.424
 2776TIP3   OH2 8268   4.369   6.661   0.674
 2776TIP3    H1 8269   4.416   6.707   0.604
 2776TIP3    H2 8270   4.438   6.623   0.728
 2777TIP3   OH2 8271   4.550   2.157   4.413
 2777TIP3    H1 8272   4.456   2.148   4.397
 2777TIP3    H2 8273   4.557   2.227   4.478
 2778TIP3   OH2 8274   6.120   4.166   5.111
 2778TIP3    H1 8275   6.045   4.221   5.132
 2778TIP3    H2 8276   6.140   4.121   5.193
 2779TIP3   OH2 8277   0.467   0.642   0.104
 2779TIP3    H1 8278   0.388   0.663   0.154
 2779TIP3    H2 8279   0.473   0.712   0.039
 2780TIP3   OH2 8280   3.822   1.295   6.662
 2780TIP3    H1 8281   3.840   1.268   6.572
 2780TIP3    H2 8282   3.893   1.256   6.714
 2781TIP3   OH2 8283   5.762   4.301   1.338
 2781TIP3    H1 8284   5.707   4.378   1.323
 2781TIP3    H2 8285   5.723   4.258   1.414
 2782TIP3   OH2 8286   2.971   1.117   2.521
 2782TIP3    H1 8287   2.943   1.073   2.441
 2782TIP3    H2 8288   2.897   1.173   2.546
 2783TIP3   OH2 8289   7.829   7.289   4.143
 2783TIP3    H1 8290   7.903   7.313   4.088
 2783TIP3    H2 8291   7.843   7.337   4.224
 2784TIP3   OH2 8292   5.526   4.661   1.816
 2784TIP3    H1 8293   5.432   4.649   1.807
 2784TIP3    H2 8294   5.545   4.741   1.765
 2785TIP3   OH2 8295   6.714   2.068   6.151
 2785TIP3    H1 8296   6.769   2.071   6.228
 2785TIP3    H2 8297   6.708   2.159   6.122
 2786TIP3   OH2 8298   6.250   7.481   0.263
 2786TIP3    H1 8299   6.248   7.385   0.256
 2786TIP3    H2 8300   6.339   7.504   0.238
 2787TIP3   OH2 8301   8.345   1.445   4.574
 2787TIP3    H1 8302   8.253   1.430   4.595
 2787TIP3    H2 8303   8.352   1.426   4.480
 2788TIP3   OH2 8304   0.782   2.548   0.915
 2788TIP3    H1 8305   0.845   2.562   0.986
 2788TIP3    H2 8306   0.696   2.561   0.955
 2789TIP3   OH2 8307   1.591   5.504   3.094
 2789TIP3    H1 8308   1.685   5.511   3.078
 2789TIP3    H2 8309   1.583   5.511   3.189
 2790TIP3   OH2 8310   3.579   4.601   5.273
 2790TIP3    H1 8311   3.533   4.654   5.338
 2790TIP3    H2 8312   3.669   4.634   5.275
 2791TIP3   OH2 8313   6.469   4.965   0.492
 2791TIP3    H1 8314   6.410   5.040   0.482
 2791TIP3    H2 8315   6.411   4.889   0.493
 2792TIP3   OH2 8316   8.195   3.824   3.568
 2792TIP3    H1 8317   8.221   3.878   3.494
 2792TIP3    H2 8318   8.109   3.789   3.544
 2793TIP3   OH2 8319   2.543   0.122   5.263
 2793TIP3    H1 8320   2.474   0.056   5.257
 2793TIP3    H2 8321   2.604   0.088   5.328
 2794TIP3   OH2 8322   0.467   2.509   1.577
 2794TIP3    H1 8323   0.517   2.427   1.585
 2794TIP3    H2 8324   0.409   2.495   1.502
 2795TIP3   OH2 8325   5.627   5.423   3.320
 2795TIP3    H1 8326   5.566   5.393   3.252
 2795TIP3    H2 8327   5.581   5.494   3.364
 2796TIP3   OH2 8328   0.679   0.154   3.910
 2796TIP3    H1 8329   0.595   0.143   3.955
 2796TIP3    H2 8330   0.716   0.234   3.949
 2797TIP3   OH2 8331   1.616   5.816   3.530
 2797TIP3    H1 8332   1.695   5.867   3.515
 2797TIP3    H2 8333   1.564   5.869   3.591
 2798TIP3   OH2 8334   6.045   0.205   5.340
 2798TIP3    H1 8335   5.990   0.215   5.262
 2798TIP3    H2 8336   6.126   0.166   5.308
 2799TIP3   OH2 8337   4.115   3.836   2.727
 2799TIP3    H1 8338   4.069   3.853   2.645
 2799TIP3    H2 8339   4.049   3.848   2.795
 2800TIP3   OH2 8340   7.409   4.109   0.686
 2800TIP3    H1 8341   7.368   4.115   0.600
 2800TIP3    H2 8342   7.501   4.090   0.667
 2801TIP3   OH2 8343   5.395   2.143   5.651
 2801TIP3    H1 8344   5.372   2.058   5.690
 2801TIP3    H2 8345   5.343   2.148   5.572
 2802TIP3   OH2 8346   3.403   4.432   1.907
 2802TIP3    H1 8347   3.460   4.505   1.881
 2802TIP3    H2 8348   3.459   4.355   1.903
 2803TIP3   OH2 8349   0.495   3.456   1.060
 2803TIP3    H1 8350   0.454   3.400   0.993
 2803TIP3    H2 8351   0.425   3.474   1.122
 2804TIP3   OH2 8352   2.304   5.470   2.972
 2804TIP3    H1 8353   2.354   5.550   2.987
 2804TIP3    H2 8354   2.367   5.400   2.988
 2805TIP3   OH2 8355   5.684   0.300   3.045
 2805TIP3    H1 8356   5.657   0.235   2.981
 2805TIP3    H2 8357   5.670   0.384   3.002
 2806TIP3   OH2 8358   6.344   5.136   0.768
 2806TIP3    H1 8359   6.348   5.157   0.861
 2806TIP3    H2 8360   6.429   5.164   0.734
 2807TIP3   OH2 8361   6.218   4.003   4.685
 2807TIP3    H1 8362   6.294   4.030   4.737
 2807TIP3    H2 8363   6.249   4.006   4.594
 2808TIP3   OH2 8364   7.704   4.231   3.019
 2808TIP3    H1 8365   7.782   4.253   3.069
 2808TIP3    H2 8366   7.725   4.148   2.976
 2809TIP3   OH2 8367   6.863   0.805   2.223
 2809TIP3    H1 8368   6.929   0.801   2.293
 2809TIP3    H2 8369   6.817   0.721   2.229
 2810TIP3   OH2 8370   1.064   3.988   4.883
 2810TIP3    H1 8371   1.054   4.045   4.960
 2810TIP3    H2 8372   0.974   3.969   4.856
 2811TIP3   OH2 8373   1.648   6.920   1.165
 2811TIP3    H1 8374   1.613   7.005   1.139
 2811TIP3    H2 8375   1.690   6.936   1.249
 2812TIP3   OH2 8376   8.298   2.118   4.817
 2812TIP3    H1 8377   8.327   2.191   4.871
 2812TIP3    H2 8378   8.247   2.159   4.747
 2813TIP3   OH2 8379   7.599   0.622   6.829
 2813TIP3    H1 8380   7.623   0.530   6.837
 2813TIP3    H2 8381   7.508   0.625   6.859
 2814TIP3   OH2 8382   5.474   7.270   2.572
 2814TIP3    H1 8383   5.385   7.236   2.581
 2814TIP3    H2 8384   5.487   7.277   2.477
 2815TIP3   OH2 8385   3.955   2.058   2.443
 2815TIP3    H1 8386   4.024   2.107   2.487
 2815TIP3    H2 8387   3.997   2.024   2.364
 2816TIP3   OH2 8388   0.341   0.721   5.132
 2816TIP3    H1 8389   0.411   0.675   5.088
 2816TIP3    H2 8390   0.344   0.810   5.097
 2817TIP3   OH2 8391   2.145   7.818   0.808
 2817TIP3    H1 8392   2.236   7.845   0.799
 2817TIP3    H2 8393   2.140   7.735   0.761
 2818TIP3   OH2 8394   1.509   0.943   4.832
 2818TIP3    H1 8395   1.559   1.018   4.862
 2818TIP3    H2 8396   1.420   0.958   4.864
 2819TIP3   OH2 8397   6.986   3.916   4.232
 2819TIP3    H1 8398   7.068   3.947   4.192
 2819TIP3    H2 8399   6.920   3.930   4.164
 2820TIP3   OH2 8400   5.817   3.570   3.826
 2820TIP3    H1 8401   5.799   3.641   3.765
 2820TIP3    H2 8402   5.809   3.610   3.913
 2821TIP3   OH2 8403   7.481   2.657   0.363
 2821TIP3    H1 8404   7.494   2.639   0.269
 2821TIP3    H2 8405   7.563   2.697   0.391
 2822TIP3   OH2 8406   8.107   6.992   6.515
 2822TIP3    H1 8407   8.043   7.048   6.471
 2822TIP3    H2 8408   8.060   6.957   6.591
 2823TIP3   OH2 8409   2.120   4.708   4.848
 2823TIP3    H1 8410   2.025   4.699   4.841
 2823TIP3    H2 8411   2.146   4.745   4.763
 2824TIP3   OH2 8412   8.250   2.098   1.132
 2824TIP3    H1 8413   8.344   2.080   1.134
 2824TIP3    H2 8414   8.216   2.040   1.064
 2825TIP3   OH2 8415   6.446   3.592   5.268
 2825TIP3    H1 8416   6.395   3.512   5.257
 2825TIP3    H2 8417   6.402   3.657   5.214
 2826TIP3   OH2 8418   0.330   1.078   5.704
 2826TIP3    H1 8419   0.302   0.988   5.721
 2826TIP3    H2 8420   0.326   1.087   5.609
 2827TIP3   OH2 8421   2.792   2.762   2.068
 2827TIP3    H1 8422   2.731   2.760   1.995
 2827TIP3    H2 8423   2.737   2.783   2.144
 2828TIP3   OH2 8424   4.102   3.158   4.985
 2828TIP3    H1 8425   4.037   3.227   4.997
 2828TIP3    H2 8426   4.186   3.204   4.978
 2829TIP3   OH2 8427   6.134   0.824   1.822
 2829TIP3    H1 8428   6.217   0.871   1.810
 2829TIP3    H2 8429   6.138   0.752   1.758
 2830TIP3   OH2 8430   4.889   6.738   2.612
 2830TIP3    H1 8431   4.904   6.767   2.522
 2830TIP3    H2 8432   4.951   6.666   2.625
 2831TIP3   OH2 8433   1.200   6.818   4.783
 2831TIP3    H1 8434   1.252   6.845   4.859
 2831TIP3    H2 8435   1.253   6.750   4.741
 2832TIP3   OH2 8436   7.747   0.895   5.763
 2832TIP3    H1 8437   7.843   0.893   5.758
 2832TIP3    H2 8438   7.726   0.986   5.784
 2833TIP3   OH2 8439   6.224   5.886   0.741
 2833TIP3    H1 8440   6.241   5.791   0.735
 2833TIP3    H2 8441   6.291   5.918   0.802
 2834TIP3   OH2 8442   1.393   5.000   1.598
 2834TIP3    H1 8443   1.349   5.084   1.612
 2834TIP3    H2 8444   1.402   4.963   1.686
 2835TIP3   OH2 8445   4.102   2.897   1.139
 2835TIP3    H1 8446   4.006   2.894   1.142
 2835TIP3    H2 8447   4.130   2.845   1.214
 2836TIP3   OH2 8448   7.696   3.759   1.321
 2836TIP3    H1 8449   7.779   3.713   1.307
 2836TIP3    H2 8450   7.695   3.827   1.254
 2837TIP3   OH2 8451   4.243   5.158   3.361
 2837TIP3    H1 8452   4.261   5.238   3.410
 2837TIP3    H2 8453   4.328   5.131   3.327
 2838TIP3   OH2 8454   3.593   2.542   0.914
 2838TIP3    H1 8455   3.511   2.576   0.878
 2838TIP3    H2 8456   3.568   2.503   0.998
 2839TIP3   OH2 8457   6.158   6.460   2.549
 2839TIP3    H1 8458   6.107   6.487   2.625
 2839TIP3    H2 8459   6.100   6.401   2.501
 2840TIP3   OH2 8460   0.548   4.401   4.007
 2840TIP3    H1 8461   0.482   4.470   4.017
 2840TIP3    H2 8462   0.537   4.346   4.085
 2841TIP3   OH2 8463   2.955   4.100   0.047
 2841TIP3    H1 8464   3.022   4.064   0.105
 2841TIP3    H2 8465   2.981   4.191   0.035
 2842TIP3   OH2 8466   7.891   0.946   2.180
 2842TIP3    H1 8467   7.927   0.868   2.138
 2842TIP3    H2 8468   7.967   0.998   2.204
 2843TIP3   OH2 8469   3.850   1.523   1.709
 2843TIP3    H1 8470   3.768   1.562   1.739
 2843TIP3    H2 8471   3.828   1.485   1.624
 2844TIP3   OH2 8472   2.595   2.982   0.122
 2844TIP3    H1 8473   2.547   2.939   0.194
 2844TIP3    H2 8474   2.677   3.009   0.162
 2845TIP3   OH2 8475   5.491   6.713   4.522
 2845TIP3    H1 8476   5.473   6.669   4.605
 2845TIP3    H2 8477   5.579   6.686   4.499
 2846TIP3   OH2 8478   1.391   0.161   6.601
 2846TIP3    H1 8479   1.415   0.228   6.537
 2846TIP3    H2 8480   1.436   0.187   6.681
 2847TIP3   OH2 8481   4.415   2.266   0.951
 2847TIP3    H1 8482   4.381   2.281   0.863
 2847TIP3    H2 8483   4.363   2.322   1.007
 2848TIP3   OH2 8484   3.959   7.642   5.660
 2848TIP3    H1 8485   3.990   7.581   5.594
 2848TIP3    H2 8486   3.960   7.591   5.742
 2849TIP3   OH2 8487   4.255   0.243   2.911
 2849TIP3    H1 8488   4.223   0.331   2.891
 2849TIP3    H2 8489   4.268   0.243   3.005
 2850TIP3   OH2 8490   2.321   0.411   1.785
 2850TIP3    H1 8491   2.275   0.479   1.736
 2850TIP3    H2 8492   2.282   0.329   1.755
 2851TIP3   OH2 8493   1.562   7.074   1.766
 2851TIP3    H1 8494   1.481   7.034   1.797
 2851TIP3    H2 8495   1.585   7.024   1.688
 2852TIP3   OH2 8496   3.932   5.150   4.575
 2852TIP3    H1 8497   3.996   5.149   4.504
 2852TIP3    H2 8498   3.847   5.153   4.532
 2853TIP3   OH2 8499   1.925   5.778   4.569
 2853TIP3    H1 8500   1.998   5.836   4.592
 2853TIP3    H2 8501   1.945   5.695   4.612
 2854TIP3   OH2 8502   7.860   7.769   4.112
 2854TIP3    H1 8503   7.927   7.702   4.100
 2854TIP3    H2 8504   7.902   7.851   4.085
 2855TIP3   OH2 8505   0.901   6.416   5.862
 2855TIP3    H1 8506   0.860   6.424   5.948
 2855TIP3    H2 8507   0.925   6.506   5.839
 2856TIP3   OH2 8508   2.225   5.038   0.040
 2856TIP3    H1 8509   2.219   4.942   0.043
 2856TIP3    H2 8510   2.294   5.060   0.102
 2857TIP3   OH2 8511   6.112   6.042   5.778
 2857TIP3    H1 8512   6.069   6.067   5.860
 2857TIP3    H2 8513   6.052   5.979   5.738
 2858TIP3   OH2 8514   7.426   3.600   6.096
 2858TIP3    H1 8515   7.476   3.520   6.113
 2858TIP3    H2 8516   7.460   3.631   6.012
 2859TIP3   OH2 8517   7.849   7.121   2.222
 2859TIP3    H1 8518   7.824   7.051   2.282
 2859TIP3    H2 8519   7.819   7.201   2.266
 2860TIP3   OH2 8520   0.589   0.243   0.848
 2860TIP3    H1 8521   0.579   0.338   0.852
 2860TIP3    H2 8522   0.501   0.210   0.829
 2861TIP3   OH2 8523   7.124   1.625   1.593
 2861TIP3    H1 8524   7.134   1.530   1.590
 2861TIP3    H2 8525   7.029   1.639   1.596
 2862TIP3   OH2 8526   4.062   2.145   6.062
 2862TIP3    H1 8527   4.122   2.073   6.042
 2862TIP3    H2 8528   4.029   2.174   5.977
 2863TIP3   OH2 8529   6.313   5.069   3.461
 2863TIP3    H1 8530   6.345   5.154   3.431
 2863TIP3    H2 8531   6.386   5.033   3.511
 2864TIP3   OH2 8532   5.114   6.398   3.149
 2864TIP3    H1 8533   5.184   6.352   3.101
 2864TIP3    H2 8534   5.034   6.377   3.101
 2865TIP3   OH2 8535   4.943   2.908   6.260
 2865TIP3    H1 8536   4.897   2.931   6.340
 2865TIP3    H2 8537   5.029   2.879   6.289
 2866TIP3   OH2 8538   4.443   7.860   0.755
 2866TIP3    H1 8539   4.510   7.928   0.766
 2866TIP3    H2 8540   4.475   7.807   0.682
 2867TIP3   OH2 8541   7.620   6.565   2.726
 2867TIP3    H1 8542   7.617   6.479   2.769
 2867TIP3    H2 8543   7.680   6.554   2.653
 2868TIP3   OH2 8544   1.288   0.846   1.596
 2868TIP3    H1 8545   1.266   0.885   1.680
 2868TIP3    H2 8546   1.351   0.907   1.556
 2869TIP3   OH2 8547   5.446   0.332   2.684
 2869TIP3    H1 8548   5.399   0.411   2.709
 2869TIP3    H2 8549   5.407   0.263   2.738
 2870TIP3   OH2 8550   3.366   5.548   6.563
 2870TIP3    H1 8551   3.400   5.638   6.570
 2870TIP3    H2 8552   3.271   5.557   6.572
 2871TIP3   OH2 8553   7.396   4.207   5.837
 2871TIP3    H1 8554   7.367   4.296   5.857
 2871TIP3    H2 8555   7.387   4.200   5.742
 2872TIP3   OH2 8556   3.051   2.823   0.826
 2872TIP3    H1 8557   2.962   2.806   0.858
 2872TIP3    H2 8558   3.059   2.769   0.747
 2873TIP3   OH2 8559   6.358   5.494   1.620
 2873TIP3    H1 8560   6.418   5.513   1.548
 2873TIP3    H2 8561   6.277   5.540   1.597
 2874TIP3   OH2 8562   5.263   4.574   5.303
 2874TIP3    H1 8563   5.309   4.650   5.339
 2874TIP3    H2 8564   5.175   4.606   5.282
 2875TIP3   OH2 8565   5.547   0.077   2.306
 2875TIP3    H1 8566   5.527  -0.017   2.314
 2875TIP3    H2 8567   5.597   0.097   2.385
 2876TIP3   OH2 8568   2.016   0.944   5.848
 2876TIP3    H1 8569   1.974   0.896   5.777
 2876TIP3    H2 8570   1.996   0.892   5.926
 2877TIP3   OH2 8571   7.575   6.086   1.383
 2877TIP3    H1 8572   7.609   6.020   1.323
 2877TIP3    H2 8573   7.637   6.159   1.376
 2878TIP3   OH2 8574   6.953   1.568   2.199
 2878TIP3    H1 8575   6.949   1.660   2.223
 2878TIP3    H2 8576   7.045   1.552   2.176
 2879TIP3   OH2 8577   8.022   7.025   3.579
 2879TIP3    H1 8578   8.040   7.027   3.673
 2879TIP3    H2 8579   7.928   7.043   3.573
 2880TIP3   OH2 8580   6.388   0.056   5.795
 2880TIP3    H1 8581   6.381   0.035   5.702
 2880TIP3    H2 8582   6.474   0.021   5.821
 2881TIP3   OH2 8583   2.992   2.133   2.416
 2881TIP3    H1 8584   2.994   2.165   2.326
 2881TIP3    H2 8585   3.027   2.204   2.469
 2882TIP3   OH2 8586   6.055   3.294   5.112
 2882TIP3    H1 8587   6.008   3.259   5.036
 2882TIP3    H2 8588   6.006   3.262   5.187
 2883TIP3   OH2 8589   6.342   3.874   4.313
 2883TIP3    H1 8590   6.382   3.952   4.275
 2883TIP3    H2 8591   6.408   3.840   4.375
 2884TIP3   OH2 8592   6.326   4.354   4.270
 2884TIP3    H1 8593   6.252   4.353   4.209
 2884TIP3    H2 8594   6.347   4.262   4.283
 2885TIP3   OH2 8595   6.511   7.728   4.204
 2885TIP3    H1 8596   6.590   7.680   4.178
 2885TIP3    H2 8597   6.439   7.680   4.162
 2886TIP3   OH2 8598   2.786   2.032   5.988
 2886TIP3    H1 8599   2.782   1.940   5.961
 2886TIP3    H2 8600   2.797   2.029   6.083
 2887TIP3   OH2 8601   1.485   5.361   0.032
 2887TIP3    H1 8602   1.470   5.425   0.102
 2887TIP3    H2 8603   1.443   5.281   0.064
 2888TIP3   OH2 8604   6.367   2.063   4.878
 2888TIP3    H1 8605   6.364   2.154   4.907
 2888TIP3    H2 8606   6.451   2.055   4.833
 2889TIP3   OH2 8607   1.586   2.740   0.217
 2889TIP3    H1 8608   1.591   2.764   0.309
 2889TIP3    H2 8609   1.518   2.797   0.181
 2890TIP3   OH2 8610   0.428   6.293   2.736
 2890TIP3    H1 8611   0.506   6.239   2.750
 2890TIP3    H2 8612   0.462   6.382   2.727
 2891TIP3   OH2 8613   6.063   3.457   2.921
 2891TIP3    H1 8614   5.983   3.428   2.963
 2891TIP3    H2 8615   6.034   3.505   2.843
 2892TIP3   OH2 8616   7.931   4.628   4.665
 2892TIP3    H1 8617   7.951   4.707   4.615
 2892TIP3    H2 8618   7.847   4.646   4.708
 2893TIP3   OH2 8619   3.985   4.704   4.441
 2893TIP3    H1 8620   4.064   4.742   4.402
 2893TIP3    H2 8621   3.936   4.671   4.366
 2894TIP3   OH2 8622   6.887   0.140   3.649
 2894TIP3    H1 8623   6.902   0.045   3.649
 2894TIP3    H2 8624   6.794   0.148   3.627
 2895TIP3   OH2 8625   1.630   3.831   1.530
 2895TIP3    H1 8626   1.667   3.805   1.445
 2895TIP3    H2 8627   1.620   3.749   1.578
 2896TIP3   OH2 8628   6.620   7.890   5.576
 2896TIP3    H1 8629   6.605   7.797   5.595
 2896TIP3    H2 8630   6.687   7.889   5.507
 2897TIP3   OH2 8631   3.812   1.218   1.994
 2897TIP3    H1 8632   3.788   1.214   2.087
 2897TIP3    H2 8633   3.876   1.289   1.989
 2898TIP3   OH2 8634   8.216   4.537   2.622
 2898TIP3    H1 8635   8.199   4.508   2.533
 2898TIP3    H2 8636   8.253   4.460   2.666
 2899TIP3   OH2 8637   5.025   4.065   0.117
 2899TIP3    H1 8638   5.114   4.056   0.083
 2899TIP3    H2 8639   5.017   4.158   0.138
 2900TIP3   OH2 8640   2.814   0.595   2.256
 2900TIP3    H1 8641   2.726   0.579   2.223
 2900TIP3    H2 8642   2.865   0.617   2.178
 2901TIP3   OH2 8643   5.286   1.762   6.073
 2901TIP3    H1 8644   5.343   1.835   6.100
 2901TIP3    H2 8645   5.300   1.695   6.139
 2902TIP3   OH2 8646   0.061   7.896   1.347
 2902TIP3    H1 8647   0.017   7.834   1.289
 2902TIP3    H2 8648   0.027   7.982   1.321
 2903TIP3   OH2 8649   5.382   3.774   6.168
 2903TIP3    H1 8650   5.350   3.760   6.257
 2903TIP3    H2 8651   5.320   3.728   6.112
 2904TIP3   OH2 8652   3.260   3.091   3.254
 2904TIP3    H1 8653   3.232   3.111   3.164
 2904TIP3    H2 8654   3.209   3.014   3.278
 2905TIP3   OH2 8655   0.727   5.357   5.423
 2905TIP3    H1 8656   0.682   5.441   5.417
 2905TIP3    H2 8657   0.728   5.337   5.516
 2906TIP3   OH2 8658   7.567   1.885   5.772
 2906TIP3    H1 8659   7.481   1.917   5.745
 2906TIP3    H2 8660   7.548   1.809   5.827
 2907TIP3   OH2 8661   2.830   3.882   6.716
 2907TIP3    H1 8662   2.783   3.965   6.711
 2907TIP3    H2 8663   2.916   3.906   6.750
 2908TIP3   OH2 8664   0.990   4.683   1.500
 2908TIP3    H1 8665   1.065   4.628   1.478
 2908TIP3    H2 8666   0.916   4.645   1.452
 2909TIP3   OH2 8667   8.401   4.956   0.081
 2909TIP3    H1 8668   8.417   5.050   0.085
 2909TIP3    H2 8669   8.352   4.943   0.000
 2910TIP3   OH2 8670   3.614   3.109   2.989
 2910TIP3    H1 8671   3.595   3.070   3.074
 2910TIP3    H2 8672   3.553   3.066   2.929
 2911TIP3   OH2 8673   4.128   5.617   2.469
 2911TIP3    H1 8674   4.159   5.547   2.410
 2911TIP3    H2 8675   4.123   5.694   2.413
 2912TIP3   OH2 8676   7.094   2.153   6.638
 2912TIP3    H1 8677   7.025   2.215   6.660
 2912TIP3    H2 8678   7.107   2.101   6.718
 2913TIP3   OH2 8679   6.893   7.312   0.014
 2913TIP3    H1 8680   6.950   7.310   0.091
 2913TIP3    H2 8681   6.900   7.402  -0.018
 2914TIP3   OH2 8682   2.956   0.126   1.811
 2914TIP3    H1 8683   2.882   0.123   1.871
 2914TIP3    H2 8684   3.002   0.207   1.833
 2915TIP3   OH2 8685   7.742   2.311   2.604
 2915TIP3    H1 8686   7.817   2.278   2.653
 2915TIP3    H2 8687   7.762   2.291   2.512
 2916TIP3   OH2 8688   0.102   3.045   1.163
 2916TIP3    H1 8689   0.030   3.108   1.165
 2916TIP3    H2 8690   0.058   2.960   1.168
 2917TIP3   OH2 8691   7.886   4.538   5.027
 2917TIP3    H1 8692   7.877   4.611   5.089
 2917TIP3    H2 8693   7.824   4.559   4.957
 2918TIP3   OH2 8694   5.014   5.807   1.054
 2918TIP3    H1 8695   5.057   5.892   1.062
 2918TIP3    H2 8696   5.083   5.743   1.072
 2919TIP3   OH2 8697   8.175   6.504   1.774
 2919TIP3    H1 8698   8.100   6.559   1.754
 2919TIP3    H2 8699   8.230   6.558   1.832
 2920TIP3   OH2 8700   4.383   6.028   5.561
 2920TIP3    H1 8701   4.316   5.966   5.532
 2920TIP3    H2 8702   4.355   6.053   5.649
 2921TIP3   OH2 8703   2.223   4.872   3.202
 2921TIP3    H1 8704   2.178   4.847   3.282
 2921TIP3    H2 8705   2.232   4.790   3.153
 2922TIP3   OH2 8706   3.566   1.621   3.880
 2922TIP3    H1 8707   3.585   1.610   3.974
 2922TIP3    H2 8708   3.505   1.695   3.877
 2923TIP3   OH2 8709   0.310   3.969   2.559
 2923TIP3    H1 8710   0.359   3.898   2.602
 2923TIP3    H2 8711   0.316   3.948   2.465
 2924TIP3   OH2 8712   4.397   2.591   0.150
 2924TIP3    H1 8713   4.455   2.519   0.172
 2924TIP3    H2 8714   4.346   2.559   0.075
 2925TIP3   OH2 8715   8.336   0.555   3.283
 2925TIP3    H1 8716   8.330   0.628   3.221
 2925TIP3    H2 8717   8.248   0.547   3.319
 2926TIP3   OH2 8718   0.579   3.600   3.223
 2926TIP3    H1 8719   0.493   3.599   3.263
 2926TIP3    H2 8720   0.615   3.686   3.243
 2927TIP3   OH2 8721   5.446   5.471   0.906
 2927TIP3    H1 8722   5.380   5.401   0.905
 2927TIP3    H2 8723   5.460   5.492   0.813
 2928TIP3   OH2 8724   0.277   0.445   1.651
 2928TIP3    H1 8725   0.354   0.394   1.674
 2928TIP3    H2 8726   0.284   0.524   1.705
 2929TIP3   OH2 8727   3.009   4.802   5.639
 2929TIP3    H1 8728   2.937   4.744   5.663
 2929TIP3    H2 8729   3.085   4.763   5.682
 2930TIP3   OH2 8730   6.135   1.966   6.468
 2930TIP3    H1 8731   6.055   1.964   6.415
 2930TIP3    H2 8732   6.194   1.905   6.424
 2931TIP3   OH2 8733   6.205   5.605   0.222
 2931TIP3    H1 8734   6.114   5.576   0.232
 2931TIP3    H2 8735   6.198   5.697   0.198
 2932TIP3   OH2 8736   2.833   3.544   5.180
 2932TIP3    H1 8737   2.854   3.637   5.191
 2932TIP3    H2 8738   2.918   3.500   5.180
 2933TIP3   OH2 8739   0.875   3.353   5.825
 2933TIP3    H1 8740   0.887   3.410   5.901
 2933TIP3    H2 8741   0.814   3.400   5.769
 2934TIP3   OH2 8742   3.051   0.357   1.379
 2934TIP3    H1 8743   3.024   0.435   1.427
 2934TIP3    H2 8744   3.147   0.361   1.381
 2935TIP3   OH2 8745   4.215   4.319  -0.019
 2935TIP3    H1 8746   4.166   4.392   0.020
 2935TIP3    H2 8747   4.237   4.262   0.054
 2936TIP3   OH2 8748   2.492   1.012   4.526
 2936TIP3    H1 8749   2.424   1.077   4.544
 2936TIP3    H2 8750   2.570   1.063   4.503
 2937TIP3   OH2 8751   2.328   0.397   4.677
 2937TIP3    H1 8752   2.422   0.390   4.658
 2937TIP3    H2 8753   2.288   0.418   4.592
 2938TIP3   OH2 8754   3.083   4.319   2.399
 2938TIP3    H1 8755   3.072   4.233   2.439
 2938TIP3    H2 8756   3.119   4.373   2.469
 2939TIP3   OH2 8757   1.962   0.341   5.531
 2939TIP3    H1 8758   2.004   0.424   5.510
 2939TIP3    H2 8759   1.936   0.349   5.623
 2940TIP3   OH2 8760   5.061   0.384   4.278
 2940TIP3    H1 8761   4.968   0.397   4.295
 2940TIP3    H2 8762   5.063   0.321   4.206
 2941TIP3   OH2 8763   2.648   6.966   4.213
 2941TIP3    H1 8764   2.584   6.992   4.280
 2941TIP3    H2 8765   2.712   7.037   4.212
 2942TIP3   OH2 8766   6.049   6.102   6.098
 2942TIP3    H1 8767   6.030   6.012   6.125
 2942TIP3    H2 8768   6.138   6.118   6.128
 2943TIP3   OH2 8769   1.474   3.327   3.042
 2943TIP3    H1 8770   1.489   3.411   3.086
 2943TIP3    H2 8771   1.386   3.301   3.068
 2944TIP3   OH2 8772   5.653   5.473   6.175
 2944TIP3    H1 8773   5.731   5.426   6.203
 2944TIP3    H2 8774   5.581   5.413   6.195
 2945TIP3   OH2 8775   0.262   2.511   2.614
 2945TIP3    H1 8776   0.210   2.576   2.661
 2945TIP3    H2 8777   0.247   2.429   2.661
 2946TIP3   OH2 8778   6.153   5.950   2.770
 2946TIP3    H1 8779   6.189   6.005   2.701
 2946TIP3    H2 8780   6.157   5.861   2.734
 2947TIP3   OH2 8781   6.824   7.336   5.042
 2947TIP3    H1 8782   6.862   7.362   4.958
 2947TIP3    H2 8783   6.783   7.415   5.076
 2948TIP3   OH2 8784   3.847   6.134   2.232
 2948TIP3    H1 8785   3.923   6.075   2.233
 2948TIP3    H2 8786   3.840   6.162   2.141
 2949TIP3   OH2 8787   4.638   0.573   3.027
 2949TIP3    H1 8788   4.580   0.614   3.090
 2949TIP3    H2 8789   4.605   0.484   3.017
 2950TIP3   OH2 8790   1.456   2.335   1.053
 2950TIP3    H1 8791   1.407   2.276   1.110
 2950TIP3    H2 8792   1.468   2.415   1.104
 2951TIP3   OH2 8793   5.409   7.105   2.909
 2951TIP3    H1 8794   5.408   7.080   2.817
 2951TIP3    H2 8795   5.359   7.037   2.954
 2952TIP3   OH2 8796   5.869   7.314   0.763
 2952TIP3    H1 8797   5.821   7.388   0.800
 2952TIP3    H2 8798   5.809   7.276   0.699
 2953TIP3   OH2 8799   6.390   5.263   1.780
 2953TIP3    H1 8800   6.331   5.283   1.853
 2953TIP3    H2 8801   6.388   5.342   1.726
 2954TIP3   OH2 8802   6.903   0.899   3.352
 2954TIP3    H1 8803   6.854   0.945   3.420
 2954TIP3    H2 8804   6.949   0.969   3.305
 2955TIP3   OH2 8805   1.752   3.118   0.393
 2955TIP3    H1 8806   1.698   3.197   0.396
 2955TIP3    H2 8807   1.696   3.050   0.431
 2956TIP3   OH2 8808   2.793   0.490   1.241
 2956TIP3    H1 8809   2.862   0.452   1.187
 2956TIP3    H2 8810   2.787   0.432   1.317
 2957TIP3   OH2 8811   5.568   6.636   0.689
 2957TIP3    H1 8812   5.658   6.668   0.690
 2957TIP3    H2 8813   5.573   6.553   0.640
 2958TIP3   OH2 8814   2.975   7.120   4.539
 2958TIP3    H1 8815   2.999   7.028   4.556
 2958TIP3    H2 8816   2.981   7.162   4.625
 2959TIP3   OH2 8817   6.043   5.763   5.991
 2959TIP3    H1 8818   6.104   5.823   5.949
 2959TIP3    H2 8819   5.995   5.817   6.053
 2960TIP3   OH2 8820   6.641   7.495   2.695
 2960TIP3    H1 8821   6.591   7.480   2.614
 2960TIP3    H2 8822   6.579   7.476   2.765
 2961TIP3   OH2 8823   0.922   6.150   2.988
 2961TIP3    H1 8824   0.936   6.153   3.083
 2961TIP3    H2 8825   0.982   6.217   2.954
 2962TIP3   OH2 8826   4.272   2.781   6.648
 2962TIP3    H1 8827   4.278   2.704   6.704
 2962TIP3    H2 8828   4.198   2.831   6.683
 2963TIP3   OH2 8829   6.682   4.271   1.814
 2963TIP3    H1 8830   6.755   4.312   1.768
 2963TIP3    H2 8831   6.717   4.189   1.847
 2964TIP3   OH2 8832   3.164   5.240   6.258
 2964TIP3    H1 8833   3.112   5.185   6.317
 2964TIP3    H2 8834   3.246   5.254   6.304
 2965TIP3   OH2 8835   0.693   2.717   4.472
 2965TIP3    H1 8836   0.614   2.699   4.423
 2965TIP3    H2 8837   0.662   2.741   4.560
 2966TIP3   OH2 8838   6.258   6.840   4.226
 2966TIP3    H1 8839   6.331   6.854   4.287
 2966TIP3    H2 8840   6.193   6.793   4.278
 2967TIP3   OH2 8841   6.236   7.895   1.440
 2967TIP3    H1 8842   6.170   7.930   1.499
 2967TIP3    H2 8843   6.268   7.816   1.484
 2968TIP3   OH2 8844   0.210   2.296   0.716
 2968TIP3    H1 8845   0.150   2.369   0.700
 2968TIP3    H2 8846   0.281   2.335   0.768
 2969TIP3   OH2 8847   3.072   0.349   3.675
 2969TIP3    H1 8848   3.046   0.361   3.584
 2969TIP3    H2 8849   3.092   0.437   3.706
 2970TIP3   OH2 8850   2.214   5.074   2.495
 2970TIP3    H1 8851   2.142   5.085   2.434
 2970TIP3    H2 8852   2.181   5.110   2.578
 2971TIP3   OH2 8853   3.508   6.170   2.060
 2971TIP3    H1 8854   3.568   6.245   2.058
 2971TIP3    H2 8855   3.558   6.101   2.104
 2972TIP3   OH2 8856   0.442   7.276   1.492
 2972TIP3    H1 8857   0.356   7.252   1.459
 2972TIP3    H2 8858   0.456   7.365   1.458
 2973TIP3   OH2 8859   6.511   6.200   1.859
 2973TIP3    H1 8860   6.416   6.203   1.852
 2973TIP3    H2 8861   6.541   6.269   1.799
 2974TIP3   OH2 8862   0.207   4.630   1.550
 2974TIP3    H1 8863   0.217   4.725   1.544
 2974TIP3    H2 8864   0.117   4.617   1.581
 2975TIP3   OH2 8865   6.941   5.506   3.721
 2975TIP3    H1 8866   6.897   5.441   3.775
 2975TIP3    H2 8867   6.872   5.568   3.696
 2976TIP3   OH2 8868   5.340   2.821   1.001
 2976TIP3    H1 8869   5.356   2.730   1.026
 2976TIP3    H2 8870   5.265   2.849   1.054
 2977TIP3   OH2 8871   6.802   0.943   4.362
 2977TIP3    H1 8872   6.802   0.848   4.372
 2977TIP3    H2 8873   6.874   0.961   4.301
 2978TIP3   OH2 8874   1.271   6.706   5.585
 2978TIP3    H1 8875   1.280   6.796   5.553
 2978TIP3    H2 8876   1.183   6.680   5.558
 2979TIP3   OH2 8877   2.148   6.493   4.915
 2979TIP3    H1 8878   2.114   6.426   4.856
 2979TIP3    H2 8879   2.217   6.537   4.865
 2980TIP3   OH2 8880   5.977   1.767   1.548
 2980TIP3    H1 8881   6.063   1.726   1.542
 2980TIP3    H2 8882   5.996   1.861   1.547
 2981TIP3   OH2 8883   2.552   4.523   3.198
 2981TIP3    H1 8884   2.560   4.618   3.198
 2981TIP3    H2 8885   2.629   4.492   3.245
 2982TIP3   OH2 8886   7.042   0.971   6.621
 2982TIP3    H1 8887   7.112   1.033   6.638
 2982TIP3    H2 8888   7.016   0.938   6.707
 2983TIP3   OH2 8889   5.068   6.637   6.033
 2983TIP3    H1 8890   5.133   6.568   6.020
 2983TIP3    H2 8891   5.033   6.620   6.121
 2984TIP3   OH2 8892   3.401   6.156   0.461
 2984TIP3    H1 8893   3.396   6.152   0.366
 2984TIP3    H2 8894   3.495   6.160   0.480
 2985TIP3   OH2 8895   4.251   4.810   5.660
 2985TIP3    H1 8896   4.286   4.722   5.673
 2985TIP3    H2 8897   4.196   4.802   5.582
 2986TIP3   OH2 8898   6.309   1.831   6.300
 2986TIP3    H1 8899   6.369   1.874   6.239
 2986TIP3    H2 8900   6.364   1.808   6.375
 2987TIP3   OH2 8901   6.808   1.667   3.678
 2987TIP3    H1 8902   6.838   1.747   3.635
 2987TIP3    H2 8903   6.736   1.696   3.735
 2988TIP3   OH2 8904   3.580   3.889   1.529
 2988TIP3    H1 8905   3.667   3.848   1.529
 2988TIP3    H2 8906   3.595   3.975   1.568
 2989TIP3   OH2 8907   4.027   5.976   1.529
 2989TIP3    H1 8908   3.979   5.973   1.612
 2989TIP3    H2 8909   3.990   6.050   1.482
 2990TIP3   OH2 8910   7.260   2.476   0.828
 2990TIP3    H1 8911   7.339   2.527   0.847
 2990TIP3    H2 8912   7.229   2.510   0.744
 2991TIP3   OH2 8913   7.244   6.265   5.415
 2991TIP3    H1 8914   7.220   6.357   5.404
 2991TIP3    H2 8915   7.281   6.261   5.503
 2992TIP3   OH2 8916   1.967   3.755   5.130
 2992TIP3    H1 8917   2.026   3.819   5.091
 2992TIP3    H2 8918   1.984   3.760   5.224
 2993TIP3   OH2 8919   1.909   0.390   4.815
 2993TIP3    H1 8920   1.871   0.366   4.900
 2993TIP3    H2 8921   1.836   0.431   4.768
 2994TIP3   OH2 8922   0.177   3.989   6.712
 2994TIP3    H1 8923   0.254   3.943   6.682
 2994TIP3    H2 8924   0.163   4.059   6.648
 2995TIP3   OH2 8925   7.653   0.805   0.272
 2995TIP3    H1 8926   7.594   0.788   0.346
 2995TIP3    H2 8927   7.693   0.889   0.293
 2996TIP3   OH2 8928   5.793   4.532   4.698
 2996TIP3    H1 8929   5.855   4.460   4.691
 2996TIP3    H2 8930   5.791   4.554   4.791
 2997TIP3   OH2 8931   5.466   4.145   5.004
 2997TIP3    H1 8932   5.389   4.153   4.948
 2997TIP3    H2 8933   5.537   4.184   4.953
 2998TIP3   OH2 8934   7.176   2.497   3.433
 2998TIP3    H1 8935   7.203   2.544   3.512
 2998TIP3    H2 8936   7.087   2.467   3.453
 2999TIP3   OH2 8937   5.099   3.755   1.406
 2999TIP3    H1 8938   5.049   3.833   1.431
 2999TIP3    H2 8939   5.054   3.721   1.329
 3000TIP3   OH2 8940   6.177   6.058   4.871
 3000TIP3    H1 8941   6.189   5.998   4.798
 3000TIP3    H2 8942   6.264   6.064   4.912
 3001TIP3   OH2 8943   5.862   3.344   0.183
 3001TIP3    H1 8944   5.870   3.304   0.270
 3001TIP3    H2 8945   5.836   3.272   0.126
 3002TIP3   OH2 8946   6.129   5.668   6.532
 3002TIP3    H1 8947   6.102   5.577   6.527
 3002TIP3    H2 8948   6.059   5.712   6.580
 3003TIP3   OH2 8949   1.749   2.316   2.086
 3003TIP3    H1 8950   1.664   2.276   2.066
 3003TIP3    H2 8951   1.810   2.242   2.088
 3004TIP3   OH2 8952   6.434   1.698   2.914
 3004TIP3    H1 8953   6.356   1.660   2.954
 3004TIP3    H2 8954   6.410   1.789   2.897
 3005TIP3   OH2 8955   6.542   6.368   0.197
 3005TIP3    H1 8956   6.527   6.359   0.102
 3005TIP3    H2 8957   6.605   6.299   0.218
 3006TIP3   OH2 8958   2.034   4.948   6.377
 3006TIP3    H1 8959   1.959   4.891   6.358
 3006TIP3    H2 8960   1.995   5.035   6.383
 3007TIP3   OH2 8961   4.956   7.689   5.565
 3007TIP3    H1 8962   4.904   7.743   5.624
 3007TIP3    H2 8963   4.895   7.624   5.531
 3008TIP3   OH2 8964   2.892   6.581   4.703
 3008TIP3    H1 8965   2.955   6.564   4.633
 3008TIP3    H2 8966   2.922   6.527   4.776
 3009TIP3   OH2 8967  -0.014   6.434   3.494
 3009TIP3    H1 8968   0.012   6.355   3.447
 3009TIP3    H2 8969   0.062   6.455   3.549
 3010TIP3   OH2 8970   0.625   2.162   5.848
 3010TIP3    H1 8971   0.559   2.151   5.916
 3010TIP3    H2 8972   0.615   2.252   5.819
 3011TIP3   OH2 8973   5.189   1.528   3.110
 3011TIP3    H1 8974   5.131   1.496   3.179
 3011TIP3    H2 8975   5.166   1.620   3.099
 3012TIP3   OH2 8976   6.501   1.685   1.003
 3012TIP3    H1 8977   6.547   1.683   1.086
 3012TIP3    H2 8978   6.428   1.623   1.015
 3013TIP3   OH2 8979   5.745   4.583   4.985
 3013TIP3    H1 8980   5.797   4.632   5.049
 3013TIP3    H2 8981   5.654   4.601   5.009
 3014TIP3   OH2 8982   4.754   2.799   1.619
 3014TIP3    H1 8983   4.775   2.860   1.548
 3014TIP3    H2 8984   4.823   2.732   1.614
 3015TIP3   OH2 8985   6.604   5.480   0.562
 3015TIP3    H1 8986   6.542   5.522   0.501
 3015TIP3    H2 8987   6.647   5.413   0.510
 3016TIP3   OH2 8988   8.033   3.543   3.306
 3016TIP3    H1 8989   7.970   3.473   3.318
 3016TIP3    H2 8990   8.040   3.554   3.211
 3017TIP3   OH2 8991   7.731   7.668   0.122
 3017TIP3    H1 8992   7.774   7.753   0.132
 3017TIP3    H2 8993   7.638   7.689   0.120
 3018TIP3   OH2 8994   0.861   4.794   2.367
 3018TIP3    H1 8995   0.782   4.770   2.414
 3018TIP3    H2 8996   0.873   4.887   2.386
 3019TIP3   OH2 8997   7.805   7.638   0.506
 3019TIP3    H1 8998   7.816   7.606   0.595
 3019TIP3    H2 8999   7.893   7.642   0.470
 3020TIP3   OH2 9000   4.371   5.082   2.253
 3020TIP3    H1 9001   4.277   5.094   2.238
 3020TIP3    H2 9002   4.401   5.167   2.286
 3021TIP3   OH2 9003   0.600   5.300   5.976
 3021TIP3    H1 9004   0.665   5.248   6.024
 3021TIP3    H2 9005   0.615   5.390   6.007
 3022TIP3   OH2 9006   5.190   5.074   2.193
 3022TIP3    H1 9007   5.181   5.095   2.100
 3022TIP3    H2 9008   5.257   5.133   2.226
 3023TIP3   OH2 9009   1.906   0.786   6.044
 3023TIP3    H1 9010   1.843   0.818   6.108
 3023TIP3    H2 9011   1.878   0.697   6.024
 3024TIP3   OH2 9012   6.610   7.728   1.843
 3024TIP3    H1 9013   6.622   7.665   1.914
 3024TIP3    H2 9014   6.560   7.679   1.776
 3025TIP3   OH2 9015   8.363   6.428   0.471
 3025TIP3    H1 9016   8.365   6.522   0.491
 3025TIP3    H2 9017   8.344   6.425   0.377
 3026TIP3   OH2 9018   6.771   5.054   1.477
 3026TIP3    H1 9019   6.774   4.958   1.468
 3026TIP3    H2 9020   6.863   5.081   1.477
 3027TIP3   OH2 9021   0.901   6.112   1.841
 3027TIP3    H1 9022   0.934   6.056   1.911
 3027TIP3    H2 9023   0.929   6.200   1.866
 3028TIP3   OH2 9024   7.352   1.380   6.373
 3028TIP3    H1 9025   7.260   1.406   6.372
 3028TIP3    H2 9026   7.397   1.450   6.419
 3029TIP3   OH2 9027   4.004   2.219   2.084
 3029TIP3    H1 9028   3.916   2.249   2.105
 3029TIP3    H2 9029   4.046   2.204   2.169
 3030TIP3   OH2 9030   1.562   6.738   5.277
 3030TIP3    H1 9031   1.555   6.683   5.354
 3030TIP3    H2 9032   1.639   6.792   5.293
 3031TIP3   OH2 9033   0.508   7.142   2.296
 3031TIP3    H1 9034   0.577   7.081   2.272
 3031TIP3    H2 9035   0.428   7.089   2.300
 3032TIP3   OH2 9036   2.126   3.246   2.614
 3032TIP3    H1 9037   2.109   3.199   2.696
 3032TIP3    H2 9038   2.078   3.328   2.623
 3033TIP3   OH2 9039   6.238   1.957   3.309
 3033TIP3    H1 9040   6.154   2.005   3.308
 3033TIP3    H2 9041   6.260   1.946   3.217
 3034TIP3   OH2 9042   1.873   4.051   6.409
 3034TIP3    H1 9043   1.911   4.027   6.324
 3034TIP3    H2 9044   1.948   4.079   6.461
 3035TIP3   OH2 9045   5.132   5.172   6.603
 3035TIP3    H1 9046   5.067   5.176   6.673
 3035TIP3    H2 9047   5.106   5.242   6.543
 3036TIP3   OH2 9048   6.084   5.397   6.523
 3036TIP3    H1 9049   6.178   5.416   6.519
 3036TIP3    H2 9050   6.073   5.323   6.463
 3037TIP3   OH2 9051   5.726   3.631   6.428
 3037TIP3    H1 9052   5.708   3.539   6.407
 3037TIP3    H2 9053   5.690   3.680   6.353
 3038TIP3   OH2 9054   4.837   5.872   0.871
 3038TIP3    H1 9055   4.910   5.843   0.926
 3038TIP3    H2 9056   4.797   5.791   0.839
 3039TIP3   OH2 9057   4.779   4.533   3.506
 3039TIP3    H1 9058   4.722   4.458   3.486
 3039TIP3    H2 9059   4.788   4.579   3.423
 3040TIP3   OH2 9060   2.788   6.404   0.569
 3040TIP3    H1 9061   2.836   6.456   0.504
 3040TIP3    H2 9062   2.702   6.446   0.574
 3041TIP3   OH2 9063   3.305   2.755   6.049
 3041TIP3    H1 9064   3.370   2.724   6.112
 3041TIP3    H2 9065   3.335   2.723   5.965
 3042TIP3   OH2 9066   4.273   6.787   1.204
 3042TIP3    H1 9067   4.266   6.695   1.231
 3042TIP3    H2 9068   4.211   6.796   1.131
 3043TIP3   OH2 9069   0.545   5.651   3.405
 3043TIP3    H1 9070   0.564   5.713   3.334
 3043TIP3    H2 9071   0.476   5.595   3.371
 3044TIP3   OH2 9072   7.486   4.367   3.549
 3044TIP3    H1 9073   7.423   4.315   3.499
 3044TIP3    H2 9074   7.448   4.455   3.550
 3045TIP3   OH2 9075   1.328   6.571   0.512
 3045TIP3    H1 9076   1.260   6.509   0.536
 3045TIP3    H2 9077   1.362   6.604   0.595
 3046TIP3   OH2 9078   4.111   4.124   2.694
 3046TIP3    H1 9079   4.081   4.052   2.750
 3046TIP3    H2 9080   4.150   4.081   2.618
 3047TIP3   OH2 9081   3.951   2.216   6.887
 3047TIP3    H1 9082   4.041   2.189   6.866
 3047TIP3    H2 9083   3.900   2.194   6.809
 3048TIP3   OH2 9084   3.898   6.211   0.685
 3048TIP3    H1 9085   3.853   6.204   0.769
 3048TIP3    H2 9086   3.978   6.160   0.696
 3049TIP3   OH2 9087   1.528   7.412   1.778
 3049TIP3    H1 9088   1.461   7.346   1.797
 3049TIP3    H2 9089   1.608   7.362   1.764
 3050TIP3   OH2 9090   7.082   7.274   0.788
 3050TIP3    H1 9091   7.026   7.200   0.766
 3050TIP3    H2 9092   7.087   7.325   0.707
 3051TIP3   OH2 9093   3.923   0.604   5.378
 3051TIP3    H1 9094   3.939   0.511   5.387
 3051TIP3    H2 9095   4.003   0.639   5.339
 3052TIP3   OH2 9096   1.632   3.042   2.770
 3052TIP3    H1 9097   1.673   3.125   2.745
 3052TIP3    H2 9098   1.648   2.983   2.697
 3053TIP3   OH2 9099   2.110   2.418   6.349
 3053TIP3    H1 9100   2.134   2.332   6.382
 3053TIP3    H2 9101   2.193   2.461   6.330
 3054TIP3   OH2 9102   3.785   1.128   3.702
 3054TIP3    H1 9103   3.831   1.143   3.620
 3054TIP3    H2 9104   3.721   1.199   3.707
 3055TIP3   OH2 9105   7.374   2.380   0.011
 3055TIP3    H1 9106   7.291   2.341   0.039
 3055TIP3    H2 9107   7.357   2.474   0.011
 3056TIP3   OH2 9108   3.989   6.799   6.536
 3056TIP3    H1 9109   4.059   6.751   6.581
 3056TIP3    H2 9110   4.031   6.836   6.458
 3057TIP3   OH2 9111   0.118   5.768   6.755
 3057TIP3    H1 9112   0.023   5.781   6.761
 3057TIP3    H2 9113   0.129   5.679   6.723
 3058TIP3   OH2 9114   7.956   5.085   3.044
 3058TIP3    H1 9115   7.907   5.167   3.042
 3058TIP3    H2 9116   8.029   5.099   2.984
 3059TIP3   OH2 9117   6.904   1.571   0.466
 3059TIP3    H1 9118   6.920   1.492   0.518
 3059TIP3    H2 9119   6.978   1.628   0.486
 3060TIP3   OH2 9120   3.945   4.120   5.882
 3060TIP3    H1 9121   4.039   4.103   5.875
 3060TIP3    H2 9122   3.904   4.038   5.854
 3061TIP3   OH2 9123   6.073   3.143   4.314
 3061TIP3    H1 9124   6.166   3.162   4.308
 3061TIP3    H2 9125   6.039   3.207   4.377
 3062TIP3   OH2 9126   2.426   4.253   4.082
 3062TIP3    H1 9127   2.346   4.231   4.035
 3062TIP3    H2 9128   2.458   4.332   4.040
 3063TIP3   OH2 9129   2.961   6.592   4.203
 3063TIP3    H1 9130   3.027   6.658   4.222
 3063TIP3    H2 9131   2.981   6.521   4.264
 3064TIP3   OH2 9132   6.093   0.534   6.299
 3064TIP3    H1 9133   6.052   0.535   6.212
 3064TIP3    H2 9134   6.069   0.619   6.336
 3065TIP3   OH2 9135   7.111   0.507   2.147
 3065TIP3    H1 9136   7.200   0.482   2.174
 3065TIP3    H2 9137   7.063   0.516   2.230
 3066TIP3   OH2 9138   3.821   2.174   5.201
 3066TIP3    H1 9139   3.913   2.172   5.230
 3066TIP3    H2 9140   3.827   2.193   5.107
 3067TIP3   OH2 9141   0.426   2.193   1.036
 3067TIP3    H1 9142   0.476   2.111   1.031
 3067TIP3    H2 9143   0.400   2.199   1.128
 3068TIP3   OH2 9144   4.654   1.245   2.449
 3068TIP3    H1 9145   4.574   1.275   2.492
 3068TIP3    H2 9146   4.698   1.326   2.423
 3069TIP3   OH2 9147   5.338   7.225   1.107
 3069TIP3    H1 9148   5.289   7.174   1.172
 3069TIP3    H2 9149   5.367   7.159   1.043
 3070TIP3   OH2 9150   5.666   3.690   6.689
 3070TIP3    H1 9151   5.717   3.683   6.608
 3070TIP3    H2 9152   5.624   3.604   6.698
 3071TIP3   OH2 9153   1.247   7.084   2.721
 3071TIP3    H1 9154   1.219   7.027   2.793
 3071TIP3    H2 9155   1.304   7.149   2.763
 3072TIP3   OH2 9156   2.489   5.258   1.070
 3072TIP3    H1 9157   2.484   5.327   1.004
 3072TIP3    H2 9158   2.489   5.177   1.019
 3073TIP3   OH2 9159   7.046   0.964   6.167
 3073TIP3    H1 9160   7.073   0.906   6.237
 3073TIP3    H2 9161   7.127   0.987   6.121
 3074TIP3   OH2 9162   5.252   4.725   1.799
 3074TIP3    H1 9163   5.271   4.782   1.873
 3074TIP3    H2 9164   5.159   4.703   1.808
 3075TIP3   OH2 9165   6.211   7.231   0.138
 3075TIP3    H1 9166   6.179   7.223   0.048
 3075TIP3    H2 9167   6.135   7.211   0.193
 3076TIP3   OH2 9168   5.397   3.826   4.690
 3076TIP3    H1 9169   5.308   3.805   4.660
 3076TIP3    H2 9170   5.440   3.861   4.612
 3077TIP3   OH2 9171   7.147   4.025   2.363
 3077TIP3    H1 9172   7.150   3.955   2.428
 3077TIP3    H2 9173   7.238   4.037   2.335
 3078TIP3   OH2 9174   5.183   5.031   3.524
 3078TIP3    H1 9175   5.115   5.022   3.457
 3078TIP3    H2 9176   5.260   4.987   3.486
 3079TIP3   OH2 9177   0.401   7.106   0.062
 3079TIP3    H1 9178   0.375   7.032   0.007
 3079TIP3    H2 9179   0.452   7.067   0.132
 3080TIP3   OH2 9180   4.194   4.393   3.148
 3080TIP3    H1 9181   4.258   4.457   3.117
 3080TIP3    H2 9182   4.198   4.400   3.244
 3081TIP3   OH2 9183   0.095   5.971   0.363
 3081TIP3    H1 9184   0.000   5.959   0.371
 3081TIP3    H2 9185   0.125   5.892   0.320
 3082TIP3   OH2 9186   3.983   2.208   4.076
 3082TIP3    H1 9187   4.036   2.156   4.016
 3082TIP3    H2 9188   3.892   2.187   4.052
 3083TIP3   OH2 9189   4.646   6.715   1.989
 3083TIP3    H1 9190   4.684   6.800   1.969
 3083TIP3    H2 9191   4.600   6.727   2.072
 3084TIP3   OH2 9192   5.650   4.998   4.076
 3084TIP3    H1 9193   5.615   5.018   3.989
 3084TIP3    H2 9194   5.718   4.932   4.059
 3085TIP3   OH2 9195   6.086   4.230   4.170
 3085TIP3    H1 9196   6.075   4.226   4.265
 3085TIP3    H2 9197   6.119   4.143   4.147
 3086TIP3   OH2 9198   3.334   3.047   3.687
 3086TIP3    H1 9199   3.326   3.142   3.674
 3086TIP3    H2 9200   3.320   3.034   3.781
 3087TIP3   OH2 9201   8.159   2.659   2.051
 3087TIP3    H1 9202   8.086   2.720   2.038
 3087TIP3    H2 9203   8.162   2.608   1.970
 3088TIP3   OH2 9204   4.069   7.461   6.464
 3088TIP3    H1 9205   4.104   7.528   6.405
 3088TIP3    H2 9206   4.138   7.395   6.468
 3089TIP3   OH2 9207   4.474   4.222   1.721
 3089TIP3    H1 9208   4.462   4.281   1.796
 3089TIP3    H2 9209   4.389   4.180   1.709
 3090TIP3   OH2 9210   5.295   6.604   0.464
 3090TIP3    H1 9211   5.389   6.609   0.451
 3090TIP3    H2 9212   5.264   6.694   0.452
 3091TIP3   OH2 9213   6.709   0.798   5.978
 3091TIP3    H1 9214   6.651   0.866   6.012
 3091TIP3    H2 9215   6.754   0.763   6.055
 3092TIP3   OH2 9216   0.606   7.896   0.745
 3092TIP3    H1 9217   0.595   7.827   0.680
 3092TIP3    H2 9218   0.560   7.971   0.708
 3093TIP3   OH2 9219   0.761   3.957   2.493
 3093TIP3    H1 9220   0.763   4.019   2.420
 3093TIP3    H2 9221   0.682   3.980   2.542
 3094TIP3   OH2 9222   4.231   5.777   3.687
 3094TIP3    H1 9223   4.244   5.799   3.779
 3094TIP3    H2 9224   4.136   5.776   3.676
 3095TIP3   OH2 9225   2.878   7.506   3.789
 3095TIP3    H1 9226   2.882   7.597   3.819
 3095TIP3    H2 9227   2.941   7.502   3.716
 3096TIP3   OH2 9228   2.378   1.749   4.574
 3096TIP3    H1 9229   2.462   1.736   4.529
 3096TIP3    H2 9230   2.379   1.842   4.598
 3097TIP3   OH2 9231   0.089   2.253   4.274
 3097TIP3    H1 9232   0.138   2.333   4.293
 3097TIP3    H2 9233   0.009   2.284   4.231
 3098TIP3   OH2 9234   3.859   3.574   6.315
 3098TIP3    H1 9235   3.773   3.585   6.357
 3098TIP3    H2 9236   3.871   3.480   6.310
 3099TIP3   OH2 9237   6.403   2.280   0.886
 3099TIP3    H1 9238   6.364   2.357   0.927
 3099TIP3    H2 9239   6.464   2.316   0.821
 3100TIP3   OH2 9240   2.746   2.595   6.020
 3100TIP3    H1 9241   2.695   2.534   5.967
 3100TIP3    H2 9242   2.697   2.602   6.102
 3101TIP3   OH2 9243   2.367   1.358   0.370
 3101TIP3    H1 9244   2.290   1.410   0.391
 3101TIP3    H2 9245   2.340   1.304   0.295
 3102TIP3   OH2 9246   6.862   0.635   0.195
 3102TIP3    H1 9247   6.775   0.674   0.204
 3102TIP3    H2 9248   6.848   0.541   0.206
 3103TIP3   OH2 9249   2.548   0.747   1.109
 3103TIP3    H1 9250   2.631   0.791   1.126
 3103TIP3    H2 9251   2.572   0.669   1.060
 3104TIP3   OH2 9252   5.159   0.524   5.997
 3104TIP3    H1 9253   5.071   0.554   5.977
 3104TIP3    H2 9254   5.186   0.578   6.072
 3105TIP3   OH2 9255   1.687   5.795   1.432
 3105TIP3    H1 9256   1.770   5.749   1.444
 3105TIP3    H2 9257   1.712   5.880   1.394
 3106TIP3   OH2 9258   7.520   5.827   3.919
 3106TIP3    H1 9259   7.509   5.740   3.881
 3106TIP3    H2 9260   7.458   5.829   3.992
 3107TIP3   OH2 9261   7.416   6.251   4.425
 3107TIP3    H1 9262   7.439   6.278   4.514
 3107TIP3    H2 9263   7.466   6.310   4.368
 3108TIP3   OH2 9264   0.437   1.710   4.866
 3108TIP3    H1 9265   0.484   1.715   4.950
 3108TIP3    H2 9266   0.357   1.761   4.881
 3109TIP3   OH2 9267   4.299   1.304   2.268
 3109TIP3    H1 9268   4.304   1.208   2.274
 3109TIP3    H2 9269   4.295   1.322   2.175
 3110TIP3   OH2 9270   1.497   0.746   5.087
 3110TIP3    H1 9271   1.534   0.786   5.166
 3110TIP3    H2 9272   1.538   0.794   5.015
 3111TIP3   OH2 9273   1.397   0.920   2.854
 3111TIP3    H1 9274   1.428   0.876   2.933
 3111TIP3    H2 9275   1.394   0.851   2.788
 3112TIP3   OH2 9276   8.123   6.267   6.826
 3112TIP3    H1 9277   8.143   6.361   6.826
 3112TIP3    H2 9278   8.140   6.239   6.736
 3113TIP3   OH2 9279   6.460   7.752   6.470
 3113TIP3    H1 9280   6.483   7.668   6.430
 3113TIP3    H2 9281   6.493   7.818   6.408
 3114TIP3   OH2 9282   1.979   7.261   0.820
 3114TIP3    H1 9283   1.898   7.278   0.771
 3114TIP3    H2 9284   2.036   7.216   0.758
 3115TIP3   OH2 9285   1.721   6.570   4.569
 3115TIP3    H1 9286   1.710   6.518   4.489
 3115TIP3    H2 9287   1.667   6.647   4.554
 3116TIP3   OH2 9288   6.469   2.309   4.307
 3116TIP3    H1 9289   6.439   2.338   4.221
 3116TIP3    H2 9290   6.542   2.251   4.289
 3117TIP3   OH2 9291   2.814   3.077   1.898
 3117TIP3    H1 9292   2.730   3.061   1.941
 3117TIP3    H2 9293   2.795   3.068   1.805
 3118TIP3   OH2 9294   6.645   4.000   1.042
 3118TIP3    H1 9295   6.618   3.909   1.044
 3118TIP3    H2 9296   6.689   4.011   0.958
 3119TIP3   OH2 9297   5.351   3.405   2.141
 3119TIP3    H1 9298   5.386   3.440   2.223
 3119TIP3    H2 9299   5.273   3.456   2.124
 3120TIP3   OH2 9300   8.342   7.190   2.809
 3120TIP3    H1 9301   8.354   7.279   2.841
 3120TIP3    H2 9302   8.410   7.139   2.852
 3121TIP3   OH2 9303   3.523   4.998   2.561
 3121TIP3    H1 9304   3.462   5.062   2.524
 3121TIP3    H2 9305   3.578   5.049   2.620
 3122TIP3   OH2 9306   6.797   3.270   1.382
 3122TIP3    H1 9307   6.856   3.281   1.456
 3122TIP3    H2 9308   6.735   3.202   1.410
 3123TIP3   OH2 9309   4.454   1.098   3.532
 3123TIP3    H1 9310   4.530   1.101   3.474
 3123TIP3    H2 9311   4.464   1.174   3.589
 3124TIP3   OH2 9312   5.517   5.427   6.730
 3124TIP3    H1 9313   5.608   5.412   6.755
 3124TIP3    H2 9314   5.470   5.433   6.813
 3125TIP3   OH2 9315   1.485   7.389   6.226
 3125TIP3    H1 9316   1.479   7.476   6.187
 3125TIP3    H2 9317   1.476   7.329   6.153
 3126TIP3   OH2 9318   7.844   7.249   2.658
 3126TIP3    H1 9319   7.806   7.320   2.710
 3126TIP3    H2 9320   7.846   7.174   2.717
 3127TIP3   OH2 9321   7.086   3.412   1.368
 3127TIP3    H1 9322   7.023   3.414   1.440
 3127TIP3    H2 9323   7.033   3.401   1.290
 3128TIP3   OH2 9324   7.642   3.305   3.626
 3128TIP3    H1 9325   7.735   3.325   3.635
 3128TIP3    H2 9326   7.606   3.380   3.578
 3129TIP3   OH2 9327   1.900   7.416   6.396
 3129TIP3    H1 9328   1.990   7.446   6.408
 3129TIP3    H2 9329   1.899   7.378   6.308
 3130TIP3   OH2 9330   3.638   7.572   3.427
 3130TIP3    H1 9331   3.644   7.481   3.457
 3130TIP3    H2 9332   3.663   7.568   3.335
 3131TIP3   OH2 9333   0.822   5.603   4.890
 3131TIP3    H1 9334   0.818   5.545   4.966
 3131TIP3    H2 9335   0.904   5.578   4.846
 3132TIP3   OH2 9336   1.433   2.527   5.829
 3132TIP3    H1 9337   1.466   2.609   5.791
 3132TIP3    H2 9338   1.394   2.481   5.755
 3133TIP3   OH2 9339   1.455   6.962   5.482
 3133TIP3    H1 9340   1.423   6.939   5.395
 3133TIP3    H2 9341   1.549   6.977   5.470
 3134TIP3   OH2 9342   0.843   1.872   2.841
 3134TIP3    H1 9343   0.752   1.855   2.867
 3134TIP3    H2 9344   0.883   1.914   2.918
 3135TIP3   OH2 9345   1.389   6.615   4.711
 3135TIP3    H1 9346   1.413   6.541   4.654
 3135TIP3    H2 9347   1.451   6.610   4.784
 3136TIP3   OH2 9348   5.750   3.029   1.074
 3136TIP3    H1 9349   5.667   3.014   1.119
 3136TIP3    H2 9350   5.756   2.958   1.010
 3137TIP3   OH2 9351   5.896   7.554   3.603
 3137TIP3    H1 9352   5.916   7.464   3.630
 3137TIP3    H2 9353   5.804   7.552   3.577
 3138TIP3   OH2 9354   5.364   5.523   2.088
 3138TIP3    H1 9355   5.430   5.494   2.025
 3138TIP3    H2 9356   5.414   5.565   2.158
 3139TIP3   OH2 9357   1.394   4.059   1.429
 3139TIP3    H1 9358   1.303   4.030   1.423
 3139TIP3    H2 9359   1.430   4.010   1.503
 3140TIP3   OH2 9360   2.077   1.501   5.595
 3140TIP3    H1 9361   2.023   1.542   5.527
 3140TIP3    H2 9362   2.051   1.409   5.594
 3141TIP3   OH2 9363   6.501   0.102   0.294
 3141TIP3    H1 9364   6.570   0.167   0.310
 3141TIP3    H2 9365   6.421   0.154   0.284
 3142TIP3   OH2 9366   3.090   5.093   3.032
 3142TIP3    H1 9367   3.155   5.117   2.966
 3142TIP3    H2 9368   3.006   5.113   2.990
 3143TIP3   OH2 9369   3.271   4.974   4.070
 3143TIP3    H1 9370   3.334   4.956   4.140
 3143TIP3    H2 9371   3.203   4.908   4.082
 3144TIP3   OH2 9372   3.643   4.232   5.306
 3144TIP3    H1 9373   3.622   4.303   5.367
 3144TIP3    H2 9374   3.723   4.261   5.261
 3145TIP3   OH2 9375   4.433   3.898   2.998
 3145TIP3    H1 9376   4.363   3.833   2.990
 3145TIP3    H2 9377   4.386   3.980   3.019
 3146TIP3   OH2 9378   1.921   1.084   3.356
 3146TIP3    H1 9379   2.001   1.121   3.320
 3146TIP3    H2 9380   1.851   1.129   3.308
 3147TIP3   OH2 9381   2.077   6.791   0.850
 3147TIP3    H1 9382   2.076   6.696   0.839
 3147TIP3    H2 9383   2.150   6.820   0.795
 3148TIP3   OH2 9384   4.722   1.111   0.748
 3148TIP3    H1 9385   4.657   1.049   0.715
 3148TIP3    H2 9386   4.674   1.192   0.762
 3149TIP3   OH2 9387   5.563   3.141   2.767
 3149TIP3    H1 9388   5.624   3.090   2.715
 3149TIP3    H2 9389   5.614   3.216   2.798
 3150TIP3   OH2 9390   5.261   5.495   6.597
 3150TIP3    H1 9391   5.172   5.514   6.627
 3150TIP3    H2 9392   5.308   5.472   6.677
 3151TIP3   OH2 9393   1.994   0.035   0.312
 3151TIP3    H1 9394   1.925   0.058   0.250
 3151TIP3    H2 9395   1.948  -0.011   0.383
 3152TIP3   OH2 9396   7.810   1.654   0.613
 3152TIP3    H1 9397   7.808   1.748   0.598
 3152TIP3    H2 9398   7.845   1.617   0.532
 3153TIP3   OH2 9399   7.193   4.966   5.993
 3153TIP3    H1 9400   7.241   5.009   6.064
 3153TIP3    H2 9401   7.229   5.004   5.913
 3154TIP3   OH2 9402   8.274   5.294   3.859
 3154TIP3    H1 9403   8.294   5.387   3.855
 3154TIP3    H2 9404   8.179   5.289   3.848
 3155TIP3   OH2 9405   3.894   6.799   5.243
 3155TIP3    H1 9406   3.887   6.778   5.150
 3155TIP3    H2 9407   3.876   6.716   5.288
 3156TIP3   OH2 9408   5.323   1.519   0.994
 3156TIP3    H1 9409   5.407   1.547   0.959
 3156TIP3    H2 9410   5.316   1.564   1.079
 3157TIP3   OH2 9411   7.125   7.814   6.706
 3157TIP3    H1 9412   7.076   7.887   6.667
 3157TIP3    H2 9413   7.207   7.853   6.736
 3158TIP3   OH2 9414   1.454   6.180   1.368
 3158TIP3    H1 9415   1.381   6.178   1.430
 3158TIP3    H2 9416   1.462   6.091   1.336
 3159TIP3   OH2 9417   1.316   4.559   3.480
 3159TIP3    H1 9418   1.371   4.536   3.405
 3159TIP3    H2 9419   1.227   4.540   3.450
 3160TIP3   OH2 9420   5.624   6.102   2.597
 3160TIP3    H1 9421   5.704   6.073   2.641
 3160TIP3    H2 9422   5.642   6.192   2.570
 3161TIP3   OH2 9423   5.437   1.194   5.881
 3161TIP3    H1 9424   5.472   1.119   5.832
 3161TIP3    H2 9425   5.351   1.209   5.844
 3162TIP3   OH2 9426   4.009   2.340   4.768
 3162TIP3    H1 9427   4.100   2.310   4.767
 3162TIP3    H2 9428   4.014   2.434   4.755
 3163TIP3   OH2 9429   8.381   1.406   5.133
 3163TIP3    H1 9430   8.309   1.351   5.103
 3163TIP3    H2 9431   8.354   1.495   5.110
 3164TIP3   OH2 9432   2.523   6.497   4.184
 3164TIP3    H1 9433   2.574   6.416   4.176
 3164TIP3    H2 9434   2.577   6.553   4.239
 3165TIP3   OH2 9435   7.069   6.029   5.343
 3165TIP3    H1 9436   7.043   6.028   5.435
 3165TIP3    H2 9437   7.154   6.074   5.343
 3166TIP3   OH2 9438   5.988   4.206   3.111
 3166TIP3    H1 9439   5.958   4.181   3.023
 3166TIP3    H2 9440   5.908   4.228   3.158
 3167TIP3   OH2 9441   2.806   3.111   2.353
 3167TIP3    H1 9442   2.861   3.133   2.278
 3167TIP3    H2 9443   2.800   3.193   2.403
 3168TIP3   OH2 9444   1.215   5.159   0.706
 3168TIP3    H1 9445   1.292   5.102   0.699
 3168TIP3    H2 9446   1.234   5.216   0.780
 3169TIP3   OH2 9447   3.905   3.977   2.891
 3169TIP3    H1 9448   3.848   4.029   2.948
 3169TIP3    H2 9449   3.861   3.893   2.883
 3170TIP3   OH2 9450   4.859   4.074   4.160
 3170TIP3    H1 9451   4.828   4.164   4.158
 3170TIP3    H2 9452   4.809   4.033   4.230
 3171TIP3   OH2 9453   5.127   4.032   4.244
 3171TIP3    H1 9454   5.169   3.991   4.169
 3171TIP3    H2 9455   5.039   4.056   4.213
 3172TIP3   OH2 9456   0.945   4.315   3.873
 3172TIP3    H1 9457   0.897   4.361   3.941
 3172TIP3    H2 9458   0.960   4.381   3.805
 3173TIP3   OH2 9459   6.683   5.452   2.551
 3173TIP3    H1 9460   6.713   5.458   2.460
 3173TIP3    H2 9461   6.592   5.423   2.543
 3174TIP3   OH2 9462   7.926   0.587   1.761
 3174TIP3    H1 9463   7.932   0.598   1.855
 3174TIP3    H2 9464   8.013   0.609   1.728
 3175TIP3   OH2 9465   0.602   2.504   1.137
 3175TIP3    H1 9466   0.599   2.560   1.215
 3175TIP3    H2 9467   0.638   2.421   1.169
 3176TIP3   OH2 9468   5.097   7.910   1.450
 3176TIP3    H1 9469   5.176   7.888   1.499
 3176TIP3    H2 9470   5.077   7.831   1.400
 3177TIP3   OH2 9471   2.872   6.992   2.001
 3177TIP3    H1 9472   2.867   6.954   2.089
 3177TIP3    H2 9473   2.874   7.087   2.016
 3178TIP3   OH2 9474   2.227   7.846   6.447
 3178TIP3    H1 9475   2.275   7.772   6.409
 3178TIP3    H2 9476   2.153   7.806   6.493
 3179TIP3   OH2 9477   2.463   4.611   5.831
 3179TIP3    H1 9478   2.514   4.606   5.911
 3179TIP3    H2 9479   2.411   4.530   5.831
 3180TIP3   OH2 9480   2.133   6.319   2.432
 3180TIP3    H1 9481   2.053   6.355   2.394
 3180TIP3    H2 9482   2.169   6.262   2.364
 3181TIP3   OH2 9483   0.387   0.947   6.215
 3181TIP3    H1 9484   0.296   0.917   6.216
 3181TIP3    H2 9485   0.415   0.936   6.124
 3182TIP3   OH2 9486   7.026   2.325   4.427
 3182TIP3    H1 9487   6.950   2.377   4.454
 3182TIP3    H2 9488   7.003   2.293   4.340
 3183TIP3   OH2 9489   0.539   6.172   3.740
 3183TIP3    H1 9490   0.608   6.106   3.752
 3183TIP3    H2 9491   0.496   6.146   3.658
 3184TIP3   OH2 9492   2.627   3.275   0.497
 3184TIP3    H1 9493   2.716   3.249   0.472
 3184TIP3    H2 9494   2.587   3.302   0.415
 3185TIP3   OH2 9495   1.709   3.611   2.282
 3185TIP3    H1 9496   1.682   3.674   2.215
 3185TIP3    H2 9497   1.664   3.640   2.362
 3186TIP3   OH2 9498   0.083   1.308   0.940
 3186TIP3    H1 9499   0.039   1.350   1.013
 3186TIP3    H2 9500   0.100   1.219   0.969
 3187TIP3   OH2 9501   3.025   0.918   0.803
 3187TIP3    H1 9502   3.056   1.005   0.830
 3187TIP3    H2 9503   2.930   0.922   0.814
 3188TIP3   OH2 9504   6.956   5.736   3.099
 3188TIP3    H1 9505   6.940   5.716   3.191
 3188TIP3    H2 9506   6.972   5.831   3.097
 3189TIP3   OH2 9507   4.069   3.167   2.005
 3189TIP3    H1 9508   4.110   3.101   2.061
 3189TIP3    H2 9509   4.066   3.246   2.059
 3190TIP3   OH2 9510   1.602   5.142   3.235
 3190TIP3    H1 9511   1.549   5.221   3.243
 3190TIP3    H2 9512   1.555   5.075   3.285
 3191TIP3   OH2 9513   2.671   6.376   5.183
 3191TIP3    H1 9514   2.595   6.345   5.135
 3191TIP3    H2 9515   2.666   6.332   5.269
 3192TIP3   OH2 9516   0.612   3.337   2.910
 3192TIP3    H1 9517   0.567   3.417   2.936
 3192TIP3    H2 9518   0.700   3.346   2.947
 3193TIP3   OH2 9519   3.203   7.472   0.166
 3193TIP3    H1 9520   3.164   7.438   0.247
 3193TIP3    H2 9521   3.297   7.461   0.179
 3194TIP3   OH2 9522   0.266   1.250   4.384
 3194TIP3    H1 9523   0.252   1.174   4.440
 3194TIP3    H2 9524   0.188   1.255   4.329
 3195TIP3   OH2 9525   0.292   4.742   2.533
 3195TIP3    H1 9526   0.362   4.690   2.493
 3195TIP3    H2 9527   0.220   4.680   2.545
 3196TIP3   OH2 9528   5.917   3.826   5.584
 3196TIP3    H1 9529   5.933   3.899   5.524
 3196TIP3    H2 9530   5.916   3.866   5.671
 3197TIP3   OH2 9531   4.819   0.644   1.329
 3197TIP3    H1 9532   4.894   0.609   1.281
 3197TIP3    H2 9533   4.853   0.659   1.417
 3198TIP3   OH2 9534   8.247   7.426   0.784
 3198TIP3    H1 9535   8.191   7.501   0.765
 3198TIP3    H2 9536   8.277   7.440   0.873
 3199TIP3   OH2 9537   4.931   0.320   2.433
 3199TIP3    H1 9538   4.967   0.401   2.397
 3199TIP3    H2 9539   4.996   0.291   2.498
 3200TIP3   OH2 9540   1.978   3.474   5.013
 3200TIP3    H1 9541   1.959   3.563   5.042
 3200TIP3    H2 9542   1.999   3.484   4.920
 3201TIP3   OH2 9543   2.203   6.912   1.725
 3201TIP3    H1 9544   2.278   6.873   1.679
 3201TIP3    H2 9545   2.140   6.841   1.732
 3202TIP3   OH2 9546   5.571   3.057   5.558
 3202TIP3    H1 9547   5.650   3.111   5.551
 3202TIP3    H2 9548   5.596   2.972   5.520
 3203TIP3   OH2 9549   3.833   6.150   0.259
 3203TIP3    H1 9550   3.797   6.140   0.347
 3203TIP3    H2 9551   3.902   6.084   0.254
 3204TIP3   OH2 9552   3.275   7.101   1.968
 3204TIP3    H1 9553   3.210   7.088   1.899
 3204TIP3    H2 9554   3.228   7.085   2.050
 3205TIP3   OH2 9555   2.635   0.562   3.348
 3205TIP3    H1 9556   2.554   0.549   3.398
 3205TIP3    H2 9557   2.705   0.535   3.407
 3206TIP3   OH2 9558   6.702   6.536   4.547
 3206TIP3    H1 9559   6.640   6.598   4.511
 3206TIP3    H2 9560   6.765   6.589   4.595
 3207TIP3   OH2 9561   0.834   6.828   1.826
 3207TIP3    H1 9562   0.884   6.889   1.771
 3207TIP3    H2 9563   0.744   6.834   1.793
 3208TIP3   OH2 9564   5.352   1.156   4.403
 3208TIP3    H1 9565   5.315   1.224   4.347
 3208TIP3    H2 9566   5.412   1.203   4.460
 3209TIP3   OH2 9567   5.464   2.878   2.194
 3209TIP3    H1 9568   5.485   2.969   2.215
 3209TIP3    H2 9569   5.428   2.842   2.275
 3210TIP3   OH2 9570   2.527   2.138   1.175
 3210TIP3    H1 9571   2.578   2.075   1.225
 3210TIP3    H2 9572   2.554   2.224   1.209
 3211TIP3   OH2 9573   0.990   4.656   2.178
 3211TIP3    H1 9574   0.970   4.712   2.252
 3211TIP3    H2 9575   0.917   4.669   2.117
 3212TIP3   OH2 9576   1.216   1.637   6.307
 3212TIP3    H1 9577   1.152   1.617   6.238
 3212TIP3    H2 9578   1.279   1.694   6.265
 3213TIP3   OH2 9579   6.843   5.017   3.523
 3213TIP3    H1 9580   6.846   5.035   3.429
 3213TIP3    H2 9581   6.750   5.021   3.545
 3214TIP3   OH2 9582   5.128   3.179   3.113
 3214TIP3    H1 9583   5.156   3.099   3.158
 3214TIP3    H2 9584   5.056   3.213   3.166
 3215TIP3   OH2 9585   5.825   6.132   2.107
 3215TIP3    H1 9586   5.884   6.177   2.167
 3215TIP3    H2 9587   5.803   6.050   2.151
 3216TIP3   OH2 9588   3.033   6.356   4.805
 3216TIP3    H1 9589   2.976   6.299   4.753
 3216TIP3    H2 9590   3.054   6.304   4.883
 3217TIP3   OH2 9591   2.388   2.132   2.006
 3217TIP3    H1 9592   2.330   2.063   1.971
 3217TIP3    H2 9593   2.332   2.209   2.012
 3218TIP3   OH2 9594   2.376   1.477   3.485
 3218TIP3    H1 9595   2.386   1.386   3.512
 3218TIP3    H2 9596   2.282   1.486   3.467
 3219TIP3   OH2 9597   2.692   3.875   6.127
 3219TIP3    H1 9598   2.688   3.873   6.222
 3219TIP3    H2 9599   2.720   3.786   6.102
 3220TIP3   OH2 9600   1.316   5.019   6.226
 3220TIP3    H1 9601   1.409   5.043   6.230
 3220TIP3    H2 9602   1.270   5.102   6.235
 3221TIP3   OH2 9603   1.031   3.673   3.951
 3221TIP3    H1 9604   0.986   3.746   3.908
 3221TIP3    H2 9605   1.118   3.708   3.971
 3222TIP3   OH2 9606   4.155   6.840   6.309
 3222TIP3    H1 9607   4.213   6.916   6.308
 3222TIP3    H2 9608   4.072   6.872   6.274
 3223TIP3   OH2 9609   4.738   6.500   3.811
 3223TIP3    H1 9610   4.714   6.476   3.721
 3223TIP3    H2 9611   4.833   6.506   3.809
 3224TIP3   OH2 9612   0.365   6.044   6.171
 3224TIP3    H1 9613   0.347   6.082   6.256
 3224TIP3    H2 9614   0.348   6.114   6.109
 3225TIP3   OH2 9615   3.300   4.371   0.867
 3225TIP3    H1 9616   3.316   4.318   0.789
 3225TIP3    H2 9617   3.222   4.333   0.907
 3226TIP3   OH2 9618   6.802   0.280   5.632
 3226TIP3    H1 9619   6.820   0.189   5.656
 3226TIP3    H2 9620   6.878   0.329   5.663
 3227TIP3   OH2 9621   5.189   4.957   1.191
 3227TIP3    H1 9622   5.264   4.985   1.138
 3227TIP3    H2 9623   5.214   4.980   1.281
 3228TIP3   OH2 9624   3.293   4.056   1.703
 3228TIP3    H1 9625   3.353   4.126   1.679
 3228TIP3    H2 9626   3.207   4.097   1.705
 3229TIP3   OH2 9627   6.810   4.849   3.067
 3229TIP3    H1 9628   6.752   4.775   3.045
 3229TIP3    H2 9629   6.889   4.834   3.015
 3230TIP3   OH2 9630   4.445   1.383   0.365
 3230TIP3    H1 9631   4.420   1.414   0.452
 3230TIP3    H2 9632   4.369   1.402   0.310
 3231TIP3   OH2 9633   4.206   2.738   4.345
 3231TIP3    H1 9634   4.128   2.726   4.292
 3231TIP3    H2 9635   4.268   2.783   4.287
 3232TIP3   OH2 9636   5.643   4.348   3.985
 3232TIP3    H1 9637   5.732   4.376   3.965
 3232TIP3    H2 9638   5.632   4.369   4.078
 3233TIP3   OH2 9639   7.244   2.265   5.202
 3233TIP3    H1 9640   7.183   2.200   5.237
 3233TIP3    H2 9641   7.224   2.345   5.250
 3234TIP3   OH2 9642   8.351   4.651   4.622
 3234TIP3    H1 9643   8.326   4.563   4.593
 3234TIP3    H2 9644   8.330   4.707   4.548
 3235TIP3   OH2 9645   2.637   0.810   4.688
 3235TIP3    H1 9646   2.592   0.797   4.771
 3235TIP3    H2 9647   2.591   0.883   4.646
 3236TIP3   OH2 9648   4.960   6.674   5.477
 3236TIP3    H1 9649   5.027   6.704   5.415
 3236TIP3    H2 9650   4.888   6.645   5.422
 3237TIP3   OH2 9651   6.846   0.050   0.068
 3237TIP3    H1 9652   6.881  -0.029   0.027
 3237TIP3    H2 9653   6.849   0.033   0.162
 3238TIP3   OH2 9654   3.895   1.802   4.184
 3238TIP3    H1 9655   3.814   1.751   4.183
 3238TIP3    H2 9656   3.951   1.758   4.120
 3239TIP3   OH2 9657   5.601   0.710   6.434
 3239TIP3    H1 9658   5.681   0.692   6.483
 3239TIP3    H2 9659   5.533   0.659   6.480
 3240TIP3   OH2 9660   5.533   3.969   5.557
 3240TIP3    H1 9661   5.515   3.901   5.622
 3240TIP3    H2 9662   5.473   3.950   5.485
 3241TIP3   OH2 9663   7.506   6.210   3.180
 3241TIP3    H1 9664   7.434   6.253   3.134
 3241TIP3    H2 9665   7.481   6.212   3.272
 3242TIP3   OH2 9666   2.226   6.627   5.537
 3242TIP3    H1 9667   2.159   6.561   5.556
 3242TIP3    H2 9668   2.208   6.699   5.597
 3243TIP3   OH2 9669   2.236   3.335   1.819
 3243TIP3    H1 9670   2.257   3.261   1.876
 3243TIP3    H2 9671   2.179   3.391   1.872
 3244TIP3   OH2 9672   2.012   0.893   3.753
 3244TIP3    H1 9673   1.935   0.913   3.700
 3244TIP3    H2 9674   2.080   0.871   3.689
 3245TIP3   OH2 9675   3.923   0.991   5.053
 3245TIP3    H1 9676   3.858   0.945   5.107
 3245TIP3    H2 9677   3.908   1.083   5.071
 3246TIP3   OH2 9678   2.295   4.146   3.008
 3246TIP3    H1 9679   2.344   4.194   2.942
 3246TIP3    H2 9680   2.283   4.209   3.079
 3247TIP3   OH2 9681   5.679   3.970   4.244
 3247TIP3    H1 9682   5.760   3.986   4.292
 3247TIP3    H2 9683   5.695   4.007   4.157
 3248TIP3   OH2 9684   4.338   6.687   4.186
 3248TIP3    H1 9685   4.403   6.731   4.240
 3248TIP3    H2 9686   4.272   6.753   4.169
 3249TIP3   OH2 9687   2.875   3.857   5.778
 3249TIP3    H1 9688   2.906   3.933   5.827
 3249TIP3    H2 9689   2.784   3.877   5.757
 3250TIP3   OH2 9690   4.316   6.933   3.443
 3250TIP3    H1 9691   4.263   6.883   3.381
 3250TIP3    H2 9692   4.401   6.889   3.441
 3251TIP3   OH2 9693   6.825   4.398   0.012
 3251TIP3    H1 9694   6.773   4.318   0.014
 3251TIP3    H2 9695   6.797   4.448   0.089
 3252TIP3   OH2 9696   0.352   5.877   1.716
 3252TIP3    H1 9697   0.414   5.838   1.777
 3252TIP3    H2 9698   0.399   5.951   1.678
 3253TIP3   OH2 9699   4.481   7.586   0.021
 3253TIP3    H1 9700   4.566   7.544   0.034
 3253TIP3    H2 9701   4.420   7.513   0.007
 3254TIP3   OH2 9702   5.640   4.412   2.232
 3254TIP3    H1 9703   5.677   4.395   2.145
 3254TIP3    H2 9704   5.701   4.369   2.292
 3255TIP3   OH2 9705   1.564   6.381   5.718
 3255TIP3    H1 9706   1.588   6.294   5.688
 3255TIP3    H2 9707   1.507   6.366   5.793
 3256TIP3   OH2 9708   5.358   6.083   4.905
 3256TIP3    H1 9709   5.441   6.045   4.933
 3256TIP3    H2 9710   5.292   6.032   4.952
 3257TIP3   OH2 9711   7.012   1.794   6.372
 3257TIP3    H1 9712   6.938   1.815   6.315
 3257TIP3    H2 9713   6.971   1.767   6.455
 3258TIP3   OH2 9714   7.780   3.150   5.321
 3258TIP3    H1 9715   7.727   3.202   5.260
 3258TIP3    H2 9716   7.715   3.107   5.377
 3259TIP3   OH2 9717   8.008   5.931   0.218
 3259TIP3    H1 9718   8.007   5.886   0.302
 3259TIP3    H2 9719   7.967   5.869   0.157
 3260TIP3   OH2 9720   8.135   2.394   2.852
 3260TIP3    H1 9721   8.062   2.332   2.845
 3260TIP3    H2 9722   8.130   2.427   2.942
 3261TIP3   OH2 9723   2.955   4.809   6.372
 3261TIP3    H1 9724   2.902   4.802   6.293
 3261TIP3    H2 9725   2.913   4.750   6.435
 3262TIP3   OH2 9726   6.411   5.628   0.419
 3262TIP3    H1 9727   6.342   5.640   0.484
 3262TIP3    H2 9728   6.365   5.614   0.337
 3263TIP3   OH2 9729   0.379   5.063   1.688
 3263TIP3    H1 9730   0.415   5.151   1.684
 3263TIP3    H2 9731   0.286   5.074   1.668
 3264TIP3   OH2 9732   0.069   2.534   0.780
 3264TIP3    H1 9733  -0.026   2.546   0.777
 3264TIP3    H2 9734   0.091   2.540   0.873
 3265TIP3   OH2 9735   7.571   6.170   4.729
 3265TIP3    H1 9736   7.612   6.172   4.816
 3265TIP3    H2 9737   7.559   6.262   4.705
 3266TIP3   OH2 9738   5.913   7.443   2.451
 3266TIP3    H1 9739   5.935   7.497   2.526
 3266TIP3    H2 9740   5.828   7.474   2.422
 3267TIP3   OH2 9741   1.933   5.281   5.136
 3267TIP3    H1 9742   1.965   5.196   5.106
 3267TIP3    H2 9743   1.858   5.299   5.078
 3268TIP3   OH2 9744   0.581   2.238   1.480
 3268TIP3    H1 9745   0.584   2.163   1.539
 3268TIP3    H2 9746   0.672   2.263   1.466
 3269TIP3   OH2 9747   6.683   6.263   2.775
 3269TIP3    H1 9748   6.640   6.349   2.782
 3269TIP3    H2 9749   6.617   6.206   2.736
 3270TIP3   OH2 9750   3.510   0.970   0.595
 3270TIP3    H1 9751   3.427   0.926   0.582
 3270TIP3    H2 9752   3.490   1.044   0.652
 3271TIP3   OH2 9753   7.126   1.735   3.422
 3271TIP3    H1 9754   7.107   1.819   3.463
 3271TIP3    H2 9755   7.183   1.755   3.348
 3272TIP3   OH2 9756   0.305   5.053   0.429
 3272TIP3    H1 9757   0.370   5.040   0.498
 3272TIP3    H2 9758   0.351   5.031   0.348
 3273TIP3   OH2 9759   8.209   5.333   1.027
 3273TIP3    H1 9760   8.298   5.366   1.042
 3273TIP3    H2 9761   8.199   5.335   0.932
 3274TIP3   OH2 9762   0.448   0.634   2.377
 3274TIP3    H1 9763   0.542   0.617   2.383
 3274TIP3    H2 9764   0.442   0.724   2.345
 3275TIP3   OH2 9765   1.180   0.858   3.851
 3275TIP3    H1 9766   1.091   0.893   3.854
 3275TIP3    H2 9767   1.170   0.769   3.815
 3276TIP3   OH2 9768   3.448   2.680   3.979
 3276TIP3    H1 9769   3.357   2.694   3.955
 3276TIP3    H2 9770   3.491   2.764   3.961
 3277TIP3   OH2 9771   7.797   6.465   1.350
 3277TIP3    H1 9772   7.879   6.479   1.302
 3277TIP3    H2 9773   7.816   6.393   1.410
 3278TIP3   OH2 9774   3.794   1.582   4.934
 3278TIP3    H1 9775   3.710   1.627   4.941
 3278TIP3    H2 9776   3.812   1.549   5.022
 3279TIP3   OH2 9777   2.146   2.002   1.028
 3279TIP3    H1 9778   2.183   2.011   0.940
 3279TIP3    H2 9779   2.197   1.932   1.069
 3280TIP3   OH2 9780   0.394   5.279   2.222
 3280TIP3    H1 9781   0.373   5.241   2.308
 3280TIP3    H2 9782   0.460   5.346   2.241
 3281TIP3   OH2 9783   4.050   1.009   1.135
 3281TIP3    H1 9784   3.988   0.960   1.189
 3281TIP3    H2 9785   4.090   0.943   1.078
 3282TIP3   OH2 9786   0.423   1.785   1.785
 3282TIP3    H1 9787   0.439   1.820   1.872
 3282TIP3    H2 9788   0.336   1.816   1.761
 3283TIP3   OH2 9789   3.670   0.342   6.423
 3283TIP3    H1 9790   3.584   0.300   6.428
 3283TIP3    H2 9791   3.676   0.373   6.332
 3284TIP3   OH2 9792   0.380   3.235   2.597
 3284TIP3    H1 9793   0.356   3.285   2.519
 3284TIP3    H2 9794   0.308   3.252   2.659
 3285TIP3   OH2 9795   2.859   6.916   2.260
 3285TIP3    H1 9796   2.918   6.849   2.295
 3285TIP3    H2 9797   2.861   6.986   2.325
 3286TIP3   OH2 9798   6.659   7.339   6.714
 3286TIP3    H1 9799   6.663   7.382   6.799
 3286TIP3    H2 9800   6.571   7.358   6.682
 3287TIP3   OH2 9801   1.316   1.026   5.411
 3287TIP3    H1 9802   1.303   0.966   5.338
 3287TIP3    H2 9803   1.279   0.980   5.486
 3288TIP3   OH2 9804   3.749   2.543   2.933
 3288TIP3    H1 9805   3.725   2.503   3.017
 3288TIP3    H2 9806   3.804   2.478   2.890
 3289TIP3   OH2 9807   7.037   7.581   1.110
 3289TIP3    H1 9808   6.995   7.662   1.083
 3289TIP3    H2 9809   7.048   7.531   1.029
 3290TIP3   OH2 9810   6.461   1.350   4.754
 3290TIP3    H1 9811   6.511   1.280   4.795
 3290TIP3    H2 9812   6.503   1.431   4.785
 3291TIP3   OH2 9813   1.445   0.336   2.657
 3291TIP3    H1 9814   1.511   0.381   2.710
 3291TIP3    H2 9815   1.407   0.405   2.603
 3292TIP3   OH2 9816   3.545   0.882   4.700
 3292TIP3    H1 9817   3.480   0.930   4.751
 3292TIP3    H2 9818   3.578   0.945   4.637
 3293TIP3   OH2 9819   7.678   6.271   5.076
 3293TIP3    H1 9820   7.764   6.247   5.109
 3293TIP3    H2 9821   7.629   6.189   5.075
 3294TIP3   OH2 9822   8.263   2.987   6.347
 3294TIP3    H1 9823   8.179   3.007   6.387
 3294TIP3    H2 9824   8.275   3.055   6.281
 3295TIP3   OH2 9825   4.488   6.408   5.368
 3295TIP3    H1 9826   4.445   6.394   5.284
 3295TIP3    H2 9827   4.512   6.321   5.398
 3296TIP3   OH2 9828   6.203   4.306   1.813
 3296TIP3    H1 9829   6.285   4.258   1.803
 3296TIP3    H2 9830   6.136   4.248   1.777
 3297TIP3   OH2 9831   2.643   4.263   1.786
 3297TIP3    H1 9832   2.622   4.356   1.776
 3297TIP3    H2 9833   2.653   4.232   1.696
 3298TIP3   OH2 9834   2.359   0.607   4.262
 3298TIP3    H1 9835   2.278   0.562   4.238
 3298TIP3    H2 9836   2.418   0.591   4.188
 3299TIP3   OH2 9837   5.303   5.408   4.614
 3299TIP3    H1 9838   5.265   5.449   4.536
 3299TIP3    H2 9839   5.369   5.469   4.644
 3300TIP3   OH2 9840   1.905   7.147   1.658
 3300TIP3    H1 9841   1.966   7.118   1.725
 3300TIP3    H2 9842   1.956   7.149   1.577
 3301TIP3   OH2 9843   6.071   2.352   0.673
 3301TIP3    H1 9844   6.055   2.447   0.674
 3301TIP3    H2 9845   6.052   2.324   0.762
 3302TIP3   OH2 9846   4.295   2.486   4.247
 3302TIP3    H1 9847   4.230   2.420   4.273
 3302TIP3    H2 9848   4.300   2.545   4.322
 3303TIP3   OH2 9849   1.703   4.571   6.686
 3303TIP3    H1 9850   1.708   4.483   6.722
 3303TIP3    H2 9851   1.780   4.578   6.629
 3304TIP3   OH2 9852   3.884   3.327   3.863
 3304TIP3    H1 9853   3.858   3.419   3.874
 3304TIP3    H2 9854   3.923   3.304   3.947
 3305TIP3   OH2 9855   2.524   4.903   6.382
 3305TIP3    H1 9856   2.525   4.949   6.466
 3305TIP3    H2 9857   2.454   4.839   6.391
 3306TIP3   OH2 9858   0.785   7.405   2.638
 3306TIP3    H1 9859   0.824   7.326   2.674
 3306TIP3    H2 9860   0.768   7.385   2.546
 3307TIP3   OH2 9861   7.920   4.322   0.142
 3307TIP3    H1 9862   7.956   4.369   0.217
 3307TIP3    H2 9863   7.837   4.286   0.174
 3308TIP3   OH2 9864   6.214   4.423   4.583
 3308TIP3    H1 9865   6.167   4.480   4.522
 3308TIP3    H2 9866   6.301   4.460   4.589
 3309TIP3   OH2 9867   2.888   7.303   3.386
 3309TIP3    H1 9868   2.846   7.233   3.336
 3309TIP3    H2 9869   2.835   7.310   3.465
 3310TIP3   OH2 9870   4.332   0.878   0.446
 3310TIP3    H1 9871   4.247   0.913   0.472
 3310TIP3    H2 9872   4.310   0.798   0.396
 3311TIP3   OH2 9873   6.614   0.203   3.613
 3311TIP3    H1 9874   6.617   0.265   3.540
 3311TIP3    H2 9875   6.524   0.171   3.614
 3312TIP3   OH2 9876   0.721   2.870   2.613
 3312TIP3    H1 9877   0.764   2.851   2.529
 3312TIP3    H2 9878   0.696   2.784   2.647
 3313TIP3   OH2 9879   0.002   1.002   3.260
 3313TIP3    H1 9880  -0.045   0.960   3.332
 3313TIP3    H2 9881   0.094   0.985   3.278
 3314TIP3   OH2 9882   1.937   6.529   3.883
 3314TIP3    H1 9883   1.970   6.440   3.864
 3314TIP3    H2 9884   1.985   6.555   3.962
 3315TIP3   OH2 9885   0.151   6.394   1.061
 3315TIP3    H1 9886   0.228   6.354   1.021
 3315TIP3    H2 9887   0.176   6.486   1.073
 3316TIP3   OH2 9888   4.001   4.855   0.842
 3316TIP3    H1 9889   3.970   4.944   0.860
 3316TIP3    H2 9890   3.947   4.799   0.898
 3317TIP3   OH2 9891   4.428   1.590   2.829
 3317TIP3    H1 9892   4.474   1.601   2.746
 3317TIP3    H2 9893   4.449   1.501   2.857
 3318TIP3   OH2 9894   6.001   0.152   0.333
 3318TIP3    H1 9895   5.933   0.144   0.266
 3318TIP3    H2 9896   5.963   0.111   0.410
 3319TIP3   OH2 9897   6.833   2.469   3.849
 3319TIP3    H1 9898   6.871   2.386   3.822
 3319TIP3    H2 9899   6.873   2.534   3.792
 3320TIP3   OH2 9900   6.585   1.861   0.791
 3320TIP3    H1 9901   6.505   1.910   0.810
 3320TIP3    H2 9902   6.592   1.797   0.862
 3321TIP3   OH2 9903   8.415   3.040   5.372
 3321TIP3    H1 9904   8.434   3.116   5.428
 3321TIP3    H2 9905   8.319   3.033   5.373
 3322TIP3   OH2 9906   8.229   3.084   4.626
 3322TIP3    H1 9907   8.226   3.019   4.696
 3322TIP3    H2 9908   8.140   3.085   4.590
 3323TIP3   OH2 9909   6.503   5.532   6.256
 3323TIP3    H1 9910   6.441   5.488   6.198
 3323TIP3    H2 9911   6.574   5.469   6.268
 3324TIP3   OH2 9912   0.343   3.735   0.942
 3324TIP3    H1 9913   0.408   3.688   0.993
 3324TIP3    H2 9914   0.386   3.818   0.920
 3325TIP3   OH2 9915   1.236   3.403   3.955
 3325TIP3    H1 9916   1.164   3.466   3.948
 3325TIP3    H2 9917   1.305   3.451   4.003
 3326TIP3   OH2 9918   5.610   6.980   0.489
 3326TIP3    H1 9919   5.671   7.006   0.420
 3326TIP3    H2 9920   5.602   7.058   0.544
 3327TIP3   OH2 9921   1.095   2.099   4.547
 3327TIP3    H1 9922   1.039   2.174   4.568
 3327TIP3    H2 9923   1.064   2.070   4.461
 3328TIP3   OH2 9924   0.694   1.523   1.865
 3328TIP3    H1 9925   0.687   1.618   1.853
 3328TIP3    H2 9926   0.605   1.491   1.857
 3329TIP3   OH2 9927   4.357   3.433   3.654
 3329TIP3    H1 9928   4.308   3.379   3.716
 3329TIP3    H2 9929   4.296   3.447   3.581
 3330TIP3   OH2 9930   0.204   6.856   5.761
 3330TIP3    H1 9931   0.131   6.898   5.717
 3330TIP3    H2 9932   0.267   6.926   5.777
 3331TIP3   OH2 9933   6.270   7.138   6.469
 3331TIP3    H1 9934   6.229   7.089   6.397
 3331TIP3    H2 9935   6.273   7.075   6.541
 3332TIP3   OH2 9936   1.100   3.453   1.879
 3332TIP3    H1 9937   1.112   3.474   1.971
 3332TIP3    H2 9938   1.031   3.512   1.849
 3333TIP3   OH2 9939   5.324   4.621   3.259
 3333TIP3    H1 9940   5.371   4.538   3.254
 3333TIP3    H2 9941   5.240   4.599   3.300
 3334TIP3   OH2 9942   7.507   4.188   4.145
 3334TIP3    H1 9943   7.504   4.267   4.091
 3334TIP3    H2 9944   7.477   4.217   4.231
 3335TIP3   OH2 9945   7.796   2.580   2.946
 3335TIP3    H1 9946   7.718   2.619   2.984
 3335TIP3    H2 9947   7.814   2.503   3.000
 3336TIP3   OH2 9948   2.951   7.122   0.176
 3336TIP3    H1 9949   2.910   7.204   0.150
 3336TIP3    H2 9950   3.020   7.108   0.112
 3337TIP3   OH2 9951   4.804   4.717   4.659
 3337TIP3    H1 9952   4.804   4.625   4.686
 3337TIP3    H2 9953   4.885   4.752   4.696
 3338TIP3   OH2 9954   5.647   1.121   3.200
 3338TIP3    H1 9955   5.702   1.050   3.234
 3338TIP3    H2 9956   5.695   1.153   3.123
 3339TIP3   OH2 9957   6.857   1.171   2.897
 3339TIP3    H1 9958   6.838   1.122   2.817
 3339TIP3    H2 9959   6.816   1.120   2.967
 3340TIP3   OH2 9960   3.873   2.634   3.598
 3340TIP3    H1 9961   3.862   2.672   3.685
 3340TIP3    H2 9962   3.785   2.634   3.561
 3341TIP3   OH2 9963   0.617   2.460   0.450
 3341TIP3    H1 9964   0.629   2.535   0.509
 3341TIP3    H2 9965   0.686   2.470   0.384
 3342TIP3   OH2 9966   6.451   1.145   1.534
 3342TIP3    H1 9967   6.401   1.083   1.482
 3342TIP3    H2 9968   6.513   1.090   1.584
 3343TIP3   OH2 9969   2.651   4.111   4.012
 3343TIP3    H1 9970   2.571   4.147   4.051
 3343TIP3    H2 9971   2.699   4.073   4.086
 3344TIP3   OH2 9972   1.906   7.197   4.995
 3344TIP3    H1 9973   1.965   7.273   4.987
 3344TIP3    H2 9974   1.829   7.232   5.041
 3345TIP3   OH2 9975   2.824   1.658   4.296
 3345TIP3    H1 9976   2.908   1.644   4.339
 3345TIP3    H2 9977   2.842   1.652   4.203
 3346TIP3   OH2 9978   2.419   6.521   5.360
 3346TIP3    H1 9979   2.390   6.521   5.269
 3346TIP3    H2 9980   2.341   6.545   5.411
 3347TIP3   OH2 9981   6.558   2.991   3.744
 3347TIP3    H1 9982   6.495   3.029   3.683
 3347TIP3    H2 9983   6.560   2.898   3.721
 3348TIP3   OH2 9984   4.975   5.691   4.281
 3348TIP3    H1 9985   5.061   5.731   4.294
 3348TIP3    H2 9986   4.994   5.603   4.250
 3349TIP3   OH2 9987   5.178   6.920   5.689
 3349TIP3    H1 9988   5.255   6.928   5.747
 3349TIP3    H2 9989   5.124   6.996   5.712
 3350TIP3   OH2 9990   4.791   0.533   3.920
 3350TIP3    H1 9991   4.725   0.563   3.858
 3350TIP3    H2 9992   4.874   0.544   3.875
 3351TIP3   OH2 9993   0.039   3.026   4.437
 3351TIP3    H1 9994  -0.048   3.045   4.472
 3351TIP3    H2 9995   0.086   3.109   4.442
 3352TIP3   OH2 9996   7.947   6.326   0.879
 3352TIP3    H1 9997   7.888   6.398   0.857
 3352TIP3    H2 9998   7.890   6.255   0.907
 3353TIP3   OH2 9999   6.115   6.692   5.469
 3353TIP3    H110000   6.030   6.735   5.479
 3353TIP3    H210001   6.179   6.759   5.491
 3354TIP3   OH210002   3.362   6.119   6.291
 3354TIP3    H110003   3.338   6.092   6.202
 3354TIP3    H210004   3.382   6.036   6.336
 3355TIP3   OH210005   8.192   3.768   5.961
 3355TIP3    H110006   8.218   3.845   5.910
 3355TIP3    H210007   8.254   3.765   6.034
 3356TIP3   OH210008   5.713   5.294   2.627
 3356TIP3    H110009   5.718   5.254   2.714
 3356TIP3    H210010   5.717   5.220   2.566
 3357TIP3   OH210011   6.571   2.537   3.456
 3357TIP3    H110012   6.531   2.496   3.379
 3357TIP3    H210013   6.507   2.526   3.526
 3358TIP3   OH210014   7.767   0.714   3.552
 3358TIP3    H110015   7.685   0.680   3.518
 3358TIP3    H210016   7.767   0.806   3.527
 3359TIP3   OH210017   7.608   4.590   0.297
 3359TIP3    H110018   7.545   4.589   0.225
 3359TIP3    H210019   7.619   4.682   0.319
 3360TIP3   OH210020   5.502   1.667   3.703
 3360TIP3    H110021   5.591   1.692   3.727
 3360TIP3    H210022   5.446   1.718   3.762
 3361TIP3   OH210023   4.163   7.925   0.665
 3361TIP3    H110024   4.214   7.963   0.593
 3361TIP3    H210025   4.170   7.830   0.651
 3362TIP3   OH210026   0.956   6.951   4.442
 3362TIP3    H110027   1.007   6.976   4.519
 3362TIP3    H210028   0.899   7.026   4.426
 3363TIP3   OH210029   2.961   3.907   1.476
 3363TIP3    H110030   2.951   3.982   1.418
 3363TIP3    H210031   2.883   3.910   1.532
 3364TIP3   OH210032   8.064   4.438   1.140
 3364TIP3    H110033   8.016   4.355   1.146
 3364TIP3    H210034   8.154   4.412   1.120
 3365TIP3   OH210035   2.988   5.648   0.410
 3365TIP3    H110036   2.941   5.658   0.493
 3365TIP3    H210037   3.022   5.558   0.413
 3366TIP3   OH210038   3.395   7.545   2.286
 3366TIP3    H110039   3.433   7.504   2.363
 3366TIP3    H210040   3.333   7.481   2.252
 3367TIP3   OH210041   7.191   1.298   1.187
 3367TIP3    H110042   7.228   1.381   1.216
 3367TIP3    H210043   7.254   1.264   1.124
 3368TIP3   OH210044   4.194   1.356   5.580
 3368TIP3    H110045   4.280   1.386   5.609
 3368TIP3    H210046   4.138   1.365   5.657
 3369TIP3   OH210047   3.244   6.402   2.682
 3369TIP3    H110048   3.198   6.459   2.621
 3369TIP3    H210049   3.177   6.341   2.714
 3370TIP3   OH210050   6.795   4.217   6.349
 3370TIP3    H110051   6.859   4.215   6.279
 3370TIP3    H210052   6.827   4.153   6.413
 3371TIP3   OH210053   3.916   3.896   5.339
 3371TIP3    H110054   3.920   3.975   5.392
 3371TIP3    H210055   3.848   3.914   5.274
 3372TIP3   OH210056   0.810   0.661   3.215
 3372TIP3    H110057   0.757   0.679   3.137
 3372TIP3    H210058   0.779   0.576   3.246
 3373TIP3   OH210059   4.726   3.006   2.546
 3373TIP3    H110060   4.630   3.014   2.542
 3373TIP3    H210061   4.758   3.089   2.513
 3374TIP3   OH210062   0.884   0.041   1.801
 3374TIP3    H110063   0.926  -0.042   1.826
 3374TIP3    H210064   0.933   0.070   1.724
 3375TIP3   OH210065   5.899   7.567   6.746
 3375TIP3    H110066   5.905   7.645   6.802
 3375TIP3    H210067   5.806   7.549   6.739
 3376TIP3   OH210068   4.528   7.269   4.691
 3376TIP3    H110069   4.452   7.242   4.744
 3376TIP3    H210070   4.586   7.192   4.693
 3377TIP3   OH210071   4.730   7.916   0.685
 3377TIP3    H110072   4.824   7.934   0.689
 3377TIP3    H210073   4.721   7.826   0.716
 3378TIP3   OH210074   8.326   5.834   1.870
 3378TIP3    H110075   8.240   5.819   1.830
 3378TIP3    H210076   8.368   5.748   1.872
 3379TIP3   OH210077   1.178   0.693   0.428
 3379TIP3    H110078   1.265   0.655   0.422
 3379TIP3    H210079   1.193   0.784   0.455
 3380TIP3   OH210080   7.511   5.460   1.605
 3380TIP3    H110081   7.562   5.540   1.598
 3380TIP3    H210082   7.439   5.471   1.543
 3381TIP3   OH210083   7.668   2.527   6.515
 3381TIP3    H110084   7.632   2.500   6.430
 3381TIP3    H210085   7.653   2.451   6.572
 3382TIP3   OH210086   7.841   0.959   4.051
 3382TIP3    H110087   7.761   0.928   4.093
 3382TIP3    H210088   7.880   0.880   4.012
 3383TIP3   OH210089   4.625   2.950   3.023
 3383TIP3    H110090   4.556   3.004   2.982
 3383TIP3    H210091   4.675   2.916   2.949
 3384TIP3   OH210092   7.783   2.366   4.284
 3384TIP3    H110093   7.824   2.390   4.200
 3384TIP3    H210094   7.698   2.409   4.282
 3385TIP3   OH210095   0.305   6.986   2.345
 3385TIP3    H110096   0.317   6.891   2.332
 3385TIP3    H210097   0.230   6.992   2.403
 3386TIP3   OH210098   5.848   3.278   1.084
 3386TIP3    H110099   5.804   3.193   1.088
 3386TIP3    H210100   5.940   3.257   1.071
 3387TIP3   OH210101   6.971   3.365   3.516
 3387TIP3    H110102   7.023   3.445   3.502
 3387TIP3    H210103   7.031   3.305   3.559
 3388TIP3   OH210104   5.481   6.307   1.913
 3388TIP3    H110105   5.416   6.253   1.869
 3388TIP3    H210106   5.444   6.395   1.913
 3389TIP3   OH210107   1.175   0.460   4.160
 3389TIP3    H110108   1.203   0.456   4.252
 3389TIP3    H210109   1.219   0.537   4.125
 3390TIP3   OH210110   5.499   2.128   4.165
 3390TIP3    H110111   5.543   2.183   4.101
 3390TIP3    H210112   5.508   2.039   4.131
 3391TIP3   OH210113   2.083   5.093   5.338
 3391TIP3    H110114   2.126   5.144   5.407
 3391TIP3    H210115   2.154   5.065   5.280
 3392TIP3   OH210116   7.463   5.204   0.258
 3392TIP3    H110117   7.546   5.164   0.284
 3392TIP3    H210118   7.477   5.231   0.168
 3393TIP3   OH210119   4.189   5.244   6.183
 3393TIP3    H110120   4.130   5.320   6.193
 3393TIP3    H210121   4.245   5.268   6.110
 3394TIP3   OH210122   2.191   3.337   3.228
 3394TIP3    H110123   2.226   3.250   3.248
 3394TIP3    H210124   2.108   3.319   3.184
 3395TIP3   OH210125   5.986   6.457   5.401
 3395TIP3    H110126   5.899   6.459   5.441
 3395TIP3    H210127   6.032   6.531   5.440
 3396TIP3   OH210128   3.713   1.310   4.199
 3396TIP3    H110129   3.718   1.224   4.240
 3396TIP3    H210130   3.802   1.329   4.171
 3397TIP3   OH210131   1.380   5.812   5.185
 3397TIP3    H110132   1.324   5.746   5.227
 3397TIP3    H210133   1.333   5.895   5.198
 3398TIP3   OH210134   6.984   4.742   5.051
 3398TIP3    H110135   6.971   4.746   5.146
 3398TIP3    H210136   6.943   4.659   5.025
 3399TIP3   OH210137   4.275   3.057   0.981
 3399TIP3    H110138   4.198   3.012   1.017
 3399TIP3    H210139   4.241   3.108   0.908
 3400TIP3   OH210140   3.038   4.737   1.936
 3400TIP3    H110141   3.090   4.668   1.976
 3400TIP3    H210142   2.990   4.694   1.866
 3401TIP3   OH210143   2.470   3.804   0.123
 3401TIP3    H110144   2.512   3.879   0.081
 3401TIP3    H210145   2.384   3.798   0.080
 3402TIP3   OH210146   4.003   6.147   4.446
 3402TIP3    H110147   3.999   6.233   4.404
 3402TIP3    H210148   4.008   6.085   4.373
 3403TIP3   OH210149   6.781   1.981   3.767
 3403TIP3    H110150   6.846   2.043   3.801
 3403TIP3    H210151   6.815   1.955   3.682
 3404TIP3   OH210152   7.177   3.080   0.741
 3404TIP3    H110153   7.107   3.016   0.733
 3404TIP3    H210154   7.168   3.137   0.665
 3405TIP3   OH210155   2.261   0.417   4.955
 3405TIP3    H110156   2.291   0.434   4.866
 3405TIP3    H210157   2.286   0.326   4.972
 3406TIP3   OH210158   0.825   5.924   1.018
 3406TIP3    H110159   0.906   5.918   1.068
 3406TIP3    H210160   0.759   5.885   1.075
 3407TIP3   OH210161   1.042   3.244   5.379
 3407TIP3    H110162   1.013   3.153   5.383
 3407TIP3    H210163   1.070   3.265   5.468
 3408TIP3   OH210164   6.708   4.989   2.298
 3408TIP3    H110165   6.657   4.934   2.357
 3408TIP3    H210166   6.740   5.060   2.354
 3409TIP3   OH210167   6.902   2.424   5.914
 3409TIP3    H110168   6.998   2.417   5.916
 3409TIP3    H210169   6.875   2.373   5.838
 3410TIP3   OH210170   0.737   0.189   6.122
 3410TIP3    H110171   0.780   0.192   6.036
 3410TIP3    H210172   0.807   0.166   6.183
 3411TIP3   OH210173   0.751   2.626   0.657
 3411TIP3    H110174   0.752   2.602   0.750
 3411TIP3    H210175   0.841   2.612   0.628
 3412TIP3   OH210176   4.808   4.161   1.882
 3412TIP3    H110177   4.753   4.125   1.951
 3412TIP3    H210178   4.813   4.092   1.816
 3413TIP3   OH210179   6.152   2.118   4.133
 3413TIP3    H110180   6.066   2.081   4.114
 3413TIP3    H210181   6.181   2.072   4.212
 3414TIP3   OH210182   4.860   1.784   4.935
 3414TIP3    H110183   4.808   1.707   4.960
 3414TIP3    H210184   4.797   1.841   4.891
 3415TIP3   OH210185   3.233   3.011   0.839
 3415TIP3    H110186   3.172   2.937   0.843
 3415TIP3    H210187   3.320   2.971   0.844
 3416TIP3   OH210188   6.251   1.921   3.779
 3416TIP3    H110189   6.237   2.015   3.766
 3416TIP3    H210190   6.346   1.911   3.784
 3417TIP3   OH210191   2.653   1.558   2.045
 3417TIP3    H110192   2.721   1.597   2.100
 3417TIP3    H210193   2.674   1.588   1.956
 3418TIP3   OH210194   0.740   3.392   0.079
 3418TIP3    H110195   0.771   3.370  -0.009
 3418TIP3    H210196   0.659   3.441   0.063
 3419TIP3   OH210197   5.547   4.718   4.055
 3419TIP3    H110198   5.632   4.741   4.093
 3419TIP3    H210199   5.486   4.719   4.129
 3420TIP3   OH210200   2.699   4.152   6.748
 3420TIP3    H110201   2.638   4.131   6.678
 3420TIP3    H210202   2.759   4.215   6.709
 3421TIP3   OH210203   1.883   5.336   2.000
 3421TIP3    H110204   1.789   5.323   2.001
 3421TIP3    H210205   1.920   5.249   1.986
 3422TIP3   OH210206   7.426   2.361   5.516
 3422TIP3    H110207   7.432   2.282   5.463
 3422TIP3    H210208   7.343   2.353   5.563
 3423TIP3   OH210209   7.126   7.548   3.000
 3423TIP3    H110210   7.087   7.464   3.027
 3423TIP3    H210211   7.063   7.614   3.028
 3424TIP3   OH210212   3.694   1.059   0.205
 3424TIP3    H110213   3.768   1.015   0.163
 3424TIP3    H210214   3.723   1.076   0.294
 3425TIP3   OH210215   0.678   3.797   0.315
 3425TIP3    H110216   0.611   3.729   0.308
 3425TIP3    H210217   0.760   3.749   0.323
 3426TIP3   OH210218   8.169   0.976   5.045
 3426TIP3    H110219   8.197   0.961   4.955
 3426TIP3    H210220   8.077   1.000   5.039
 3427TIP3   OH210221   6.992   1.915   4.369
 3427TIP3    H110222   7.023   1.987   4.313
 3427TIP3    H210223   6.901   1.901   4.341
 3428TIP3   OH210224   4.562   1.290   0.121
 3428TIP3    H110225   4.502   1.365   0.123
 3428TIP3    H210226   4.520   1.224   0.175
 3429TIP3   OH210227   7.154   4.725   6.642
 3429TIP3    H110228   7.202   4.643   6.655
 3429TIP3    H210229   7.172   4.776   6.720
 3430TIP3   OH210230   0.395   4.972   1.032
 3430TIP3    H110231   0.389   4.989   1.126
 3430TIP3    H210232   0.446   5.045   0.997
 3431TIP3   OH210233   3.549   1.862   5.218
 3431TIP3    H110234   3.588   1.845   5.133
 3431TIP3    H210235   3.559   1.780   5.266
 3432TIP3   OH210236   2.553   1.432   6.486
 3432TIP3    H110237   2.524   1.470   6.568
 3432TIP3    H210238   2.589   1.347   6.510
 3433TIP3   OH210239   6.317   6.406   2.913
 3433TIP3    H110240   6.242   6.463   2.933
 3433TIP3    H210241   6.353   6.383   2.999
 3434TIP3   OH210242   7.613   4.728   0.623
 3434TIP3    H110243   7.631   4.750   0.715
 3434TIP3    H210244   7.657   4.644   0.610
 3435TIP3   OH210245   1.972   7.439   1.956
 3435TIP3    H110246   2.005   7.493   2.029
 3435TIP3    H210247   2.017   7.355   1.967
 3436TIP3   OH210248   4.061   3.809   4.687
 3436TIP3    H110249   4.132   3.748   4.703
 3436TIP3    H210250   4.052   3.858   4.768
 3437TIP3   OH210251   2.657   5.313   4.571
 3437TIP3    H110252   2.721   5.384   4.578
 3437TIP3    H210253   2.609   5.316   4.654
 3438TIP3   OH210254   4.028   4.099   0.299
 3438TIP3    H110255   3.975   4.029   0.336
 3438TIP3    H210256   4.024   4.085   0.204
 3439TIP3   OH210257   4.318   1.969   4.874
 3439TIP3    H110258   4.308   1.880   4.841
 3439TIP3    H210259   4.411   1.977   4.897
 3440TIP3   OH210260   2.687   7.716   4.547
 3440TIP3    H110261   2.642   7.762   4.476
 3440TIP3    H210262   2.777   7.706   4.516
 3441TIP3   OH210263   5.824   1.854   4.905
 3441TIP3    H110264   5.799   1.776   4.856
 3441TIP3    H210265   5.825   1.924   4.839
 3442TIP3   OH210266   4.153   2.075   5.584
 3442TIP3    H110267   4.152   1.981   5.604
 3442TIP3    H210268   4.222   2.111   5.640
 3443TIP3   OH210269   3.855   0.186   2.768
 3443TIP3    H110270   3.881   0.278   2.767
 3443TIP3    H210271   3.790   0.179   2.698
 3444TIP3   OH210272   3.283   7.731   4.225
 3444TIP3    H110273   3.337   7.807   4.204
 3444TIP3    H210274   3.265   7.690   4.140
 3445TIP3   OH210275   4.471   6.444   0.445
 3445TIP3    H110276   4.524   6.523   0.456
 3445TIP3    H210277   4.387   6.476   0.415
 3446TIP3   OH210278   0.611   5.860   2.775
 3446TIP3    H110279   0.612   5.924   2.705
 3446TIP3    H210280   0.698   5.864   2.814
 3447TIP3   OH210281   5.595   4.353   4.248
 3447TIP3    H110282   5.517   4.408   4.255
 3447TIP3    H210283   5.561   4.263   4.252
 3448TIP3   OH210284   8.378   7.015   4.638
 3448TIP3    H110285   8.283   7.021   4.653
 3448TIP3    H210286   8.408   7.106   4.641
 3449TIP3   OH210287   8.259   3.774   0.863
 3449TIP3    H110288   8.343   3.746   0.827
 3449TIP3    H210289   8.219   3.825   0.792
 3450TIP3   OH210290   5.501   7.583   2.626
 3450TIP3    H110291   5.553   7.590   2.546
 3450TIP3    H210292   5.429   7.524   2.603
 3451TIP3   OH210293   0.114   6.741   5.381
 3451TIP3    H110294   0.064   6.763   5.460
 3451TIP3    H210295   0.049   6.704   5.321
 3452TIP3   OH210296   3.004   1.942   2.983
 3452TIP3    H110297   3.089   1.949   2.941
 3452TIP3    H210298   2.941   1.948   2.911
 3453TIP3   OH210299   2.846   5.012   4.906
 3453TIP3    H110300   2.817   4.946   4.969
 3453TIP3    H210301   2.938   5.026   4.927
 3454TIP3   OH210302   5.846   6.913   0.702
 3454TIP3    H110303   5.838   6.844   0.768
 3454TIP3    H210304   5.862   6.866   0.620
 3455TIP3   OH210305   6.828   5.558   1.644
 3455TIP3    H110306   6.781   5.613   1.582
 3455TIP3    H210307   6.869   5.620   1.705
 3456TIP3   OH210308   4.040   7.713   2.369
 3456TIP3    H110309   4.041   7.781   2.301
 3456TIP3    H210310   4.102   7.745   2.435
 3457TIP3   OH210311   4.040   1.911   4.629
 3457TIP3    H110312   4.050   1.834   4.685
 3457TIP3    H210313   3.949   1.937   4.640
 3458TIP3   OH210314   6.227   4.058   0.102
 3458TIP3    H110315   6.198   4.119   0.171
 3458TIP3    H210316   6.233   4.112   0.024
 3459TIP3   OH210317   7.999   6.032   0.582
 3459TIP3    H110318   7.967   6.119   0.558
 3459TIP3    H210319   7.932   5.972   0.548
 3460TIP3   OH210320   3.158   1.169   2.260
 3460TIP3    H110321   3.111   1.126   2.332
 3460TIP3    H210322   3.207   1.239   2.302
 3461TIP3   OH210323   7.784   4.209   0.511
 3461TIP3    H110324   7.751   4.141   0.570
 3461TIP3    H210325   7.751   4.184   0.425
 3462TIP3   OH210326   2.986   1.733   1.683
 3462TIP3    H110327   3.074   1.712   1.651
 3462TIP3    H210328   2.932   1.737   1.604
 3463TIP3   OH210329   5.092   1.797   3.837
 3463TIP3    H110330   5.044   1.732   3.785
 3463TIP3    H210331   5.158   1.832   3.777
 3464TIP3   OH210332   3.092   0.352   5.483
 3464TIP3    H110333   3.180   0.365   5.447
 3464TIP3    H210334   3.108   0.318   5.571
 3465TIP3   OH210335   5.140   7.675   4.530
 3465TIP3    H110336   5.113   7.663   4.621
 3465TIP3    H210337   5.082   7.742   4.496
 3466TIP3   OH210338   7.626   5.412   6.786
 3466TIP3    H110339   7.581   5.477   6.839
 3466TIP3    H210340   7.567   5.336   6.786
 3467TIP3   OH210341   3.779   0.073   6.251
 3467TIP3    H110342   3.777   0.061   6.346
 3467TIP3    H210343   3.821  -0.007   6.219
 3468TIP3   OH210344   3.924   3.279   2.307
 3468TIP3    H110345   3.977   3.201   2.325
 3468TIP3    H210346   3.978   3.352   2.338
 3469TIP3   OH210347   1.688   7.762   3.991
 3469TIP3    H110348   1.662   7.850   4.019
 3469TIP3    H210349   1.772   7.747   4.034
 3470TIP3   OH210350   1.078   3.597   1.049
 3470TIP3    H110351   0.995   3.618   1.006
 3470TIP3    H210352   1.144   3.642   0.996
 3471TIP3   OH210353   5.524   1.371   0.563
 3471TIP3    H110354   5.615   1.399   0.556
 3471TIP3    H210355   5.482   1.435   0.619
 3472TIP3   OH210356   5.804   2.292   4.293
 3472TIP3    H110357   5.756   2.235   4.353
 3472TIP3    H210358   5.868   2.336   4.349
 3473TIP3   OH210359   1.535   4.393   0.685
 3473TIP3    H110360   1.629   4.381   0.697
 3473TIP3    H210361   1.526   4.419   0.593
 3474TIP3   OH210362   5.968   6.879   0.251
 3474TIP3    H110363   6.048   6.835   0.223
 3474TIP3    H210364   5.987   6.909   0.340
 3475TIP3   OH210365   4.205   4.461   6.424
 3475TIP3    H110366   4.299   4.467   6.441
 3475TIP3    H210367   4.199   4.425   6.336
 3476TIP3   OH210368   4.619   5.022   3.460
 3476TIP3    H110369   4.538   4.990   3.500
 3476TIP3    H210370   4.688   4.976   3.506
 3477TIP3   OH210371   6.037   2.355   4.451
 3477TIP3    H110372   6.037   2.277   4.505
 3477TIP3    H210373   6.082   2.421   4.504
 3478TIP3   OH210374   1.866   6.904   3.718
 3478TIP3    H110375   1.959   6.889   3.737
 3478TIP3    H210376   1.849   6.992   3.753
 3479TIP3   OH210377   1.704   0.621   1.917
 3479TIP3    H110378   1.714   0.654   1.827
 3479TIP3    H210379   1.775   0.558   1.927
 3480TIP3   OH210380   6.612   2.880   4.203
 3480TIP3    H110381   6.598   2.975   4.206
 3480TIP3    H210382   6.707   2.869   4.204
 3481TIP3   OH210383   6.630   1.144   4.440
 3481TIP3    H110384   6.705   1.092   4.411
 3481TIP3    H210385   6.647   1.159   4.533
 3482TIP3   OH210386   1.703   0.017   1.774
 3482TIP3    H110387   1.654  -0.039   1.714
 3482TIP3    H210388   1.636   0.063   1.824
 3483TIP3   OH210389   5.902   4.776   6.073
 3483TIP3    H110390   5.839   4.834   6.030
 3483TIP3    H210391   5.926   4.712   6.005
 3484TIP3   OH210392   5.635   1.272   1.670
 3484TIP3    H110393   5.646   1.239   1.581
 3484TIP3    H210394   5.656   1.365   1.664
 3485TIP3   OH210395   4.054   3.214   4.376
 3485TIP3    H110396   3.990   3.163   4.425
 3485TIP3    H210397   4.139   3.178   4.402
 3486TIP3   OH210398   7.518   4.414   2.418
 3486TIP3    H110399   7.580   4.488   2.417
 3486TIP3    H210400   7.545   4.362   2.494
 3487TIP3   OH210401   6.121   3.395   2.080
 3487TIP3    H110402   6.190   3.329   2.076
 3487TIP3    H210403   6.117   3.431   1.991
 3488TIP3   OH210404   5.801   4.269   0.247
 3488TIP3    H110405   5.731   4.213   0.282
 3488TIP3    H210406   5.777   4.282   0.155
 3489TIP3   OH210407   8.127   3.572   4.320
 3489TIP3    H110408   8.163   3.491   4.356
 3489TIP3    H210409   8.033   3.566   4.334
 3490TIP3   OH210410   2.848   6.740   1.845
 3490TIP3    H110411   2.863   6.828   1.879
 3490TIP3    H210412   2.820   6.753   1.755
 3491TIP3   OH210413   7.766   2.635   3.671
 3491TIP3    H110414   7.729   2.583   3.742
 3491TIP3    H210415   7.850   2.593   3.651
 3492TIP3   OH210416   1.352   3.328   4.294
 3492TIP3    H110417   1.416   3.328   4.223
 3492TIP3    H210418   1.348   3.419   4.323
 3493TIP3   OH210419   3.451   5.825   1.119
 3493TIP3    H110420   3.433   5.882   1.044
 3493TIP3    H210421   3.508   5.757   1.084
 3494TIP3   OH210422   3.383   6.388   4.103
 3494TIP3    H110423   3.399   6.440   4.182
 3494TIP3    H210424   3.432   6.433   4.034
 3495TIP3   OH210425   3.907   6.889   3.609
 3495TIP3    H110426   3.893   6.935   3.692
 3495TIP3    H210427   3.835   6.827   3.604
 3496TIP3   OH210428   7.251   2.822   2.107
 3496TIP3    H110429   7.265   2.728   2.120
 3496TIP3    H210430   7.296   2.863   2.180
 3497TIP3   OH210431   4.560   4.518   2.323
 3497TIP3    H110432   4.541   4.571   2.401
 3497TIP3    H210433   4.655   4.507   2.325
 3498TIP3   OH210434   3.659   2.023   5.822
 3498TIP3    H110435   3.638   2.095   5.762
 3498TIP3    H210436   3.596   2.032   5.894
 3499TIP3   OH210437   1.589   5.557   5.046
 3499TIP3    H110438   1.607   5.481   5.102
 3499TIP3    H210439   1.656   5.621   5.072
 3500TIP3   OH210440   7.598   0.295   5.252
 3500TIP3    H110441   7.637   0.356   5.316
 3500TIP3    H210442   7.569   0.221   5.305
 3501TIP3   OH210443   1.128   2.627   6.195
 3501TIP3    H110444   1.163   2.594   6.112
 3501TIP3    H210445   1.068   2.697   6.169
 3502TIP3   OH210446   0.538   1.317   4.366
 3502TIP3    H110447   0.444   1.328   4.377
 3502TIP3    H210448   0.554   1.225   4.385
 3503TIP3   OH210449   2.795   2.907   0.341
 3503TIP3    H110450   2.760   2.821   0.317
 3503TIP3    H210451   2.783   2.912   0.436
 3504TIP3   OH210452   1.973   7.720   3.865
 3504TIP3    H110453   1.976   7.640   3.917
 3504TIP3    H210454   2.049   7.715   3.808
 3505TIP3   OH210455   0.375   4.633   4.947
 3505TIP3    H110456   0.285   4.601   4.937
 3505TIP3    H210457   0.369   4.703   5.012
 3506TIP3   OH210458   0.660   3.856   3.290
 3506TIP3    H110459   0.612   3.934   3.317
 3506TIP3    H210460   0.711   3.831   3.367
 3507TIP3   OH210461   6.974   7.523   5.461
 3507TIP3    H110462   6.897   7.509   5.516
 3507TIP3    H210463   6.982   7.619   5.456
 3508TIP3   OH210464   3.503   2.909   0.779
 3508TIP3    H110465   3.518   2.879   0.868
 3508TIP3    H210466   3.588   2.941   0.749
 3509TIP3   OH210467   7.140   5.549   1.021
 3509TIP3    H110468   7.167   5.474   0.968
 3509TIP3    H210469   7.217   5.568   1.076
 3510TIP3   OH210470   5.932   0.842   5.580
 3510TIP3    H110471   5.962   0.879   5.663
 3510TIP3    H210472   5.906   0.918   5.529
 3511TIP3   OH210473   2.992   2.879   0.125
 3511TIP3    H110474   2.909   2.851   0.165
 3511TIP3    H210475   3.029   2.941   0.187
 3512TIP3   OH210476   6.408   3.121   2.451
 3512TIP3    H110477   6.468   3.082   2.514
 3512TIP3    H210478   6.422   3.216   2.461
 3513TIP3   OH210479   1.450   4.420   0.268
 3513TIP3    H110480   1.369   4.416   0.217
 3513TIP3    H210481   1.488   4.333   0.259
 3514TIP3   OH210482   7.526   2.855   5.730
 3514TIP3    H110483   7.473   2.912   5.785
 3514TIP3    H210484   7.502   2.766   5.757
 3515TIP3   OH210485   0.510   1.995   3.461
 3515TIP3    H110486   0.600   1.984   3.491
 3515TIP3    H210487   0.516   2.064   3.394
 3516TIP3   OH210488   7.355   1.111   6.326
 3516TIP3    H110489   7.377   1.202   6.346
 3516TIP3    H210490   7.262   1.113   6.304
 3517TIP3   OH210491   7.956   0.306   1.182
 3517TIP3    H110492   7.885   0.309   1.246
 3517TIP3    H210493   7.991   0.217   1.189
 3518TIP3   OH210494   1.499   7.424   6.505
 3518TIP3    H110495   1.425   7.373   6.540
 3518TIP3    H210496   1.474   7.443   6.415
 3519TIP3   OH210497   7.825   7.533   0.769
 3519TIP3    H110498   7.742   7.579   0.787
 3519TIP3    H210499   7.875   7.543   0.850
 3520TIP3   OH210500   4.193   6.217   0.581
 3520TIP3    H110501   4.161   6.307   0.568
 3520TIP3    H210502   4.204   6.183   0.492
 3521TIP3   OH210503   0.369   6.117   5.864
 3521TIP3    H110504   0.329   6.204   5.865
 3521TIP3    H210505   0.392   6.102   5.772
 3522TIP3   OH210506   4.597   1.189   5.532
 3522TIP3    H110507   4.546   1.252   5.583
 3522TIP3    H210508   4.639   1.133   5.597
 3523TIP3   OH210509   1.165   6.727   3.454
 3523TIP3    H110510   1.109   6.678   3.514
 3523TIP3    H210511   1.121   6.811   3.444
 3524TIP3   OH210512   3.204   1.178   1.541
 3524TIP3    H110513   3.271   1.111   1.530
 3524TIP3    H210514   3.253   1.257   1.566
 3525TIP3   OH210515   3.664   7.326   0.804
 3525TIP3    H110516   3.703   7.359   0.885
 3525TIP3    H210517   3.584   7.282   0.833
 3526TIP3   OH210518   4.363   6.629   5.715
 3526TIP3    H110519   4.311   6.600   5.789
 3526TIP3    H210520   4.401   6.713   5.743
 3527TIP3   OH210521   0.738   5.285   4.495
 3527TIP3    H110522   0.734   5.256   4.586
 3527TIP3    H210523   0.767   5.376   4.500
 3528TIP3   OH210524   2.019   7.719   4.293
 3528TIP3    H110525   2.045   7.810   4.311
 3528TIP3    H210526   2.081   7.689   4.227
 3529TIP3   OH210527   0.747   7.005   6.595
 3529TIP3    H110528   0.820   7.056   6.633
 3529TIP3    H210529   0.713   6.954   6.669
 3530TIP3   OH210530   8.171   7.861   3.754
 3530TIP3    H110531   8.237   7.816   3.806
 3530TIP3    H210532   8.136   7.794   3.695
 3531TIP3   OH210533   3.236   7.546   4.441
 3531TIP3    H110534   3.265   7.600   4.368
 3531TIP3    H210535   3.278   7.583   4.518
 3532TIP3   OH210536   6.141   6.661   6.162
 3532TIP3    H110537   6.155   6.754   6.178
 3532TIP3    H210538   6.208   6.637   6.099
 3533TIP3   OH210539   6.240   7.002   1.672
 3533TIP3    H110540   6.232   7.080   1.618
 3533TIP3    H210541   6.150   6.971   1.683
 3534TIP3   OH210542   3.666   0.840   2.325
 3534TIP3    H110543   3.725   0.880   2.389
 3534TIP3    H210544   3.720   0.774   2.281
 3535TIP3   OH210545   4.614   1.864   1.360
 3535TIP3    H110546   4.683   1.820   1.410
 3535TIP3    H210547   4.586   1.937   1.416
 3536TIP3   OH210548   3.174   6.704   4.368
 3536TIP3    H110549   3.175   6.723   4.462
 3536TIP3    H210550   3.109   6.635   4.358
 3537TIP3   OH210551   5.483   0.024   3.370
 3537TIP3    H110552   5.451  -0.065   3.355
 3537TIP3    H210553   5.429   0.079   3.314
 3538TIP3   OH210554   3.336   7.363   0.647
 3538TIP3    H110555   3.362   7.272   0.664
 3538TIP3    H210556   3.403   7.396   0.588
 3539TIP3   OH210557   2.559   7.341   2.842
 3539TIP3    H110558   2.509   7.284   2.900
 3539TIP3    H210559   2.506   7.421   2.837
 3540TIP3   OH210560   4.823   7.658   1.016
 3540TIP3    H110561   4.881   7.731   1.038
 3540TIP3    H210562   4.767   7.648   1.093
 3541TIP3   OH210563   5.197   3.021   0.300
 3541TIP3    H110564   5.261   3.063   0.359
 3541TIP3    H210565   5.238   3.025   0.214
 3542TIP3   OH210566   1.575   0.082   5.540
 3542TIP3    H110567   1.600   0.146   5.607
 3542TIP3    H210568   1.582   0.131   5.457
 3543TIP3   OH210569   0.651   5.307   6.322
 3543TIP3    H110570   0.702   5.365   6.265
 3543TIP3    H210571   0.560   5.327   6.300
 3544TIP3   OH210572   6.111   5.616   3.036
 3544TIP3    H110573   6.192   5.612   2.984
 3544TIP3    H210574   6.103   5.529   3.075
 3545TIP3   OH210575   0.318   6.457   4.463
 3545TIP3    H110576   0.386   6.457   4.396
 3545TIP3    H210577   0.354   6.402   4.533
 3546TIP3   OH210578   1.897   4.585   0.427
 3546TIP3    H110579   1.835   4.574   0.499
 3546TIP3    H210580   1.925   4.676   0.434
 3547TIP3   OH210581   4.243   7.177   4.730
 3547TIP3    H110582   4.167   7.230   4.753
 3547TIP3    H210583   4.250   7.184   4.635
 3548TIP3   OH210584   7.625   6.652   4.059
 3548TIP3    H110585   7.588   6.564   4.045
 3548TIP3    H210586   7.608   6.699   3.978
 3549TIP3   OH210587   0.011   6.288   1.928
 3549TIP3    H110588   0.096   6.245   1.915
 3549TIP3    H210589   0.002   6.347   1.853
 3550TIP3   OH210590   6.170   2.981   2.526
 3550TIP3    H110591   6.252   3.027   2.504
 3550TIP3    H210592   6.119   3.046   2.575
 3551TIP3   OH210593   4.915   3.302   5.647
 3551TIP3    H110594   4.821   3.291   5.664
 3551TIP3    H210595   4.935   3.236   5.580
 3552TIP3   OH210596   3.204   3.952   5.082
 3552TIP3    H110597   3.160   4.028   5.122
 3552TIP3    H210598   3.287   3.945   5.129
 3553TIP3   OH210599   4.933   6.319   5.303
 3553TIP3    H110600   4.908   6.406   5.333
 3553TIP3    H210601   4.857   6.288   5.253
 3554TIP3   OH210602   3.605   1.174   5.000
 3554TIP3    H110603   3.555   1.128   4.932
 3554TIP3    H210604   3.597   1.117   5.077
 3555TIP3   OH210605   2.215   7.782   5.148
 3555TIP3    H110606   2.289   7.721   5.144
 3555TIP3    H210607   2.222   7.834   5.068
 3556TIP3   OH210608   4.851   1.134   5.938
 3556TIP3    H110609   4.780   1.197   5.948
 3556TIP3    H210610   4.930   1.182   5.965
 3557TIP3   OH210611   2.786   1.079   0.787
 3557TIP3    H110612   2.709   1.042   0.832
 3557TIP3    H210613   2.772   1.174   0.789
 3558TIP3   OH210614   7.645   5.689   1.318
 3558TIP3    H110615   7.665   5.597   1.302
 3558TIP3    H210616   7.728   5.734   1.303
 3559TIP3   OH210617   6.944   6.002   0.223
 3559TIP3    H110618   7.037   5.992   0.241
 3559TIP3    H210619   6.937   5.998   0.128
 3560TIP3   OH210620   4.504   5.086   0.351
 3560TIP3    H110621   4.460   5.005   0.326
 3560TIP3    H210622   4.433   5.148   0.367
 3561TIP3   OH210623   3.058   1.901   0.208
 3561TIP3    H110624   3.047   1.888   0.302
 3561TIP3    H210625   2.970   1.921   0.176
 3562TIP3   OH210626   1.408   5.492   6.366
 3562TIP3    H110627   1.419   5.557   6.437
 3562TIP3    H210628   1.428   5.408   6.407
 3563TIP3   OH210629   7.460   5.291   1.112
 3563TIP3    H110630   7.487   5.364   1.057
 3563TIP3    H210631   7.497   5.214   1.070
 3564TIP3   OH210632   7.919   5.172   4.173
 3564TIP3    H110633   7.977   5.113   4.221
 3564TIP3    H210634   7.834   5.162   4.215
 3565TIP3   OH210635   7.122   0.070   6.147
 3565TIP3    H110636   7.185   0.137   6.170
 3565TIP3    H210637   7.071   0.056   6.226
 3566TIP3   OH210638   7.752   1.598   3.092
 3566TIP3    H110639   7.711   1.518   3.125
 3566TIP3    H210640   7.816   1.621   3.160
 3567TIP3   OH210641   5.536   1.305   1.237
 3567TIP3    H110642   5.454   1.274   1.197
 3567TIP3    H210643   5.520   1.397   1.256
 3568TIP3   OH210644   3.474   5.850   1.923
 3568TIP3    H110645   3.443   5.760   1.932
 3568TIP3    H210646   3.401   5.896   1.880
 3569TIP3   OH210647   6.899   6.037   4.844
 3569TIP3    H110648   6.953   5.990   4.908
 3569TIP3    H210649   6.930   6.127   4.848
 3570TIP3   OH210650   7.382   4.607   4.458
 3570TIP3    H110651   7.448   4.669   4.426
 3570TIP3    H210652   7.299   4.643   4.426
 3571TIP3   OH210653   4.182   1.179   4.450
 3571TIP3    H110654   4.141   1.144   4.529
 3571TIP3    H210655   4.257   1.229   4.483
 3572TIP3   OH210656   2.582   3.425   5.136
 3572TIP3    H110657   2.537   3.503   5.104
 3572TIP3    H210658   2.675   3.449   5.135
 3573TIP3   OH210659   3.095   2.912   2.895
 3573TIP3    H110660   3.118   2.852   2.966
 3573TIP3    H210661   3.000   2.901   2.884
 3574TIP3   OH210662   3.618   2.416   3.575
 3574TIP3    H110663   3.552   2.466   3.528
 3574TIP3    H210664   3.622   2.456   3.662
 3575TIP3   OH210665   4.854   1.448   1.580
 3575TIP3    H110666   4.830   1.511   1.648
 3575TIP3    H210667   4.770   1.426   1.538
 3576TIP3   OH210668   6.180   7.039   2.318
 3576TIP3    H110669   6.202   7.024   2.226
 3576TIP3    H210670   6.213   7.128   2.336
 3577TIP3   OH210671   1.566   7.917   0.517
 3577TIP3    H110672   1.590   7.846   0.575
 3577TIP3    H210673   1.640   7.923   0.455
 3578TIP3   OH210674   2.073   1.015   5.336
 3578TIP3    H110675   2.133   0.956   5.383
 3578TIP3    H210676   2.017   0.957   5.285
 3579TIP3   OH210677   3.957   3.360   0.116
 3579TIP3    H110678   4.023   3.340   0.050
 3579TIP3    H210679   3.974   3.451   0.141
 3580TIP3   OH210680   7.773   1.191   4.706
 3580TIP3    H110681   7.783   1.145   4.623
 3580TIP3    H210682   7.726   1.129   4.762
 3581TIP3   OH210683   7.226   4.578   3.210
 3581TIP3    H110684   7.226   4.540   3.122
 3581TIP3    H210685   7.319   4.593   3.230
 3582TIP3   OH210686   8.165   4.178   6.657
 3582TIP3    H110687   8.177   4.273   6.656
 3582TIP3    H210688   8.073   4.166   6.633
 3583TIP3   OH210689   4.546   7.609   5.436
 3583TIP3    H110690   4.492   7.580   5.362
 3583TIP3    H210691   4.568   7.700   5.415
 3584TIP3   OH210692   4.938   1.807   2.866
 3584TIP3    H110693   5.003   1.764   2.810
 3584TIP3    H210694   4.880   1.736   2.893
 3585TIP3   OH210695   7.917   4.484   3.961
 3585TIP3    H110696   7.947   4.505   4.049
 3585TIP3    H210697   7.991   4.441   3.919
 3586TIP3   OH210698   1.756   6.212   3.073
 3586TIP3    H110699   1.824   6.227   3.138
 3586TIP3    H210700   1.674   6.230   3.119
 3587TIP3   OH210701   1.888   0.419   1.972
 3587TIP3    H110702   1.848   0.340   2.009
 3587TIP3    H210703   1.926   0.464   2.047
 3588TIP3   OH210704   6.671   6.655   1.201
 3588TIP3    H110705   6.650   6.574   1.155
 3588TIP3    H210706   6.736   6.698   1.146
 3589TIP3   OH210707   2.084   2.355   4.492
 3589TIP3    H110708   2.179   2.361   4.484
 3589TIP3    H210709   2.050   2.420   4.430
 3590TIP3   OH210710   1.034   2.678   4.052
 3590TIP3    H110711   1.100   2.747   4.053
 3590TIP3    H210712   1.000   2.679   3.962
 3591TIP3   OH210713   1.299   7.329   5.782
 3591TIP3    H110714   1.299   7.248   5.732
 3591TIP3    H210715   1.206   7.343   5.804
 3592TIP3   OH210716   7.607   5.709   4.508
 3592TIP3    H110717   7.555   5.643   4.553
 3592TIP3    H210718   7.696   5.697   4.542
 3593TIP3   OH210719   6.456   1.932   5.481
 3593TIP3    H110720   6.391   1.928   5.411
 3593TIP3    H210721   6.431   1.862   5.541
 3594TIP3   OH210722   7.736   4.875   6.291
 3594TIP3    H110723   7.675   4.805   6.315
 3594TIP3    H210724   7.683   4.935   6.238
 3595TIP3   OH210725   0.600   2.760   1.689
 3595TIP3    H110726   0.680   2.714   1.664
 3595TIP3    H210727   0.535   2.691   1.697
 3596TIP3   OH210728   7.878   2.754   0.611
 3596TIP3    H110729   7.867   2.844   0.582
 3596TIP3    H210730   7.926   2.761   0.694
 3597TIP3   OH210731   8.323   2.992   6.680
 3597TIP3    H110732   8.405   3.033   6.709
 3597TIP3    H210733   8.304   3.032   6.596
 3598TIP3   OH210734   3.506   5.188   5.253
 3598TIP3    H110735   3.548   5.102   5.249
 3598TIP3    H210736   3.579   5.250   5.260
 3599TIP3   OH210737   0.352   5.735   6.476
 3599TIP3    H110738   0.404   5.661   6.507
 3599TIP3    H210739   0.404   5.812   6.499
 3600TIP3   OH210740   1.737   4.082   1.069
 3600TIP3    H110741   1.686   4.140   1.012
 3600TIP3    H210742   1.802   4.043   1.011
 3601TIP3   OH210743   0.031   4.707   5.742
 3601TIP3    H110744   0.103   4.752   5.697
 3601TIP3    H210745  -0.029   4.682   5.672
 3602TIP3   OH210746   5.328   5.927   1.874
 3602TIP3    H110747   5.417   5.959   1.888
 3602TIP3    H210748   5.318   5.925   1.779
 3603TIP3   OH210749   3.393   6.236   3.185
 3603TIP3    H110750   3.318   6.247   3.243
 3603TIP3    H210751   3.409   6.142   3.182
 3604TIP3   OH210752   4.172   7.619   0.815
 3604TIP3    H110753   4.090   7.589   0.856
 3604TIP3    H210754   4.154   7.618   0.721
 3605TIP3   OH210755   1.592   4.098   5.067
 3605TIP3    H110756   1.561   4.101   4.977
 3605TIP3    H210757   1.642   4.016   5.073
 3606TIP3   OH210758   0.863   6.610   6.816
 3606TIP3    H110759   0.824   6.530   6.779
 3606TIP3    H210760   0.912   6.579   6.892
 3607TIP3   OH210761   2.033   0.584   6.312
 3607TIP3    H110762   2.016   0.677   6.298
 3607TIP3    H210763   2.125   0.572   6.291
 3608TIP3   OH210764   6.197   6.782   5.868
 3608TIP3    H110765   6.121   6.724   5.863
 3608TIP3    H210766   6.254   6.742   5.933
 3609TIP3   OH210767   6.234   3.339   3.110
 3609TIP3    H110768   6.158   3.360   3.056
 3609TIP3    H210769   6.230   3.403   3.182
 3610TIP3   OH210770   7.646   1.625   5.079
 3610TIP3    H110771   7.667   1.719   5.080
 3610TIP3    H210772   7.728   1.583   5.055
 3611TIP3   OH210773   2.874   6.571   3.577
 3611TIP3    H110774   2.916   6.651   3.548
 3611TIP3    H210775   2.802   6.600   3.633
 3612TIP3   OH210776   2.133   3.463   3.774
 3612TIP3    H110777   2.086   3.540   3.805
 3612TIP3    H210778   2.219   3.496   3.748
 3613TIP3   OH210779   7.106   5.964   4.082
 3613TIP3    H110780   7.025   5.961   4.133
 3613TIP3    H210781   7.079   5.945   3.992
 3614TIP3   OH210782   0.585   2.626   2.746
 3614TIP3    H110783   0.492   2.611   2.765
 3614TIP3    H210784   0.612   2.548   2.696
 3615TIP3   OH210785   0.012   7.016   1.451
 3615TIP3    H110786   0.050   7.103   1.462
 3615TIP3    H210787   0.080   6.956   1.482
 3616TIP3   OH210788   3.470   1.220   0.733
 3616TIP3    H110789   3.432   1.289   0.787
 3616TIP3    H210790   3.424   1.226   0.650
 3617TIP3   OH210791   7.556   7.794   4.442
 3617TIP3    H110792   7.543   7.786   4.537
 3617TIP3    H210793   7.557   7.704   4.410
 3618TIP3   OH210794   0.223   5.258   2.564
 3618TIP3    H110795   0.163   5.329   2.542
 3618TIP3    H210796   0.183   5.215   2.640
 3619TIP3   OH210797   5.662   3.220   3.046
 3619TIP3    H110798   5.580   3.177   3.021
 3619TIP3    H210799   5.729   3.177   2.992
 3620TIP3   OH210800   2.109   4.019   5.265
 3620TIP3    H110801   2.035   4.070   5.297
 3620TIP3    H210802   2.185   4.074   5.281
 3621TIP3   OH210803   6.549   2.438   1.526
 3621TIP3    H110804   6.465   2.395   1.507
 3621TIP3    H210805   6.591   2.381   1.590
 3622TIP3   OH210806   5.184   4.533   0.367
 3622TIP3    H110807   5.091   4.553   0.370
 3622TIP3    H210808   5.215   4.575   0.287
 3623TIP3   OH210809   6.927   5.365   5.837
 3623TIP3    H110810   6.988   5.328   5.900
 3623TIP3    H210811   6.879   5.432   5.887
 3624TIP3   OH210812   5.683   0.162   5.666
 3624TIP3    H110813   5.762   0.202   5.701
 3624TIP3    H210814   5.700   0.067   5.670
 3625TIP3   OH210815   2.165   1.812   4.423
 3625TIP3    H110816   2.190   1.897   4.458
 3625TIP3    H210817   2.232   1.752   4.456
 3626TIP3   OH210818   3.991   7.459   5.888
 3626TIP3    H110819   4.082   7.474   5.916
 3626TIP3    H210820   3.970   7.372   5.922
 3627TIP3   OH210821   8.116   0.438   2.027
 3627TIP3    H110822   8.148   0.348   2.037
 3627TIP3    H210823   8.044   0.444   2.090
 3628TIP3   OH210824   2.529   2.599   4.381
 3628TIP3    H110825   2.575   2.561   4.307
 3628TIP3    H210826   2.597   2.645   4.430
 3629TIP3   OH210827   1.890   1.263   5.538
 3629TIP3    H110828   1.836   1.187   5.515
 3629TIP3    H210829   1.963   1.260   5.476
 3630TIP3   OH210830   1.745   4.345   3.350
 3630TIP3    H110831   1.724   4.347   3.256
 3630TIP3    H210832   1.802   4.421   3.363
 3631TIP3   OH210833   0.181   7.431   0.964
 3631TIP3    H110834   0.233   7.482   1.027
 3631TIP3    H210835   0.245   7.387   0.909
 3632TIP3   OH210836   1.406   5.073   2.167
 3632TIP3    H110837   1.341   5.126   2.122
 3632TIP3    H210838   1.463   5.136   2.211
 3633TIP3   OH210839   0.182   2.156   5.574
 3633TIP3    H110840   0.129   2.171   5.496
 3633TIP3    H210841   0.273   2.162   5.542
 3634TIP3   OH210842   0.518   1.352   5.035
 3634TIP3    H110843   0.459   1.378   4.965
 3634TIP3    H210844   0.555   1.269   5.005
 3635TIP3   OH210845   1.561   5.526   2.145
 3635TIP3    H110846   1.555   5.431   2.156
 3635TIP3    H210847   1.636   5.539   2.087
 3636TIP3   OH210848   7.560   7.163   5.466
 3636TIP3    H110849   7.602   7.162   5.552
 3636TIP3    H210850   7.524   7.075   5.455
 3637TIP3   OH210851   6.741   0.913   0.509
 3637TIP3    H110852   6.740   0.824   0.543
 3637TIP3    H210853   6.656   0.949   0.532
 3638TIP3   OH210854   7.279   1.702   0.821
 3638TIP3    H110855   7.315   1.729   0.905
 3638TIP3    H210856   7.340   1.635   0.788
 3639TIP3   OH210857   2.014   5.861   1.579
 3639TIP3    H110858   2.101   5.888   1.608
 3639TIP3    H210859   2.026   5.840   1.486
 3640TIP3   OH210860   0.148   3.300   0.857
 3640TIP3    H110861   0.216   3.324   0.920
 3640TIP3    H210862   0.068   3.338   0.892
 3641TIP3   OH210863   7.099   1.359   1.573
 3641TIP3    H110864   7.012   1.321   1.589
 3641TIP3    H210865   7.158   1.305   1.626
 3642TIP3   OH210866   0.491   1.539   2.499
 3642TIP3    H110867   0.481   1.444   2.489
 3642TIP3    H210868   0.586   1.552   2.505
 3643TIP3   OH210869   3.095   1.613   0.487
 3643TIP3    H110870   3.031   1.562   0.537
 3643TIP3    H210871   3.047   1.644   0.410
 3644TIP3   OH210872   4.169   6.273   1.232
 3644TIP3    H110873   4.126   6.248   1.150
 3644TIP3    H210874   4.189   6.191   1.275
 3645TIP3   OH210875   5.605   1.553   5.266
 3645TIP3    H110876   5.586   1.640   5.231
 3645TIP3    H210877   5.571   1.492   5.200
 3646TIP3   OH210878   2.320   4.203   0.268
 3646TIP3    H110879   2.365   4.126   0.303
 3646TIP3    H210880   2.229   4.192   0.295
 3647TIP3   OH210881   4.924   2.329   6.648
 3647TIP3    H110882   4.897   2.421   6.645
 3647TIP3    H210883   4.865   2.285   6.587
 3648TIP3   OH210884   2.946   7.118   0.472
 3648TIP3    H110885   2.931   7.091   0.382
 3648TIP3    H210886   3.022   7.066   0.500
 3649TIP3   OH210887   5.772   2.163   6.590
 3649TIP3    H110888   5.827   2.203   6.524
 3649TIP3    H210889   5.825   2.092   6.626
 3650TIP3   OH210890   0.518   3.952   1.654
 3650TIP3    H110891   0.553   3.864   1.641
 3650TIP3    H210892   0.595   4.009   1.661
 3651TIP3   OH210893   3.676   4.622   2.579
 3651TIP3    H110894   3.581   4.610   2.569
 3651TIP3    H210895   3.706   4.543   2.624
 3652TIP3   OH210896   5.361   5.036   6.691
 3652TIP3    H110897   5.276   5.072   6.665
 3652TIP3    H210898   5.425   5.101   6.661
 3653TIP3   OH210899   5.658   7.369   5.037
 3653TIP3    H110900   5.626   7.392   5.125
 3653TIP3    H210901   5.580   7.374   4.982
 3654TIP3   OH210902   0.225   6.300   4.190
 3654TIP3    H110903   0.294   6.248   4.149
 3654TIP3    H210904   0.226   6.382   4.141
 3655TIP3   OH210905   4.282   6.051   2.452
 3655TIP3    H110906   4.188   6.034   2.457
 3655TIP3    H210907   4.291   6.143   2.479
 3656TIP3   OH210908   3.113   4.763   2.934
 3656TIP3    H110909   3.070   4.731   2.855
 3656TIP3    H210910   3.159   4.686   2.969
 3657TIP3   OH210911   0.168   1.495   6.603
 3657TIP3    H110912   0.247   1.447   6.626
 3657TIP3    H210913   0.175   1.577   6.650
 3658TIP3   OH210914   3.367   7.279   4.105
 3658TIP3    H110915   3.307   7.235   4.045
 3658TIP3    H210916   3.390   7.360   4.060
 3659TIP3   OH210917   7.381   6.999   1.314
 3659TIP3    H110918   7.368   7.061   1.243
 3659TIP3    H210919   7.293   6.983   1.349
 3660TIP3   OH210920   5.581   6.976   3.798
 3660TIP3    H110921   5.632   7.052   3.825
 3660TIP3    H210922   5.626   6.902   3.839
 3661TIP3   OH210923   8.064   1.685   3.569
 3661TIP3    H110924   8.100   1.625   3.635
 3661TIP3    H210925   8.085   1.772   3.603
 3662TIP3   OH210926   7.365   4.106   5.338
 3662TIP3    H110927   7.388   4.055   5.260
 3662TIP3    H210928   7.286   4.064   5.372
 3663TIP3   OH210929   7.339   5.033   2.142
 3663TIP3    H110930   7.372   5.011   2.054
 3663TIP3    H210931   7.357   4.955   2.194
 3664TIP3   OH210932   5.210   5.043   3.166
 3664TIP3    H110933   5.138   5.032   3.103
 3664TIP3    H210934   5.272   4.973   3.144
 3665TIP3   OH210935   5.263   2.661   2.129
 3665TIP3    H110936   5.331   2.724   2.108
 3665TIP3    H210937   5.309   2.577   2.136
 3666TIP3   OH210938   0.286   2.986   4.109
 3666TIP3    H110939   0.228   3.041   4.056
 3666TIP3    H210940   0.304   3.039   4.187
 3667TIP3   OH210941   4.476   0.750   1.115
 3667TIP3    H110942   4.500   0.793   1.197
 3667TIP3    H210943   4.469   0.658   1.137
 3668TIP3   OH210944   0.198   0.188   5.945
 3668TIP3    H110945   0.145   0.231   6.012
 3668TIP3    H210946   0.159   0.214   5.862
 3669TIP3   OH210947   6.444   0.196   6.261
 3669TIP3    H110948   6.371   0.205   6.323
 3669TIP3    H210949   6.443   0.103   6.236
 3670TIP3   OH210950   1.983   0.613   2.126
 3670TIP3    H110951   1.934   0.692   2.102
 3670TIP3    H210952   2.075   0.638   2.118
 3671TIP3   OH210953   2.432   7.445   2.593
 3671TIP3    H110954   2.443   7.485   2.679
 3671TIP3    H210955   2.345   7.404   2.596
 3672TIP3   OH210956   7.839   2.761   4.885
 3672TIP3    H110957   7.885   2.683   4.854
 3672TIP3    H210958   7.899   2.833   4.866
 3673TIP3   OH210959   2.008   2.506   6.630
 3673TIP3    H110960   2.041   2.551   6.552
 3673TIP3    H210961   1.914   2.501   6.617
 3674TIP3   OH210962   1.174   5.185   2.068
 3674TIP3    H110963   1.178   5.111   2.007
 3674TIP3    H210964   1.082   5.210   2.069
 3675TIP3   OH210965   4.462   7.780   6.394
 3675TIP3    H110966   4.555   7.779   6.417
 3675TIP3    H210967   4.460   7.798   6.300
 3676TIP3   OH210968   1.806   4.243   2.225
 3676TIP3    H110969   1.830   4.254   2.317
 3676TIP3    H210970   1.870   4.295   2.176
 3677TIP3   OH210971   4.907   4.500   5.180
 3677TIP3    H110972   4.926   4.586   5.219
 3677TIP3    H210973   4.893   4.442   5.255
 3678TIP3   OH210974   2.653   5.763   2.180
 3678TIP3    H110975   2.711   5.835   2.157
 3678TIP3    H210976   2.630   5.722   2.096
 3679TIP3   OH210977   2.850   1.159   4.468
 3679TIP3    H110978   2.903   1.083   4.444
 3679TIP3    H210979   2.798   1.128   4.542
 3680TIP3   OH210980   2.180   4.452   6.087
 3680TIP3    H110981   2.088   4.432   6.104
 3680TIP3    H210982   2.228   4.383   6.133
 3681TIP3   OH210983   4.951   1.741   6.050
 3681TIP3    H110984   4.916   1.787   5.974
 3681TIP3    H210985   5.045   1.759   6.048
 3682TIP3   OH210986   7.421   1.543   6.152
 3682TIP3    H110987   7.384   1.474   6.207
 3682TIP3    H210988   7.400   1.625   6.197
 3683TIP3   OH210989   8.354   1.464   1.606
 3683TIP3    H110990   8.427   1.407   1.583
 3683TIP3    H210991   8.306   1.475   1.524
 3684TIP3   OH210992   5.579   4.849   4.836
 3684TIP3    H110993   5.587   4.916   4.904
 3684TIP3    H210994   5.486   4.826   4.835
 3685TIP3   OH210995   4.982   5.638   5.565
 3685TIP3    H110996   5.040   5.711   5.583
 3685TIP3    H210997   4.895   5.670   5.589
 3686TIP3   OH210998   2.744   3.612   3.851
 3686TIP3    H110999   2.795   3.536   3.821
 3686TIP3    H211000   2.690   3.635   3.776
 3687TIP3   OH211001   1.073   5.643   1.726
 3687TIP3    H111002   1.009   5.710   1.703
 3687TIP3    H211003   1.118   5.623   1.644
 3688TIP3   OH211004   6.654   7.852   6.676
 3688TIP3    H111005   6.730   7.841   6.619
 3688TIP3    H211006   6.579   7.857   6.616
 3689TIP3   OH211007   6.997   2.902   1.066
 3689TIP3    H111008   6.969   2.859   1.146
 3689TIP3    H211009   6.919   2.948   1.034
 3690TIP3   OH211010   0.079   2.058   0.783
 3690TIP3    H111011   0.130   2.137   0.762
 3690TIP3    H211012   0.142   2.001   0.828
 3691TIP3   OH211013   6.034   4.410   5.813
 3691TIP3    H111014   6.087   4.330   5.808
 3691TIP3    H211015   5.947   4.379   5.839
 3692TIP3   OH211016   0.913   5.863   5.648
 3692TIP3    H111017   0.962   5.847   5.568
 3692TIP3    H211018   0.972   5.915   5.703
 3693TIP3   OH211019   6.497   3.079   0.844
 3693TIP3    H111020   6.509   3.011   0.777
 3693TIP3    H211021   6.513   3.161   0.797
 3694TIP3   OH211022   7.058   4.540   0.954
 3694TIP3    H111023   7.008   4.508   1.029
 3694TIP3    H211024   6.999   4.529   0.879
 3695TIP3   OH211025   8.292   5.950   0.140
 3695TIP3    H111026   8.281   6.029   0.087
 3695TIP3    H211027   8.214   5.948   0.196
 3696TIP3   OH211028   1.436   0.505   3.879
 3696TIP3    H111029   1.494   0.543   3.944
 3696TIP3    H211030   1.417   0.417   3.911
 3697TIP3   OH211031   0.608   0.789   3.545
 3697TIP3    H111032   0.640   0.700   3.532
 3697TIP3    H211033   0.659   0.823   3.618
 3698TIP3   OH211034   4.812   2.234   4.712
 3698TIP3    H111035   4.724   2.267   4.695
 3698TIP3    H211036   4.802   2.140   4.724
 3699TIP3   OH211037   5.184   4.339   6.591
 3699TIP3    H111038   5.115   4.373   6.535
 3699TIP3    H211039   5.227   4.272   6.539
 3700TIP3   OH211040   1.621   7.654   0.392
 3700TIP3    H111041   1.714   7.655   0.415
 3700TIP3    H211042   1.579   7.608   0.465
 3701TIP3   OH211043   2.459   3.406   2.961
 3701TIP3    H111044   2.468   3.341   3.031
 3701TIP3    H211045   2.395   3.468   2.994
 3702TIP3   OH211046   1.651   0.409   0.835
 3702TIP3    H111047   1.566   0.381   0.800
 3702TIP3    H211048   1.702   0.328   0.841
 3703TIP3   OH211049   2.344   5.453   3.849
 3703TIP3    H111050   2.415   5.390   3.842
 3703TIP3    H211051   2.360   5.515   3.779
 3704TIP3   OH211052   6.222   7.578   5.414
 3704TIP3    H111053   6.266   7.652   5.455
 3704TIP3    H211054   6.159   7.617   5.354
 3705TIP3   OH211055   2.141   3.545   2.729
 3705TIP3    H111056   2.171   3.524   2.817
 3705TIP3    H211057   2.114   3.637   2.734
 3706TIP3   OH211058   1.845   0.170   2.419
 3706TIP3    H111059   1.915   0.109   2.439
 3706TIP3    H211060   1.769   0.114   2.402
 3707TIP3   OH211061   5.946   5.943   1.330
 3707TIP3    H111062   5.940   5.911   1.240
 3707TIP3    H211063   6.017   5.892   1.369
 3708TIP3   OH211064   4.019   7.126   0.382
 3708TIP3    H111065   3.960   7.121   0.457
 3708TIP3    H211066   4.093   7.178   0.413
 3709TIP3   OH211067   3.109   1.552   1.381
 3709TIP3    H111068   3.158   1.590   1.453
 3709TIP3    H211069   3.159   1.577   1.303
 3710TIP3   OH211070   5.284   6.420   3.653
 3710TIP3    H111071   5.221   6.418   3.725
 3710TIP3    H211072   5.247   6.362   3.587
 3711TIP3   OH211073   6.334   7.799   5.544
 3711TIP3    H111074   6.414   7.748   5.542
 3711TIP3    H211075   6.322   7.823   5.636
 3712TIP3   OH211076   2.539   2.154   1.547
 3712TIP3    H111077   2.614   2.189   1.594
 3712TIP3    H211078   2.577   2.110   1.470
 3713TIP3   OH211079   3.837   7.874   0.495
 3713TIP3    H111080   3.905   7.924   0.450
 3713TIP3    H211081   3.758   7.928   0.486
 3714TIP3   OH211082   2.373   1.249   0.729
 3714TIP3    H111083   2.319   1.278   0.656
 3714TIP3    H211084   2.366   1.154   0.728
 3715TIP3   OH211085   4.996   5.232   1.567
 3715TIP3    H111086   4.943   5.282   1.505
 3715TIP3    H211087   5.055   5.297   1.606
 3716TIP3   OH211088   2.613   4.264   0.399
 3716TIP3    H111089   2.538   4.206   0.398
 3716TIP3    H211090   2.648   4.261   0.310
 3717TIP3   OH211091   7.068   1.453   2.770
 3717TIP3    H111092   7.087   1.522   2.706
 3717TIP3    H211093   6.976   1.465   2.791
 3718TIP3   OH211094   6.922   5.006   3.252
 3718TIP3    H111095   6.983   4.936   3.271
 3718TIP3    H211096   6.865   4.971   3.183
 3719TIP3   OH211097   5.464   3.329   5.911
 3719TIP3    H111098   5.520   3.276   5.967
 3719TIP3    H211099   5.390   3.354   5.967
 3720TIP3   OH211100   6.243   7.299   5.743
 3720TIP3    H111101   6.172   7.331   5.687
 3720TIP3    H211102   6.290   7.378   5.769
 3721TIP3   OH211103   6.152   0.721   6.653
 3721TIP3    H111104   6.135   0.649   6.714
 3721TIP3    H211105   6.244   0.743   6.667
 3722TIP3   OH211106   7.741   1.067   1.382
 3722TIP3    H111107   7.792   1.031   1.455
 3722TIP3    H211108   7.697   0.991   1.344
 3723TIP3   OH211109   0.027   3.664   3.516
 3723TIP3    H111110   0.072   3.700   3.440
 3723TIP3    H211111  -0.034   3.733   3.543
 3724TIP3   OH211112   5.959   5.127   2.729
 3724TIP3    H111113   6.050   5.125   2.700
 3724TIP3    H211114   5.952   5.208   2.781
 3725TIP3   OH211115   6.004   1.432   4.993
 3725TIP3    H111116   6.008   1.421   4.898
 3725TIP3    H211117   6.083   1.481   5.016
 3726TIP3   OH211118   0.893   6.345   1.388
 3726TIP3    H111119   0.962   6.370   1.326
 3726TIP3    H211120   0.870   6.426   1.432
 3727TIP3   OH211121   5.511   6.003   2.992
 3727TIP3    H111122   5.561   5.922   2.989
 3727TIP3    H211123   5.484   6.011   3.084
 3728TIP3   OH211124   0.685   2.691   0.102
 3728TIP3    H111125   0.698   2.784   0.090
 3728TIP3    H211126   0.737   2.669   0.179
 3729TIP3   OH211127   8.322   6.208   4.069
 3729TIP3    H111128   8.292   6.130   4.022
 3729TIP3    H211129   8.369   6.260   4.003
 3730TIP3   OH211130   7.673   5.269   6.186
 3730TIP3    H111131   7.692   5.315   6.105
 3730TIP3    H211132   7.739   5.301   6.248
 3731TIP3   OH211133   4.192   0.318   6.490
 3731TIP3    H111134   4.103   0.348   6.507
 3731TIP3    H211135   4.225   0.376   6.422
 3732TIP3   OH211136   7.708   7.289   0.718
 3732TIP3    H111137   7.739   7.379   0.718
 3732TIP3    H211138   7.768   7.243   0.778
 3733TIP3   OH211139   7.577   0.099   5.467
 3733TIP3    H111140   7.588   0.148   5.548
 3733TIP3    H211141   7.663   0.061   5.450
 3734TIP3   OH211142   5.895   5.635   1.724
 3734TIP3    H111143   5.819   5.607   1.673
 3734TIP3    H211144   5.928   5.555   1.764
 3735TIP3   OH211145   4.731   2.263   0.470
 3735TIP3    H111146   4.756   2.221   0.552
 3735TIP3    H211147   4.708   2.353   0.495
 3736TIP3   OH211148   0.599   0.694   3.041
 3736TIP3    H111149   0.509   0.668   3.019
 3736TIP3    H211150   0.599   0.789   3.029
 3737TIP3   OH211151   6.767   1.772   2.428
 3737TIP3    H111152   6.837   1.822   2.387
 3737TIP3    H211153   6.701   1.763   2.359
 3738TIP3   OH211154   4.388   1.388   5.287
 3738TIP3    H111155   4.438   1.308   5.295
 3738TIP3    H211156   4.449   1.452   5.249
 3739TIP3   OH211157   5.582   7.584   4.827
 3739TIP3    H111158   5.571   7.677   4.805
 3739TIP3    H211159   5.506   7.541   4.787
 3740TIP3   OH211160   3.662   6.195   4.327
 3740TIP3    H111161   3.569   6.213   4.339
 3740TIP3    H211162   3.676   6.111   4.369
 3741TIP3   OH211163   4.706   1.340   0.412
 3741TIP3    H111164   4.624   1.347   0.364
 3741TIP3    H211165   4.680   1.340   0.504
 3742TIP3   OH211166   6.915   3.385   5.797
 3742TIP3    H111167   6.974   3.333   5.853
 3742TIP3    H211168   6.932   3.476   5.821
 3743TIP3   OH211169   8.382   2.018   4.242
 3743TIP3    H111170   8.293   2.040   4.271
 3743TIP3    H211171   8.427   2.102   4.238
 3744TIP3   OH211172   7.097   7.675   2.473
 3744TIP3    H111173   7.149   7.599   2.499
 3744TIP3    H211174   7.030   7.683   2.540
 3745TIP3   OH211175   8.269   4.618   5.284
 3745TIP3    H111176   8.277   4.690   5.222
 3745TIP3    H211177   8.269   4.661   5.370
 3746TIP3   OH211178   2.583   5.060   6.616
 3746TIP3    H111179   2.677   5.077   6.618
 3746TIP3    H211180   2.543   5.146   6.601
 3747TIP3   OH211181   1.134   1.514   5.339
 3747TIP3    H111182   1.171   1.596   5.373
 3747TIP3    H211183   1.198   1.447   5.363
 3748TIP3   OH211184   6.293   7.390   3.357
 3748TIP3    H111185   6.383   7.356   3.351
 3748TIP3    H211186   6.263   7.394   3.266
 3749TIP3   OH211187   7.073   3.766   1.490
 3749TIP3    H111188   7.101   3.683   1.530
 3749TIP3    H211189   7.043   3.819   1.564
 3750TIP3   OH211190   3.915   6.876   1.130
 3750TIP3    H111191   3.964   6.797   1.107
 3750TIP3    H211192   3.824   6.848   1.135
 3751TIP3   OH211193   5.927   0.919   5.222
 3751TIP3    H111194   5.988   0.891   5.154
 3751TIP3    H211195   5.942   1.013   5.230
 3752TIP3   OH211196   4.826   0.717   6.414
 3752TIP3    H111197   4.874   0.640   6.445
 3752TIP3    H211198   4.843   0.784   6.481
 3753TIP3   OH211199   6.452   0.977   5.280
 3753TIP3    H111200   6.470   1.070   5.265
 3753TIP3    H211201   6.362   0.964   5.250
 3754TIP3   OH211202   3.064   5.361   1.919
 3754TIP3    H111203   3.082   5.405   2.002
 3754TIP3    H211204   3.146   5.364   1.872
 3755TIP3   OH211205   1.270   3.375   1.227
 3755TIP3    H111206   1.327   3.440   1.269
 3755TIP3    H211207   1.254   3.410   1.139
 3756TIP3   OH211208   4.070   2.413   0.819
 3756TIP3    H111209   4.128   2.449   0.886
 3756TIP3    H211210   3.988   2.461   0.831
 3757TIP3   OH211211   4.992   0.167   0.652
 3757TIP3    H111212   4.953   0.103   0.711
 3757TIP3    H211213   4.977   0.132   0.565
 3758TIP3   OH211214   7.998   2.931   1.309
 3758TIP3    H111215   8.038   2.929   1.396
 3758TIP3    H211216   7.947   3.011   1.308
 3759TIP3   OH211217   7.105   0.028   1.221
 3759TIP3    H111218   7.085   0.120   1.208
 3759TIP3    H211219   7.087  -0.013   1.137
 3760TIP3   OH211220   7.617   2.294   1.101
 3760TIP3    H111221   7.539   2.321   1.053
 3760TIP3    H211222   7.687   2.291   1.035
 3761TIP3   OH211223   3.818   2.046   1.207
 3761TIP3    H111224   3.888   2.083   1.154
 3761TIP3    H211225   3.756   2.119   1.220
 3762TIP3   OH211226   2.781   5.096   6.066
 3762TIP3    H111227   2.692   5.087   6.033
 3762TIP3    H211228   2.829   5.137   5.995
 3763TIP3   OH211229   3.753   5.434   6.817
 3763TIP3    H111230   3.765   5.431   6.912
 3763TIP3    H211231   3.661   5.458   6.805
 3764TIP3   OH211232   6.919   6.776   2.546
 3764TIP3    H111233   6.850   6.799   2.609
 3764TIP3    H211234   6.925   6.852   2.488
 3765TIP3   OH211235   2.127   0.707   0.118
 3765TIP3    H111236   2.034   0.689   0.105
 3765TIP3    H211237   2.172   0.627   0.090
 3766TIP3   OH211238   1.686   4.947   6.686
 3766TIP3    H111239   1.761   4.890   6.702
 3766TIP3    H211240   1.723   5.034   6.680
 3767TIP3   OH211241   5.305   4.935   1.965
 3767TIP3    H111242   5.387   4.980   1.942
 3767TIP3    H211243   5.236   4.999   1.948
 3768TIP3   OH211244   7.446   1.465   1.550
 3768TIP3    H111245   7.520   1.407   1.568
 3768TIP3    H211246   7.373   1.428   1.599
 3769TIP3   OH211247   4.242   6.970   0.699
 3769TIP3    H111248   4.336   6.969   0.718
 3769TIP3    H211249   4.214   7.058   0.721
 3770TIP3   OH211250   6.766   5.680   6.155
 3770TIP3    H111251   6.726   5.593   6.149
 3770TIP3    H211252   6.806   5.694   6.069
 3771TIP3   OH211253   2.567   5.665   0.089
 3771TIP3    H111254   2.654   5.699   0.110
 3771TIP3    H211255   2.533   5.726   0.023
 3772TIP3   OH211256   5.145   0.562   2.282
 3772TIP3    H111257   5.107   0.643   2.248
 3772TIP3    H211258   5.226   0.591   2.325
 3773TIP3   OH211259   0.565   7.066   5.382
 3773TIP3    H111260   0.490   7.075   5.441
 3773TIP3    H211261   0.534   7.008   5.312
 3774TIP3   OH211262   0.583   6.651   1.669
 3774TIP3    H111263   0.558   6.737   1.701
 3774TIP3    H211264   0.615   6.605   1.747
 3775TIP3   OH211265   3.308   5.778   4.582
 3775TIP3    H111266   3.359   5.784   4.501
 3775TIP3    H211267   3.346   5.845   4.638
 3776TIP3   OH211268   1.700   0.513   4.684
 3776TIP3    H111269   1.629   0.566   4.719
 3776TIP3    H211270   1.697   0.528   4.589
 3777TIP3   OH211271   8.208   2.124   0.333
 3777TIP3    H111272   8.137   2.177   0.370
 3777TIP3    H211273   8.257   2.094   0.410
 3778TIP3   OH211274   2.478   5.385   4.851
 3778TIP3    H111275   2.397   5.424   4.818
 3778TIP3    H211276   2.459   5.360   4.941
 3779TIP3   OH211277   7.800   4.080   5.230
 3779TIP3    H111278   7.724   4.129   5.261
 3779TIP3    H211279   7.864   4.147   5.205
 3780TIP3   OH211280   4.591   6.952   4.981
 3780TIP3    H111281   4.540   6.884   4.938
 3780TIP3    H211282   4.527   7.020   5.004
 3781TIP3   OH211283   6.210   1.700   4.683
 3781TIP3    H111284   6.301   1.708   4.712
 3781TIP3    H211285   6.161   1.753   4.746
 3782TIP3   OH211286   1.747   5.300   1.143
 3782TIP3    H111287   1.795   5.317   1.062
 3782TIP3    H211288   1.655   5.303   1.116
 3783TIP3   OH211289   3.100   3.157   4.279
 3783TIP3    H111290   3.127   3.067   4.294
 3783TIP3    H211291   3.136   3.205   4.354
 3784TIP3   OH211292   7.868   3.093   6.696
 3784TIP3    H111293   7.853   3.004   6.729
 3784TIP3    H211294   7.792   3.112   6.643
 3785TIP3   OH211295   6.161   7.110   4.249
 3785TIP3    H111296   6.178   7.016   4.249
 3785TIP3    H211297   6.069   7.118   4.273
 3786TIP3   OH211298   2.341   4.393   4.366
 3786TIP3    H111299   2.255   4.369   4.400
 3786TIP3    H211300   2.340   4.362   4.275
 3787TIP3   OH211301   0.588   2.773   5.760
 3787TIP3    H111302   0.501   2.734   5.771
 3787TIP3    H211303   0.581   2.858   5.804
 3788TIP3   OH211304   2.951   6.117   5.264
 3788TIP3    H111305   2.864   6.117   5.226
 3788TIP3    H211306   2.977   6.025   5.265
 3789TIP3   OH211307   6.207   3.889   0.837
 3789TIP3    H111308   6.117   3.886   0.802
 3789TIP3    H211309   6.214   3.975   0.878
 3790TIP3   OH211310   4.273   6.053   1.356
 3790TIP3    H111311   4.362   6.019   1.355
 3790TIP3    H211312   4.239   6.030   1.442
 3791TIP3   OH211313   2.020   5.053   4.983
 3791TIP3    H111314   2.112   5.032   4.968
 3791TIP3    H211315   1.972   4.987   4.934
 3792TIP3   OH211316   5.329   7.319   6.116
 3792TIP3    H111317   5.408   7.367   6.140
 3792TIP3    H211318   5.265   7.387   6.095
 3793TIP3   OH211319   0.348   5.023   2.122
 3793TIP3    H111320   0.352   5.118   2.134
 3793TIP3    H211321   0.308   4.991   2.203
 3794TIP3   OH211322   4.635   4.705   0.955
 3794TIP3    H111323   4.642   4.621   0.999
 3794TIP3    H211324   4.553   4.742   0.986
 3795TIP3   OH211325   1.299   6.462   3.333
 3795TIP3    H111326   1.297   6.386   3.276
 3795TIP3    H211327   1.230   6.519   3.301
 3796TIP3   OH211328   2.756   6.733   1.535
 3796TIP3    H111329   2.793   6.738   1.447
 3796TIP3    H211330   2.698   6.808   1.542
 3797TIP3   OH211331   5.411   5.133   5.585
 3797TIP3    H111332   5.332   5.168   5.544
 3797TIP3    H211333   5.480   5.193   5.558
 3798TIP3   OH211334   2.423   7.686   1.743
 3798TIP3    H111335   2.391   7.773   1.719
 3798TIP3    H211336   2.513   7.685   1.710
 3799TIP3   OH211337   7.449   1.440   5.339
 3799TIP3    H111338   7.418   1.360   5.383
 3799TIP3    H211339   7.370   1.475   5.297
 3800TIP3   OH211340   0.356   6.963   0.949
 3800TIP3    H111341   0.278   6.986   0.999
 3800TIP3    H211342   0.342   6.871   0.925
 3801TIP3   OH211343   5.059   4.023   2.441
 3801TIP3    H111344   4.980   3.968   2.441
 3801TIP3    H211345   5.115   3.985   2.374
 3802TIP3   OH211346   2.859   1.049   0.540
 3802TIP3    H111347   2.831   1.021   0.627
 3802TIP3    H211348   2.830   0.978   0.482
 3803TIP3   OH211349   1.642   4.759   0.140
 3803TIP3    H111350   1.700   4.687   0.162
 3803TIP3    H211351   1.622   4.747   0.048
 3804TIP3   OH211352   6.032   4.144   0.341
 3804TIP3    H111353   5.961   4.194   0.303
 3804TIP3    H211354   6.053   4.190   0.423
 3805TIP3   OH211355   7.296   1.829   6.784
 3805TIP3    H111356   7.343   1.865   6.709
 3805TIP3    H211357   7.226   1.892   6.801
 3806TIP3   OH211358   5.634   2.476   2.600
 3806TIP3    H111359   5.584   2.480   2.682
 3806TIP3    H211360   5.695   2.550   2.606
 3807TIP3   OH211361   8.329   1.103   5.328
 3807TIP3    H111362   8.275   1.047   5.385
 3807TIP3    H211363   8.298   1.192   5.345
 3808TIP3   OH211364   5.059   1.845   6.856
 3808TIP3    H111365   5.039   1.900   6.780
 3808TIP3    H211366   5.019   1.760   6.835
 3809TIP3   OH211367   0.199   4.677   3.267
 3809TIP3    H111368   0.115   4.639   3.295
 3809TIP3    H211369   0.185   4.699   3.174
 3810TIP3   OH211370   1.947   3.041   1.836
 3810TIP3    H111371   1.906   3.110   1.889
 3810TIP3    H211372   1.889   3.030   1.761
 3811TIP3   OH211373   7.316   0.569   0.586
 3811TIP3    H111374   7.285   0.479   0.580
 3811TIP3    H211375   7.410   0.564   0.568
 3812TIP3   OH211376   1.307   6.160   2.968
 3812TIP3    H111377   1.255   6.222   2.916
 3812TIP3    H211378   1.389   6.151   2.920
 3813TIP3   OH211379   4.999   5.105   5.227
 3813TIP3    H111380   4.951   5.034   5.185
 3813TIP3    H211381   4.932   5.162   5.263
 3814TIP3   OH211382   6.375   2.377   6.797
 3814TIP3    H111383   6.350   2.306   6.737
 3814TIP3    H211384   6.328   2.357   6.878
 3815TIP3   OH211385   3.221   0.988   3.387
 3815TIP3    H111386   3.248   1.025   3.303
 3815TIP3    H211387   3.242   0.895   3.380
 3816TIP3   OH211388   0.319   4.872   1.894
 3816TIP3    H111389   0.321   4.930   1.817
 3816TIP3    H211390   0.307   4.931   1.968
 3817TIP3   OH211391   3.992   6.238   1.444
 3817TIP3    H111392   4.043   6.285   1.378
 3817TIP3    H211393   4.024   6.272   1.528
 3818TIP3   OH211394   1.970   7.237   2.942
 3818TIP3    H111395   1.973   7.164   2.880
 3818TIP3    H211396   2.057   7.276   2.938
 3819TIP3   OH211397   0.621   6.417   1.540
 3819TIP3    H111398   0.635   6.510   1.556
 3819TIP3    H211399   0.567   6.388   1.613
 3820TIP3   OH211400   5.440   2.431   6.690
 3820TIP3    H111401   5.504   2.441   6.760
 3820TIP3    H211402   5.401   2.518   6.680
 3821TIP3   OH211403   5.373   4.560   5.843
 3821TIP3    H111404   5.343   4.562   5.934
 3821TIP3    H211405   5.402   4.650   5.826
 3822TIP3   OH211406   4.573   6.301   0.019
 3822TIP3    H111407   4.637   6.254   0.073
 3822TIP3    H211408   4.572   6.389   0.056
 3823TIP3   OH211409   5.420   0.107   3.728
 3823TIP3    H111410   5.358   0.179   3.729
 3823TIP3    H211411   5.502   0.145   3.756
 3824TIP3   OH211412   7.858   4.799   4.218
 3824TIP3    H111413   7.762   4.797   4.215
 3824TIP3    H211414   7.884   4.830   4.131
 3825TIP3   OH211415   2.435   0.931   2.406
 3825TIP3    H111416   2.525   0.924   2.372
 3825TIP3    H211417   2.409   1.021   2.386
 3826TIP3   OH211418   4.378   4.319   5.511
 3826TIP3    H111419   4.334   4.237   5.488
 3826TIP3    H211420   4.468   4.293   5.533
 3827TIP3   OH211421   5.275   0.615   3.801
 3827TIP3    H111422   5.314   0.647   3.720
 3827TIP3    H211423   5.350   0.593   3.856
 3828TIP3   OH211424   3.589   1.240   6.773
 3828TIP3    H111425   3.588   1.159   6.723
 3828TIP3    H211426   3.671   1.283   6.746
 3829TIP3   OH211427   1.664   3.663   3.115
 3829TIP3    H111428   1.574   3.630   3.117
 3829TIP3    H211429   1.656   3.756   3.138
 3830TIP3   OH211430   1.656   4.357   4.489
 3830TIP3    H111431   1.729   4.414   4.466
 3830TIP3    H211432   1.592   4.416   4.530
 3831TIP3   OH211433   1.362   0.583   3.037
 3831TIP3    H111434   1.270   0.604   3.049
 3831TIP3    H211435   1.400   0.591   3.124
 3832TIP3   OH211436   2.933   5.068   5.719
 3832TIP3    H111437   2.921   5.109   5.633
 3832TIP3    H211438   2.958   4.978   5.699
 3833TIP3   OH211439   7.501   0.762   5.526
 3833TIP3    H111440   7.505   0.813   5.607
 3833TIP3    H211441   7.517   0.826   5.456
 3834TIP3   OH211442   4.215   1.804   2.420
 3834TIP3    H111443   4.166   1.855   2.356
 3834TIP3    H211444   4.152   1.739   2.452
 3835TIP3   OH211445   7.508   1.121   4.612
 3835TIP3    H111446   7.507   1.179   4.688
 3835TIP3    H211447   7.474   1.038   4.645
 3836TIP3   OH211448   1.359   1.969   4.432
 3836TIP3    H111449   1.291   1.905   4.409
 3836TIP3    H211450   1.436   1.916   4.454
 3837TIP3   OH211451   4.387   4.730   5.075
 3837TIP3    H111452   4.411   4.823   5.065
 3837TIP3    H211453   4.462   4.682   5.040
 3838TIP3   OH211454   1.034   4.789   3.598
 3838TIP3    H111455   0.989   4.743   3.527
 3838TIP3    H211456   1.121   4.807   3.564
 3839TIP3   OH211457   6.161   2.838   2.151
 3839TIP3    H111458   6.191   2.923   2.182
 3839TIP3    H211459   6.225   2.776   2.185
 3840TIP3   OH211460   7.958   6.696   6.172
 3840TIP3    H111461   7.942   6.676   6.080
 3840TIP3    H211462   8.041   6.743   6.173
 3841TIP3   OH211463   7.522   0.545   1.620
 3841TIP3    H111464   7.525   0.465   1.673
 3841TIP3    H211465   7.503   0.515   1.531
 3842TIP3   OH211466   6.092   0.290   3.935
 3842TIP3    H111467   6.062   0.378   3.961
 3842TIP3    H211468   6.090   0.240   4.017
 3843TIP3   OH211469   6.393   3.405   0.281
 3843TIP3    H111470   6.328   3.455   0.331
 3843TIP3    H211471   6.437   3.470   0.226
 3844TIP3   OH211472   1.314   0.668   5.967
 3844TIP3    H111473   1.349   0.717   5.893
 3844TIP3    H211474   1.376   0.685   6.038
 3845TIP3   OH211475   8.355   4.393   6.143
 3845TIP3    H111476   8.295   4.364   6.212
 3845TIP3    H211477   8.361   4.318   6.083
 3846TIP3   OH211478   4.623   7.457   3.630
 3846TIP3    H111479   4.707   7.433   3.671
 3846TIP3    H211480   4.559   7.399   3.671
 3847TIP3   OH211481   3.635   1.657   0.274
 3847TIP3    H111482   3.639   1.576   0.326
 3847TIP3    H211483   3.727   1.678   0.257
 3848TIP3   OH211484   0.739   7.353   0.687
 3848TIP3    H111485   0.655   7.361   0.732
 3848TIP3    H211486   0.726   7.400   0.604
 3849TIP3   OH211487   1.572   7.530   3.365
 3849TIP3    H111488   1.564   7.620   3.333
 3849TIP3    H211489   1.607   7.539   3.454
 3850TIP3   OH211490   4.735   5.181   6.641
 3850TIP3    H111491   4.737   5.153   6.732
 3850TIP3    H211492   4.643   5.173   6.615
 3851TIP3   OH211493   7.915   6.701   2.299
 3851TIP3    H111494   7.944   6.758   2.370
 3851TIP3    H211495   7.921   6.612   2.334
 3852TIP3   OH211496   2.292   2.640   4.519
 3852TIP3    H111497   2.271   2.691   4.598
 3852TIP3    H211498   2.383   2.664   4.500
 3853TIP3   OH211499   1.854   2.378   4.033
 3853TIP3    H111500   1.901   2.328   3.966
 3853TIP3    H211501   1.806   2.444   3.984
 3854TIP3   OH211502   1.823   1.638   4.138
 3854TIP3    H111503   1.791   1.656   4.049
 3854TIP3    H211504   1.904   1.590   4.125
 3855TIP3   OH211505   4.623   3.805   4.759
 3855TIP3    H111506   4.705   3.848   4.737
 3855TIP3    H211507   4.580   3.790   4.674
 3856TIP3   OH211508   6.163   5.804   5.513
 3856TIP3    H111509   6.129   5.792   5.424
 3856TIP3    H211510   6.256   5.783   5.506
 3857TIP3   OH211511   7.277   6.274   2.115
 3857TIP3    H111512   7.311   6.338   2.052
 3857TIP3    H211513   7.232   6.327   2.181
 3858TIP3   OH211514   4.011   6.311   3.963
 3858TIP3    H111515   4.072   6.351   3.902
 3858TIP3    H211516   3.986   6.382   4.022
 3859TIP3   OH211517   1.053   5.893   5.254
 3859TIP3    H111518   1.111   5.965   5.280
 3859TIP3    H211519   0.999   5.929   5.184
 3860TIP3   OH211520   4.495   2.072   1.953
 3860TIP3    H111521   4.494   2.066   2.049
 3860TIP3    H211522   4.491   1.981   1.923
 3861TIP3   OH211523   0.228   3.256   3.504
 3861TIP3    H111524   0.307   3.294   3.465
 3861TIP3    H211525   0.261   3.208   3.580
 3862TIP3   OH211526   0.613   4.453   1.830
 3862TIP3    H111527   0.584   4.536   1.869
 3862TIP3    H211528   0.708   4.461   1.825
 3863TIP3   OH211529   5.415   5.123   0.673
 3863TIP3    H111530   5.370   5.160   0.749
 3863TIP3    H211531   5.508   5.140   0.690
 3864TIP3   OH211532   2.170   5.887   4.658
 3864TIP3    H111533   2.265   5.877   4.667
 3864TIP3    H211534   2.146   5.952   4.725
 3865TIP3   OH211535   4.884   2.438   0.737
 3865TIP3    H111536   4.962   2.382   0.729
 3865TIP3    H211537   4.872   2.474   0.649
 3866TIP3   OH211538   3.905   3.320   0.394
 3866TIP3    H111539   3.895   3.225   0.392
 3866TIP3    H211540   3.928   3.343   0.305
 3867TIP3   OH211541   3.989   6.170   6.643
 3867TIP3    H111542   3.986   6.185   6.548
 3867TIP3    H211543   4.020   6.080   6.652
 3868TIP3   OH211544   1.672   7.759   0.721
 3868TIP3    H111545   1.750   7.721   0.760
 3868TIP3    H211546   1.613   7.774   0.795
 3869TIP3   OH211547   0.647   0.302   2.876
 3869TIP3    H111548   0.713   0.292   2.808
 3869TIP3    H211549   0.572   0.340   2.832
 3870TIP3   OH211550   6.739   1.781   2.690
 3870TIP3    H111551   6.664   1.722   2.700
 3870TIP3    H211552   6.762   1.775   2.597
 3871TIP3   OH211553   4.696   2.688   3.249
 3871TIP3    H111554   4.660   2.771   3.281
 3871TIP3    H211555   4.703   2.700   3.154
 3872TIP3   OH211556   2.917   1.470   2.819
 3872TIP3    H111557   2.971   1.415   2.763
 3872TIP3    H211558   2.885   1.539   2.761
 3873TIP3   OH211559   7.425   4.838   6.273
 3873TIP3    H111560   7.456   4.831   6.182
 3873TIP3    H211561   7.435   4.931   6.294
 3874TIP3   OH211562   4.421   5.612   1.818
 3874TIP3    H111563   4.374   5.645   1.895
 3874TIP3    H211564   4.353   5.582   1.758
 3875TIP3   OH211565   2.765   2.674   0.071
 3875TIP3    H111566   2.791   2.628   0.151
 3875TIP3    H211567   2.846   2.680   0.020
 3876TIP3   OH211568   5.937   5.093   5.857
 3876TIP3    H111569   5.987   5.065   5.934
 3876TIP3    H211570   5.988   5.165   5.821
 3877TIP3   OH211571   5.840   6.955   6.739
 3877TIP3    H111572   5.790   7.035   6.730
 3877TIP3    H211573   5.817   6.921   6.825
 3878TIP3   OH211574   7.430   4.816   5.628
 3878TIP3    H111575   7.439   4.723   5.647
 3878TIP3    H211576   7.496   4.833   5.561
 3879TIP3   OH211577   8.070   6.837   2.062
 3879TIP3    H111578   8.152   6.811   2.106
 3879TIP3    H211579   8.004   6.832   2.131
 3880TIP3   OH211580   2.124   7.521   6.028
 3880TIP3    H111581   2.092   7.585   6.091
 3880TIP3    H211582   2.211   7.497   6.061
 3881TIP3   OH211583   5.234   6.538   4.542
 3881TIP3    H111584   5.141   6.556   4.528
 3881TIP3    H211585   5.280   6.614   4.504
 3882TIP3   OH211586   6.643   1.718   3.914
 3882TIP3    H111587   6.602   1.688   3.995
 3882TIP3    H211588   6.588   1.792   3.886
 3883TIP3   OH211589   3.411   4.575   4.171
 3883TIP3    H111590   3.434   4.513   4.102
 3883TIP3    H211591   3.402   4.521   4.250
 3884TIP3   OH211592   0.561   1.498   3.963
 3884TIP3    H111593   0.637   1.480   4.017
 3884TIP3    H211594   0.595   1.552   3.891
 3885TIP3   OH211595   5.360   3.746   5.083
 3885TIP3    H111596   5.422   3.760   5.012
 3885TIP3    H211597   5.287   3.805   5.065
 3886TIP3   OH211598   4.130   7.607   1.257
 3886TIP3    H111599   4.117   7.520   1.296
 3886TIP3    H211600   4.114   7.668   1.330
 3887TIP3   OH211601   7.570   5.112   0.944
 3887TIP3    H111602   7.666   5.119   0.951
 3887TIP3    H211603   7.552   5.019   0.954
 3888TIP3   OH211604   8.382   1.225   5.850
 3888TIP3    H111605   8.307   1.192   5.800
 3888TIP3    H211606   8.424   1.145   5.884
 3889TIP3   OH211607   4.914   6.110   0.010
 3889TIP3    H111608   4.974   6.183  -0.009
 3889TIP3    H211609   4.865   6.139   0.087
 3890TIP3   OH211610   3.820   5.453   3.158
 3890TIP3    H111611   3.877   5.458   3.081
 3890TIP3    H211612   3.869   5.401   3.221
 3891TIP3   OH211613   4.880   7.273   6.093
 3891TIP3    H111614   4.908   7.247   6.181
 3891TIP3    H211615   4.787   7.293   6.103
 3892TIP3   OH211616   6.667   4.592   1.001
 3892TIP3    H111617   6.647   4.676   1.040
 3892TIP3    H211618   6.715   4.613   0.921
 3893TIP3   OH211619   0.642   3.354   2.305
 3893TIP3    H111620   0.699   3.295   2.354
 3893TIP3    H211621   0.570   3.299   2.275
 3894TIP3   OH211622   0.762   7.595   0.548
 3894TIP3    H111623   0.834   7.589   0.610
 3894TIP3    H211624   0.775   7.680   0.505
 3895TIP3   OH211625   3.890   1.185   3.457
 3895TIP3    H111626   3.874   1.264   3.406
 3895TIP3    H211627   3.951   1.133   3.405
 3896TIP3   OH211628   0.057   0.531   4.242
 3896TIP3    H111629   0.012   0.615   4.253
 3896TIP3    H211630  -0.004   0.466   4.277
 3897TIP3   OH211631   6.932   2.537   2.090
 3897TIP3    H111632   6.842   2.530   2.060
 3897TIP3    H211633   6.926   2.579   2.175
 3898TIP3   OH211634   6.038   0.843   4.164
 3898TIP3    H111635   6.090   0.801   4.096
 3898TIP3    H211636   6.101   0.896   4.213
 3899TIP3   OH211637   8.227   3.308   0.717
 3899TIP3    H111638   8.196   3.226   0.756
 3899TIP3    H211639   8.262   3.358   0.791
 3900TIP3   OH211640   2.845   1.975   3.932
 3900TIP3    H111641   2.771   1.917   3.915
 3900TIP3    H211642   2.815   2.033   4.002
 3901TIP3   OH211643   3.488   4.979   1.410
 3901TIP3    H111644   3.526   4.963   1.324
 3901TIP3    H211645   3.410   4.923   1.413
 3902TIP3   OH211646   8.267   1.878   4.050
 3902TIP3    H111647   8.192   1.929   4.021
 3902TIP3    H211648   8.312   1.934   4.113
 3903TIP3   OH211649   3.641   6.387   3.772
 3903TIP3    H111650   3.566   6.427   3.816
 3903TIP3    H211651   3.691   6.345   3.842
 3904TIP3   OH211652   7.636   0.449   0.077
 3904TIP3    H111653   7.545   0.446   0.107
 3904TIP3    H211654   7.655   0.542   0.068
 3905TIP3   OH211655   6.279   1.711   2.532
 3905TIP3    H111656   6.253   1.799   2.506
 3905TIP3    H211657   6.369   1.721   2.564
 3906TIP3   OH211658   5.257   2.899   2.416
 3906TIP3    H111659   5.238   2.963   2.484
 3906TIP3    H211660   5.172   2.882   2.375
 3907TIP3   OH211661   2.140   2.814   6.347
 3907TIP3    H111662   2.110   2.877   6.282
 3907TIP3    H211663   2.071   2.814   6.413
 3908TIP3   OH211664   1.448   2.202   0.793
 3908TIP3    H111665   1.438   2.255   0.872
 3908TIP3    H211666   1.375   2.229   0.737
 3909TIP3   OH211667   3.513   2.190   5.627
 3909TIP3    H111668   3.552   2.267   5.668
 3909TIP3    H211669   3.464   2.225   5.552
 3910TIP3   OH211670   7.695   7.753   6.660
 3910TIP3    H111671   7.716   7.843   6.637
 3910TIP3    H211672   7.647   7.760   6.743
 3911TIP3   OH211673   0.646   0.614   4.372
 3911TIP3    H111674   0.653   0.520   4.357
 3911TIP3    H211675   0.700   0.654   4.304
 3912TIP3   OH211676   2.341   4.865   5.790
 3912TIP3    H111677   2.324   4.910   5.873
 3912TIP3    H211678   2.388   4.785   5.814
 3913TIP3   OH211679   7.692   1.721   4.244
 3913TIP3    H111680   7.693   1.726   4.339
 3913TIP3    H211681   7.766   1.774   4.215
 3914TIP3   OH211682   0.922   6.207   3.974
 3914TIP3    H111683   0.962   6.256   3.903
 3914TIP3    H211684   0.976   6.128   3.983
 3915TIP3   OH211685   6.818   3.190   1.988
 3915TIP3    H111686   6.757   3.196   2.062
 3915TIP3    H211687   6.904   3.185   2.029
 3916TIP3   OH211688   2.364   1.106   1.314
 3916TIP3    H111689   2.336   1.051   1.387
 3916TIP3    H211690   2.295   1.095   1.249
 3917TIP3   OH211691   2.646   1.371   4.703
 3917TIP3    H111692   2.590   1.436   4.660
 3917TIP3    H211693   2.703   1.423   4.760
 3918TIP3   OH211694   7.423   4.982   2.947
 3918TIP3    H111695   7.347   5.000   3.002
 3918TIP3    H211696   7.413   4.890   2.922
 3919TIP3   OH211697   4.561   6.757   0.498
 3919TIP3    H111698   4.549   6.753   0.403
 3919TIP3    H211699   4.582   6.848   0.516
 3920TIP3   OH211700   3.682   6.892   5.587
 3920TIP3    H111701   3.624   6.854   5.521
 3920TIP3    H211702   3.631   6.890   5.668
 3921TIP3   OH211703   3.341   1.749   4.073
 3921TIP3    H111704   3.256   1.786   4.050
 3921TIP3    H211705   3.334   1.656   4.048
 3922TIP3   OH211706   4.365   0.759   2.638
 3922TIP3    H111707   4.345   0.682   2.691
 3922TIP3    H211708   4.309   0.750   2.560
 3923TIP3   OH211709   6.986   7.221   6.491
 3923TIP3    H111710   7.036   7.139   6.491
 3923TIP3    H211711   7.053   7.289   6.491
 3924TIP3   OH211712   5.850   3.349   4.078
 3924TIP3    H111713   5.858   3.279   4.014
 3924TIP3    H211714   5.921   3.410   4.057
 3925TIP3   OH211715   4.359   1.470   2.463
 3925TIP3    H111716   4.330   1.405   2.399
 3925TIP3    H211717   4.364   1.423   2.546
 3926TIP3   OH211718   7.978   0.777   0.300
 3926TIP3    H111719   7.953   0.868   0.314
 3926TIP3    H211720   8.073   0.781   0.284
 3927TIP3   OH211721   1.452   3.968   1.750
 3927TIP3    H111722   1.393   3.939   1.820
 3927TIP3    H211723   1.516   3.896   1.742
 3928TIP3   OH211724   6.693   1.392   2.783
 3928TIP3    H111725   6.732   1.320   2.831
 3928TIP3    H211726   6.696   1.364   2.691
 3929TIP3   OH211727   7.951   3.946   6.328
 3929TIP3    H111728   7.855   3.945   6.333
 3929TIP3    H211729   7.972   4.025   6.278
 3930TIP3   OH211730   4.099   7.135   2.653
 3930TIP3    H111731   4.056   7.070   2.597
 3930TIP3    H211732   4.130   7.086   2.729
 3931TIP3   OH211733   1.069   3.607   0.378
 3931TIP3    H111734   0.979   3.583   0.354
 3931TIP3    H211735   1.112   3.523   0.397
 3932TIP3   OH211736   8.190   4.128   5.173
 3932TIP3    H111737   8.098   4.152   5.168
 3932TIP3    H211738   8.235   4.210   5.196
 3933TIP3   OH211739   3.821   1.322   0.245
 3933TIP3    H111740   3.901   1.368   0.272
 3933TIP3    H211741   3.774   1.306   0.326
 3934TIP3   OH211742   3.281   3.719   4.438
 3934TIP3    H111743   3.364   3.689   4.476
 3934TIP3    H211744   3.252   3.647   4.382
 3935TIP3   OH211745   1.538   3.902   0.752
 3935TIP3    H111746   1.592   3.980   0.739
 3935TIP3    H211747   1.469   3.930   0.811
 3936TIP3   OH211748   1.382   6.024   4.224
 3936TIP3    H111749   1.471   6.030   4.257
 3936TIP3    H211750   1.327   6.021   4.302
 3937TIP3   OH211751   5.854   6.571   1.308
 3937TIP3    H111752   5.804   6.624   1.245
 3937TIP3    H211753   5.904   6.510   1.254
 3938TIP3   OH211754   8.135   3.871   4.223
 3938TIP3    H111755   8.169   3.806   4.285
 3938TIP3    H211756   8.042   3.849   4.213
 3939TIP3   OH211757   1.497   2.837   1.295
 3939TIP3    H111758   1.584   2.868   1.274
 3939TIP3    H211759   1.448   2.916   1.318
 3940TIP3   OH211760   8.029   3.650   5.045
 3940TIP3    H111761   7.975   3.578   5.079
 3940TIP3    H211762   8.047   3.625   4.954
 3941TIP3   OH211763   1.248   2.025   0.493
 3941TIP3    H111764   1.180   2.004   0.429
 3941TIP3    H211765   1.207   2.007   0.578
 3942TIP3   OH211766   5.695   0.135   5.953
 3942TIP3    H111767   5.741   0.052   5.966
 3942TIP3    H211768   5.693   0.147   5.858
 3943TIP3   OH211769   5.807   4.102   5.438
 3943TIP3    H111770   5.869   4.049   5.389
 3943TIP3    H211771   5.721   4.073   5.407
 3944TIP3   OH211772   8.252   0.837   5.874
 3944TIP3    H111773   8.194   0.761   5.872
 3944TIP3    H211774   8.194   0.912   5.859
 3945TIP3   OH211775   7.927   3.111   4.188
 3945TIP3    H111776   7.852   3.171   4.184
 3945TIP3    H211777   7.981   3.135   4.113
 3946TIP3   OH211778   1.038   5.136   6.370
 3946TIP3    H111779   0.954   5.091   6.378
 3946TIP3    H211780   1.094   5.094   6.436
 3947TIP3   OH211781   7.413   1.179   4.098
 3947TIP3    H111782   7.416   1.116   4.026
 3947TIP3    H211783   7.392   1.263   4.056
 3948TIP3   OH211784   4.337   3.490   1.034
 3948TIP3    H111785   4.339   3.406   1.079
 3948TIP3    H211786   4.251   3.492   0.992
 3949TIP3   OH211787   0.848   1.133   4.658
 3949TIP3    H111788   0.779   1.169   4.713
 3949TIP3    H211789   0.928   1.142   4.710
 3950TIP3   OH211790   6.152   1.549   2.733
 3950TIP3    H111791   6.222   1.537   2.797
 3950TIP3    H211792   6.183   1.619   2.676
 3951TIP3   OH211793   5.780   0.860   0.389
 3951TIP3    H111794   5.859   0.812   0.362
 3951TIP3    H211795   5.751   0.905   0.310
 3952TIP3   OH211796   0.975   7.277   2.270
 3952TIP3    H111797   1.033   7.210   2.308
 3952TIP3    H211798   1.017   7.360   2.293
 3953TIP3   OH211799   7.594   4.677   2.103
 3953TIP3    H111800   7.499   4.685   2.093
 3953TIP3    H211801   7.608   4.584   2.121
 3954TIP3   OH211802   3.700   7.576   3.063
 3954TIP3    H111803   3.722   7.639   2.994
 3954TIP3    H211804   3.701   7.491   3.018
 3955TIP3   OH211805   6.141   4.648   5.310
 3955TIP3    H111806   6.143   4.740   5.335
 3955TIP3    H211807   6.161   4.601   5.391
 3956TIP3   OH211808   8.121   1.073   5.902
 3956TIP3    H111809   8.105   1.119   5.819
 3956TIP3    H211810   8.196   1.118   5.940
 3957TIP3   OH211811   6.953   2.195   3.856
 3957TIP3    H111812   7.030   2.246   3.831
 3957TIP3    H211813   6.959   2.186   3.951
 3958TIP3   OH211814   4.633   3.631   5.094
 3958TIP3    H111815   4.644   3.615   5.188
 3958TIP3    H211816   4.613   3.544   5.057
 3959TIP3   OH211817   5.097   6.747   5.263
 3959TIP3    H111818   5.177   6.710   5.227
 3959TIP3    H211819   5.118   6.839   5.282
 3960TIP3   OH211820   7.550   0.601   3.231
 3960TIP3    H111821   7.644   0.603   3.215
 3960TIP3    H211822   7.529   0.508   3.239
 3961TIP3   OH211823   7.479   5.573   5.530
 3961TIP3    H111824   7.390   5.602   5.553
 3961TIP3    H211825   7.478   5.567   5.434
 3962TIP3   OH211826   0.912   3.961   2.136
 3962TIP3    H111827   0.983   3.924   2.083
 3962TIP3    H211828   0.842   3.896   2.129
 3963TIP3   OH211829   2.720   6.202   6.185
 3963TIP3    H111830   2.696   6.147   6.260
 3963TIP3    H211831   2.815   6.211   6.191
 3964TIP3   OH211832   3.755   4.497   6.742
 3964TIP3    H111833   3.716   4.506   6.829
 3964TIP3    H211834   3.829   4.437   6.755
 3965TIP3   OH211835   6.603   4.896   0.044
 3965TIP3    H111836   6.636   4.856  -0.036
 3965TIP3    H211837   6.639   4.985   0.043
 3966TIP3   OH211838   3.745   5.968   2.435
 3966TIP3    H111839   3.679   6.022   2.478
 3966TIP3    H211840   3.756   6.007   2.348
 3967TIP3   OH211841   0.227   7.211   1.320
 3967TIP3    H111842   0.183   7.288   1.286
 3967TIP3    H211843   0.266   7.169   1.243
 3968TIP3   OH211844   0.941   5.645   5.835
 3968TIP3    H111845   0.896   5.682   5.911
 3968TIP3    H211846   0.912   5.699   5.761
 3969TIP3   OH211847   3.048   5.522   3.385
 3969TIP3    H111848   3.062   5.616   3.395
 3969TIP3    H211849   3.035   5.510   3.291
 3970TIP3   OH211850   6.929   2.666   4.877
 3970TIP3    H111851   6.987   2.709   4.939
 3970TIP3    H211852   6.985   2.643   4.803
 3971TIP3   OH211853   7.656   5.543   1.959
 3971TIP3    H111854   7.698   5.525   2.043
 3971TIP3    H211855   7.638   5.456   1.922
 3972TIP3   OH211856   0.087   1.629   0.132
 3972TIP3    H111857   0.173   1.598   0.103
 3972TIP3    H211858   0.062   1.568   0.201
 3973TIP3   OH211859   4.187   6.199   4.910
 3973TIP3    H111860   4.144   6.152   4.981
 3973TIP3    H211861   4.185   6.138   4.836
 3974TIP3   OH211862   0.014   7.407   6.207
 3974TIP3    H111863   0.088   7.416   6.147
 3974TIP3    H211864  -0.018   7.318   6.192
 3975TIP3   OH211865   4.307   4.753   1.435
 3975TIP3    H111866   4.213   4.741   1.444
 3975TIP3    H211867   4.345   4.671   1.465
 3976TIP3   OH211868   0.588   3.133   5.285
 3976TIP3    H111869   0.519   3.168   5.228
 3976TIP3    H211870   0.597   3.199   5.354
 3977TIP3   OH211871   7.435   2.267   2.278
 3977TIP3    H111872   7.439   2.222   2.194
 3977TIP3    H211873   7.524   2.299   2.292
 3978TIP3   OH211874   5.941   4.385   5.208
 3978TIP3    H111875   5.863   4.330   5.201
 3978TIP3    H211876   5.952   4.398   5.302
 3979TIP3   OH211877   1.276   5.347   1.167
 3979TIP3    H111878   1.260   5.253   1.169
 3979TIP3    H211879   1.329   5.364   1.246
 3980TIP3   OH211880   6.725   3.633   2.637
 3980TIP3    H111881   6.680   3.675   2.564
 3980TIP3    H211882   6.811   3.677   2.641
 3981TIP3   OH211883   7.478   1.475   4.520
 3981TIP3    H111884   7.564   1.495   4.558
 3981TIP3    H211885   7.493   1.395   4.470
 3982TIP3   OH211886   6.285   0.548   3.899
 3982TIP3    H111887   6.359   0.609   3.896
 3982TIP3    H211888   6.304   0.485   3.829
 3983TIP3   OH211889   5.956   4.565   2.959
 3983TIP3    H111890   5.973   4.636   2.897
 3983TIP3    H211891   5.947   4.487   2.905
 3984TIP3   OH211892   2.478   7.180   0.340
 3984TIP3    H111893   2.504   7.089   0.358
 3984TIP3    H211894   2.561   7.227   0.335
 3985TIP3   OH211895   7.795   1.910   3.407
 3985TIP3    H111896   7.761   1.847   3.471
 3985TIP3    H211897   7.729   1.911   3.337
 3986TIP3   OH211898   0.170   4.907   1.489
 3986TIP3    H111899   0.147   4.969   1.558
 3986TIP3    H211900   0.098   4.913   1.426
 3987TIP3   OH211901   6.366   5.315   2.836
 3987TIP3    H111902   6.419   5.395   2.843
 3987TIP3    H211903   6.414   5.260   2.773
 3988TIP3   OH211904   0.504   3.454   1.876
 3988TIP3    H111905   0.526   3.361   1.886
 3988TIP3    H211906   0.525   3.493   1.960
 3989TIP3   OH211907   5.739   1.483   5.514
 3989TIP3    H111908   5.705   1.509   5.428
 3989TIP3    H211909   5.825   1.525   5.520
 3990TIP3   OH211910   4.644   3.268   5.675
 3990TIP3    H111911   4.556   3.304   5.683
 3990TIP3    H211912   4.630   3.173   5.672
 3991TIP3   OH211913   0.177   0.433   2.810
 3991TIP3    H111914   0.140   0.374   2.876
 3991TIP3    H211915   0.101   0.473   2.768
 3992TIP3   OH211916   8.185   5.563   0.361
 3992TIP3    H111917   8.141   5.642   0.391
 3992TIP3    H211918   8.157   5.495   0.422
 3993TIP3   OH211919   5.888   2.585   3.700
 3993TIP3    H111920   5.873   2.586   3.795
 3993TIP3    H211921   5.929   2.500   3.683
 3994TIP3   OH211922   7.269   2.543   3.109
 3994TIP3    H111923   7.198   2.478   3.112
 3994TIP3    H211924   7.255   2.596   3.188
 3995TIP3   OH211925   1.812   5.712   5.138
 3995TIP3    H111926   1.898   5.698   5.177
 3995TIP3    H211927   1.812   5.804   5.111
 3996TIP3   OH211928   3.866   1.270   4.909
 3996TIP3    H111929   3.784   1.231   4.939
 3996TIP3    H211930   3.881   1.344   4.967
 3997TIP3   OH211931   1.558   4.783   2.750
 3997TIP3    H111932   1.588   4.806   2.662
 3997TIP3    H211933   1.469   4.816   2.755
 3998TIP3   OH211934   5.750   1.522   4.682
 3998TIP3    H111935   5.839   1.514   4.647
 3998TIP3    H211936   5.697   1.547   4.607
 3999TIP3   OH211937   7.965   1.239   5.343
 3999TIP3    H111938   7.960   1.241   5.247
 3999TIP3    H211939   8.040   1.294   5.364
 4000TIP3   OH211940   1.197   0.298   1.752
 4000TIP3    H111941   1.138   0.273   1.681
 4000TIP3    H211942   1.139   0.325   1.824
 4001TIP3   OH211943   5.600   5.203   6.527
 4001TIP3    H111944   5.652   5.207   6.447
 4001TIP3    H211945   5.545   5.282   6.524
 4002TIP3   OH211946   6.635   6.945   2.350
 4002TIP3    H111947   6.561   6.885   2.356
 4002TIP3    H211948   6.615   7.014   2.414
 4003TIP3   OH211949   7.349   5.617   6.015
 4003TIP3    H111950   7.405   5.586   5.943
 4003TIP3    H211951   7.411   5.651   6.080
 4004TIP3   OH211952   7.646   0.227   6.604
 4004TIP3    H111953   7.704   0.159   6.571
 4004TIP3    H211954   7.569   0.223   6.547
 4005TIP3   OH211955   5.209   5.954   5.084
 4005TIP3    H111956   5.302   5.964   5.104
 4005TIP3    H211957   5.165   5.954   5.169
 4006TIP3   OH211958   1.318   7.415   1.251
 4006TIP3    H111959   1.247   7.357   1.275
 4006TIP3    H211960   1.396   7.373   1.287
 4007TIP3   OH211961   6.205   7.002   6.231
 4007TIP3    H111962   6.238   7.010   6.141
 4007TIP3    H211963   6.112   6.985   6.221
 4008TIP3   OH211964   0.949   2.550   2.932
 4008TIP3    H111965   1.017   2.618   2.931
 4008TIP3    H211966   0.867   2.598   2.926
 4009TIP3   OH211967   5.516   5.240   1.955
 4009TIP3    H111968   5.578   5.173   1.985
 4009TIP3    H211969   5.569   5.320   1.947
 4010TIP3   OH211970   1.967   2.270   0.937
 4010TIP3    H111971   2.062   2.267   0.937
 4010TIP3    H211972   1.944   2.315   1.018
 4011TIP3   OH211973   3.493   0.700   3.637
 4011TIP3    H111974   3.502   0.795   3.639
 4011TIP3    H211975   3.469   0.680   3.546
 4012TIP3   OH211976   5.588   5.146   2.291
 4012TIP3    H111977   5.521   5.206   2.258
 4012TIP3    H211978   5.546   5.061   2.295
 4013TIP3   OH211979   1.822   1.923   1.754
 4013TIP3    H111980   1.781   1.928   1.668
 4013TIP3    H211981   1.820   2.013   1.786
 4014TIP3   OH211982   4.450   2.139   3.941
 4014TIP3    H111983   4.359   2.120   3.961
 4014TIP3    H211984   4.459   2.233   3.957
 4015TIP3   OH211985   2.219   3.777   5.406
 4015TIP3    H111986   2.129   3.801   5.429
 4015TIP3    H211987   2.226   3.685   5.429
 4016TIP3   OH211988   8.201   3.668   2.663
 4016TIP3    H111989   8.276   3.631   2.616
 4016TIP3    H211990   8.240   3.722   2.732
 4017TIP3   OH211991   8.169   4.755   4.838
 4017TIP3    H111992   8.089   4.801   4.813
 4017TIP3    H211993   8.212   4.734   4.755
 4018TIP3   OH211994   1.494   0.591   4.852
 4018TIP3    H111995   1.456   0.641   4.925
 4018TIP3    H211996   1.421   0.577   4.792
 4019TIP3   OH211997   4.620   2.428   1.467
 4019TIP3    H111998   4.642   2.398   1.555
 4019TIP3    H211999   4.530   2.398   1.454
 4020TIP3   OH212000   0.166   0.830   3.673
 4020TIP3    H112001   0.210   0.832   3.588
 4020TIP3    H212002   0.220   0.887   3.728
 4021TIP3   OH212003   8.183   3.973   1.043
 4021TIP3    H112004   8.199   3.898   0.986
 4021TIP3    H212005   8.213   3.945   1.129
 4022TIP3   OH212006   2.314   6.679   6.015
 4022TIP3    H112007   2.287   6.737   6.086
 4022TIP3    H212008   2.401   6.710   5.990
 4023TIP3   OH212009   6.638   7.587   0.652
 4023TIP3    H112010   6.679   7.655   0.600
 4023TIP3    H212011   6.701   7.515   0.652
 4024TIP3   OH212012   8.044   1.103   2.741
 4024TIP3    H112013   7.968   1.119   2.685
 4024TIP3    H212014   8.034   1.165   2.813
 4025TIP3   OH212015   7.401   3.788   5.502
 4025TIP3    H112016   7.405   3.785   5.407
 4025TIP3    H212017   7.310   3.769   5.523
 4026TIP3   OH212018   7.960   3.131   1.595
 4026TIP3    H112019   7.996   3.185   1.666
 4026TIP3    H212020   7.866   3.148   1.597
 4027TIP3   OH212021   7.306   1.266   1.724
 4027TIP3    H112022   7.380   1.279   1.784
 4027TIP3    H212023   7.318   1.178   1.690
 4028TIP3   OH212024   8.312   7.402   3.212
 4028TIP3    H112025   8.378   7.465   3.239
 4028TIP3    H212026   8.265   7.445   3.141
 4029TIP3   OH212027   2.931   6.494   2.914
 4029TIP3    H112028   2.856   6.478   2.972
 4029TIP3    H212029   2.924   6.428   2.846
 4030TIP3   OH212030   3.852   2.017   1.641
 4030TIP3    H112031   3.934   1.974   1.618
 4030TIP3    H212032   3.811   1.960   1.706
 4031TIP3   OH212033   0.281   1.969   1.508
 4031TIP3    H112034   0.302   1.968   1.415
 4031TIP3    H212035   0.218   2.041   1.518
 4032TIP3   OH212036   6.475   3.271   4.957
 4032TIP3    H112037   6.402   3.331   4.943
 4032TIP3    H212038   6.546   3.326   4.991
 4033TIP3   OH212039   3.190   6.716   0.567
 4033TIP3    H112040   3.206   6.665   0.647
 4033TIP3    H212041   3.277   6.737   0.534
 4034TIP3   OH212042   5.437   7.779   2.841
 4034TIP3    H112043   5.344   7.759   2.833
 4034TIP3    H212044   5.440   7.853   2.902
 4035TIP3   OH212045   7.663   3.717   6.626
 4035TIP3    H112046   7.653   3.792   6.568
 4035TIP3    H212047   7.715   3.655   6.575
 4036TIP3   OH212048   6.270   5.549   5.830
 4036TIP3    H112049   6.271   5.624   5.889
 4036TIP3    H212050   6.350   5.558   5.778
 4037TIP3   OH212051   0.933   6.016   6.141
 4037TIP3    H112052   0.981   5.993   6.220
 4037TIP3    H212053   0.967   6.101   6.115
 4038TIP3   OH212054   7.300   6.110   2.842
 4038TIP3    H112055   7.288   6.163   2.921
 4038TIP3    H212056   7.384   6.067   2.855
 4039TIP3   OH212057   1.070   1.615   3.285
 4039TIP3    H112058   1.140   1.611   3.220
 4039TIP3    H212059   0.989   1.622   3.233
 4040TIP3   OH212060   5.569   0.615   5.244
 4040TIP3    H112061   5.546   0.529   5.208
 4040TIP3    H212062   5.489   0.667   5.233
 4041TIP3   OH212063   6.383   0.237   3.116
 4041TIP3    H112064   6.403   0.250   3.023
 4041TIP3    H212065   6.437   0.163   3.143
 4042TIP3   OH212066   6.697   6.144   0.534
 4042TIP3    H112067   6.704   6.238   0.517
 4042TIP3    H212068   6.715   6.104   0.449
 4043TIP3   OH212069   2.722   7.408   1.773
 4043TIP3    H112070   2.710   7.501   1.751
 4043TIP3    H212071   2.687   7.362   1.697
 4044TIP3   OH212072   2.328   2.815   6.773
 4044TIP3    H112073   2.364   2.845   6.690
 4044TIP3    H212074   2.400   2.770   6.816
 4045TIP3   OH212075   0.619   4.694   6.813
 4045TIP3    H112076   0.612   4.789   6.825
 4045TIP3    H212077   0.535   4.661   6.845
 4046TIP3   OH212078   0.264   0.253   4.328
 4046TIP3    H112079   0.186   0.212   4.291
 4046TIP3    H212080   0.291   0.194   4.399
 4047TIP3   OH212081   7.533   2.725   2.443
 4047TIP3    H112082   7.618   2.767   2.429
 4047TIP3    H212083   7.554   2.640   2.480
 4048TIP3   OH212084   6.037   0.563   0.059
 4048TIP3    H112085   6.020   0.484   0.007
 4048TIP3    H212086   6.076   0.530   0.140
 4049TIP3   OH212087   1.483   1.994   5.098
 4049TIP3    H112088   1.410   1.933   5.108
 4049TIP3    H212089   1.535   1.958   5.026
 4050TIP3   OH212090   1.688   2.154   5.628
 4050TIP3    H112091   1.618   2.197   5.578
 4050TIP3    H212092   1.758   2.142   5.564
 4051TIP3   OH212093   4.974   4.307   6.805
 4051TIP3    H112094   5.063   4.311   6.769
 4051TIP3    H212095   4.986   4.272   6.893
 4052TIP3   OH212096   1.045   4.927   3.930
 4052TIP3    H112097   0.985   5.001   3.933
 4052TIP3    H212098   0.988   4.850   3.932
 4053TIP3   OH212099   0.369   6.071   3.548
 4053TIP3    H112100   0.342   5.979   3.559
 4053TIP3    H212101   0.286   6.119   3.543
 4054TIP3   OH212102   7.075   5.675   6.001
 4054TIP3    H112103   7.043   5.683   6.091
 4054TIP3    H212104   7.167   5.653   6.010
 4055TIP3   OH212105   4.987   2.277   4.496
 4055TIP3    H112106   4.923   2.280   4.568
 4055TIP3    H212107   4.988   2.366   4.462
 4056TIP3   OH212108   1.204   7.743   6.307
 4056TIP3    H112109   1.202   7.835   6.334
 4056TIP3    H212110   1.293   7.730   6.274
 4057TIP3   OH212111   0.824   4.505   5.331
 4057TIP3    H112112   0.910   4.498   5.288
 4057TIP3    H212113   0.845   4.525   5.422
 4058TIP3   OH212114   7.804   2.903   5.786
 4058TIP3    H112115   7.711   2.885   5.776
 4058TIP3    H212116   7.822   2.974   5.725
 4059TIP3   OH212117   2.951   5.686   1.928
 4059TIP3    H112118   2.956   5.779   1.948
 4059TIP3    H212119   2.863   5.661   1.956
 4060TIP3   OH212120   2.924   3.804   5.156
 4060TIP3    H112121   2.872   3.856   5.095
 4060TIP3    H212122   2.970   3.869   5.210
 4061TIP3   OH212123   0.733   0.773   3.820
 4061TIP3    H112124   0.768   0.693   3.861
 4061TIP3    H212125   0.670   0.806   3.884
 4062TIP3   OH212126   1.961   3.540   5.635
 4062TIP3    H112127   2.011   3.494   5.567
 4062TIP3    H212128   1.949   3.628   5.600
 4063TIP3   OH212129   7.134   1.678   1.189
 4063TIP3    H112130   7.089   1.651   1.109
 4063TIP3    H212131   7.098   1.621   1.257
 4064TIP3   OH212132   1.955   7.766   3.367
 4064TIP3    H112133   1.900   7.766   3.446
 4064TIP3    H212134   2.040   7.797   3.397
 4065TIP3   OH212135   4.402   3.664   1.242
 4065TIP3    H112136   4.428   3.720   1.169
 4065TIP3    H212137   4.362   3.587   1.201
 4066TIP3   OH212138   8.129   0.770   2.679
 4066TIP3    H112139   8.132   0.719   2.761
 4066TIP3    H212140   8.215   0.814   2.676
 4067TIP3   OH212141   5.837   0.179   2.201
 4067TIP3    H112142   5.888   0.120   2.257
 4067TIP3    H212143   5.746   0.154   2.215
 4068TIP3   OH212144   4.698   3.900   6.175
 4068TIP3    H112145   4.638   3.904   6.250
 4068TIP3    H212146   4.643   3.917   6.099
 4069TIP3   OH212147   3.608   6.686   6.679
 4069TIP3    H112148   3.569   6.747   6.617
 4069TIP3    H212149   3.557   6.697   6.759
 4070TIP3   OH212150   1.731   0.430   5.376
 4070TIP3    H112151   1.796   0.379   5.424
 4070TIP3    H212152   1.665   0.365   5.350
 4071TIP3   OH212153   6.887   1.050   5.787
 4071TIP3    H112154   6.802   1.008   5.801
 4071TIP3    H212155   6.951   0.985   5.818
 4072TIP3   OH212156   4.710   0.630   4.413
 4072TIP3    H112157   4.740   0.539   4.412
 4072TIP3    H212158   4.732   0.664   4.327
 4073TIP3   OH212159   1.879   1.355   3.535
 4073TIP3    H112160   1.806   1.332   3.478
 4073TIP3    H212161   1.880   1.286   3.602
 4074TIP3   OH212162   7.974   1.335   0.460
 4074TIP3    H112163   8.018   1.290   0.388
 4074TIP3    H212164   7.947   1.419   0.423
 4075TIP3   OH212165   3.933   1.673   6.837
 4075TIP3    H112166   3.930   1.635   6.749
 4075TIP3    H212167   3.856   1.638   6.881
 4076TIP3   OH212168   2.883   2.339   6.291
 4076TIP3    H112169   2.791   2.343   6.267
 4076TIP3    H212170   2.919   2.423   6.262
 4077TIP3   OH212171   2.700   6.346   1.361
 4077TIP3    H112172   2.684   6.264   1.408
 4077TIP3    H212173   2.777   6.327   1.307
 4078TIP3   OH212174   0.583   6.501   3.931
 4078TIP3    H112175   0.668   6.475   3.967
 4078TIP3    H212176   0.605   6.563   3.862
 4079TIP3   OH212177   3.024   2.598   6.273
 4079TIP3    H112178   2.999   2.689   6.258
 4079TIP3    H212179   3.106   2.603   6.323
 4080TIP3   OH212180   2.589   7.441   5.400
 4080TIP3    H112181   2.656   7.502   5.432
 4080TIP3    H212182   2.635   7.386   5.336
 4081TIP3   OH212183   7.523   0.406   4.411
 4081TIP3    H112184   7.497   0.357   4.333
 4081TIP3    H212185   7.588   0.469   4.380
 4082TIP3   OH212186   0.637   3.455   5.715
 4082TIP3    H112187   0.624   3.418   5.802
 4082TIP3    H212188   0.575   3.528   5.710
 4083TIP3   OH212189   8.306   7.587   4.356
 4083TIP3    H112190   8.239   7.554   4.416
 4083TIP3    H212191   8.323   7.676   4.385
 4084TIP3   OH212192   5.646   5.801   3.247
 4084TIP3    H112193   5.729   5.844   3.267
 4084TIP3    H212194   5.641   5.802   3.151
 4085TIP3   OH212195   1.501   7.813   6.484
 4085TIP3    H112196   1.493   7.721   6.508
 4085TIP3    H212197   1.568   7.847   6.545
 4086TIP3   OH212198   3.362   0.792   5.120
 4086TIP3    H112199   3.302   0.824   5.053
 4086TIP3    H212200   3.447   0.787   5.076
 4087TIP3   OH212201   4.044   5.213   5.914
 4087TIP3    H112202   3.963   5.172   5.885
 4087TIP3    H212203   4.034   5.305   5.888
 4088TIP3   OH212204   2.129   4.799   3.470
 4088TIP3    H112205   2.212   4.756   3.451
 4088TIP3    H212206   2.153   4.886   3.501
 4089TIP3   OH212207   4.798   3.236   0.804
 4089TIP3    H112208   4.858   3.265   0.735
 4089TIP3    H212209   4.852   3.182   0.862
 4090TIP3   OH212210   8.096   3.778   4.761
 4090TIP3    H112211   8.058   3.705   4.712
 4090TIP3    H212212   8.185   3.749   4.783
 4091TIP3   OH212213   4.576   0.269   0.714
 4091TIP3    H112214   4.513   0.277   0.643
 4091TIP3    H212215   4.628   0.350   0.709
 4092TIP3   OH212216   6.887   1.286   0.553
 4092TIP3    H112217   6.899   1.206   0.603
 4092TIP3    H212218   6.960   1.288   0.492
 4093TIP3   OH212219   5.599   2.129   5.040
 4093TIP3    H112220   5.620   2.154   5.130
 4093TIP3    H212221   5.540   2.054   5.048
 4094TIP3   OH212222   4.655   3.213   4.522
 4094TIP3    H112223   4.722   3.150   4.494
 4094TIP3    H212224   4.606   3.168   4.590
 4095TIP3   OH212225   2.367   3.661   5.011
 4095TIP3    H112226   2.286   3.712   5.011
 4095TIP3    H212227   2.339   3.570   5.000
 4096TIP3   OH212228   3.971   0.939   4.790
 4096TIP3    H112229   3.944   0.968   4.877
 4096TIP3    H212230   4.031   0.866   4.807
 4097TIP3   OH212231   8.056   6.917   1.799
 4097TIP3    H112232   8.057   6.894   1.892
 4097TIP3    H212233   8.135   6.969   1.787
 4098TIP3   OH212234   7.436   1.785   0.269
 4098TIP3    H112235   7.394   1.836   0.338
 4098TIP3    H212236   7.511   1.743   0.312
 4099TIP3   OH212237   1.148   4.284   1.290
 4099TIP3    H112238   1.175   4.361   1.242
 4099TIP3    H212239   1.190   4.211   1.245
 4100TIP3   OH212240   1.876   5.667   3.878
 4100TIP3    H112241   1.883   5.732   3.808
 4100TIP3    H212242   1.945   5.603   3.857
 4101TIP3   OH212243   5.924   5.144   5.475
 4101TIP3    H112244   5.869   5.168   5.549
 4101TIP3    H212245   5.917   5.218   5.415
 4102TIP3   OH212246   6.279   1.779   1.504
 4102TIP3    H112247   6.328   1.712   1.553
 4102TIP3    H212248   6.340   1.809   1.437
 4103TIP3   OH212249   5.952   6.880   1.711
 4103TIP3    H112250   5.897   6.804   1.729
 4103TIP3    H212251   5.903   6.955   1.744
 4104TIP3   OH212252   3.135   7.640   6.456
 4104TIP3    H112253   3.145   7.705   6.525
 4104TIP3    H212254   3.216   7.589   6.459
 4105TIP3   OH212255   2.765   6.580   1.135
 4105TIP3    H112256   2.788   6.639   1.063
 4105TIP3    H212257   2.682   6.615   1.169
 4106TIP3   OH212258   6.790   4.498   6.457
 4106TIP3    H112259   6.805   4.409   6.427
 4106TIP3    H212260   6.833   4.553   6.391
 4107TIP3   OH212261   4.062   1.055   6.038
 4107TIP3    H112262   4.099   1.101   5.962
 4107TIP3    H212263   4.125   1.072   6.109
 4108TIP3   OH212264   0.698   1.594   3.604
 4108TIP3    H112265   0.683   1.641   3.687
 4108TIP3    H212266   0.650   1.645   3.539
 4109TIP3   OH212267   3.878   1.975   2.895
 4109TIP3    H112268   3.842   1.944   2.811
 4109TIP3    H212269   3.805   1.968   2.956
 4110TIP3   OH212270   6.956   7.814   5.499
 4110TIP3    H112271   7.036   7.864   5.480
 4110TIP3    H212272   6.920   7.855   5.577
 4111TIP3   OH212273   5.154   3.869   5.568
 4111TIP3    H112274   5.101   3.948   5.560
 4111TIP3    H212275   5.232   3.886   5.515
 4112TIP3   OH212276   7.453   2.678   6.616
 4112TIP3    H112277   7.514   2.630   6.560
 4112TIP3    H212278   7.508   2.735   6.669
 4113TIP3   OH212279   1.923   4.565   6.396
 4113TIP3    H112280   1.922   4.483   6.347
 4113TIP3    H212281   1.950   4.540   6.484
 4114TIP3   OH212282   6.376   3.582   4.727
 4114TIP3    H112283   6.356   3.548   4.814
 4114TIP3    H212284   6.341   3.671   4.728
 4115TIP3   OH212285   5.638   3.549   5.913
 4115TIP3    H112286   5.575   3.477   5.903
 4115TIP3    H212287   5.662   3.572   5.824
 4116TIP3   OH212288   2.080   4.794   2.268
 4116TIP3    H112289   2.080   4.720   2.328
 4116TIP3    H212290   2.057   4.869   2.322
 4117TIP3   OH212291   2.444   6.829   6.455
 4117TIP3    H112292   2.490   6.831   6.539
 4117TIP3    H212293   2.436   6.735   6.435
 4118TIP3   OH212294   0.418   7.462   5.442
 4118TIP3    H112295   0.400   7.484   5.351
 4118TIP3    H212296   0.449   7.544   5.481
 4119TIP3   OH212297   0.680   0.120   4.384
 4119TIP3    H112298   0.660   0.164   4.467
 4119TIP3    H212299   0.770   0.090   4.394
 4120TIP3   OH212300   2.865   0.745   1.376
 4120TIP3    H112301   2.829   0.685   1.311
 4120TIP3    H212302   2.868   0.830   1.332
 4121TIP3   OH212303   5.674   7.134   2.706
 4121TIP3    H112304   5.728   7.097   2.636
 4121TIP3    H212305   5.613   7.192   2.661
 4122TIP3   OH212306   3.515   6.564   2.041
 4122TIP3    H112307   3.437   6.536   2.090
 4122TIP3    H212308   3.491   6.649   2.005
 4123TIP3   OH212309   1.610   5.989   5.130
 4123TIP3    H112310   1.641   6.012   5.042
 4123TIP3    H212311   1.540   5.925   5.115
 4124TIP3   OH212312   0.077   1.012   2.265
 4124TIP3    H112313   0.072   0.935   2.321
 4124TIP3    H212314   0.035   1.082   2.315
 4125TIP3   OH212315   5.558   0.668   0.379
 4125TIP3    H112316   5.652   0.678   0.363
 4125TIP3    H212317   5.552   0.631   0.467
 4126TIP3   OH212318   4.029   7.464   2.244
 4126TIP3    H112319   3.938   7.435   2.251
 4126TIP3    H212320   4.035   7.538   2.304
 4127TIP3   OH212321   0.767   0.383   5.702
 4127TIP3    H112322   0.803   0.302   5.738
 4127TIP3    H212323   0.737   0.432   5.778
 4128TIP3   OH212324   1.076   7.336   3.398
 4128TIP3    H112325   1.051   7.393   3.325
 4128TIP3    H212326   1.171   7.345   3.405
 4129TIP3   OH212327   3.874   3.979   1.633
 4129TIP3    H112328   3.945   4.037   1.606
 4129TIP3    H212329   3.856   3.925   1.556
 4130TIP3   OH212330   7.484   3.746   1.526
 4130TIP3    H112331   7.548   3.781   1.464
 4130TIP3    H212332   7.453   3.665   1.485
 4131TIP3   OH212333   6.756   3.089   5.278
 4131TIP3    H112334   6.713   3.028   5.218
 4131TIP3    H212335   6.708   3.079   5.360
 4132TIP3   OH212336   2.957   4.800   0.492
 4132TIP3    H112337   2.891   4.811   0.560
 4132TIP3    H212338   3.009   4.725   0.521
 4133TIP3   OH212339   3.766   7.852   1.320
 4133TIP3    H112340   3.740   7.768   1.280
 4133TIP3    H212341   3.684   7.901   1.328
 4134TIP3   OH212342   3.111   4.118   6.466
 4134TIP3    H112343   3.057   4.155   6.536
 4134TIP3    H212344   3.195   4.162   6.476
 4135TIP3   OH212345   3.889   1.159   0.677
 4135TIP3    H112346   3.975   1.130   0.708
 4135TIP3    H212347   3.868   1.234   0.732
 4136TIP3   OH212348   2.968   1.970   4.499
 4136TIP3    H112349   3.024   1.893   4.506
 4136TIP3    H212350   3.019   2.041   4.537
 4137TIP3   OH212351   7.404   3.944   5.104
 4137TIP3    H112352   7.437   3.854   5.094
 4137TIP3    H212353   7.311   3.938   5.080
 4138TIP3   OH212354   0.153   3.834   1.148
 4138TIP3    H112355   0.223   3.822   1.084
 4138TIP3    H212356   0.137   3.929   1.149
 4139TIP3   OH212357   5.912   2.782   1.322
 4139TIP3    H112358   5.970   2.715   1.359
 4139TIP3    H212359   5.963   2.823   1.253
 4140TIP3   OH212360   5.126   4.693   0.908
 4140TIP3    H112361   5.148   4.677   0.816
 4140TIP3    H212362   5.031   4.678   0.912
 4141TIP3   OH212363   4.232   1.357   2.003
 4141TIP3    H112364   4.295   1.408   1.953
 4141TIP3    H212365   4.146   1.391   1.976
 4142TIP3   OH212366   2.670   1.340   0.743
 4142TIP3    H112367   2.684   1.375   0.655
 4142TIP3    H212368   2.575   1.335   0.752
 4143TIP3   OH212369   7.016   0.449   0.785
 4143TIP3    H112370   6.981   0.499   0.711
 4143TIP3    H212371   6.962   0.370   0.788
 4144TIP3   OH212372   8.179   2.622   0.059
 4144TIP3    H112373   8.161   2.571  -0.020
 4144TIP3    H212374   8.136   2.574   0.129
 4145TIP3   OH212375   3.984   3.534   2.406
 4145TIP3    H112376   4.056   3.590   2.376
 4145TIP3    H212377   3.909   3.562   2.354
 4146TIP3   OH212378   6.489   4.768   4.697
 4146TIP3    H112379   6.498   4.813   4.781
 4146TIP3    H212380   6.465   4.837   4.635
 4147TIP3   OH212381   7.988   5.091   1.845
 4147TIP3    H112382   7.920   5.046   1.796
 4147TIP3    H212383   7.940   5.144   1.909
 4148TIP3   OH212384   5.798   3.871   2.860
 4148TIP3    H112385   5.709   3.904   2.868
 4148TIP3    H212386   5.854   3.947   2.874
 4149TIP3   OH212387   1.780   6.581   2.996
 4149TIP3    H112388   1.796   6.672   3.020
 4149TIP3    H212389   1.814   6.530   3.069
 4150TIP3   OH212390   5.580   7.647   0.066
 4150TIP3    H112391   5.608   7.720   0.010
 4150TIP3    H212392   5.576   7.572   0.006
 4151TIP3   OH212393   7.389   3.677   5.833
 4151TIP3    H112394   7.360   3.767   5.851
 4151TIP3    H212395   7.309   3.625   5.834
 4152TIP3   OH212396   8.005   0.748   3.936
 4152TIP3    H112397   8.059   0.791   3.871
 4152TIP3    H212398   7.948   0.690   3.886
 4153TIP3   OH212399   0.954   1.915   0.042
 4153TIP3    H112400   0.888   1.847   0.027
 4153TIP3    H212401   0.906   1.997   0.033
 4154TIP3   OH212402   5.280   5.706   4.650
 4154TIP3    H112403   5.207   5.652   4.682
 4154TIP3    H212404   5.245   5.795   4.652
 4155TIP3   OH212405   1.976   6.539   3.603
 4155TIP3    H112406   1.982   6.547   3.698
 4155TIP3    H212407   1.883   6.523   3.586
 4156TIP3   OH212408   0.488   3.910   2.967
 4156TIP3    H112409   0.396   3.937   2.964
 4156TIP3    H212410   0.488   3.833   3.024
 4157TIP3   OH212411   8.072   4.862   5.088
 4157TIP3    H112412   8.147   4.822   5.043
 4157TIP3    H212413   8.064   4.949   5.048
 4158TIP3   OH212414   5.773   1.088   4.397
 4158TIP3    H112415   5.703   1.071   4.333
 4158TIP3    H212416   5.771   1.013   4.456
 4159TIP3   OH212417   1.134   6.512   4.441
 4159TIP3    H112418   1.081   6.503   4.521
 4159TIP3    H212419   1.217   6.471   4.463
 4160TIP3   OH212420   2.792   0.345   2.074
 4160TIP3    H112421   2.716   0.377   2.026
 4160TIP3    H212422   2.768   0.353   2.166
 4161TIP3   OH212423   2.537   7.052   5.592
 4161TIP3    H112424   2.461   7.018   5.545
 4161TIP3    H212425   2.589   7.096   5.525
 4162TIP3   OH212426   4.407   2.252   1.486
 4162TIP3    H112427   4.456   2.216   1.560
 4162TIP3    H212428   4.316   2.253   1.516
 4163TIP3   OH212429   0.554   7.341   3.617
 4163TIP3    H112430   0.562   7.345   3.712
 4163TIP3    H212431   0.571   7.431   3.588
 4164TIP3   OH212432   1.847   3.812   6.760
 4164TIP3    H112433   1.825   3.784   6.671
 4164TIP3    H212434   1.766   3.804   6.809
 4165TIP3   OH212435   1.817   4.599   5.896
 4165TIP3    H112436   1.786   4.629   5.811
 4165TIP3    H212437   1.873   4.670   5.927
 4166TIP3   OH212438   4.663   6.621   0.741
 4166TIP3    H112439   4.741   6.566   0.752
 4166TIP3    H212440   4.676   6.665   0.658
 4167TIP3   OH212441   1.502   3.226   2.420
 4167TIP3    H112442   1.429   3.283   2.444
 4167TIP3    H212443   1.551   3.215   2.501
 4168TIP3   OH212444   6.782   4.381   0.423
 4168TIP3    H112445   6.715   4.322   0.390
 4168TIP3    H212446   6.761   4.394   0.515
 4169TIP3   OH212447   0.065   1.769   1.062
 4169TIP3    H112448   0.011   1.716   1.004
 4169TIP3    H212449   0.140   1.796   1.008
 4170TIP3   OH212450   5.286   7.290   0.214
 4170TIP3    H112451   5.370   7.258   0.179
 4170TIP3    H212452   5.311   7.348   0.286
 4171TIP3   OH212453   5.788   0.734   0.015
 4171TIP3    H112454   5.694   0.744   0.030
 4171TIP3    H212455   5.806   0.642   0.035
 4172TIP3   OH212456   2.298   6.182   5.055
 4172TIP3    H112457   2.270   6.267   5.089
 4172TIP3    H212458   2.381   6.200   5.010
 4173TIP3   OH212459   6.979   3.012   5.733
 4173TIP3    H112460   6.896   3.043   5.769
 4173TIP3    H212461   6.980   3.044   5.643
 4174TIP3   OH212462   1.294   6.053   5.293
 4174TIP3    H112463   1.238   6.075   5.367
 4174TIP3    H212464   1.383   6.074   5.322
 4175TIP3   OH212465   6.774   5.666   6.454
 4175TIP3    H112466   6.751   5.573   6.451
 4175TIP3    H212467   6.692   5.712   6.438
 4176TIP3   OH212468   4.616   3.905   0.610
 4176TIP3    H112469   4.542   3.935   0.663
 4176TIP3    H212470   4.669   3.983   0.595
 4177TIP3   OH212471   1.879   4.713   3.422
 4177TIP3    H112472   1.946   4.646   3.421
 4177TIP3    H212473   1.927   4.795   3.435
 4178TIP3   OH212474   0.590   6.653   0.046
 4178TIP3    H112475   0.648   6.728   0.061
 4178TIP3    H212476   0.531   6.653   0.121
 4179TIP3   OH212477   3.740   0.468   4.067
 4179TIP3    H112478   3.702   0.546   4.027
 4179TIP3    H212479   3.677   0.444   4.136
 4180TIP3   OH212480   7.376   1.339   2.687
 4180TIP3    H112481   7.285   1.369   2.683
 4180TIP3    H212482   7.370   1.245   2.704
 4181TIP3   OH212483   4.638   3.313   4.884
 4181TIP3    H112484   4.719   3.265   4.866
 4181TIP3    H212485   4.649   3.396   4.839
 4182TIP3   OH212486   1.190   5.295   6.199
 4182TIP3    H112487   1.130   5.245   6.255
 4182TIP3    H212488   1.207   5.375   6.248
 4183TIP3   OH212489   8.358   2.013   3.257
 4183TIP3    H112490   8.285   2.059   3.217
 4183TIP3    H212491   8.373   2.058   3.340
 4184TIP3   OH212492   2.638   2.932   3.822
 4184TIP3    H112493   2.551   2.969   3.838
 4184TIP3    H212494   2.667   2.902   3.908
 4185TIP3   OH212495   6.861   5.874   2.190
 4185TIP3    H112496   6.786   5.835   2.145
 4185TIP3    H212497   6.893   5.942   2.131
 4186TIP3   OH212498   2.496   3.978   1.134
 4186TIP3    H112499   2.583   4.015   1.145
 4186TIP3    H212500   2.503   3.888   1.166
 4187TIP3   OH212501   5.838   1.492   6.743
 4187TIP3    H112502   5.770   1.496   6.676
 4187TIP3    H212503   5.805   1.548   6.813
 4188TIP3   OH212504   7.107   5.844   2.338
 4188TIP3    H112505   7.015   5.839   2.313
 4188TIP3    H212506   7.142   5.917   2.285
 4189TIP3   OH212507   4.158   1.146   6.482
 4189TIP3    H112508   4.188   1.117   6.568
 4189TIP3    H212509   4.140   1.240   6.494
 4190TIP3   OH212510   6.520   6.606   3.561
 4190TIP3    H112511   6.499   6.587   3.652
 4190TIP3    H212512   6.589   6.673   3.566
 4191TIP3   OH212513   2.347   6.378   0.969
 4191TIP3    H112514   2.298   6.455   0.995
 4191TIP3    H212515   2.433   6.389   1.010
 4192TIP3   OH212516   3.753   5.844   6.592
 4192TIP3    H112517   3.775   5.805   6.507
 4192TIP3    H212518   3.821   5.813   6.651
 4193TIP3   OH212519   8.268   4.779   4.406
 4193TIP3    H112520   8.288   4.871   4.422
 4193TIP3    H212521   8.336   4.749   4.345
 4194TIP3   OH212522   7.545   5.022   0.611
 4194TIP3    H112523   7.624   4.976   0.642
 4194TIP3    H212524   7.542   5.004   0.517
 4195TIP3   OH212525   6.826   6.517   3.320
 4195TIP3    H112526   6.742   6.473   3.303
 4195TIP3    H212527   6.860   6.474   3.398
 4196TIP3   OH212528   1.758   4.232   3.610
 4196TIP3    H112529   1.761   4.175   3.687
 4196TIP3    H212530   1.850   4.248   3.588
 4197TIP3   OH212531   7.424   4.403   1.500
 4197TIP3    H112532   7.420   4.425   1.407
 4197TIP3    H212533   7.368   4.325   1.509
 4198TIP3   OH212534   4.121   5.241   3.127
 4198TIP3    H112535   4.165   5.186   3.192
 4198TIP3    H212536   4.162   5.327   3.136
 4199TIP3   OH212537   6.171   3.597   4.429
 4199TIP3    H112538   6.164   3.656   4.504
 4199TIP3    H212539   6.265   3.577   4.424
 4200TIP3   OH212540   3.368   7.793   3.626
 4200TIP3    H112541   3.274   7.813   3.619
 4200TIP3    H212542   3.379   7.713   3.576
 4201TIP3   OH212543   1.039   4.936   4.257
 4201TIP3    H112544   1.080   4.935   4.171
 4201TIP3    H212545   1.010   5.027   4.269
 4202TIP3   OH212546   2.843   0.453   1.750
 4202TIP3    H112547   2.750   0.464   1.770
 4202TIP3    H212548   2.886   0.454   1.836
 4203TIP3   OH212549   3.943   3.478   1.457
 4203TIP3    H112550   3.996   3.467   1.378
 4203TIP3    H212551   4.003   3.460   1.529
 4204TIP3   OH212552   2.278   4.699   1.279
 4204TIP3    H112553   2.211   4.633   1.261
 4204TIP3    H212554   2.325   4.665   1.356
 4205TIP3   OH212555   7.759   0.536   1.434
 4205TIP3    H112556   7.802   0.581   1.506
 4205TIP3    H212557   7.766   0.443   1.456
 4206TIP3   OH212558   2.421   5.337   4.313
 4206TIP3    H112559   2.406   5.245   4.335
 4206TIP3    H212560   2.437   5.379   4.397
 4207TIP3   OH212561   4.780   7.062   4.046
 4207TIP3    H112562   4.709   7.105   4.094
 4207TIP3    H212563   4.833   7.020   4.114
 4208TIP3   OH212564   1.425   4.571   2.402
 4208TIP3    H112565   1.439   4.649   2.456
 4208TIP3    H212566   1.503   4.517   2.418
 4209TIP3   OH212567   2.701   5.994   0.912
 4209TIP3    H112568   2.792   5.963   0.913
 4209TIP3    H212569   2.705   6.080   0.870
 4210TIP3   OH212570   7.722   5.381   4.561
 4210TIP3    H112571   7.649   5.370   4.501
 4210TIP3    H212572   7.798   5.396   4.505
 4211TIP3   OH212573   5.459   4.358   0.080
 4211TIP3    H112574   5.488   4.346   0.170
 4211TIP3    H212575   5.478   4.449   0.060
 4212TIP3   OH212576   3.711   3.840   2.032
 4212TIP3    H112577   3.629   3.868   1.990
 4212TIP3    H212578   3.779   3.872   1.973
 4213TIP3   OH212579   2.352   1.129   5.113
 4213TIP3    H112580   2.377   1.167   5.197
 4213TIP3    H212581   2.335   1.037   5.131
 4214TIP3   OH212582   1.005   2.356   4.648
 4214TIP3    H112583   0.911   2.372   4.649
 4214TIP3    H212584   1.039   2.411   4.719
 4215TIP3   OH212585   1.052   7.319   5.883
 4215TIP3    H112586   0.960   7.344   5.878
 4215TIP3    H212587   1.085   7.363   5.962
 4216TIP3   OH212588   8.361   2.413   3.254
 4216TIP3    H112589   8.356   2.337   3.196
 4216TIP3    H212590   8.448   2.449   3.240
 4217TIP3   OH212591   4.659   7.676   0.760
 4217TIP3    H112592   4.710   7.669   0.841
 4217TIP3    H212593   4.575   7.634   0.780
 4218TIP3   OH212594   4.658   6.346   4.741
 4218TIP3    H112595   4.710   6.292   4.682
 4218TIP3    H212596   4.589   6.287   4.773
 4219TIP3   OH212597   8.160   2.574   4.067
 4219TIP3    H112598   8.091   2.618   4.116
 4219TIP3    H212599   8.122   2.562   3.979
 4220TIP3   OH212600   4.637   6.540   5.674
 4220TIP3    H112601   4.615   6.449   5.652
 4220TIP3    H212602   4.553   6.587   5.668
 4221TIP3   OH212603   3.676   7.689   6.353
 4221TIP3    H112604   3.715   7.616   6.401
 4221TIP3    H212605   3.644   7.749   6.421
 4222TIP3   OH212606   4.323   6.425   0.848
 4222TIP3    H112607   4.229   6.408   0.852
 4222TIP3    H212608   4.332   6.498   0.786
 4223TIP3   OH212609   2.596   6.405   6.343
 4223TIP3    H112610   2.662   6.454   6.391
 4223TIP3    H212611   2.645   6.340   6.293
 4224TIP3   OH212612   2.263   7.889   1.936
 4224TIP3    H112613   2.339   7.840   1.968
 4224TIP3    H212614   2.188   7.834   1.958
 4225TIP3   OH212615   3.496   4.952   6.863
 4225TIP3    H112616   3.568   4.959   6.801
 4225TIP3    H212617   3.463   4.862   6.852
 4226TIP3   OH212618   6.446   6.305   1.246
 4226TIP3    H112619   6.477   6.363   1.176
 4226TIP3    H212620   6.364   6.345   1.275
 4227TIP3   OH212621   0.934   2.444   6.786
 4227TIP3    H112622   0.855   2.435   6.840
 4227TIP3    H212623   1.005   2.454   6.849
 4228TIP3   OH212624   4.734   4.189   6.698
 4228TIP3    H112625   4.684   4.188   6.779
 4228TIP3    H212626   4.821   4.218   6.724
 4229TIP3   OH212627   0.162   1.087   2.604
 4229TIP3    H112628   0.213   1.078   2.684
 4229TIP3    H212629   0.076   1.052   2.626
 4230TIP3   OH212630   2.485   6.718   2.906
 4230TIP3    H112631   2.519   6.628   2.909
 4230TIP3    H212632   2.391   6.709   2.916
 4231TIP3   OH212633   3.232   4.869   5.266
 4231TIP3    H112634   3.155   4.820   5.294
 4231TIP3    H212635   3.268   4.818   5.194
 4232TIP3   OH212636   4.487   3.830   6.371
 4232TIP3    H112637   4.399   3.791   6.372
 4232TIP3    H212638   4.480   3.906   6.429
 4233TIP3   OH212639   7.752   3.430   2.362
 4233TIP3    H112640   7.663   3.396   2.361
 4233TIP3    H212641   7.781   3.420   2.452
 4234TIP3   OH212642   1.280   2.637   1.905
 4234TIP3    H112643   1.279   2.693   1.983
 4234TIP3    H212644   1.189   2.634   1.877
 4235TIP3   OH212645   7.758   4.962   3.377
 4235TIP3    H112646   7.704   4.973   3.299
 4235TIP3    H212647   7.704   4.908   3.436
 4236TIP3   OH212648   4.248   2.545   0.995
 4236TIP3    H112649   4.277   2.612   0.933
 4236TIP3    H212650   4.242   2.591   1.079
 4237TIP3   OH212651   8.266   3.903   2.518
 4237TIP3    H112652   8.199   3.853   2.472
 4237TIP3    H212653   8.280   3.856   2.600
 4238TIP3   OH212654   7.417   1.633   3.526
 4238TIP3    H112655   7.386   1.700   3.466
 4238TIP3    H212656   7.341   1.610   3.579
 4239TIP3   OH212657   4.440   0.131   6.344
 4239TIP3    H112658   4.450   0.036   6.335
 4239TIP3    H212659   4.482   0.151   6.428
 4240TIP3   OH212660   0.699   5.943   0.784
 4240TIP3    H112661   0.745   5.914   0.862
 4240TIP3    H212662   0.638   5.872   0.764
 4241TIP3   OH212663   4.844   6.267   4.464
 4241TIP3    H112664   4.756   6.232   4.479
 4241TIP3    H212665   4.896   6.190   4.439
 4242TIP3   OH212666   5.125   7.888   2.597
 4242TIP3    H112667   5.117   7.983   2.594
 4242TIP3    H212668   5.129   7.861   2.505
 4243TIP3   OH212669   2.488   1.273   4.941
 4243TIP3    H112670   2.441   1.212   4.997
 4243TIP3    H212671   2.456   1.256   4.853
 4244TIP3   OH212672   0.102   0.986   0.259
 4244TIP3    H112673   0.187   0.974   0.217
 4244TIP3    H212674   0.039   0.952   0.196
 4245TIP3   OH212675   7.254   1.037   6.001
 4245TIP3    H112676   7.342   0.998   6.008
 4245TIP3    H212677   7.270   1.130   5.990
 4246TIP3   OH212678   6.298   6.430   0.333
 4246TIP3    H112679   6.324   6.512   0.375
 4246TIP3    H212680   6.378   6.399   0.290
 4247TIP3   OH212681   6.105   4.700   6.242
 4247TIP3    H112682   6.026   4.712   6.189
 4247TIP3    H212683   6.075   4.655   6.321
 4248TIP3   OH212684   1.655   5.180   6.219
 4248TIP3    H112685   1.625   5.115   6.282
 4248TIP3    H212686   1.582   5.242   6.212
 4249TIP3   OH212687   1.504   2.096   1.942
 4249TIP3    H112688   1.462   2.173   1.982
 4249TIP3    H212689   1.574   2.132   1.887
 4250TIP3   OH212690   6.972   7.780   5.943
 4250TIP3    H112691   7.044   7.720   5.922
 4250TIP3    H212692   6.915   7.776   5.867
 4251TIP3   OH212693   2.997   7.414   6.596
 4251TIP3    H112694   3.032   7.426   6.507
 4251TIP3    H212695   3.027   7.327   6.622
 4252TIP3   OH212696   5.422   4.149   3.902
 4252TIP3    H112697   5.496   4.202   3.930
 4252TIP3    H212698   5.450   4.109   3.820
 4253TIP3   OH212699   2.740   4.492   3.404
 4253TIP3    H112700   2.793   4.571   3.395
 4253TIP3    H212701   2.785   4.440   3.470
 4254TIP3   OH212702   6.563   2.701   2.909
 4254TIP3    H112703   6.579   2.612   2.942
 4254TIP3    H212704   6.636   2.752   2.943
 4255TIP3   OH212705   1.952   7.419   0.265
 4255TIP3    H112706   1.920   7.368   0.339
 4255TIP3    H212707   2.005   7.488   0.304
 4256TIP3   OH212708   3.584   4.013   5.467
 4256TIP3    H112709   3.517   3.959   5.427
 4256TIP3    H212710   3.609   4.075   5.398
 4257TIP3   OH212711   4.198   4.071   0.499
 4257TIP3    H112712   4.185   4.094   0.407
 4257TIP3    H212713   4.241   4.147   0.538
 4258TIP3   OH212714   4.058   0.064   2.138
 4258TIP3    H112715   4.039   0.111   2.057
 4258TIP3    H212716   4.031   0.124   2.207
 4259TIP3   OH212717   5.661   4.907   0.652
 4259TIP3    H112718   5.652   4.929   0.745
 4259TIP3    H212719   5.731   4.965   0.621
 4260TIP3   OH212720   7.212   2.179   0.241
 4260TIP3    H112721   7.260   2.231   0.306
 4260TIP3    H212722   7.130   2.227   0.228
 4261TIP3   OH212723   0.871   0.379   2.616
 4261TIP3    H112724   0.892   0.404   2.526
 4261TIP3    H212725   0.955   0.377   2.661
 4262TIP3   OH212726   5.211   1.491   5.710
 4262TIP3    H112727   5.181   1.406   5.678
 4262TIP3    H212728   5.269   1.524   5.642
 4263TIP3   OH212729   3.719   6.218   1.472
 4263TIP3    H112730   3.673   6.300   1.488
 4263TIP3    H212731   3.810   6.244   1.457
 4264TIP3   OH212732   1.454   4.153   4.095
 4264TIP3    H112733   1.465   4.228   4.038
 4264TIP3    H212734   1.384   4.178   4.155
 4265TIP3   OH212735   7.869   3.036   0.610
 4265TIP3    H112736   7.811   3.056   0.537
 4265TIP3    H212737   7.939   3.101   0.603
 4266TIP3   OH212738   2.775   5.534   6.457
 4266TIP3    H112739   2.853   5.572   6.496
 4266TIP3    H212740   2.808   5.476   6.388
 4267TIP3   OH212741   6.505   3.937   5.725
 4267TIP3    H112742   6.576   3.955   5.663
 4267TIP3    H212743   6.548   3.895   5.799
 4268TIP3   OH212744   6.304   6.813   0.790
 4268TIP3    H112745   6.378   6.841   0.737
 4268TIP3    H212746   6.278   6.728   0.753
 4269TIP3   OH212747   6.265   6.793   1.912
 4269TIP3    H112748   6.326   6.721   1.925
 4269TIP3    H212749   6.313   6.871   1.939
 4270TIP3   OH212750   7.676   0.094   1.835
 4270TIP3    H112751   7.742   0.136   1.890
 4270TIP3    H212752   7.718   0.014   1.803
 4271TIP3   OH212753   5.104   5.685   0.539
 4271TIP3    H112754   5.114   5.640   0.623
 4271TIP3    H212755   5.148   5.629   0.476
 4272TIP3   OH212756   2.034   4.451   3.365
 4272TIP3    H112757   2.106   4.397   3.396
 4272TIP3    H212758   2.058   4.474   3.275
 4273TIP3   OH212759   7.738   7.486   2.763
 4273TIP3    H112760   7.739   7.420   2.832
 4273TIP3    H212761   7.780   7.562   2.803
 4274TIP3   OH212762   0.845   6.368   1.686
 4274TIP3    H112763   0.786   6.373   1.611
 4274TIP3    H212764   0.916   6.311   1.657
 4275TIP3   OH212765   7.004   5.579   6.803
 4275TIP3    H112766   7.035   5.624   6.725
 4275TIP3    H212767   6.970   5.648   6.860
 4276TIP3   OH212768   4.831   6.574   1.469
 4276TIP3    H112769   4.875   6.501   1.425
 4276TIP3    H212770   4.901   6.617   1.518
 4277TIP3   OH212771   5.261   3.736   3.431
 4277TIP3    H112772   5.257   3.716   3.525
 4277TIP3    H212773   5.176   3.708   3.397
 4278TIP3   OH212774   5.752   5.454   1.296
 4278TIP3    H112775   5.728   5.410   1.214
 4278TIP3    H212776   5.848   5.454   1.295
 4279TIP3   OH212777   0.074   5.659   3.082
 4279TIP3    H112778   0.124   5.582   3.110
 4279TIP3    H212779   0.098   5.728   3.144
 4280TIP3   OH212780   0.580   7.279   3.363
 4280TIP3    H112781   0.503   7.314   3.318
 4280TIP3    H212782   0.557   7.282   3.456
 4281TIP3   OH212783   6.270   1.099   0.742
 4281TIP3    H112784   6.238   1.022   0.696
 4281TIP3    H212785   6.246   1.084   0.834
 4282TIP3   OH212786   4.858   5.277   5.714
 4282TIP3    H112787   4.938   5.331   5.714
 4282TIP3    H212788   4.798   5.324   5.771
 4283TIP3   OH212789   4.484   5.932   3.254
 4283TIP3    H112790   4.550   6.001   3.266
 4283TIP3    H212791   4.400   5.977   3.261
 4284TIP3   OH212792   3.268   0.499   6.481
 4284TIP3    H112793   3.212   0.489   6.404
 4284TIP3    H212794   3.270   0.412   6.521
 4285TIP3   OH212795   5.351   7.245   5.424
 4285TIP3    H112796   5.361   7.151   5.437
 4285TIP3    H212797   5.303   7.275   5.501
 4286TIP3   OH212798   7.111   6.454   1.457
 4286TIP3    H112799   7.049   6.437   1.528
 4286TIP3    H212800   7.150   6.538   1.480
 4287TIP3   OH212801   4.743   7.072   4.499
 4287TIP3    H112802   4.720   7.080   4.406
 4287TIP3    H212803   4.738   6.978   4.517
 4288TIP3   OH212804   6.042   3.472   4.743
 4288TIP3    H112805   6.031   3.485   4.837
 4288TIP3    H212806   6.120   3.522   4.721
 4289TIP3   OH212807   4.766   1.303   3.690
 4289TIP3    H112808   4.758   1.243   3.764
 4289TIP3    H212809   4.858   1.329   3.690
 4290TIP3   OH212810   1.437   0.674   6.846
 4290TIP3    H112811   1.411   0.654   6.756
 4290TIP3    H212812   1.358   0.658   6.898
 4291TIP3   OH212813   2.180   4.889   6.133
 4291TIP3    H112814   2.152   4.921   6.219
 4291TIP3    H212815   2.237   4.815   6.152
 4292TIP3   OH212816   0.468   5.739   4.293
 4292TIP3    H112817   0.439   5.728   4.203
 4292TIP3    H212818   0.431   5.665   4.341
 4293TIP3   OH212819   7.675   4.145   0.055
 4293TIP3    H112820   7.678   4.188   0.140
 4293TIP3    H212821   7.663   4.217  -0.008
 4294TIP3   OH212822   3.337   5.994   3.647
 4294TIP3    H112823   3.310   6.004   3.738
 4294TIP3    H212824   3.294   6.068   3.602
 4295TIP3   OH212825   4.595   7.131   3.532
 4295TIP3    H112826   4.659   7.132   3.602
 4295TIP3    H212827   4.534   7.061   3.555
 4296TIP3   OH212828   7.926   5.412   6.858
 4296TIP3    H112829   7.850   5.423   6.801
 4296TIP3    H212830   7.999   5.396   6.798
 4297TIP3   OH212831   4.555   3.048   5.850
 4297TIP3    H112832   4.591   3.050   5.939
 4297TIP3    H212833   4.624   3.008   5.798
 4298TIP3   OH212834   6.870   5.623   0.935
 4298TIP3    H112835   6.943   5.563   0.948
 4298TIP3    H212836   6.840   5.607   0.846
 4299TIP3   OH212837   3.440   2.644   3.213
 4299TIP3    H112838   3.468   2.568   3.162
 4299TIP3    H212839   3.475   2.629   3.300
 4300TIP3   OH212840   3.624   5.786   4.959
 4300TIP3    H112841   3.575   5.859   4.995
 4300TIP3    H212842   3.640   5.810   4.868
 4301TIP3   OH212843   2.245   1.156   0.032
 4301TIP3    H112844   2.329   1.124   0.064
 4301TIP3    H212845   2.214   1.214   0.101
 4302TIP3   OH212846   5.720   7.522   0.846
 4302TIP3    H112847   5.638   7.495   0.887
 4302TIP3    H212848   5.755   7.589   0.904
 4303TIP3   OH212849   0.958   1.518   1.732
 4303TIP3    H112850   0.907   1.520   1.651
 4303TIP3    H212851   0.898   1.550   1.800
 4304TIP3   OH212852   4.885   3.013   4.582
 4304TIP3    H112853   4.961   3.054   4.542
 4304TIP3    H212854   4.887   2.923   4.551
 4305TIP3   OH212855   8.360   2.452   1.525
 4305TIP3    H112856   8.313   2.395   1.463
 4305TIP3    H212857   8.308   2.532   1.529
 4306TIP3   OH212858   5.670   7.561   6.396
 4306TIP3    H112859   5.689   7.639   6.448
 4306TIP3    H212860   5.594   7.521   6.437
 4307TIP3   OH212861   3.408   2.184   1.722
 4307TIP3    H112862   3.392   2.161   1.813
 4307TIP3    H212863   3.489   2.234   1.724
 4308TIP3   OH212864   0.572   0.596   1.839
 4308TIP3    H112865   0.539   0.624   1.925
 4308TIP3    H212866   0.668   0.597   1.849
 4309TIP3   OH212867   3.264   4.075   2.660
 4309TIP3    H112868   3.283   3.984   2.683
 4309TIP3    H212869   3.346   4.122   2.674
 4310TIP3   OH212870   7.286   6.218   2.556
 4310TIP3    H112871   7.362   6.177   2.514
 4310TIP3    H212872   7.297   6.199   2.649
 4311TIP3   OH212873   0.134   0.230   1.917
 4311TIP3    H112874   0.062   0.175   1.887
 4311TIP3    H212875   0.213   0.181   1.894
 4312TIP3   OH212876   6.355   5.436   6.499
 4312TIP3    H112877   6.378   5.509   6.441
 4312TIP3    H212878   6.406   5.362   6.465
 4313TIP3   OH212879   6.277   4.120   2.148
 4313TIP3    H112880   6.361   4.138   2.106
 4313TIP3    H212881   6.299   4.072   2.228
 4314TIP3   OH212882   7.149   6.752   6.656
 4314TIP3    H112883   7.061   6.736   6.688
 4314TIP3    H212884   7.201   6.771   6.734
 4315TIP3   OH212885   6.414   4.144   1.697
 4315TIP3    H112886   6.386   4.082   1.629
 4315TIP3    H212887   6.499   4.112   1.725
 4316TIP3   OH212888   3.755   3.012   1.503
 4316TIP3    H112889   3.791   2.940   1.555
 4316TIP3    H212890   3.831   3.050   1.460
 4317TIP3   OH212891   2.747   0.099   3.459
 4317TIP3    H112892   2.654   0.120   3.467
 4317TIP3    H212893   2.753   0.040   3.384
 4318TIP3   OH212894   2.984   5.324   6.667
 4318TIP3    H112895   3.025   5.366   6.742
 4318TIP3    H212896   3.023   5.367   6.591
 4319TIP3   OH212897   3.866   6.829   0.338
 4319TIP3    H112898   3.779   6.839   0.377
 4319TIP3    H212899   3.926   6.842   0.411
 4320TIP3   OH212900   8.236   2.132   2.117
 4320TIP3    H112901   8.329   2.120   2.137
 4320TIP3    H212902   8.235   2.194   2.045
 4321TIP3   OH212903   0.740   7.576   5.805
 4321TIP3    H112904   0.730   7.670   5.791
 4321TIP3    H212905   0.773   7.569   5.895
 4322TIP3   OH212906   6.553   2.141   6.386
 4322TIP3    H112907   6.567   2.119   6.478
 4322TIP3    H212908   6.563   2.236   6.382
 4323TIP3   OH212909   1.667   1.534   6.524
 4323TIP3    H112910   1.732   1.600   6.552
 4323TIP3    H212911   1.589   1.554   6.575
 4324TIP3   OH212912   3.202   4.226   3.383
 4324TIP3    H112913   3.165   4.311   3.411
 4324TIP3    H212914   3.143   4.161   3.422
 4325TIP3   OH212915   4.184   3.557   2.676
 4325TIP3    H112916   4.132   3.629   2.640
 4325TIP3    H212917   4.248   3.599   2.733
 4326TIP3   OH212918   5.240   6.091   3.944
 4326TIP3    H112919   5.168   6.087   4.006
 4326TIP3    H212920   5.208   6.045   3.866
 4327TIP3   OH212921   2.925   6.337   2.683
 4327TIP3    H112922   2.950   6.374   2.598
 4327TIP3    H212923   2.875   6.259   2.661
 4328TIP3   OH212924   1.820   0.002   0.575
 4328TIP3    H112925   1.879   0.069   0.610
 4328TIP3    H212926   1.738   0.049   0.558
 4329TIP3   OH212927   5.400   3.058   6.724
 4329TIP3    H112928   5.407   3.090   6.815
 4329TIP3    H212929   5.390   2.963   6.733
 4330TIP3   OH212930   4.102   3.764   1.232
 4330TIP3    H112931   4.185   3.771   1.278
 4330TIP3    H212932   4.092   3.670   1.214
 4331TIP3   OH212933   1.097   5.393   4.635
 4331TIP3    H112934   1.095   5.454   4.708
 4331TIP3    H212935   1.142   5.316   4.669
 4332TIP3   OH212936   2.021   6.694  -0.023
 4332TIP3    H112937   2.034   6.635   0.051
 4332TIP3    H212938   1.955   6.756   0.007
 4333TIP3   OH212939   8.139   1.170   1.116
 4333TIP3    H112940   8.218   1.148   1.165
 4333TIP3    H212941   8.071   1.177   1.183
 4334TIP3   OH212942   3.144   2.826   5.188
 4334TIP3    H112943   3.115   2.749   5.236
 4334TIP3    H212944   3.234   2.807   5.162
 4335TIP3   OH212945   2.813   1.915   5.671
 4335TIP3    H112946   2.768   1.900   5.754
 4335TIP3    H212947   2.775   1.853   5.610
 4336TIP3   OH212948   7.161   2.114   2.966
 4336TIP3    H112949   7.095   2.092   3.031
 4336TIP3    H212950   7.217   2.037   2.961
 4337TIP3   OH212951   3.532   7.847   3.312
 4337TIP3    H112952   3.613   7.886   3.278
 4337TIP3    H212953   3.562   7.777   3.371
 4338TIP3   OH212954   5.229   0.272   5.539
 4338TIP3    H112955   5.220   0.367   5.530
 4338TIP3    H212956   5.197   0.253   5.627
 4339TIP3   OH212957   5.582   0.268   1.726
 4339TIP3    H112958   5.496   0.310   1.721
 4339TIP3    H212959   5.612   0.286   1.815
 4340TIP3   OH212960   0.844   0.455   5.318
 4340TIP3    H112961   0.819   0.422   5.231
 4340TIP3    H212962   0.795   0.536   5.328
 4341TIP3   OH212963   5.907   0.641   5.335
 4341TIP3    H112964   5.855   0.700   5.280
 4341TIP3    H212965   5.920   0.563   5.281
 4342TIP3   OH212966   1.718   2.180   2.675
 4342TIP3    H112967   1.660   2.125   2.622
 4342TIP3    H212968   1.755   2.120   2.740
 4343TIP3   OH212969   6.338   2.029   0.779
 4343TIP3    H112970   6.353   2.052   0.687
 4343TIP3    H212971   6.369   2.105   0.828
 4344TIP3   OH212972   3.446   5.541   1.955
 4344TIP3    H112973   3.467   5.483   1.881
 4344TIP3    H212974   3.501   5.509   2.027
 4345TIP3   OH212975   6.005   6.835   2.052
 4345TIP3    H112976   6.092   6.800   2.037
 4345TIP3    H212977   6.015   6.930   2.044
 4346TIP3   OH212978   6.250   0.679   3.526
 4346TIP3    H112979   6.329   0.625   3.520
 4346TIP3    H212980   6.252   0.715   3.615
 4347TIP3   OH212981   6.249   6.346   5.353
 4347TIP3    H112982   6.240   6.384   5.266
 4347TIP3    H212983   6.173   6.378   5.401
 4348TIP3   OH212984   8.249   6.218   1.191
 4348TIP3    H112985   8.326   6.210   1.247
 4348TIP3    H212986   8.219   6.308   1.204
 4349TIP3   OH212987   8.258   0.831   3.410
 4349TIP3    H112988   8.177   0.788   3.381
 4349TIP3    H212989   8.243   0.851   3.502
 4350TIP3   OH212990   5.179   3.848   4.468
 4350TIP3    H112991   5.163   3.915   4.401
 4350TIP3    H212992   5.209   3.771   4.419
 4351TIP3   OH212993   1.492   5.380   2.477
 4351TIP3    H112994   1.550   5.457   2.481
 4351TIP3    H212995   1.405   5.416   2.460
 4352TIP3   OH212996   2.274   2.646   2.512
 4352TIP3    H112997   2.261   2.581   2.443
 4352TIP3    H212998   2.271   2.594   2.593
 4353TIP3   OH212999   2.015   0.617   3.824
 4353TIP3    H113000   1.930   0.610   3.869
 4353TIP3    H213001   2.015   0.705   3.788
 4354TIP3   OH213002   2.474   2.749   0.626
 4354TIP3    H113003   2.491   2.750   0.532
 4354TIP3    H213004   2.394   2.801   0.637
 4355TIP3   OH213005   1.861   0.889   1.974
 4355TIP3    H113006   1.936   0.926   2.019
 4355TIP3    H213007   1.884   0.893   1.881
 4356TIP3   OH213008   2.148   5.381   2.160
 4356TIP3    H113009   2.102   5.321   2.218
 4356TIP3    H213010   2.086   5.397   2.088
 4357TIP3   OH213011   0.152   2.166   0.488
 4357TIP3    H113012   0.164   2.071   0.493
 4357TIP3    H213013   0.210   2.201   0.555
 4358TIP3   OH213014   2.149   3.946   2.067
 4358TIP3    H113015   2.053   3.954   2.068
 4358TIP3    H213016   2.180   4.037   2.070
 4359TIP3   OH213017   5.526   6.833   4.164
 4359TIP3    H113018   5.467   6.820   4.090
 4359TIP3    H213019   5.560   6.746   4.183
 4360TIP3   OH213020   4.845   5.025   5.874
 4360TIP3    H113021   4.764   4.974   5.880
 4360TIP3    H213022   4.833   5.079   5.795
 4361TIP3   OH213023   0.781   0.400   5.044
 4361TIP3    H113024   0.846   0.333   5.020
 4361TIP3    H213025   0.699   0.351   5.053
 4362TIP3   OH213026   6.124   2.597   3.094
 4362TIP3    H113027   6.046   2.554   3.129
 4362TIP3    H213028   6.153   2.540   3.023
 4363TIP3   OH213029   2.200   3.558   2.992
 4363TIP3    H113030   2.240   3.600   3.069
 4363TIP3    H213031   2.113   3.531   3.022
 4364TIP3   OH213032   4.973   1.784   4.133
 4364TIP3    H113033   4.982   1.877   4.150
 4364TIP3    H213034   5.043   1.764   4.071
 4365TIP3   OH213035   6.759   0.864   6.752
 4365TIP3    H113036   6.834   0.855   6.810
 4365TIP3    H213037   6.683   0.845   6.808
 4366TIP3   OH213038   5.317   4.496   4.462
 4366TIP3    H113039   5.252   4.557   4.497
 4366TIP3    H213040   5.284   4.409   4.486
 4367TIP3   OH213041   0.731   5.772   2.091
 4367TIP3    H113042   0.643   5.745   2.120
 4367TIP3    H213043   0.748   5.852   2.141
 4368TIP3   OH213044   5.487   0.907   3.978
 4368TIP3    H113045   5.580   0.915   3.957
 4368TIP3    H213046   5.475   0.814   3.997
 4369TIP3   OH213047   7.425   4.500   4.880
 4369TIP3    H113048   7.498   4.561   4.871
 4369TIP3    H213049   7.366   4.541   4.943
 4370TIP3   OH213050   3.732   3.706   0.321
 4370TIP3    H113051   3.708   3.619   0.354
 4370TIP3    H213052   3.652   3.741   0.282
 4371TIP3   OH213053   6.610   2.351   1.785
 4371TIP3    H113054   6.568   2.267   1.805
 4371TIP3    H213055   6.701   2.339   1.812
 4372TIP3   OH213056   2.334   2.567   1.734
 4372TIP3    H113057   2.247   2.529   1.739
 4372TIP3    H213058   2.378   2.535   1.814
 4373TIP3   OH213059   0.840   1.790   1.091
 4373TIP3    H113060   0.857   1.755   1.178
 4373TIP3    H213061   0.845   1.714   1.033
 4374TIP3   OH213062   6.257   4.996   1.405
 4374TIP3    H113063   6.296   4.944   1.476
 4374TIP3    H213064   6.188   5.047   1.448
 4375TIP3   OH213065   2.141   6.246   0.074
 4375TIP3    H113066   2.231   6.215   0.067
 4375TIP3    H213067   2.114   6.262  -0.017
 4376TIP3   OH213068   2.775   3.598   5.742
 4376TIP3    H113069   2.851   3.569   5.692
 4376TIP3    H213070   2.793   3.690   5.762
 4377TIP3   OH213071   1.600   2.200   2.410
 4377TIP3    H113072   1.505   2.189   2.404
 4377TIP3    H213073   1.614   2.295   2.407
 4378TIP3   OH213074   3.701   5.258   5.457
 4378TIP3    H113075   3.754   5.318   5.406
 4378TIP3    H213076   3.724   5.171   5.423
 4379TIP3   OH213077   2.609   4.230   5.846
 4379TIP3    H113078   2.635   4.140   5.862
 4379TIP3    H213079   2.692   4.278   5.841
 4380TIP3   OH213080   3.770   6.540   2.273
 4380TIP3    H113081   3.814   6.469   2.226
 4380TIP3    H213082   3.677   6.517   2.270
 4381TIP3   OH213083   3.613   2.242   6.203
 4381TIP3    H113084   3.651   2.208   6.284
 4381TIP3    H213085   3.580   2.329   6.226
 4382TIP3   OH213086   4.312   2.094   1.700
 4382TIP3    H113087   4.356   2.091   1.785
 4382TIP3    H213088   4.223   2.122   1.720
 4383TIP3   OH213089   4.123   2.043   3.909
 4383TIP3    H113090   4.144   2.034   3.816
 4383TIP3    H213091   4.090   1.957   3.935
 4384TIP3   OH213092   4.109   1.247   5.331
 4384TIP3    H113093   4.074   1.305   5.399
 4384TIP3    H213094   4.204   1.257   5.337
 4385TIP3   OH213095   7.450   6.837   4.690
 4385TIP3    H113096   7.528   6.785   4.673
 4385TIP3    H213097   7.478   6.905   4.752
 4386TIP3   OH213098   5.052   4.024   4.808
 4386TIP3    H113099   5.142   4.051   4.792
 4386TIP3    H213100   5.043   4.022   4.903
 4387TIP3   OH213101   8.387   2.366   0.395
 4387TIP3    H113102   8.321   2.310   0.356
 4387TIP3    H213103   8.456   2.306   0.424
 4388TIP3   OH213104   2.590   0.404   1.853
 4388TIP3    H113105   2.580   0.313   1.882
 4388TIP3    H213106   2.506   0.426   1.813
 4389TIP3   OH213107   5.982   3.871   6.701
 4389TIP3    H113108   5.965   3.784   6.664
 4389TIP3    H213109   6.072   3.891   6.675
 4390TIP3   OH213110   6.820   6.113   5.884
 4390TIP3    H113111   6.776   6.040   5.928
 4390TIP3    H213112   6.900   6.126   5.935
 4391TIP3   OH213113   5.529   0.595   0.082
 4391TIP3    H113114   5.548   0.609   0.175
 4391TIP3    H213115   5.595   0.532   0.054
 4392TIP3   OH213116   8.362   2.250   1.897
 4392TIP3    H113117   8.397   2.162   1.883
 4392TIP3    H213118   8.427   2.308   1.858
 4393TIP3   OH213119   5.634   5.449   0.353
 4393TIP3    H113120   5.546   5.481   0.335
 4393TIP3    H213121   5.626   5.354   0.345
 4394TIP3   OH213122   6.227   0.266   6.741
 4394TIP3    H113123   6.216   0.301   6.653
 4394TIP3    H213124   6.138   0.261   6.777
 4395TIP3   OH213125   5.469   1.525   0.138
 4395TIP3    H113126   5.478   1.571   0.054
 4395TIP3    H213127   5.551   1.543   0.184
 4396TIP3   OH213128   3.499   6.938   2.863
 4396TIP3    H113129   3.414   6.958   2.904
 4396TIP3    H213130   3.515   6.846   2.884
 4397TIP3   OH213131   6.921   5.338   6.683
 4397TIP3    H113132   6.925   5.398   6.757
 4397TIP3    H213133   6.866   5.266   6.713
 4398TIP3   OH213134   1.130   1.615   5.975
 4398TIP3    H113135   1.052   1.639   5.924
 4398TIP3    H213136   1.167   1.699   6.004
 4399TIP3   OH213137   0.126   7.853   0.820
 4399TIP3    H113138   0.160   7.909   0.891
 4399TIP3    H213139   0.202   7.833   0.767
 4400TIP3   OH213140   4.563   7.643   3.271
 4400TIP3    H113141   4.525   7.686   3.348
 4400TIP3    H213142   4.618   7.574   3.307
 4401TIP3   OH213143   3.842   3.638   3.711
 4401TIP3    H113144   3.924   3.670   3.749
 4401TIP3    H213145   3.867   3.607   3.624
 4402TIP3   OH213146   4.558   4.879   2.175
 4402TIP3    H113147   4.501   4.953   2.197
 4402TIP3    H213148   4.620   4.915   2.112
 4403TIP3   OH213149   2.982   7.448   5.344
 4403TIP3    H113150   2.953   7.369   5.299
 4403TIP3    H213151   3.002   7.510   5.273
 4404TIP3   OH213152   6.246   3.241   3.410
 4404TIP3    H113153   6.215   3.151   3.424
 4404TIP3    H213154   6.181   3.279   3.350
 4405TIP3   OH213155   6.606   3.039   2.623
 4405TIP3    H113156   6.688   2.990   2.612
 4405TIP3    H213157   6.604   3.061   2.717
 4406TIP3   OH213158   2.494   7.825   3.031
 4406TIP3    H113159   2.464   7.740   2.999
 4406TIP3    H213160   2.583   7.809   3.062
 4407TIP3   OH213161   0.302   5.006   2.406
 4407TIP3    H113162   0.287   4.920   2.444
 4407TIP3    H213163   0.255   5.066   2.464
 4408TIP3   OH213164   7.031   2.109   5.325
 4408TIP3    H113165   6.966   2.099   5.255
 4408TIP3    H213166   7.065   2.021   5.338
 4409TIP3   OH213167   0.549   4.865   1.583
 4409TIP3    H113168   0.625   4.923   1.596
 4409TIP3    H213169   0.477   4.911   1.626
 4410TIP3   OH213170   7.555   4.661   3.853
 4410TIP3    H113171   7.472   4.706   3.839
 4410TIP3    H213172   7.531   4.569   3.863
 4411TIP3   OH213173   2.075   3.603   0.619
 4411TIP3    H113174   2.047   3.693   0.636
 4411TIP3    H213175   2.103   3.571   0.705
 4412TIP3   OH213176   2.467   4.545   4.732
 4412TIP3    H113177   2.395   4.498   4.777
 4412TIP3    H213178   2.438   4.551   4.641
 4413TIP3   OH213179   6.073   7.228   0.390
 4413TIP3    H113180   6.019   7.300   0.423
 4413TIP3    H213181   6.090   7.174   0.467
 4414TIP3   OH213182   2.516   6.428   2.865
 4414TIP3    H113183   2.545   6.447   2.776
 4414TIP3    H213184   2.457   6.353   2.856
 4415TIP3   OH213185   8.299   2.513   2.666
 4415TIP3    H113186   8.253   2.468   2.737
 4415TIP3    H213187   8.375   2.553   2.709
 4416TIP3   OH213188   6.650   5.383   3.438
 4416TIP3    H113189   6.662   5.397   3.532
 4416TIP3    H213190   6.739   5.379   3.403
 4417TIP3   OH213191   3.062   6.339   3.500
 4417TIP3    H113192   3.058   6.433   3.516
 4417TIP3    H213193   2.976   6.317   3.464
 4418TIP3   OH213194   3.412   4.339   0.434
 4418TIP3    H113195   3.464   4.307   0.508
 4418TIP3    H213196   3.416   4.269   0.369
 4419TIP3   OH213197   6.686   6.704   0.276
 4419TIP3    H113198   6.771   6.681   0.236
 4419TIP3    H213199   6.698   6.794   0.305
 4420TIP3   OH213200   2.511   0.209   0.893
 4420TIP3    H113201   2.587   0.175   0.846
 4420TIP3    H213202   2.541   0.215   0.984
 4421TIP3   OH213203   3.732   0.357   6.868
 4421TIP3    H113204   3.677   0.302   6.813
 4421TIP3    H213205   3.680   0.437   6.882
 4422TIP3   OH213206   6.160   2.509   0.063
 4422TIP3    H113207   6.233   2.516   0.124
 4422TIP3    H213208   6.147   2.415   0.052
 4423TIP3   OH213209   5.920   1.971   4.090
 4423TIP3    H113210   5.902   2.005   4.002
 4423TIP3    H213211   5.847   1.912   4.108
 4424TIP3   OH213212   6.108   2.464   2.012
 4424TIP3    H113213   6.154   2.500   2.088
 4424TIP3    H213214   6.127   2.370   2.014
 4425TIP3   OH213215   7.461   4.733   2.557
 4425TIP3    H113216   7.536   4.678   2.536
 4425TIP3    H213217   7.500   4.810   2.601
 4426TIP3   OH213218   5.249   4.284   5.348
 4426TIP3    H113219   5.162   4.261   5.316
 4426TIP3    H213220   5.253   4.379   5.338
 4427TIP3   OH213221   8.362   0.710   0.667
 4427TIP3    H113222   8.381   0.758   0.747
 4427TIP3    H213223   8.340   0.778   0.602
 4428TIP3   OH213224   3.375   4.114   3.737
 4428TIP3    H113225   3.288   4.120   3.775
 4428TIP3    H213226   3.391   4.020   3.729
 4429TIP3   OH213227   4.212   0.784   1.014
 4429TIP3    H113228   4.213   0.731   0.935
 4429TIP3    H213229   4.300   0.776   1.051
 4430TIP3   OH213230   0.393   6.483   6.640
 4430TIP3    H113231   0.411   6.454   6.729
 4430TIP3    H213232   0.367   6.575   6.649
 4431TIP3   OH213233   4.461   1.286   2.628
 4431TIP3    H113234   4.436   1.330   2.709
 4431TIP3    H213235   4.490   1.199   2.656
 4432TIP3   OH213236   0.673   3.633   4.986
 4432TIP3    H113237   0.606   3.572   5.017
 4432TIP3    H213238   0.666   3.629   4.890
 4433TIP3   OH213239   1.015   5.894   2.638
 4433TIP3    H113240   0.942   5.908   2.698
 4433TIP3    H213241   1.022   5.976   2.589
 4434TIP3   OH213242   0.743   6.983   2.617
 4434TIP3    H113243   0.799   7.053   2.649
 4434TIP3    H213244   0.804   6.912   2.596
 4435TIP3   OH213245   6.626   7.137   0.532
 4435TIP3    H113246   6.618   7.171   0.621
 4435TIP3    H213247   6.539   7.148   0.495
 4436TIP3   OH213248   2.850   5.042   4.626
 4436TIP3    H113249   2.915   5.076   4.687
 4436TIP3    H213250   2.793   5.116   4.608
 4437TIP3   OH213251   2.983   1.058   5.506
 4437TIP3    H113252   2.889   1.075   5.515
 4437TIP3    H213253   3.008   1.100   5.424
 4438TIP3   OH213254   7.495   5.811   2.519
 4438TIP3    H113255   7.461   5.762   2.444
 4438TIP3    H213256   7.437   5.785   2.591
 4439TIP3   OH213257   3.201   1.998   5.452
 4439TIP3    H113258   3.114   2.036   5.470
 4439TIP3    H213259   3.260   2.073   5.450
 4440TIP3   OH213260   0.578   3.838   5.560
 4440TIP3    H113261   0.533   3.757   5.585
 4440TIP3    H213262   0.526   3.872   5.487
 4441TIP3   OH213263   5.324   1.977   4.992
 4441TIP3    H113264   5.251   1.939   4.944
 4441TIP3    H213265   5.401   1.952   4.941
 4442TIP3   OH213266   0.451   1.662   4.419
 4442TIP3    H113267   0.399   1.644   4.498
 4442TIP3    H213268   0.528   1.710   4.452
 4443TIP3   OH213269   2.718   7.507   4.737
 4443TIP3    H113270   2.717   7.574   4.669
 4443TIP3    H213271   2.684   7.429   4.694
 4444TIP3   OH213272   1.623   2.579   0.887
 4444TIP3    H113273   1.715   2.561   0.907
 4444TIP3    H213274   1.583   2.595   0.972
 4445TIP3   OH213275   3.831   6.202   5.235
 4445TIP3    H113276   3.847   6.153   5.155
 4445TIP3    H213277   3.916   6.207   5.278
 4446TIP3   OH213278   5.483   1.683   5.030
 4446TIP3    H113279   5.464   1.591   5.008
 4446TIP3    H213280   5.576   1.692   5.012
 4447TIP3   OH213281   4.248   7.265   3.365
 4447TIP3    H113282   4.280   7.176   3.355
 4447TIP3    H213283   4.153   7.257   3.361
 4448TIP3   OH213284   2.381   1.493   4.697
 4448TIP3    H113285   2.384   1.548   4.775
 4448TIP3    H213286   2.393   1.554   4.624
 4449TIP3   OH213287   5.020   3.798   0.630
 4449TIP3    H113288   4.983   3.874   0.585
 4449TIP3    H213289   5.054   3.743   0.560
 4450TIP3   OH213290   5.252   5.520   4.307
 4450TIP3    H113291   5.228   5.428   4.295
 4450TIP3    H213292   5.229   5.561   4.223
 4451TIP3   OH213293   5.700   6.155   3.813
 4451TIP3    H113294   5.727   6.245   3.833
 4451TIP3    H213295   5.638   6.132   3.882
 4452TIP3   OH213296   6.229   6.376   4.775
 4452TIP3    H113297   6.249   6.386   4.868
 4452TIP3    H213298   6.154   6.318   4.773
 4453TIP3   OH213299   5.922   4.010   0.817
 4453TIP3    H113300   5.848   3.966   0.776
 4453TIP3    H213301   5.930   4.093   0.772
 4454TIP3   OH213302   3.687   4.345   2.646
 4454TIP3    H113303   3.621   4.321   2.581
 4454TIP3    H213304   3.770   4.318   2.607
 4455TIP3   OH213305   3.881   2.023   0.496
 4455TIP3    H113306   3.792   2.044   0.470
 4455TIP3    H213307   3.887   2.052   0.587
 4456TIP3   OH213308   1.709   1.533   2.933
 4456TIP3    H113309   1.617   1.557   2.924
 4456TIP3    H213310   1.719   1.455   2.879
 4457TIP3   OH213311   7.638   6.994   0.075
 4457TIP3    H113312   7.636   6.953  -0.011
 4457TIP3    H213313   7.561   7.051   0.077
 4458TIP3   OH213314   3.411   3.544   1.062
 4458TIP3    H113315   3.441   3.563   0.973
 4458TIP3    H213316   3.335   3.600   1.074
 4459TIP3   OH213317   5.810   0.890   4.605
 4459TIP3    H113318   5.740   0.836   4.642
 4459TIP3    H213319   5.891   0.849   4.637
 4460TIP3   OH213320   4.524   0.307   4.492
 4460TIP3    H113321   4.536   0.318   4.586
 4460TIP3    H213322   4.439   0.264   4.484
 4461TIP3   OH213323   4.181   4.082   4.126
 4461TIP3    H113324   4.104   4.097   4.072
 4461TIP3    H213325   4.155   4.111   4.214
 4462TIP3   OH213326   1.009   3.697   5.841
 4462TIP3    H113327   0.993   3.778   5.889
 4462TIP3    H213328   0.976   3.715   5.752
 4463TIP3   OH213329   7.108   4.081   6.485
 4463TIP3    H113330   7.110   4.137   6.407
 4463TIP3    H213331   7.087   3.994   6.451
 4464TIP3   OH213332   0.707   7.327   2.369
 4464TIP3    H113333   0.798   7.334   2.341
 4464TIP3    H213334   0.676   7.244   2.334
 4465TIP3   OH213335   7.438   5.295   2.745
 4465TIP3    H113336   7.488   5.361   2.699
 4465TIP3    H213337   7.415   5.336   2.829
 4466TIP3   OH213338   4.257   6.283   1.880
 4466TIP3    H113339   4.353   6.290   1.881
 4466TIP3    H213340   4.238   6.213   1.941
 4467TIP3   OH213341   4.073   1.218   0.907
 4467TIP3    H113342   4.034   1.186   0.988
 4467TIP3    H213343   4.153   1.167   0.896
 4468TIP3   OH213344   6.336   7.358   0.940
 4468TIP3    H113345   6.253   7.405   0.945
 4468TIP3    H213346   6.311   7.266   0.948
 4469TIP3   OH213347   7.738   1.464   4.588
 4469TIP3    H113348   7.824   1.501   4.610
 4469TIP3    H213349   7.755   1.371   4.573
 4470TIP3   OH213350   3.330   0.425   1.347
 4470TIP3    H113351   3.332   0.484   1.272
 4470TIP3    H213352   3.354   0.481   1.421
 4471TIP3   OH213353   7.088   6.297   3.830
 4471TIP3    H113354   7.099   6.391   3.821
 4471TIP3    H213355   7.095   6.281   3.924
 4472TIP3   OH213356   2.351   6.822   0.194
 4472TIP3    H113357   2.286   6.871   0.143
 4472TIP3    H213358   2.432   6.829   0.144
 4473TIP3   OH213359   0.494   7.585   3.143
 4473TIP3    H113360   0.483   7.636   3.063
 4473TIP3    H213361   0.588   7.582   3.157
 4474TIP3   OH213362   0.343   2.238   2.335
 4474TIP3    H113363   0.303   2.188   2.264
 4474TIP3    H213364   0.271   2.291   2.369
 4475TIP3   OH213365   8.038   2.866   4.276
 4475TIP3    H113366   8.134   2.866   4.280
 4475TIP3    H213367   8.016   2.953   4.242
 4476TIP3   OH213368   1.669   1.248   4.345
 4476TIP3    H113369   1.590   1.238   4.292
 4476TIP3    H213370   1.739   1.211   4.292
 4477TIP3   OH213371   6.964   0.218   1.805
 4477TIP3    H113372   6.997   0.243   1.892
 4477TIP3    H213373   6.954   0.301   1.758
 4478TIP3   OH213374   6.939   4.565   6.251
 4478TIP3    H113375   6.903   4.494   6.198
 4478TIP3    H213376   7.000   4.610   6.193
 4479TIP3   OH213377   2.656   3.339   0.143
 4479TIP3    H113378   2.576   3.321   0.192
 4479TIP3    H213379   2.657   3.434   0.131
 4480TIP3   OH213380   1.032   1.894   0.865
 4480TIP3    H113381   1.119   1.918   0.897
 4480TIP3    H213382   0.978   1.889   0.943
 4481TIP3   OH213383   1.835   5.899   3.702
 4481TIP3    H113384   1.879   5.951   3.769
 4481TIP3    H213385   1.905   5.877   3.640
 4482TIP3   OH213386   7.424   5.525   4.608
 4482TIP3    H113387   7.367   5.558   4.677
 4482TIP3    H213388   7.380   5.447   4.575
 4483TIP3   OH213389   5.146   5.848   3.350
 4483TIP3    H113390   5.195   5.866   3.430
 4483TIP3    H213391   5.194   5.776   3.308
 4484TIP3   OH213392   3.049   2.469   5.685
 4484TIP3    H113393   3.025   2.512   5.767
 4484TIP3    H213394   3.135   2.430   5.703
 4485TIP3   OH213395   3.463   0.945   6.351
 4485TIP3    H113396   3.558   0.939   6.342
 4485TIP3    H213397   3.429   0.869   6.303
 4486TIP3   OH213398   3.608   6.908   0.430
 4486TIP3    H113399   3.518   6.874   0.430
 4486TIP3    H213400   3.604   6.988   0.378
 4487TIP3   OH213401   6.518   1.301   4.252
 4487TIP3    H113402   6.564   1.255   4.323
 4487TIP3    H213403   6.564   1.274   4.173
 4488TIP3   OH213404   5.583   7.274   4.154
 4488TIP3    H113405   5.521   7.268   4.226
 4488TIP3    H213406   5.536   7.322   4.085
 4489TIP3   OH213407   5.323   1.069   3.823
 4489TIP3    H113408   5.374   1.013   3.881
 4489TIP3    H213409   5.369   1.153   3.823
 4490TIP3   OH213410   4.582   5.171   3.789
 4490TIP3    H113411   4.524   5.106   3.748
 4490TIP3    H213412   4.663   5.123   3.807
 4491TIP3   OH213413   2.857   3.163   0.435
 4491TIP3    H113414   2.850   3.076   0.395
 4491TIP3    H213415   2.899   3.217   0.368
 4492TIP3   OH213416   6.805   3.598   6.055
 4492TIP3    H113417   6.859   3.521   6.074
 4492TIP3    H213418   6.811   3.652   6.134
 4493TIP3   OH213419   5.536   2.651   4.714
 4493TIP3    H113420   5.546   2.580   4.651
 4493TIP3    H213421   5.493   2.721   4.665
 4494TIP3   OH213422   4.518   5.538   5.931
 4494TIP3    H113423   4.454   5.556   5.862
 4494TIP3    H213424   4.602   5.559   5.891
 4495TIP3   OH213425   7.068   2.910   4.200
 4495TIP3    H113426   7.048   2.817   4.204
 4495TIP3    H213427   6.994   2.953   4.244
 4496TIP3   OH213428   6.364   4.719   0.887
 4496TIP3    H113429   6.420   4.792   0.916
 4496TIP3    H213430   6.302   4.760   0.827
 4497TIP3   OH213431   2.626   4.315   2.623
 4497TIP3    H113432   2.649   4.231   2.583
 4497TIP3    H213433   2.704   4.342   2.670
 4498TIP3   OH213434   1.330   2.160   5.344
 4498TIP3    H113435   1.417   2.119   5.342
 4498TIP3    H213436   1.301   2.158   5.253
 4499TIP3   OH213437   3.814   3.594   0.665
 4499TIP3    H113438   3.858   3.620   0.584
 4499TIP3    H213439   3.865   3.635   0.735
 4500TIP3   OH213440   7.013   4.617   3.850
 4500TIP3    H113441   6.984   4.553   3.915
 4500TIP3    H213442   7.008   4.571   3.767
 4501TIP3   OH213443   0.643   6.033   1.872
 4501TIP3    H113444   0.652   5.965   1.939
 4501TIP3    H213445   0.721   6.088   1.883
 4502TIP3   OH213446   2.840   7.368   0.444
 4502TIP3    H113447   2.796   7.369   0.359
 4502TIP3    H213448   2.856   7.275   0.461
 4503TIP3   OH213449   4.321   0.813   4.888
 4503TIP3    H113450   4.307   0.902   4.855
 4503TIP3    H213451   4.285   0.814   4.977
 4504TIP3   OH213452   5.346   5.191   4.772
 4504TIP3    H113453   5.314   5.255   4.709
 4504TIP3    H213454   5.390   5.243   4.840
 4505TIP3   OH213455   6.716   7.555   2.043
 4505TIP3    H113456   6.725   7.604   2.124
 4505TIP3    H213457   6.805   7.535   2.016
 4506TIP3   OH213458   0.637   5.339   4.980
 4506TIP3    H113459   0.651   5.304   5.068
 4506TIP3    H213460   0.591   5.422   4.994
 4507TIP3   OH213461   2.955   1.513   1.931
 4507TIP3    H113462   2.903   1.529   1.852
 4507TIP3    H213463   2.981   1.600   1.960
 4508TIP3   OH213464   3.692   2.206   1.807
 4508TIP3    H113465   3.695   2.118   1.843
 4508TIP3    H213466   3.746   2.201   1.728
 4509TIP3   OH213467   6.255   0.670   5.226
 4509TIP3    H113468   6.222   0.756   5.200
 4509TIP3    H213469   6.205   0.608   5.172
 4510TIP3   OH213470   8.285   6.847   2.570
 4510TIP3    H113471   8.347   6.798   2.516
 4510TIP3    H213472   8.263   6.787   2.642
 4511TIP3   OH213473   6.003   3.256   2.304
 4511TIP3    H113474   5.997   3.319   2.376
 4511TIP3    H213475   6.020   3.310   2.227
 4512TIP3   OH213476   0.767   1.448   4.119
 4512TIP3    H113477   0.789   1.404   4.201
 4512TIP3    H213478   0.848   1.491   4.092
 4513TIP3   OH213479   1.286   3.782   4.007
 4513TIP3    H113480   1.347   3.823   3.946
 4513TIP3    H213481   1.246   3.855   4.054
 4514TIP3   OH213482   2.953   7.108   2.782
 4514TIP3    H113483   3.011   7.183   2.770
 4514TIP3    H213484   2.927   7.111   2.874
 4515TIP3   OH213485   7.777   2.163   0.120
 4515TIP3    H113486   7.796   2.070   0.127
 4515TIP3    H213487   7.685   2.171   0.146
 4516TIP3   OH213488   0.616   6.985   0.834
 4516TIP3    H113489   0.520   6.977   0.837
 4516TIP3    H213490   0.648   6.896   0.845
 4517TIP3   OH213491   3.194   7.549   2.623
 4517TIP3    H113492   3.176   7.627   2.675
 4517TIP3    H213493   3.226   7.485   2.686
 4518TIP3   OH213494   3.013   6.115   3.165
 4518TIP3    H113495   3.035   6.202   3.198
 4518TIP3    H213496   2.982   6.068   3.242
 4519TIP3   OH213497   7.054   5.128   2.667
 4519TIP3    H113498   7.097   5.072   2.602
 4519TIP3    H213499   6.961   5.123   2.645
 4520TIP3   OH213500   4.569   6.517   3.567
 4520TIP3    H113501   4.646   6.518   3.510
 4520TIP3    H213502   4.507   6.460   3.523
 4521TIP3   OH213503   0.320   7.222   5.523
 4521TIP3    H113504   0.349   7.311   5.505
 4521TIP3    H213505   0.293   7.187   5.438
 4522TIP3   OH213506   1.208   0.600   3.721
 4522TIP3    H113507   1.145   0.528   3.725
 4522TIP3    H213508   1.285   0.566   3.766
 4523TIP3   OH213509   2.399   2.712   1.136
 4523TIP3    H113510   2.313   2.701   1.096
 4523TIP3    H213511   2.440   2.625   1.129
 4524TIP3   OH213512   6.053   0.732   4.651
 4524TIP3    H113513   6.088   0.821   4.649
 4524TIP3    H213514   6.014   0.719   4.565
 4525TIP3   OH213515   1.339   4.738   4.308
 4525TIP3    H113516   1.417   4.791   4.327
 4525TIP3    H213517   1.265   4.798   4.322
 4526TIP3   OH213518   5.369   3.235   0.914
 4526TIP3    H113519   5.408   3.268   0.995
 4526TIP3    H213520   5.444   3.210   0.860
 4527TIP3   OH213521   2.739   2.901   0.616
 4527TIP3    H113522   2.644   2.906   0.621
 4527TIP3    H213523   2.766   2.863   0.700
 4528TIP3   OH213524   2.876   6.970   5.083
 4528TIP3    H113525   2.834   6.944   5.165
 4528TIP3    H213526   2.804   6.996   5.027
 4529TIP3   OH213527   2.429   1.733   1.322
 4529TIP3    H113528   2.504   1.685   1.358
 4529TIP3    H213529   2.369   1.664   1.292
 4530TIP3   OH213530   5.489   3.531   5.166
 4530TIP3    H113531   5.420   3.465   5.171
 4530TIP3    H213532   5.443   3.613   5.148
 4531TIP3   OH213533   7.011   4.596   5.674
 4531TIP3    H113534   7.073   4.523   5.679
 4531TIP3    H213535   6.989   4.614   5.766
 4532TIP3   OH213536   1.804   4.923   1.323
 4532TIP3    H113537   1.745   4.918   1.399
 4532TIP3    H213538   1.826   4.831   1.304
 4533TIP3   OH213539   4.797   2.939   2.817
 4533TIP3    H113540   4.764   2.950   2.728
 4533TIP3    H213541   4.885   2.976   2.815
 4534TIP3   OH213542   4.559   1.975   1.625
 4534TIP3    H113543   4.469   1.996   1.648
 4534TIP3    H213544   4.610   2.052   1.651
 4535TIP3   OH213545   5.998   5.807   4.912
 4535TIP3    H113546   6.075   5.749   4.916
 4535TIP3    H213547   6.028   5.882   4.861
 4536TIP3   OH213548   3.746   4.732   1.210
 4536TIP3    H113549   3.680   4.797   1.188
 4536TIP3    H213550   3.816   4.782   1.252
 4537TIP3   OH213551   1.752   0.435   4.047
 4537TIP3    H113552   1.768   0.407   3.957
 4537TIP3    H213553   1.750   0.353   4.097
 4538TIP3   OH213554   2.841   5.699   5.137
 4538TIP3    H113555   2.747   5.688   5.122
 4538TIP3    H213556   2.861   5.640   5.210
 4539TIP3   OH213557   6.434   5.295   4.071
 4539TIP3    H113558   6.471   5.327   4.153
 4539TIP3    H213559   6.340   5.303   4.081
 4540TIP3   OH213560   2.042   6.485   0.190
 4540TIP3    H113561   2.093   6.416   0.148
 4540TIP3    H213562   1.954   6.447   0.200
 4541TIP3   OH213563   5.332   6.252   3.025
 4541TIP3    H113564   5.350   6.225   2.934
 4541TIP3    H213565   5.416   6.247   3.069
 4542TIP3   OH213566   8.096   5.362   0.514
 4542TIP3    H113567   8.151   5.370   0.592
 4542TIP3    H213568   8.025   5.304   0.541
 4543TIP3   OH213569   4.745   0.932   1.315
 4543TIP3    H113570   4.655   0.962   1.330
 4543TIP3    H213571   4.746   0.843   1.349
 4544TIP3   OH213572   5.145   7.560   3.408
 4544TIP3    H113573   5.148   7.513   3.325
 4544TIP3    H213574   5.145   7.491   3.474
 4545TIP3   OH213575   7.289   2.394   4.312
 4545TIP3    H113576   7.305   2.396   4.406
 4545TIP3    H213577   7.228   2.321   4.300
 4546TIP3   OH213578   4.560   7.634   6.753
 4546TIP3    H113579   4.530   7.603   6.838
 4546TIP3    H213580   4.569   7.729   6.764
 4547TIP3   OH213581   7.784   3.853   3.773
 4547TIP3    H113582   7.705   3.841   3.827
 4547TIP3    H213583   7.763   3.929   3.718
 4548TIP3   OH213584   5.703   1.889   5.791
 4548TIP3    H113585   5.785   1.888   5.840
 4548TIP3    H213586   5.645   1.830   5.840
 4549TIP3   OH213587   4.692   5.580   1.009
 4549TIP3    H113588   4.731   5.581   1.097
 4549TIP3    H213589   4.714   5.494   0.974
 4550TIP3   OH213590   2.010   7.930   4.087
 4550TIP3    H113591   2.055   7.845   4.096
 4550TIP3    H213592   1.954   7.919   4.010
 4551TIP3   OH213593   0.408   1.973   1.991
 4551TIP3    H113594   0.498   2.004   2.001
 4551TIP3    H213595   0.354   2.052   1.998
 4552TIP3   OH213596   7.265   7.455   1.259
 4552TIP3    H113597   7.303   7.540   1.283
 4552TIP3    H213598   7.190   7.477   1.203
 4553TIP3   OH213599   1.571   3.711   3.500
 4553TIP3    H113600   1.553   3.621   3.528
 4553TIP3    H213601   1.488   3.743   3.465
 4554TIP3   OH213602   7.201   1.964   4.977
 4554TIP3    H113603   7.148   2.010   4.913
 4554TIP3    H213604   7.280   1.938   4.929
 4555TIP3   OH213605   1.756   4.763   5.094
 4555TIP3    H113606   1.821   4.757   5.165
 4555TIP3    H213607   1.719   4.850   5.103
 4556TIP3   OH213608   5.902   7.848   3.865
 4556TIP3    H113609   5.947   7.820   3.785
 4556TIP3    H213610   5.920   7.779   3.928
 4557TIP3   OH213611   7.570   4.181   3.304
 4557TIP3    H113612   7.620   4.162   3.383
 4557TIP3    H213613   7.585   4.106   3.247
 4558TIP3   OH213614   3.701   0.797   0.321
 4558TIP3    H113615   3.753   0.801   0.241
 4558TIP3    H213616   3.721   0.878   0.367
 4559TIP3   OH213617   6.912   5.002   4.941
 4559TIP3    H113618   6.929   4.925   4.996
 4559TIP3    H213619   6.975   5.067   4.972
 4560TIP3   OH213620   4.323   7.490   5.284
 4560TIP3    H113621   4.380   7.417   5.307
 4560TIP3    H213622   4.235   7.452   5.279
 4561TIP3   OH213623   2.681   2.274   0.221
 4561TIP3    H113624   2.679   2.300   0.129
 4561TIP3    H213625   2.625   2.338   0.266
 4562TIP3   OH213626   6.234   7.861   4.905
 4562TIP3    H113627   6.275   7.830   4.824
 4562TIP3    H213628   6.144   7.830   4.900
 4563TIP3   OH213629   0.517   2.379   4.183
 4563TIP3    H113630   0.432   2.399   4.221
 4563TIP3    H213631   0.499   2.367   4.090
 4564TIP3   OH213632   3.069   4.338   5.003
 4564TIP3    H113633   3.057   4.335   5.098
 4564TIP3    H213634   3.157   4.373   4.990
 4565TIP3   OH213635   2.935   1.639   6.153
 4565TIP3    H113636   2.874   1.600   6.215
 4565TIP3    H213637   2.952   1.726   6.188
 4566TIP3   OH213638   8.297   6.796   2.239
 4566TIP3    H113639   8.314   6.886   2.268
 4566TIP3    H213640   8.345   6.742   2.301
 4567TIP3   OH213641   7.685   0.920   1.044
 4567TIP3    H113642   7.610   0.976   1.062
 4567TIP3    H213643   7.703   0.875   1.127
 4568TIP3   OH213644   3.846   0.406   0.481
 4568TIP3    H113645   3.804   0.480   0.525
 4568TIP3    H213646   3.799   0.399   0.397
 4569TIP3   OH213647   6.161   2.377   3.747
 4569TIP3    H113648   6.167   2.286   3.719
 4569TIP3    H213649   6.227   2.422   3.694
 4570TIP3   OH213650   3.835   7.895   0.768
 4570TIP3    H113651   3.854   7.859   0.682
 4570TIP3    H213652   3.740   7.901   0.772
 4571TIP3   OH213653   0.136   4.157   6.442
 4571TIP3    H113654   0.148   4.062   6.433
 4571TIP3    H213655   0.160   4.192   6.357
 4572TIP3   OH213656   6.614   7.015   1.048
 4572TIP3    H113657   6.695   6.963   1.041
 4572TIP3    H213658   6.594   7.015   1.141
 4573TIP3   OH213659   7.725   1.178   5.471
 4573TIP3    H113660   7.738   1.155   5.563
 4573TIP3    H213661   7.813   1.177   5.434
 4574TIP3   OH213662   5.411   4.368   6.839
 4574TIP3    H113663   5.446   4.373   6.750
 4574TIP3    H213664   5.400   4.275   6.856
 4575TIP3   OH213665   2.375   2.613   5.878
 4575TIP3    H113666   2.397   2.648   5.791
 4575TIP3    H213667   2.350   2.690   5.928
 4576TIP3   OH213668   5.885   1.923   4.392
 4576TIP3    H113669   5.979   1.928   4.375
 4576TIP3    H213670   5.845   1.922   4.305
 4577TIP3   OH213671   2.499   5.648   3.018
 4577TIP3    H113672   2.511   5.628   3.111
 4577TIP3    H213673   2.537   5.735   3.007
 4578TIP3   OH213674   4.147   1.583   4.462
 4578TIP3    H113675   4.237   1.600   4.436
 4578TIP3    H213676   4.141   1.615   4.552
 4579TIP3   OH213677   6.919   4.477   4.058
 4579TIP3    H113678   6.921   4.432   4.142
 4579TIP3    H213679   6.860   4.551   4.071
 4580TIP3   OH213680   0.519   5.545   4.510
 4580TIP3    H113681   0.435   5.502   4.531
 4580TIP3    H213682   0.533   5.606   4.583
 4581TIP3   OH213683   7.768   0.933   2.849
 4581TIP3    H113684   7.715   0.910   2.925
 4581TIP3    H213685   7.760   1.028   2.843
 4582TIP3   OH213686   6.142   2.528   1.466
 4582TIP3    H113687   6.146   2.565   1.554
 4582TIP3    H213688   6.208   2.459   1.466
 4583TIP3   OH213689   1.387   0.258   1.334
 4583TIP3    H113690   1.380   0.351   1.355
 4583TIP3    H213691   1.447   0.222   1.400
 4584TIP3   OH213692   1.611   6.582   6.623
 4584TIP3    H113693   1.590   6.674   6.605
 4584TIP3    H213694   1.539   6.551   6.678
 4585TIP3   OH213695   0.644   3.853   1.045
 4585TIP3    H113696   0.658   3.854   0.950
 4585TIP3    H213697   0.628   3.945   1.067
 4586TIP3   OH213698   0.808   4.877   1.842
 4586TIP3    H113699   0.826   4.955   1.894
 4586TIP3    H213700   0.779   4.811   1.905
 4587TIP3   OH213701   5.709   3.177   0.033
 4587TIP3    H113702   5.629   3.208   0.074
 4587TIP3    H213703   5.691   3.181  -0.061
 4588TIP3   OH213704   3.107   2.911   0.553
 4588TIP3    H113705   3.165   2.836   0.563
 4588TIP3    H213706   3.070   2.902   0.465
 4589TIP3   OH213707   3.365   3.281   6.200
 4589TIP3    H113708   3.446   3.275   6.250
 4589TIP3    H213709   3.385   3.342   6.129
 4590TIP3   OH213710   0.282   3.182   4.715
 4590TIP3    H113711   0.340   3.207   4.787
 4590TIP3    H213712   0.272   3.087   4.725
 4591TIP3   OH213713   4.723   1.787   3.086
 4591TIP3    H113714   4.678   1.832   3.015
 4591TIP3    H213715   4.690   1.827   3.166
 4592TIP3   OH213716   5.809   4.027   3.343
 4592TIP3    H113717   5.760   4.005   3.264
 4592TIP3    H213718   5.799   3.951   3.400
 4593TIP3   OH213719   2.766   1.742   0.234
 4593TIP3    H113720   2.684   1.750   0.283
 4593TIP3    H213721   2.778   1.828   0.192
 4594TIP3   OH213722   0.913   0.949   5.664
 4594TIP3    H113723   0.858   1.010   5.712
 4594TIP3    H213724   0.890   0.963   5.572
 4595TIP3   OH213725   3.244   6.988   1.163
 4595TIP3    H113726   3.193   6.942   1.096
 4595TIP3    H213727   3.189   6.985   1.241
 4596TIP3   OH213728   1.253   6.263   2.643
 4596TIP3    H113729   1.269   6.347   2.685
 4596TIP3    H213730   1.280   6.276   2.552
 4597TIP3   OH213731   2.572   0.172   4.384
 4597TIP3    H113732   2.518   0.219   4.448
 4597TIP3    H213733   2.662   0.197   4.406
 4598TIP3   OH213734   7.047   5.858   2.624
 4598TIP3    H113735   7.099   5.831   2.548
 4598TIP3    H213736   6.977   5.793   2.630
 4599TIP3   OH213737   6.558   2.112   3.577
 4599TIP3    H113738   6.594   2.026   3.597
 4599TIP3    H213739   6.551   2.155   3.662
 4600TIP3   OH213740   2.297   5.601   4.827
 4600TIP3    H113741   2.280   5.610   4.921
 4600TIP3    H213742   2.374   5.655   4.812
 4601TIP3   OH213743   4.334   4.043   6.148
 4601TIP3    H113744   4.417   4.046   6.196
 4601TIP3    H213745   4.360   4.024   6.058
 4602TIP3   OH213746   3.608   1.548   2.497
 4602TIP3    H113747   3.622   1.455   2.485
 4602TIP3    H213748   3.615   1.561   2.592
 4603TIP3   OH213749   2.187   7.337   3.702
 4603TIP3    H113750   2.142   7.259   3.672
 4603TIP3    H213751   2.123   7.383   3.756
 4604TIP3   OH213752   3.259   1.036   3.903
 4604TIP3    H113753   3.247   1.131   3.912
 4604TIP3    H213754   3.286   1.024   3.812
 4605TIP3   OH213755   4.721   2.230   4.993
 4605TIP3    H113756   4.762   2.306   4.952
 4605TIP3    H213757   4.776   2.211   5.070
 4606TIP3   OH213758   1.911   4.276   2.490
 4606TIP3    H113759   1.999   4.294   2.525
 4606TIP3    H213760   1.864   4.358   2.503
 4607TIP3   OH213761   1.817   5.912   5.435
 4607TIP3    H113762   1.764   5.871   5.503
 4607TIP3    H213763   1.800   5.859   5.357
 4608TIP3   OH213764   6.837   1.125   5.515
 4608TIP3    H113765   6.753   1.100   5.554
 4608TIP3    H213766   6.903   1.096   5.579
 4609TIP3   OH213767   2.917   2.100   4.989
 4609TIP3    H113768   2.976   2.158   5.039
 4609TIP3    H213769   2.963   2.016   4.987
 4610TIP3   OH213770   3.124   7.935   0.976
 4610TIP3    H113771   3.070   7.864   1.011
 4610TIP3    H213772   3.130   7.916   0.882
 4611TIP3   OH213773   0.598   1.665   2.112
 4611TIP3    H113774   0.511   1.627   2.107
 4611TIP3    H213775   0.606   1.718   2.033
 4612TIP3   OH213776   2.375   5.447   2.256
 4612TIP3    H113777   2.291   5.430   2.215
 4612TIP3    H213778   2.354   5.493   2.337
 4613TIP3   OH213779   3.019   1.625   5.898
 4613TIP3    H113780   3.010   1.711   5.855
 4613TIP3    H213781   2.969   1.634   5.979
 4614TIP3   OH213782   6.663   0.447   1.680
 4614TIP3    H113783   6.741   0.400   1.709
 4614TIP3    H213784   6.647   0.413   1.591
 4615TIP3   OH213785   3.323   3.158   1.173
 4615TIP3    H113786   3.365   3.126   1.253
 4615TIP3    H213787   3.366   3.111   1.102
 4616TIP3   OH213788   4.886   1.327   2.863
 4616TIP3    H113789   4.869   1.328   2.769
 4616TIP3    H213790   4.809   1.369   2.902
 4617TIP3   OH213791   6.151   5.320  -0.003
 4617TIP3    H113792   6.174   5.291   0.086
 4617TIP3    H213793   6.229   5.299  -0.055
 4618TIP3   OH213794   1.932   4.781   4.229
 4618TIP3    H113795   1.982   4.778   4.148
 4618TIP3    H213796   1.937   4.692   4.264
 4619TIP3   OH213797   1.491   6.542   0.807
 4619TIP3    H113798   1.518   6.613   0.865
 4619TIP3    H213799   1.554   6.544   0.735
 4620TIP3   OH213800   7.095   3.087   1.561
 4620TIP3    H113801   7.022   3.133   1.603
 4620TIP3    H213802   7.156   3.157   1.536
 4621TIP3   OH213803   6.323   5.985   1.002
 4621TIP3    H113804   6.412   5.954   1.018
 4621TIP3    H213805   6.288   6.005   1.089
 4622TIP3   OH213806   3.091   6.947   1.399
 4622TIP3    H113807   3.088   7.041   1.416
 4622TIP3    H213808   3.145   6.911   1.469
 4623TIP3   OH213809   3.106   6.648   2.625
 4623TIP3    H113810   3.054   6.719   2.664
 4623TIP3    H213811   3.072   6.640   2.536
 4624TIP3   OH213812   4.802   0.475   5.643
 4624TIP3    H113813   4.883   0.427   5.657
 4624TIP3    H213814   4.830   0.562   5.612
 4625TIP3   OH213815   7.153   4.268   6.252
 4625TIP3    H113816   7.240   4.234   6.272
 4625TIP3    H213817   7.169   4.347   6.200
 4626TIP3   OH213818   2.294   7.869   3.341
 4626TIP3    H113819   2.233   7.939   3.318
 4626TIP3    H213820   2.335   7.899   3.423
 4627TIP3   OH213821   3.875   2.573   5.861
 4627TIP3    H113822   3.864   2.530   5.945
 4627TIP3    H213823   3.913   2.506   5.804
 4628TIP3   OH213824   2.204   3.320   4.692
 4628TIP3    H113825   2.171   3.231   4.702
 4628TIP3    H213826   2.260   3.316   4.613
 4629TIP3   OH213827   0.111   1.826   3.660
 4629TIP3    H113828   0.064   1.873   3.730
 4629TIP3    H213829   0.174   1.890   3.627
 4630TIP3   OH213830   5.700   2.559   3.948
 4630TIP3    H113831   5.611   2.547   3.915
 4630TIP3    H213832   5.733   2.635   3.900
 4631TIP3   OH213833   1.671   2.854   6.509
 4631TIP3    H113834   1.603   2.840   6.444
 4631TIP3    H213835   1.669   2.948   6.526
 4632TIP3   OH213836   1.664   5.149   0.206
 4632TIP3    H113837   1.737   5.097   0.172
 4632TIP3    H213838   1.702   5.236   0.223
 4633TIP3   OH213839   2.489   3.117   5.322
 4633TIP3    H113840   2.552   3.122   5.393
 4633TIP3    H213841   2.411   3.078   5.361
 4634TIP3   OH213842   3.212   5.038   2.204
 4634TIP3    H113843   3.251   4.964   2.251
 4634TIP3    H213844   3.210   5.010   2.112
 4635TIP3   OH213845   5.823   0.471   0.504
 4635TIP3    H113846   5.775   0.443   0.582
 4635TIP3    H213847   5.756   0.502   0.444
 4636TIP3   OH213848   6.078   7.580   5.765
 4636TIP3    H113849   6.052   7.571   5.673
 4636TIP3    H213850   6.032   7.509   5.810
 4637TIP3   OH213851   5.976   6.666   5.024
 4637TIP3    H113852   6.030   6.744   5.011
 4637TIP3    H213853   5.918   6.688   5.096
 4638TIP3   OH213854   0.925   0.014   5.974
 4638TIP3    H113855   0.892   0.042   5.889
 4638TIP3    H213856   0.973   0.089   6.008
 4639TIP3   OH213857   3.615   6.500   2.696
 4639TIP3    H113858   3.588   6.413   2.725
 4639TIP3    H213859   3.584   6.559   2.765
 4640TIP3   OH213860   0.832   4.179   5.417
 4640TIP3    H113861   0.789   4.214   5.339
 4640TIP3    H213862   0.857   4.257   5.468
 4641TIP3   OH213863   0.524   5.166   3.514
 4641TIP3    H113864   0.509   5.184   3.421
 4641TIP3    H213865   0.546   5.251   3.552
 4642TIP3   OH213866   7.918   0.737   5.135
 4642TIP3    H113867   7.988   0.695   5.184
 4642TIP3    H213868   7.903   0.678   5.060
 4643TIP3   OH213869   0.832   3.918   4.685
 4643TIP3    H113870   0.759   3.929   4.746
 4643TIP3    H213871   0.790   3.905   4.600
 4644TIP3   OH213872   0.601   5.988   0.062
 4644TIP3    H113873   0.565   5.985   0.151
 4644TIP3    H213874   0.605   5.897   0.035
 4645TIP3   OH213875   7.043   7.382   0.515
 4645TIP3    H113876   6.997   7.375   0.432
 4645TIP3    H213877   7.120   7.328   0.504
 4646TIP3   OH213878   6.414   6.315   4.255
 4646TIP3    H113879   6.404   6.324   4.350
 4646TIP3    H213880   6.324   6.314   4.222
 4647TIP3   OH213881   6.172   5.494   0.866
 4647TIP3    H113882   6.139   5.410   0.834
 4647TIP3    H213883   6.202   5.476   0.955
 4648TIP3   OH213884   2.768   1.810   5.390
 4648TIP3    H113885   2.738   1.719   5.389
 4648TIP3    H213886   2.849   1.810   5.341
 4649TIP3   OH213887   4.617   0.947   4.664
 4649TIP3    H113888   4.577   1.008   4.602
 4649TIP3    H213889   4.628   0.998   4.744
 4650TIP3   OH213890   0.256   1.660   2.626
 4650TIP3    H113891   0.339   1.615   2.615
 4650TIP3    H213892   0.271   1.748   2.593
 4651TIP3   OH213893   1.744   6.934   5.208
 4651TIP3    H113894   1.662   6.983   5.202
 4651TIP3    H213895   1.802   6.990   5.258
 4652TIP3   OH213896   6.841   6.895   4.642
 4652TIP3    H113897   6.764   6.874   4.695
 4652TIP3    H213898   6.877   6.974   4.683
 4653TIP3   OH213899   6.018   2.784   6.292
 4653TIP3    H113900   5.927   2.765   6.267
 4653TIP3    H213901   6.041   2.862   6.242
 4654TIP3   OH213902   3.165   4.421   2.635
 4654TIP3    H113903   3.115   4.496   2.669
 4654TIP3    H213904   3.194   4.375   2.714
 4655TIP3   OH213905   5.525   3.265   0.232
 4655TIP3    H113906   5.489   3.261   0.320
 4655TIP3    H213907   5.521   3.358   0.208
 4656TIP3   OH213908   7.883   6.386   5.557
 4656TIP3    H113909   7.903   6.316   5.620
 4656TIP3    H213910   7.807   6.354   5.510
 4657TIP3   OH213911   3.281   5.361   1.664
 4657TIP3    H113912   3.360   5.414   1.647
 4657TIP3    H213913   3.267   5.313   1.583
 4658TIP3   OH213914   2.286   4.205   4.988
 4658TIP3    H113915   2.345   4.272   5.022
 4658TIP3    H213916   2.328   4.174   4.907
 4659TIP3   OH213917   3.072   3.610   3.779
 4659TIP3    H113918   3.021   3.528   3.783
 4659TIP3    H213919   3.157   3.583   3.744
 4660TIP3   OH213920   2.345   0.314   5.254
 4660TIP3    H113921   2.422   0.258   5.249
 4660TIP3    H213922   2.285   0.268   5.312
 4661TIP3   OH213923   2.116   3.773   6.769
 4661TIP3    H113924   2.134   3.792   6.677
 4661TIP3    H213925   2.023   3.795   6.780
 4662TIP3   OH213926   6.475   1.914   5.091
 4662TIP3    H113927   6.457   1.959   5.009
 4662TIP3    H213928   6.535   1.843   5.068
 4663TIP3   OH213929   5.264   1.731   0.169
 4663TIP3    H113930   5.339   1.672   0.163
 4663TIP3    H213931   5.207   1.692   0.235
 4664TIP3   OH213932   7.730   3.240   5.868
 4664TIP3    H113933   7.674   3.188   5.810
 4664TIP3    H213934   7.789   3.287   5.809
 4665TIP3   OH213935   3.548   3.782   4.851
 4665TIP3    H113936   3.480   3.849   4.846
 4665TIP3    H213937   3.626   3.823   4.812
 4666TIP3   OH213938   0.502   3.767   1.256
 4666TIP3    H113939   0.585   3.746   1.299
 4666TIP3    H213940   0.527   3.794   1.167
 4667TIP3   OH213941   1.751   6.918   2.860
 4667TIP3    H113942   1.833   6.967   2.850
 4667TIP3    H213943   1.744   6.866   2.779
 4668TIP3   OH213944   8.234   2.894   4.871
 4668TIP3    H113945   8.288   2.915   4.947
 4668TIP3    H213946   8.146   2.925   4.895
 4669TIP3   OH213947   1.021   5.012   2.289
 4669TIP3    H113948   1.014   5.057   2.205
 4669TIP3    H213949   1.086   4.944   2.275
 4670TIP3   OH213950   0.411   6.289   0.706
 4670TIP3    H113951   0.499   6.301   0.669
 4670TIP3    H213952   0.402   6.194   0.717
 4671TIP3   OH213953   0.220   3.762   1.690
 4671TIP3    H113954   0.253   3.827   1.628
 4671TIP3    H213955   0.176   3.697   1.635
 4672TIP3   OH213956   4.300   6.652   3.866
 4672TIP3    H113957   4.290   6.745   3.885
 4672TIP3    H213958   4.381   6.627   3.911
 4673TIP3   OH213959   1.448   2.915   2.318
 4673TIP3    H113960   1.445   2.897   2.224
 4673TIP3    H213961   1.430   3.008   2.325
 4674TIP3   OH213962   5.796   5.692   1.976
 4674TIP3    H113963   5.879   5.721   2.014
 4674TIP3    H213964   5.797   5.726   1.887
 4675TIP3   OH213965   3.915   6.495   2.728
 4675TIP3    H113966   3.824   6.524   2.722
 4675TIP3    H213967   3.930   6.447   2.646
 4676TIP3   OH213968   1.661   6.062   4.264
 4676TIP3    H113969   1.689   5.971   4.271
 4676TIP3    H213970   1.699   6.105   4.340
 4677TIP3   OH213971   7.663   7.499   2.053
 4677TIP3    H113972   7.750   7.539   2.052
 4677TIP3    H213973   7.618   7.535   1.977
 4678TIP3   OH213974   3.562   1.136   2.623
 4678TIP3    H113975   3.467   1.142   2.632
 4678TIP3    H213976   3.587   1.064   2.682
 4679TIP3   OH213977   1.864   4.981   3.539
 4679TIP3    H113978   1.775   5.011   3.559
 4679TIP3    H213979   1.919   5.025   3.604
 4680TIP3   OH213980   4.478   2.156   3.299
 4680TIP3    H113981   4.429   2.235   3.274
 4680TIP3    H213982   4.472   2.099   3.223
 4681TIP3   OH213983   2.958   6.606   5.399
 4681TIP3    H113984   3.035   6.638   5.353
 4681TIP3    H213985   2.984   6.521   5.434
 4682TIP3   OH213986   5.978   6.950   2.673
 4682TIP3    H113987   5.948   7.013   2.608
 4682TIP3    H213988   5.953   6.864   2.637
 4683TIP3   OH213989   6.892   2.970   6.394
 4683TIP3    H113990   6.909   2.876   6.401
 4683TIP3    H213991   6.878   2.999   6.485
 4684TIP3   OH213992   8.169   0.804   1.186
 4684TIP3    H113993   8.158   0.822   1.093
 4684TIP3    H213994   8.080   0.788   1.218
 4685TIP3   OH213995   0.125   5.568   5.154
 4685TIP3    H113996   0.071   5.610   5.088
 4685TIP3    H213997   0.201   5.625   5.164
 4686TIP3   OH213998   6.284   7.730   1.709
 4686TIP3    H113999   6.374   7.701   1.693
 4686TIP3    H214000   6.294   7.815   1.752
 4687TIP3   OH214001   7.936   5.344   3.950
 4687TIP3    H114002   7.922   5.280   4.020
 4687TIP3    H214003   8.009   5.397   3.981
 4688TIP3   OH214004   0.684   7.695   6.102
 4688TIP3    H114005   0.673   7.784   6.068
 4688TIP3    H214006   0.693   7.706   6.196
 4689TIP3   OH214007   0.125   0.711   2.711
 4689TIP3    H114008   0.117   0.711   2.807
 4689TIP3    H214009   0.218   0.695   2.695
 4690TIP3   OH214010   3.827   7.789   4.017
 4690TIP3    H114011   3.903   7.763   3.964
 4690TIP3    H214012   3.789   7.863   3.969
 4691TIP3   OH214013   0.044   4.047   4.692
 4691TIP3    H114014  -0.013   4.048   4.768
 4691TIP3    H214015   0.132   4.057   4.728
 4692TIP3   OH214016   5.027   0.202   4.072
 4692TIP3    H114017   4.953   0.147   4.099
 4692TIP3    H214018   5.015   0.212   3.977
 4693TIP3   OH214019   5.857   1.613   5.805
 4693TIP3    H114020   5.810   1.533   5.828
 4693TIP3    H214021   5.890   1.597   5.717
 4694TIP3   OH214022   3.465   2.436   3.011
 4694TIP3    H114023   3.540   2.383   2.984
 4694TIP3    H214024   3.409   2.439   2.933
 4695TIP3   OH214025   1.546   2.898   6.261
 4695TIP3    H114026   1.638   2.872   6.249
 4695TIP3    H214027   1.542   2.986   6.224
 4696TIP3   OH214028   0.950   4.304   6.446
 4696TIP3    H114029   0.974   4.335   6.359
 4696TIP3    H214030   0.878   4.242   6.431
 4697TIP3   OH214031   0.828   5.511   1.013
 4697TIP3    H114032   0.818   5.562   1.093
 4697TIP3    H214033   0.869   5.571   0.951
 4698TIP3   OH214034   0.814   7.178   4.487
 4698TIP3    H114035   0.834   7.268   4.513
 4698TIP3    H214036   0.723   7.183   4.455
 4699TIP3   OH214037   1.383   3.957   2.007
 4699TIP3    H114038   1.377   3.952   2.103
 4699TIP3    H214039   1.391   4.051   1.989
 4700TIP3   OH214040   0.795   0.938   2.600
 4700TIP3    H114041   0.821   0.848   2.618
 4700TIP3    H214042   0.772   0.974   2.685
 4701TIP3   OH214043   5.374   6.862   6.330
 4701TIP3    H114044   5.393   6.943   6.283
 4701TIP3    H214045   5.368   6.889   6.422
 4702TIP3   OH214046   7.089   7.295   4.487
 4702TIP3    H114047   7.043   7.365   4.535
 4702TIP3    H214048   7.031   7.276   4.413
 4703TIP3   OH214049   6.458   3.131   3.119
 4703TIP3    H114050   6.419   3.058   3.167
 4703TIP3    H214051   6.405   3.207   3.144
 4704TIP3   OH214052   1.458   2.842   5.729
 4704TIP3    H114053   1.500   2.772   5.680
 4704TIP3    H214054   1.483   2.922   5.682
 4705TIP3   OH214055   6.517   7.598   0.292
 4705TIP3    H114056   6.587   7.660   0.313
 4705TIP3    H214057   6.558   7.535   0.232
 4706TIP3   OH214058   2.223   0.481   3.957
 4706TIP3    H114059   2.260   0.439   3.879
 4706TIP3    H214060   2.150   0.533   3.924
 4707TIP3   OH214061   2.431   7.404   0.714
 4707TIP3    H114062   2.364   7.413   0.782
 4707TIP3    H214063   2.446   7.493   0.682
 4708TIP3   OH214064   1.201   7.352   2.936
 4708TIP3    H114065   1.151   7.377   3.014
 4708TIP3    H214066   1.273   7.299   2.970
 4709TIP3   OH214067   0.677   7.458   1.260
 4709TIP3    H114068   0.675   7.464   1.355
 4709TIP3    H214069   0.648   7.544   1.229
 4710TIP3   OH214070   3.561   4.670   6.629
 4710TIP3    H114071   3.492   4.617   6.589
 4710TIP3    H214072   3.607   4.609   6.687
 4711TIP3   OH214073   2.906   0.339   0.171
 4711TIP3    H114074   2.832   0.284   0.197
 4711TIP3    H214075   2.910   0.331   0.076
 4712TIP3   OH214076   4.994   0.646   5.050
 4712TIP3    H114077   5.061   0.700   5.091
 4712TIP3    H214078   5.038   0.563   5.030
 4713TIP3   OH214079   4.841   3.570   2.994
 4713TIP3    H114080   4.932   3.598   3.001
 4713TIP3    H214081   4.846   3.474   2.990
 4714TIP3   OH214082   5.651   5.836   5.112
 4714TIP3    H114083   5.579   5.899   5.121
 4714TIP3    H214084   5.675   5.840   5.020
 4715TIP3   OH214085   5.263   1.937   3.658
 4715TIP3    H114086   5.192   1.999   3.643
 4715TIP3    H214087   5.259   1.878   3.583
 4716TIP3   OH214088   6.474  -0.005   5.171
 4716TIP3    H114089   6.568  -0.012   5.187
 4716TIP3    H214090   6.467   0.045   5.090
 4717TIP3   OH214091   4.649   6.177   6.194
 4717TIP3    H114092   4.696   6.095   6.212
 4717TIP3    H214093   4.718   6.244   6.192
 4718TIP3   OH214094   3.700   6.295   4.042
 4718TIP3    H114095   3.716   6.272   4.133
 4718TIP3    H214096   3.666   6.214   4.003
 4719TIP3   OH214097   4.562   6.178   0.417
 4719TIP3    H114098   4.615   6.146   0.490
 4719TIP3    H214099   4.528   6.263   0.447
 4720TIP3   OH214100   2.997   7.299   1.835
 4720TIP3    H114101   2.923   7.356   1.812
 4720TIP3    H214102   3.072   7.359   1.842
 4721TIP3   OH214103   5.703   3.287   5.603
 4721TIP3    H114104   5.767   3.294   5.674
 4721TIP3    H214105   5.754   3.304   5.524
 4722TIP3   OH214106   3.296   3.901   3.323
 4722TIP3    H114107   3.236   3.854   3.380
 4722TIP3    H214108   3.354   3.948   3.384
 4723TIP3   OH214109   0.688   6.481   1.142
 4723TIP3    H114110   0.727   6.425   1.075
 4723TIP3    H214111   0.619   6.426   1.181
 4724TIP3   OH214112   0.904   6.869   3.996
 4724TIP3    H114113   0.987   6.915   3.987
 4724TIP3    H214114   0.921   6.801   4.062
 4725TIP3   OH214115   7.445   4.360   1.229
 4725TIP3    H114116   7.483   4.277   1.201
 4725TIP3    H214117   7.421   4.404   1.147
 4726TIP3   OH214118   0.987   1.633   5.682
 4726TIP3    H114119   0.971   1.689   5.607
 4726TIP3    H214120   0.910   1.643   5.737
 4727TIP3   OH214121   4.991   5.566   6.440
 4727TIP3    H114122   4.921   5.535   6.383
 4727TIP3    H214123   4.998   5.500   6.509
 4728TIP3   OH214124   3.991   6.991   3.366
 4728TIP3    H114125   3.964   6.953   3.450
 4728TIP3    H214126   4.036   6.919   3.321
 4729TIP3   OH214127   5.953   2.252   5.428
 4729TIP3    H114128   6.004   2.246   5.347
 4729TIP3    H214129   5.980   2.335   5.468
 4730TIP3   OH214130   2.823   6.401   4.063
 4730TIP3    H114131   2.906   6.356   4.048
 4730TIP3    H214132   2.841   6.462   4.134
 4731TIP3   OH214133   0.480   6.919   3.122
 4731TIP3    H114134   0.560   6.972   3.128
 4731TIP3    H214135   0.409   6.982   3.136
 4732TIP3   OH214136   7.436   5.930   5.444
 4732TIP3    H114137   7.460   6.018   5.475
 4732TIP3    H214138   7.456   5.931   5.351
 4733TIP3   OH214139   5.519   6.107   3.493
 4733TIP3    H114140   5.485   6.193   3.515
 4733TIP3    H214141   5.598   6.098   3.546
 4734TIP3   OH214142   8.258   4.277   2.751
 4734TIP3    H114143   8.226   4.297   2.839
 4734TIP3    H214144   8.301   4.192   2.760
 4735TIP3   OH214145   0.549   3.025   0.603
 4735TIP3    H114146   0.455   3.039   0.593
 4735TIP3    H214147   0.564   2.936   0.570
 4736TIP3   OH214148   5.063   1.242   3.252
 4736TIP3    H114149   5.125   1.209   3.317
 4736TIP3    H214150   5.041   1.330   3.282
 4737TIP3   OH214151   5.683   3.015   4.766
 4737TIP3    H114152   5.690   2.924   4.794
 4737TIP3    H214153   5.618   3.054   4.825
 4738TIP3   OH214154   2.479   3.139   6.052
 4738TIP3    H114155   2.574   3.133   6.041
 4738TIP3    H214156   2.460   3.232   6.045
 4739TIP3   OH214157   0.303   5.951   3.994
 4739TIP3    H114158   0.352   5.877   3.957
 4739TIP3    H214159   0.369   6.020   4.005
 4740TIP3   OH214160   6.276   7.772   5.838
 4740TIP3    H114161   6.227   7.849   5.864
 4740TIP3    H214162   6.210   7.710   5.808
 4741TIP3   OH214163   6.005   2.477   0.378
 4741TIP3    H114164   5.979   2.410   0.315
 4741TIP3    H214165   6.095   2.454   0.402
 4742TIP3   OH214166   5.243   0.868   5.412
 4742TIP3    H114167   5.315   0.929   5.426
 4742TIP3    H214168   5.204   0.856   5.499
 4743TIP3   OH214169   3.713   0.222   5.444
 4743TIP3    H114170   3.653   0.165   5.396
 4743TIP3    H214171   3.709   0.306   5.398
 4744TIP3   OH214172   2.787   3.304   2.549
 4744TIP3    H114173   2.761   3.366   2.481
 4744TIP3    H214174   2.710   3.297   2.606
 4745TIP3   OH214175   3.578   3.915   3.916
 4745TIP3    H114176   3.571   3.839   3.859
 4745TIP3    H214177   3.513   3.899   3.985
 4746TIP3   OH214178   4.143   1.370   6.655
 4746TIP3    H114179   4.147   1.323   6.739
 4746TIP3    H214180   4.178   1.457   6.676
 4747TIP3   OH214181   7.365   0.243   3.222
 4747TIP3    H114182   7.458   0.265   3.230
 4747TIP3    H214183   7.319   0.311   3.271
 4748TIP3   OH214184   4.236   3.452   4.988
 4748TIP3    H114185   4.275   3.534   4.956
 4748TIP3    H214186   4.205   3.474   5.076
 4749TIP3   OH214187   6.409   5.265   3.324
 4749TIP3    H114188   6.418   5.245   3.230
 4749TIP3    H214189   6.495   5.298   3.349
 4750TIP3   OH214190   7.848   6.343   1.843
 4750TIP3    H114191   7.919   6.384   1.892
 4750TIP3    H214192   7.774   6.403   1.853
 4751TIP3   OH214193   5.952   0.927   0.839
 4751TIP3    H114194   5.989   0.854   0.789
 4751TIP3    H214195   5.936   0.996   0.773
 4752TIP3   OH214196   6.439   2.444   4.541
 4752TIP3    H114197   6.480   2.527   4.517
 4752TIP3    H214198   6.427   2.399   4.457
 4753TIP3   OH214199   2.769   1.921   6.818
 4753TIP3    H114200   2.788   1.997   6.874
 4753TIP3    H214201   2.855   1.890   6.789
 4754TIP3   OH214202   3.703   5.627   1.098
 4754TIP3    H114203   3.640   5.572   1.052
 4754TIP3    H214204   3.756   5.665   1.027
 4755TIP3   OH214205   4.476   6.219   5.988
 4755TIP3    H114206   4.397   6.234   6.040
 4755TIP3    H214207   4.548   6.234   6.049
 4756TIP3   OH214208   6.962   0.500   5.723
 4756TIP3    H114209   6.930   0.576   5.675
 4756TIP3    H214210   7.004   0.538   5.801
 4757TIP3   OH214211   4.729   3.378   3.295
 4757TIP3    H114212   4.794   3.333   3.349
 4757TIP3    H214213   4.646   3.362   3.340
 4758TIP3   OH214214   6.864   3.134   6.189
 4758TIP3    H114215   6.849   3.086   6.270
 4758TIP3    H214216   6.777   3.144   6.149
 4759TIP3   OH214217   6.492   4.031   3.043
 4759TIP3    H114218   6.423   4.097   3.046
 4759TIP3    H214219   6.572   4.080   3.064
 4760TIP3   OH214220   3.979   0.264   1.438
 4760TIP3    H114221   4.056   0.209   1.449
 4760TIP3    H214222   3.959   0.294   1.527
 4761TIP3   OH214223   6.297   7.707   4.699
 4761TIP3    H114224   6.325   7.628   4.745
 4761TIP3    H214225   6.344   7.704   4.615
 4762TIP3   OH214226   4.828   2.670   0.935
 4762TIP3    H114227   4.789   2.753   0.907
 4762TIP3    H214228   4.864   2.633   0.855
 4763TIP3   OH214229   7.456   7.645   5.893
 4763TIP3    H114230   7.533   7.646   5.949
 4763TIP3    H214231   7.488   7.614   5.808
 4764TIP3   OH214232   3.981   7.622   4.999
 4764TIP3    H114233   4.022   7.653   4.919
 4764TIP3    H214234   3.971   7.528   4.986
 4765TIP3   OH214235   4.598   1.222   4.772
 4765TIP3    H114236   4.679   1.260   4.738
 4765TIP3    H214237   4.603   1.235   4.867
 4766TIP3   OH214238   1.446   3.763   6.835
 4766TIP3    H114239   1.490   3.845   6.811
 4766TIP3    H214240   1.511   3.715   6.885
 4767TIP3   OH214241   7.293   7.542   5.377
 4767TIP3    H114242   7.242   7.517   5.453
 4767TIP3    H214243   7.309   7.636   5.389
 4768TIP3   OH214244   2.849   6.734   6.226
 4768TIP3    H114245   2.858   6.653   6.276
 4768TIP3    H214246   2.777   6.717   6.165
 4769TIP3   OH214247   5.244   3.640   4.289
 4769TIP3    H114248   5.315   3.597   4.240
 4769TIP3    H214249   5.168   3.632   4.232
 4770TIP3   OH214250   2.136   0.449   4.230
 4770TIP3    H114251   2.181   0.364   4.226
 4770TIP3    H214252   2.131   0.477   4.138
 4771TIP3   OH214253   6.735   1.689   6.396
 4771TIP3    H114254   6.647   1.726   6.408
 4771TIP3    H214255   6.763   1.665   6.484
 4772TIP3   OH214256   2.471   6.463   4.769
 4772TIP3    H114257   2.542   6.498   4.715
 4772TIP3    H214258   2.394   6.513   4.743
 4773TIP3   OH214259   8.163   3.253   3.072
 4773TIP3    H114260   8.146   3.175   3.124
 4773TIP3    H214261   8.219   3.308   3.128
 4774TIP3   OH214262   8.302   4.910   3.443
 4774TIP3    H114263   8.209   4.920   3.425
 4774TIP3    H214264   8.307   4.849   3.517
 4775TIP3   OH214265   6.720   6.102   2.060
 4775TIP3    H114266   6.724   6.010   2.037
 4775TIP3    H214267   6.683   6.145   1.984
 4776TIP3   OH214268   4.631   1.975   2.262
 4776TIP3    H114269   4.657   1.885   2.245
 4776TIP3    H214270   4.612   1.978   2.356
 4777TIP3   OH214271   6.344   2.061   5.859
 4777TIP3    H114272   6.409   1.993   5.878
 4777TIP3    H214273   6.275   2.046   5.923
 4778TIP3   OH214274   7.431   0.228   3.644
 4778TIP3    H114275   7.469   0.144   3.617
 4778TIP3    H214276   7.337   0.217   3.632
 4779TIP3   OH214277   0.492   0.927   5.927
 4779TIP3    H114278   0.443   0.851   5.897
 4779TIP3    H214279   0.542   0.955   5.850
 4780TIP3   OH214280   2.193   0.686   6.731
 4780TIP3    H114281   2.151   0.604   6.704
 4780TIP3    H214282   2.158   0.752   6.672
 4781TIP3   OH214283   2.676   1.326   2.369
 4781TIP3    H114284   2.644   1.416   2.378
 4781TIP3    H214285   2.746   1.332   2.304
 4782TIP3   OH214286   1.908   3.007   0.646
 4782TIP3    H114287   1.941   3.012   0.735
 4782TIP3    H214288   1.867   2.921   0.640
 4783TIP3   OH214289   5.222   6.858   0.402
 4783TIP3    H114290   5.175   6.893   0.327
 4783TIP3    H214291   5.183   6.901   0.478
 4784TIP3   OH214292   2.959   1.985   0.763
 4784TIP3    H114293   2.930   1.931   0.836
 4784TIP3    H214294   3.026   2.042   0.800
 4785TIP3   OH214295   4.896   1.574   2.552
 4785TIP3    H114296   4.811   1.590   2.510
 4785TIP3    H214297   4.956   1.561   2.479
 4786TIP3   OH214298   5.257   1.094   3.417
 4786TIP3    H114299   5.333   1.076   3.472
 4786TIP3    H214300   5.268   1.037   3.341
 4787TIP3   OH214301   8.161   1.353   4.742
 4787TIP3    H114302   8.162   1.260   4.765
 4787TIP3    H214303   8.187   1.397   4.823
 4788TIP3   OH214304   6.243   0.278   5.713
 4788TIP3    H114305   6.291   0.201   5.745
 4788TIP3    H214306   6.298   0.313   5.644
 4789TIP3   OH214307   6.873   2.122   0.957
 4789TIP3    H114308   6.948   2.062   0.960
 4789TIP3    H214309   6.882   2.175   1.036
 4790TIP3   OH214310   3.666   4.299   0.128
 4790TIP3    H114311   3.577   4.325   0.104
 4790TIP3    H214312   3.698   4.249   0.053
 4791TIP3   OH214313   4.836   2.598   6.597
 4791TIP3    H114314   4.777   2.666   6.628
 4791TIP3    H214315   4.787   2.552   6.530
 4792TIP3   OH214316   7.049   5.923   5.617
 4792TIP3    H114317   7.076   5.837   5.649
 4792TIP3    H214318   6.970   5.906   5.565
 4793TIP3   OH214319   5.077   5.751   6.262
 4793TIP3    H114320   5.063   5.699   6.342
 4793TIP3    H214321   5.090   5.686   6.194
 4794TIP3   OH214322   7.515   7.695   5.596
 4794TIP3    H114323   7.503   7.600   5.599
 4794TIP3    H214324   7.524   7.716   5.503
 4795TIP3   OH214325   0.532   0.022   6.226
 4795TIP3    H114326   0.618   0.059   6.244
 4795TIP3    H214327   0.549  -0.055   6.172
 4796TIP3   OH214328   0.712   7.027   4.192
 4796TIP3    H114329   0.751   7.115   4.199
 4796TIP3    H214330   0.764   6.983   4.125
 4797TIP3   OH214331   5.498   0.227   4.429
 4797TIP3    H114332   5.528   0.190   4.512
 4797TIP3    H214333   5.413   0.266   4.450
 4798TIP3   OH214334   2.605   6.257   3.239
 4798TIP3    H114335   2.519   6.297   3.249
 4798TIP3    H214336   2.593   6.167   3.267
 4799TIP3   OH214337   2.228   1.634   6.146
 4799TIP3    H114338   2.249   1.583   6.224
 4799TIP3    H214339   2.251   1.724   6.169
 4800TIP3   OH214340   6.793   0.677   1.148
 4800TIP3    H114341   6.762   0.717   1.066
 4800TIP3    H214342   6.803   0.584   1.126
 4801TIP3   OH214343   4.922   3.118   3.988
 4801TIP3    H114344   4.940   3.180   3.917
 4801TIP3    H214345   5.008   3.098   4.025
 4802TIP3   OH214346   0.574   6.139   3.092
 4802TIP3    H114347   0.637   6.161   3.160
 4802TIP3    H214348   0.506   6.205   3.100
 4803TIP3   OH214349   8.308   0.664   5.335
 4803TIP3    H114350   8.312   0.708   5.419
 4803TIP3    H214351   8.396   0.672   5.298
 4804TIP3   OH214352   2.046   1.739   1.950
 4804TIP3    H114353   2.009   1.806   1.893
 4804TIP3    H214354   2.034   1.657   1.902
 4805TIP3   OH214355   4.425   0.340   0.469
 4805TIP3    H114356   4.428   0.305   0.380
 4805TIP3    H214357   4.341   0.311   0.504
 4806TIP3   OH214358   7.921   0.310   1.689
 4806TIP3    H114359   7.898   0.402   1.674
 4806TIP3    H214360   7.870   0.262   1.624
 4807TIP3   OH214361   0.295   4.836   5.083
 4807TIP3    H114362   0.300   4.890   5.161
 4807TIP3    H214363   0.278   4.897   5.012
 4808TIP3   OH214364   7.870   2.032   1.133
 4808TIP3    H114365   7.960   2.008   1.111
 4808TIP3    H214366   7.826   2.041   1.048
 4809TIP3   OH214367   1.676   2.650   3.481
 4809TIP3    H114368   1.637   2.637   3.394
 4809TIP3    H214369   1.717   2.566   3.501
 4810TIP3   OH214370   6.515   1.998   2.867
 4810TIP3    H114371   6.595   2.005   2.918
 4810TIP3    H214372   6.537   1.941   2.794
 4811TIP3   OH214373   0.881   1.215   4.966
 4811TIP3    H114374   0.903   1.290   5.020
 4811TIP3    H214375   0.858   1.146   5.029
 4812TIP3   OH214376   4.674   1.534   2.368
 4812TIP3    H114377   4.625   1.616   2.360
 4812TIP3    H214378   4.706   1.516   2.279
 4813TIP3   OH214379   8.213   0.286   6.156
 4813TIP3    H114380   8.160   0.365   6.147
 4813TIP3    H214381   8.297   0.308   6.117
 4814TIP3   OH214382   1.918   2.450   6.007
 4814TIP3    H114383   1.981   2.513   5.972
 4814TIP3    H214384   1.845   2.452   5.945
 4815TIP3   OH214385   8.059   5.982   4.163
 4815TIP3    H114386   8.111   5.917   4.116
 4815TIP3    H214387   8.010   6.028   4.095
 4816TIP3   OH214388   3.209   0.892   2.519
 4816TIP3    H114389   3.262   0.855   2.589
 4816TIP3    H214390   3.124   0.847   2.526
 4817TIP3   OH214391   7.340   7.758   2.696
 4817TIP3    H114392   7.332   7.827   2.630
 4817TIP3    H214393   7.383   7.686   2.650
 4818TIP3   OH214394   1.080   6.329   2.865
 4818TIP3    H114395   1.029   6.400   2.905
 4818TIP3    H214396   1.090   6.355   2.773
 4819TIP3   OH214397   7.097   1.955   1.712
 4819TIP3    H114398   7.039   2.031   1.706
 4819TIP3    H214399   7.092   1.915   1.625
 4820TIP3   OH214400   5.102   4.398   4.755
 4820TIP3    H114401   5.093   4.482   4.799
 4820TIP3    H214402   5.025   4.392   4.698
 4821TIP3   OH214403   4.895   6.476   0.344
 4821TIP3    H114404   4.982   6.477   0.304
 4821TIP3    H214405   4.881   6.385   0.368
 4822TIP3   OH214406   7.667   3.412   6.093
 4822TIP3    H114407   7.702   3.332   6.052
 4822TIP3    H214408   7.715   3.419   6.175
 4823TIP3   OH214409   0.512   5.920   5.372
 4823TIP3    H114410   0.603   5.903   5.395
 4823TIP3    H214411   0.477   5.970   5.445
 4824TIP3   OH214412   7.939   1.951   3.685
 4824TIP3    H114413   7.911   1.907   3.765
 4824TIP3    H214414   7.889   1.908   3.615
 4825TIP3   OH214415   4.118   0.455   1.736
 4825TIP3    H114416   4.112   0.360   1.749
 4825TIP3    H214417   4.203   0.468   1.694
 4826TIP3   OH214418   0.911   3.617   2.688
 4826TIP3    H114419   0.990   3.579   2.726
 4826TIP3    H214420   0.854   3.541   2.673
 4827TIP3   OH214421   5.767   0.891   3.297
 4827TIP3    H114422   5.845   0.894   3.241
 4827TIP3    H214423   5.796   0.843   3.375
 4828TIP3   OH214424   0.292   7.800   2.840
 4828TIP3    H114425   0.373   7.808   2.891
 4828TIP3    H214426   0.313   7.839   2.755
 4829TIP3   OH214427   4.016   0.395   5.822
 4829TIP3    H114428   3.969   0.471   5.856
 4829TIP3    H214429   4.068   0.430   5.749
 4830TIP3   OH214430   7.902   5.669   1.973
 4830TIP3    H114431   7.814   5.650   1.939
 4830TIP3    H214432   7.957   5.599   1.938
 4831TIP3   OH214433   0.923   0.888   5.184
 4831TIP3    H114434   0.899   0.827   5.114
 4831TIP3    H214435   1.017   0.874   5.196
 4832TIP3   OH214436   8.144   7.003   0.780
 4832TIP3    H114437   8.228   7.042   0.755
 4832TIP3    H214438   8.154   6.910   0.758
 4833TIP3   OH214439   1.205   4.911   6.488
 4833TIP3    H114440   1.271   4.875   6.547
 4833TIP3    H214441   1.255   4.953   6.418
 4834TIP3   OH214442   3.195   2.708   3.104
 4834TIP3    H114443   3.181   2.643   3.036
 4834TIP3    H214444   3.279   2.685   3.144
 4835TIP3   OH214445   7.503   6.286   0.179
 4835TIP3    H114446   7.576   6.233   0.147
 4835TIP3    H214447   7.523   6.302   0.271
 4836TIP3   OH214448   1.629   1.577   6.830
 4836TIP3    H114449   1.642   1.581   6.924
 4836TIP3    H214450   1.707   1.533   6.797
 4837TIP3   OH214451   6.781   5.121   4.197
 4837TIP3    H114452   6.765   5.076   4.280
 4837TIP3    H214453   6.705   5.179   4.187
 4838TIP3   OH214454   4.191   0.886   1.419
 4838TIP3    H114455   4.180   0.907   1.512
 4838TIP3    H214456   4.114   0.835   1.396
 4839TIP3   OH214457   0.738   3.176   1.210
 4839TIP3    H114458   0.777   3.110   1.267
 4839TIP3    H214459   0.667   3.214   1.262
 4840TIP3   OH214460   0.374   0.888   0.867
 4840TIP3    H114461   0.314   0.862   0.937
 4840TIP3    H214462   0.359   0.824   0.798
 4841TIP3   OH214463   1.206   1.741   4.414
 4841TIP3    H114464   1.207   1.699   4.328
 4841TIP3    H214465   1.126   1.710   4.455
 4842TIP3   OH214466   3.048   1.862   5.232
 4842TIP3    H114467   3.065   1.911   5.313
 4842TIP3    H214468   3.135   1.840   5.199
 4843TIP3   OH214469   5.128   3.149   6.349
 4843TIP3    H114470   5.169   3.086   6.291
 4843TIP3    H214471   5.034   3.141   6.332
 4844TIP3   OH214472   0.333   6.688   2.356
 4844TIP3    H114473   0.337   6.599   2.320
 4844TIP3    H214474   0.416   6.698   2.403
 4845TIP3   OH214475   4.158   2.726   3.683
 4845TIP3    H114476   4.234   2.694   3.732
 4845TIP3    H214477   4.145   2.661   3.614
 4846TIP3   OH214478   4.030   4.284   6.640
 4846TIP3    H114479   4.032   4.337   6.720
 4846TIP3    H214480   4.042   4.347   6.569
 4847TIP3   OH214481   7.950   4.955   3.962
 4847TIP3    H114482   8.040   4.928   3.940
 4847TIP3    H214483   7.961   5.036   4.011
 4848TIP3   OH214484   5.712   0.913   1.691
 4848TIP3    H114485   5.763   0.886   1.767
 4848TIP3    H214486   5.761   0.986   1.653
 4849TIP3   OH214487   1.505   2.135   3.343
 4849TIP3    H114488   1.413   2.140   3.315
 4849TIP3    H214489   1.554   2.162   3.265
 4850TIP3   OH214490   6.341   2.029   1.623
 4850TIP3    H114491   6.385   2.006   1.541
 4850TIP3    H214492   6.307   1.946   1.657
 4851TIP3   OH214493   8.003   2.269   5.615
 4851TIP3    H114494   7.951   2.349   5.625
 4851TIP3    H214495   8.018   2.262   5.521
 4852TIP3   OH214496   3.587   3.987   2.706
 4852TIP3    H114497   3.567   4.079   2.725
 4852TIP3    H214498   3.655   3.963   2.769
 4853TIP3   OH214499   6.811   0.682   4.420
 4853TIP3    H114500   6.723   0.658   4.392
 4853TIP3    H214501   6.868   0.620   4.375
 4854TIP3   OH214502   6.058   3.171   1.307
 4854TIP3    H114503   6.046   3.236   1.237
 4854TIP3    H214504   6.024   3.214   1.385
 4855TIP3   OH214505   7.356   2.044   1.174
 4855TIP3    H114506   7.426   2.069   1.233
 4855TIP3    H214507   7.323   2.127   1.139
 4856TIP3   OH214508   3.508   1.213   3.538
 4856TIP3    H114509   3.484   1.296   3.496
 4856TIP3    H214510   3.578   1.236   3.599
 4857TIP3   OH214511   7.488   1.497   2.004
 4857TIP3    H114512   7.474   1.555   1.929
 4857TIP3    H214513   7.544   1.428   1.970
 4858TIP3   OH214514   3.135   0.190   5.214
 4858TIP3    H114515   3.181   0.114   5.178
 4858TIP3    H214516   3.067   0.209   5.149
 4859TIP3   OH214517   5.913   4.378   3.985
 4859TIP3    H114518   5.988   4.438   3.994
 4859TIP3    H214519   5.944   4.296   4.022
 4860TIP3   OH214520   3.148   0.456   2.883
 4860TIP3    H114521   3.077   0.408   2.927
 4860TIP3    H214522   3.140   0.546   2.915
 4861TIP3   OH214523   4.330   3.387   2.545
 4861TIP3    H114524   4.408   3.442   2.531
 4861TIP3    H214525   4.272   3.441   2.599
 4862TIP3   OH214526   0.199   1.570   0.883
 4862TIP3    H114527   0.165   1.481   0.893
 4862TIP3    H214528   0.266   1.578   0.950
 4863TIP3   OH214529   1.204   5.473   3.602
 4863TIP3    H114530   1.175   5.398   3.551
 4863TIP3    H214531   1.274   5.439   3.658
 4864TIP3   OH214532   0.963   7.537   6.470
 4864TIP3    H114533   1.035   7.576   6.520
 4864TIP3    H214534   0.971   7.443   6.484
 4865TIP3   OH214535   1.189   0.459   4.522
 4865TIP3    H114536   1.237   0.396   4.577
 4865TIP3    H214537   1.257   0.502   4.470
 4866TIP3   OH214538   3.485   6.825   1.961
 4866TIP3    H114539   3.572   6.864   1.952
 4866TIP3    H214540   3.430   6.895   1.996
 4867TIP3   OH214541   0.846   5.923   0.535
 4867TIP3    H114542   0.792   5.986   0.486
 4867TIP3    H214543   0.830   5.945   0.627
 4868TIP3   OH214544   0.935   7.710   4.265
 4868TIP3    H114545   0.845   7.744   4.268
 4868TIP3    H214546   0.967   7.722   4.355
 4869TIP3   OH214547   5.564   2.409   4.218
 4869TIP3    H114548   5.537   2.318   4.203
 4869TIP3    H214549   5.654   2.402   4.252
 4870TIP3   OH214550   3.529   7.549   4.741
 4870TIP3    H114551   3.440   7.584   4.740
 4870TIP3    H214552   3.519   7.459   4.710
 4871TIP3   OH214553   1.318   5.255   1.585
 4871TIP3    H114554   1.344   5.347   1.587
 4871TIP3    H214555   1.228   5.254   1.619
 4872TIP3   OH214556   2.384   0.883   3.851
 4872TIP3    H114557   2.456   0.917   3.800
 4872TIP3    H214558   2.318   0.857   3.786
 4873TIP3   OH214559   4.803   1.764   2.246
 4873TIP3    H114560   4.845   1.678   2.246
 4873TIP3    H214561   4.862   1.819   2.194
 4874TIP3   OH214562   7.368   0.288   3.921
 4874TIP3    H114563   7.273   0.291   3.913
 4874TIP3    H214564   7.400   0.286   3.831
 4875TIP3   OH214565   7.902   7.815   4.872
 4875TIP3    H114566   7.867   7.805   4.960
 4875TIP3    H214567   7.855   7.751   4.820
 4876TIP3   OH214568   2.938   6.726   3.945
 4876TIP3    H114569   2.929   6.640   3.905
 4876TIP3    H214570   2.954   6.709   4.037
 4877TIP3   OH214571   0.970   5.487   1.482
 4877TIP3    H114572   0.919   5.542   1.422
 4877TIP3    H214573   1.060   5.513   1.467
 4878TIP3   OH214574   5.699   1.236   5.653
 4878TIP3    H114575   5.727   1.247   5.744
 4878TIP3    H214576   5.698   1.325   5.618
 4879TIP3   OH214577   0.010   7.149   5.377
 4879TIP3    H114578   0.088   7.199   5.350
 4879TIP3    H214579  -0.049   7.215   5.414
 4880TIP3   OH214580   4.032   4.479   0.111
 4880TIP3    H114581   4.066   4.495   0.199
 4880TIP3    H214582   3.940   4.456   0.124
 4881TIP3   OH214583   5.588   5.744   1.174
 4881TIP3    H114584   5.677   5.771   1.149
 4881TIP3    H214585   5.601   5.666   1.228
 4882TIP3   OH214586   4.977   1.386   5.414
 4882TIP3    H114587   4.890   1.353   5.436
 4882TIP3    H214588   5.024   1.310   5.380
 4883TIP3   OH214589   6.874   3.885   4.691
 4883TIP3    H114590   6.911   3.825   4.627
 4883TIP3    H214591   6.936   3.957   4.696
 4884TIP3   OH214592   5.530   5.090   0.373
 4884TIP3    H114593   5.615   5.114   0.338
 4884TIP3    H214594   5.545   5.074   0.466
 4885TIP3   OH214595   5.944   0.150   6.375
 4885TIP3    H114596   5.945   0.245   6.373
 4885TIP3    H214597   5.852   0.128   6.393
 4886TIP3   OH214598   7.186   3.897   3.735
 4886TIP3    H114599   7.099   3.930   3.716
 4886TIP3    H214600   7.246   3.957   3.691
 4887TIP3   OH214601   3.390   4.468   5.131
 4887TIP3    H114602   3.318   4.495   5.187
 4887TIP3    H214603   3.466   4.517   5.163
 4888TIP3   OH214604   2.542   1.140   3.006
 4888TIP3    H114605   2.555   1.212   2.945
 4888TIP3    H214606   2.617   1.082   2.991
 4889TIP3   OH214607   4.061   1.670   1.355
 4889TIP3    H114608   4.086   1.578   1.362
 4889TIP3    H214609   4.126   1.708   1.297
 4890TIP3   OH214610   7.131   0.268   1.526
 4890TIP3    H114611   7.057   0.282   1.467
 4890TIP3    H214612   7.143   0.353   1.570
 4891TIP3   OH214613   1.254   0.970   4.949
 4891TIP3    H114614   1.193   0.939   4.882
 4891TIP3    H214615   1.200   0.979   5.028
 4892TIP3   OH214616   1.420   2.097   5.915
 4892TIP3    H114617   1.422   2.127   6.006
 4892TIP3    H214618   1.341   2.137   5.878
 4893TIP3   OH214619   0.064   7.908   6.347
 4893TIP3    H114620  -0.015   7.943   6.388
 4893TIP3    H214621   0.074   7.821   6.383
 4894TIP3   OH214622   1.845   7.120   0.424
 4894TIP3    H114623   1.772   7.102   0.484
 4894TIP3    H214624   1.879   7.205   0.453
 4895TIP3   OH214625   4.246   3.614   3.014
 4895TIP3    H114626   4.318   3.578   2.962
 4895TIP3    H214627   4.212   3.540   3.063
 4896TIP3   OH214628   1.663   2.517   0.095
 4896TIP3    H114629   1.721   2.552   0.027
 4896TIP3    H214630   1.628   2.595   0.139
 4897TIP3   OH214631   2.598   6.986   1.282
 4897TIP3    H114632   2.532   7.033   1.232
 4897TIP3    H214633   2.608   6.903   1.236
 4898TIP3   OH214634   1.994   3.103   2.852
 4898TIP3    H114635   1.919   3.161   2.840
 4898TIP3    H214636   1.967   3.041   2.920
 4899TIP3   OH214637   6.484   4.480   4.588
 4899TIP3    H114638   6.491   4.573   4.609
 4899TIP3    H214639   6.548   4.466   4.519
 4900TIP3   OH214640   7.506   2.411   3.642
 4900TIP3    H114641   7.589   2.366   3.653
 4900TIP3    H214642   7.461   2.362   3.572
 4901TIP3   OH214643   0.520   4.976   5.771
 4901TIP3    H114644   0.566   4.896   5.747
 4901TIP3    H214645   0.564   5.045   5.721
 4902TIP3   OH214646   6.038   2.611   0.979
 4902TIP3    H114647   5.971   2.580   1.040
 4902TIP3    H214648   6.054   2.702   1.005
 4903TIP3   OH214649   2.297   7.917   5.772
 4903TIP3    H114650   2.391   7.935   5.772
 4903TIP3    H214651   2.287   7.843   5.831
 4904TIP3   OH214652   7.401   5.521   0.483
 4904TIP3    H114653   7.348   5.442   0.491
 4904TIP3    H214654   7.396   5.544   0.390
 4905TIP3   OH214655   2.267   1.903   6.223
 4905TIP3    H114656   2.265   1.869   6.312
 4905TIP3    H214657   2.338   1.967   6.223
 4906TIP3   OH214658   4.008   7.336   0.174
 4906TIP3    H114659   4.028   7.252   0.217
 4906TIP3    H214660   3.981   7.393   0.246
 4907TIP3   OH214661   4.540   3.833   3.475
 4907TIP3    H114662   4.444   3.836   3.482
 4907TIP3    H214663   4.557   3.771   3.404
 4908TIP3   OH214664   7.374   4.272   4.406
 4908TIP3    H114665   7.371   4.178   4.422
 4908TIP3    H214666   7.429   4.306   4.476
 4909TIP3   OH214667   5.448   7.925   1.209
 4909TIP3    H114668   5.462   7.839   1.168
 4909TIP3    H214669   5.508   7.925   1.284
 4910TIP3   OH214670   0.457   7.077   4.250
 4910TIP3    H114671   0.546   7.047   4.233
 4910TIP3    H214672   0.404   7.030   4.186
 4911TIP3   OH214673   3.213   3.113   6.360
 4911TIP3    H114674   3.273   3.164   6.306
 4911TIP3    H214675   3.187   3.039   6.305
 4912TIP3   OH214676   7.723   1.952   2.551
 4912TIP3    H114677   7.790   2.017   2.531
 4912TIP3    H214678   7.682   1.932   2.466
 4913TIP3   OH214679   3.362   1.448   0.887
 4913TIP3    H114680   3.398   1.525   0.931
 4913TIP3    H214681   3.340   1.479   0.799
 4914TIP3   OH214682   1.293   7.218   1.830
 4914TIP3    H114683   1.220   7.166   1.864
 4914TIP3    H214684   1.292   7.203   1.736
 4915TIP3   OH214685   0.801   7.047   2.243
 4915TIP3    H114686   0.865   7.106   2.204
 4915TIP3    H214687   0.852   6.972   2.273
 4916TIP3   OH214688   7.835   2.211   3.679
 4916TIP3    H114689   7.771   2.203   3.608
 4916TIP3    H214690   7.868   2.122   3.692
 4917TIP3   OH214691   1.749   7.155   3.793
 4917TIP3    H114692   1.707   7.216   3.852
 4917TIP3    H214693   1.773   7.207   3.717
 4918TIP3   OH214694   2.292   6.638   3.184
 4918TIP3    H114695   2.284   6.572   3.115
 4918TIP3    H214696   2.257   6.596   3.262
 4919TIP3   OH214697   5.059   1.286   6.074
 4919TIP3    H114698   5.105   1.366   6.049
 4919TIP3    H214699   5.108   1.253   6.150
 4920TIP3   OH214700   8.010   4.139   5.724
 4920TIP3    H114701   7.991   4.226   5.758
 4920TIP3    H214702   8.105   4.138   5.711
 4921TIP3   OH214703   4.306   4.928   2.575
 4921TIP3    H114704   4.377   4.986   2.602
 4921TIP3    H214705   4.239   4.939   2.643
 4922TIP3   OH214706   3.233   2.375   1.573
 4922TIP3    H114707   3.270   2.290   1.597
 4922TIP3    H214708   3.308   2.434   1.568
 4923TIP3   OH214709   6.466   0.282   1.786
 4923TIP3    H114710   6.522   0.354   1.758
 4923TIP3    H214711   6.509   0.247   1.863
 4924TIP3   OH214712   5.456   7.008   2.249
 4924TIP3    H114713   5.478   7.050   2.166
 4924TIP3    H214714   5.529   6.948   2.265
 4925TIP3   OH214715   4.227   1.241   5.892
 4925TIP3    H114716   4.270   1.304   5.950
 4925TIP3    H214717   4.300   1.191   5.853
 4926TIP3   OH214718   6.152   0.014   1.793
 4926TIP3    H114719   6.222  -0.045   1.821
 4926TIP3    H214720   6.153   0.085   1.857
 4927TIP3   OH214721   5.549   7.697   1.126
 4927TIP3    H114722   5.503   7.614   1.142
 4927TIP3    H214723   5.592   7.684   1.041
 4928TIP3   OH214724   2.278   6.700   3.499
 4928TIP3    H114725   2.214   6.715   3.429
 4928TIP3    H214726   2.247   6.755   3.571
 4929TIP3   OH214727   0.690   3.758   0.791
 4929TIP3    H114728   0.765   3.706   0.762
 4929TIP3    H214729   0.614   3.702   0.772
 4930TIP3   OH214730   7.309   4.433   2.970
 4930TIP3    H114731   7.271   4.354   3.008
 4930TIP3    H214732   7.291   4.426   2.876
 4931TIP3   OH214733   4.879   2.815   4.386
 4931TIP3    H114734   4.962   2.790   4.346
 4931TIP3    H214735   4.836   2.870   4.320
 4932TIP3   OH214736   6.524   7.663   4.927
 4932TIP3    H114737   6.464   7.616   4.986
 4932TIP3    H214738   6.528   7.752   4.962
 4933TIP3   OH214739   6.124   2.193   2.083
 4933TIP3    H114740   6.115   2.117   2.140
 4933TIP3    H214741   6.178   2.162   2.010
 4934TIP3   OH214742   6.108   4.522   3.610
 4934TIP3    H114743   6.202   4.515   3.629
 4934TIP3    H214744   6.104   4.535   3.516
 4935TIP3   OH214745   4.373   2.376   5.798
 4935TIP3    H114746   4.401   2.424   5.876
 4935TIP3    H214747   4.343   2.444   5.737
 4936TIP3   OH214748   1.962   5.966   4.275
 4936TIP3    H114749   2.013   5.942   4.198
 4936TIP3    H214750   1.956   5.886   4.327
 4937TIP3   OH214751   0.201   4.608  -0.014
 4937TIP3    H114752   0.243   4.674   0.041
 4937TIP3    H214753   0.136   4.567   0.043
 4938TIP3   OH214754   8.175   5.338   6.409
 4938TIP3    H114755   8.192   5.244   6.405
 4938TIP3    H214756   8.248   5.378   6.362
 4939TIP3   OH214757   2.732   7.076   4.762
 4939TIP3    H114758   2.799   7.009   4.752
 4939TIP3    H214759   2.678   7.068   4.683
 4940TIP3   OH214760   7.951   2.373   4.046
 4940TIP3    H114761   8.042   2.381   4.017
 4940TIP3    H214762   7.901   2.361   3.965
 4941TIP3   OH214763   0.032   3.576   2.500
 4941TIP3    H114764   0.126   3.558   2.500
 4941TIP3    H214765   0.014   3.608   2.412
 4942TIP3   OH214766   0.408   1.104   1.409
 4942TIP3    H114767   0.492   1.131   1.445
 4942TIP3    H214768   0.393   1.163   1.335
 4943TIP3   OH214769   1.289   4.699   4.901
 4943TIP3    H114770   1.328   4.612   4.915
 4943TIP3    H214771   1.246   4.692   4.816
 4944TIP3   OH214772   6.301   7.156   3.121
 4944TIP3    H114773   6.222   7.108   3.096
 4944TIP3    H214774   6.360   7.146   3.046
 4945TIP3   OH214775   2.051   4.356   4.533
 4945TIP3    H114776   1.975   4.350   4.590
 4945TIP3    H214777   2.108   4.420   4.575
 4946TIP3   OH214778   0.826   6.594   2.253
 4946TIP3    H114779   0.764   6.529   2.285
 4946TIP3    H214780   0.778   6.643   2.186
 4947TIP3   OH214781   2.890   2.400   2.291
 4947TIP3    H114782   2.809   2.390   2.341
 4947TIP3    H214783   2.864   2.387   2.200
 4948TIP3   OH214784   6.501   4.225   4.703
 4948TIP3    H114785   6.450   4.204   4.782
 4948TIP3    H214786   6.488   4.319   4.691
 4949TIP3   OH214787   3.268   0.146   1.191
 4949TIP3    H114788   3.280   0.240   1.206
 4949TIP3    H214789   3.355   0.114   1.167
 4950TIP3   OH214790   7.975   4.596   2.145
 4950TIP3    H114791   7.986   4.507   2.112
 4950TIP3    H214792   7.972   4.650   2.066
 4951TIP3   OH214793   6.259   7.082   0.971
 4951TIP3    H114794   6.165   7.069   0.959
 4951TIP3    H214795   6.298   6.999   0.943
 4952TIP3   OH214796   1.715   3.620   1.301
 4952TIP3    H114797   1.655   3.573   1.359
 4952TIP3    H214798   1.800   3.578   1.315
 4953TIP3   OH214799   7.097   2.969   5.154
 4953TIP3    H114800   7.103   2.879   5.185
 4953TIP3    H214801   7.042   3.013   5.220
 4954TIP3   OH214802   6.623   4.099   2.294
 4954TIP3    H114803   6.693   4.044   2.258
 4954TIP3    H214804   6.584   4.140   2.217
 4955TIP3   OH214805   1.593   1.198   6.082
 4955TIP3    H114806   1.523   1.260   6.063
 4955TIP3    H214807   1.656   1.247   6.134
 4956TIP3   OH214808   1.961   6.660   2.213
 4956TIP3    H114809   2.047   6.622   2.198
 4956TIP3    H214810   1.907   6.588   2.246
 4957TIP3   OH214811   7.015   7.352   1.363
 4957TIP3    H114812   7.111   7.352   1.353
 4957TIP3    H214813   6.987   7.270   1.322
 4958TIP3   OH214814   0.588   7.620   1.743
 4958TIP3    H114815   0.495   7.610   1.766
 4958TIP3    H214816   0.635   7.578   1.815
 4959TIP3   OH214817   8.316   0.298   0.133
 4959TIP3    H114818   8.255   0.262   0.197
 4959TIP3    H214819   8.323   0.230   0.066
 4960TIP3   OH214820   4.667   5.755   3.096
 4960TIP3    H114821   4.639   5.664   3.108
 4960TIP3    H214822   4.620   5.803   3.164
 4961TIP3   OH214823   7.742   4.664   3.481
 4961TIP3    H114824   7.818   4.714   3.451
 4961TIP3    H214825   7.749   4.663   3.577
 4962TIP3   OH214826   8.112   0.311   0.325
 4962TIP3    H114827   8.114   0.292   0.419
 4962TIP3    H214828   8.019   0.316   0.304
 4963TIP3   OH214829   4.826   3.464   4.031
 4963TIP3    H114830   4.812   3.446   4.124
 4963TIP3    H214831   4.738   3.475   3.996
 4964TIP3   OH214832   0.574   3.945   6.018
 4964TIP3    H114833   0.584   3.850   6.011
 4964TIP3    H214834   0.574   3.962   6.112
 4965TIP3   OH214835   2.955   3.098   6.419
 4965TIP3    H114836   2.915   3.156   6.354
 4965TIP3    H214837   3.049   3.113   6.410
 4966TIP3   OH214838   3.446   7.393   1.591
 4966TIP3    H114839   3.440   7.366   1.500
 4966TIP3    H214840   3.434   7.488   1.590
 4967TIP3   OH214841   2.193   2.356   1.273
 4967TIP3    H114842   2.279   2.337   1.236
 4967TIP3    H214843   2.208   2.369   1.366
 4968TIP3   OH214844   3.497   2.139   5.152
 4968TIP3    H114845   3.530   2.164   5.066
 4968TIP3    H214846   3.500   2.043   5.152
 4969TIP3   OH214847   5.570   2.057   1.070
 4969TIP3    H114848   5.566   2.039   1.164
 4969TIP3    H214849   5.618   1.983   1.033
 4970TIP3   OH214850   4.879   5.535   2.074
 4970TIP3    H114851   4.949   5.597   2.094
 4970TIP3    H214852   4.814   5.585   2.025
 4971TIP3   OH214853   6.439   1.363   3.790
 4971TIP3    H114854   6.361   1.402   3.751
 4971TIP3    H214855   6.436   1.389   3.882
 4972TIP3   OH214856   8.267   4.483   1.345
 4972TIP3    H114857   8.177   4.460   1.366
 4972TIP3    H214858   8.309   4.499   1.430
 4973TIP3   OH214859   3.659   2.923   1.930
 4973TIP3    H114860   3.714   2.846   1.945
 4973TIP3    H214861   3.720   2.992   1.905
 4974TIP3   OH214862   4.657   5.668   1.970
 4974TIP3    H114863   4.606   5.606   1.918
 4974TIP3    H214864   4.616   5.753   1.954
 4975TIP3   OH214865   3.257   3.059   5.256
 4975TIP3    H114866   3.307   3.081   5.177
 4975TIP3    H214867   3.207   2.981   5.233
 4976TIP3   OH214868   5.622   2.502   1.513
 4976TIP3    H114869   5.622   2.507   1.609
 4976TIP3    H214870   5.708   2.467   1.491
 4977TIP3   OH214871   6.599   6.658   6.167
 4977TIP3    H114872   6.590   6.700   6.252
 4977TIP3    H214873   6.647   6.722   6.114
 4978TIP3   OH214874   4.390   2.617   3.815
 4978TIP3    H114875   4.410   2.680   3.885
 4978TIP3    H214876   4.465   2.622   3.757
 4979TIP3   OH214877   8.357   0.283   0.551
 4979TIP3    H114878   8.333   0.191   0.543
 4979TIP3    H214879   8.417   0.286   0.625
 4980TIP3   OH214880   2.842   5.330   6.265
 4980TIP3    H114881   2.838   5.264   6.196
 4980TIP3    H214882   2.918   5.383   6.243
 4981TIP3   OH214883   6.810   0.810   4.659
 4981TIP3    H114884   6.859   0.891   4.646
 4981TIP3    H214885   6.809   0.768   4.573
 4982TIP3   OH214886   4.041   1.486   0.879
 4982TIP3    H114887   4.074   1.507   0.792
 4982TIP3    H214888   4.069   1.395   0.893
 4983TIP3   OH214889   6.383   6.587   6.005
 4983TIP3    H114890   6.454   6.607   6.067
 4983TIP3    H214891   6.427   6.581   5.920
 4984TIP3   OH214892   5.858   1.826   6.799
 4984TIP3    H114893   5.779   1.776   6.820
 4984TIP3    H214894   5.843   1.856   6.709
 4985TIP3   OH214895   7.289   3.928   1.561
 4985TIP3    H114896   7.217   3.875   1.527
 4985TIP3    H214897   7.365   3.870   1.556
 4986TIP3   OH214898   5.994   5.637   3.699
 4986TIP3    H114899   6.082   5.638   3.662
 4986TIP3    H214900   5.944   5.579   3.642
 4987TIP3   OH214901   1.775   3.282   4.865
 4987TIP3    H114902   1.850   3.317   4.818
 4987TIP3    H214903   1.724   3.359   4.890
 4988TIP3   OH214904   5.775   6.719   0.109
 4988TIP3    H114905   5.849   6.766   0.148
 4988TIP3    H214906   5.763   6.642   0.166
 4989TIP3   OH214907   5.885   1.712   3.426
 4989TIP3    H114908   5.877   1.657   3.504
 4989TIP3    H214909   5.893   1.649   3.354
 4990TIP3   OH214910   2.056   3.454   0.882
 4990TIP3    H114911   2.097   3.371   0.858
 4990TIP3    H214912   1.964   3.432   0.898
 4991TIP3   OH214913   5.530   0.336   4.826
 4991TIP3    H114914   5.502   0.272   4.761
 4991TIP3    H214915   5.488   0.418   4.799
 4992TIP3   OH214916   3.705   6.361   2.040
 4992TIP3    H114917   3.753   6.352   1.958
 4992TIP3    H214918   3.639   6.428   2.021
 4993TIP3   OH214919   8.115   0.537   0.125
 4993TIP3    H114920   8.142   0.448   0.146
 4993TIP3    H214921   8.176   0.593   0.172
 4994TIP3   OH214922   6.037   7.177   2.036
 4994TIP3    H114923   6.048   7.208   1.946
 4994TIP3    H214924   6.114   7.211   2.082
 4995TIP3   OH214925   3.824   2.226   4.929
 4995TIP3    H114926   3.830   2.134   4.903
 4995TIP3    H214927   3.889   2.271   4.874
 4996TIP3   OH214928   4.356   1.750   4.249
 4996TIP3    H114929   4.284   1.796   4.291
 4996TIP3    H214930   4.434   1.780   4.296
 4997TIP3   OH214931   0.985   5.827   2.393
 4997TIP3    H114932   0.988   5.830   2.489
 4997TIP3    H214933   1.053   5.889   2.365
 4998TIP3   OH214934   1.209   0.173   5.121
 4998TIP3    H114935   1.170   0.253   5.087
 4998TIP3    H214936   1.236   0.196   5.210
 4999TIP3   OH214937   1.995   0.352   3.661
 4999TIP3    H114938   2.002   0.448   3.655
 4999TIP3    H214939   1.926   0.337   3.725
 5000TIP3   OH214940   0.526   6.676   3.017
 5000TIP3    H114941   0.528   6.765   3.053
 5000TIP3    H214942   0.433   6.655   3.011
 5001TIP3   OH214943   0.838   7.610   3.454
 5001TIP3    H114944   0.820   7.654   3.371
 5001TIP3    H214945   0.754   7.570   3.477
 5002TIP3   OH214946   5.787   4.549   4.301
 5002TIP3    H114947   5.746   4.468   4.270
 5002TIP3    H214948   5.725   4.585   4.364
 5003TIP3   OH214949   8.204   7.205   3.811
 5003TIP3    H114950   8.116   7.240   3.799
 5003TIP3    H214951   8.254   7.238   3.736
 5004TIP3   OH214952   2.614   4.823   3.120
 5004TIP3    H114953   2.614   4.900   3.177
 5004TIP3    H214954   2.567   4.852   3.041
 5005TIP3   OH214955   7.620   1.764   1.587
 5005TIP3    H114956   7.586   1.725   1.507
 5005TIP3    H214957   7.592   1.856   1.583
 5006TIP3   OH214958   7.856   3.220   1.903
 5006TIP3    H114959   7.889   3.294   1.853
 5006TIP3    H214960   7.869   3.244   1.994
 5007TIP3   OH214961   5.373   2.290   3.930
 5007TIP3    H114962   5.349   2.198   3.943
 5007TIP3    H214963   5.466   2.287   3.908
 5008TIP3   OH214964   1.994   4.085   1.262
 5008TIP3    H114965   1.973   3.992   1.253
 5008TIP3    H214966   2.049   4.105   1.187
 5009TIP3   OH214967   7.577   5.786   0.098
 5009TIP3    H114968   7.567   5.770   0.192
 5009TIP3    H214969   7.665   5.823   0.090
 5010TIP3   OH214970   0.149   3.153   2.211
 5010TIP3    H114971   0.212   3.081   2.219
 5010TIP3    H214972   0.072   3.113   2.171
 5011TIP3   OH214973   2.284   0.104   1.385
 5011TIP3    H114974   2.227   0.039   1.345
 5011TIP3    H214975   2.370   0.089   1.344
 5012TIP3   OH214976   1.203   5.627   5.292
 5012TIP3    H114977   1.214   5.641   5.386
 5012TIP3    H214978   1.131   5.564   5.286
 5013TIP3   OH214979   5.927   0.544   0.961
 5013TIP3    H114980   6.001   0.484   0.949
 5013TIP3    H214981   5.853   0.486   0.980
 5014TIP3   OH214982   0.353   5.789   1.028
 5014TIP3    H114983   0.309   5.864   1.068
 5014TIP3    H214984   0.413   5.827   0.964
 5015TIP3   OH214985   1.065   5.971   5.861
 5015TIP3    H114986   1.069   6.003   5.951
 5015TIP3    H214987   1.156   5.961   5.835
 5016TIP3   OH214988   6.370   4.098   6.670
 5016TIP3    H114989   6.318   4.178   6.678
 5016TIP3    H214990   6.348   4.063   6.584
 5017TIP3   OH214991   5.119   2.028   5.689
 5017TIP3    H114992   5.126   2.068   5.776
 5017TIP3    H214993   5.159   1.941   5.700
 5018TIP3   OH214994   7.861   2.591   5.909
 5018TIP3    H114995   7.876   2.684   5.921
 5018TIP3    H214996   7.867   2.577   5.814
 5019TIP3   OH214997   3.048   6.348   0.689
 5019TIP3    H114998   3.049   6.301   0.606
 5019TIP3    H214999   2.956   6.368   0.704
 5020TIP3   OH215000   3.059   0.726   1.812
 5020TIP3    H115001   3.109   0.647   1.835
 5020TIP3    H215002   3.125   0.792   1.792
 5021TIP3   OH215003   0.072   3.476   4.787
 5021TIP3    H115004   0.048   3.397   4.835
 5021TIP3    H215005   0.166   3.486   4.801
 5022TIP3   OH215006   3.336   3.477   3.924
 5022TIP3    H115007   3.280   3.412   3.967
 5022TIP3    H215008   3.382   3.520   3.996
 5023TIP3   OH215009   3.447   2.657   4.276
 5023TIP3    H115010   3.449   2.676   4.183
 5023TIP3    H215011   3.368   2.603   4.288
 5024TIP3   OH215012   0.990   5.374   0.770
 5024TIP3    H115013   1.082   5.370   0.799
 5024TIP3    H215014   0.954   5.449   0.817
 5025TIP3   OH215015   7.181   0.718   3.899
 5025TIP3    H115016   7.210   0.738   3.988
 5025TIP3    H215017   7.091   0.688   3.909
 5026TIP3   OH215018   5.948   6.459   2.734
 5026TIP3    H115019   5.935   6.492   2.823
 5026TIP3    H215020   5.986   6.372   2.746
 5027TIP3   OH215021   3.457   3.998   1.931
 5027TIP3    H115022   3.416   4.017   2.015
 5027TIP3    H215023   3.384   4.000   1.868
 5028TIP3   OH215024   5.466   4.734   4.306
 5028TIP3    H115025   5.406   4.705   4.375
 5028TIP3    H215026   5.553   4.714   4.340
 5029TIP3   OH215027   5.579   6.112   5.675
 5029TIP3    H115028   5.511   6.179   5.685
 5029TIP3    H215029   5.618   6.104   5.762
 5030TIP3   OH215030   2.508   5.362   0.449
 5030TIP3    H115031   2.510   5.384   0.356
 5030TIP3    H215032   2.465   5.277   0.453
 5031TIP3   OH215033   8.068   4.177   0.390
 5031TIP3    H115034   8.068   4.267   0.357
 5031TIP3    H215035   7.992   4.172   0.447
 5032TIP3   OH215036   2.534   5.681   6.082
 5032TIP3    H115037   2.554   5.590   6.063
 5032TIP3    H215038   2.523   5.684   6.177
 5033TIP3   OH215039   2.008   3.136   1.404
 5033TIP3    H115040   2.028   3.043   1.409
 5033TIP3    H215041   1.923   3.140   1.360
 5034TIP3   OH215042   6.188   1.002   2.327
 5034TIP3    H115043   6.102   1.007   2.370
 5034TIP3    H215044   6.241   1.067   2.372
 5035TIP3   OH215045   4.235   5.473   0.586
 5035TIP3    H115046   4.208   5.523   0.663
 5035TIP3    H215047   4.193   5.388   0.597
 5036TIP3   OH215048   2.396   5.579   3.610
 5036TIP3    H115049   2.450   5.513   3.566
 5036TIP3    H215050   2.344   5.618   3.539
 5037TIP3   OH215051   3.548   1.772   5.583
 5037TIP3    H115052   3.565   1.849   5.528
 5037TIP3    H215053   3.456   1.779   5.606
 5038TIP3   OH215054   2.988   5.989   0.680
 5038TIP3    H115055   2.952   5.901   0.676
 5038TIP3    H215056   2.925   6.043   0.633
 5039TIP3   OH215057   2.247   3.854   3.481
 5039TIP3    H115058   2.302   3.854   3.559
 5039TIP3    H215059   2.214   3.764   3.476
 5040TIP3   OH215060   7.788   1.309   4.304
 5040TIP3    H115061   7.727   1.242   4.334
 5040TIP3    H215062   7.862   1.304   4.365
 5041TIP3   OH215063   1.762   6.779   6.206
 5041TIP3    H115064   1.722   6.720   6.142
 5041TIP3    H215065   1.688   6.820   6.250
 5042TIP3   OH215066   1.482   5.968   3.718
 5042TIP3    H115067   1.402   5.919   3.732
 5042TIP3    H215068   1.517   5.982   3.807
 5043TIP3   OH215069   0.305   1.170   4.042
 5043TIP3    H115070   0.399   1.181   4.059
 5043TIP3    H215071   0.274   1.113   4.112
 5044TIP3   OH215072   0.906   5.356   0.512
 5044TIP3    H115073   0.934   5.398   0.593
 5044TIP3    H215074   0.925   5.263   0.524
 5045TIP3   OH215075   7.892   2.639   6.217
 5045TIP3    H115076   7.911   2.704   6.149
 5045TIP3    H215077   7.882   2.691   6.297
 5046TIP3   OH215078   2.803   6.839   2.925
 5046TIP3    H115079   2.889   6.799   2.938
 5046TIP3    H215080   2.755   6.776   2.871
 5047TIP3   OH215081   2.708   0.679   1.907
 5047TIP3    H115082   2.754   0.717   1.982
 5047TIP3    H215083   2.748   0.721   1.831
 5048TIP3   OH215084   5.541   7.248   0.103
 5048TIP3    H115085   5.560   7.154   0.113
 5048TIP3    H215086   5.626   7.290   0.102
 5049TIP3   OH215087   1.219   3.165   3.854
 5049TIP3    H115088   1.243   3.251   3.889
 5049TIP3    H215089   1.191   3.182   3.764
 5050TIP3   OH215090   5.721   5.798   4.841
 5050TIP3    H115091   5.804   5.754   4.858
 5050TIP3    H215092   5.681   5.747   4.771
 5051TIP3   OH215093   2.173   3.440   1.168
 5051TIP3    H115094   2.181   3.466   1.076
 5051TIP3    H215095   2.258   3.402   1.189
 5052TIP3   OH215096   2.674   6.586   4.537
 5052TIP3    H115097   2.713   6.568   4.451
 5052TIP3    H215098   2.749   6.584   4.597
 5053TIP3   OH215099   3.496   6.505   0.477
 5053TIP3    H115100   3.572   6.481   0.425
 5053TIP3    H215101   3.421   6.485   0.421
 5054TIP3   OH215102   1.040   7.332   0.676
 5054TIP3    H115103   1.029   7.426   0.689
 5054TIP3    H215104   0.988   7.292   0.746
 5055TIP3   OH215105   0.820   7.515   2.903
 5055TIP3    H115106   0.915   7.512   2.916
 5055TIP3    H215107   0.810   7.523   2.808
 5056TIP3   OH215108   5.528   5.647   2.279
 5056TIP3    H115109   5.447   5.685   2.313
 5056TIP3    H215110   5.598   5.695   2.322
 5057TIP3   OH215111   7.309   0.739   1.561
 5057TIP3    H115112   7.385   0.681   1.561
 5057TIP3    H215113   7.305   0.773   1.472
 5058TIP3   OH215114   5.871   0.941   6.646
 5058TIP3    H115115   5.891   0.875   6.712
 5058TIP3    H215116   5.926   1.016   6.669
 5059TIP3   OH215117   0.084   7.556   5.607
 5059TIP3    H115118   0.146   7.586   5.673
 5059TIP3    H215119   0.075   7.462   5.624
 5060TIP3   OH215120   4.384   5.140   6.641
 5060TIP3    H115121   4.461   5.084   6.646
 5060TIP3    H215122   4.383   5.189   6.723
 5061TIP3   OH215123   3.974   7.173   6.487
 5061TIP3    H115124   4.051   7.218   6.454
 5061TIP3    H215125   3.911   7.176   6.415
 5062TIP3   OH215126   1.379   4.281   6.523
 5062TIP3    H115127   1.335   4.196   6.519
 5062TIP3    H215128   1.307   4.344   6.532
 5063TIP3   OH215129   4.158   7.048   3.653
 5063TIP3    H115130   4.216   7.012   3.586
 5063TIP3    H215131   4.072   7.013   3.632
 5064TIP3   OH215132   3.080   0.815   3.755
 5064TIP3    H115133   3.124   0.751   3.699
 5064TIP3    H215134   3.094   0.899   3.710
 5065TIP3   OH215135   0.463   3.307   3.367
 5065TIP3    H115136   0.531   3.240   3.359
 5065TIP3    H215137   0.467   3.355   3.284
 5066TIP3   OH215138   5.467   7.106   6.219
 5066TIP3    H115139   5.514   7.164   6.279
 5066TIP3    H215140   5.409   7.165   6.170
 5067TIP3   OH215141   6.504   2.890   0.651
 5067TIP3    H115142   6.588   2.847   0.637
 5067TIP3    H215143   6.442   2.817   0.661
 5068TIP3   OH215144   1.138   6.859   1.226
 5068TIP3    H115145   1.045   6.882   1.223
 5068TIP3    H215146   1.155   6.816   1.143
 5069TIP3   OH215147   2.089   0.470   1.586
 5069TIP3    H115148   1.994   0.478   1.590
 5069TIP3    H215149   2.114   0.523   1.511
 5070TIP3   OH215150   5.484   7.403   0.918
 5070TIP3    H115151   5.407   7.421   0.863
 5070TIP3    H215152   5.449   7.353   0.992
 5071TIP3   OH215153   5.940   1.654   2.400
 5071TIP3    H115154   5.930   1.732   2.455
 5071TIP3    H215155   6.004   1.680   2.334
 5072TIP3   OH215156   1.566   1.569   1.228
 5072TIP3    H115157   1.525   1.497   1.276
 5072TIP3    H215158   1.652   1.580   1.269
 5073TIP3   OH215159   3.418   7.507   3.960
 5073TIP3    H115160   3.386   7.596   3.943
 5073TIP3    H215161   3.419   7.465   3.874
 5074TIP3   OH215162   7.204   5.018   6.308
 5074TIP3    H115163   7.267   5.089   6.294
 5074TIP3    H215164   7.225   4.984   6.394
 5075TIP3   OH215165   4.443   4.045   0.763
 5075TIP3    H115166   4.396   4.009   0.838
 5075TIP3    H215167   4.384   4.111   0.728
 5076TIP3   OH215168   5.278   7.383   6.704
 5076TIP3    H115169   5.326   7.334   6.770
 5076TIP3    H215170   5.187   7.353   6.713
 5077TIP3   OH215171   1.309   4.068   0.424
 5077TIP3    H115172   1.238   4.014   0.459
 5077TIP3    H215173   1.302   4.152   0.470
 5078TIP3   OH215174   0.267   1.830   2.161
 5078TIP3    H115175   0.333   1.859   2.097
 5078TIP3    H215176   0.237   1.745   2.127
 5079TIP3   OH215177   5.876   2.075   1.359
 5079TIP3    H115178   5.958   2.027   1.345
 5079TIP3    H215179   5.833   2.029   1.430
 5080TIP3   OH215180   6.894   7.623   2.286
 5080TIP3    H115181   6.865   7.532   2.296
 5080TIP3    H215182   6.973   7.628   2.340
 5081TIP3   OH215183   7.676   2.410   2.192
 5081TIP3    H115184   7.734   2.377   2.123
 5081TIP3    H215185   7.734   2.457   2.252
 5082TIP3   OH215186   3.962   6.363   2.460
 5082TIP3    H115187   4.000   6.411   2.386
 5082TIP3    H215188   3.971   6.271   2.436
 5083TIP3   OH215189   2.677   4.434   0.985
 5083TIP3    H115190   2.747   4.453   0.922
 5083TIP3    H215191   2.651   4.519   1.018
 5084TIP3   OH215192   4.582   5.303   5.051
 5084TIP3    H115193   4.556   5.367   4.984
 5084TIP3    H215194   4.502   5.288   5.102
 5085TIP3   OH215195   1.432   2.365   3.531
 5085TIP3    H115196   1.398   2.426   3.596
 5085TIP3    H215197   1.385   2.387   3.450
 5086TIP3   OH215198   3.528   3.421   2.645
 5086TIP3    H115199   3.443   3.398   2.607
 5086TIP3    H215200   3.583   3.443   2.569
 5087TIP3   OH215201   3.923   2.593   6.747
 5087TIP3    H115202   3.857   2.585   6.679
 5087TIP3    H215203   3.881   2.557   6.826
 5088TIP3   OH215204   2.067   4.805   0.530
 5088TIP3    H115205   2.001   4.797   0.599
 5088TIP3    H215206   2.151   4.797   0.574
 5089TIP3   OH215207   0.749   7.628   3.169
 5089TIP3    H115208   0.791   7.713   3.181
 5089TIP3    H215209   0.769   7.604   3.078
 5090TIP3   OH215210   6.443   0.156   1.142
 5090TIP3    H115211   6.404   0.134   1.057
 5090TIP3    H215212   6.377   0.130   1.206
 5091TIP3   OH215213   4.585   2.284   6.215
 5091TIP3    H115214   4.499   2.323   6.201
 5091TIP3    H215215   4.647   2.353   6.192
 5092TIP3   OH215216   4.177   3.779   0.091
 5092TIP3    H115217   4.224   3.749   0.169
 5092TIP3    H215218   4.244   3.821   0.037
 5093TIP3   OH215219   0.683   0.982   5.070
 5093TIP3    H115220   0.768   0.955   5.103
 5093TIP3    H215221   0.634   1.007   5.148
 5094TIP3   OH215222   8.012   7.028   5.407
 5094TIP3    H115223   7.983   7.102   5.461
 5094TIP3    H215224   8.042   7.068   5.326
 5095TIP3   OH215225   2.910   0.327   6.851
 5095TIP3    H115226   2.916   0.337   6.756
 5095TIP3    H215227   2.817   0.339   6.871
 5096TIP3   OH215228   2.040   4.495   5.071
 5096TIP3    H115229   1.974   4.431   5.045
 5096TIP3    H215230   2.077   4.461   5.152
 5097TIP3   OH215231   1.382   2.308   3.831
 5097TIP3    H115232   1.470   2.301   3.794
 5097TIP3    H215233   1.367   2.402   3.838
 5098TIP3   OH215234   0.575   7.881   0.437
 5098TIP3    H115235   0.556   7.973   0.420
 5098TIP3    H215236   0.509   7.833   0.386
 5099TIP3   OH215237   5.693   4.293   5.182
 5099TIP3    H115238   5.667   4.212   5.138
 5099TIP3    H215239   5.626   4.307   5.249
 5100TIP3   OH215240   3.678   7.797   6.808
 5100TIP3    H115241   3.708   7.707   6.819
 5100TIP3    H215242   3.711   7.824   6.723
 5101TIP3   OH215243   1.027   2.853   6.082
 5101TIP3    H115244   1.122   2.855   6.070
 5101TIP3    H215245   0.997   2.934   6.040
 5102TIP3   OH215246   3.265   1.680   1.615
 5102TIP3    H115247   3.284   1.773   1.622
 5102TIP3    H215248   3.301   1.642   1.696
 5103TIP3   OH215249   7.835   5.736   6.572
 5103TIP3    H115250   7.840   5.744   6.667
 5103TIP3    H215251   7.915   5.688   6.549
 5104TIP3   OH215252   7.428   1.119   3.398
 5104TIP3    H115253   7.347   1.161   3.426
 5104TIP3    H215254   7.427   1.125   3.303
 5105TIP3   OH215255   2.743   5.995   2.018
 5105TIP3    H115256   2.785   6.010   2.103
 5105TIP3    H215257   2.805   6.027   1.953
 5106TIP3   OH215258   6.134   2.244   5.190
 5106TIP3    H115259   6.218   2.206   5.215
 5106TIP3    H215260   6.087   2.172   5.149
 5107TIP3   OH215261   7.534   2.405   1.544
 5107TIP3    H115262   7.497   2.488   1.574
 5107TIP3    H215263   7.616   2.396   1.593
 5108TIP3   OH215264   3.972   5.950   4.261
 5108TIP3    H115265   4.006   5.865   4.232
 5108TIP3    H215266   3.939   5.991   4.181
 5109TIP3   OH215267   8.364   4.492   0.935
 5109TIP3    H115268   8.382   4.519   0.845
 5109TIP3    H215269   8.315   4.411   0.927
 5110TIP3   OH215270   4.906   1.766   1.631
 5110TIP3    H115271   4.981   1.812   1.667
 5110TIP3    H215272   4.847   1.836   1.601
 5111TIP3   OH215273   2.808   0.276   2.408
 5111TIP3    H115274   2.782   0.235   2.490
 5111TIP3    H215275   2.725   0.300   2.366
 5112TIP3   OH215276   6.802   3.950   2.177
 5112TIP3    H115277   6.853   3.993   2.108
 5112TIP3    H215278   6.783   3.863   2.142
 5113TIP3   OH215279   4.112   4.423   5.348
 5113TIP3    H115280   4.187   4.436   5.407
 5113TIP3    H215281   4.133   4.473   5.270
 5114TIP3   OH215282   3.426   4.286   4.816
 5114TIP3    H115283   3.406   4.193   4.814
 5114TIP3    H215284   3.358   4.326   4.762
 5115TIP3   OH215285   1.333   3.555   1.817
 5115TIP3    H115286   1.306   3.583   1.730
 5115TIP3    H215287   1.260   3.503   1.849
 5116TIP3   OH215288   0.040   4.249   0.400
 5116TIP3    H115289   0.085   4.289   0.475
 5116TIP3    H215290  -0.049   4.284   0.405
 5117TIP3   OH215291   3.510   6.416   1.729
 5117TIP3    H115292   3.488   6.337   1.778
 5117TIP3    H215293   3.602   6.432   1.750
 5118TIP3   OH215294   8.055   0.662   3.602
 5118TIP3    H115295   7.981   0.702   3.555
 5118TIP3    H215296   8.097   0.736   3.646
 5119TIP3   OH215297   4.026   0.105   3.078
 5119TIP3    H115298   4.114   0.111   3.040
 5119TIP3    H215299   4.040   0.078   3.169
 5120TIP3   OH215300   7.798   3.199   0.059
 5120TIP3    H115301   7.782   3.209   0.153
 5120TIP3    H215302   7.862   3.128   0.053
 5121TIP3   OH215303   7.423   7.458   3.948
 5121TIP3    H115304   7.492   7.445   3.883
 5121TIP3    H215305   7.456   7.412   4.026
 5122TIP3   OH215306   1.698   2.453   5.828
 5122TIP3    H115307   1.612   2.489   5.849
 5122TIP3    H215308   1.684   2.358   5.827
 5123TIP3   OH215309   7.916   0.446   6.283
 5123TIP3    H115310   7.884   0.459   6.373
 5123TIP3    H215311   7.950   0.531   6.257
 5124TIP3   OH215312   5.978   5.467   5.588
 5124TIP3    H115313   5.947   5.524   5.517
 5124TIP3    H215314   5.907   5.404   5.601
 5125TIP3   OH215315   5.496   2.740   1.397
 5125TIP3    H115316   5.564   2.731   1.463
 5125TIP3    H215317   5.540   2.721   1.314
 5126TIP3   OH215318   6.667   5.315   1.614
 5126TIP3    H115319   6.711   5.399   1.600
 5126TIP3    H215320   6.655   5.310   1.709
 5127TIP3   OH215321   8.010   2.264   0.427
 5127TIP3    H115322   8.034   2.333   0.490
 5127TIP3    H215323   7.927   2.294   0.391
 5128TIP3   OH215324   4.530   6.252   2.685
 5128TIP3    H115325   4.575   6.212   2.759
 5128TIP3    H215326   4.438   6.229   2.698
 5129TIP3   OH215327   6.881   4.112   1.937
 5129TIP3    H115328   6.938   4.137   2.010
 5129TIP3    H215329   6.938   4.115   1.860
 5130TIP3   OH215330   0.982   4.773   3.308
 5130TIP3    H115331   1.043   4.829   3.260
 5130TIP3    H215332   0.903   4.826   3.319
 5131TIP3   OH215333   1.526   4.418   6.292
 5131TIP3    H115334   1.438   4.425   6.255
 5131TIP3    H215335   1.539   4.325   6.307
 5132TIP3   OH215336   5.484   7.109   6.678
 5132TIP3    H115337   5.424   7.090   6.606
 5132TIP3    H215338   5.427   7.140   6.749
 5133TIP3   OH215339   7.315   1.210   0.459
 5133TIP3    H115340   7.339   1.125   0.495
 5133TIP3    H215341   7.276   1.191   0.374
 5134TIP3   OH215342   5.001   6.573   1.184
 5134TIP3    H115343   4.956   6.532   1.110
 5134TIP3    H215344   4.987   6.512   1.256
 5135TIP3   OH215345   2.350   5.050   0.581
 5135TIP3    H115346   2.357   4.955   0.584
 5135TIP3    H215347   2.317   5.069   0.493
 5136TIP3   OH215348   1.036   2.598   2.484
 5136TIP3    H115349   0.963   2.553   2.528
 5136TIP3    H215350   1.114   2.549   2.511
 5137TIP3   OH215351   0.168   4.391   2.726
 5137TIP3    H115352   0.186   4.330   2.655
 5137TIP3    H215353   0.131   4.469   2.683
 5138TIP3   OH215354   2.109   7.021   0.993
 5138TIP3    H115355   2.081   7.110   0.972
 5138TIP3    H215356   2.048   6.965   0.946
 5139TIP3   OH215357   0.577   5.182   1.147
 5139TIP3    H115358   0.502   5.239   1.130
 5139TIP3    H215359   0.599   5.199   1.238
 5140TIP3   OH215360   3.231   3.866   1.495
 5140TIP3    H115361   3.263   3.928   1.561
 5140TIP3    H215362   3.136   3.868   1.504
 5141TIP3   OH215363   3.713   3.901   5.951
 5141TIP3    H115364   3.651   3.862   6.012
 5141TIP3    H215365   3.660   3.921   5.873
 5142TIP3   OH215366   1.172   4.192   5.463
 5142TIP3    H115367   1.088   4.202   5.507
 5142TIP3    H215368   1.176   4.099   5.440
 5143TIP3   OH215369   1.622   0.117   2.678
 5143TIP3    H115370   1.699   0.162   2.642
 5143TIP3    H215371   1.555   0.185   2.681
 5144TIP3   OH215372   1.342   2.738   5.450
 5144TIP3    H115373   1.401   2.728   5.376
 5144TIP3    H215374   1.391   2.704   5.525
 5145TIP3   OH215375   4.228   7.393   2.737
 5145TIP3    H115376   4.144   7.360   2.705
 5145TIP3    H215377   4.208   7.429   2.823
 5146TIP3   OH215378   2.786   0.355   5.655
 5146TIP3    H115379   2.821   0.273   5.621
 5146TIP3    H215380   2.799   0.349   5.750
 5147TIP3   OH215381   1.389   2.288   4.321
 5147TIP3    H115382   1.331   2.364   4.315
 5147TIP3    H215383   1.449   2.297   4.247
 5148TIP3   OH215384   4.579   5.991   0.966
 5148TIP3    H115385   4.617   6.049   1.032
 5148TIP3    H215386   4.653   5.950   0.923
 5149TIP3   OH215387   1.541   1.281   2.529
 5149TIP3    H115388   1.479   1.208   2.522
 5149TIP3    H215389   1.486   1.359   2.527
 5150TIP3   OH215390   6.746   5.847   2.423
 5150TIP3    H115391   6.676   5.907   2.395
 5150TIP3    H215392   6.807   5.846   2.349
 5151TIP3   OH215393   6.586   5.251   4.622
 5151TIP3    H115394   6.592   5.345   4.601
 5151TIP3    H215395   6.674   5.217   4.605
 5152TIP3   OH215396   0.672   6.529   4.533
 5152TIP3    H115397   0.701   6.583   4.460
 5152TIP3    H215398   0.603   6.579   4.576
 5153TIP3   OH215399   4.746   5.137   2.281
 5153TIP3    H115400   4.731   5.123   2.188
 5153TIP3    H215401   4.759   5.231   2.290
 5154TIP3   OH215402   2.202   5.956   4.085
 5154TIP3    H115403   2.287   5.999   4.074
 5154TIP3    H215404   2.220   5.863   4.070
 5155TIP3   OH215405   0.371   7.858   4.143
 5155TIP3    H115406   0.332   7.944   4.127
 5155TIP3    H215407   0.390   7.857   4.237
 5156TIP3   OH215408   1.759   6.811   2.586
 5156TIP3    H115409   1.697   6.772   2.524
 5156TIP3    H215410   1.799   6.883   2.537
 5157TIP3   OH215411   5.794   7.098   1.747
 5157TIP3    H115412   5.843   7.172   1.783
 5157TIP3    H215413   5.727   7.139   1.692
 5158TIP3   OH215414   4.970   7.876   6.631
 5158TIP3    H115415   4.997   7.870   6.723
 5158TIP3    H215416   5.031   7.939   6.592
 5159TIP3   OH215417   3.960   0.816   6.736
 5159TIP3    H115418   4.015   0.803   6.813
 5159TIP3    H215419   4.020   0.842   6.667
 5160TIP3   OH215420   3.601   2.738   1.612
 5160TIP3    H115421   3.582   2.828   1.639
 5160TIP3    H215422   3.686   2.743   1.568
 5161TIP3   OH215423   7.909   3.361   0.299
 5161TIP3    H115424   7.986   3.364   0.242
 5161TIP3    H215425   7.944   3.364   0.388
 5162TIP3   OH215426   2.437   1.552   4.227
 5162TIP3    H115427   2.412   1.640   4.198
 5162TIP3    H215428   2.394   1.493   4.167
 5163TIP3   OH215429   2.606   7.177   2.125
 5163TIP3    H115430   2.697   7.203   2.137
 5163TIP3    H215431   2.581   7.138   2.208
 5164TIP3   OH215432   1.695   3.102   5.850
 5164TIP3    H115433   1.664   3.109   5.759
 5164TIP3    H215434   1.617   3.122   5.903
 5165TIP3   OH215435   6.167   0.665   5.489
 5165TIP3    H115436   6.208   0.699   5.410
 5165TIP3    H215437   6.240   0.652   5.550
 5166TIP3   OH215438   0.582   0.203   2.224
 5166TIP3    H115439   0.591   0.125   2.280
 5166TIP3    H215440   0.490   0.203   2.198
 5167TIP3   OH215441   4.664   3.108   0.519
 5167TIP3    H115442   4.745   3.116   0.469
 5167TIP3    H215443   4.647   3.013   0.522
 5168TIP3   OH215444   6.421   3.275   5.560
 5168TIP3    H115445   6.475   3.267   5.481
 5168TIP3    H215446   6.481   3.306   5.627
 5169TIP3   OH215447   3.008   0.554   0.710
 5169TIP3    H115448   3.032   0.499   0.635
 5169TIP3    H215449   2.944   0.616   0.676
 5170TIP3   OH215450   0.353   4.121   5.070
 5170TIP3    H115451   0.379   4.209   5.096
 5170TIP3    H215452   0.265   4.111   5.106
 5171TIP3   OH215453   4.785   7.894   4.939
 5171TIP3    H115454   4.872   7.882   4.978
 5171TIP3    H215455   4.790   7.847   4.856
 5172TIP3   OH215456   2.086   5.348   3.748
 5172TIP3    H115457   2.046   5.290   3.813
 5172TIP3    H215458   2.171   5.371   3.786
 5173TIP3   OH215459   3.018   6.686   2.372
 5173TIP3    H115460   3.064   6.691   2.289
 5173TIP3    H215461   2.977   6.600   2.373
 5174TIP3   OH215462   6.559   0.035   1.673
 5174TIP3    H115463   6.644   0.049   1.631
 5174TIP3    H215464   6.515   0.120   1.669
 5175TIP3   OH215465   2.279   3.026   5.472
 5175TIP3    H115466   2.321   2.968   5.535
 5175TIP3    H215467   2.185   3.016   5.489
 5176TIP3   OH215468   0.473   3.157   4.951
 5176TIP3    H115469   0.472   3.077   4.897
 5176TIP3    H215470   0.405   3.142   5.016
 5177TIP3   OH215471   7.995   6.688   1.460
 5177TIP3    H115472   7.926   6.747   1.490
 5177TIP3    H215473   7.950   6.629   1.398
 5178TIP3   OH215474   0.941   0.673   0.285
 5178TIP3    H115475   1.014   0.650   0.343
 5178TIP3    H215476   0.977   0.740   0.227
 5179TIP3   OH215477   5.826   3.388   3.200
 5179TIP3    H115478   5.762   3.459   3.211
 5179TIP3    H215479   5.775   3.315   3.167
 5180TIP3   OH215480   7.598   4.313   6.628
 5180TIP3    H115481   7.553   4.318   6.713
 5180TIP3    H215482   7.596   4.220   6.605
 5181TIP3   OH215483   3.029   4.558   6.520
 5181TIP3    H115484   3.078   4.565   6.602
 5181TIP3    H215485   3.096   4.559   6.452
 5182TIP3   OH215486   6.209   4.893   4.348
 5182TIP3    H115487   6.147   4.967   4.346
 5182TIP3    H215488   6.200   4.858   4.437
 5183TIP3   OH215489   4.036   1.670   3.984
 5183TIP3    H115490   4.119   1.628   3.960
 5183TIP3    H215491   3.969   1.609   3.953
 5184TIP3   OH215492   4.307   2.573   5.589
 5184TIP3    H115493   4.258   2.652   5.565
 5184TIP3    H215494   4.399   2.600   5.582
 5185TIP3   OH215495   5.550   4.250   2.591
 5185TIP3    H115496   5.636   4.294   2.594
 5185TIP3    H215497   5.565   4.173   2.536
 5186TIP3   OH215498   0.996   0.439   3.063
 5186TIP3    H115499   0.918   0.386   3.081
 5186TIP3    H215500   1.054   0.379   3.015
 5187TIP3   OH215501   6.976   0.229   2.948
 5187TIP3    H115502   7.001   0.320   2.963
 5187TIP3    H215503   6.937   0.230   2.860
 5188TIP3   OH215504   5.372   0.619   5.675
 5188TIP3    H115505   5.339   0.623   5.764
 5188TIP3    H215506   5.417   0.703   5.663
 5189TIP3   OH215507   3.565   5.507   0.441
 5189TIP3    H115508   3.559   5.600   0.420
 5189TIP3    H215509   3.505   5.495   0.515
 5190TIP3   OH215510   7.887   4.296   3.325
 5190TIP3    H115511   7.883   4.201   3.314
 5190TIP3    H215512   7.850   4.311   3.412
 5191TIP3   OH215513   1.368   1.160   4.552
 5191TIP3    H115514   1.396   1.224   4.617
 5191TIP3    H215515   1.276   1.182   4.535
 5192TIP3   OH215516   6.542   4.257   6.058
 5192TIP3    H115517   6.521   4.185   6.118
 5192TIP3    H215518   6.496   4.235   5.977
 5193TIP3   OH215519  -0.006   6.083   4.651
 5193TIP3    H115520   0.011   6.004   4.601
 5193TIP3    H215521   0.072   6.137   4.638
 5194TIP3   OH215522   4.102   3.377   5.863
 5194TIP3    H115523   4.064   3.363   5.950
 5194TIP3    H215524   4.029   3.410   5.811
 5195TIP3   OH215525   8.253   5.550   1.473
 5195TIP3    H115526   8.191   5.546   1.546
 5195TIP3    H215527   8.293   5.636   1.480
 5196TIP3   OH215528   0.123   0.434   0.762
 5196TIP3    H115529   0.105   0.496   0.691
 5196TIP3    H215530   0.071   0.466   0.835
 5197TIP3   OH215531   2.598   2.838   0.998
 5197TIP3    H115532   2.540   2.775   1.042
 5197TIP3    H215533   2.584   2.920   1.046
 5198TIP3   OH215534   6.173   5.334   4.137
 5198TIP3    H115535   6.117   5.272   4.183
 5198TIP3    H215536   6.116   5.408   4.118
 5199TIP3   OH215537   6.638   7.850   2.103
 5199TIP3    H115538   6.641   7.817   2.193
 5199TIP3    H215539   6.563   7.806   2.064
 5200TIP3   OH215540   3.582   3.965   0.547
 5200TIP3    H115541   3.545   4.002   0.466
 5200TIP3    H215542   3.507   3.928   0.593
 5201TIP3   OH215543   3.074   6.377   0.176
 5201TIP3    H115544   3.047   6.307   0.117
 5201TIP3    H215545   2.999   6.436   0.178
 5202TIP3   OH215546   6.736   1.144   5.251
 5202TIP3    H115547   6.706   1.234   5.255
 5202TIP3    H215548   6.782   1.130   5.334
 5203TIP3   OH215549   0.986   3.859   0.226
 5203TIP3    H115550   0.955   3.839   0.138
 5203TIP3    H215551   0.926   3.926   0.258
 5204TIP3   OH215552   2.338   4.809   2.206
 5204TIP3    H115553   2.374   4.895   2.229
 5204TIP3    H215554   2.244   4.817   2.220
 5205TIP3   OH215555   1.694   7.070   5.459
 5205TIP3    H115556   1.731   6.998   5.510
 5205TIP3    H215557   1.736   7.148   5.494
 5206TIP3   OH215558   5.763   0.548   0.220
 5206TIP3    H115559   5.845   0.498   0.219
 5206TIP3    H215560   5.695   0.482   0.232
 5207TIP3   OH215561   5.087   7.261   1.904
 5207TIP3    H115562   5.072   7.226   1.992
 5207TIP3    H215563   5.165   7.216   1.873
 5208TIP3   OH215564   7.179   3.404   6.310
 5208TIP3    H115565   7.226   3.443   6.236
 5208TIP3    H215566   7.218   3.445   6.387
 5209TIP3   OH215567   5.787   3.010   6.536
 5209TIP3    H115568   5.862   2.961   6.571
 5209TIP3    H215569   5.718   2.996   6.601
 5210TIP3   OH215570   1.183   0.950   0.936
 5210TIP3    H115571   1.163   1.043   0.926
 5210TIP3    H215572   1.277   0.944   0.918
 5211TIP3   OH215573   7.629   6.781   2.451
 5211TIP3    H115574   7.631   6.690   2.421
 5211TIP3    H215575   7.569   6.781   2.525
 5212TIP3   OH215576   5.765   0.162   5.287
 5212TIP3    H115577   5.818   0.202   5.356
 5212TIP3    H215578   5.756   0.230   5.221
 5213TIP3   OH215579   6.141   4.904   5.187
 5213TIP3    H115580   6.047   4.923   5.189
 5213TIP3    H215581   6.177   4.953   5.261
 5214TIP3   OH215582   3.630   1.131   5.324
 5214TIP3    H115583   3.719   1.109   5.352
 5214TIP3    H215584   3.610   1.212   5.371
 5215TIP3   OH215585   1.866   7.356   0.549
 5215TIP3    H115586   1.932   7.425   0.561
 5215TIP3    H215587   1.786   7.392   0.586
 5216TIP3   OH215588   3.648   7.091   3.070
 5216TIP3    H115589   3.594   7.148   3.125
 5216TIP3    H215590   3.682   7.149   3.001
 5217TIP3   OH215591   3.937   4.515   6.070
 5217TIP3    H115592   3.916   4.606   6.091
 5217TIP3    H215593   4.027   4.518   6.037
 5218TIP3   OH215594   4.434   5.543   0.984
 5218TIP3    H115595   4.450   5.452   0.959
 5218TIP3    H215596   4.520   5.584   0.977
 5219TIP3   OH215597   2.652   5.347   5.706
 5219TIP3    H115598   2.669   5.424   5.652
 5219TIP3    H215599   2.652   5.274   5.645
 5220TIP3   OH215600   7.236   7.846   6.316
 5220TIP3    H115601   7.197   7.762   6.293
 5220TIP3    H215602   7.181   7.911   6.273
 5221TIP3   OH215603   6.475   6.644   0.136
 5221TIP3    H115604   6.531   6.691   0.198
 5221TIP3    H215605   6.491   6.552   0.155
 5222TIP3   OH215606   3.231   6.071   2.497
 5222TIP3    H115607   3.208   6.044   2.409
 5222TIP3    H215608   3.289   6.147   2.485
 5223TIP3   OH215609   7.288   3.464   1.070
 5223TIP3    H115610   7.345   3.481   1.145
 5223TIP3    H215611   7.252   3.377   1.087
 5224TIP3   OH215612   1.017   0.974   6.078
 5224TIP3    H115613   0.925   0.996   6.069
 5224TIP3    H215614   1.020   0.879   6.070
 5225TIP3   OH215615   5.777   6.273   2.924
 5225TIP3    H115616   5.778   6.209   2.853
 5225TIP3    H215617   5.733   6.350   2.888
 5226TIP3   OH215618   5.772   4.514   2.565
 5226TIP3    H115619   5.828   4.463   2.505
 5226TIP3    H215620   5.834   4.556   2.625
 5227TIP3   OH215621   4.449   5.857   2.595
 5227TIP3    H115622   4.376   5.911   2.564
 5227TIP3    H215623   4.408   5.786   2.644
 5228TIP3   OH215624   6.931   2.408   6.595
 5228TIP3    H115625   6.885   2.443   6.519
 5228TIP3    H215626   6.889   2.449   6.670
 5229TIP3   OH215627   4.507   2.808   4.885
 5229TIP3    H115628   4.443   2.737   4.894
 5229TIP3    H215629   4.496   2.860   4.964
 5230TIP3   OH215630   5.879   0.641   2.901
 5230TIP3    H115631   5.804   0.698   2.885
 5230TIP3    H215632   5.862   0.602   2.987
 5231TIP3   OH215633   6.478   7.583   0.875
 5231TIP3    H115634   6.428   7.503   0.894
 5231TIP3    H215635   6.560   7.551   0.838
 5232TIP3   OH215636   3.330   6.411   0.265
 5232TIP3    H115637   3.358   6.323   0.239
 5232TIP3    H215638   3.241   6.419   0.231
 5233TIP3   OH215639   6.612   6.040   6.417
 5233TIP3    H115640   6.556   5.965   6.397
 5233TIP3    H215641   6.685   6.033   6.356
 5234TIP3   OH215642   4.325   3.314   1.246
 5234TIP3    H115643   4.319   3.219   1.244
 5234TIP3    H215644   4.361   3.334   1.332
 5235TIP3   OH215645   6.469   3.009   6.627
 5235TIP3    H115646   6.462   2.915   6.646
 5235TIP3    H215647   6.519   3.043   6.701
 5236TIP3   OH215648   3.454   1.057   1.569
 5236TIP3    H115649   3.495   1.128   1.521
 5236TIP3    H215650   3.463   1.082   1.661
 5237TIP3   OH215651   1.697   0.254   2.941
 5237TIP3    H115652   1.620   0.212   2.980
 5237TIP3    H215653   1.662   0.306   2.869
 5238TIP3   OH215654   4.071   4.978   6.100
 5238TIP3    H115655   4.136   4.970   6.030
 5238TIP3    H215656   4.053   5.072   6.104
 5239TIP3   OH215657   3.068   3.936   6.828
 5239TIP3    H115658   3.099   4.025   6.811
 5239TIP3    H215659   3.084   3.921   6.921
 5240TIP3   OH215660   2.523   3.920   5.067
 5240TIP3    H115661   2.555   4.010   5.061
 5240TIP3    H215662   2.489   3.912   5.156
 5241TIP3   OH215663   2.464   6.415   2.410
 5241TIP3    H115664   2.382   6.448   2.448
 5241TIP3    H215665   2.438   6.380   2.325
 5242TIP3   OH215666   4.226   1.469   3.530
 5242TIP3    H115667   4.181   1.548   3.557
 5242TIP3    H215668   4.189   1.399   3.584
 5243TIP3   OH215669   5.163   6.928   0.696
 5243TIP3    H115670   5.255   6.900   0.691
 5243TIP3    H215671   5.116   6.852   0.730
 5244TIP3   OH215672   5.041   7.947   5.487
 5244TIP3    H115673   5.097   7.949   5.410
 5244TIP3    H215674   5.032   7.853   5.507
 5245TIP3   OH215675   7.888   5.620   0.713
 5245TIP3    H115676   7.813   5.604   0.655
 5245TIP3    H215677   7.900   5.536   0.758
 5246TIP3   OH215678   4.259   0.106   2.675
 5246TIP3    H115679   4.267   0.015   2.704
 5246TIP3    H215680   4.242   0.155   2.756
 5247TIP3   OH215681   4.690   7.619   4.074
 5247TIP3    H115682   4.776   7.609   4.034
 5247TIP3    H215683   4.668   7.533   4.108
 5248TIP3   OH215684   2.930   5.043   4.308
 5248TIP3    H115685   2.878   5.121   4.291
 5248TIP3    H215686   2.901   5.013   4.395
 5249TIP3   OH215687   6.505   3.705   1.128
 5249TIP3    H115688   6.558   3.736   1.201
 5249TIP3    H215689   6.430   3.763   1.126
 5250TIP3   OH215690   4.672   7.090   3.799
 5250TIP3    H115691   4.722   7.168   3.774
 5250TIP3    H215692   4.706   7.066   3.885
 5251TIP3   OH215693   0.368   1.714   3.028
 5251TIP3    H115694   0.283   1.753   3.048
 5251TIP3    H215695   0.404   1.770   2.960
 5252TIP3   OH215696   0.602   1.915   0.907
 5252TIP3    H115697   0.629   1.827   0.882
 5252TIP3    H215698   0.651   1.934   0.987
 5253TIP3   OH215699   3.961   3.473   5.631
 5253TIP3    H115700   3.904   3.510   5.563
 5253TIP3    H215701   3.993   3.391   5.594
 5254TIP3   OH215702   5.272   7.763   0.878
 5254TIP3    H115703   5.336   7.780   0.809
 5254TIP3    H215704   5.275   7.841   0.933
 5255TIP3   OH215705   5.516   4.658   6.128
 5255TIP3    H115706   5.593   4.627   6.175
 5255TIP3    H215707   5.538   4.647   6.035
 5256TIP3   OH215708   2.273   1.040   6.671
 5256TIP3    H115709   2.291   0.985   6.595
 5256TIP3    H215710   2.224   1.114   6.635
 5257TIP3   OH215711   0.194   1.151   1.903
 5257TIP3    H115712   0.126   1.193   1.954
 5257TIP3    H215713   0.265   1.135   1.965
 5258TIP3   OH215714   1.126   5.784   5.004
 5258TIP3    H115715   1.087   5.823   5.083
 5258TIP3    H215716   1.194   5.725   5.038
 5259TIP3   OH215717   1.093   7.302   5.474
 5259TIP3    H115718   1.128   7.231   5.527
 5259TIP3    H215719   1.109   7.381   5.526
 5260TIP3   OH215720   2.941   4.442   4.641
 5260TIP3    H115721   2.903   4.526   4.620
 5260TIP3    H215722   2.875   4.378   4.615
 5261TIP3   OH215723   5.457   6.044   5.161
 5261TIP3    H115724   5.516   6.119   5.157
 5261TIP3    H215725   5.458   6.018   5.253
 5262TIP3   OH215726   2.146   5.556   6.185
 5262TIP3    H115727   2.202   5.575   6.110
 5262TIP3    H215728   2.059   5.539   6.147
 5263TIP3   OH215729   6.627   5.732   5.394
 5263TIP3    H115730   6.667   5.760   5.312
 5263TIP3    H215731   6.626   5.636   5.389
 5264TIP3   OH215732   1.015   0.306   3.977
 5264TIP3    H115733   1.043   0.216   3.994
 5264TIP3    H215734   1.058   0.357   4.046
 5265TIP3   OH215735   7.366   5.101   5.068
 5265TIP3    H115736   7.281   5.082   5.108
 5265TIP3    H215737   7.430   5.085   5.137
 5266TIP3   OH215738   5.323   1.095   1.630
 5266TIP3    H115739   5.289   1.179   1.599
 5266TIP3    H215740   5.384   1.118   1.700
 5267TIP3   OH215741   7.439   4.162   0.354
 5267TIP3    H115742   7.439   4.070   0.329
 5267TIP3    H215743   7.354   4.176   0.397
 5268TIP3   OH215744   1.278   2.735   0.469
 5268TIP3    H115745   1.290   2.722   0.375
 5268TIP3    H215746   1.345   2.679   0.509
 5269TIP3   OH215747   1.284   0.959   0.455
 5269TIP3    H115748   1.223   0.952   0.528
 5269TIP3    H215749   1.262   1.041   0.411
 5270TIP3   OH215750   1.006   5.919   3.913
 5270TIP3    H115751   1.005   5.864   3.835
 5270TIP3    H215752   1.059   5.871   3.976
 5271TIP3   OH215753   0.479   6.062   1.212
 5271TIP3    H115754   0.416   6.065   1.140
 5271TIP3    H215755   0.498   6.153   1.232
 5272TIP3   OH215756   3.282   5.981   2.162
 5272TIP3    H115757   3.369   5.961   2.126
 5272TIP3    H215758   3.274   5.924   2.238
 5273TIP3   OH215759   7.126   3.211   5.865
 5273TIP3    H115760   7.086   3.169   5.788
 5273TIP3    H215761   7.201   3.259   5.829
 5274TIP3   OH215762   8.428   6.306   2.213
 5274TIP3    H115763   8.348   6.320   2.264
 5274TIP3    H215764   8.398   6.309   2.121
 5275TIP3   OH215765   4.892   6.418   2.695
 5275TIP3    H115766   4.939   6.473   2.633
 5275TIP3    H215767   4.800   6.428   2.671
 5276TIP3   OH215768   1.698   5.154   4.237
 5276TIP3    H115769   1.687   5.178   4.145
 5276TIP3    H215770   1.661   5.228   4.285
 5277TIP3   OH215771   5.511   1.253   4.043
 5277TIP3    H115772   5.432   1.290   4.003
 5277TIP3    H215773   5.570   1.328   4.053
 5278TIP3   OH215774   5.726   1.795   4.143
 5278TIP3    H115775   5.635   1.788   4.172
 5278TIP3    H215776   5.754   1.704   4.130
 5279TIP3   OH215777   5.999   3.391   2.549
 5279TIP3    H115778   6.063   3.406   2.619
 5279TIP3    H215779   5.931   3.338   2.590
 5280TIP3   OH215780   4.479   0.641   6.009
 5280TIP3    H115781   4.469   0.710   6.074
 5280TIP3    H215782   4.397   0.592   6.012
 5281TIP3   OH215783   0.302   4.811   6.155
 5281TIP3    H115784   0.340   4.753   6.221
 5281TIP3    H215785   0.248   4.753   6.101
 5282TIP3   OH215786   5.093   4.804   3.657
 5282TIP3    H115787   5.136   4.745   3.595
 5282TIP3    H215788   5.117   4.892   3.627
 5283TIP3   OH215789   8.126   2.522   2.284
 5283TIP3    H115790   8.156   2.566   2.204
 5283TIP3    H215791   8.196   2.539   2.348
 5284TIP3   OH215792   4.050   0.875   3.011
 5284TIP3    H115793   4.086   0.864   3.099
 5284TIP3    H215794   3.960   0.903   3.025
 5285TIP3   OH215795   6.522   1.041   2.481
 5285TIP3    H115796   6.462   1.112   2.503
 5285TIP3    H215797   6.559   1.014   2.565
 5286TIP3   OH215798   4.582   6.272   5.715
 5286TIP3    H115799   4.657   6.264   5.773
 5286TIP3    H215800   4.506   6.278   5.774
 5287TIP3   OH215801   5.809   6.180   3.538
 5287TIP3    H115802   5.766   6.266   3.542
 5287TIP3    H215803   5.823   6.156   3.629
 5288TIP3   OH215804   4.805   3.493   1.445
 5288TIP3    H115805   4.828   3.536   1.362
 5288TIP3    H215806   4.887   3.454   1.475
 5289TIP3   OH215807   1.878   6.714   0.375
 5289TIP3    H115808   1.828   6.762   0.308
 5289TIP3    H215809   1.907   6.635   0.330
 5290TIP3   OH215810   5.856   2.189   3.587
 5290TIP3    H115811   5.826   2.258   3.528
 5290TIP3    H215812   5.804   2.112   3.562
 5291TIP3   OH215813   0.914   2.658   3.807
 5291TIP3    H115814   0.894   2.751   3.797
 5291TIP3    H215815   0.973   2.638   3.734
 5292TIP3   OH215816   7.396   5.896   1.845
 5292TIP3    H115817   7.412   5.916   1.753
 5292TIP3    H215818   7.483   5.894   1.884
 5293TIP3   OH215819   7.726   3.710   1.894
 5293TIP3    H115820   7.655   3.751   1.844
 5293TIP3    H215821   7.681   3.659   1.962
 5294TIP3   OH215822   2.263   0.324   3.748
 5294TIP3    H115823   2.291   0.261   3.681
 5294TIP3    H215824   2.175   0.351   3.720
 5295TIP3   OH215825   2.717   0.384   4.887
 5295TIP3    H115826   2.662   0.309   4.865
 5295TIP3    H215827   2.655   0.449   4.921
 5296TIP3   OH215828   2.666   2.032   0.432
 5296TIP3    H115829   2.591   2.082   0.463
 5296TIP3    H215830   2.701   2.083   0.359
 5297TIP3   OH215831   0.412   6.847   0.499
 5297TIP3    H115832   0.477   6.791   0.542
 5297TIP3    H215833   0.456   6.932   0.489
 5298TIP3   OH215834   1.924   7.335   6.136
 5298TIP3    H115835   1.995   7.380   6.091
 5298TIP3    H215836   1.922   7.248   6.097
 5299TIP3   OH215837   3.441   3.171   5.565
 5299TIP3    H115838   3.490   3.173   5.483
 5299TIP3    H215839   3.352   3.197   5.540
 5300TIP3   OH215840   5.248   0.326   1.081
 5300TIP3    H115841   5.182   0.259   1.098
 5300TIP3    H215842   5.286   0.345   1.167
 5301TIP3   OH215843   2.731   6.656   2.751
 5301TIP3    H115844   2.671   6.633   2.681
 5301TIP3    H215845   2.789   6.581   2.759
 5302TIP3   OH215846   3.735   3.194   4.151
 5302TIP3    H115847   3.781   3.134   4.092
 5302TIP3    H215848   3.754   3.161   4.239
 5303TIP3   OH215849   7.664   4.546   2.980
 5303TIP3    H115850   7.759   4.549   2.972
 5303TIP3    H215851   7.648   4.488   3.055
 5304TIP3   OH215852   3.367   6.455   5.424
 5304TIP3    H115853   3.444   6.402   5.404
 5304TIP3    H215854   3.299   6.421   5.365
 5305TIP3   OH215855   0.056   6.534   1.546
 5305TIP3    H115856   0.072   6.446   1.579
 5305TIP3    H215857   0.137   6.558   1.501
 5306TIP3   OH215858   5.509   0.623   3.935
 5306TIP3    H115859   5.583   0.658   3.885
 5306TIP3    H215860   5.548   0.557   3.992
 5307TIP3   OH215861   6.609   0.771   0.177
 5307TIP3    H115862   6.602   0.865   0.162
 5307TIP3    H215863   6.565   0.731   0.102
 5308TIP3   OH215864   1.919   0.387   0.551
 5308TIP3    H115865   1.935   0.403   0.644
 5308TIP3    H215866   1.985   0.324   0.525
 5309TIP3   OH215867   3.834   2.976   3.642
 5309TIP3    H115868   3.854   2.960   3.735
 5309TIP3    H215869   3.750   2.933   3.628
 5310TIP3   OH215870   4.092   2.696   0.424
 5310TIP3    H115871   4.136   2.714   0.342
 5310TIP3    H215872   4.126   2.761   0.485
 5311TIP3   OH215873   3.591   0.706   0.871
 5311TIP3    H115874   3.504   0.741   0.850
 5311TIP3    H215875   3.593   0.704   0.967
 5312TIP3   OH215876   4.386   4.538   1.594
 5312TIP3    H115877   4.396   4.458   1.645
 5312TIP3    H215878   4.301   4.573   1.620
 5313TIP3   OH215879   6.490   0.334   2.227
 5313TIP3    H115880   6.408   0.382   2.229
 5313TIP3    H215881   6.464   0.242   2.219
 5314TIP3   OH215882   7.073   1.774   0.270
 5314TIP3    H115883   7.066   1.821   0.354
 5314TIP3    H215884   7.015   1.821   0.211
 5315TIP3   OH215885   8.175   0.532   5.824
 5315TIP3    H115886   8.266   0.534   5.793
 5315TIP3    H215887   8.136   0.458   5.777
 5316TIP3   OH215888   7.480   7.430   5.601
 5316TIP3    H115889   7.386   7.421   5.614
 5316TIP3    H215890   7.509   7.342   5.576
 5317TIP3   OH215891   7.983   3.072   2.536
 5317TIP3    H115892   8.076   3.078   2.556
 5317TIP3    H215893   7.960   2.981   2.555
 5318TIP3   OH215894   0.488   6.566   5.690
 5318TIP3    H115895   0.549   6.639   5.690
 5318TIP3    H215896   0.543   6.489   5.708
 5319TIP3   OH215897   4.856   2.226   6.028
 5319TIP3    H115898   4.780   2.265   5.985
 5319TIP3    H215899   4.918   2.298   6.037
 5320TIP3   OH215900   6.637   3.455   1.078
 5320TIP3    H115901   6.712   3.475   1.134
 5320TIP3    H215902   6.568   3.513   1.110
 5321TIP3   OH215903   6.614   0.439   3.235
 5321TIP3    H115904   6.555   0.438   3.160
 5321TIP3    H215905   6.631   0.532   3.251
 5322TIP3   OH215906   0.377   1.140   3.118
 5322TIP3    H115907   0.358   1.225   3.158
 5322TIP3    H215908   0.321   1.078   3.165
 5323TIP3   OH215909   2.672   6.652   2.080
 5323TIP3    H115910   2.748   6.694   2.041
 5323TIP3    H215911   2.597   6.700   2.044
 5324TIP3   OH215912   6.151   3.757   6.354
 5324TIP3    H115913   6.069   3.804   6.337
 5324TIP3    H215914   6.138   3.716   6.440
 5325TIP3   OH215915   2.356   2.191   5.861
 5325TIP3    H115916   2.450   2.204   5.877
 5325TIP3    H215917   2.316   2.197   5.947
 5326TIP3   OH215918   7.624   2.829   0.078
 5326TIP3    H115919   7.653   2.842  -0.012
 5326TIP3    H215920   7.697   2.783   0.120
 5327TIP3   OH215921   0.511   1.204   0.044
 5327TIP3    H115922   0.511   1.233  -0.047
 5327TIP3    H215923   0.560   1.121   0.042
 5328TIP3   OH215924   1.420   0.988   6.003
 5328TIP3    H115925   1.352   1.043   5.965
 5328TIP3    H215926   1.484   1.050   6.039
 5329TIP3   OH215927   4.106   5.828   6.442
 5329TIP3    H115928   4.136   5.833   6.533
 5329TIP3    H215929   4.178   5.865   6.391
 5330TIP3   OH215930   1.311   4.139   0.153
 5330TIP3    H115931   1.389   4.091   0.122
 5330TIP3    H215932   1.308   4.121   0.247
 5331TIP3   OH215933   7.990   7.218   0.908
 5331TIP3    H115934   8.016   7.129   0.886
 5331TIP3    H215935   7.971   7.216   1.002
 5332TIP3   OH215936   4.278   5.923   5.083
 5332TIP3    H115937   4.366   5.931   5.118
 5332TIP3    H215938   4.290   5.908   4.990
 5333TIP3   OH215939   5.232   5.264   1.179
 5333TIP3    H115940   5.245   5.208   1.255
 5333TIP3    H215941   5.142   5.295   1.187
 5334TIP3   OH215942   0.775   3.074   0.929
 5334TIP3    H115943   0.730   3.087   1.012
 5334TIP3    H215944   0.861   3.112   0.941
 5335TIP3   OH215945   8.182   1.249   4.147
 5335TIP3    H115946   8.238   1.325   4.161
 5335TIP3    H215947   8.128   1.244   4.226
 5336TIP3   OH215948   1.861   5.574   6.570
 5336TIP3    H115949   1.938   5.571   6.627
 5336TIP3    H215950   1.888   5.628   6.496
 5337TIP3   OH215951   6.012   2.875   2.974
 5337TIP3    H115952   6.085   2.817   2.996
 5337TIP3    H215953   6.049   2.963   2.980
 5338TIP3   OH215954   7.997   4.765   3.578
 5338TIP3    H115955   7.965   4.734   3.663
 5338TIP3    H215956   8.022   4.856   3.593
 5339TIP3   OH215957   0.506  -0.028   4.220
 5339TIP3    H115958   0.440   0.031   4.182
 5339TIP3    H215959   0.560   0.029   4.274
 5340TIP3   OH215960   0.784   6.150   4.398
 5340TIP3    H115961   0.703   6.198   4.377
 5340TIP3    H215962   0.761   6.058   4.384
 5341TIP3   OH215963   8.305   7.043   1.751
 5341TIP3    H115964   8.361   6.987   1.697
 5341TIP3    H215965   8.343   7.131   1.742
 5342TIP3   OH215966   4.596   5.488   3.211
 5342TIP3    H115967   4.610   5.423   3.279
 5342TIP3    H215968   4.528   5.545   3.247
 5343TIP3   OH215969   3.757   6.872   2.573
 5343TIP3    H115970   3.801   6.932   2.512
 5343TIP3    H215971   3.707   6.930   2.631
 5344TIP3   OH215972   2.710   5.061   3.247
 5344TIP3    H115973   2.756   5.129   3.196
 5344TIP3    H215974   2.619   5.091   3.249
 5345TIP3   OH215975   2.398   2.394   4.199
 5345TIP3    H115976   2.484   2.405   4.159
 5345TIP3    H215977   2.380   2.479   4.240
 5346TIP3   OH215978   3.496   3.454   5.946
 5346TIP3    H115979   3.474   3.487   5.858
 5346TIP3    H215980   3.481   3.529   6.003
 5347TIP3   OH215981   6.566   2.894   5.952
 5347TIP3    H115982   6.613   2.896   6.036
 5347TIP3    H215983   6.483   2.938   5.970
 5348TIP3   OH215984   8.156   7.493   6.551
 5348TIP3    H115985   8.187   7.408   6.518
 5348TIP3    H215986   8.154   7.483   6.646
 5349TIP3   OH215987   0.122   4.845   0.647
 5349TIP3    H115988   0.176   4.913   0.686
 5349TIP3    H215989   0.184   4.776   0.622
 5350TIP3   OH215990   7.899   6.848   4.097
 5350TIP3    H115991   7.919   6.873   4.007
 5350TIP3    H215992   7.869   6.757   4.091
 5351TIP3   OH215993   5.161   3.010   3.385
 5351TIP3    H115994   5.097   2.942   3.406
 5351TIP3    H215995   5.127   3.088   3.429
 5352TIP3   OH215996   3.912   7.349   4.926
 5352TIP3    H115997   3.841   7.392   4.973
 5352TIP3    H215998   3.870   7.313   4.848
 5353TIP3   OH215999   1.254   1.674   4.859
 5353TIP3    H116000   1.324   1.631   4.908
 5353TIP3    H216001   1.261   1.637   4.770
 5354TIP3   OH216002   7.206   1.848   3.774
 5354TIP3    H116003   7.161   1.767   3.800
 5354TIP3    H216004   7.284   1.851   3.829
 5355TIP3   OH216005   4.452   2.989   4.466
 5355TIP3    H116006   4.514   2.970   4.536
 5355TIP3    H216007   4.482   2.936   4.392
 5356TIP3   OH216008   0.782   0.905   6.576
 5356TIP3    H116009   0.794   0.868   6.664
 5356TIP3    H216010   0.871   0.927   6.548
 5357TIP3   OH216011   6.062   7.190   5.366
 5357TIP3    H116012   6.036   7.258   5.303
 5357TIP3    H216013   6.108   7.125   5.312
 5358TIP3   OH216014   5.331   5.127   1.677
 5358TIP3    H116015   5.382   5.197   1.637
 5358TIP3    H216016   5.298   5.164   1.758
 5359TIP3   OH216017   8.213   0.483   4.670
 5359TIP3    H116018   8.188   0.402   4.713
 5359TIP3    H216019   8.279   0.522   4.727
 5360TIP3   OH216020   4.141   3.006   3.743
 5360TIP3    H116021   4.055   3.028   3.780
 5360TIP3    H216022   4.136   2.912   3.726
 5361TIP3   OH216023   4.551   0.311   2.981
 5361TIP3    H116024   4.470   0.265   2.956
 5361TIP3    H216025   4.598   0.248   3.035
 5362TIP3   OH216026   3.572   5.446   2.817
 5362TIP3    H116027   3.542   5.416   2.903
 5362TIP3    H216028   3.502   5.504   2.786
 5363TIP3   OH216029   8.171   5.059   5.297
 5363TIP3    H116030   8.138   5.102   5.218
 5363TIP3    H216031   8.236   4.996   5.265
 5364TIP3   OH216032   8.370   6.690   4.504
 5364TIP3    H116033   8.388   6.677   4.411
 5364TIP3    H216034   8.363   6.785   4.513
 5365TIP3   OH216035   6.170   5.166   2.557
 5365TIP3    H116036   6.256   5.175   2.515
 5365TIP3    H216037   6.109   5.207   2.496
 5366TIP3   OH216038   5.859   4.874   1.677
 5366TIP3    H116039   5.923   4.821   1.724
 5366TIP3    H216040   5.866   4.846   1.586
 5367TIP3   OH216041   2.754   5.302   3.130
 5367TIP3    H116042   2.709   5.359   3.192
 5367TIP3    H216043   2.830   5.352   3.101
 5368TIP3   OH216044   5.211   3.923   2.202
 5368TIP3    H116045   5.242   3.833   2.212
 5368TIP3    H216046   5.290   3.976   2.205
 5369TIP3   OH216047   2.180   6.667   1.210
 5369TIP3    H116048   2.205   6.746   1.257
 5369TIP3    H216049   2.249   6.604   1.230
 5370TIP3   OH216050   1.359   4.779   3.640
 5370TIP3    H116051   1.349   4.694   3.597
 5370TIP3    H216052   1.340   4.763   3.732
 5371TIP3   OH216053   5.217   0.147   6.196
 5371TIP3    H116054   5.301   0.160   6.152
 5371TIP3    H216055   5.151   0.166   6.130
 5372TIP3   OH216056   7.050   2.461   4.670
 5372TIP3    H116057   7.041   2.403   4.746
 5372TIP3    H216058   7.075   2.403   4.598
 5373TIP3   OH216059   0.236   5.019   3.062
 5373TIP3    H116060   0.240   4.924   3.050
 5373TIP3    H216061   0.143   5.040   3.057
 5374TIP3   OH216062   6.083   3.554   5.480
 5374TIP3    H116063   5.993   3.537   5.452
 5374TIP3    H216064   6.085   3.529   5.572
 5375TIP3   OH216065   5.820   2.214   1.143
 5375TIP3    H116066   5.834   2.164   1.223
 5375TIP3    H216067   5.787   2.149   1.080
 5376TIP3   OH216068   1.932   2.223   6.582
 5376TIP3    H116069   1.837   2.230   6.591
 5376TIP3    H216070   1.964   2.312   6.598
 5377TIP3   OH216071   3.112   3.091   0.271
 5377TIP3    H116072   3.171   3.017   0.289
 5377TIP3    H216073   3.168   3.155   0.227
 5378TIP3   OH216074   7.363   6.730   3.253
 5378TIP3    H116075   7.314   6.809   3.274
 5378TIP3    H216076   7.312   6.659   3.294
 5379TIP3   OH216077   1.094   6.662   2.926
 5379TIP3    H116078   1.102   6.636   3.017
 5379TIP3    H216079   1.024   6.606   2.891
 5380TIP3   OH216080   7.571   6.375   0.446
 5380TIP3    H116081   7.658   6.413   0.432
 5380TIP3    H216082   7.551   6.395   0.537
 5381TIP3   OH216083   2.137   1.988   4.203
 5381TIP3    H116084   2.136   1.927   4.277
 5381TIP3    H216085   2.098   2.068   4.237
 5382TIP3   OH216086   8.089   7.894   2.747
 5382TIP3    H116087   8.075   7.988   2.732
 5382TIP3    H216088   8.183   7.887   2.766
 5383TIP3   OH216089   6.658   4.309   4.951
 5383TIP3    H116090   6.645   4.403   4.943
 5383TIP3    H216091   6.753   4.298   4.949
 5384TIP3   OH216092   0.080   4.574   2.541
 5384TIP3    H116093   0.096   4.569   2.447
 5384TIP3    H216094  -0.015   4.567   2.550
 5385TIP3   OH216095   2.782   5.758   1.699
 5385TIP3    H116096   2.821   5.729   1.616
 5385TIP3    H216097   2.818   5.846   1.712
 5386TIP3   OH216098   3.337   1.033   4.493
 5386TIP3    H116099   3.372   0.970   4.556
 5386TIP3    H216100   3.339   1.117   4.540
 5387TIP3   OH216101   2.944   5.344   0.613
 5387TIP3    H116102   3.027   5.296   0.617
 5387TIP3    H216103   2.943   5.397   0.692
 5388TIP3   OH216104   6.433   1.219   6.186
 5388TIP3    H116105   6.346   1.234   6.148
 5388TIP3    H216106   6.452   1.299   6.235
 5389TIP3   OH216107   2.394   1.421   3.821
 5389TIP3    H116108   2.407   1.475   3.743
 5389TIP3    H216109   2.299   1.411   3.828
 5390TIP3   OH216110   6.832   1.889   0.213
 5390TIP3    H116111   6.836   1.984   0.222
 5390TIP3    H216112   6.740   1.871   0.194
 5391TIP3   OH216113   1.709   6.425   4.048
 5391TIP3    H116114   1.729   6.331   4.043
 5391TIP3    H216115   1.794   6.468   4.042
 5392TIP3   OH216116   6.879   6.484   5.187
 5392TIP3    H116117   6.885   6.517   5.277
 5392TIP3    H216118   6.843   6.396   5.196
 5393TIP3   OH216119   8.030   6.158   0.116
 5393TIP3    H116120   8.029   6.080   0.170
 5393TIP3    H216121   8.061   6.128   0.030
 5394TIP3   OH216122   4.276   2.849   3.450
 5394TIP3    H116123   4.279   2.754   3.460
 5394TIP3    H216124   4.192   2.874   3.487
 5395TIP3   OH216125   2.464   5.060   0.835
 5395TIP3    H116126   2.441   5.080   0.744
 5395TIP3    H216127   2.387   5.017   0.871
 5396TIP3   OH216128   6.095   5.210   1.505
 5396TIP3    H116129   6.112   5.260   1.584
 5396TIP3    H216130   6.001   5.189   1.509
 5397TIP3   OH216131   2.778   2.504   1.449
 5397TIP3    H116132   2.872   2.495   1.466
 5397TIP3    H216133   2.774   2.557   1.370
 5398TIP3   OH216134   6.993   1.900   1.981
 5398TIP3    H116135   6.900   1.916   1.967
 5398TIP3    H216136   7.032   1.910   1.894
 5399TIP3   OH216137   4.761   6.531   5.316
 5399TIP3    H116138   4.675   6.502   5.344
 5399TIP3    H216139   4.745   6.588   5.242
 5400TIP3   OH216140   1.678   7.382   0.768
 5400TIP3    H116141   1.701   7.420   0.853
 5400TIP3    H216142   1.643   7.295   0.789
 5401TIP3   OH216143   5.342   4.423   4.184
 5401TIP3    H116144   5.316   4.515   4.188
 5401TIP3    H216145   5.314   4.386   4.268
 5402TIP3   OH216146   8.079   7.239   0.622
 5402TIP3    H116147   8.067   7.166   0.683
 5402TIP3    H216148   8.074   7.317   0.676
 5403TIP3   OH216149   2.545   5.358   3.335
 5403TIP3    H116150   2.460   5.338   3.297
 5403TIP3    H216151   2.558   5.452   3.318
 5404TIP3   OH216152   5.774   2.848   5.559
 5404TIP3    H116153   5.832   2.858   5.483
 5404TIP3    H216154   5.726   2.767   5.543
 5405TIP3   OH216155   0.147   0.088   5.315
 5405TIP3    H116156   0.174  -0.002   5.330
 5405TIP3    H216157   0.052   0.086   5.322
 5406TIP3   OH216158   7.985   0.127   5.302
 5406TIP3    H116159   8.071   0.122   5.260
 5406TIP3    H216160   7.999   0.183   5.378
 5407TIP3   OH216161   2.089   7.431   5.037
 5407TIP3    H116162   2.127   7.464   5.118
 5407TIP3    H216163   2.014   7.488   5.021
 5408TIP3   OH216164   0.714   7.887   1.925
 5408TIP3    H116165   0.763   7.805   1.933
 5408TIP3    H216166   0.712   7.904   1.830
 5409TIP3   OH216167   0.305   3.414   5.313
 5409TIP3    H116168   0.343   3.501   5.324
 5409TIP3    H216169   0.220   3.430   5.272
 5410TIP3   OH216170   3.540   5.677   2.312
 5410TIP3    H116171   3.449   5.705   2.316
 5410TIP3    H216172   3.542   5.609   2.245
 5411TIP3   OH216173   5.911   4.810   3.312
 5411TIP3    H116174   5.870   4.883   3.360
 5411TIP3    H216175   6.004   4.817   3.332
 5412TIP3   OH216176   7.753   1.212   0.642
 5412TIP3    H116177   7.809   1.270   0.693
 5412TIP3    H216178   7.799   1.201   0.559
 5413TIP3   OH216179   6.151   4.385   1.065
 5413TIP3    H116180   6.230   4.418   1.109
 5413TIP3    H216181   6.111   4.462   1.026
 5414TIP3   OH216182   5.554   2.894   4.357
 5414TIP3    H116183   5.611   2.960   4.318
 5414TIP3    H216184   5.612   2.841   4.412
 5415TIP3   OH216185   2.100   4.855   4.540
 5415TIP3    H116186   2.019   4.853   4.591
 5415TIP3    H216187   2.078   4.904   4.461
 5416TIP3   OH216188   0.823   1.732   3.115
 5416TIP3    H116189   0.739   1.707   3.155
 5416TIP3    H216190   0.838   1.667   3.047
 5417TIP3   OH216191   1.596   0.254   4.760
 5417TIP3    H116192   1.561   0.224   4.844
 5417TIP3    H216193   1.653   0.328   4.782
 5418TIP3   OH216194   5.023   2.735   2.558
 5418TIP3    H116195   5.102   2.696   2.521
 5418TIP3    H216196   4.968   2.660   2.581
 5419TIP3   OH216197   0.155   3.455   0.435
 5419TIP3    H116198   0.211   3.472   0.511
 5419TIP3    H216199   0.214   3.420   0.369
 5420TIP3   OH216200   6.848   3.049   4.302
 5420TIP3    H116201   6.792   3.111   4.255
 5420TIP3    H216202   6.824   3.061   4.394
 5421TIP3   OH216203   1.717   4.104   4.739
 5421TIP3    H116204   1.640   4.132   4.789
 5421TIP3    H216205   1.735   4.177   4.679
 5422TIP3   OH216206   3.116   5.404   5.481
 5422TIP3    H116207   3.066   5.323   5.489
 5422TIP3    H216208   3.202   5.377   5.450
 5423TIP3   OH216209   1.958   1.504  -0.003
 5423TIP3    H116210   1.899   1.429   0.010
 5423TIP3    H216211   1.952   1.553   0.079
 5424TIP3   OH216212   0.441   7.640   2.031
 5424TIP3    H116213   0.458   7.627   2.124
 5424TIP3    H216214   0.347   7.655   2.025
 5425TIP3   OH216215   2.699   4.407   4.142
 5425TIP3    H116216   2.693   4.314   4.164
 5425TIP3    H216217   2.683   4.452   4.225
 5426TIP3   OH216218   1.182   3.809   5.068
 5426TIP3    H116219   1.131   3.871   5.016
 5426TIP3    H216220   1.123   3.785   5.140
 5427TIP3   OH216221   5.421   3.412   3.150
 5427TIP3    H116222   5.412   3.325   3.111
 5427TIP3    H216223   5.377   3.405   3.235
 5428TIP3   OH216224   1.650   7.126   0.859
 5428TIP3    H116225   1.618   7.157   0.943
 5428TIP3    H216226   1.721   7.066   0.881
 5429TIP3   OH216227   7.965   7.519   2.390
 5429TIP3    H116228   7.935   7.556   2.473
 5429TIP3    H216229   8.061   7.521   2.396
 5430TIP3   OH216230   1.956   1.129   2.850
 5430TIP3    H116231   1.888   1.188   2.881
 5430TIP3    H216232   1.908   1.057   2.809
 5431TIP3   OH216233   0.994   5.410   5.328
 5431TIP3    H116234   1.000   5.345   5.257
 5431TIP3    H216235   0.912   5.390   5.372
 5432TIP3   OH216236   2.892   2.866   4.769
 5432TIP3    H116237   2.964   2.843   4.710
 5432TIP3    H216238   2.934   2.916   4.839
 5433TIP3   OH216239   2.605   6.576   1.781
 5433TIP3    H116240   2.686   6.625   1.793
 5433TIP3    H216241   2.616   6.497   1.834
 5434TIP3   OH216242   5.570   4.918   6.422
 5434TIP3    H116243   5.594   5.009   6.437
 5434TIP3    H216244   5.561   4.881   6.510
 5435TIP3   OH216245   5.364   3.835   5.376
 5435TIP3    H116246   5.369   3.878   5.291
 5435TIP3    H216247   5.359   3.741   5.356
 5436TIP3   OH216248   4.430   1.074   5.757
 5436TIP3    H116249   4.391   1.028   5.683
 5436TIP3    H216250   4.450   1.005   5.820
 5437TIP3   OH216251   1.142   6.445   5.212
 5437TIP3    H116252   1.188   6.418   5.132
 5437TIP3    H216253   1.209   6.441   5.280
 5438TIP3   OH216254   1.512   7.227   3.590
 5438TIP3    H116255   1.453   7.295   3.557
 5438TIP3    H216256   1.586   7.228   3.529
 5439TIP3   OH216257   6.107   6.906   4.975
 5439TIP3    H116258   6.155   6.945   5.048
 5439TIP3    H216259   6.161   6.927   4.898
 5440TIP3   OH216260   6.922   1.697   5.402
 5440TIP3    H116261   6.964   1.782   5.392
 5440TIP3    H216262   6.837   1.717   5.441
 5441TIP3   OH216263   6.417   1.729   5.656
 5441TIP3    H116264   6.442   1.758   5.744
 5441TIP3    H216265   6.400   1.635   5.665
 5442TIP3   OH216266   2.293   2.654   1.421
 5442TIP3    H116267   2.287   2.615   1.509
 5442TIP3    H216268   2.387   2.652   1.401
 5443TIP3   OH216269   3.962   6.001   3.972
 5443TIP3    H116270   3.971   6.096   3.970
 5443TIP3    H216271   3.901   5.981   3.902
 5444TIP3   OH216272   2.346   1.830   1.618
 5444TIP3    H116273   2.273   1.773   1.643
 5444TIP3    H216274   2.336   1.841   1.524
 5445TIP3   OH216275   4.584   7.478   2.968
 5445TIP3    H116276   4.500   7.447   3.003
 5445TIP3    H216277   4.650   7.441   3.027
 5446TIP3   OH216278   3.358   7.422   5.873
 5446TIP3    H116279   3.388   7.507   5.840
 5446TIP3    H216280   3.339   7.438   5.965
 5447TIP3   OH216281   0.912   4.485   1.745
 5447TIP3    H116282   0.923   4.546   1.672
 5447TIP3    H216283   0.959   4.525   1.818
 5448TIP3   OH216284   5.441   1.139   0.656
 5448TIP3    H116285   5.366   1.173   0.704
 5448TIP3    H216286   5.483   1.216   0.619
 5449TIP3   OH216287   2.991   7.478   4.147
 5449TIP3    H116288   3.067   7.435   4.185
 5449TIP3    H216289   2.999   7.465   4.053
 5450TIP3   OH216290   6.059   1.417   0.648
 5450TIP3    H116291   6.128   1.404   0.583
 5450TIP3    H216292   6.106   1.441   0.728
 5451TIP3   OH216293   5.037   0.246   0.084
 5451TIP3    H116294   5.043   0.164   0.034
 5451TIP3    H216295   4.957   0.235   0.137
 5452TIP3   OH216296   3.666   6.704   1.102
 5452TIP3    H116297   3.600   6.769   1.076
 5452TIP3    H216298   3.624   6.620   1.088
 5453TIP3   OH216299   5.614   3.689   3.642
 5453TIP3    H116300   5.630   3.638   3.563
 5453TIP3    H216301   5.545   3.641   3.688
 5454TIP3   OH216302   5.362   6.498   1.532
 5454TIP3    H116303   5.385   6.410   1.501
 5454TIP3    H216304   5.387   6.556   1.461
 5455TIP3   OH216305   0.978   3.950   5.417
 5455TIP3    H116306   0.928   4.031   5.417
 5455TIP3    H216307   0.914   3.882   5.439
 5456TIP3   OH216308   4.292   2.225   5.167
 5456TIP3    H116309   4.310   2.278   5.245
 5456TIP3    H216310   4.347   2.263   5.099
 5457TIP3   OH216311   4.254   1.090   6.238
 5457TIP3    H116312   4.294   1.003   6.241
 5457TIP3    H216313   4.200   1.094   6.317
 5458TIP3   OH216314   7.837   3.541   6.483
 5458TIP3    H116315   7.877   3.474   6.428
 5458TIP3    H216316   7.883   3.535   6.567
 5459TIP3   OH216317   2.974   4.240   4.387
 5459TIP3    H116318   2.879   4.245   4.384
 5459TIP3    H216319   2.993   4.148   4.401
 5460TIP3   OH216320   2.582   2.955   3.012
 5460TIP3    H116321   2.530   2.995   2.943
 5460TIP3    H216322   2.664   2.929   2.969
 5461TIP3   OH216323   5.760   5.258   4.603
 5461TIP3    H116324   5.847   5.270   4.565
 5461TIP3    H216325   5.714   5.339   4.583
 5462TIP3   OH216326   3.213   3.278   1.537
 5462TIP3    H116327   3.160   3.324   1.602
 5462TIP3    H216328   3.230   3.343   1.469
 5463TIP3   OH216329   2.352   4.629   3.433
 5463TIP3    H116330   2.393   4.571   3.369
 5463TIP3    H216331   2.423   4.685   3.463
 5464TIP3   OH216332   5.605   0.764   4.776
 5464TIP3    H116333   5.628   0.786   4.867
 5464TIP3    H216334   5.511   0.782   4.770
 5465TIP3   OH216335   2.169   3.440   5.467
 5465TIP3    H116336   2.239   3.442   5.532
 5465TIP3    H216337   2.212   3.413   5.386
 5466TIP3   OH216338   7.090   5.946   2.875
 5466TIP3    H116339   7.083   5.897   2.793
 5466TIP3    H216340   7.174   5.990   2.870
 5467TIP3   OH216341   1.152   0.388   3.348
 5467TIP3    H116342   1.106   0.447   3.407
 5467TIP3    H216343   1.083   0.338   3.304
 5468TIP3   OH216344   8.186   4.122   4.314
 5468TIP3    H116345   8.103   4.161   4.340
 5468TIP3    H216346   8.161   4.051   4.255
 5469TIP3   OH216347   1.872   1.272   2.519
 5469TIP3    H116348   1.777   1.280   2.511
 5469TIP3    H216349   1.897   1.212   2.449
 5470TIP3   OH216350   5.280   7.885   4.730
 5470TIP3    H116351   5.258   7.961   4.784
 5470TIP3    H216352   5.241   7.811   4.776
 5471TIP3   OH216353   2.007   3.409   0.168
 5471TIP3    H116354   1.992   3.327   0.120
 5471TIP3    H216355   2.097   3.402   0.199
 5472TIP3   OH216356   7.968   7.844   5.273
 5472TIP3    H116357   7.964   7.803   5.360
 5472TIP3    H216358   7.939   7.775   5.213
 5473TIP3   OH216359   8.013   1.811   2.389
 5473TIP3    H116360   8.043   1.824   2.299
 5473TIP3    H216361   7.929   1.767   2.380
 5474TIP3   OH216362   6.984   1.862   2.258
 5474TIP3    H116363   7.056   1.920   2.283
 5474TIP3    H216364   6.980   1.867   2.163
 5475TIP3   OH216365   4.486   5.441   2.956
 5475TIP3    H116366   4.393   5.440   2.934
 5475TIP3    H216367   4.490   5.485   3.041
 5476TIP3   OH216368   7.150   4.428   4.326
 5476TIP3    H116369   7.150   4.508   4.379
 5476TIP3    H216370   7.218   4.373   4.366
 5477TIP3   OH216371   8.000   1.350   6.591
 5477TIP3    H116372   7.933   1.294   6.629
 5477TIP3    H216373   8.025   1.306   6.509
 5478TIP3   OH216374   2.408   5.933   0.894
 5478TIP3    H116375   2.502   5.943   0.882
 5478TIP3    H216376   2.369   5.970   0.814
 5479TIP3   OH216377   6.178   0.419   1.959
 5479TIP3    H116378   6.141   0.402   1.872
 5479TIP3    H216379   6.247   0.484   1.943
 5480TIP3   OH216380   4.140   0.577   1.296
 5480TIP3    H116381   4.079   0.638   1.338
 5480TIP3    H216382   4.083   0.510   1.258
 5481TIP3   OH216383   7.855   3.327   3.282
 5481TIP3    H116384   7.937   3.292   3.247
 5481TIP3    H216385   7.806   3.251   3.311
 5482TIP3   OH216386   0.549   6.336   6.306
 5482TIP3    H116387   0.567   6.315   6.398
 5482TIP3    H216388   0.547   6.251   6.262
 5483TIP3   OH216389   6.995   7.035   0.108
 5483TIP3    H116390   6.965   6.945   0.117
 5483TIP3    H216391   7.045   7.036   0.026
 5484TIP3   OH216392   6.447   2.022   6.142
 5484TIP3    H116393   6.494   1.998   6.062
 5484TIP3    H216394   6.513   2.064   6.197
 5485TIP3   OH216395   5.189   3.498   2.486
 5485TIP3    H116396   5.161   3.423   2.538
 5485TIP3    H216397   5.282   3.508   2.505
 5486TIP3   OH216398   5.705   5.392   2.306
 5486TIP3    H116399   5.669   5.304   2.319
 5486TIP3    H216400   5.627   5.448   2.296
 5487TIP3   OH216401   2.716   1.528   4.078
 5487TIP3    H116402   2.677   1.583   4.146
 5487TIP3    H216403   2.733   1.445   4.122
 5488TIP3   OH216404   7.395   4.401   0.082
 5488TIP3    H116405   7.343   4.320   0.087
 5488TIP3    H216406   7.482   4.371   0.054
 5489TIP3   OH216407   3.785   0.040   1.422
 5489TIP3    H116408   3.794  -0.047   1.461
 5489TIP3    H216409   3.869   0.055   1.378
 5490TIP3   OH216410   5.551   2.885   0.611
 5490TIP3    H116411   5.478   2.833   0.576
 5490TIP3    H216412   5.570   2.844   0.696
 5491TIP3   OH216413   7.378   6.229   3.682
 5491TIP3    H116414   7.440   6.156   3.689
 5491TIP3    H216415   7.303   6.203   3.736
 5492TIP3   OH216416   4.725   6.844   6.266
 5492TIP3    H116417   4.795   6.883   6.213
 5492TIP3    H216418   4.762   6.838   6.354
 5493TIP3   OH216419   2.802   0.948   6.794
 5493TIP3    H116420   2.714   0.931   6.762
 5493TIP3    H216421   2.795   1.031   6.841
 5494TIP3   OH216422   1.115   7.216   5.218
 5494TIP3    H116423   1.172   7.140   5.227
 5494TIP3    H216424   1.112   7.255   5.305
 5495TIP3   OH216425   0.344   2.820   1.043
 5495TIP3    H116426   0.293   2.893   1.008
 5495TIP3    H216427   0.350   2.758   0.970
 5496TIP3   OH216428   6.697   5.021   6.003
 5496TIP3    H116429   6.757   5.000   5.931
 5496TIP3    H216430   6.753   5.052   6.074
 5497TIP3   OH216431   4.250   4.310   5.086
 5497TIP3    H116432   4.322   4.345   5.139
 5497TIP3    H216433   4.285   4.308   4.996
 5498TIP3   OH216434   1.007   6.595   1.655
 5498TIP3    H116435   0.944   6.539   1.699
 5498TIP3    H216436   0.958   6.635   1.584
 5499TIP3   OH216437   7.408   5.199   2.493
 5499TIP3    H116438   7.412   5.227   2.584
 5499TIP3    H216439   7.334   5.247   2.456
 5500TIP3   OH216440   5.259   1.946   1.115
 5500TIP3    H116441   5.264   1.857   1.149
 5500TIP3    H216442   5.169   1.973   1.131
 5501TIP3   OH216443   3.597   2.765   5.757
 5501TIP3    H116444   3.512   2.809   5.751
 5501TIP3    H216445   3.583   2.692   5.817
 5502TIP3   OH216446   3.273   5.758   2.319
 5502TIP3    H116447   3.246   5.711   2.241
 5502TIP3    H216448   3.192   5.783   2.362
 5503TIP3   OH216449   0.192   7.800   2.423
 5503TIP3    H116450   0.157   7.711   2.425
 5503TIP3    H216451   0.241   7.805   2.341
 5504TIP3   OH216452   4.569   5.164   0.049
 5504TIP3    H116453   4.481   5.143   0.019
 5504TIP3    H216454   4.595   5.240  -0.003
 5505TIP3   OH216455   0.536   4.223   4.208
 5505TIP3    H116456   0.452   4.210   4.254
 5505TIP3    H216457   0.527   4.172   4.127
 5506TIP3   OH216458   1.442   3.049   1.062
 5506TIP3    H116459   1.439   2.958   1.031
 5506TIP3    H216460   1.519   3.052   1.119
 5507TIP3   OH216461   6.512   5.514   4.980
 5507TIP3    H116462   6.422   5.519   5.011
 5507TIP3    H216463   6.555   5.454   5.042
 5508TIP3   OH216464   8.220   7.119   0.168
 5508TIP3    H116465   8.239   7.025   0.162
 5508TIP3    H216466   8.238   7.141   0.259
 5509TIP3   OH216467   7.332   3.704   4.988
 5509TIP3    H116468   7.248   3.750   4.983
 5509TIP3    H216469   7.368   3.712   4.900
 5510TIP3   OH216470   1.945   3.035   5.858
 5510TIP3    H116471   1.852   3.059   5.859
 5510TIP3    H216472   1.987   3.097   5.917
 5511TIP3   OH216473   7.351   4.534   1.025
 5511TIP3    H116474   7.273   4.560   1.074
 5511TIP3    H216475   7.316   4.499   0.943
 5512TIP3   OH216476   0.564   0.507   5.474
 5512TIP3    H116477   0.619   0.477   5.546
 5512TIP3    H216478   0.547   0.429   5.422
 5513TIP3   OH216479   6.812   3.883   4.974
 5513TIP3    H116480   6.853   3.894   4.888
 5513TIP3    H216481   6.791   3.790   4.979
 5514TIP3   OH216482   5.225   1.653   1.548
 5514TIP3    H116483   5.194   1.563   1.548
 5514TIP3    H216484   5.145   1.706   1.542
 5515TIP3   OH216485   6.038   7.794   4.665
 5515TIP3    H116486   6.126   7.776   4.697
 5515TIP3    H216487   5.999   7.708   4.651
 5516TIP3   OH216488   1.942   5.981   5.759
 5516TIP3    H116489   1.957   6.057   5.815
 5516TIP3    H216490   1.954   6.014   5.670
 5517TIP3   OH216491   4.600   2.976   5.111
 5517TIP3    H116492   4.645   2.893   5.097
 5517TIP3    H216493   4.667   3.034   5.146
 5518TIP3   OH216494   7.037   5.513   1.451
 5518TIP3    H116495   6.975   5.509   1.524
 5518TIP3    H216496   7.019   5.597   1.409
 5519TIP3   OH216497   6.738   7.281   4.130
 5519TIP3    H116498   6.771   7.221   4.197
 5519TIP3    H216499   6.645   7.261   4.122
 5520TIP3   OH216500   4.577   5.452   3.864
 5520TIP3    H116501   4.556   5.375   3.811
 5520TIP3    H216502   4.551   5.428   3.953
 5521TIP3   OH216503   3.818   1.262   6.147
 5521TIP3    H116504   3.809   1.256   6.052
 5521TIP3    H216505   3.804   1.173   6.179
 5522TIP3   OH216506   2.230   0.802   3.596
 5522TIP3    H116507   2.295   0.837   3.535
 5522TIP3    H216508   2.206   0.717   3.559
 5523TIP3   OH216509   4.925   7.387   4.372
 5523TIP3    H116510   4.839   7.402   4.334
 5523TIP3    H216511   4.981   7.453   4.332
 5524TIP3   OH216512   7.910   0.802   2.514
 5524TIP3    H116513   7.975   0.799   2.585
 5524TIP3    H216514   7.905   0.894   2.491
 5525TIP3   OH216515   5.992   1.232   1.612
 5525TIP3    H116516   5.896   1.237   1.617
 5525TIP3    H216517   6.011   1.139   1.603
 5526TIP3   OH216518   4.058   2.753   4.102
 5526TIP3    H116519   4.041   2.683   4.038
 5526TIP3    H216520   4.009   2.828   4.069
 5527TIP3   OH216521   3.657   2.527   4.691
 5527TIP3    H116522   3.645   2.552   4.599
 5527TIP3    H216523   3.733   2.578   4.720
 5528TIP3   OH216524   1.748   5.802   5.728
 5528TIP3    H116525   1.817   5.862   5.758
 5528TIP3    H216526   1.693   5.789   5.806
 5529TIP3   OH216527   7.531   6.448   5.262
 5529TIP3    H116528   7.577   6.440   5.179
 5529TIP3    H216529   7.594   6.418   5.328
 5530TIP3   OH216530   4.447   7.782   1.577
 5530TIP3    H116531   4.391   7.709   1.604
 5530TIP3    H216532   4.476   7.758   1.488
 5531TIP3   OH216533   1.588   6.622   6.086
 5531TIP3    H116534   1.598   6.527   6.091
 5531TIP3    H216535   1.513   6.635   6.028
 5532TIP3   OH216536   5.756   4.371   1.986
 5532TIP3    H116537   5.801   4.298   1.943
 5532TIP3    H216538   5.693   4.402   1.922
 5533TIP3   OH216539   8.087   2.884   0.044
 5533TIP3    H116540   8.145   2.811   0.065
 5533TIP3    H216541   8.080   2.884  -0.051
 5534TIP3   OH216542   1.263   1.533   4.217
 5534TIP3    H116543   1.355   1.524   4.243
 5534TIP3    H216544   1.242   1.448   4.179
 5535TIP3   OH216545   5.018   4.677   2.383
 5535TIP3    H116546   5.059   4.643   2.462
 5535TIP3    H216547   4.995   4.768   2.405
 5536TIP3   OH216548   7.243   7.200   0.505
 5536TIP3    H116549   7.260   7.106   0.515
 5536TIP3    H216550   7.328   7.238   0.484
 5537TIP3   OH216551   3.075   3.671   0.258
 5537TIP3    H116552   3.109   3.670   0.348
 5537TIP3    H216553   3.114   3.594   0.217
 5538TIP3   OH216554   0.199   4.407   0.582
 5538TIP3    H116555   0.265   4.383   0.517
 5538TIP3    H216556   0.231   4.369   0.664
 5539TIP3   OH216557   6.290   1.463   5.994
 5539TIP3    H116558   6.203   1.449   6.032
 5539TIP3    H216559   6.336   1.515   6.060
 5540TIP3   OH216560   7.842   6.755   1.098
 5540TIP3    H116561   7.842   6.825   1.163
 5540TIP3    H216562   7.789   6.686   1.137
 5541TIP3   OH216563   3.161   6.348   3.761
 5541TIP3    H116564   3.076   6.378   3.793
 5541TIP3    H216565   3.152   6.349   3.666
 5542TIP3   OH216566   3.438   6.130   4.121
 5542TIP3    H116567   3.414   6.223   4.114
 5542TIP3    H216568   3.462   6.105   4.032
 5543TIP3   OH216569   3.246   0.217   0.747
 5543TIP3    H116570   3.174   0.195   0.689
 5543TIP3    H216571   3.294   0.286   0.701
 5544TIP3   OH216572   6.530   0.869   3.228
 5544TIP3    H116573   6.536   0.923   3.307
 5544TIP3    H216574   6.440   0.882   3.197
 5545TIP3   OH216575   6.734   7.155   5.765
 5545TIP3    H116576   6.768   7.066   5.775
 5545TIP3    H216577   6.727   7.168   5.670
 5546TIP3   OH216578   7.173   3.886   0.586
 5546TIP3    H116579   7.157   3.801   0.545
 5546TIP3    H216580   7.127   3.881   0.670
 5547TIP3   OH216581   3.232   7.682   5.231
 5547TIP3    H116582   3.235   7.639   5.145
 5547TIP3    H216583   3.185   7.764   5.216
 5548TIP3   OH216584   1.151   5.625   2.248
 5548TIP3    H116585   1.196   5.557   2.299
 5548TIP3    H216586   1.145   5.699   2.307
 5549TIP3   OH216587   4.202   5.447   1.194
 5549TIP3    H116588   4.261   5.522   1.195
 5549TIP3    H216589   4.211   5.411   1.106
 5550TIP3   OH216590   6.389   2.754   6.695
 5550TIP3    H116591   6.305   2.737   6.737
 5550TIP3    H216592   6.450   2.693   6.737
 5551TIP3   OH216593   4.530   5.500   1.271
 5551TIP3    H116594   4.536   5.442   1.196
 5551TIP3    H216595   4.477   5.452   1.335
 5552TIP3   OH216596   7.034   3.838   6.726
 5552TIP3    H116597   7.004   3.899   6.793
 5552TIP3    H216598   7.069   3.894   6.656
 5553TIP3   OH216599   3.578   7.522   6.120
 5553TIP3    H116600   3.604   7.575   6.196
 5553TIP3    H216601   3.621   7.564   6.046
 5554TIP3   OH216602   0.765   2.939   0.027
 5554TIP3    H116603   0.821   2.980  -0.038
 5554TIP3    H216604   0.788   2.982   0.110
 5555TIP3   OH216605   4.422   1.786   3.628
 5555TIP3    H116606   4.469   1.866   3.607
 5555TIP3    H216607   4.450   1.724   3.560
 5556TIP3   OH216608   4.532   1.449   1.044
 5556TIP3    H116609   4.545   1.468   1.137
 5556TIP3    H216610   4.479   1.370   1.042
 5557TIP3   OH216611   6.865   0.138   2.666
 5557TIP3    H116612   6.839   0.169   2.579
 5557TIP3    H216613   6.867   0.042   2.658
 5558TIP3   OH216614   6.878   6.431   5.465
 5558TIP3    H116615   6.966   6.454   5.496
 5558TIP3    H216616   6.846   6.368   5.530
 5559TIP3   OH216617   4.473   1.078   4.065
 5559TIP3    H116618   4.487   0.985   4.082
 5559TIP3    H216619   4.382   1.093   4.089
 5560TIP3   OH216620   1.265   5.438   0.827
 5560TIP3    H116621   1.349   5.482   0.813
 5560TIP3    H216622   1.229   5.478   0.906
 5561TIP3   OH216623   7.387   4.868   4.664
 5561TIP3    H116624   7.325   4.815   4.715
 5561TIP3    H216625   7.343   4.882   4.580
 5562TIP3   OH216626   4.159   5.119   1.146
 5562TIP3    H116627   4.071   5.092   1.119
 5562TIP3    H216628   4.154   5.127   1.241
 5563TIP3   OH216629   3.280   0.869   1.745
 5563TIP3    H116630   3.362   0.819   1.740
 5563TIP3    H216631   3.307   0.958   1.768
 5564TIP3   OH216632   5.863   1.725   3.099
 5564TIP3    H116633   5.896   1.646   3.141
 5564TIP3    H216634   5.879   1.711   3.005
 5565TIP3   OH216635   6.341   2.777   4.206
 5565TIP3    H116636   6.429   2.805   4.231
 5565TIP3    H216637   6.313   2.840   4.140
 5566TIP3   OH216638   3.392   3.100   1.425
 5566TIP3    H116639   3.330   3.173   1.432
 5566TIP3    H216640   3.433   3.095   1.512
 5567TIP3   OH216641   6.265   0.269   6.066
 5567TIP3    H116642   6.243   0.184   6.028
 5567TIP3    H216643   6.310   0.248   6.148
 5568TIP3   OH216644   7.922   1.877   4.213
 5568TIP3    H116645   7.979   1.901   4.140
 5568TIP3    H216646   7.884   1.960   4.242
 5569TIP3   OH216647   3.048   1.231   0.625
 5569TIP3    H116648   2.991   1.287   0.678
 5569TIP3    H216649   2.990   1.166   0.586
 5570TIP3   OH216650   2.350   0.307   5.602
 5570TIP3    H116651   2.271   0.343   5.561
 5570TIP3    H216652   2.318   0.235   5.656
 5571TIP3   OH216653   0.672   2.084   1.930
 5571TIP3    H116654   0.621   2.150   1.884
 5571TIP3    H216655   0.762   2.116   1.926
 5572TIP3   OH216656   1.209   6.019   1.746
 5572TIP3    H116657   1.184   5.998   1.656
 5572TIP3    H216658   1.210   5.934   1.791
 5573TIP3   OH216659   4.196   6.530   5.901
 5573TIP3    H116660   4.184   6.601   5.963
 5573TIP3    H216661   4.133   6.463   5.928
 5574TIP3   OH216662   7.286   6.796   4.457
 5574TIP3    H116663   7.300   6.880   4.414
 5574TIP3    H216664   7.352   6.792   4.526
 5575TIP3   OH216665   6.718   4.323   3.729
 5575TIP3    H116666   6.800   4.293   3.768
 5575TIP3    H216667   6.677   4.376   3.798
 5576TIP3   OH216668   6.014   2.042   2.761
 5576TIP3    H116669   6.093   2.085   2.729
 5576TIP3    H216670   5.996   2.085   2.845
 5577TIP3   OH216671   5.639   3.913   5.936
 5577TIP3    H116672   5.681   3.849   5.994
 5577TIP3    H216673   5.592   3.859   5.871
 5578TIP3   OH216674   3.112   1.301   6.554
 5578TIP3    H116675   3.160   1.363   6.609
 5578TIP3    H216676   3.154   1.217   6.572
 5579TIP3   OH216677   3.523   6.480   3.159
 5579TIP3    H116678   3.578   6.432   3.097
 5579TIP3    H216679   3.462   6.415   3.193
 5580TIP3   OH216680   3.903   0.461   5.118
 5580TIP3    H116681   3.867   0.512   5.045
 5580TIP3    H216682   3.852   0.380   5.118
 5581TIP3   OH216683   8.271   5.439   6.110
 5581TIP3    H116684   8.341   5.461   6.172
 5581TIP3    H216685   8.310   5.370   6.055
 5582TIP3   OH216686   2.916   0.459   0.934
 5582TIP3    H116687   2.949   0.538   0.975
 5582TIP3    H216688   2.930   0.473   0.840
 5583TIP3   OH216689   3.950   5.779   6.746
 5583TIP3    H116690   4.026   5.747   6.794
 5583TIP3    H216691   3.900   5.829   6.810
 5584TIP3   OH216692   3.541   4.567   4.603
 5584TIP3    H116693   3.447   4.562   4.587
 5584TIP3    H216694   3.567   4.652   4.570
 5585TIP3   OH216695   6.361   5.286   0.177
 5585TIP3    H116696   6.354   5.252   0.266
 5585TIP3    H216697   6.368   5.207   0.122
 5586TIP3   OH216698   3.741   2.493   6.557
 5586TIP3    H116699   3.720   2.406   6.522
 5586TIP3    H216700   3.694   2.554   6.499
 5587TIP3   OH216701   0.093   5.225   0.499
 5587TIP3    H116702   0.176   5.189   0.465
 5587TIP3    H216703   0.059   5.277   0.426
 5588TIP3   OH216704   2.453   6.812   1.690
 5588TIP3    H116705   2.501   6.882   1.734
 5588TIP3    H216706   2.484   6.732   1.733
 5589TIP3   OH216707   2.614   6.432   2.620
 5589TIP3    H116708   2.564   6.423   2.539
 5589TIP3    H216709   2.652   6.346   2.635
 5590TIP3   OH216710   1.070   2.763   6.468
 5590TIP3    H116711   1.164   2.746   6.457
 5590TIP3    H216712   1.052   2.741   6.559
 5591TIP3   OH216713   3.104   0.609   2.580
 5591TIP3    H116714   3.133   0.645   2.664
 5591TIP3    H216715   3.009   0.625   2.579
 5592TIP3   OH216716   4.907   0.631   6.800
 5592TIP3    H116717   4.942   0.717   6.821
 5592TIP3    H216718   4.842   0.647   6.731
 5593TIP3   OH216719   3.515   0.290   3.758
 5593TIP3    H116720   3.497   0.379   3.787
 5593TIP3    H216721   3.432   0.243   3.772
 5594TIP3   OH216722   7.062   0.089   3.278
 5594TIP3    H116723   6.979   0.119   3.240
 5594TIP3    H216724   7.130   0.135   3.228
 5595TIP3   OH216725   2.629   4.033   2.226
 5595TIP3    H116726   2.630   4.125   2.252
 5595TIP3    H216727   2.571   4.030   2.150
 5596TIP3   OH216728   4.081   0.783   4.231
 5596TIP3    H116729   4.058   0.747   4.145
 5596TIP3    H216730   4.171   0.755   4.246
 5597TIP3   OH216731   5.921   0.038   4.110
 5597TIP3    H116732   6.014   0.033   4.090
 5597TIP3    H216733   5.899  -0.049   4.146
 5598TIP3   OH216734   1.704   3.835   4.586
 5598TIP3    H116735   1.736   3.772   4.651
 5598TIP3    H216736   1.702   3.918   4.633
 5599TIP3   OH216737   0.625   6.155   3.390
 5599TIP3    H116738   0.566   6.091   3.430
 5599TIP3    H216739   0.589   6.240   3.415
 5600TIP3   OH216740   3.446   2.454   6.706
 5600TIP3    H116741   3.366   2.473   6.755
 5600TIP3    H216742   3.459   2.530   6.650
 5601TIP3   OH216743   5.224   3.674   5.957
 5601TIP3    H116744   5.149   3.622   5.986
 5601TIP3    H216745   5.250   3.634   5.874
 5602TIP3   OH216746   5.714   5.262   1.582
 5602TIP3    H116747   5.708   5.221   1.496
 5602TIP3    H216748   5.636   5.317   1.587
 5603TIP3   OH216749   1.788   2.065   3.678
 5603TIP3    H116750   1.756   1.977   3.658
 5603TIP3    H216751   1.811   2.101   3.592
 5604TIP3   OH216752   3.921   4.245   5.242
 5604TIP3    H116753   3.979   4.310   5.281
 5604TIP3    H216754   3.927   4.262   5.148
 5605TIP3   OH216755   2.467   5.951   5.196
 5605TIP3    H116756   2.448   5.903   5.277
 5605TIP3    H216757   2.382   5.983   5.167
 5606TIP3   OH216758   8.336   7.255   1.238
 5606TIP3    H116759   8.313   7.266   1.330
 5606TIP3    H216760   8.282   7.181   1.208
 5607TIP3   OH216761   3.427   2.845   2.961
 5607TIP3    H116762   3.497   2.817   2.902
 5607TIP3    H216763   3.377   2.765   2.979
 5608TIP3   OH216764   5.507   6.107   4.036
 5608TIP3    H116765   5.501   6.056   4.116
 5608TIP3    H216766   5.415   6.121   4.009
 5609TIP3   OH216767   2.905   3.408   0.245
 5609TIP3    H116768   2.839   3.376   0.183
 5609TIP3    H216769   2.985   3.415   0.193
 5610TIP3   OH216770   5.417   2.491   0.189
 5610TIP3    H116771   5.438   2.519   0.278
 5610TIP3    H216772   5.378   2.404   0.200
 5611TIP3   OH216773   3.803   4.850   2.698
 5611TIP3    H116774   3.753   4.794   2.638
 5611TIP3    H216775   3.872   4.793   2.732
 5612TIP3   OH216776   5.876   3.619   2.803
 5612TIP3    H116777   5.855   3.711   2.817
 5612TIP3    H216778   5.803   3.571   2.843
 5613TIP3   OH216779   0.311   1.362   3.260
 5613TIP3    H116780   0.368   1.433   3.231
 5613TIP3    H216781   0.223   1.401   3.258
 5614TIP3   OH216782   6.600   6.027   4.181
 5614TIP3    H116783   6.618   6.120   4.163
 5614TIP3    H216784   6.535   6.028   4.251
 5615TIP3   OH216785   3.236   1.370   2.438
 5615TIP3    H116786   3.276   1.445   2.394
 5615TIP3    H216787   3.145   1.398   2.455
 5616TIP3   OH216788   0.775   5.791   6.681
 5616TIP3    H116789   0.826   5.717   6.650
 5616TIP3    H216790   0.714   5.753   6.744
 5617TIP3   OH216791   6.092   5.196   6.335
 5617TIP3    H116792   6.120   5.112   6.371
 5617TIP3    H216793   6.105   5.188   6.241
 5618TIP3   OH216794   8.060   1.335   3.922
 5618TIP3    H116795   7.969   1.335   3.949
 5618TIP3    H216796   8.108   1.305   3.999
 5619TIP3   OH216797   4.219   5.963   6.740
 5619TIP3    H116798   4.209   5.904   6.815
 5619TIP3    H216799   4.312   5.983   6.737
 5620TIP3   OH216800   5.546   5.432   5.425
 5620TIP3    H116801   5.456   5.465   5.434
 5620TIP3    H216802   5.591   5.462   5.504
 5621TIP3   OH216803   6.926   6.532   1.944
 5621TIP3    H116804   6.903   6.513   2.035
 5621TIP3    H216805   6.843   6.555   1.903
 5622TIP3   OH216806   6.199   0.534   4.799
 5622TIP3    H116807   6.279   0.578   4.828
 5622TIP3    H216808   6.160   0.593   4.734
 5623TIP3   OH216809   2.499   5.521   1.468
 5623TIP3    H116810   2.439   5.450   1.444
 5623TIP3    H216811   2.500   5.578   1.392
 5624TIP3   OH216812   3.292   5.312   2.116
 5624TIP3    H116813   3.377   5.331   2.076
 5624TIP3    H216814   3.311   5.246   2.183
 5625TIP3   OH216815   1.775   1.461   4.641
 5625TIP3    H116816   1.712   1.457   4.712
 5625TIP3    H216817   1.860   1.446   4.683
 5626TIP3   OH216818   8.335   4.486   3.684
 5626TIP3    H116819   8.409   4.457   3.737
 5626TIP3    H216820   8.354   4.452   3.596
 5627TIP3   OH216821   8.001   3.005   4.946
 5627TIP3    H116822   7.999   3.011   5.041
 5627TIP3    H216823   8.009   3.096   4.917
 5628TIP3   OH216824   6.664   1.141   4.811
 5628TIP3    H116825   6.749   1.184   4.808
 5628TIP3    H216826   6.675   1.071   4.875
 5629TIP3   OH216827   5.702   2.964   1.419
 5629TIP3    H116828   5.791   2.952   1.385
 5629TIP3    H216829   5.646   2.958   1.342
 5630TIP3   OH216830   1.720   3.843   3.334
 5630TIP3    H116831   1.685   3.797   3.410
 5630TIP3    H216832   1.813   3.818   3.331
 5631TIP3   OH216833   0.170   2.220   3.820
 5631TIP3    H116834   0.229   2.212   3.895
 5631TIP3    H216835   0.121   2.138   3.819
 5632TIP3   OH216836   3.721   7.486   5.342
 5632TIP3    H116837   3.717   7.542   5.265
 5632TIP3    H216838   3.673   7.534   5.409
 5633TIP3   OH216839   7.092   6.547   3.288
 5633TIP3    H116840   6.997   6.548   3.282
 5633TIP3    H216841   7.121   6.508   3.206
 5634TIP3   OH216842   3.384   5.957   4.337
 5634TIP3    H116843   3.471   5.966   4.378
 5634TIP3    H216844   3.383   6.025   4.270
 5635TIP3   OH216845   1.218   3.629   6.438
 5635TIP3    H116846   1.173   3.548   6.460
 5635TIP3    H216847   1.309   3.613   6.461
 5636TIP3   OH216848   8.331   7.477   1.051
 5636TIP3    H116849   8.416   7.443   1.025
 5636TIP3    H216850   8.309   7.428   1.131
 5637TIP3   OH216851   3.382   3.065   2.798
 5637TIP3    H116852   3.392   2.988   2.855
 5637TIP3    H216853   3.309   3.114   2.836
 5638TIP3   OH216854   8.130   1.694   2.786
 5638TIP3    H116855   8.039   1.716   2.768
 5638TIP3    H216856   8.158   1.758   2.851
 5639TIP3   OH216857   6.659   7.654   4.687
 5639TIP3    H116858   6.619   7.678   4.771
 5639TIP3    H216859   6.586   7.652   4.625
 5640TIP3   OH216860   1.605   6.886   6.626
 5640TIP3    H116861   1.669   6.954   6.606
 5640TIP3    H216862   1.562   6.916   6.706
 5641TIP3   OH216863   2.373   3.810   5.640
 5641TIP3    H116864   2.422   3.732   5.611
 5641TIP3    H216865   2.339   3.848   5.559
 5642TIP3   OH216866   7.233   3.607   4.629
 5642TIP3    H116867   7.210   3.518   4.655
 5642TIP3    H216868   7.207   3.612   4.537
 5643TIP3   OH216869   3.109   4.875   0.055
 5643TIP3    H116870   3.028   4.847   0.098
 5643TIP3    H216871   3.174   4.809   0.082
 5644TIP3   OH216872   5.174   4.522   2.560
 5644TIP3    H116873   5.179   4.554   2.650
 5644TIP3    H216874   5.171   4.427   2.568
 5645TIP3   OH216875   4.564   3.555   2.441
 5645TIP3    H116876   4.604   3.613   2.376
 5645TIP3    H216877   4.637   3.502   2.474
 5646TIP3   OH216878   5.432   1.041   0.208
 5646TIP3    H116879   5.524   1.039   0.235
 5646TIP3    H216880   5.421   0.966   0.150
 5647TIP3   OH216881   1.367   4.252   1.948
 5647TIP3    H116882   1.421   4.287   2.019
 5647TIP3    H216883   1.422   4.256   1.870
 5648TIP3   OH216884   5.868   0.615   4.111
 5648TIP3    H116885   5.801   0.675   4.144
 5648TIP3    H216886   5.888   0.647   4.023
 5649TIP3   OH216887   6.651   1.689   2.088
 5649TIP3    H116888   6.625   1.604   2.124
 5649TIP3    H216889   6.728   1.669   2.035
 5650TIP3   OH216890   4.080   7.439   5.552
 5650TIP3    H116891   4.035   7.372   5.603
 5650TIP3    H216892   4.169   7.406   5.542
 5651TIP3   OH216893   4.371   3.744   0.293
 5651TIP3    H116894   4.379   3.650   0.309
 5651TIP3    H216895   4.458   3.773   0.268
 5652TIP3   OH216896   1.289   4.595   2.988
 5652TIP3    H116897   1.363   4.568   2.933
 5652TIP3    H216898   1.319   4.673   3.033
 5653TIP3   OH216899   0.582   2.048   5.066
 5653TIP3    H116900   0.519   1.996   5.116
 5653TIP3    H216901   0.576   2.013   4.977
 5654TIP3   OH216902   8.033   6.862   6.775
 5654TIP3    H116903   8.080   6.796   6.827
 5654TIP3    H216904   8.048   6.944   6.822
 5655TIP3   OH216905   8.133   7.574   1.838
 5655TIP3    H116906   8.066   7.569   1.906
 5655TIP3    H216907   8.169   7.662   1.845
 5656TIP3   OH216908   8.250   6.048   1.642
 5656TIP3    H116909   8.197   6.127   1.653
 5656TIP3    H216910   8.198   5.979   1.683
 5657TIP3   OH216911   1.132   7.572   2.558
 5657TIP3    H116912   1.178   7.576   2.642
 5657TIP3    H216913   1.198   7.541   2.496
 5658TIP3   OH216914   3.251   4.227   0.231
 5658TIP3    H116915   3.204   4.223   0.314
 5658TIP3    H216916   3.291   4.140   0.222
 5659TIP3   OH216917   3.705   3.375   2.989
 5659TIP3    H116918   3.770   3.374   3.060
 5659TIP3    H216919   3.671   3.286   2.987
 5660TIP3   OH216920   0.853   4.711   3.950
 5660TIP3    H116921   0.775   4.748   3.909
 5660TIP3    H216922   0.818   4.644   4.010
 5661TIP3   OH216923   2.670   0.896   2.688
 5661TIP3    H116924   2.676   0.873   2.595
 5661TIP3    H216925   2.689   0.990   2.691
 5662TIP3   OH216926   6.344   4.763   5.073
 5662TIP3    H116927   6.270   4.800   5.121
 5662TIP3    H216928   6.354   4.821   4.997
 5663TIP3   OH216929   2.361   0.207   3.355
 5663TIP3    H116930   2.378   0.179   3.445
 5663TIP3    H216931   2.295   0.145   3.323
 5664TIP3   OH216932   4.714   6.590   5.954
 5664TIP3    H116933   4.805   6.576   5.926
 5664TIP3    H216934   4.662   6.563   5.879
 5665TIP3   OH216935   0.114   7.528   4.682
 5665TIP3    H116936   0.148   7.582   4.610
 5665TIP3    H216937   0.058   7.587   4.732
 5666TIP3   OH216938   1.758   0.741   0.622
 5666TIP3    H116939   1.786   0.801   0.691
 5666TIP3    H216940   1.685   0.787   0.579
 5667TIP3   OH216941   7.200   1.544   3.042
 5667TIP3    H116942   7.186   1.480   2.972
 5667TIP3    H216943   7.123   1.536   3.098
 5668TIP3   OH216944   0.424   6.091   1.495
 5668TIP3    H116945   0.509   6.072   1.534
 5668TIP3    H216946   0.436   6.077   1.401
 5669TIP3   OH216947   3.026   4.645   2.703
 5669TIP3    H116948   2.938   4.617   2.676
 5669TIP3    H216949   3.048   4.715   2.641
 5670TIP3   OH216950   6.202   7.643   3.679
 5670TIP3    H116951   6.256   7.716   3.707
 5670TIP3    H216952   6.140   7.682   3.617
 5671TIP3   OH216953   3.486   6.718   5.431
 5671TIP3    H116954   3.425   6.791   5.438
 5671TIP3    H216955   3.431   6.642   5.417
 5672TIP3   OH216956   2.437   2.071   0.893
 5672TIP3    H116957   2.433   1.976   0.892
 5672TIP3    H216958   2.463   2.093   0.982
 5673TIP3   OH216959   6.215   0.909   0.545
 5673TIP3    H116960   6.288   0.856   0.512
 5673TIP3    H216961   6.169   0.852   0.606
 5674TIP3   OH216962   5.221   0.741   6.171
 5674TIP3    H116963   5.141   0.786   6.198
 5674TIP3    H216964   5.291   0.786   6.218
 5675TIP3   OH216965   5.885   1.287   0.273
 5675TIP3    H116966   5.937   1.211   0.298
 5675TIP3    H216967   5.804   1.279   0.323
 5676TIP3   OH216968   5.143   0.787   5.641
 5676TIP3    H116969   5.083   0.781   5.715
 5676TIP3    H216970   5.205   0.715   5.655
 5677TIP3   OH216971   1.148   1.292   1.167
 5677TIP3    H116972   1.068   1.344   1.174
 5677TIP3    H216973   1.208   1.332   1.230
 5678TIP3   OH216974   1.592   4.251  -0.021
 5678TIP3    H116975   1.592   4.156  -0.016
 5678TIP3    H216976   1.627   4.280   0.064
 5679TIP3   OH216977   4.215   6.120   2.083
 5679TIP3    H116978   4.149   6.090   2.145
 5679TIP3    H216979   4.297   6.079   2.113
 5680TIP3   OH216980   5.165   2.593   0.926
 5680TIP3    H116981   5.174   2.677   0.881
 5680TIP3    H216982   5.243   2.586   0.980
 5681TIP3   OH216983   6.704   4.314   2.935
 5681TIP3    H116984   6.696   4.387   2.873
 5681TIP3    H216985   6.757   4.249   2.888
 5682TIP3   OH216986   3.649   2.918   6.817
 5682TIP3    H116987   3.743   2.918   6.797
 5682TIP3    H216988   3.637   2.842   6.874
 5683TIP3   OH216989   7.303   6.917   0.702
 5683TIP3    H116990   7.271   6.990   0.754
 5683TIP3    H216991   7.393   6.904   0.731
 5684TIP3   OH216992   7.477   7.252   4.546
 5684TIP3    H116993   7.538   7.324   4.563
 5684TIP3    H216994   7.416   7.287   4.480
 5685TIP3   OH216995   3.142   7.290   4.973
 5685TIP3    H116996   3.132   7.211   4.921
 5685TIP3    H216997   3.101   7.270   5.057
 5686TIP3   OH216998   1.809   7.622   0.941
 5686TIP3    H116999   1.848   7.689   0.998
 5686TIP3    H217000   1.883   7.585   0.893
 5687TIP3   OH217001   6.698   5.592   3.941
 5687TIP3    H117002   6.739   5.677   3.926
 5687TIP3    H217003   6.610   5.613   3.972
 5688TIP3   OH217004   3.528   7.794   3.877
 5688TIP3    H117005   3.468   7.798   3.802
 5688TIP3    H217006   3.615   7.799   3.837
 5689TIP3   OH217007   0.795   7.462   4.558
 5689TIP3    H117008   0.750   7.472   4.474
 5689TIP3    H217009   0.830   7.549   4.576
 5690TIP3   OH217010   1.230   4.466   6.741
 5690TIP3    H117011   1.190   4.525   6.806
 5690TIP3    H217012   1.297   4.520   6.699
 5691TIP3   OH217013   5.434   7.356   3.929
 5691TIP3    H117014   5.407   7.295   3.862
 5691TIP3    H217015   5.378   7.433   3.917
 5692TIP3   OH217016   6.227   5.625   0.627
 5692TIP3    H117017   6.146   5.629   0.575
 5692TIP3    H217018   6.199   5.588   0.711
 5693TIP3   OH217019   7.921   0.164   6.514
 5693TIP3    H117020   7.991   0.130   6.458
 5693TIP3    H217021   7.958   0.243   6.553
 5694TIP3   OH217022   7.961   1.923   5.675
 5694TIP3    H117023   7.994   1.916   5.765
 5694TIP3    H217024   8.010   1.858   5.626
 5695TIP3   OH217025   0.065   3.054   2.728
 5695TIP3    H117026  -0.020   3.051   2.772
 5695TIP3    H217027   0.122   3.100   2.790
 5696TIP3   OH217028   7.779   5.197   1.301
 5696TIP3    H117029   7.775   5.218   1.208
 5696TIP3    H217030   7.687   5.188   1.327
 5697TIP3   OH217031   3.273   3.052   3.942
 5697TIP3    H117032   3.304   3.132   3.985
 5697TIP3    H217033   3.188   3.035   3.983
 5698TIP3   OH217034   7.571   0.873   4.116
 5698TIP3    H117035   7.548   0.909   4.202
 5698TIP3    H217036   7.487   0.846   4.078
 5699TIP3   OH217037   4.561   4.763   1.220
 5699TIP3    H117038   4.466   4.769   1.225
 5699TIP3    H217039   4.584   4.691   1.279
 5700TIP3   OH217040   5.458   3.254   4.095
 5700TIP3    H117041   5.387   3.220   4.041
 5700TIP3    H217042   5.511   3.178   4.117
 5701TIP3   OH217043   7.937   0.039   0.018
 5701TIP3    H117044   7.895  -0.045   0.001
 5701TIP3    H217045   7.868   0.094   0.055
 5702TIP3   OH217046   3.154   7.330   3.502
 5702TIP3    H117047   3.063   7.333   3.474
 5702TIP3    H217048   3.204   7.352   3.423
 5703TIP3   OH217049   6.464   4.027   6.198
 5703TIP3    H117050   6.555   3.997   6.205
 5703TIP3    H217051   6.429   3.981   6.122
 5704TIP3   OH217052   1.960   1.720   3.293
 5704TIP3    H117053   1.870   1.701   3.267
 5704TIP3    H217054   1.996   1.766   3.218
 5705TIP3   OH217055   6.697   1.372   0.122
 5705TIP3    H117056   6.735   1.453   0.155
 5705TIP3    H217057   6.743   1.303   0.169
 5706TIP3   OH217058   7.726   0.934   5.100
 5706TIP3    H117059   7.690   0.941   5.188
 5706TIP3    H217060   7.798   0.871   5.109
 5707TIP3   OH217061   8.119   3.892   0.668
 5707TIP3    H117062   8.029   3.924   0.672
 5707TIP3    H217063   8.169   3.964   0.630
 5708TIP3   OH217064   0.808   2.168   2.718
 5708TIP3    H117065   0.808   2.125   2.632
 5708TIP3    H217066   0.865   2.113   2.772
 5709TIP3   OH217067   1.776   2.198   1.849
 5709TIP3    H117068   1.775   2.255   1.926
 5709TIP3    H217069   1.869   2.188   1.828
 5710TIP3   OH217070   4.274   2.734   1.966
 5710TIP3    H117071   4.199   2.696   2.010
 5710TIP3    H217072   4.348   2.681   1.995
 5711TIP3   OH217073   1.076   0.576   5.219
 5711TIP3    H117074   0.991   0.543   5.250
 5711TIP3    H217075   1.140   0.529   5.272
 5712TIP3   OH217076   3.548   7.278   4.640
 5712TIP3    H117077   3.580   7.264   4.551
 5712TIP3    H217078   3.464   7.233   4.643
 5713TIP3   OH217079   4.321   3.104   3.524
 5713TIP3    H117080   4.266   3.071   3.595
 5713TIP3    H217081   4.323   3.033   3.461
 5714TIP3   OH217082   1.120   7.239   1.298
 5714TIP3    H117083   1.084   7.170   1.241
 5714TIP3    H217084   1.059   7.313   1.287
 5715TIP3   OH217085   1.706   6.775   0.605
 5715TIP3    H117086   1.762   6.759   0.529
 5715TIP3    H217087   1.671   6.863   0.591
 5716TIP3   OH217088   4.453   1.458   6.336
 5716TIP3    H117089   4.468   1.553   6.341
 5716TIP3    H217090   4.441   1.431   6.426
 5717TIP3   OH217091   4.215   0.841   5.886
 5717TIP3    H117092   4.227   0.903   5.958
 5717TIP3    H217093   4.199   0.757   5.928
 5718TIP3   OH217094   3.343   3.335   3.674
 5718TIP3    H117095   3.322   3.423   3.642
 5718TIP3    H217096   3.337   3.342   3.769
 5719TIP3   OH217097   0.532   5.649   5.880
 5719TIP3    H117098   0.492   5.581   5.934
 5719TIP3    H217099   0.523   5.729   5.932
 5720TIP3   OH217100   0.115   3.450   3.646
 5720TIP3    H117101   0.094   3.533   3.603
 5720TIP3    H217102   0.154   3.397   3.577
 5721TIP3   OH217103   7.638   4.921   1.298
 5721TIP3    H117104   7.730   4.935   1.278
 5721TIP3    H217105   7.610   4.853   1.237
 5722TIP3   OH217106   0.979   2.622   2.212
 5722TIP3    H117107   0.965   2.714   2.187
 5722TIP3    H217108   0.971   2.622   2.308
 5723TIP3   OH217109   5.548   5.743   0.226
 5723TIP3    H117110   5.502   5.663   0.250
 5723TIP3    H217111   5.523   5.758   0.134
 5724TIP3   OH217112   5.624   3.251   4.559
 5724TIP3    H117113   5.619   3.172   4.613
 5724TIP3    H217114   5.671   3.314   4.613
 5725TIP3   OH217115   2.943   4.344   0.673
 5725TIP3    H117116   2.953   4.289   0.750
 5725TIP3    H217117   2.911   4.285   0.605
 5726TIP3   OH217118   6.252   0.102   0.555
 5726TIP3    H117119   6.302   0.181   0.534
 5726TIP3    H217120   6.175   0.107   0.497
 5727TIP3   OH217121   2.848   5.390   4.974
 5727TIP3    H117122   2.783   5.331   5.012
 5727TIP3    H217123   2.808   5.476   4.977
 5728TIP3   OH217124   6.268   7.405   2.684
 5728TIP3    H117125   6.353   7.388   2.643
 5728TIP3    H217126   6.289   7.432   2.773
 5729TIP3   OH217127   4.304   1.611   6.718
 5729TIP3    H117128   4.297   1.649   6.805
 5729TIP3    H217129   4.394   1.579   6.712
 5730TIP3   OH217130   5.041   4.980   6.230
 5730TIP3    H117131   5.026   5.005   6.139
 5730TIP3    H217132   5.094   4.901   6.225
 5731TIP3   OH217133   1.631   3.687   1.058
 5731TIP3    H117134   1.683   3.744   1.001
 5731TIP3    H217135   1.688   3.670   1.133
 5732TIP3   OH217136   1.499   2.384   6.827
 5732TIP3    H117137   1.470   2.299   6.794
 5732TIP3    H217138   1.594   2.382   6.817
 5733TIP3   OH217139   1.023   6.794   0.099
 5733TIP3    H117140   1.111   6.783   0.135
 5733TIP3    H217141   1.009   6.715   0.046
 5734TIP3   OH217142   4.100   2.078   1.402
 5734TIP3    H117143   4.161   2.039   1.340
 5734TIP3    H217144   4.078   2.007   1.462
 5735TIP3   OH217145   1.337   6.705   5.096
 5735TIP3    H117146   1.316   6.615   5.071
 5735TIP3    H217147   1.404   6.696   5.164
 5736TIP3   OH217148   8.274   1.105   2.473
 5736TIP3    H117149   8.303   1.191   2.506
 5736TIP3    H217150   8.283   1.047   2.547
 5737TIP3   OH217151   6.483   6.962   6.116
 5737TIP3    H117152   6.421   7.016   6.068
 5737TIP3    H217153   6.499   7.010   6.197
 5738TIP3   OH217154   3.884   1.470   3.816
 5738TIP3    H117155   3.798   1.429   3.806
 5738TIP3    H217156   3.904   1.505   3.729
 5739TIP3   OH217157   3.467   5.658   4.345
 5739TIP3    H117158   3.376   5.629   4.337
 5739TIP3    H217159   3.511   5.587   4.392
 5740TIP3   OH217160   8.023   3.295   4.915
 5740TIP3    H117161   8.035   3.366   4.852
 5740TIP3    H217162   7.943   3.319   4.962
 5741TIP3   OH217163   2.776   6.159   4.908
 5741TIP3    H117164   2.763   6.089   4.971
 5741TIP3    H217165   2.821   6.228   4.956
 5742TIP3   OH217166   2.483   2.026   2.296
 5742TIP3    H117167   2.555   1.988   2.345
 5742TIP3    H217168   2.518   2.039   2.208
 5743TIP3   OH217169   8.188   0.853   3.763
 5743TIP3    H117170   8.169   0.930   3.817
 5743TIP3    H217171   8.274   0.824   3.792
 5744TIP3   OH217172   2.896   3.246   5.467
 5744TIP3    H117173   2.979   3.243   5.515
 5744TIP3    H217174   2.921   3.232   5.376
 5745TIP3   OH217175   4.635   6.697   1.660
 5745TIP3    H117176   4.664   6.632   1.596
 5745TIP3    H217177   4.647   6.655   1.745
 5746TIP3   OH217178   4.757   0.784   2.860
 5746TIP3    H117179   4.669   0.820   2.854
 5746TIP3    H217180   4.744   0.690   2.875
 5747TIP3   OH217181   0.357   4.593   4.122
 5747TIP3    H117182   0.315   4.543   4.192
 5747TIP3    H217183   0.290   4.656   4.094
 5748TIP3   OH217184   4.144   2.942   3.005
 5748TIP3    H117185   4.052   2.927   3.026
 5748TIP3    H217186   4.143   2.988   2.920
 5749TIP3   OH217187   7.010   4.434   2.116
 5749TIP3    H117188   7.098   4.459   2.089
 5749TIP3    H217189   7.013   4.338   2.122
 5750TIP3   OH217190   6.385   2.119   0.106
 5750TIP3    H117191   6.464   2.114   0.160
 5750TIP3    H217192   6.417   2.119   0.016
 5751TIP3   OH217193   2.558   7.693   5.713
 5751TIP3    H117194   2.579   7.786   5.712
 5751TIP3    H217195   2.476   7.688   5.763
 5752TIP3   OH217196   4.734   0.570   5.154
 5752TIP3    H117197   4.740   0.524   5.237
 5752TIP3    H217198   4.821   0.607   5.140
 5753TIP3   OH217199   7.602   2.159   0.754
 5753TIP3    H117200   7.517   2.116   0.749
 5753TIP3    H217201   7.625   2.177   0.663
 5754TIP3   OH217202   1.792   7.892   4.253
 5754TIP3    H117203   1.744   7.968   4.221
 5754TIP3    H217204   1.883   7.909   4.230
 5755TIP3   OH217205   7.566   5.554   5.827
 5755TIP3    H117206   7.622   5.492   5.873
 5755TIP3    H217207   7.567   5.525   5.736
 5756TIP3   OH217208   3.252   2.410   1.084
 5756TIP3    H117209   3.297   2.460   1.015
 5756TIP3    H217210   3.206   2.341   1.037
 5757TIP3   OH217211   6.545   3.338   4.695
 5757TIP3    H117212   6.617   3.299   4.744
 5757TIP3    H217213   6.511   3.407   4.753
 5758TIP3   OH217214   2.807   5.428   0.379
 5758TIP3    H117215   2.716   5.439   0.406
 5758TIP3    H217216   2.852   5.398   0.458
 5759TIP3   OH217217   0.756   6.861   0.069
 5759TIP3    H117218   0.768   6.955   0.065
 5759TIP3    H217219   0.841   6.826   0.094
 5760TIP3   OH217220   4.198   7.117   5.998
 5760TIP3    H117221   4.284   7.143   6.029
 5760TIP3    H217222   4.202   7.022   5.990
 5761TIP3   OH217223   4.146   6.908   4.731
 5761TIP3    H117224   4.152   7.002   4.712
 5761TIP3    H217225   4.081   6.903   4.802
 5762TIP3   OH217226   4.345   5.780   2.874
 5762TIP3    H117227   4.254   5.810   2.874
 5762TIP3    H217228   4.341   5.694   2.916
 5763TIP3   OH217229   7.626   6.511   1.031
 5763TIP3    H117230   7.715   6.478   1.030
 5763TIP3    H217231   7.579   6.451   1.089
 5764TIP3   OH217232   0.056   2.321   6.601
 5764TIP3    H117233   0.121   2.387   6.579
 5764TIP3    H217234  -0.022   2.345   6.551
 5765TIP3   OH217235   0.526   4.103   2.616
 5765TIP3    H117236   0.516   4.160   2.540
 5765TIP3    H217237   0.436   4.082   2.642
 5766TIP3   OH217238   6.933   3.781   5.282
 5766TIP3    H117239   6.936   3.707   5.343
 5766TIP3    H217240   6.847   3.774   5.241
 5767TIP3   OH217241   5.685   1.128   5.278
 5767TIP3    H117242   5.732   1.103   5.358
 5767TIP3    H217243   5.752   1.131   5.210
 5768TIP3   OH217244   1.400   4.066   2.265
 5768TIP3    H117245   1.358   4.122   2.330
 5768TIP3    H217246   1.371   3.977   2.286
 5769TIP3   OH217247   7.225   0.118   3.022
 5769TIP3    H117248   7.149   0.163   2.986
 5769TIP3    H217249   7.275   0.187   3.067
 5770TIP3   OH217250   5.440   1.804   6.561
 5770TIP3    H117251   5.451   1.898   6.549
 5770TIP3    H217252   5.413   1.795   6.653
 5771TIP3   OH217253   2.487   6.553   3.511
 5771TIP3    H117254   2.549   6.585   3.576
 5771TIP3    H217255   2.428   6.627   3.495
 5772TIP3   OH217256   5.827   0.015   1.487
 5772TIP3    H117257   5.809   0.109   1.481
 5772TIP3    H217258   5.767  -0.017   1.554
 5773TIP3   OH217259   4.444   3.578   2.793
 5773TIP3    H117260   4.517   3.617   2.745
 5773TIP3    H217261   4.467   3.486   2.803
 5774TIP3   OH217262   4.080   5.050   4.357
 5774TIP3    H117263   3.999   5.004   4.333
 5774TIP3    H217264   4.081   5.127   4.300
 5775TIP3   OH217265   3.774   1.905   2.619
 5775TIP3    H117266   3.822   1.948   2.548
 5775TIP3    H217267   3.698   1.961   2.633
 5776TIP3   OH217268   1.346   0.665   5.507
 5776TIP3    H117269   1.277   0.729   5.521
 5776TIP3    H217270   1.377   0.643   5.594
 5777TIP3   OH217271   0.720   4.333   5.793
 5777TIP3    H117272   0.650   4.268   5.791
 5777TIP3    H217273   0.684   4.409   5.748
 5778TIP3   OH217274   7.033   5.192   0.494
 5778TIP3    H117275   7.127   5.210   0.487
 5778TIP3    H217276   7.028   5.113   0.547
 5779TIP3   OH217277   7.681   0.238   4.636
 5779TIP3    H117278   7.604   0.247   4.692
 5779TIP3    H217279   7.650   0.194   4.557
 5780TIP3   OH217280   5.143   4.424   2.852
 5780TIP3    H117281   5.090   4.367   2.797
 5780TIP3    H217282   5.225   4.378   2.863
 5781TIP3   OH217283   1.780   7.414   1.675
 5781TIP3    H117284   1.794   7.463   1.594
 5781TIP3    H217285   1.832   7.335   1.664
 5782TIP3   OH217286   7.088   5.583   2.426
 5782TIP3    H117287   7.020   5.561   2.362
 5782TIP3    H217288   7.139   5.652   2.385
 5783TIP3   OH217289   8.088   0.252   5.818
 5783TIP3    H117290   8.015   0.314   5.825
 5783TIP3    H217291   8.075   0.192   5.891
 5784TIP3   OH217292   2.509   0.491   1.259
 5784TIP3    H117293   2.490   0.399   1.245
 5784TIP3    H217294   2.604   0.496   1.270
 5785TIP3   OH217295   2.735   7.061   0.666
 5785TIP3    H117296   2.733   6.965   0.657
 5785TIP3    H217297   2.816   7.086   0.621
 5786TIP3   OH217298   0.767   4.758   5.910
 5786TIP3    H117299   0.832   4.822   5.938
 5786TIP3    H217300   0.698   4.763   5.977
 5787TIP3   OH217301   8.184   7.885   4.930
 5787TIP3    H117302   8.196   7.827   5.005
 5787TIP3    H217303   8.091   7.878   4.910
 5788TIP3   OH217304   1.995   4.668   3.996
 5788TIP3    H117305   1.927   4.602   4.001
 5788TIP3    H217306   1.975   4.717   3.916
 5789TIP3   OH217307   4.543   5.212   3.264
 5789TIP3    H117308   4.519   5.174   3.180
 5789TIP3    H217309   4.571   5.137   3.317
 5790TIP3   OH217310   2.197   6.839   4.167
 5790TIP3    H117311   2.286   6.840   4.129
 5790TIP3    H217312   2.186   6.749   4.198
 5791TIP3   OH217313   6.335   4.129   4.921
 5791TIP3    H117314   6.409   4.091   4.969
 5791TIP3    H217315   6.284   4.176   4.987
 5792TIP3   OH217316   8.290   1.738   4.639
 5792TIP3    H117317   8.357   1.800   4.666
 5792TIP3    H217318   8.332   1.684   4.572
 5793TIP3   OH217319   7.959   2.797   3.237
 5793TIP3    H117320   8.050   2.766   3.241
 5793TIP3    H217321   7.917   2.757   3.314
 5794TIP3   OH217322   2.920   2.014   1.897
 5794TIP3    H117323   2.826   2.022   1.913
 5794TIP3    H217324   2.927   1.944   1.831
 5795TIP3   OH217325   1.955   6.820   4.306
 5795TIP3    H117326   2.043   6.845   4.276
 5795TIP3    H217327   1.954   6.847   4.398
 5796TIP3   OH217328   3.761   0.794   4.072
 5796TIP3    H117329   3.842   0.845   4.070
 5796TIP3    H217330   3.714   0.827   4.149
 5797TIP3   OH217331   2.505   7.467   1.383
 5797TIP3    H117332   2.540   7.410   1.452
 5797TIP3    H217333   2.580   7.486   1.327
 5798TIP3   OH217334   1.549   1.477   4.471
 5798TIP3    H117335   1.634   1.490   4.513
 5798TIP3    H217336   1.555   1.391   4.430
 5799TIP3   OH217337   6.214   5.342   1.967
 5799TIP3    H117338   6.124   5.317   1.986
 5799TIP3    H217339   6.206   5.419   1.910
 5800TIP3   OH217340   5.308   3.388   3.444
 5800TIP3    H117341   5.376   3.422   3.503
 5800TIP3    H217342   5.230   3.381   3.498
 5801TIP3   OH217343   0.585   6.215   6.024
 5801TIP3    H117344   0.647   6.158   5.978
 5801TIP3    H217345   0.499   6.185   5.995
 5802TIP3   OH217346   3.066   1.814   4.010
 5802TIP3    H117347   3.003   1.877   3.974
 5802TIP3    H217348   3.038   1.729   3.976
 5803TIP3   OH217349   5.170   7.202   4.513
 5803TIP3    H117350   5.076   7.215   4.497
 5803TIP3    H217351   5.179   7.205   4.608
 5804TIP3   OH217352   2.541   0.795   0.398
 5804TIP3    H117353   2.629   0.834   0.389
 5804TIP3    H217354   2.507   0.791   0.309
 5805TIP3   OH217355   3.084   4.368   5.734
 5805TIP3    H117356   3.093   4.415   5.817
 5805TIP3    H217357   3.163   4.388   5.686
 5806TIP3   OH217358   6.926   0.482   1.766
 5806TIP3    H117359   6.948   0.548   1.832
 5806TIP3    H217360   6.988   0.497   1.695
 5807TIP3   OH217361   1.860   4.942   5.638
 5807TIP3    H117362   1.919   5.011   5.608
 5807TIP3    H217363   1.851   4.958   5.732
 5808TIP3   OH217364   4.720   3.648   0.690
 5808TIP3    H117365   4.704   3.743   0.688
 5808TIP3    H217366   4.644   3.612   0.736
 5809TIP3   OH217367   2.737   7.285   6.571
 5809TIP3    H117368   2.800   7.351   6.598
 5809TIP3    H217369   2.734   7.292   6.475
 5810TIP3   OH217370   0.604   3.547   2.482
 5810TIP3    H117371   0.591   3.483   2.412
 5810TIP3    H217372   0.646   3.497   2.552
 5811TIP3   OH217373   0.894   6.923   5.282
 5811TIP3    H117374   0.926   6.858   5.219
 5811TIP3    H217375   0.901   7.006   5.235
 5812TIP3   OH217376   4.474   5.000   5.452
 5812TIP3    H117377   4.454   4.907   5.447
 5812TIP3    H217378   4.475   5.029   5.361
 5813TIP3   OH217379   0.562   6.845   4.836
 5813TIP3    H117380   0.529   6.768   4.788
 5813TIP3    H217381   0.512   6.846   4.917
 5814TIP3   OH217382   1.291   1.678   1.939
 5814TIP3    H117383   1.283   1.600   1.994
 5814TIP3    H217384   1.385   1.697   1.939
 5815TIP3   OH217385   1.278   6.641   1.608
 5815TIP3    H117386   1.300   6.662   1.517
 5815TIP3    H217387   1.183   6.631   1.608
 5816TIP3   OH217388   2.758   4.701   6.626
 5816TIP3    H117389   2.822   4.681   6.695
 5816TIP3    H217390   2.696   4.762   6.668
 5817TIP3   OH217391   7.012   0.690   5.083
 5817TIP3    H117392   6.952   0.677   5.009
 5817TIP3    H217393   7.003   0.783   5.106
 5818TIP3   OH217394   6.074   4.493   4.970
 5818TIP3    H117395   6.050   4.472   5.060
 5818TIP3    H217396   6.021   4.434   4.916
 5819TIP3   OH217397   5.689   1.099   3.870
 5819TIP3    H117398   5.754   1.076   3.936
 5819TIP3    H217399   5.610   1.118   3.920
 5820TIP3   OH217400   3.575   4.603   0.043
 5820TIP3    H117401   3.621   4.569  -0.034
 5820TIP3    H217402   3.512   4.535   0.065
 5821TIP3   OH217403   7.120   2.329   3.683
 5821TIP3    H117404   7.179   2.282   3.625
 5821TIP3    H217405   7.067   2.384   3.625
 5822TIP3   OH217406   2.022   1.521   1.524
 5822TIP3    H117407   2.010   1.602   1.574
 5822TIP3    H217408   2.116   1.505   1.527
 5823TIP3   OH217409   4.885   5.673   4.533
 5823TIP3    H117410   4.894   5.676   4.438
 5823TIP3    H217411   4.900   5.581   4.556
 5824TIP3   OH217412   5.338   0.817   5.928
 5824TIP3    H117413   5.305   0.906   5.935
 5824TIP3    H217414   5.294   0.769   5.999
 5825TIP3   OH217415   4.608   1.024   6.167
 5825TIP3    H117416   4.529   0.971   6.180
 5825TIP3    H217417   4.680   0.962   6.178
 5826TIP3   OH217418   5.065   7.827   5.806
 5826TIP3    H117419   4.990   7.883   5.827
 5826TIP3    H217420   5.027   7.742   5.787
 5827TIP3   OH217421   7.350   3.946   5.910
 5827TIP3    H117422   7.359   4.036   5.879
 5827TIP3    H217423   7.387   3.947   5.998
 5828TIP3   OH217424   6.778   2.615   3.276
 5828TIP3    H117425   6.721   2.620   3.352
 5828TIP3    H217426   6.719   2.616   3.201
 5829TIP3   OH217427   5.765   0.438   2.379
 5829TIP3    H117428   5.732   0.423   2.468
 5829TIP3    H217429   5.857   0.411   2.384
 5830TIP3   OH217430   3.356   0.453   2.512
 5830TIP3    H117431   3.391   0.536   2.542
 5830TIP3    H217432   3.319   0.412   2.590
 5831TIP3   OH217433   3.079   6.017   5.593
 5831TIP3    H117434   2.999   5.970   5.570
 5831TIP3    H217435   3.094   5.994   5.685
 5832TIP3   OH217436   3.797   2.929   1.159
 5832TIP3    H117437   3.769   2.969   1.242
 5832TIP3    H217438   3.754   2.843   1.159
 5833TIP3   OH217439   2.365   0.625   0.569
 5833TIP3    H117440   2.410   0.669   0.496
 5833TIP3    H217441   2.375   0.532   0.551
 5834TIP3   OH217442   1.805   2.494   4.678
 5834TIP3    H117443   1.878   2.435   4.697
 5834TIP3    H217444   1.836   2.550   4.608
 5835TIP3   OH217445   7.050   4.273   1.276
 5835TIP3    H117446   7.062   4.361   1.240
 5835TIP3    H217447   7.060   4.215   1.201
 5836TIP3   OH217448   3.127   1.152   0.984
 5836TIP3    H117449   3.062   1.162   1.054
 5836TIP3    H217450   3.109   1.225   0.924
 5837TIP3   OH217451   7.215   3.227   3.609
 5837TIP3    H117452   7.255   3.146   3.639
 5837TIP3    H217453   7.220   3.286   3.684
 5838TIP3   OH217454   2.750   3.729   2.604
 5838TIP3    H117455   2.672   3.722   2.548
 5838TIP3    H217456   2.822   3.747   2.543
 5839TIP3   OH217457   4.885   2.080   5.270
 5839TIP3    H117458   4.903   2.070   5.364
 5839TIP3    H217459   4.969   2.063   5.227
 5840TIP3   OH217460   2.529   6.921   6.219
 5840TIP3    H117461   2.578   6.849   6.178
 5840TIP3    H217462   2.509   6.890   6.307
 5841TIP3   OH217463   0.413   2.618   3.625
 5841TIP3    H117464   0.325   2.652   3.605
 5841TIP3    H217465   0.426   2.641   3.717
 5842TIP3   OH217466   5.656   6.719   1.228
 5842TIP3    H117467   5.609   6.758   1.154
 5842TIP3    H217468   5.686   6.793   1.279
 5843TIP3   OH217469   5.085   4.966   2.939
 5843TIP3    H117470   5.095   4.871   2.941
 5843TIP3    H217471   5.063   4.987   2.848
 5844TIP3   OH217472   0.225   3.800   4.695
 5844TIP3    H117473   0.266   3.886   4.700
 5844TIP3    H217474   0.284   3.743   4.745
 5845TIP3   OH217475   7.130   4.621   2.455
 5845TIP3    H117476   7.176   4.538   2.469
 5845TIP3    H217477   7.134   4.635   2.360
 5846TIP3   OH217478   3.004   2.227   5.917
 5846TIP3    H117479   2.912   2.204   5.931
 5846TIP3    H217480   3.006   2.322   5.916
 5847TIP3   OH217481   4.979   6.817   5.837
 5847TIP3    H117482   5.010   6.738   5.880
 5847TIP3    H217483   5.057   6.857   5.799
 5848TIP3   OH217484   3.043   4.359   5.291
 5848TIP3    H117485   2.964   4.404   5.321
 5848TIP3    H217486   3.115   4.403   5.335
 5849TIP3   OH217487   3.004   5.469   4.480
 5849TIP3    H117488   3.025   5.425   4.563
 5849TIP3    H217489   2.917   5.505   4.494
 5850TIP3   OH217490   6.415   2.400   3.237
 5850TIP3    H117491   6.344   2.423   3.295
 5850TIP3    H217492   6.403   2.306   3.219
 5851TIP3   OH217493   1.635   2.621   6.370
 5851TIP3    H117494   1.719   2.590   6.336
 5851TIP3    H217495   1.611   2.692   6.310
 5852TIP3   OH217496   4.237   7.612   6.868
 5852TIP3    H117497   4.290   7.689   6.849
 5852TIP3    H217498   4.165   7.615   6.804
 5853TIP3   OH217499   2.865   6.014   3.372
 5853TIP3    H117500   2.845   6.086   3.432
 5853TIP3    H217501   2.780   5.972   3.356
 5854TIP3   OH217502   0.880   7.722   4.599
 5854TIP3    H117503   0.878   7.699   4.692
 5854TIP3    H217504   0.972   7.714   4.574
 5855TIP3   OH217505   8.025   0.406   4.261
 5855TIP3    H117506   7.979   0.455   4.329
 5855TIP3    H217507   8.017   0.314   4.288
 5856TIP3   OH217508   0.572   4.414   4.549
 5856TIP3    H117509   0.540   4.499   4.518
 5856TIP3    H217510   0.667   4.420   4.541
 5857TIP3   OH217511   0.209   3.255   5.528
 5857TIP3    H117512   0.260   3.322   5.483
 5857TIP3    H217513   0.274   3.196   5.566
 5858TIP3   OH217514   7.058   6.790   4.233
 5858TIP3    H117515   6.987   6.747   4.185
 5858TIP3    H217516   7.129   6.726   4.235
 5859TIP3   OH217517   0.327   3.693   6.828
 5859TIP3    H117518   0.413   3.723   6.857
 5859TIP3    H217519   0.337   3.599   6.815
 5860TIP3   OH217520   7.758   7.349   2.412
 5860TIP3    H117521   7.788   7.314   2.496
 5860TIP3    H217522   7.830   7.406   2.383
 5861TIP3   OH217523   5.174   3.053   5.721
 5861TIP3    H117524   5.187   2.959   5.721
 5861TIP3    H217525   5.174   3.078   5.813
 5862TIP3   OH217526   5.829   4.288   6.444
 5862TIP3    H117527   5.907   4.241   6.471
 5862TIP3    H217528   5.760   4.255   6.503
 5863TIP3   OH217529   0.779   0.682   5.022
 5863TIP3    H117530   0.713   0.692   5.091
 5863TIP3    H217531   0.802   0.589   5.024
 5864TIP3   OH217532   8.087   7.227   2.949
 5864TIP3    H117533   8.144   7.206   2.875
 5864TIP3    H217534   8.031   7.149   2.959
 5865TIP3   OH217535   4.616   2.843   0.508
 5865TIP3    H117536   4.527   2.807   0.505
 5865TIP3    H217537   4.650   2.829   0.419
 5866TIP3   OH217538   1.299   2.776   4.493
 5866TIP3    H117539   1.258   2.689   4.497
 5866TIP3    H217540   1.393   2.759   4.503
 5867TIP3   OH217541   4.774   1.061   4.346
 5867TIP3    H117542   4.785   1.131   4.281
 5867TIP3    H217543   4.729   1.103   4.419
 5868TIP3   OH217544   6.369   1.618   0.577
 5868TIP3    H117545   6.459   1.652   0.573
 5868TIP3    H217546   6.379   1.527   0.604
 5869TIP3   OH217547   3.769   0.312   4.649
 5869TIP3    H117548   3.717   0.347   4.722
 5869TIP3    H217549   3.842   0.267   4.690
 5870TIP3   OH217550   1.997   7.436   4.149
 5870TIP3    H117551   1.943   7.376   4.200
 5870TIP3    H217552   2.071   7.457   4.207
 5871TIP3   OH217553   6.111   7.567   4.892
 5871TIP3    H117554   6.037   7.540   4.947
 5871TIP3    H217555   6.075   7.571   4.804
 5872TIP3   OH217556   0.309   7.441   4.858
 5872TIP3    H117557   0.265   7.445   4.773
 5872TIP3    H217558   0.239   7.422   4.920
 5873TIP3   OH217559   5.621   4.738   6.636
 5873TIP3    H117560   5.576   4.699   6.711
 5873TIP3    H217561   5.673   4.667   6.599
 5874TIP3   OH217562   0.479   0.474   0.353
 5874TIP3    H117563   0.433   0.394   0.327
 5874TIP3    H217564   0.473   0.531   0.277
 5875TIP3   OH217565   0.606   6.257   5.049
 5875TIP3    H117566   0.668   6.310   5.099
 5875TIP3    H217567   0.656   6.225   4.974
 5876TIP3   OH217568   5.328   7.767   6.077
 5876TIP3    H117569   5.419   7.786   6.102
 5876TIP3    H217570   5.287   7.853   6.069
 5877TIP3   OH217571   2.073   4.213   1.635
 5877TIP3    H117572   2.015   4.140   1.655
 5877TIP3    H217573   2.076   4.264   1.716
 5878TIP3   OH217574   6.379   7.383   3.673
 5878TIP3    H117575   6.374   7.304   3.619
 5878TIP3    H217576   6.425   7.447   3.618
 5879TIP3   OH217577   7.974   6.850   2.602
 5879TIP3    H117578   7.919   6.825   2.677
 5879TIP3    H217579   8.036   6.913   2.638
 5880TIP3   OH217580   6.725   1.952   1.975
 5880TIP3    H117581   6.693   1.878   2.025
 5880TIP3    H217582   6.652   2.014   1.975
 5881TIP3   OH217583   4.178   0.201   1.824
 5881TIP3    H117584   4.219   0.118   1.850
 5881TIP3    H217585   4.136   0.233   1.903
 5882TIP3   OH217586   0.828   6.943   1.448
 5882TIP3    H117587   0.888   6.938   1.522
 5882TIP3    H217588   0.745   6.974   1.485
 5883TIP3   OH217589   7.644   3.061   5.060
 5883TIP3    H117590   7.690   2.984   5.094
 5883TIP3    H217591   7.553   3.033   5.053
 5884TIP3   OH217592   2.860   6.480   1.597
 5884TIP3    H117593   2.820   6.552   1.549
 5884TIP3    H217594   2.949   6.509   1.615
 5885TIP3   OH217595   1.054   7.478   4.873
 5885TIP3    H117596   1.024   7.443   4.956
 5885TIP3    H217597   1.097   7.405   4.829
 5886TIP3   OH217598   7.111   4.389   6.530
 5886TIP3    H117599   7.196   4.365   6.495
 5886TIP3    H217600   7.060   4.417   6.453
 5887TIP3   OH217601   2.719   7.847   6.592
 5887TIP3    H117602   2.624   7.836   6.590
 5887TIP3    H217603   2.753   7.762   6.564
 5888TIP3   OH217604   7.704   5.718   3.257
 5888TIP3    H117605   7.707   5.813   3.271
 5888TIP3    H217606   7.663   5.709   3.171
 5889TIP3   OH217607   0.908   2.194   0.073
 5889TIP3    H117608   0.997   2.208   0.041
 5889TIP3    H217609   0.863   2.277   0.058
 5890TIP3   OH217610   1.689   7.554   3.617
 5890TIP3    H117611   1.664   7.539   3.708
 5890TIP3    H217612   1.749   7.629   3.620
 5891TIP3   OH217613   3.934   3.072   0.961
 5891TIP3    H117614   3.901   3.156   0.995
 5891TIP3    H217615   3.921   3.011   1.034
 5892TIP3   OH217616   5.561   6.792   6.587
 5892TIP3    H117617   5.541   6.885   6.582
 5892TIP3    H217618   5.494   6.756   6.646
 5893TIP3   OH217619   2.457   5.829   4.664
 5893TIP3    H117620   2.513   5.902   4.638
 5893TIP3    H217621   2.456   5.833   4.760
 5894TIP3   OH217622   2.649   5.179   4.999
 5894TIP3    H117623   2.592   5.202   4.925
 5894TIP3    H217624   2.710   5.115   4.962
 5895TIP3   OH217625   7.715   0.583   4.239
 5895TIP3    H117626   7.649   0.644   4.205
 5895TIP3    H217627   7.726   0.518   4.170
 5896TIP3   OH217628   7.512   3.652   2.325
 5896TIP3    H117629   7.580   3.622   2.385
 5896TIP3    H217630   7.441   3.683   2.382
 5897TIP3   OH217631   1.476   5.207   1.360
 5897TIP3    H117632   1.412   5.209   1.432
 5897TIP3    H217633   1.477   5.116   1.332
 5898TIP3   OH217634   2.662   4.633   2.920
 5898TIP3    H117635   2.645   4.701   2.984
 5898TIP3    H217636   2.575   4.600   2.896
 5899TIP3   OH217637   5.057   6.255   6.465
 5899TIP3    H117638   5.057   6.288   6.375
 5899TIP3    H217639   5.150   6.241   6.485
 5900TIP3   OH217640   7.147   0.378   5.543
 5900TIP3    H117641   7.123   0.285   5.549
 5900TIP3    H217642   7.125   0.413   5.629
 5901TIP3   OH217643   6.163   2.898   1.867
 5901TIP3    H117644   6.239   2.852   1.903
 5901TIP3    H217645   6.088   2.863   1.915
 5902TIP3   OH217646   3.211   2.331   3.109
 5902TIP3    H117647   3.306   2.332   3.094
 5902TIP3    H217648   3.190   2.238   3.117
 5903TIP3   OH217649   7.078   6.413   3.047
 5903TIP3    H117650   7.035   6.429   2.963
 5903TIP3    H217651   7.013   6.364   3.099
 5904TIP3   OH217652   5.268   5.917   2.188
 5904TIP3    H117653   5.251   6.011   2.184
 5904TIP3    H217654   5.341   5.903   2.127
 5905TIP3   OH217655   4.779   7.768   1.525
 5905TIP3    H117656   4.732   7.742   1.604
 5905TIP3    H217657   4.868   7.785   1.555
 5906TIP3   OH217658   4.422   4.573   1.968
 5906TIP3    H117659   4.404   4.573   2.062
 5906TIP3    H217660   4.444   4.482   1.947
 5907TIP3   OH217661   1.532   0.283   4.287
 5907TIP3    H117662   1.627   0.298   4.284
 5907TIP3    H217663   1.519   0.227   4.363
 5908TIP3   OH217664   5.203   6.982   2.350
 5908TIP3    H117665   5.221   7.028   2.432
 5908TIP3    H217666   5.288   6.976   2.306
 5909TIP3   OH217667   6.063   0.487   3.177
 5909TIP3    H117668   6.121   0.499   3.253
 5909TIP3    H217669   5.983   0.535   3.200
 5910TIP3   OH217670   2.340   7.541   5.479
 5910TIP3    H117671   2.371   7.619   5.525
 5910TIP3    H217672   2.416   7.483   5.474
 5911TIP3   OH217673   0.143   4.346   3.359
 5911TIP3    H117674   0.203   4.403   3.311
 5911TIP3    H217675   0.180   4.341   3.448
 5912TIP3   OH217676   4.127   3.589   3.806
 5912TIP3    H117677   4.169   3.528   3.867
 5912TIP3    H217678   4.115   3.539   3.726
 5913TIP3   OH217679   1.419   5.412   3.760
 5913TIP3    H117680   1.492   5.471   3.744
 5913TIP3    H217681   1.429   5.342   3.695
 5914TIP3   OH217682   7.319   6.365   6.458
 5914TIP3    H117683   7.259   6.412   6.400
 5914TIP3    H217684   7.263   6.329   6.527
 5915TIP3   OH217685   6.029   1.458   6.114
 5915TIP3    H117686   5.996   1.393   6.052
 5915TIP3    H217687   6.031   1.413   6.198
 5916TIP3   OH217688   0.855   1.243   1.716
 5916TIP3    H117689   0.860   1.311   1.648
 5916TIP3    H217690   0.826   1.290   1.795
 5917TIP3   OH217691   6.755   4.852   0.342
 5917TIP3    H117692   6.684   4.895   0.294
 5917TIP3    H217693   6.835   4.882   0.299
 5918TIP3   OH217694   0.753   0.320   3.123
 5918TIP3    H117695   0.691   0.338   3.052
 5918TIP3    H217696   0.703   0.336   3.203
 5919TIP3   OH217697   5.139   7.306   4.794
 5919TIP3    H117698   5.071   7.369   4.769
 5919TIP3    H217699   5.091   7.231   4.829
 5920TIP3   OH217700   3.795   0.696   5.628
 5920TIP3    H117701   3.704   0.671   5.614
 5920TIP3    H217702   3.836   0.683   5.542
 5921TIP3   OH217703   2.449   3.188   3.147
 5921TIP3    H117704   2.366   3.159   3.109
 5921TIP3    H217705   2.492   3.108   3.175
 5922TIP3   OH217706   3.261   1.496   6.379
 5922TIP3    H117707   3.327   1.462   6.440
 5922TIP3    H217708   3.187   1.520   6.436
 5923TIP3   OH217709   1.042   1.526   0.214
 5923TIP3    H117710   1.008   1.530   0.304
 5923TIP3    H217711   1.126   1.571   0.220
 5924TIP3   OH217712   6.868   4.701   2.457
 5924TIP3    H117713   6.812   4.639   2.410
 5924TIP3    H217714   6.956   4.663   2.452
 5925TIP3   OH217715   1.315   1.448   3.724
 5925TIP3    H117716   1.366   1.367   3.724
 5925TIP3    H217717   1.373   1.513   3.765
 5926TIP3   OH217718   1.616   2.461   4.405
 5926TIP3    H117719   1.705   2.433   4.382
 5926TIP3    H217720   1.571   2.380   4.430
 5927TIP3   OH217721   3.842   7.387   1.230
 5927TIP3    H117722   3.874   7.357   1.145
 5927TIP3    H217723   3.782   7.458   1.209
 5928TIP3   OH217724   0.483   4.010   0.359
 5928TIP3    H117725   0.461   3.920   0.336
 5928TIP3    H217726   0.577   4.008   0.378
 5929TIP3   OH217727   4.401   0.147   5.677
 5929TIP3    H117728   4.378   0.085   5.747
 5929TIP3    H217729   4.419   0.229   5.724
 5930TIP3   OH217730   1.705   1.100   6.351
 5930TIP3    H117731   1.720   1.018   6.302
 5930TIP3    H217732   1.737   1.168   6.292
 5931TIP3   OH217733   7.171   3.886   3.377
 5931TIP3    H117734   7.245   3.836   3.342
 5931TIP3    H217735   7.150   3.950   3.309
 5932TIP3   OH217736   5.936   0.292   5.716
 5932TIP3    H117737   5.923   0.367   5.658
 5932TIP3    H217738   6.032   0.284   5.725
 5933TIP3   OH217739   5.181   3.967   6.578
 5933TIP3    H117740   5.239   3.899   6.613
 5933TIP3    H217741   5.093   3.937   6.601
 5934TIP3   OH217742   6.696   2.254   5.431
 5934TIP3    H117743   6.636   2.268   5.357
 5934TIP3    H217744   6.676   2.325   5.492
 5935TIP3   OH217745   0.283   6.161   4.785
 5935TIP3    H117746   0.352   6.225   4.768
 5935TIP3    H217747   0.313   6.082   4.739
 5936TIP3   OH217748   5.837   0.571   5.030
 5936TIP3    H117749   5.915   0.627   5.030
 5936TIP3    H217750   5.766   0.628   5.003
 5937TIP3   OH217751   3.142   6.159   0.865
 5937TIP3    H117752   3.135   6.234   0.806
 5937TIP3    H217753   3.073   6.099   0.837
 5938TIP3   OH217754   1.306   1.380   1.383
 5938TIP3    H117755   1.397   1.353   1.394
 5938TIP3    H217756   1.263   1.358   1.466
 5939TIP3   OH217757   0.871   1.625   4.960
 5939TIP3    H117758   0.873   1.683   4.884
 5939TIP3    H217759   0.783   1.634   4.996
 5940TIP3   OH217760   0.576   4.783   2.765
 5940TIP3    H117761   0.546   4.873   2.753
 5940TIP3    H217762   0.509   4.743   2.820
 5941TIP3   OH217763   3.576   7.053   2.151
 5941TIP3    H117764   3.634   6.977   2.160
 5941TIP3    H217765   3.495   7.026   2.193
 5942TIP3   OH217766   8.326   6.919   6.381
 5942TIP3    H117767   8.285   6.941   6.297
 5942TIP3    H217768   8.257   6.936   6.445
 5943TIP3   OH217769   2.383   1.598   5.602
 5943TIP3    H117770   2.360   1.614   5.510
 5943TIP3    H217771   2.300   1.575   5.644
 5944TIP3   OH217772   1.877   2.667   0.451
 5944TIP3    H117773   1.801   2.712   0.488
 5944TIP3    H217774   1.936   2.738   0.427
 5945TIP3   OH217775   5.561   7.437   5.297
 5945TIP3    H117776   5.472   7.407   5.281
 5945TIP3    H217777   5.554   7.494   5.373
 5946TIP3   OH217778   5.374   5.048   4.303
 5946TIP3    H117779   5.441   5.095   4.254
 5946TIP3    H217780   5.344   4.979   4.243
 5947TIP3   OH217781   6.685   7.256   4.592
 5947TIP3    H117782   6.685   7.351   4.600
 5947TIP3    H217783   6.767   7.228   4.632
 5948TIP3   OH217784   1.734   7.103   1.959
 5948TIP3    H117785   1.695   7.095   1.872
 5948TIP3    H217786   1.670   7.153   2.010
 5949TIP3   OH217787   3.085   4.825   4.206
 5949TIP3    H117788   3.143   4.788   4.272
 5949TIP3    H217789   3.032   4.889   4.253
 5950TIP3   OH217790   7.697   5.062   4.324
 5950TIP3    H117791   7.641   5.027   4.255
 5950TIP3    H217792   7.657   5.145   4.348
 5951TIP3   OH217793   6.427   0.348   0.574
 5951TIP3    H117794   6.478   0.378   0.499
 5951TIP3    H217795   6.474   0.383   0.650
 5952TIP3   OH217796   1.068   4.519   6.261
 5952TIP3    H117797   1.015   4.502   6.183
 5952TIP3    H217798   1.057   4.613   6.277
 5953TIP3   OH217799   8.176   5.632   6.748
 5953TIP3    H117800   8.117   5.672   6.812
 5953TIP3    H217801   8.139   5.657   6.663
 5954TIP3   OH217802   5.373   6.112   0.103
 5954TIP3    H117803   5.311   6.168   0.149
 5954TIP3    H217804   5.394   6.042   0.165
 5955TIP3   OH217805   6.081   4.583   3.347
 5955TIP3    H117806   6.095   4.585   3.252
 5955TIP3    H217807   5.992   4.615   3.359
 5956TIP3   OH217808   0.817   2.047   5.209
 5956TIP3    H117809   0.830   2.135   5.244
 5956TIP3    H217810   0.747   2.058   5.144
 5957TIP3   OH217811   6.105   2.528   6.292
 5957TIP3    H117812   6.062   2.613   6.280
 5957TIP3    H217813   6.172   2.526   6.224
 5958TIP3   OH217814   2.632   3.755   1.168
 5958TIP3    H117815   2.719   3.784   1.140
 5958TIP3    H217816   2.644   3.730   1.259
 5959TIP3   OH217817   8.384   5.951   2.554
 5959TIP3    H117818   8.434   5.876   2.521
 5959TIP3    H217819   8.331   5.979   2.480
 5960TIP3   OH217820   4.827   5.576   0.439
 5960TIP3    H117821   4.889   5.646   0.457
 5960TIP3    H217822   4.747   5.621   0.412
 5961TIP3   OH217823   3.789   1.511   5.939
 5961TIP3    H117824   3.847   1.567   5.990
 5961TIP3    H217825   3.711   1.564   5.925
 5962TIP3   OH217826   8.264   4.401   4.241
 5962TIP3    H117827   8.268   4.406   4.337
 5962TIP3    H217828   8.240   4.310   4.223
 5963TIP3   OH217829   2.281   2.153   2.656
 5963TIP3    H117830   2.220   2.108   2.714
 5963TIP3    H217831   2.234   2.231   2.627
 5964TIP3   OH217832   3.560   0.189   2.740
 5964TIP3    H117833   3.507   0.151   2.670
 5964TIP3    H217834   3.499   0.247   2.787
 5965TIP3   OH217835   3.885   2.429   6.283
 5965TIP3    H117836   3.921   2.342   6.298
 5965TIP3    H217837   3.869   2.465   6.370
 5966TIP3   OH217838   2.858   6.801   6.685
 5966TIP3    H117839   2.954   6.806   6.683
 5966TIP3    H217840   2.838   6.784   6.777
 5967TIP3   OH217841   0.144   2.817   3.564
 5967TIP3    H117842   0.136   2.896   3.511
 5967TIP3    H217843   0.144   2.849   3.654
 5968TIP3   OH217844   4.380   3.887   2.056
 5968TIP3    H117845   4.424   3.942   2.122
 5968TIP3    H217846   4.289   3.881   2.086
 5969TIP3   OH217847   2.321   5.071   5.963
 5969TIP3    H117848   2.270   5.130   5.907
 5969TIP3    H217849   2.256   5.028   6.018
 5970TIP3   OH217850   8.238   4.665   6.361
 5970TIP3    H117851   8.230   4.691   6.269
 5970TIP3    H217852   8.152   4.684   6.399
 5971TIP3   OH217853   4.827   0.028   0.008
 5971TIP3    H117854   4.784  -0.053   0.037
 5971TIP3    H217855   4.787   0.096   0.061
 5972TIP3   OH217856   4.542   5.050   5.702
 5972TIP3    H117857   4.479   5.112   5.738
 5972TIP3    H217858   4.523   5.049   5.608
 5973TIP3   OH217859   2.895   4.845   3.120
 5973TIP3    H117860   2.813   4.884   3.149
 5973TIP3    H217861   2.883   4.751   3.135
 5974TIP3   OH217862   1.306   0.841   6.469
 5974TIP3    H117863   1.291   0.858   6.562
 5974TIP3    H217864   1.290   0.925   6.426
 5975TIP3   OH217865   4.491   6.678   5.473
 5975TIP3    H117866   4.424   6.653   5.537
 5975TIP3    H217867   4.501   6.600   5.417
 5976TIP3   OH217868   1.616   7.400   3.842
 5976TIP3    H117869   1.647   7.368   3.926
 5976TIP3    H217870   1.526   7.428   3.858
 5977TIP3   OH217871   3.388   6.030   6.792
 5977TIP3    H117872   3.438   6.069   6.864
 5977TIP3    H217873   3.321   5.978   6.836
 5978TIP3   OH217874   0.521   6.560   2.748
 5978TIP3    H117875   0.453   6.608   2.702
 5978TIP3    H217876   0.520   6.596   2.836
 5979TIP3   OH217877   5.634   6.313   4.189
 5979TIP3    H117878   5.613   6.268   4.107
 5979TIP3    H217879   5.552   6.315   4.237
 5980TIP3   OH217880   1.589   3.247   6.841
 5980TIP3    H117881   1.556   3.164   6.806
 5980TIP3    H217882   1.661   3.272   6.783
 5981TIP3   OH217883   5.848   5.826   1.072
 5981TIP3    H117884   5.902   5.751   1.047
 5981TIP3    H217885   5.823   5.866   0.989
 5982TIP3   OH217886   6.798   0.739   4.914
 5982TIP3    H117887   6.748   0.814   4.948
 5982TIP3    H217888   6.817   0.763   4.824
 5983TIP3   OH217889   4.394   5.368   1.464
 5983TIP3    H117890   4.401   5.276   1.487
 5983TIP3    H217891   4.411   5.415   1.545
 5984TIP3   OH217892   2.172   5.659   4.302
 5984TIP3    H117893   2.230   5.632   4.373
 5984TIP3    H217894   2.231   5.680   4.230
 5985TIP3   OH217895   5.850   5.174   6.636
 5985TIP3    H117896   5.853   5.236   6.709
 5985TIP3    H217897   5.760   5.179   6.604
 5986TIP3   OH217898   4.308   6.589   1.605
 5986TIP3    H117899   4.291   6.683   1.605
 5986TIP3    H217900   4.398   6.581   1.638
 5987TIP3   OH217901   0.169   5.416   1.497
 5987TIP3    H117902   0.258   5.406   1.530
 5987TIP3    H217903   0.162   5.509   1.474
 5988TIP3   OH217904   8.120   0.548   0.691
 5988TIP3    H117905   8.066   0.594   0.627
 5988TIP3    H217906   8.202   0.598   0.694
 5989TIP3   OH217907   3.015   1.367   4.474
 5989TIP3    H117908   2.947   1.300   4.481
 5989TIP3    H217909   3.069   1.355   4.553
 5990TIP3   OH217910   2.990   5.077   0.462
 5990TIP3    H117911   2.919   5.126   0.504
 5990TIP3    H217912   2.961   4.986   0.463
 5991TIP3   OH217913   3.225   0.744   4.787
 5991TIP3    H117914   3.158   0.746   4.719
 5991TIP3    H217915   3.257   0.654   4.786
 5992TIP3   OH217916   1.998   0.802   3.304
 5992TIP3    H117917   2.035   0.853   3.232
 5992TIP3    H217918   1.921   0.853   3.331
 5993TIP3   OH217919   2.991   6.545   2.007
 5993TIP3    H117920   3.066   6.603   2.022
 5993TIP3    H217921   2.931   6.596   1.953
 5994TIP3   OH217922   6.581   0.755   2.407
 5994TIP3    H117923   6.640   0.769   2.481
 5994TIP3    H217924   6.578   0.840   2.362
 5995TIP3   OH217925   0.848   2.145   3.410
 5995TIP3    H117926   0.776   2.122   3.352
 5995TIP3    H217927   0.807   2.174   3.491
 5996TIP3   OH217928   0.534   7.710   5.482
 5996TIP3    H117929   0.581   7.747   5.408
 5996TIP3    H217930   0.548   7.771   5.554
 5997TIP3   OH217931   0.950   2.678   5.702
 5997TIP3    H117932   1.031   2.719   5.671
 5997TIP3    H217933   0.980   2.613   5.766
 5998TIP3   OH217934   2.368   2.751   5.646
 5998TIP3    H117935   2.320   2.696   5.584
 5998TIP3    H217936   2.448   2.776   5.600
 5999TIP3   OH217937   2.567   2.773   1.361
 5999TIP3    H117938   2.489   2.789   1.309
 5999TIP3    H217939   2.634   2.748   1.298
 6000TIP3   OH217940   8.308   3.116   2.523
 6000TIP3    H117941   8.306   3.210   2.506
 6000TIP3    H217942   8.377   3.105   2.589
 6001TIP3   OH217943   3.514   4.492   2.303
 6001TIP3    H117944   3.444   4.457   2.248
 6001TIP3    H217945   3.474   4.500   2.390
 6002TIP3   OH217946   2.013   2.775   4.807
 6002TIP3    H117947   1.974   2.716   4.871
 6002TIP3    H217948   1.989   2.738   4.722
 6003TIP3   OH217949   6.525   1.263   3.475
 6003TIP3    H117950   6.559   1.352   3.480
 6003TIP3    H217951   6.431   1.273   3.490
 6004TIP3   OH217952   8.091   1.587   5.330
 6004TIP3    H117953   8.163   1.644   5.356
 6004TIP3    H217954   8.053   1.631   5.253
 6005TIP3   OH217955   1.039   0.026   4.085
 6005TIP3    H117956   1.111   0.016   4.147
 6005TIP3    H217957   0.968  -0.027   4.120
 6006TIP3   OH217958   2.950   6.640   0.818
 6006TIP3    H117959   2.973   6.719   0.867
 6006TIP3    H217960   3.024   6.581   0.830
 6007TIP3   OH217961   6.296   3.910   3.356
 6007TIP3    H117962   6.301   3.992   3.406
 6007TIP3    H217963   6.210   3.911   3.316
 6008TIP3   OH217964   7.989   3.651   3.645
 6008TIP3    H117965   7.962   3.567   3.609
 6008TIP3    H217966   7.910   3.689   3.682
 6009TIP3   OH217967   4.572   4.836   2.743
 6009TIP3    H117968   4.653   4.881   2.716
 6009TIP3    H217969   4.531   4.810   2.661
 6010TIP3   OH217970   0.834   6.727   0.812
 6010TIP3    H117971   0.868   6.659   0.755
 6010TIP3    H217972   0.911   6.768   0.850
 6011TIP3   OH217973   5.147   7.851   3.838
 6011TIP3    H117974   5.227   7.851   3.786
 6011TIP3    H217975   5.128   7.944   3.853
 6012TIP3   OH217976   1.004   7.755   6.104
 6012TIP3    H117977   0.930   7.729   6.050
 6012TIP3    H217978   1.021   7.680   6.161
 6013TIP3   OH217979   7.345   5.862   4.161
 6013TIP3    H117980   7.261   5.895   4.127
 6013TIP3    H217981   7.330   5.852   4.255
 6014TIP3   OH217982   3.635   5.770   4.168
 6014TIP3    H117983   3.599   5.856   4.187
 6014TIP3    H217984   3.586   5.710   4.224
 6015TIP3   OH217985   0.609   2.950   1.485
 6015TIP3    H117986   0.531   2.943   1.430
 6015TIP3    H217987   0.600   2.878   1.548
 6016TIP3   OH217988   3.240   6.607   1.142
 6016TIP3    H117989   3.285   6.525   1.119
 6016TIP3    H217990   3.157   6.579   1.179
 6017TIP3   OH217991   2.548   2.347   4.726
 6017TIP3    H117992   2.477   2.361   4.789
 6017TIP3    H217993   2.606   2.284   4.768
 6018TIP3   OH217994   3.904   4.409   2.236
 6018TIP3    H117995   3.949   4.344   2.182
 6018TIP3    H217996   3.865   4.359   2.307
 6019TIP3   OH217997   5.156   3.369   4.085
 6019TIP3    H117998   5.108   3.401   4.161
 6019TIP3    H217999   5.149   3.274   4.090
 6020TIP3   OH218000   5.851   1.090   5.490
 6020TIP3    H118001   5.908   1.164   5.471
 6020TIP3    H218002   5.795   1.120   5.562
 6021TIP3   OH218003   2.018   7.696   6.560
 6021TIP3    H118004   2.054   7.630   6.501
 6021TIP3    H218005   2.060   7.677   6.644
 6022TIP3   OH218006   1.369   2.785   3.857
 6022TIP3    H118007   1.298   2.843   3.885
 6022TIP3    H218008   1.447   2.819   3.902
 6023TIP3   OH218009   2.614   1.588   1.465
 6023TIP3    H118010   2.634   1.498   1.492
 6023TIP3    H218011   2.698   1.626   1.441
 6024TIP3   OH218012   7.612   2.151   4.955
 6024TIP3    H118013   7.537   2.123   5.008
 6024TIP3    H218014   7.575   2.212   4.892
 6025TIP3   OH218015   1.723   6.421   6.448
 6025TIP3    H118016   1.684   6.467   6.522
 6025TIP3    H218017   1.787   6.482   6.412
 6026TIP3   OH218018   2.882   2.596   3.458
 6026TIP3    H118019   2.956   2.563   3.509
 6026TIP3    H218020   2.811   2.607   3.521
 6027TIP3   OH218021   8.212   5.500   2.218
 6027TIP3    H118022   8.159   5.477   2.142
 6027TIP3    H218023   8.195   5.593   2.232
 6028TIP3   OH218024   5.622   5.505   4.505
 6028TIP3    H118025   5.590   5.573   4.446
 6028TIP3    H218026   5.582   5.526   4.589
 6029TIP3   OH218027   5.326   7.898   1.582
 6029TIP3    H118028   5.281   7.942   1.654
 6029TIP3    H218029   5.419   7.900   1.606
 6030TIP3   OH218030   1.194   1.245   0.883
 6030TIP3    H118031   1.245   1.324   0.863
 6030TIP3    H218032   1.157   1.263   0.970
 6031TIP3   OH218033   5.118   1.809   3.121
 6031TIP3    H118034   5.043   1.856   3.085
 6031TIP3    H218035   5.193   1.838   3.069
 6032TIP3   OH218036   4.345   1.310   2.889
 6032TIP3    H118037   4.307   1.376   2.947
 6032TIP3    H218038   4.360   1.234   2.945
 6033TIP3   OH218039   2.796   7.342   0.968
 6033TIP3    H118040   2.712   7.376   1.000
 6033TIP3    H218041   2.795   7.362   0.874
 6034TIP3   OH218042   1.646   0.184   1.398
 6034TIP3    H118043   1.672   0.229   1.478
 6034TIP3    H218044   1.691   0.231   1.328
 6035TIP3   OH218045   2.553   0.521   0.953
 6035TIP3    H118046   2.562   0.449   0.890
 6035TIP3    H218047   2.538   0.478   1.037
 6036TIP3   OH218048   6.334   3.483   1.025
 6036TIP3    H118049   6.286   3.563   1.043
 6036TIP3    H218050   6.389   3.504   0.950
 6037TIP3   OH218051   1.679   3.574   6.056
 6037TIP3    H118052   1.707   3.484   6.071
 6037TIP3    H218053   1.585   3.574   6.078
 6038TIP3   OH218054   4.879   5.144   3.080
 6038TIP3    H118055   4.817   5.173   3.013
 6038TIP3    H218056   4.952   5.106   3.030
 6039TIP3   OH218057   7.292   1.971   0.452
 6039TIP3    H118058   7.239   2.028   0.397
 6039TIP3    H218059   7.265   1.991   0.541
 6040TIP3   OH218060   3.523   3.714   5.132
 6040TIP3    H118061   3.527   3.720   5.037
 6040TIP3    H218062   3.610   3.683   5.158
 6041TIP3   OH218063   5.186   7.198   3.406
 6041TIP3    H118064   5.263   7.165   3.361
 6041TIP3    H218065   5.137   7.245   3.339
 6042TIP3   OH218066   1.667   6.475   0.592
 6042TIP3    H118067   1.672   6.571   0.586
 6042TIP3    H218068   1.746   6.450   0.640
 6043TIP3   OH218069   8.264   3.318   6.763
 6043TIP3    H118070   8.188   3.285   6.811
 6043TIP3    H218071   8.237   3.402   6.727
 6044TIP3   OH218072   6.174   2.199   6.689
 6044TIP3    H118073   6.151   2.124   6.744
 6044TIP3    H218074   6.126   2.184   6.608
 6045TIP3   OH218075   8.328   7.301   2.075
 6045TIP3    H118076   8.396   7.252   2.122
 6045TIP3    H218077   8.248   7.286   2.125
 6046TIP3   OH218078   8.354   3.798   2.838
 6046TIP3    H118079   8.384   3.889   2.843
 6046TIP3    H218080   8.431   3.749   2.809
 6047TIP3   OH218081   4.595   0.501   1.080
 6047TIP3    H118082   4.648   0.543   1.013
 6047TIP3    H218083   4.656   0.444   1.127
 6048TIP3   OH218084   7.617   4.709   5.179
 6048TIP3    H118085   7.701   4.744   5.208
 6048TIP3    H218086   7.628   4.694   5.085
 6049TIP3   OH218087   4.851   6.620   4.288
 6049TIP3    H118088   4.831   6.535   4.249
 6049TIP3    H218089   4.855   6.603   4.382
 6050TIP3   OH218090   0.661   2.583   6.461
 6050TIP3    H118091   0.679   2.662   6.513
 6050TIP3    H218092   0.567   2.587   6.444
 6051TIP3   OH218093   6.825   7.193   4.375
 6051TIP3    H118094   6.756   7.205   4.439
 6051TIP3    H218095   6.834   7.099   4.365
 6052TIP3   OH218096   2.432   3.512   1.811
 6052TIP3    H118097   2.464   3.470   1.732
 6052TIP3    H218098   2.358   3.457   1.839
 6053TIP3   OH218099   3.225   2.271   5.098
 6053TIP3    H118100   3.299   2.231   5.052
 6053TIP3    H218101   3.241   2.365   5.090
 6054TIP3   OH218102   4.566   6.193   1.673
 6054TIP3    H118103   4.642   6.202   1.731
 6054TIP3    H218104   4.562   6.277   1.627
 6055TIP3   OH218105   6.821   3.002  -0.030
 6055TIP3    H118106   6.865   2.919  -0.012
 6055TIP3    H218107   6.822   3.048   0.054
 6056TIP3   OH218108   2.735   1.602   6.814
 6056TIP3    H118109   2.677   1.653   6.758
 6056TIP3    H218110   2.797   1.560   6.754
 6057TIP3   OH218111   4.084   6.371   1.669
 6057TIP3    H118112   4.146   6.432   1.631
 6057TIP3    H218113   4.125   6.345   1.752
 6058TIP3   OH218114   1.102   7.773   0.310
 6058TIP3    H118115   1.024   7.721   0.290
 6058TIP3    H218116   1.148   7.780   0.226
 6059TIP3   OH218117   8.074   0.481   5.553
 6059TIP3    H118118   8.006   0.419   5.580
 6059TIP3    H218119   8.042   0.517   5.470
 6060TIP3   OH218120   4.874   1.380   4.411
 6060TIP3    H118121   4.931   1.455   4.399
 6060TIP3    H218122   4.807   1.390   4.343
 6061TIP3   OH218123   2.177   3.592   1.605
 6061TIP3    H118124   2.266   3.618   1.584
 6061TIP3    H218125   2.171   3.500   1.578
 6062TIP3   OH218126   7.113   5.534   2.980
 6062TIP3    H118127   7.058   5.602   3.019
 6062TIP3    H218128   7.144   5.572   2.898
 6063TIP3   OH218129   7.685   5.718   2.744
 6063TIP3    H118130   7.721   5.791   2.694
 6063TIP3    H218131   7.599   5.702   2.705
 6064TIP3   OH218132   0.096   7.256   4.710
 6064TIP3    H118133   0.151   7.240   4.633
 6064TIP3    H218134   0.088   7.351   4.715
 6065TIP3   OH218135   6.978   7.391   4.822
 6065TIP3    H118136   7.074   7.390   4.825
 6065TIP3    H218137   6.957   7.449   4.749
 6066TIP3   OH218138   3.355   0.449   4.151
 6066TIP3    H118139   3.323   0.539   4.162
 6066TIP3    H218140   3.420   0.439   4.221
 6067TIP3   OH218141   4.628   2.285   2.539
 6067TIP3    H118142   4.695   2.345   2.571
 6067TIP3    H218143   4.668   2.245   2.461
 6068TIP3   OH218144   8.175   5.799   2.779
 6068TIP3    H118145   8.154   5.708   2.756
 6068TIP3    H218146   8.247   5.822   2.720
 6069TIP3   OH218147   0.887   4.566   6.548
 6069TIP3    H118148   0.935   4.486   6.529
 6069TIP3    H218149   0.907   4.625   6.475
 6070TIP3   OH218150   0.110   5.736   4.690
 6070TIP3    H118151   0.167   5.772   4.622
 6070TIP3    H218152   0.159   5.746   4.771
 6071TIP3   OH218153   4.815   6.834   3.574
 6071TIP3    H118154   4.750   6.861   3.639
 6071TIP3    H218155   4.865   6.766   3.618
 6072TIP3   OH218156   4.222   6.471   3.318
 6072TIP3    H118157   4.260   6.427   3.242
 6072TIP3    H218158   4.295   6.478   3.380
 6073TIP3   OH218159   1.899   1.670   2.441
 6073TIP3    H118160   1.890   1.656   2.347
 6073TIP3    H218161   1.809   1.685   2.471
 6074TIP3   OH218162   0.139   4.147   1.174
 6074TIP3    H118163   0.102   4.231   1.201
 6074TIP3    H218164   0.212   4.169   1.117
 6075TIP3   OH218165   6.774   2.383   4.089
 6075TIP3    H118166   6.803   2.437   4.016
 6075TIP3    H218167   6.829   2.305   4.085
 6076TIP3   OH218168   7.527   2.307   2.841
 6076TIP3    H118169   7.524   2.314   2.745
 6076TIP3    H218170   7.582   2.230   2.857
 6077TIP3   OH218171   3.898   3.044   0.424
 6077TIP3    H118172   3.936   2.966   0.383
 6077TIP3    H218173   3.875   3.016   0.512
 6078TIP3   OH218174   0.663   5.355   5.689
 6078TIP3    H118175   0.611   5.357   5.769
 6078TIP3    H218176   0.753   5.345   5.719
 6079TIP3   OH218177   6.706   3.779   6.846
 6079TIP3    H118178   6.680   3.785   6.754
 6079TIP3    H218179   6.690   3.867   6.881
 6080TIP3   OH218180   5.005   1.191   3.907
 6080TIP3    H118181   4.935   1.253   3.927
 6080TIP3    H218182   5.003   1.182   3.812
 6081TIP3   OH218183   1.406   0.292   3.078
 6081TIP3    H118184   1.413   0.383   3.107
 6081TIP3    H218185   1.326   0.289   3.027
 6082TIP3   OH218186   1.539   4.315   0.962
 6082TIP3    H118187   1.614   4.369   0.986
 6082TIP3    H218188   1.514   4.345   0.874
 6083TIP3   OH218189   2.917   2.784   2.617
 6083TIP3    H118190   2.895   2.741   2.534
 6083TIP3    H218191   2.846   2.847   2.630
 6084TIP3   OH218192   0.041   3.779   5.320
 6084TIP3    H118193  -0.012   3.855   5.343
 6084TIP3    H218194   0.002   3.745   5.240
 6085TIP3   OH218195   0.832   1.385   1.482
 6085TIP3    H118196   0.838   1.301   1.436
 6085TIP3    H218197   0.848   1.451   1.415
 6086TIP3   OH218198   0.456   4.862   3.290
 6086TIP3    H118199   0.444   4.803   3.364
 6086TIP3    H218200   0.513   4.813   3.230
 6087TIP3   OH218201   3.667   4.991   0.679
 6087TIP3    H118202   3.674   4.896   0.667
 6087TIP3    H218203   3.586   5.002   0.728
 6088TIP3   OH218204   3.893   7.102   5.777
 6088TIP3    H118205   3.972   7.056   5.748
 6088TIP3    H218206   3.847   7.124   5.697
 6089TIP3   OH218207   2.290   3.143   2.084
 6089TIP3    H118208   2.330   3.166   2.168
 6089TIP3    H218209   2.363   3.117   2.029
 6090TIP3   OH218210   6.222   7.775   0.089
 6090TIP3    H118211   6.189   7.739   0.007
 6090TIP3    H218212   6.317   7.765   0.084
 6091TIP3   OH218213   3.987   0.119   3.871
 6091TIP3    H118214   3.924   0.170   3.819
 6091TIP3    H218215   4.044   0.078   3.807
 6092TIP3   OH218216   1.058   3.250   4.146
 6092TIP3    H118217   1.151   3.228   4.142
 6092TIP3    H218218   1.056   3.343   4.172
 6093TIP3   OH218219   3.491   2.972   0.485
 6093TIP3    H118220   3.442   2.895   0.515
 6093TIP3    H218221   3.425   3.041   0.476
 6094TIP3   OH218222   7.567   0.705   3.846
 6094TIP3    H118223   7.491   0.685   3.791
 6094TIP3    H218224   7.554   0.796   3.873
 6095TIP3   OH218225   3.627   3.183   0.612
 6095TIP3    H118226   3.691   3.129   0.658
 6095TIP3    H218227   3.561   3.120   0.581
 6096TIP3   OH218228   0.601   3.352   1.431
 6096TIP3    H118229   0.514   3.333   1.467
 6096TIP3    H218230   0.660   3.296   1.481
 6097TIP3   OH218231   2.504   2.620   2.242
 6097TIP3    H118232   2.505   2.686   2.311
 6097TIP3    H218233   2.545   2.543   2.282
 6098TIP3   OH218234   4.517   0.927   2.469
 6098TIP3    H118235   4.470   0.863   2.524
 6098TIP3    H218236   4.516   1.007   2.521
 6099TIP3   OH218237   3.069   7.213   1.367
 6099TIP3    H118238   3.045   7.266   1.291
 6099TIP3    H218239   3.095   7.277   1.433
 6100TIP3   OH218240   8.381   2.701   4.687
 6100TIP3    H118241   8.345   2.615   4.710
 6100TIP3    H218242   8.312   2.763   4.711
 6101TIP3   OH218243   3.431   3.226   0.093
 6101TIP3    H118244   3.514   3.273   0.095
 6101TIP3    H218245   3.380   3.270   0.025
 6102TIP3   OH218246   5.027   5.517   3.690
 6102TIP3    H118247   5.105   5.539   3.639
 6102TIP3    H218248   4.974   5.596   3.689
 6103TIP3   OH218249   5.099   2.042   4.138
 6103TIP3    H118250   5.125   2.116   4.191
 6103TIP3    H218251   5.105   2.073   4.048
 6104TIP3   OH218252   0.067   7.061   4.285
 6104TIP3    H118253   0.134   7.118   4.247
 6104TIP3    H218254   0.052   6.995   4.217
 6105TIP3   OH218255   4.857   6.515   4.850
 6105TIP3    H118256   4.762   6.520   4.862
 6105TIP3    H218257   4.892   6.584   4.906
 6106TIP3   OH218258   6.525   0.802   6.421
 6106TIP3    H118259   6.478   0.832   6.498
 6106TIP3    H218260   6.618   0.815   6.443
 6107TIP3   OH218261   4.950   7.405   3.263
 6107TIP3    H118262   4.968   7.474   3.200
 6107TIP3    H218263   4.866   7.429   3.302
 6108TIP3   OH218264   6.595   6.439   1.056
 6108TIP3    H118265   6.593   6.488   0.974
 6108TIP3    H218266   6.634   6.354   1.033
 6109TIP3   OH218267   1.023   7.860   6.516
 6109TIP3    H118268   1.101   7.810   6.537
 6109TIP3    H218269   0.952   7.816   6.564
 6110TIP3   OH218270   7.792   0.062   0.370
 6110TIP3    H118271   7.773   0.086   0.461
 6110TIP3    H218272   7.860  -0.005   0.377
 6111TIP3   OH218273   3.426   7.118   1.653
 6111TIP3    H118274   3.373   7.198   1.658
 6111TIP3    H218275   3.499   7.141   1.596
 6112TIP3   OH218276   7.858   1.900   0.106
 6112TIP3    H118277   7.895   1.822   0.150
 6112TIP3    H218278   7.888   1.893   0.016
 6113TIP3   OH218279   0.169   7.844   4.742
 6113TIP3    H118280   0.082   7.875   4.715
 6113TIP3    H218281   0.230   7.905   4.700
 6114TIP3   OH218282   4.356   4.832   1.775
 6114TIP3    H118283   4.317   4.834   1.862
 6114TIP3    H218284   4.447   4.806   1.791
 6115TIP3   OH218285   5.123   0.815   0.960
 6115TIP3    H118286   5.098   0.875   0.891
 6115TIP3    H218287   5.056   0.747   0.959
 6116TIP3   OH218288   4.764   6.822   5.656
 6116TIP3    H118289   4.750   6.727   5.663
 6116TIP3    H218290   4.819   6.843   5.731
 6117TIP3   OH218291   6.839   5.961   6.248
 6117TIP3    H118292   6.829   5.868   6.266
 6117TIP3    H218293   6.927   5.982   6.279
 6118TIP3   OH218294   3.588   7.845   6.548
 6118TIP3    H118295   3.536   7.917   6.513
 6118TIP3    H218296   3.541   7.818   6.627
 6119TIP3   OH218297   6.561   6.567   4.117
 6119TIP3    H118298   6.511   6.486   4.111
 6119TIP3    H218299   6.515   6.618   4.185
 6120TIP3   OH218300   6.185   1.044   1.015
 6120TIP3    H118301   6.099   1.009   0.991
 6120TIP3    H218302   6.178   1.062   1.109
 6121TIP3   OH218303   5.411   6.784   3.892
 6121TIP3    H118304   5.402   6.703   3.842
 6121TIP3    H218305   5.458   6.843   3.834
 6122TIP3   OH218306   5.404   7.072   3.257
 6122TIP3    H118307   5.485   7.021   3.253
 6122TIP3    H218308   5.424   7.152   3.207
 6123TIP3   OH218309   7.394   4.857   4.322
 6123TIP3    H118310   7.345   4.811   4.253
 6123TIP3    H218311   7.438   4.929   4.276
 6124TIP3   OH218312   7.544   6.456   0.718
 6124TIP3    H118313   7.510   6.367   0.725
 6124TIP3    H218314   7.486   6.508   0.774
 6125TIP3   OH218315   7.828   2.885   3.613
 6125TIP3    H118316   7.792   2.936   3.686
 6125TIP3    H218317   7.787   2.799   3.621
 6126TIP3   OH218318   0.467   3.478   4.492
 6126TIP3    H118319   0.453   3.503   4.583
 6126TIP3    H218320   0.514   3.394   4.496
 6127TIP3   OH218321   2.618   4.301   5.464
 6127TIP3    H118322   2.559   4.250   5.519
 6127TIP3    H218323   2.666   4.235   5.413
 6128TIP3   OH218324   3.369   2.442   6.280
 6128TIP3    H118325   3.285   2.402   6.300
 6128TIP3    H218326   3.404   2.470   6.365
 6129TIP3   OH218327   3.093   2.099   3.217
 6129TIP3    H118328   3.019   2.135   3.266
 6129TIP3    H218329   3.052   2.051   3.145
 6130TIP3   OH218330   0.952   7.286   1.644
 6130TIP3    H118331   0.998   7.365   1.615
 6130TIP3    H218332   0.888   7.318   1.707
 6131TIP3   OH218333   2.966   6.656   5.045
 6131TIP3    H118334   3.027   6.671   5.117
 6131TIP3    H218335   2.916   6.737   5.039
 6132TIP3   OH218336   7.004   1.629   6.098
 6132TIP3    H118337   7.079   1.678   6.132
 6132TIP3    H218338   6.941   1.697   6.075
 6133TIP3   OH218339   3.994   4.853   4.835
 6133TIP3    H118340   4.044   4.882   4.759
 6133TIP3    H218341   3.939   4.782   4.801
 6134TIP3   OH218342   1.233   6.490   5.804
 6134TIP3    H118343   1.234   6.574   5.757
 6134TIP3    H218344   1.160   6.498   5.865
 6135TIP3   OH218345   4.454   0.131   4.084
 6135TIP3    H118346   4.371   0.178   4.096
 6135TIP3    H218347   4.500   0.181   4.017
 6136TIP3   OH218348   6.398   4.806   5.522
 6136TIP3    H118349   6.304   4.809   5.544
 6136TIP3    H218350   6.408   4.728   5.468
 6137TIP3   OH218351   1.015   4.108   5.131
 6137TIP3    H118352   0.984   4.026   5.169
 6137TIP3    H218353   1.062   4.152   5.202
 6138TIP3   OH218354   4.811   3.435   2.311
 6138TIP3    H118355   4.860   3.394   2.239
 6138TIP3    H218356   4.812   3.370   2.381
 6139TIP3   OH218357   7.273   0.187   4.502
 6139TIP3    H118358   7.279   0.100   4.541
 6139TIP3    H218359   7.357   0.229   4.522
 6140TIP3   OH218360   0.458   0.024   5.902
 6140TIP3    H118361   0.446   0.023   5.807
 6140TIP3    H218362   0.392   0.085   5.933
 6141TIP3   OH218363   6.443   0.530   2.503
 6141TIP3    H118364   6.354   0.534   2.467
 6141TIP3    H218365   6.489   0.604   2.463
 6142TIP3   OH218366   6.903   7.581   0.842
 6142TIP3    H118367   6.910   7.577   0.746
 6142TIP3    H218368   6.877   7.672   0.860
 6143TIP3   OH218369   7.142   5.793   1.775
 6143TIP3    H118370   7.229   5.823   1.801
 6143TIP3    H218371   7.159   5.722   1.713
 6144TIP3   OH218372   7.383   4.546   0.728
 6144TIP3    H118373   7.319   4.474   0.728
 6144TIP3    H218374   7.461   4.510   0.769
 6145TIP3   OH218375   4.930   6.702   5.042
 6145TIP3    H118376   4.857   6.716   5.102
 6145TIP3    H218377   5.008   6.724   5.093
 6146TIP3   OH218378   8.005   1.660   3.193
 6146TIP3    H118379   8.042   1.571   3.192
 6146TIP3    H218380   8.041   1.700   3.272
 6147TIP3   OH218381   3.932   1.553   6.565
 6147TIP3    H118382   3.886   1.473   6.590
 6147TIP3    H218383   4.018   1.523   6.535
 6148TIP3   OH218384   1.792   3.937   0.467
 6148TIP3    H118385   1.786   3.886   0.387
 6148TIP3    H218386   1.719   3.999   0.462
 6149TIP3   OH218387   0.835   5.112   0.708
 6149TIP3    H118388   0.900   5.173   0.742
 6149TIP3    H218389   0.759   5.124   0.763
 6150TIP3   OH218390   7.304   7.379   4.327
 6150TIP3    H118391   7.273   7.395   4.238
 6150TIP3    H218392   7.232   7.407   4.384
 6151TIP3   OH218393   4.818   2.595   3.483
 6151TIP3    H118394   4.793   2.621   3.394
 6151TIP3    H218395   4.907   2.562   3.474
 6152TIP3   OH218396   4.581   4.244   6.144
 6152TIP3    H118397   4.624   4.201   6.070
 6152TIP3    H218398   4.646   4.308   6.176
 6153TIP3   OH218399   3.534   6.065   5.451
 6153TIP3    H118400   3.443   6.041   5.435
 6153TIP3    H218401   3.529   6.136   5.516
 6154TIP3   OH218402   6.981   5.272   0.156
 6154TIP3    H118403   7.047   5.211   0.190
 6154TIP3    H218404   7.012   5.358   0.183
 6155TIP3   OH218405   0.038   3.460   5.209
 6155TIP3    H118406  -0.011   3.536   5.177
 6155TIP3    H218407  -0.013   3.385   5.178
 6156TIP3   OH218408   1.735   1.272   2.807
 6156TIP3    H118409   1.652   1.261   2.854
 6156TIP3    H218410   1.710   1.265   2.714
 6157TIP3   OH218411   1.943   3.941   4.818
 6157TIP3    H118412   1.912   4.018   4.772
 6157TIP3    H218413   1.969   3.973   4.904
 6158TIP3   OH218414   8.309   1.759   1.620
 6158TIP3    H118415   8.215   1.757   1.602
 6158TIP3    H218416   8.350   1.758   1.534
 6159TIP3   OH218417   3.734   3.387   2.047
 6159TIP3    H118418   3.791   3.317   2.078
 6159TIP3    H218419   3.726   3.446   2.122
 6160TIP3   OH218420   8.328   4.549   4.974
 6160TIP3    H118421   8.278   4.626   4.948
 6160TIP3    H218422   8.273   4.475   4.951
 6161TIP3   OH218423   0.453   5.465   0.584
 6161TIP3    H118424   0.359   5.456   0.593
 6161TIP3    H218425   0.469   5.464   0.489
 6162TIP3   OH218426   6.226   1.208   4.723
 6162TIP3    H118427   6.172   1.287   4.732
 6162TIP3    H218428   6.316   1.240   4.728
 6163TIP3   OH218429   6.975   0.707   1.347
 6163TIP3    H118430   7.058   0.670   1.317
 6163TIP3    H218431   6.925   0.721   1.266
 6164TIP3   OH218432   7.917   6.314   3.570
 6164TIP3    H118433   7.846   6.303   3.634
 6164TIP3    H218434   7.918   6.231   3.522
 6165TIP3   OH218435   4.000   1.270   3.011
 6165TIP3    H118436   4.002   1.225   2.927
 6165TIP3    H218437   4.046   1.211   3.071
 6166TIP3   OH218438   6.297   1.213   2.481
 6166TIP3    H118439   6.244   1.240   2.557
 6166TIP3    H218440   6.288   1.284   2.419
 6167TIP3   OH218441   7.036   4.443   3.364
 6167TIP3    H118442   7.096   4.494   3.309
 6167TIP3    H218443   6.959   4.430   3.309
 6168TIP3   OH218444   6.375   0.269   2.829
 6168TIP3    H118445   6.296   0.232   2.791
 6168TIP3    H218446   6.427   0.193   2.855
 6169TIP3   OH218447   4.981   6.179   0.397
 6169TIP3    H118448   5.008   6.162   0.487
 6169TIP3    H218449   5.062   6.195   0.350
 6170TIP3   OH218450   2.528   0.192   1.552
 6170TIP3    H118451   2.546   0.099   1.570
 6170TIP3    H218452   2.436   0.204   1.575
 6171TIP3   OH218453   0.098   5.064   1.690
 6171TIP3    H118454   0.061   5.035   1.773
 6171TIP3    H218455   0.058   5.149   1.673
 6172TIP3   OH218456   1.201   2.004   3.580
 6172TIP3    H118457   1.198   2.000   3.676
 6172TIP3    H218458   1.140   1.935   3.552
 6173TIP3   OH218459   5.240   1.816   2.430
 6173TIP3    H118460   5.312   1.879   2.429
 6173TIP3    H218461   5.196   1.833   2.514
 6174TIP3   OH218462   6.146   2.617   1.730
 6174TIP3    H118463   6.149   2.713   1.734
 6174TIP3    H218464   6.200   2.588   1.804
 6175TIP3   OH218465   5.624   4.043   1.918
 6175TIP3    H118466   5.686   4.112   1.894
 6175TIP3    H218467   5.680   3.968   1.939
 6176TIP3   OH218468   2.768   6.954   3.915
 6176TIP3    H118469   2.848   6.912   3.947
 6176TIP3    H218470   2.711   6.958   3.992
 6177TIP3   OH218471   5.506   0.372   3.495
 6177TIP3    H118472   5.458   0.393   3.415
 6177TIP3    H218473   5.558   0.295   3.473
 6178TIP3   OH218474   6.665   7.565   3.716
 6178TIP3    H118475   6.599   7.542   3.782
 6178TIP3    H218476   6.622   7.629   3.660
 6179TIP3   OH218477   4.893   0.836   4.757
 6179TIP3    H118478   4.907   0.878   4.672
 6179TIP3    H218479   4.802   0.806   4.754
 6180TIP3   OH218480   2.101   6.599   2.818
 6180TIP3    H118481   2.008   6.602   2.796
 6180TIP3    H218482   2.117   6.681   2.864
 6181TIP3   OH218483   2.727   1.833   6.514
 6181TIP3    H118484   2.670   1.787   6.575
 6181TIP3    H218485   2.745   1.917   6.555
 6182TIP3   OH218486   1.023   1.101   2.514
 6182TIP3    H118487   1.071   1.076   2.593
 6182TIP3    H218488   0.932   1.076   2.531
 6183TIP3   OH218489   7.074   6.288   1.898
 6183TIP3    H118490   7.028   6.357   1.946
 6183TIP3    H218491   7.123   6.241   1.965
 6184TIP3   OH218492   8.206   1.928   0.910
 6184TIP3    H118493   8.129   1.871   0.902
 6184TIP3    H218494   8.271   1.888   0.852
 6185TIP3   OH218495   2.725   6.395   0.160
 6185TIP3    H118496   2.745   6.407   0.067
 6185TIP3    H218497   2.798   6.342   0.193
 6186TIP3   OH218498   3.889   2.818   3.204
 6186TIP3    H118499   3.935   2.847   3.283
 6186TIP3    H218500   3.921   2.729   3.189
 6187TIP3   OH218501   2.460   7.390   3.705
 6187TIP3    H118502   2.463   7.427   3.794
 6187TIP3    H218503   2.367   7.378   3.687
 6188TIP3   OH218504   8.249   1.529   0.550
 6188TIP3    H118505   8.155   1.527   0.534
 6188TIP3    H218506   8.261   1.475   0.628
 6189TIP3   OH218507   0.893   7.478   3.693
 6189TIP3    H118508   0.910   7.550   3.632
 6189TIP3    H218509   0.873   7.403   3.638
 6190TIP3   OH218510   8.058   2.796   2.576
 6190TIP3    H118511   8.051   2.745   2.657
 6190TIP3    H218512   8.131   2.757   2.529
 6191TIP3   OH218513   1.475   0.056   6.122
 6191TIP3    H118514   1.410   0.125   6.126
 6191TIP3    H218515   1.454   0.007   6.042
 6192TIP3   OH218516   7.223   0.861   1.940
 6192TIP3    H118517   7.309   0.869   1.899
 6192TIP3    H218518   7.165   0.911   1.883
 6193TIP3   OH218519   0.730   1.807   1.870
 6193TIP3    H118520   0.825   1.817   1.878
 6193TIP3    H218521   0.695   1.893   1.894
 6194TIP3   OH218522   0.152   0.529   5.232
 6194TIP3    H118523   0.166   0.446   5.188
 6194TIP3    H218524   0.212   0.590   5.189
 6195TIP3   OH218525   1.711   2.242   4.971
 6195TIP3    H118526   1.660   2.294   4.908
 6195TIP3    H218527   1.768   2.187   4.917
 6196TIP3   OH218528   0.939   0.578   3.433
 6196TIP3    H118529   0.901   0.618   3.355
 6196TIP3    H218530   0.872   0.517   3.464
 6197TIP3   OH218531   7.882   0.706   2.918
 6197TIP3    H118532   7.976   0.717   2.933
 6197TIP3    H218533   7.855   0.787   2.875
 6198TIP3   OH218534   1.329   1.570   4.610
 6198TIP3    H118535   1.275   1.604   4.538
 6198TIP3    H218536   1.418   1.571   4.576
 6199TIP3   OH218537   6.530   3.790   6.621
 6199TIP3    H118538   6.543   3.815   6.529
 6199TIP3    H218539   6.446   3.744   6.622
 6200TIP3   OH218540   8.099   3.883   2.976
 6200TIP3    H118541   8.143   3.876   3.061
 6200TIP3    H218542   8.170   3.880   2.912
 6201TIP3   OH218543   0.079   7.011   5.132
 6201TIP3    H118544   0.027   7.049   5.061
 6201TIP3    H218545   0.054   7.062   5.209
 6202TIP3   OH218546   7.110   1.525   5.409
 6202TIP3    H118547   7.126   1.522   5.315
 6202TIP3    H218548   7.054   1.601   5.422
 6203TIP3   OH218549   6.227   0.362   6.484
 6203TIP3    H118550   6.306   0.414   6.500
 6203TIP3    H218551   6.172   0.418   6.430
 6204TIP3   OH218552   1.859   1.453   6.805
 6204TIP3    H118553   1.915   1.393   6.755
 6204TIP3    H218554   1.921   1.508   6.853
 6205TIP3   OH218555   1.050   0.359   3.723
 6205TIP3    H118556   1.005   0.371   3.807
 6205TIP3    H218557   1.120   0.297   3.743
 6206TIP3   OH218558   4.664   0.907   5.619
 6206TIP3    H118559   4.608   0.899   5.696
 6206TIP3    H218560   4.604   0.894   5.545
 6207TIP3   OH218561   0.176   0.054   3.229
 6207TIP3    H118562   0.249   0.093   3.278
 6207TIP3    H218563   0.162  -0.030   3.271
 6208TIP3   OH218564   2.687   2.211   3.720
 6208TIP3    H118565   2.623   2.177   3.783
 6208TIP3    H218566   2.634   2.242   3.647
 6209TIP3   OH218567   0.550   4.739   1.338
 6209TIP3    H118568   0.530   4.781   1.422
 6209TIP3    H218569   0.472   4.686   1.319
 6210TIP3   OH218570   4.678   0.633   6.656
 6210TIP3    H118571   4.655   0.702   6.594
 6210TIP3    H218572   4.630   0.556   6.626
 6211TIP3   OH218573   2.864   7.325   4.384
 6211TIP3    H118574   2.926   7.383   4.339
 6211TIP3    H218575   2.917   7.280   4.449
 6212TIP3   OH218576   6.180   0.045   4.043
 6212TIP3    H118577   6.216   0.007   3.962
 6212TIP3    H218578   6.255   0.088   4.084
 6213TIP3   OH218579   3.571   0.558   5.531
 6213TIP3    H118580   3.593   0.558   5.438
 6213TIP3    H218581   3.484   0.598   5.535
 6214TIP3   OH218582   6.563   4.139   2.556
 6214TIP3    H118583   6.605   4.074   2.613
 6214TIP3    H218584   6.607   4.128   2.472
 6215TIP3   OH218585   2.516   2.362   5.175
 6215TIP3    H118586   2.585   2.305   5.141
 6215TIP3    H218587   2.440   2.343   5.120
 6216TIP3   OH218588   4.210   6.706   0.071
 6216TIP3    H118589   4.157   6.780   0.101
 6216TIP3    H218590   4.191   6.700  -0.023
 6217TIP3   OH218591   4.812   0.150   5.170
 6217TIP3    H118592   4.836   0.082   5.233
 6217TIP3    H218593   4.807   0.230   5.221
 6218TIP3   OH218594   7.657   5.291   1.852
 6218TIP3    H118595   7.629   5.262   1.939
 6218TIP3    H218596   7.596   5.247   1.792
 6219TIP3   OH218597   4.961   2.521   4.408
 6219TIP3    H118598   4.886   2.563   4.450
 6219TIP3    H218599   4.969   2.565   4.323
 6220TIP3   OH218600   2.869   3.773   2.340
 6220TIP3    H118601   2.830   3.819   2.266
 6220TIP3    H218602   2.897   3.689   2.305
 6221TIP3   OH218603   1.394   2.241   5.051
 6221TIP3    H118604   1.411   2.148   5.067
 6221TIP3    H218605   1.452   2.263   4.977
 6222TIP3   OH218606   5.913   3.272   5.785
 6222TIP3    H118607   5.875   3.184   5.792
 6222TIP3    H218608   5.928   3.299   5.876
 6223TIP3   OH218609   6.717   7.789   0.469
 6223TIP3    H118610   6.723   7.868   0.416
 6223TIP3    H218611   6.807   7.760   0.480
 6224TIP3   OH218612   2.775   2.483   1.860
 6224TIP3    H118613   2.756   2.573   1.832
 6224TIP3    H218614   2.867   2.485   1.885
 6225TIP3   OH218615   2.051   6.999   2.803
 6225TIP3    H118616   2.092   7.007   2.716
 6225TIP3    H218617   2.099   6.928   2.845
 6226TIP3   OH218618   2.251   4.692   2.588
 6226TIP3    H118619   2.158   4.697   2.611
 6226TIP3    H218620   2.253   4.650   2.503
 6227TIP3   OH218621   7.144   4.612   1.230
 6227TIP3    H118622   7.238   4.612   1.249
 6227TIP3    H218623   7.109   4.682   1.286
 6228TIP3   OH218624   2.184   5.918   2.149
 6228TIP3    H118625   2.210   5.875   2.068
 6228TIP3    H218626   2.146   5.848   2.203
 6229TIP3   OH218627   6.143   3.735   4.682
 6229TIP3    H118628   6.053   3.732   4.714
 6229TIP3    H218629   6.171   3.825   4.697
 6230TIP3   OH218630   5.478   7.940   5.300
 6230TIP3    H118631   5.421   7.893   5.361
 6230TIP3    H218632   5.459   7.902   5.214
 6231TIP3   OH218633   0.804   4.151   4.962
 6231TIP3    H118634   0.743   4.085   4.994
 6231TIP3    H218635   0.873   4.154   5.028
 6232TIP3   OH218636   7.253   4.282   3.371
 6232TIP3    H118637   7.292   4.323   3.293
 6232TIP3    H218638   7.169   4.328   3.382
 6233TIP3   OH218639   7.202   4.148   0.495
 6233TIP3    H118640   7.124   4.202   0.483
 6233TIP3    H218641   7.169   4.064   0.527
 6234TIP3   OH218642   5.225   6.957   5.408
 6234TIP3    H118643   5.218   6.947   5.503
 6234TIP3    H218644   5.309   6.919   5.386
 6235TIP3   OH218645   6.910   5.578   4.873
 6235TIP3    H118646   6.928   5.625   4.954
 6235TIP3    H218647   6.830   5.619   4.839
 6236TIP3   OH218648   6.187   4.871   3.330
 6236TIP3    H118649   6.221   4.930   3.398
 6236TIP3    H218650   6.252   4.802   3.324
 6237TIP3   OH218651   0.750   1.891   6.507
 6237TIP3    H118652   0.746   1.798   6.529
 6237TIP3    H218653   0.658   1.919   6.508
 6238TIP3   OH218654   5.730   2.051   2.411
 6238TIP3    H118655   5.778   1.973   2.439
 6238TIP3    H218656   5.773   2.078   2.330
 6239TIP3   OH218657   7.382   3.020   5.069
 6239TIP3    H118658   7.297   3.017   5.113
 6239TIP3    H218659   7.361   3.026   4.976
 6240TIP3   OH218660   2.026   2.234   0.364
 6240TIP3    H118661   1.977   2.259   0.442
 6240TIP3    H218662   2.041   2.141   0.373
 6241TIP3   OH218663   0.332   7.854   0.602
 6241TIP3    H118664   0.411   7.857   0.548
 6241TIP3    H218665   0.260   7.868   0.541
 6242TIP3   OH218666   4.097   5.230   5.354
 6242TIP3    H118667   4.090   5.139   5.325
 6242TIP3    H218668   4.174   5.232   5.410
 6243TIP3   OH218669   7.965   7.859   0.660
 6243TIP3    H118670   7.949   7.899   0.745
 6243TIP3    H218671   7.881   7.820   0.635
 6244TIP3   OH218672   3.616   1.110   0.942
 6244TIP3    H118673   3.579   1.147   0.862
 6244TIP3    H218674   3.691   1.058   0.912
 6245TIP3   OH218675   4.231   5.405   3.763
 6245TIP3    H118676   4.182   5.458   3.826
 6245TIP3    H218677   4.171   5.335   3.739
 6246TIP3   OH218678   4.916   4.234   0.392
 6246TIP3    H118679   4.905   4.319   0.436
 6246TIP3    H218680   5.010   4.219   0.393
 6247TIP3   OH218681   8.074   4.364   5.966
 6247TIP3    H118682   7.990   4.410   5.962
 6247TIP3    H218683   8.139   4.432   5.948
 6248TIP3   OH218684   7.820   0.099   3.130
 6248TIP3    H118685   7.882   0.045   3.081
 6248TIP3    H218686   7.863   0.112   3.215
 6249TIP3   OH218687   7.491   1.506   4.185
 6249TIP3    H118688   7.584   1.529   4.193
 6249TIP3    H218689   7.484   1.419   4.223
 6250TIP3   OH218690   1.178   2.234   0.056
 6250TIP3    H118691   1.214   2.218  -0.031
 6250TIP3    H218692   1.248   2.207   0.116
 6251TIP3   OH218693   6.288   6.796   6.398
 6251TIP3    H118694   6.270   6.860   6.329
 6251TIP3    H218695   6.383   6.783   6.394
 6252TIP3   OH218696   4.168   3.638   6.814
 6252TIP3    H118697   4.242   3.677   6.768
 6252TIP3    H218698   4.168   3.680   6.899
 6253TIP3   OH218699   8.333   7.158   6.598
 6253TIP3    H118700   8.314   7.192   6.510
 6253TIP3    H218701   8.264   7.094   6.615
 6254TIP3   OH218702   7.518   6.917   5.310
 6254TIP3    H118703   7.494   6.830   5.340
 6254TIP3    H218704   7.553   6.903   5.222
 6255TIP3   OH218705   5.716   1.003   0.122
 6255TIP3    H118706   5.810   0.988   0.110
 6255TIP3    H218707   5.691   1.059   0.048
 6256TIP3   OH218708   3.262   4.498   5.365
 6256TIP3    H118709   3.321   4.501   5.439
 6256TIP3    H218710   3.207   4.576   5.374
 6257TIP3   OH218711   1.756   0.724   6.642
 6257TIP3    H118712   1.723   0.654   6.699
 6257TIP3    H218713   1.790   0.790   6.703
 6258TIP3   OH218714   0.916   3.287   2.103
 6258TIP3    H118715   0.930   3.381   2.105
 6258TIP3    H218716   1.000   3.249   2.130
 6259TIP3   OH218717   5.951   4.533   2.102
 6259TIP3    H118718   5.883   4.479   2.062
 6259TIP3    H218719   6.008   4.470   2.147
 6260TIP3   OH218720   0.713   3.942   0.539
 6260TIP3    H118721   0.708   3.857   0.495
 6260TIP3    H218722   0.756   3.923   0.622
 6261TIP3   OH218723   5.834   6.148   1.679
 6261TIP3    H118724   5.829   6.176   1.771
 6261TIP3    H218725   5.791   6.219   1.631
 6262TIP3   OH218726   0.349   4.670   0.585
 6262TIP3    H118727   0.429   4.618   0.584
 6262TIP3    H218728   0.324   4.678   0.493
 6263TIP3   OH218729   4.428   6.507   3.077
 6263TIP3    H118730   4.492   6.439   3.097
 6263TIP3    H218731   4.454   6.539   2.990
 6264TIP3   OH218732   7.303   5.133   3.457
 6264TIP3    H118733   7.235   5.195   3.483
 6264TIP3    H218734   7.322   5.155   3.366
 6265TIP3   OH218735   5.852   7.621   0.602
 6265TIP3    H118736   5.803   7.682   0.545
 6265TIP3    H218737   5.795   7.608   0.677
 6266TIP3   OH218738   7.272   0.535   3.234
 6266TIP3    H118739   7.207   0.599   3.262
 6266TIP3    H218740   7.348   0.588   3.208
 6267TIP3   OH218741   4.443   4.734   5.346
 6267TIP3    H118742   4.457   4.640   5.344
 6267TIP3    H218743   4.417   4.757   5.256
 6268TIP3   OH218744   0.219   4.606   1.956
 6268TIP3    H118745   0.276   4.657   1.899
 6268TIP3    H218746   0.138   4.656   1.960
 6269TIP3   OH218747   6.377   5.871   4.932
 6269TIP3    H118748   6.464   5.900   4.906
 6269TIP3    H218749   6.388   5.832   5.019
 6270TIP3   OH218750   1.644   1.281   0.037
 6270TIP3    H118751   1.591   1.360   0.022
 6270TIP3    H218752   1.580   1.211   0.051
 6271TIP3   OH218753   6.366   6.877   2.686
 6271TIP3    H118754   6.389   6.844   2.599
 6271TIP3    H218755   6.307   6.950   2.668
 6272TIP3   OH218756   3.589   0.738   1.676
 6272TIP3    H118757   3.663   0.702   1.627
 6272TIP3    H218758   3.624   0.818   1.716
 6273TIP3   OH218759   7.360   4.814   5.156
 6273TIP3    H118760   7.454   4.794   5.156
 6273TIP3    H218761   7.352   4.885   5.221
 6274TIP3   OH218762   7.186   1.403   4.364
 6274TIP3    H118763   7.271   1.448   4.358
 6274TIP3    H218764   7.121   1.473   4.352
 6275TIP3   OH218765   0.722   2.595   5.581
 6275TIP3    H118766   0.804   2.636   5.608
 6275TIP3    H218767   0.656   2.664   5.592
 6276TIP3   OH218768   0.307   2.392   0.112
 6276TIP3    H118769   0.313   2.484   0.139
 6276TIP3    H218770   0.391   2.354   0.137
 6277TIP3   OH218771   3.547   3.687   4.507
 6277TIP3    H118772   3.570   3.696   4.414
 6277TIP3    H218773   3.622   3.722   4.554
 6278TIP3   OH218774   0.898   6.114   3.383
 6278TIP3    H118775   0.807   6.088   3.378
 6278TIP3    H218776   0.899   6.204   3.348
 6279TIP3   OH218777   7.074   1.479   3.465
 6279TIP3    H118778   7.041   1.456   3.378
 6279TIP3    H218779   7.086   1.574   3.462
 6280TIP3   OH218780   3.460   4.234   2.735
 6280TIP3    H118781   3.531   4.298   2.738
 6280TIP3    H218782   3.420   4.238   2.822
 6281TIP3   OH218783   2.238   4.071   0.686
 6281TIP3    H118784   2.262   4.159   0.714
 6281TIP3    H218785   2.284   4.013   0.746
 6282TIP3   OH218786   0.987   0.307   6.004
 6282TIP3    H118787   0.991   0.375   5.937
 6282TIP3    H218788   0.967   0.355   6.085
 6283TIP3   OH218789   2.281   2.126   1.487
 6283TIP3    H118790   2.369   2.091   1.475
 6283TIP3    H218791   2.294   2.207   1.536
 6284TIP3   OH218792   5.090   7.204   0.714
 6284TIP3    H118793   5.084   7.114   0.680
 6284TIP3    H218794   5.057   7.197   0.804
 6285TIP3   OH218795   7.512   5.276   4.393
 6285TIP3    H118796   7.444   5.226   4.439
 6285TIP3    H218797   7.476   5.293   4.307
 6286TIP3   OH218798   2.688   2.673   2.798
 6286TIP3    H118799   2.632   2.678   2.720
 6286TIP3    H218800   2.738   2.592   2.786
 6287TIP3   OH218801   6.908   6.412   1.632
 6287TIP3    H118802   6.972   6.396   1.702
 6287TIP3    H218803   6.834   6.454   1.676
 6288TIP3   OH218804   4.925   2.348   4.169
 6288TIP3    H118805   4.907   2.393   4.251
 6288TIP3    H218806   4.841   2.308   4.144
 6289TIP3   OH218807   4.925   4.817   5.023
 6289TIP3    H118808   4.964   4.863   4.948
 6289TIP3    H218809   4.860   4.879   5.057
 6290TIP3   OH218810   4.753   4.954   0.916
 6290TIP3    H118811   4.690   5.010   0.961
 6290TIP3    H218812   4.716   4.865   0.923
 6291TIP3   OH218813   5.715   0.439   1.280
 6291TIP3    H118814   5.742   0.385   1.206
 6291TIP3    H218815   5.630   0.475   1.254
 6292TIP3   OH218816   4.343   4.303   2.496
 6292TIP3    H118817   4.380   4.374   2.547
 6292TIP3    H218818   4.259   4.337   2.463
 6293TIP3   OH218819   8.199   3.431   3.954
 6293TIP3    H118820   8.249   3.439   4.035
 6293TIP3    H218821   8.251   3.478   3.889
 6294TIP3   OH218822   3.146   4.068   3.902
 6294TIP3    H118823   3.137   3.980   3.938
 6294TIP3    H218824   3.067   4.114   3.932
 6295TIP3   OH218825   2.478   7.754   1.407
 6295TIP3    H118826   2.432   7.671   1.404
 6295TIP3    H218827   2.436   7.802   1.479
 6296TIP3   OH218828   1.896   0.543   5.135
 6296TIP3    H118829   1.992   0.543   5.139
 6296TIP3    H218830   1.868   0.553   5.225
 6297TIP3   OH218831   8.161   7.694   6.039
 6297TIP3    H118832   8.088   7.634   6.023
 6297TIP3    H218833   8.186   7.679   6.130
 6298TIP3   OH218834   5.961   5.794   5.729
 6298TIP3    H118835   6.007   5.727   5.678
 6298TIP3    H218836   5.974   5.767   5.820
 6299TIP3   OH218837   6.581   3.378   1.491
 6299TIP3    H118838   6.668   3.380   1.451
 6299TIP3    H218839   6.522   3.407   1.421
 6300TIP3   OH218840   3.688   1.924   0.755
 6300TIP3    H118841   3.696   1.858   0.686
 6300TIP3    H218842   3.748   1.894   0.824
 6301TIP3   OH218843   4.748   3.405   4.342
 6301TIP3    H118844   4.736   3.337   4.409
 6301TIP3    H218845   4.675   3.464   4.356
 6302TIP3   OH218846   7.945   3.816   4.002
 6302TIP3    H118847   7.887   3.871   3.949
 6302TIP3    H218848   7.948   3.733   3.955
 6303TIP3   OH218849   3.566   4.253   0.627
 6303TIP3    H118850   3.491   4.219   0.676
 6303TIP3    H218851   3.622   4.176   0.612
 6304TIP3   OH218852   3.415   7.274   2.620
 6304TIP3    H118853   3.469   7.353   2.617
 6304TIP3    H218854   3.367   7.274   2.537
 6305TIP3   OH218855   8.269   7.349   6.789
 6305TIP3    H118856   8.321   7.287   6.738
 6305TIP3    H218857   8.192   7.299   6.815
 6306TIP3   OH218858   2.259   7.063   4.890
 6306TIP3    H118859   2.340   7.022   4.862
 6306TIP3    H218860   2.277   7.095   4.978
 6307TIP3   OH218861   6.850   1.963   0.741
 6307TIP3    H118862   6.760   1.931   0.732
 6307TIP3    H218863   6.843   2.036   0.803
 6308TIP3   OH218864   3.827   7.390   4.448
 6308TIP3    H118865   3.822   7.468   4.393
 6308TIP3    H218866   3.756   7.334   4.417
 6309TIP3   OH218867   0.953   2.970   3.816
 6309TIP3    H118868   1.045   2.985   3.841
 6309TIP3    H218869   0.956   2.961   3.721
 6310TIP3   OH218870   8.061   1.944   5.292
 6310TIP3    H118871   8.023   1.857   5.305
 6310TIP3    H218872   8.086   1.946   5.199
 6311TIP3   OH218873   3.031   6.786   5.985
 6311TIP3    H118874   2.971   6.780   5.910
 6311TIP3    H218875   2.999   6.860   6.036
 6312TIP3   OH218876   6.636   1.006   1.716
 6312TIP3    H118877   6.670   1.058   1.788
 6312TIP3    H218878   6.713   0.959   1.682
 6313TIP3   OH218879   5.096   0.375   5.026
 6313TIP3    H118880   5.083   0.321   5.105
 6313TIP3    H218881   5.054   0.324   4.956
 6314TIP3   OH218882   2.382   2.096   4.263
 6314TIP3    H118883   2.296   2.079   4.224
 6314TIP3    H218884   2.392   2.191   4.255
 6315TIP3   OH218885   4.241   1.977   0.609
 6315TIP3    H118886   4.197   2.052   0.648
 6315TIP3    H218887   4.334   1.992   0.626
 6316TIP3   OH218888   3.161   7.153   0.007
 6316TIP3    H118889   3.213   7.186  -0.066
 6316TIP3    H218890   3.225   7.131   0.075
 6317TIP3   OH218891   3.852   2.548   1.878
 6317TIP3    H118892   3.912   2.621   1.861
 6317TIP3    H218893   3.890   2.503   1.953
 6318TIP3   OH218894   4.855   1.415   3.977
 6318TIP3    H118895   4.913   1.459   4.040
 6318TIP3    H218896   4.789   1.372   4.032
 6319TIP3   OH218897   5.779   2.065   4.739
 6319TIP3    H118898   5.773   2.145   4.792
 6319TIP3    H218899   5.696   2.060   4.692
 6320TIP3   OH218900   0.875   4.417   4.470
 6320TIP3    H118901   0.854   4.345   4.411
 6320TIP3    H218902   0.910   4.486   4.413
 6321TIP3   OH218903   6.816   1.454   5.677
 6321TIP3    H118904   6.869   1.531   5.700
 6321TIP3    H218905   6.802   1.408   5.760
 6322TIP3   OH218906   2.398   7.244   0.010
 6322TIP3    H118907   2.443   7.185   0.071
 6322TIP3    H218908   2.331   7.189  -0.031
 6323TIP3   OH218909   6.227   5.772   3.435
 6323TIP3    H118910   6.239   5.677   3.429
 6323TIP3    H218911   6.180   5.795   3.355
 6324TIP3   OH218912   4.525   0.402   5.003
 6324TIP3    H118913   4.518   0.439   4.915
 6324TIP3    H218914   4.603   0.443   5.040
 6325TIP3   OH218915   0.234   6.033   1.030
 6325TIP3    H118916   0.264   6.090   0.960
 6325TIP3    H218917   0.155   5.992   0.995
 6326TIP3   OH218918   0.478   3.543   0.334
 6326TIP3    H118919   0.540   3.473   0.356
 6326TIP3    H218920   0.410   3.499   0.283
 6327TIP3   OH218921   7.148   2.213   4.750
 6327TIP3    H118922   7.242   2.233   4.750
 6327TIP3    H218923   7.137   2.151   4.678
 6328TIP3   OH218924   6.023   0.631   3.871
 6328TIP3    H118925   6.030   0.718   3.832
 6328TIP3    H218926   6.113   0.596   3.868
 6329TIP3   OH218927   7.813   5.819   2.419
 6329TIP3    H118928   7.823   5.845   2.327
 6329TIP3    H218929   7.869   5.880   2.467
 6330TIP3   OH218930   4.632   2.642   2.943
 6330TIP3    H118931   4.537   2.653   2.948
 6330TIP3    H218932   4.656   2.678   2.858
 6331TIP3   OH218933   4.046   3.635   1.959
 6331TIP3    H118934   4.132   3.600   1.936
 6331TIP3    H218935   4.003   3.647   1.874
 6332TIP3   OH218936   5.049   6.936   4.471
 6332TIP3    H118937   5.079   6.891   4.550
 6332TIP3    H218938   5.095   7.020   4.473
 6333TIP3   OH218939   3.045   2.576   1.480
 6333TIP3    H118940   3.110   2.526   1.529
 6333TIP3    H218941   3.070   2.564   1.388
 6334TIP3   OH218942   2.549   5.123   0.280
 6334TIP3    H118943   2.592   5.062   0.221
 6334TIP3    H218944   2.557   5.208   0.237
 6335TIP3   OH218945   7.561   1.396   2.514
 6335TIP3    H118946   7.633   1.344   2.550
 6335TIP3    H218947   7.484   1.369   2.565
 6336TIP3   OH218948   0.200   0.544   5.925
 6336TIP3    H118949   0.261   0.501   5.865
 6336TIP3    H218950   0.246   0.545   6.009
 6337TIP3   OH218951   5.773   6.411   3.913
 6337TIP3    H118952   5.810   6.496   3.887
 6337TIP3    H218953   5.679   6.422   3.902
 6338TIP3   OH218954   7.071   5.051   2.174
 6338TIP3    H118955   7.058   5.116   2.243
 6338TIP3    H218956   7.164   5.055   2.154
 6339TIP3   OH218957   0.981   7.613   0.703
 6339TIP3    H118958   1.043   7.619   0.630
 6339TIP3    H218959   1.010   7.682   0.763
 6340TIP3   OH218960   4.538   3.498   4.026
 6340TIP3    H118961   4.538   3.551   3.947
 6340TIP3    H218962   4.453   3.454   4.026
 6341TIP3   OH218963   1.195   5.162   4.710
 6341TIP3    H118964   1.259   5.144   4.642
 6341TIP3    H218965   1.126   5.097   4.697
 6342TIP3   OH218966   4.690   4.045   1.655
 6342TIP3    H118967   4.646   4.121   1.694
 6342TIP3    H218968   4.649   3.969   1.697
 6343TIP3   OH218969   0.140   1.408   4.115
 6343TIP3    H118970   0.181   1.323   4.128
 6343TIP3    H218971   0.210   1.471   4.133
 6344TIP3   OH218972   0.105   0.485   1.447
 6344TIP3    H118973   0.169   0.475   1.519
 6344TIP3    H218974   0.020   0.490   1.491
 6345TIP3   OH218975   1.805   3.229   4.373
 6345TIP3    H118976   1.787   3.323   4.371
 6345TIP3    H218977   1.752   3.192   4.302
 6346TIP3   OH218978   2.883   3.606   6.665
 6346TIP3    H118979   2.861   3.696   6.640
 6346TIP3    H218980   2.978   3.601   6.656
 6347TIP3   OH218981   8.008   4.096   2.401
 6347TIP3    H118982   8.034   4.070   2.313
 6347TIP3    H218983   8.086   4.138   2.437
 6348TIP3   OH218984   1.818   0.993   3.595
 6348TIP3    H118985   1.858   1.030   3.516
 6348TIP3    H218986   1.727   0.979   3.571
 6349TIP3   OH218987   1.276   0.218   3.510
 6349TIP3    H118988   1.194   0.258   3.480
 6349TIP3    H218989   1.268   0.216   3.605
 6350TIP3   OH218990   5.607   4.209   0.458
 6350TIP3    H118991   5.633   4.229   0.548
 6350TIP3    H218992   5.572   4.291   0.424
 6351TIP3   OH218993   5.067   0.792   4.175
 6351TIP3    H118994   5.133   0.753   4.118
 6351TIP3    H218995   5.113   0.814   4.255
 6352TIP3   OH218996   3.920   6.736   1.444
 6352TIP3    H118997   3.978   6.811   1.455
 6352TIP3    H218998   3.910   6.700   1.532
 6353TIP3   OH218999   4.981   4.172   5.849
 6353TIP3    H119000   5.017   4.191   5.935
 6353TIP3    H219001   4.976   4.077   5.845
 6354TIP3   OH219002   0.134   6.535   4.960
 6354TIP3    H119003   0.080   6.592   5.014
 6354TIP3    H219004   0.224   6.565   4.974
 6355TIP3   OH219005   1.467   5.737   2.958
 6355TIP3    H119006   1.537   5.768   2.900
 6355TIP3    H219007   1.499   5.653   2.990
 6356TIP3   OH219008   1.879   2.047   4.500
 6356TIP3    H119009   1.915   2.095   4.425
 6356TIP3    H219010   1.873   1.957   4.469
 6357TIP3   OH219011   3.895   4.943   6.474
 6357TIP3    H119012   3.950   4.866   6.464
 6357TIP3    H219013   3.957   5.015   6.487
 6358TIP3   OH219014   6.618   3.367   5.746
 6358TIP3    H119015   6.713   3.376   5.755
 6358TIP3    H219016   6.583   3.445   5.789
 6359TIP3   OH219017   6.730   2.342   6.104
 6359TIP3    H119018   6.656   2.403   6.106
 6359TIP3    H219019   6.790   2.380   6.041
 6360TIP3   OH219020   1.263   3.018   5.383
 6360TIP3    H119021   1.293   2.928   5.395
 6360TIP3    H219022   1.169   3.016   5.403
 6361TIP3   OH219023   8.407   6.788   1.680
 6361TIP3    H119024   8.382   6.762   1.769
 6361TIP3    H219025   8.414   6.706   1.632
 6362TIP3   OH219026   0.385   5.680   2.590
 6362TIP3    H119027   0.396   5.585   2.591
 6362TIP3    H219028   0.474   5.715   2.585
 6363TIP3   OH219029   5.935   2.003   0.219
 6363TIP3    H119030   5.999   2.022   0.287
 6363TIP3    H219031   5.868   2.071   0.229
 6364TIP3   OH219032   5.016   6.145   4.163
 6364TIP3    H119033   4.997   6.051   4.174
 6364TIP3    H219034   4.954   6.174   4.097
 6365TIP3   OH219035   0.772   1.401   0.466
 6365TIP3    H119036   0.828   1.477   0.481
 6365TIP3    H219037   0.822   1.345   0.407
 6366TIP3   OH219038   5.566   1.954   3.339
 6366TIP3    H119039   5.480   1.994   3.341
 6366TIP3    H219040   5.577   1.924   3.249
 6367TIP3   OH219041   7.936   1.432   5.661
 6367TIP3    H119042   7.926   1.475   5.746
 6367TIP3    H219043   7.895   1.493   5.598
 6368TIP3   OH219044   3.408   7.775   6.796
 6368TIP3    H119045   3.350   7.833   6.845
 6368TIP3    H219046   3.496   7.799   6.825
 6369TIP3   OH219047   1.567   7.190   1.109
 6369TIP3    H119048   1.548   7.197   1.203
 6369TIP3    H219049   1.613   7.271   1.088
 6370TIP3   OH219050   3.842   0.302   1.676
 6370TIP3    H119051   3.838   0.359   1.753
 6370TIP3    H219052   3.830   0.214   1.711
 6371TIP3   OH219053   5.534   0.484   6.854
 6371TIP3    H119054   5.512   0.391   6.861
 6371TIP3    H219055   5.449   0.527   6.837
 6372TIP3   OH219056   5.434   6.467   0.229
 6372TIP3    H119057   5.350   6.508   0.208
 6372TIP3    H219058   5.486   6.477   0.149
 6373TIP3   OH219059   5.300   0.607   4.171
 6373TIP3    H119060   5.385   0.564   4.166
 6373TIP3    H219061   5.238   0.535   4.183
 6374TIP3   OH219062   3.360   6.708   5.052
 6374TIP3    H119063   3.334   6.773   4.988
 6374TIP3    H219064   3.444   6.675   5.020
 6375TIP3   OH219065   6.499   1.084   6.718
 6375TIP3    H119066   6.550   1.072   6.638
 6375TIP3    H219067   6.564   1.092   6.787
 6376TIP3   OH219068   2.046   2.831   2.215
 6376TIP3    H119069   2.073   2.856   2.303
 6376TIP3    H219070   2.128   2.812   2.170
 6377TIP3   OH219071   8.283   1.869   3.496
 6377TIP3    H119072   8.356   1.813   3.522
 6377TIP3    H219073   8.295   1.881   3.402
 6378TIP3   OH219074   6.267   6.018   1.271
 6378TIP3    H119075   6.356   6.051   1.283
 6378TIP3    H219076   6.213   6.075   1.326
 6379TIP3   OH219077   1.064   2.443   5.376
 6379TIP3    H119078   1.003   2.376   5.406
 6379TIP3    H219079   1.086   2.416   5.287
 6380TIP3   OH219080   1.194   1.627   3.000
 6380TIP3    H119081   1.217   1.576   2.923
 6380TIP3    H219082   1.101   1.649   2.988
 6381TIP3   OH219083   5.290   4.108   0.020
 6381TIP3    H119084   5.262   4.141  -0.065
 6381TIP3    H219085   5.340   4.181   0.058
 6382TIP3   OH219086   4.589   4.051   4.538
 6382TIP3    H119087   4.570   4.126   4.482
 6382TIP3    H219088   4.600   3.978   4.478
 6383TIP3   OH219089   3.534   0.423   4.808
 6383TIP3    H119090   3.508   0.411   4.900
 6383TIP3    H219091   3.572   0.511   4.805
 6384TIP3   OH219092   2.193   3.353   2.339
 6384TIP3    H119093   2.148   3.281   2.384
 6384TIP3    H219094   2.125   3.397   2.289
 6385TIP3   OH219095   1.109   7.766   5.266
 6385TIP3    H119096   1.135   7.728   5.182
 6385TIP3    H219097   1.027   7.721   5.288
 6386TIP3   OH219098   0.769   2.531   6.223
 6386TIP3    H119099   0.737   2.566   6.306
 6386TIP3    H219100   0.856   2.497   6.243
 6387TIP3   OH219101   3.712   0.426   0.185
 6387TIP3    H119102   3.713   0.492   0.115
 6387TIP3    H219103   3.669   0.350   0.146
 6388TIP3   OH219104   6.758   1.308   1.540
 6388TIP3    H119105   6.770   1.374   1.609
 6388TIP3    H219106   6.675   1.331   1.500
 6389TIP3   OH219107   5.496   6.257   1.005
 6389TIP3    H119108   5.578   6.291   1.042
 6389TIP3    H219109   5.521   6.223   0.919
 6390TIP3   OH219110   8.270   4.593   5.937
 6390TIP3    H119111   8.346   4.553   5.977
 6390TIP3    H219112   8.305   4.655   5.874
 6391TIP3   OH219113   6.234   0.441   2.231
 6391TIP3    H119114   6.245   0.536   2.230
 6391TIP3    H219115   6.193   0.420   2.148
 6392TIP3   OH219116   5.047   2.811   3.977
 6392TIP3    H119117   5.007   2.730   3.947
 6392TIP3    H219118   5.110   2.834   3.909
 6393TIP3   OH219119   2.640   7.143   2.635
 6393TIP3    H119120   2.622   7.110   2.723
 6393TIP3    H219121   2.638   7.238   2.644
 6394TIP3   OH219122   5.565   6.480   2.376
 6394TIP3    H119123   5.624   6.412   2.409
 6394TIP3    H219124   5.542   6.531   2.454
 6395TIP3   OH219125   6.358   3.113   0.511
 6395TIP3    H119126   6.402   3.108   0.427
 6395TIP3    H219127   6.369   3.026   0.550
 6396TIP3   OH219128   0.697   3.337   6.369
 6396TIP3    H119129   0.784   3.305   6.345
 6396TIP3    H219130   0.643   3.258   6.372
 6397TIP3   OH219131   3.420   2.493   0.085
 6397TIP3    H119132   3.512   2.492   0.060
 6397TIP3    H219133   3.377   2.440   0.017
 6398TIP3   OH219134   7.512   3.404   3.138
 6398TIP3    H119135   7.584   3.343   3.150
 6398TIP3    H219136   7.547   3.471   3.079
 6399TIP3   OH219137   2.837   2.206   3.294
 6399TIP3    H119138   2.764   2.145   3.288
 6399TIP3    H219139   2.823   2.268   3.223
 6400TIP3   OH219140   7.670   2.003   3.186
 6400TIP3    H119141   7.711   2.083   3.151
 6400TIP3    H219142   7.696   1.934   3.124
 6401TIP3   OH219143   7.090   3.466   0.284
 6401TIP3    H119144   7.140   3.507   0.213
 6401TIP3    H219145   7.073   3.377   0.252
 6402TIP3   OH219146   6.519   3.564   6.869
 6402TIP3    H119147   6.558   3.649   6.847
 6402TIP3    H219148   6.449   3.553   6.805
 6403TIP3   OH219149   4.159   6.793   5.426
 6403TIP3    H119150   4.103   6.813   5.501
 6403TIP3    H219151   4.113   6.722   5.380
 6404TIP3   OH219152   0.461   3.747   2.632
 6404TIP3    H119153   0.512   3.746   2.713
 6404TIP3    H219154   0.515   3.700   2.568
 6405TIP3   OH219155   5.332   6.761   6.780
 6405TIP3    H119156   5.348   6.827   6.848
 6405TIP3    H219157   5.382   6.685   6.808
 6406TIP3   OH219158   8.157   1.233   5.667
 6406TIP3    H119159   8.084   1.294   5.674
 6406TIP3    H219160   8.172   1.226   5.573
 6407TIP3   OH219161   0.879   0.488   6.647
 6407TIP3    H119162   0.803   0.531   6.606
 6407TIP3    H219163   0.947   0.490   6.580
 6408TIP3   OH219164   3.144   4.137   3.142
 6408TIP3    H119165   3.095   4.056   3.158
 6408TIP3    H219166   3.179   4.162   3.228
 6409TIP3   OH219167   1.964   7.392   3.874
 6409TIP3    H119168   1.886   7.432   3.834
 6409TIP3    H219169   1.941   7.382   3.966
 6410TIP3   OH219170   1.374   3.066   0.329
 6410TIP3    H119171   1.425   3.077   0.248
 6410TIP3    H219172   1.358   3.155   0.359
 6411TIP3   OH219173   7.122   3.611   6.809
 6411TIP3    H119174   7.045   3.565   6.842
 6411TIP3    H219175   7.087   3.688   6.764
 6412TIP3   OH219176   3.210   4.565   2.066
 6412TIP3    H119177   3.238   4.476   2.091
 6412TIP3    H219178   3.283   4.600   2.015
 6413TIP3   OH219179   3.859   7.207   2.264
 6413TIP3    H119180   3.877   7.115   2.284
 6413TIP3    H219181   3.801   7.236   2.335
 6414TIP3   OH219182   0.491   6.287   5.383
 6414TIP3    H119183   0.573   6.333   5.365
 6414TIP3    H219184   0.481   6.225   5.310
 6415TIP3   OH219185   3.914   0.102   5.223
 6415TIP3    H119186   3.851   0.031   5.233
 6415TIP3    H219187   3.998   0.065   5.251
 6416TIP3   OH219188   3.723   0.952   1.756
 6416TIP3    H119189   3.768   0.993   1.682
 6416TIP3    H219190   3.645   1.006   1.769
 6417TIP3   OH219191   8.081   3.765   2.352
 6417TIP3    H119192   8.075   3.675   2.384
 6417TIP3    H219193   7.990   3.793   2.341
 6418TIP3   OH219194   4.153   4.377   0.943
 6418TIP3    H119195   4.185   4.309   1.002
 6418TIP3    H219196   4.205   4.454   0.964
 6419TIP3   OH219197   2.344   0.710   1.308
 6419TIP3    H119198   2.407   0.768   1.266
 6419TIP3    H219199   2.358   0.625   1.267
 6420TIP3   OH219200   7.326   7.777   2.066
 6420TIP3    H119201   7.343   7.715   1.995
 6420TIP3    H219202   7.411   7.818   2.083
 6421TIP3   OH219203   3.432   2.153   2.773
 6421TIP3    H119204   3.440   2.118   2.685
 6421TIP3    H219205   3.383   2.235   2.762
 6422TIP3   OH219206   0.070   5.364   0.985
 6422TIP3    H119207   0.057   5.340   0.893
 6422TIP3    H219208   0.072   5.460   0.985
 6423TIP3   OH219209   5.053   0.920   6.816
 6423TIP3    H119210   5.141   0.912   6.853
 6423TIP3    H219211   5.043   1.013   6.797
 6424TIP3   OH219212   0.178   1.981   6.872
 6424TIP3    H119213   0.261   1.937   6.891
 6424TIP3    H219214   0.127   1.916   6.824
 6425TIP3   OH219215   3.044   4.163   1.726
 6425TIP3    H119216   2.993   4.195   1.652
 6425TIP3    H219217   3.073   4.242   1.771
 6426TIP3   OH219218   6.002   1.790   6.284
 6426TIP3    H119219   6.090   1.756   6.271
 6426TIP3    H219220   5.954   1.764   6.206
 6427TIP3   OH219221   6.169   6.050   3.065
 6427TIP3    H119222   6.259   6.081   3.051
 6427TIP3    H219223   6.129   6.052   2.978
 6428TIP3   OH219224   6.781   3.010   0.916
 6428TIP3    H119225   6.714   3.071   0.885
 6428TIP3    H219226   6.753   2.925   0.882
 6429TIP3   OH219227   0.867   3.004   0.687
 6429TIP3    H119228   0.917   2.979   0.609
 6429TIP3    H219229   0.874   3.100   0.690
 6430TIP3   OH219230   1.125   1.351   2.542
 6430TIP3    H119231   1.096   1.371   2.453
 6430TIP3    H219232   1.103   1.258   2.554
 6431TIP3   OH219233   0.870   4.223   1.289
 6431TIP3    H119234   0.965   4.238   1.290
 6431TIP3    H219235   0.832   4.310   1.304
 6432TIP3   OH219236   2.707   6.068   6.415
 6432TIP3    H119237   2.715   6.138   6.479
 6432TIP3    H219238   2.638   6.011   6.450
 6433TIP3   OH219239   6.175   0.587   2.592
 6433TIP3    H119240   6.244   0.654   2.598
 6433TIP3    H219241   6.157   0.564   2.683
 6434TIP3   OH219242   2.182   5.810   3.751
 6434TIP3    H119243   2.135   5.815   3.667
 6434TIP3    H219244   2.270   5.781   3.728
 6435TIP3   OH219245   1.529   1.576   4.179
 6435TIP3    H119246   1.613   1.574   4.134
 6435TIP3    H219247   1.547   1.614   4.264
 6436TIP3   OH219248   8.236   0.364   6.758
 6436TIP3    H119249   8.239   0.429   6.829
 6436TIP3    H219250   8.153   0.382   6.713
 6437TIP3   OH219251   4.114   6.866   5.724
 6437TIP3    H119252   4.044   6.806   5.698
 6437TIP3    H219253   4.161   6.819   5.793
 6438TIP3   OH219254   3.525   7.264   5.204
 6438TIP3    H119255   3.495   7.352   5.226
 6438TIP3    H219256   3.597   7.247   5.265
 6439TIP3   OH219257   5.044   5.371   0.397
 6439TIP3    H119258   5.116   5.309   0.406
 6439TIP3    H219259   5.078   5.441   0.342
 6440TIP3   OH219260   7.736   1.267   6.620
 6440TIP3    H119261   7.699   1.265   6.532
 6440TIP3    H219262   7.662   1.289   6.676
 6441TIP3   OH219263   7.354   4.013   4.492
 6441TIP3    H119264   7.330   4.045   4.579
 6441TIP3    H219265   7.396   3.928   4.509
 6442TIP3   OH219266   6.648   1.498   3.497
 6442TIP3    H119267   6.738   1.532   3.501
 6442TIP3    H219268   6.594   1.569   3.531
 6443TIP3   OH219269   3.530   0.553   6.886
 6443TIP3    H119270   3.598   0.614   6.856
 6443TIP3    H219271   3.495   0.515   6.806
 6444TIP3   OH219272   4.119   2.600   2.145
 6444TIP3    H119273   4.095   2.693   2.148
 6444TIP3    H219274   4.044   2.555   2.182
 6445TIP3   OH219275   7.818   2.255   1.304
 6445TIP3    H119276   7.846   2.174   1.261
 6445TIP3    H219277   7.747   2.288   1.249
 6446TIP3   OH219278   2.884   6.844   4.753
 6446TIP3    H119279   2.949   6.894   4.802
 6446TIP3    H219280   2.922   6.756   4.746
 6447TIP3   OH219281   5.382   3.168   3.015
 6447TIP3    H119282   5.370   3.090   2.961
 6447TIP3    H219283   5.294   3.195   3.039
 6448TIP3   OH219284   1.272   5.430   6.668
 6448TIP3    H119285   1.194   5.373   6.669
 6448TIP3    H219286   1.340   5.377   6.709
 6449TIP3   OH219287   4.381   1.553   1.638
 6449TIP3    H119288   4.459   1.596   1.603
 6449TIP3    H219289   4.415   1.494   1.706
 6450TIP3   OH219290   7.517   4.980   2.679
 6450TIP3    H119291   7.479   5.039   2.614
 6450TIP3    H219292   7.468   4.998   2.759
 6451TIP3   OH219293   1.975   4.326   1.096
 6451TIP3    H119294   2.060   4.281   1.097
 6451TIP3    H219295   1.911   4.256   1.114
 6452TIP3   OH219296   1.787   1.159   3.083
 6452TIP3    H119297   1.705   1.166   3.131
 6452TIP3    H219298   1.827   1.246   3.091
 6453TIP3   OH219299   6.625   2.217   4.965
 6453TIP3    H119300   6.641   2.301   4.923
 6453TIP3    H219301   6.628   2.153   4.894
 6454TIP3   OH219302   4.019   7.584   3.937
 6454TIP3    H119303   3.956   7.512   3.941
 6454TIP3    H219304   4.105   7.542   3.945
 6455TIP3   OH219305   0.310   4.570   1.299
 6455TIP3    H119306   0.239   4.591   1.240
 6455TIP3    H219307   0.281   4.603   1.384
 6456TIP3   OH219308   0.044   2.042   2.396
 6456TIP3    H119309   0.066   2.012   2.307
 6456TIP3    H219310   0.042   2.138   2.389
 6457TIP3   OH219311   1.993   3.024   3.241
 6457TIP3    H119312   2.025   3.046   3.329
 6457TIP3    H219313   1.939   3.098   3.216
 6458TIP3   OH219314   5.017   5.290   2.647
 6458TIP3    H119315   5.098   5.249   2.678
 6458TIP3    H219316   5.017   5.276   2.553
 6459TIP3   OH219317   2.151   4.165   4.114
 6459TIP3    H119318   2.147   4.135   4.205
 6459TIP3    H219319   2.065   4.205   4.099
 6460TIP3   OH219320   6.876   2.688   2.313
 6460TIP3    H119321   6.956   2.739   2.300
 6460TIP3    H219322   6.824   2.741   2.374
 6461TIP3   OH219323   6.103   3.823   3.017
 6461TIP3    H119324   6.144   3.873   3.087
 6461TIP3    H219325   6.014   3.806   3.049
 6462TIP3   OH219326   2.970   5.950   4.866
 6462TIP3    H119327   2.914   5.884   4.824
 6462TIP3    H219328   2.933   6.034   4.839
 6463TIP3   OH219329   2.615   5.128   5.519
 6463TIP3    H119330   2.608   5.041   5.557
 6463TIP3    H219331   2.636   5.112   5.427
 6464TIP3   OH219332   7.096   0.175   0.470
 6464TIP3    H119333   7.151   0.182   0.392
 6464TIP3    H219334   7.142   0.227   0.537
 6465TIP3   OH219335   2.310   0.508   6.298
 6465TIP3    H119336   2.358   0.508   6.381
 6465TIP3    H219337   2.372   0.471   6.235
 6466TIP3   OH219338   3.669   7.259   5.637
 6466TIP3    H119339   3.623   7.337   5.608
 6466TIP3    H219340   3.666   7.263   5.733
 6467TIP3   OH219341   0.377   5.012   4.300
 6467TIP3    H119342   0.431   4.987   4.225
 6467TIP3    H219343   0.407   5.100   4.324
 6468TIP3   OH219344   6.325   0.814   2.622
 6468TIP3    H119345   6.247   0.842   2.669
 6468TIP3    H219346   6.326   0.868   2.542
 6469TIP3   OH219347   7.596   4.320   2.749
 6469TIP3    H119348   7.600   4.227   2.728
 6469TIP3    H219349   7.604   4.323   2.845
 6470TIP3   OH219350   7.986   2.948   5.217
 6470TIP3    H119351   7.963   2.865   5.260
 6470TIP3    H219352   7.918   3.009   5.246
 6471TIP3   OH219353   1.593   6.175   3.581
 6471TIP3    H119354   1.500   6.199   3.575
 6471TIP3    H219355   1.596   6.108   3.650
 6472TIP3   OH219356   5.087   6.618   1.559
 6472TIP3    H119357   5.159   6.558   1.539
 6472TIP3    H219358   5.099   6.641   1.651
 6473TIP3   OH219359   3.768   2.639   5.155
 6473TIP3    H119360   3.843   2.606   5.205
 6473TIP3    H219361   3.750   2.570   5.091
 6474TIP3   OH219362   6.848   0.245   3.230
 6474TIP3    H119363   6.759   0.277   3.239
 6474TIP3    H219364   6.871   0.264   3.139
 6475TIP3   OH219365   4.777   7.719   4.721
 6475TIP3    H119366   4.735   7.646   4.766
 6475TIP3    H219367   4.706   7.763   4.674
 6476TIP3   OH219368   3.576   2.923   3.941
 6476TIP3    H119369   3.671   2.921   3.953
 6476TIP3    H219370   3.552   3.015   3.956
 6477TIP3   OH219371   4.069   5.167  -0.002
 6477TIP3    H119372   3.988   5.166   0.050
 6477TIP3    H219373   4.100   5.257   0.004
 6478TIP3   OH219374   5.773   2.774   3.523
 6478TIP3    H119375   5.803   2.697   3.573
 6478TIP3    H219376   5.811   2.848   3.570
 6479TIP3   OH219377   7.784   0.232   1.459
 6479TIP3    H119378   7.699   0.198   1.489
 6479TIP3    H219379   7.830   0.156   1.425
 6480TIP3   OH219380   6.780   6.008   6.854
 6480TIP3    H119381   6.709   6.012   6.918
 6480TIP3    H219382   6.754   5.940   6.793
 6481TIP3   OH219383   2.481   3.118   2.794
 6481TIP3    H119384   2.454   3.154   2.710
 6481TIP3    H219385   2.571   3.149   2.805
 6482TIP3   OH219386   4.721   3.905   2.985
 6482TIP3    H119387   4.647   3.845   2.993
 6482TIP3    H219388   4.746   3.899   2.893
 6483TIP3   OH219389   5.771   2.834   3.935
 6483TIP3    H119390   5.741   2.902   3.875
 6483TIP3    H219391   5.826   2.879   3.999
 6484TIP3   OH219392   3.934   5.458   2.906
 6484TIP3    H119393   3.942   5.376   2.858
 6484TIP3    H219394   3.869   5.509   2.856
 6485TIP3   OH219395   6.617   3.368   0.020
 6485TIP3    H119396   6.713   3.370   0.011
 6485TIP3    H219397   6.595   3.451   0.061
 6486TIP3   OH219398   0.755   1.214   0.232
 6486TIP3    H119399   0.714   1.153   0.293
 6486TIP3    H219400   0.803   1.159   0.171
 6487TIP3   OH219401   1.966   5.152   1.305
 6487TIP3    H119402   1.906   5.078   1.300
 6487TIP3    H219403   1.925   5.211   1.369
 6488TIP3   OH219404   7.358   1.990   1.831
 6488TIP3    H119405   7.322   1.937   1.760
 6488TIP3    H219406   7.304   1.968   1.907
 6489TIP3   OH219407   6.679   2.871   2.174
 6489TIP3    H119408   6.679   2.795   2.116
 6489TIP3    H219409   6.770   2.898   2.178
 6490TIP3   OH219410   3.460   0.503   3.232
 6490TIP3    H119411   3.546   0.512   3.275
 6490TIP3    H219412   3.478   0.516   3.139
 6491TIP3   OH219413   3.380   5.720   0.381
 6491TIP3    H119414   3.348   5.647   0.328
 6491TIP3    H219415   3.305   5.747   0.433
 6492TIP3   OH219416   5.352   2.677   6.807
 6492TIP3    H119417   5.370   2.723   6.889
 6492TIP3    H219418   5.299   2.602   6.833
 6493TIP3   OH219419   0.084   5.218   1.311
 6493TIP3    H119420   0.103   5.302   1.353
 6493TIP3    H219421   0.169   5.182   1.287
 6494TIP3   OH219422   2.663   3.157   5.011
 6494TIP3    H119423   2.648   3.229   5.072
 6494TIP3    H219424   2.692   3.085   5.066
 6495TIP3   OH219425   2.675   4.028   0.901
 6495TIP3    H119426   2.634   4.002   0.819
 6495TIP3    H219427   2.694   4.122   0.889
 6496TIP3   OH219428   4.983   1.443   5.031
 6496TIP3    H119429   4.980   1.533   5.063
 6496TIP3    H219430   4.984   1.452   4.935
 6497TIP3   OH219431   7.082   6.513   0.319
 6497TIP3    H119432   7.109   6.600   0.288
 6497TIP3    H219433   7.133   6.452   0.267
 6498TIP3   OH219434   6.677   5.891   5.998
 6498TIP3    H119435   6.675   5.955   6.070
 6498TIP3    H219436   6.669   5.806   6.042
 6499TIP3   OH219437   4.275   1.425   0.138
 6499TIP3    H119438   4.289   1.337   0.101
 6499TIP3    H219439   4.270   1.482   0.062
 6500TIP3   OH219440   5.867   6.614   0.640
 6500TIP3    H119441   5.832   6.528   0.615
 6500TIP3    H219442   5.955   6.596   0.674
 6501TIP3   OH219443   8.212   6.184   0.910
 6501TIP3    H119444   8.244   6.169   0.999
 6501TIP3    H219445   8.151   6.257   0.918
 6502TIP3   OH219446   4.341   4.219   5.900
 6502TIP3    H119447   4.436   4.213   5.899
 6502TIP3    H219448   4.311   4.135   5.865
 6503TIP3   OH219449   2.293   5.886   1.583
 6503TIP3    H119450   2.320   5.966   1.537
 6503TIP3    H219451   2.372   5.858   1.630
 6504TIP3   OH219452   5.631   6.496   2.837
 6504TIP3    H119453   5.538   6.485   2.860
 6504TIP3    H219454   5.658   6.574   2.886
 6505TIP3   OH219455   6.771   5.718   3.618
 6505TIP3    H119456   6.817   5.784   3.670
 6505TIP3    H219457   6.680   5.746   3.616
 6506TIP3   OH219458   6.152   6.692   1.675
 6506TIP3    H119459   6.072   6.743   1.656
 6506TIP3    H219460   6.181   6.726   1.760
 6507TIP3   OH219461   1.304   4.855   2.805
 6507TIP3    H119462   1.296   4.837   2.899
 6507TIP3    H219463   1.237   4.802   2.764
 6508TIP3   OH219464   3.072   2.362   0.312
 6508TIP3    H119465   3.013   2.351   0.237
 6508TIP3    H219466   3.018   2.345   0.388
 6509TIP3   OH219467   7.454   1.622   5.897
 6509TIP3    H119468   7.456   1.574   5.980
 6509TIP3    H219469   7.461   1.554   5.830
 6510TIP3   OH219470   2.111   0.474   6.557
 6510TIP3    H119471   2.126   0.513   6.471
 6510TIP3    H219472   2.019   0.450   6.558
 6511TIP3   OH219473   1.544   6.371   0.352
 6511TIP3    H119474   1.538   6.402   0.442
 6511TIP3    H219475   1.497   6.287   0.352
 6512TIP3   OH219476   0.198   1.979   5.274
 6512TIP3    H119477   0.108   1.946   5.270
 6512TIP3    H219478   0.252   1.904   5.250
 6513TIP3   OH219479   0.147   1.578   4.861
 6513TIP3    H119480   0.223   1.634   4.875
 6513TIP3    H219481   0.169   1.496   4.904
 6514TIP3   OH219482   0.994   7.391   0.414
 6514TIP3    H119483   0.972   7.352   0.498
 6514TIP3    H219484   1.088   7.409   0.419
 6515TIP3   OH219485   7.497   2.935   4.492
 6515TIP3    H119486   7.516   2.987   4.570
 6515TIP3    H219487   7.583   2.904   4.463
 6516TIP3   OH219488   5.464   4.626   1.057
 6516TIP3    H119489   5.376   4.631   1.095
 6516TIP3    H219490   5.455   4.567   0.983
 6517TIP3   OH219491   5.060   6.639   0.747
 6517TIP3    H119492   5.032   6.688   0.824
 6517TIP3    H219493   5.116   6.570   0.782
 6518TIP3   OH219494   0.052   0.707   0.947
 6518TIP3    H119495   0.035   0.616   0.970
 6518TIP3    H219496  -0.026   0.755   0.977
 6519TIP3   OH219497   8.347   3.049   1.663
 6519TIP3    H119498   8.357   3.127   1.717
 6519TIP3    H219499   8.426   3.046   1.610
 6520TIP3   OH219500   5.801   3.324   6.577
 6520TIP3    H119501   5.725   3.344   6.522
 6520TIP3    H219502   5.764   3.286   6.656
 6521TIP3   OH219503   2.411   7.535   5.183
 6521TIP3    H119504   2.464   7.530   5.263
 6521TIP3    H219505   2.475   7.531   5.112
 6522TIP3   OH219506   5.658   6.405   6.330
 6522TIP3    H119507   5.659   6.493   6.293
 6522TIP3    H219508   5.729   6.359   6.286
 6523TIP3   OH219509   3.032   5.229   2.322
 6523TIP3    H119510   3.009   5.200   2.410
 6523TIP3    H219511   3.078   5.155   2.283
 6524TIP3   OH219512   2.231   0.256   2.956
 6524TIP3    H119513   2.185   0.313   3.017
 6524TIP3    H219514   2.242   0.174   3.004
 6525TIP3   OH219515   5.943   7.753   1.215
 6525TIP3    H119516   5.942   7.833   1.267
 6525TIP3    H219517   5.987   7.777   1.134
 6526TIP3   OH219518   3.528   2.117   0.070
 6526TIP3    H119519   3.434   2.133   0.065
 6526TIP3    H219520   3.552   2.088  -0.018
 6527TIP3   OH219521   5.078   0.807   2.478
 6527TIP3    H119522   5.054   0.735   2.536
 6527TIP3    H219523   4.994   0.844   2.450
 6528TIP3   OH219524   6.529   7.331   1.209
 6528TIP3    H119525   6.508   7.408   1.261
 6528TIP3    H219526   6.486   7.346   1.125
 6529TIP3   OH219527   4.755   3.764   2.335
 6529TIP3    H119528   4.742   3.843   2.388
 6529TIP3    H219529   4.844   3.736   2.357
 6530TIP3   OH219530   0.560   7.305   2.978
 6530TIP3    H119531   0.493   7.282   3.043
 6530TIP3    H219532   0.639   7.261   3.009
 6531TIP3   OH219533   2.528   0.745   4.925
 6531TIP3    H119534   2.559   0.678   4.986
 6531TIP3    H219535   2.549   0.828   4.969
 6532TIP3   OH219536   0.732   4.523   0.025
 6532TIP3    H119537   0.637   4.537   0.027
 6532TIP3    H219538   0.744   4.452  -0.039
 6533TIP3   OH219539   8.374   0.155   4.358
 6533TIP3    H119540   8.332   0.122   4.279
 6533TIP3    H219541   8.336   0.242   4.371
 6534TIP3   OH219542   3.846   0.860   6.037
 6534TIP3    H119543   3.821   0.873   5.946
 6534TIP3    H219544   3.920   0.919   6.051
 6535TIP3   OH219545   5.655   3.737   5.376
 6535TIP3    H119546   5.637   3.825   5.342
 6535TIP3    H219547   5.568   3.697   5.385
 6536TIP3   OH219548   0.750   6.710   3.851
 6536TIP3    H119549   0.775   6.794   3.891
 6536TIP3    H219550   0.794   6.710   3.766
 6537TIP3   OH219551   5.857   3.222   0.703
 6537TIP3    H119552   5.943   3.188   0.727
 6537TIP3    H219553   5.871   3.315   0.687
 6538TIP3   OH219554   2.498   2.571   0.830
 6538TIP3    H119555   2.500   2.644   0.768
 6538TIP3    H219556   2.520   2.494   0.777
 6539TIP3   OH219557   7.087   5.064   3.743
 6539TIP3    H119558   7.182   5.070   3.753
 6539TIP3    H219559   7.054   5.055   3.832
 6540TIP3   OH219560   6.640   1.549   4.869
 6540TIP3    H119561   6.679   1.636   4.875
 6540TIP3    H219562   6.713   1.489   4.888
 6541TIP3   OH219563   6.866   5.781   1.776
 6541TIP3    H119564   6.845   5.866   1.814
 6541TIP3    H219565   6.962   5.778   1.777
 6542TIP3   OH219566   5.084   5.458   4.837
 6542TIP3    H119567   5.162   5.436   4.887
 6542TIP3    H219568   5.048   5.535   4.880
 6543TIP3   OH219569   8.340   7.771   1.905
 6543TIP3    H119570   8.390   7.690   1.903
 6543TIP3    H219571   8.376   7.823   1.832
 6544TIP3   OH219572   5.548   3.953   4.503
 6544TIP3    H119573   5.579   3.963   4.413
 6544TIP3    H219574   5.628   3.959   4.556
 6545TIP3   OH219575   0.361   4.814   0.104
 6545TIP3    H119576   0.300   4.822   0.177
 6545TIP3    H219577   0.409   4.897   0.104
 6546TIP3   OH219578   1.779   5.321   4.908
 6546TIP3    H119579   1.810   5.286   4.825
 6546TIP3    H219580   1.761   5.414   4.890
 6547TIP3   OH219581   2.103   0.980   1.181
 6547TIP3    H119582   2.034   1.041   1.156
 6547TIP3    H219583   2.063   0.893   1.170
 6548TIP3   OH219584   2.996  -0.017   3.476
 6548TIP3    H119585   2.919   0.037   3.497
 6548TIP3    H219586   3.045   0.035   3.412
 6549TIP3   OH219587   7.533   7.088   6.709
 6549TIP3    H119588   7.550   7.130   6.793
 6549TIP3    H219589   7.494   7.156   6.655
 6550TIP3   OH219590   7.231   6.173   3.155
 6550TIP3    H119591   7.263   6.088   3.186
 6550TIP3    H219592   7.236   6.230   3.232
 6551TIP3   OH219593   2.325   5.678   0.867
 6551TIP3    H119594   2.373   5.758   0.888
 6551TIP3    H219595   2.355   5.655   0.779
 6552TIP3   OH219596   6.142   0.364   3.469
 6552TIP3    H119597   6.059   0.337   3.430
 6552TIP3    H219598   6.130   0.457   3.488
 6553TIP3   OH219599   7.215   6.314   0.181
 6553TIP3    H119600   7.310   6.304   0.176
 6553TIP3    H219601   7.184   6.292   0.093
 6554TIP3   OH219602   8.047   3.252   5.846
 6554TIP3    H119603   8.068   3.341   5.819
 6554TIP3    H219604   8.108   3.197   5.797
 6555TIP3   OH219605   5.935   3.823   3.602
 6555TIP3    H119606   5.898   3.908   3.626
 6555TIP3    H219607   5.991   3.799   3.675
 6556TIP3   OH219608   4.703   0.119   3.153
 6556TIP3    H119609   4.628   0.066   3.182
 6556TIP3    H219610   4.774   0.056   3.142
 6557TIP3   OH219611   5.088   6.629   4.105
 6557TIP3    H119612   5.134   6.637   4.189
 6557TIP3    H219613   4.995   6.622   4.129
 6558TIP3   OH219614   8.344   1.235   0.392
 6558TIP3    H119615   8.379   1.323   0.381
 6558TIP3    H219616   8.257   1.238   0.351
 6559TIP3   OH219617   1.049   2.317   1.165
 6559TIP3    H119618   1.069   2.389   1.105
 6559TIP3    H219619   1.086   2.239   1.122
 6560TIP3   OH219620   6.910   5.269   3.305
 6560TIP3    H119621   6.914   5.174   3.291
 6560TIP3    H219622   6.901   5.306   3.217
 6561TIP3   OH219623   7.154   2.221   5.617
 6561TIP3    H119624   7.092   2.150   5.600
 6561TIP3    H219625   7.108   2.300   5.591
 6562TIP3   OH219626   2.832   7.219   5.622
 6562TIP3    H119627   2.829   7.301   5.673
 6562TIP3    H219628   2.855   7.152   5.687
 6563TIP3   OH219629   3.580   3.474   1.323
 6563TIP3    H119630   3.534   3.500   1.243
 6563TIP3    H219631   3.511   3.474   1.390
 6564TIP3   OH219632   6.705   0.696   3.330
 6564TIP3    H119633   6.792   0.737   3.331
 6564TIP3    H219634   6.645   0.768   3.312
 6565TIP3   OH219635   1.217   0.033   6.874
 6565TIP3    H119636   1.159   0.021   6.799
 6565TIP3    H219637   1.265  -0.049   6.880
 6566TIP3   OH219638   7.140   4.330   4.055
 6566TIP3    H119639   7.077   4.402   4.047
 6566TIP3    H219640   7.166   4.332   4.147
 6567TIP3   OH219641   0.540   0.974   4.832
 6567TIP3    H119642   0.589   0.949   4.911
 6567TIP3    H219643   0.536   1.069   4.836
 6568TIP3   OH219644   2.000   0.937   0.363
 6568TIP3    H119645   2.087   0.975   0.369
 6568TIP3    H219646   1.963   0.973   0.283
 6569TIP3   OH219647   6.452   7.593   3.868
 6569TIP3    H119648   6.420   7.676   3.904
 6569TIP3    H219649   6.376   7.556   3.823
 6570TIP3   OH219650   8.267   0.413   4.400
 6570TIP3    H119651   8.195   0.459   4.358
 6570TIP3    H219652   8.248   0.419   4.494
 6571TIP3   OH219653   3.075   0.272   6.584
 6571TIP3    H119654   2.992   0.302   6.546
 6571TIP3    H219655   3.104   0.202   6.525
 6572TIP3   OH219656   7.187   3.223   1.102
 6572TIP3    H119657   7.100   3.206   1.066
 6572TIP3    H219658   7.215   3.139   1.139
 6573TIP3   OH219659   3.530   3.312   4.696
 6573TIP3    H119660   3.459   3.298   4.759
 6573TIP3    H219661   3.575   3.390   4.729
 6574TIP3   OH219662   3.335   3.882   0.622
 6574TIP3    H119663   3.284   3.810   0.583
 6574TIP3    H219664   3.369   3.845   0.704
 6575TIP3   OH219665   2.381   1.506   2.145
 6575TIP3    H119666   2.473   1.513   2.120
 6575TIP3    H219667   2.346   1.594   2.134
 6576TIP3   OH219668   4.800   3.952   3.494
 6576TIP3    H119669   4.714   3.911   3.493
 6576TIP3    H219670   4.832   3.939   3.583
 6577TIP3   OH219671   0.783   7.207   0.340
 6577TIP3    H119672   0.855   7.224   0.401
 6577TIP3    H219673   0.756   7.294   0.310
 6578TIP3   OH219674   4.134   2.422   3.722
 6578TIP3    H119675   4.061   2.428   3.660
 6578TIP3    H219676   4.206   2.386   3.670
 6579TIP3   OH219677   3.886   4.932   1.329
 6579TIP3    H119678   3.973   4.949   1.366
 6579TIP3    H219679   3.852   5.019   1.308
 6580TIP3   OH219680   4.694   1.086   3.886
 6580TIP3    H119681   4.761   1.041   3.937
 6580TIP3    H219682   4.619   1.092   3.945
 6581TIP3   OH219683   4.466   0.841   2.868
 6581TIP3    H119684   4.386   0.818   2.915
 6581TIP3    H219685   4.442   0.836   2.776
 6582TIP3   OH219686   1.587   0.870   5.551
 6582TIP3    H119687   1.628   0.828   5.475
 6582TIP3    H219688   1.594   0.964   5.534
 6583TIP3   OH219689   0.175   6.646   4.656
 6583TIP3    H119690   0.146   6.570   4.707
 6583TIP3    H219691   0.116   6.647   4.580
 6584TIP3   OH219692   7.384   1.871   4.779
 6584TIP3    H119693   7.459   1.928   4.764
 6584TIP3    H219694   7.421   1.789   4.811
 6585TIP3   OH219695   5.287   6.066   5.472
 6585TIP3    H119696   5.262   6.126   5.401
 6585TIP3    H219697   5.317   6.123   5.542
 6586TIP3   OH219698   8.158   6.780   4.780
 6586TIP3    H119699   8.242   6.735   4.768
 6586TIP3    H219700   8.143   6.778   4.874
 6587TIP3   OH219701   7.053   0.891   4.847
 6587TIP3    H119702   7.008   0.933   4.774
 6587TIP3    H219703   7.118   0.954   4.875
 6588TIP3   OH219704   0.603   1.128   1.616
 6588TIP3    H119705   0.572   1.106   1.703
 6588TIP3    H219706   0.697   1.141   1.626
 6589TIP3   OH219707   4.037   1.928   2.207
 6589TIP3    H119708   4.010   1.850   2.157
 6589TIP3    H219709   4.067   1.989   2.140
 6590TIP3   OH219710   2.064   1.099   6.383
 6590TIP3    H119711   2.085   1.173   6.440
 6590TIP3    H219712   2.013   1.137   6.312
 6591TIP3   OH219713   6.902   6.289   0.350
 6591TIP3    H119714   6.910   6.243   0.267
 6591TIP3    H219715   6.933   6.378   0.331
 6592TIP3   OH219716   1.617   2.162   4.444
 6592TIP3    H119717   1.701   2.126   4.473
 6592TIP3    H219718   1.627   2.174   4.349
 6593TIP3   OH219719   7.168   4.024   3.147
 6593TIP3    H119720   7.091   4.080   3.150
 6593TIP3    H219721   7.234   4.075   3.101
 6594TIP3   OH219722   8.197   0.299   4.872
 6594TIP3    H119723   8.110   0.268   4.896
 6594TIP3    H219724   8.235   0.329   4.955
 6595TIP3   OH219725   5.856   4.551   6.812
 6595TIP3    H119726   5.799   4.496   6.867
 6595TIP3    H219727   5.818   4.543   6.724
 6596TIP3   OH219728   2.322   7.489   0.325
 6596TIP3    H119729   2.390   7.513   0.262
 6596TIP3    H219730   2.323   7.393   0.326
 6597TIP3   OH219731   3.872   3.060   4.500
 6597TIP3    H119732   3.929   3.007   4.556
 6597TIP3    H219733   3.832   2.997   4.440
 6598TIP3   OH219734   6.637   6.073   0.273
 6598TIP3    H119735   6.571   6.013   0.240
 6598TIP3    H219736   6.706   6.073   0.206
 6599TIP3   OH219737   4.237   6.075   3.233
 6599TIP3    H119738   4.256   6.148   3.174
 6599TIP3    H219739   4.141   6.068   3.233
 6600TIP3   OH219740   2.374   2.184   0.034
 6600TIP3    H119741   2.420   2.265   0.059
 6600TIP3    H219742   2.412   2.117   0.091
 6601TIP3   OH219743   4.085   4.583   0.385
 6601TIP3    H119744   4.091   4.649   0.454
 6601TIP3    H219745   4.026   4.517   0.421
 6602TIP3   OH219746   0.842   4.558   3.699
 6602TIP3    H119747   0.917   4.612   3.721
 6602TIP3    H219748   0.783   4.616   3.651
 6603TIP3   OH219749   6.311   6.837   5.628
 6603TIP3    H119750   6.290   6.831   5.721
 6603TIP3    H219751   6.323   6.930   5.611
 6604TIP3   OH219752   5.963   5.833   0.302
 6604TIP3    H119753   5.990   5.925   0.306
 6604TIP3    H219754   6.003   5.800   0.221
 6605TIP3   OH219755   1.812   2.045   2.085
 6605TIP3    H119756   1.818   1.950   2.081
 6605TIP3    H219757   1.900   2.076   2.064
 6606TIP3   OH219758   4.302   7.554   1.632
 6606TIP3    H119759   4.303   7.539   1.537
 6606TIP3    H219760   4.276   7.470   1.669
 6607TIP3   OH219761   5.035   7.192   2.581
 6607TIP3    H119762   5.065   7.118   2.634
 6607TIP3    H219763   5.115   7.240   2.558
 6608TIP3   OH219764   3.203   2.673   6.465
 6608TIP3    H119765   3.149   2.710   6.534
 6608TIP3    H219766   3.293   2.687   6.494
 6609TIP3   OH219767   2.482   6.818   2.000
 6609TIP3    H119768   2.537   6.893   2.020
 6609TIP3    H219769   2.393   6.854   1.994
 6610TIP3   OH219770   0.480   5.983   6.500
 6610TIP3    H119771   0.432   6.063   6.479
 6610TIP3    H219772   0.540   5.971   6.427
 6611TIP3   OH219773   3.799   6.080   5.527
 6611TIP3    H119774   3.710   6.077   5.493
 6611TIP3    H219775   3.820   6.174   5.531
 6612TIP3   OH219776   3.425   6.228   2.370
 6612TIP3    H119777   3.438   6.225   2.275
 6612TIP3    H219778   3.513   6.247   2.405
 6613TIP3   OH219779   5.751   1.189   5.926
 6613TIP3    H119780   5.726   1.229   6.009
 6613TIP3    H219781   5.694   1.112   5.918
 6614TIP3   OH219782   4.752   4.685   2.087
 6614TIP3    H119783   4.691   4.731   2.144
 6614TIP3    H219784   4.754   4.595   2.120
 6615TIP3   OH219785   7.573   6.205   6.649
 6615TIP3    H119786   7.638   6.271   6.671
 6615TIP3    H219787   7.491   6.254   6.640
 6616TIP3   OH219788   5.114   7.243   3.070
 6616TIP3    H119789   5.101   7.148   3.078
 6616TIP3    H219790   5.086   7.262   2.980
 6617TIP3   OH219791   5.693   6.823   1.825
 6617TIP3    H119792   5.713   6.747   1.771
 6617TIP3    H219793   5.658   6.888   1.764
 6618TIP3   OH219794   8.327   4.089   4.923
 6618TIP3    H119795   8.258   4.116   4.984
 6618TIP3    H219796   8.405   4.079   4.977
 6619TIP3   OH219797   7.995   6.620   0.334
 6619TIP3    H119798   8.025   6.579   0.416
 6619TIP3    H219799   8.064   6.683   0.313
 6620TIP3   OH219800   0.200   0.690   1.272
 6620TIP3    H119801   0.140   0.752   1.314
 6620TIP3    H219802   0.172   0.604   1.303
 6621TIP3   OH219803   1.121   7.763   1.522
 6621TIP3    H119804   1.124   7.763   1.618
 6621TIP3    H219805   1.212   7.750   1.495
 6622TIP3   OH219806   2.506   4.893   1.487
 6622TIP3    H119807   2.493   4.976   1.442
 6622TIP3    H219808   2.422   4.847   1.476
 6623TIP3   OH219809   3.359   6.366   1.049
 6623TIP3    H119810   3.447   6.402   1.043
 6623TIP3    H219811   3.369   6.274   1.026
 6624TIP3   OH219812   6.109   4.169   6.188
 6624TIP3    H119813   6.019   4.142   6.173
 6624TIP3    H219814   6.124   4.152   6.281
 6625TIP3   OH219815   2.796   1.609   2.597
 6625TIP3    H119816   2.790   1.700   2.625
 6625TIP3    H219817   2.725   1.598   2.534
 6626TIP3   OH219818   1.017   0.001   5.045
 6626TIP3    H119819   1.075   0.070   5.078
 6626TIP3    H219820   1.004   0.023   4.953
 6627TIP3   OH219821   8.369   4.525   2.881
 6627TIP3    H119822   8.432   4.465   2.842
 6627TIP3    H219823   8.296   4.469   2.907
 6628TIP3   OH219824   7.148   1.212   3.494
 6628TIP3    H119825   7.102   1.286   3.533
 6628TIP3    H219826   7.109   1.202   3.408
 6629TIP3   OH219827   0.255   2.923   2.107
 6629TIP3    H119828   0.171   2.879   2.092
 6629TIP3    H219829   0.320   2.869   2.062
 6630TIP3   OH219830   0.148   5.982   1.295
 6630TIP3    H119831   0.108   6.064   1.325
 6630TIP3    H219832   0.178   6.001   1.206
 6631TIP3   OH219833   6.672   6.834   4.847
 6631TIP3    H119834   6.659   6.918   4.890
 6631TIP3    H219835   6.663   6.769   4.917
 6632TIP3   OH219836   1.763   5.361   1.414
 6632TIP3    H119837   1.736   5.357   1.322
 6632TIP3    H219838   1.682   5.344   1.463
 6633TIP3   OH219839   0.930   3.480   6.078
 6633TIP3    H119840   1.001   3.541   6.058
 6633TIP3    H219841   0.951   3.445   6.164
 6634TIP3   OH219842   4.817   1.302   1.989
 6634TIP3    H119843   4.830   1.242   1.915
 6634TIP3    H219844   4.752   1.258   2.044
 6635TIP3   OH219845   3.402   4.895   4.599
 6635TIP3    H119846   3.417   4.910   4.692
 6635TIP3    H219847   3.359   4.976   4.569
 6636TIP3   OH219848   3.378   0.973   1.011
 6636TIP3    H119849   3.295   1.021   1.007
 6636TIP3    H219850   3.445   1.039   0.990
 6637TIP3   OH219851   4.887   2.510   1.324
 6637TIP3    H119852   4.855   2.477   1.240
 6637TIP3    H219853   4.808   2.542   1.368
 6638TIP3   OH219854   1.495   6.539   0.124
 6638TIP3    H119855   1.577   6.528   0.074
 6638TIP3    H219856   1.518   6.514   0.213
 6639TIP3   OH219857   6.925   4.952   5.836
 6639TIP3    H119858   6.976   4.872   5.847
 6639TIP3    H219859   6.943   4.979   5.746
 6640TIP3   OH219860   2.354   7.015   5.171
 6640TIP3    H119861   2.332   7.092   5.223
 6640TIP3    H219862   2.437   7.036   5.129
 6641TIP3   OH219863   0.908   1.307   2.747
 6641TIP3    H119864   0.917   1.391   2.703
 6641TIP3    H219865   0.818   1.279   2.729
 6642TIP3   OH219866   2.562   7.821   0.547
 6642TIP3    H119867   2.643   7.772   0.533
 6642TIP3    H219868   2.570   7.898   0.492
 6643TIP3   OH219869   4.601   1.590   0.009
 6643TIP3    H119870   4.655   1.608   0.086
 6643TIP3    H219871   4.525   1.647   0.020
 6644TIP3   OH219872   0.126   0.120   4.055
 6644TIP3    H119873   0.096   0.160   3.974
 6644TIP3    H219874   0.058   0.057   4.078
 6645TIP3   OH219875   1.116   4.709   2.694
 6645TIP3    H119876   1.100   4.658   2.615
 6645TIP3    H219877   1.029   4.733   2.725
 6646TIP3   OH219878   0.390   4.218   4.581
 6646TIP3    H119879   0.466   4.274   4.566
 6646TIP3    H219880   0.375   4.175   4.496
 6647TIP3   OH219881   1.386   1.832   1.153
 6647TIP3    H119882   1.400   1.738   1.163
 6647TIP3    H219883   1.419   1.870   1.234
 6648TIP3   OH219884   3.709   4.719   0.701
 6648TIP3    H119885   3.659   4.637   0.696
 6648TIP3    H219886   3.748   4.717   0.788
 6649TIP3   OH219887   0.936   4.946   5.044
 6649TIP3    H119888   0.967   4.858   5.024
 6649TIP3    H219889   0.887   4.973   4.967
 6650TIP3   OH219890   5.098   3.904   0.342
 6650TIP3    H119891   5.020   3.848   0.343
 6650TIP3    H219892   5.071   3.980   0.291
 6651TIP3   OH219893   2.692   2.778   6.472
 6651TIP3    H119894   2.759   2.813   6.531
 6651TIP3    H219895   2.620   2.841   6.479
 6652TIP3   OH219896   1.600   5.855   2.751
 6652TIP3    H119897   1.670   5.827   2.690
 6652TIP3    H219898   1.520   5.850   2.699
 6653TIP3   OH219899   0.317   5.596   6.133
 6653TIP3    H119900   0.289   5.589   6.042
 6653TIP3    H219901   0.277   5.678   6.164
 6654TIP3   OH219902   5.619   7.769   5.070
 6654TIP3    H119903   5.537   7.722   5.055
 6654TIP3    H219904   5.623   7.833   4.998
 6655TIP3   OH219905   0.896   4.473   0.242
 6655TIP3    H119906   0.959   4.406   0.216
 6655TIP3    H219907   0.828   4.469   0.175
 6656TIP3   OH219908   7.183   7.467   4.088
 6656TIP3    H119909   7.263   7.456   4.035
 6656TIP3    H219910   7.112   7.442   4.029
 6657TIP3   OH219911   5.714   1.783   1.426
 6657TIP3    H119912   5.753   1.802   1.341
 6657TIP3    H219913   5.788   1.783   1.487
 6658TIP3   OH219914   0.274   0.825   2.155
 6658TIP3    H119915   0.318   0.830   2.070
 6658TIP3    H219916   0.210   0.896   2.153
 6659TIP3   OH219917   0.563   7.494   0.871
 6659TIP3    H119918   0.656   7.492   0.893
 6659TIP3    H219919   0.518   7.493   0.955
 6660TIP3   OH219920   5.320   0.843   2.593
 6660TIP3    H119921   5.256   0.819   2.526
 6660TIP3    H219922   5.327   0.938   2.587
 6661TIP3   OH219923   2.336   3.002   0.285
 6661TIP3    H119924   2.285   2.972   0.361
 6661TIP3    H219925   2.421   2.960   0.296
 6662TIP3   OH219926   2.727   6.779   0.661
 6662TIP3    H119927   2.710   6.743   0.748
 6662TIP3    H219928   2.698   6.710   0.601
 6663TIP3   OH219929   0.635   6.673   3.591
 6663TIP3    H119930   0.631   6.721   3.675
 6663TIP3    H219931   0.555   6.700   3.545
 6664TIP3   OH219932   5.469   2.406   4.551
 6664TIP3    H119933   5.561   2.406   4.527
 6664TIP3    H219934   5.424   2.446   4.476
 6665TIP3   OH219935   2.294   3.934   1.770
 6665TIP3    H119936   2.199   3.929   1.756
 6665TIP3    H219937   2.311   4.027   1.784
 6666TIP3   OH219938   7.828   1.341   2.665
 6666TIP3    H119939   7.781   1.423   2.683
 6666TIP3    H219940   7.782   1.276   2.718
 6667TIP3   OH219941   3.107   5.782   4.366
 6667TIP3    H119942   3.187   5.826   4.338
 6667TIP3    H219943   3.137   5.713   4.425
 6668TIP3   OH219944   2.123   7.565   6.787
 6668TIP3    H119945   2.091   7.540   6.874
 6668TIP3    H219946   2.114   7.485   6.735
 6669TIP3   OH219947   2.596   5.309   3.608
 6669TIP3    H119948   2.688   5.333   3.599
 6669TIP3    H219949   2.570   5.280   3.520
 6670TIP3   OH219950   7.539   3.427   1.241
 6670TIP3    H119951   7.490   3.468   1.312
 6670TIP3    H219952   7.534   3.333   1.260
 6671TIP3   OH219953   1.403   4.576   5.455
 6671TIP3    H119954   1.414   4.626   5.374
 6671TIP3    H219955   1.440   4.490   5.435
 6672TIP3   OH219956   0.588   3.254   0.751
 6672TIP3    H119957   0.557   3.225   0.836
 6672TIP3    H219958   0.595   3.174   0.699
 6673TIP3   OH219959   2.291   5.308   3.235
 6673TIP3    H119960   2.272   5.273   3.148
 6673TIP3    H219961   2.209   5.350   3.262
 6674TIP3   OH219962   4.102   6.479   5.418
 6674TIP3    H119963   4.008   6.462   5.425
 6674TIP3    H219964   4.141   6.432   5.491
 6675TIP3   OH219965   5.100   1.670   2.682
 6675TIP3    H119966   5.173   1.609   2.687
 6675TIP3    H219967   5.027   1.617   2.649
 6676TIP3   OH219968   7.683   0.936   4.831
 6676TIP3    H119969   7.635   0.854   4.819
 6676TIP3    H219970   7.683   0.952   4.925
 6677TIP3   OH219971   4.361   7.480   1.371
 6677TIP3    H119972   4.372   7.535   1.294
 6677TIP3    H219973   4.324   7.398   1.338
 6678TIP3   OH219974   4.773   0.905   2.397
 6678TIP3    H119975   4.814   0.924   2.482
 6678TIP3    H219976   4.683   0.934   2.407
 6679TIP3   OH219977   5.304   6.331   5.026
 6679TIP3    H119978   5.230   6.351   4.968
 6679TIP3    H219979   5.337   6.247   4.993
 6680TIP3   OH219980   2.931   7.449   2.686
 6680TIP3    H119981   3.025   7.461   2.693
 6680TIP3    H219982   2.919   7.401   2.604
 6681TIP3   OH219983   5.666   1.670   2.298
 6681TIP3    H119984   5.761   1.662   2.289
 6681TIP3    H219985   5.648   1.644   2.389
 6682TIP3   OH219986   4.008   5.801   2.910
 6682TIP3    H119987   3.989   5.741   2.838
 6682TIP3    H219988   3.931   5.795   2.967
 6683TIP3   OH219989   7.066   4.011   5.903
 6683TIP3    H119990   7.152   3.987   5.937
 6683TIP3    H219991   7.052   3.952   5.830
 6684TIP3   OH219992   7.396   4.536   6.662
 6684TIP3    H119993   7.375   4.458   6.714
 6684TIP3    H219994   7.458   4.584   6.717
 6685TIP3   OH219995   2.457   3.087   1.852
 6685TIP3    H119996   2.528   3.121   1.797
 6685TIP3    H219997   2.429   3.007   1.807
 6686TIP3   OH219998   2.160   0.244   0.457
 6686TIP3    H119999   2.126   0.161   0.423
 6686TIP3    H220000   2.135   0.309   0.391
 6687TIP3   OH220001   0.685   0.013   3.007
 6687TIP3    H120002   0.655   0.000   3.097
 6687TIP3    H220003   0.665   0.105   2.989
 6688TIP3   OH220004   4.478   2.886   0.009
 6688TIP3    H120005   4.435   2.955   0.059
 6688TIP3    H220006   4.493   2.815   0.072
 6689TIP3   OH220007   6.416   5.076   2.425
 6689TIP3    H120008   6.380   5.040   2.343
 6689TIP3    H220009   6.481   5.012   2.452
 6690TIP3   OH220010   6.723   0.170   1.171
 6690TIP3    H120011   6.632   0.142   1.182
 6690TIP3    H220012   6.759   0.110   1.105
 6691TIP3   OH220013   6.197   3.696   6.108
 6691TIP3    H120014   6.246   3.615   6.124
 6691TIP3    H220015   6.180   3.732   6.195
 6692TIP3   OH220016   3.735   6.372   5.934
 6692TIP3    H120017   3.754   6.406   6.021
 6692TIP3    H220018   3.660   6.424   5.904
 6693TIP3   OH220019   2.828   5.840   5.690
 6693TIP3    H120020   2.888   5.772   5.659
 6693TIP3    H220021   2.823   5.826   5.785
 6694TIP3   OH220022   3.442   2.130   3.069
 6694TIP3    H120023   3.466   2.152   2.979
 6694TIP3    H220024   3.374   2.063   3.060
 6695TIP3   OH220025   4.610   4.269   3.638
 6695TIP3    H120026   4.666   4.255   3.715
 6695TIP3    H220027   4.602   4.182   3.599
 6696TIP3   OH220028   8.345   4.631   1.705
 6696TIP3    H120029   8.302   4.698   1.651
 6696TIP3    H220030   8.309   4.548   1.673
 6697TIP3   OH220031   4.732   0.065   1.771
 6697TIP3    H120032   4.737  -0.013   1.826
 6697TIP3    H220033   4.780   0.042   1.692
 6698TIP3   OH220034   4.149   1.679   6.274
 6698TIP3    H120035   4.066   1.646   6.239
 6698TIP3    H220036   4.127   1.714   6.360
 6699TIP3   OH220037   8.441   1.541   3.229
 6699TIP3    H120038   8.377   1.594   3.181
 6699TIP3    H220039   8.391   1.465   3.260
 6700TIP3   OH220040   7.814   7.476   4.490
 6700TIP3    H120041   7.854   7.392   4.512
 6700TIP3    H220042   7.733   7.479   4.543
 6701TIP3   OH220043   2.017   2.335   0.008
 6701TIP3    H120044   2.067   2.254   0.004
 6701TIP3    H220045   2.019   2.360   0.101
 6702TIP3   OH220046   1.887   2.864   3.026
 6702TIP3    H120047   1.796   2.869   3.057
 6702TIP3    H220048   1.940   2.890   3.101
 6703TIP3   OH220049   6.366   0.888   2.986
 6703TIP3    H120050   6.276   0.856   2.984
 6703TIP3    H220051   6.411   0.838   2.918
 6704TIP3   OH220052   1.161   7.806   3.546
 6704TIP3    H120053   1.138   7.722   3.586
 6704TIP3    H220054   1.102   7.869   3.587
 6705TIP3   OH220055   8.013   5.128   1.432
 6705TIP3    H120056   7.930   5.140   1.386
 6705TIP3    H220057   8.074   5.098   1.365
 6706TIP3   OH220058   6.022   3.201   6.466
 6706TIP3    H120059   6.023   3.106   6.468
 6706TIP3    H220060   5.941   3.226   6.509
 6707TIP3   OH220061   5.449   2.586   5.575
 6707TIP3    H120062   5.397   2.657   5.536
 6707TIP3    H220063   5.532   2.590   5.529
 6708TIP3   OH220064   6.351   4.208   1.308
 6708TIP3    H120065   6.345   4.205   1.213
 6708TIP3    H220066   6.329   4.119   1.337
 6709TIP3   OH220067   5.659   2.274   3.982
 6709TIP3    H120068   5.672   2.368   3.992
 6709TIP3    H220069   5.726   2.247   3.920
 6710TIP3   OH220070   7.496   2.439   0.539
 6710TIP3    H120071   7.541   2.498   0.600
 6710TIP3    H220072   7.463   2.497   0.470
 6711TIP3   OH220073   7.124   3.880   0.225
 6711TIP3    H120074   7.060   3.898   0.294
 6711TIP3    H220075   7.083   3.911   0.145
 6712TIP3   OH220076   3.795   5.785   3.111
 6712TIP3    H120077   3.740   5.846   3.161
 6712TIP3    H220078   3.848   5.740   3.178
 6713TIP3   OH220079   3.225   0.444   1.683
 6713TIP3    H120080   3.144   0.491   1.662
 6713TIP3    H220081   3.294   0.498   1.646
 6714TIP3   OH220082   5.973   0.595   6.057
 6714TIP3    H120083   5.963   0.535   5.982
 6714TIP3    H220084   5.883   0.612   6.086
 6715TIP3   OH220085   3.115   6.814   3.752
 6715TIP3    H120086   3.132   6.904   3.782
 6715TIP3    H220087   3.080   6.769   3.829
 6716TIP3   OH220088   0.457   6.709   3.373
 6716TIP3    H120089   0.408   6.649   3.318
 6716TIP3    H220090   0.444   6.795   3.334
 6717TIP3   OH220091   3.205   5.130   5.266
 6717TIP3    H120092   3.296   5.156   5.252
 6717TIP3    H220093   3.205   5.035   5.257
 6718TIP3   OH220094   5.654   6.972   3.183
 6718TIP3    H120095   5.657   7.005   3.094
 6718TIP3    H220096   5.687   7.043   3.237
 6719TIP3   OH220097   1.502   2.401   1.846
 6719TIP3    H120098   1.422   2.427   1.891
 6719TIP3    H220099   1.474   2.372   1.760
 6720TIP3   OH220100   6.854   5.047   6.510
 6720TIP3    H120101   6.884   5.001   6.432
 6720TIP3    H220102   6.758   5.043   6.506
 6721TIP3   OH220103   2.440   3.780   3.107
 6721TIP3    H120104   2.519   3.732   3.082
 6721TIP3    H220105   2.404   3.728   3.180
 6722TIP3   OH220106   4.798   3.723   1.697
 6722TIP3    H120107   4.746   3.764   1.767
 6722TIP3    H220108   4.856   3.793   1.667
 6723TIP3   OH220109   8.128   7.377   4.482
 6723TIP3    H120110   8.037   7.345   4.478
 6723TIP3    H220111   8.171   7.337   4.407
 6724TIP3   OH220112   1.135   2.377   1.407
 6724TIP3    H120113   1.185   2.456   1.386
 6724TIP3    H220114   1.089   2.355   1.326
 6725TIP3   OH220115   1.305   1.204   2.233
 6725TIP3    H120116   1.238   1.264   2.200
 6725TIP3    H220117   1.308   1.134   2.168
 6726TIP3   OH220118   3.826   1.327   2.721
 6726TIP3    H120119   3.873   1.251   2.755
 6726TIP3    H220120   3.784   1.296   2.641
 6727TIP3   OH220121   4.710   2.370   2.952
 6727TIP3    H120122   4.699   2.459   2.919
 6727TIP3    H220123   4.720   2.381   3.047
 6728TIP3   OH220124   1.335   7.550   5.948
 6728TIP3    H120125   1.275   7.535   6.021
 6728TIP3    H220126   1.305   7.490   5.879
 6729TIP3   OH220127   4.658   6.609   1.014
 6729TIP3    H120128   4.646   6.591   0.921
 6729TIP3    H220129   4.682   6.525   1.053
 6730TIP3   OH220130   7.774   6.177   1.028
 6730TIP3    H120131   7.712   6.219   1.088
 6730TIP3    H220132   7.752   6.084   1.032
 6731TIP3   OH220133   3.373   3.854   5.324
 6731TIP3    H120134   3.294   3.800   5.322
 6731TIP3    H220135   3.431   3.815   5.259
 6732TIP3   OH220136   6.808   7.586   5.173
 6732TIP3    H120137   6.857   7.624   5.246
 6732TIP3    H220138   6.716   7.606   5.192
 6733TIP3   OH220139   6.584   5.753   1.793
 6733TIP3    H120140   6.678   5.736   1.796
 6733TIP3    H220141   6.574   5.816   1.721
 6734TIP3   OH220142   6.244   1.490   5.108
 6734TIP3    H120143   6.236   1.579   5.143
 6734TIP3    H220144   6.338   1.473   5.109
 6735TIP3   OH220145   4.287   5.878   1.874
 6735TIP3    H120146   4.301   5.928   1.794
 6735TIP3    H220147   4.370   5.882   1.921
 6736TIP3   OH220148   3.622   1.356   3.755
 6736TIP3    H120149   3.609   1.450   3.743
 6736TIP3    H220150   3.593   1.339   3.844
 6737TIP3   OH220151   2.625   4.839   1.947
 6737TIP3    H120152   2.640   4.899   1.873
 6737TIP3    H220153   2.646   4.753   1.912
 6738TIP3   OH220154   6.880   2.018   4.925
 6738TIP3    H120155   6.845   2.047   5.009
 6738TIP3    H220156   6.939   2.088   4.898
 6739TIP3   OH220157   1.428   7.877   1.898
 6739TIP3    H120158   1.450   7.808   1.835
 6739TIP3    H220159   1.406   7.830   1.978
 6740TIP3   OH220160   5.676   3.498   2.966
 6740TIP3    H120161   5.678   3.407   2.995
 6740TIP3    H220162   5.586   3.512   2.938
 6741TIP3   OH220163   3.991   2.540   2.403
 6741TIP3    H120164   4.062   2.545   2.466
 6741TIP3    H220165   3.922   2.596   2.439
 6742TIP3   OH220166   7.615   3.276   4.913
 6742TIP3    H120167   7.530   3.318   4.921
 6742TIP3    H220168   7.615   3.209   4.981
 6743TIP3   OH220169   5.282   5.743   6.488
 6743TIP3    H120170   5.299   5.719   6.397
 6743TIP3    H220171   5.311   5.668   6.539
 6744TIP3   OH220172   0.221   6.106   6.811
 6744TIP3    H120173   0.149   6.076   6.865
 6744TIP3    H220174   0.292   6.044   6.829
 6745TIP3   OH220175   5.848   0.575   5.644
 6745TIP3    H120176   5.764   0.538   5.614
 6745TIP3    H220177   5.823   0.647   5.702
 6746TIP3   OH220178   7.646   2.957   1.668
 6746TIP3    H120179   7.592   2.931   1.742
 6746TIP3    H220180   7.650   3.053   1.674
 6747TIP3   OH220181   7.359   3.416   4.196
 6747TIP3    H120182   7.411   3.347   4.237
 6747TIP3    H220183   7.290   3.369   4.149
 6748TIP3   OH220184   6.153   5.090   1.023
 6748TIP3    H120185   6.115   5.104   0.936
 6748TIP3    H220186   6.220   5.157   1.031
 6749TIP3   OH220187   6.994   3.395   1.873
 6749TIP3    H120188   6.990   3.490   1.877
 6749TIP3    H220189   7.035   3.369   1.956
 6750TIP3   OH220190   6.434   4.567   5.419
 6750TIP3    H120191   6.421   4.516   5.339
 6750TIP3    H220192   6.528   4.557   5.438
 6751TIP3   OH220193   3.995   6.569   1.241
 6751TIP3    H120194   4.089   6.560   1.261
 6751TIP3    H220195   3.963   6.634   1.303
 6752TIP3   OH220196   1.521   6.569   5.489
 6752TIP3    H120197   1.571   6.511   5.547
 6752TIP3    H220198   1.494   6.642   5.545
 6753TIP3   OH220199   5.066   7.209   3.646
 6753TIP3    H120200   5.102   7.288   3.686
 6753TIP3    H220201   5.107   7.205   3.560
 6754TIP3   OH220202   4.870   3.790   4.023
 6754TIP3    H120203   4.894   3.865   4.077
 6754TIP3    H220204   4.948   3.734   4.023
 6755TIP3   OH220205   1.782   6.180   6.622
 6755TIP3    H120206   1.701   6.194   6.572
 6755TIP3    H220207   1.775   6.241   6.696
 6756TIP3   OH220208   8.191   4.437   6.652
 6756TIP3    H120209   8.126   4.505   6.636
 6756TIP3    H220210   8.225   4.456   6.739
 6757TIP3   OH220211   7.590   5.667   3.020
 6757TIP3    H120212   7.635   5.689   2.938
 6757TIP3    H220213   7.515   5.727   3.022
 6758TIP3   OH220214   4.389   7.414   2.267
 6758TIP3    H120215   4.423   7.427   2.178
 6758TIP3    H220216   4.423   7.489   2.317
 6759TIP3   OH220217   0.731   2.080   5.522
 6759TIP3    H120218   0.781   2.012   5.567
 6759TIP3    H220219   0.755   2.071   5.430
 6760TIP3   OH220220   1.771   0.893   1.352
 6760TIP3    H120221   1.730   0.975   1.377
 6760TIP3    H220222   1.863   0.903   1.379
 6761TIP3   OH220223   3.697   7.676   0.298
 6761TIP3    H120224   3.619   7.730   0.289
 6761TIP3    H220225   3.759   7.732   0.346
 6762TIP3   OH220226   5.869   4.640   5.211
 6762TIP3    H120227   5.883   4.546   5.199
 6762TIP3    H220228   5.951   4.671   5.249
 6763TIP3   OH220229   0.082   6.333   4.781
 6763TIP3    H120230   0.125   6.405   4.828
 6763TIP3    H220231   0.151   6.268   4.769
 6764TIP3   OH220232   4.005   4.555   4.836
 6764TIP3    H120233   3.970   4.472   4.803
 6764TIP3    H220234   4.100   4.543   4.838
 6765TIP3   OH220235   5.670   0.095   6.421
 6765TIP3    H120236   5.618   0.050   6.488
 6765TIP3    H220237   5.643   0.053   6.339
 6766TIP3   OH220238   8.133   4.820   2.683
 6766TIP3    H120239   8.164   4.734   2.709
 6766TIP3    H220240   8.083   4.805   2.603
 6767TIP3   OH220241   6.278   2.856   4.706
 6767TIP3    H120242   6.186   2.868   4.727
 6767TIP3    H220243   6.325   2.905   4.773
 6768TIP3   OH220244   6.538   3.052   1.900
 6768TIP3    H120245   6.617   3.040   1.953
 6768TIP3    H220246   6.489   2.971   1.911
 6769TIP3   OH220247   2.072   2.723   6.812
 6769TIP3    H120248   2.035   2.700   6.727
 6769TIP3    H220249   2.153   2.770   6.791
 6770TIP3   OH220250   2.705   7.278   6.264
 6770TIP3    H120251   2.644   7.204   6.262
 6770TIP3    H220252   2.655   7.352   6.232
 6771TIP3   OH220253   3.687   6.625   1.368
 6771TIP3    H120254   3.660   6.659   1.283
 6771TIP3    H220255   3.771   6.669   1.385
 6772TIP3   OH220256   2.119   1.395   3.826
 6772TIP3    H120257   2.070   1.435   3.898
 6772TIP3    H220258   2.075   1.311   3.810
 6773TIP3   OH220259   0.012   4.055   2.798
 6773TIP3    H120260   0.018   4.053   2.893
 6773TIP3    H220261   0.103   4.063   2.768
 6774TIP3   OH220262   6.634   7.842   5.308
 6774TIP3    H120263   6.615   7.749   5.308
 6774TIP3    H220264   6.651   7.863   5.217
 6775TIP3   OH220265   2.359   6.133   3.465
 6775TIP3    H120266   2.423   6.075   3.424
 6775TIP3    H220267   2.384   6.220   3.436
 6776TIP3   OH220268   1.285   0.697   4.066
 6776TIP3    H120269   1.378   0.708   4.046
 6776TIP3    H220270   1.239   0.745   3.997
 6777TIP3   OH220271   2.140   0.224   5.792
 6777TIP3    H120272   2.136   0.294   5.857
 6777TIP3    H220273   2.142   0.143   5.844
 6778TIP3   OH220274   1.422   5.383   4.645
 6778TIP3    H120275   1.457   5.344   4.725
 6778TIP3    H220276   1.385   5.309   4.597
 6779TIP3   OH220277   6.330   0.447   0.131
 6779TIP3    H120278   6.413   0.476   0.091
 6779TIP3    H220279   6.271   0.435   0.057
 6780TIP3   OH220280   0.207   6.434   6.455
 6780TIP3    H120281   0.291   6.450   6.499
 6780TIP3    H220282   0.197   6.507   6.395
 6781TIP3   OH220283   5.791   6.951   4.458
 6781TIP3    H120284   5.727   6.887   4.489
 6781TIP3    H220285   5.854   6.959   4.531
 6782TIP3   OH220286   0.634   0.464   0.621
 6782TIP3    H120287   0.573   0.472   0.548
 6782TIP3    H220288   0.579   0.469   0.699
 6783TIP3   OH220289   2.101   0.601   0.635
 6783TIP3    H120290   2.055   0.632   0.557
 6783TIP3    H220291   2.193   0.600   0.610
 6784TIP3   OH220292   5.049   2.018   4.453
 6784TIP3    H120293   5.073   2.106   4.481
 6784TIP3    H220294   4.977   2.031   4.391
 6785TIP3   OH220295   2.826   2.427   0.536
 6785TIP3    H120296   2.852   2.341   0.504
 6785TIP3    H220297   2.761   2.410   0.604
 6786TIP3   OH220298   6.788   4.242   5.374
 6786TIP3    H120299   6.707   4.288   5.352
 6786TIP3    H220300   6.853   4.279   5.315
 6787TIP3   OH220301   7.162   0.794   0.264
 6787TIP3    H120302   7.227   0.757   0.204
 6787TIP3    H220303   7.101   0.723   0.280
 6788TIP3   OH220304   3.498   5.900   6.029
 6788TIP3    H120305   3.510   5.808   6.005
 6788TIP3    H220306   3.554   5.948   5.968
 6789TIP3   OH220307   5.703   5.828   5.654
 6789TIP3    H120308   5.797   5.844   5.663
 6789TIP3    H220309   5.664   5.916   5.649
 6790TIP3   OH220310   1.429   1.447   4.985
 6790TIP3    H120311   1.450   1.362   5.025
 6790TIP3    H220312   1.406   1.503   5.059
 6791TIP3   OH220313   7.921   7.196   4.565
 6791TIP3    H120314   7.853   7.151   4.615
 6791TIP3    H220315   7.998   7.140   4.574
 6792TIP3   OH220316   2.737   1.132   5.535
 6792TIP3    H120317   2.653   1.086   5.532
 6792TIP3    H220318   2.714   1.224   5.549
 6793TIP3   OH220319   4.904   4.767   6.662
 6793TIP3    H120320   4.971   4.704   6.688
 6793TIP3    H220321   4.944   4.818   6.592
 6794TIP3   OH220322   1.699   3.189   0.721
 6794TIP3    H120323   1.636   3.117   0.727
 6794TIP3    H220324   1.770   3.153   0.667
 6795TIP3   OH220325   7.235   1.454   5.665
 6795TIP3    H120326   7.189   1.448   5.581
 6795TIP3    H220327   7.174   1.500   5.723
 6796TIP3   OH220328   6.475   1.382   6.385
 6796TIP3    H120329   6.528   1.379   6.465
 6796TIP3    H220330   6.394   1.426   6.412
 6797TIP3   OH220331   5.494   3.152   4.905
 6797TIP3    H120332   5.399   3.140   4.896
 6797TIP3    H220333   5.510   3.238   4.865
 6798TIP3   OH220334   5.116   6.607   2.929
 6798TIP3    H120335   5.077   6.693   2.940
 6798TIP3    H220336   5.092   6.560   3.010
 6799TIP3   OH220337   0.822   0.868   4.223
 6799TIP3    H120338   0.870   0.834   4.298
 6799TIP3    H220339   0.882   0.931   4.183
 6800TIP3   OH220340   2.276   2.821   4.715
 6800TIP3    H120341   2.352   2.789   4.764
 6800TIP3    H220342   2.202   2.806   4.774
 6801TIP3   OH220343   7.084   3.616   3.488
 6801TIP3    H120344   7.078   3.602   3.393
 6801TIP3    H220345   7.115   3.706   3.497
 6802TIP3   OH220346   0.349   5.651   4.045
 6802TIP3    H120347   0.422   5.692   3.997
 6802TIP3    H220348   0.271   5.679   3.997
 6803TIP3   OH220349   3.479   4.785   5.953
 6803TIP3    H120350   3.528   4.865   5.970
 6803TIP3    H220351   3.543   4.714   5.959
 6804TIP3   OH220352   3.407   2.951   0.094
 6804TIP3    H120353   3.391   2.932   0.002
 6804TIP3    H220354   3.426   3.045   0.096
 6805TIP3   OH220355   4.959   5.156   0.599
 6805TIP3    H120356   5.052   5.167   0.622
 6805TIP3    H220357   4.933   5.077   0.646
 6806TIP3   OH220358   7.227   3.141   5.430
 6806TIP3    H120359   7.237   3.046   5.435
 6806TIP3    H220360   7.140   3.158   5.466
 6807TIP3   OH220361   6.223   1.781   5.119
 6807TIP3    H120362   6.191   1.796   5.030
 6807TIP3    H220363   6.313   1.815   5.118
 6808TIP3   OH220364   1.605   4.847   5.657
 6808TIP3    H120365   1.599   4.752   5.657
 6808TIP3    H220366   1.699   4.865   5.647
 6809TIP3   OH220367   2.123   1.198   4.999
 6809TIP3    H120368   2.081   1.125   4.953
 6809TIP3    H220369   2.205   1.162   5.031
 6810TIP3   OH220370   0.291   3.768   4.259
 6810TIP3    H120371   0.208   3.816   4.266
 6810TIP3    H220372   0.265   3.676   4.259
 6811TIP3   OH220373   3.250   5.476   4.329
 6811TIP3    H120374   3.176   5.506   4.380
 6811TIP3    H220375   3.235   5.382   4.318
 6812TIP3   OH220376   0.681   1.703   5.520
 6812TIP3    H120377   0.626   1.747   5.584
 6812TIP3    H220378   0.769   1.737   5.536
 6813TIP3   OH220379   8.295   6.187   4.929
 6813TIP3    H120380   8.213   6.235   4.928
 6813TIP3    H220381   8.355   6.239   4.875
 6814TIP3   OH220382   6.166   1.349   0.933
 6814TIP3    H120383   6.143   1.263   0.966
 6814TIP3    H220384   6.259   1.344   0.915
 6815TIP3   OH220385   6.426   6.550   1.900
 6815TIP3    H120386   6.413   6.547   1.994
 6815TIP3    H220387   6.364   6.486   1.865
 6816TIP3   OH220388   8.379   4.733   1.954
 6816TIP3    H120389   8.365   4.700   1.866
 6816TIP3    H220390   8.312   4.800   1.966
 6817TIP3   OH220391   7.898   2.352   1.973
 6817TIP3    H120392   7.932   2.318   2.056
 6817TIP3    H220393   7.973   2.349   1.913
 6818TIP3   OH220394   3.825   4.060   5.589
 6818TIP3    H120395   3.838   4.155   5.582
 6818TIP3    H220396   3.737   4.046   5.553
 6819TIP3   OH220397   3.340   0.675   5.363
 6819TIP3    H120398   3.351   0.707   5.274
 6819TIP3    H220399   3.301   0.749   5.410
 6820TIP3   OH220400   4.572   3.842   3.974
 6820TIP3    H120401   4.547   3.807   3.889
 6820TIP3    H220402   4.663   3.815   3.986
 6821TIP3   OH220403   1.876   2.136   5.379
 6821TIP3    H120404   1.903   2.111   5.290
 6821TIP3    H220405   1.882   2.232   5.379
 6822TIP3   OH220406   4.439   3.855   5.186
 6822TIP3    H120407   4.503   3.789   5.160
 6822TIP3    H220408   4.474   3.892   5.268
 6823TIP3   OH220409   7.340   5.858   1.043
 6823TIP3    H120410   7.318   5.850   1.136
 6823TIP3    H220411   7.434   5.875   1.042
 6824TIP3   OH220412   0.189   5.551   2.845
 6824TIP3    H120413   0.114   5.595   2.885
 6824TIP3    H220414   0.262   5.613   2.855
 6825TIP3   OH220415   2.574   5.937   3.021
 6825TIP3    H120416   2.656   5.985   3.014
 6825TIP3    H220417   2.556   5.934   3.115
 6826TIP3   OH220418   1.213   5.102   2.709
 6826TIP3    H120419   1.119   5.091   2.722
 6826TIP3    H220420   1.251   5.022   2.744
 6827TIP3   OH220421   4.690   2.587   4.759
 6827TIP3    H120422   4.701   2.571   4.665
 6827TIP3    H220423   4.714   2.679   4.770
 6828TIP3   OH220424   1.503   4.894   4.503
 6828TIP3    H120425   1.552   4.882   4.422
 6828TIP3    H220426   1.535   4.824   4.560
 6829TIP3   OH220427   1.289   3.328   2.752
 6829TIP3    H120428   1.281   3.241   2.792
 6829TIP3    H220429   1.243   3.386   2.813
 6830TIP3   OH220430   4.257   1.162   0.079
 6830TIP3    H120431   4.283   1.098   0.145
 6830TIP3    H220432   4.240   1.110   0.000
 6831TIP3   OH220433   4.150   3.291   3.775
 6831TIP3    H120434   4.063   3.283   3.815
 6831TIP3    H220435   4.189   3.204   3.784
 6832TIP3   OH220436   1.351   1.097   2.475
 6832TIP3    H120437   1.334   1.156   2.402
 6832TIP3    H220438   1.274   1.040   2.478
 6833TIP3   OH220439   5.122   0.230   2.602
 6833TIP3    H120440   5.181   0.244   2.528
 6833TIP3    H220441   5.180   0.218   2.677
 6834TIP3   OH220442   6.803   0.272   4.814
 6834TIP3    H120443   6.743   0.345   4.832
 6834TIP3    H220444   6.790   0.212   4.887
 6835TIP3   OH220445   3.493   7.647   1.576
 6835TIP3    H120446   3.496   7.680   1.666
 6835TIP3    H220447   3.438   7.710   1.529
 6836TIP3   OH220448   7.696   3.783   5.174
 6836TIP3    H120449   7.687   3.800   5.080
 6836TIP3    H220450   7.686   3.869   5.215
 6837TIP3   OH220451   0.033   5.579   1.889
 6837TIP3    H120452   0.106   5.516   1.886
 6837TIP3    H220453  -0.037   5.537   1.841
 6838TIP3   OH220454   4.389   2.491   1.724
 6838TIP3    H120455   4.431   2.562   1.773
 6838TIP3    H220456   4.382   2.420   1.787
 6839TIP3   OH220457   1.879   6.248   4.887
 6839TIP3    H120458   1.872   6.338   4.917
 6839TIP3    H220459   1.893   6.254   4.793
 6840TIP3   OH220460   1.389   6.941   1.402
 6840TIP3    H120461   1.342   6.962   1.482
 6840TIP3    H220462   1.322   6.908   1.342
 6841TIP3   OH220463   1.414   4.921   1.327
 6841TIP3    H120464   1.360   4.930   1.406
 6841TIP3    H220465   1.438   4.828   1.325
 6842TIP3   OH220466   7.793   6.272   4.450
 6842TIP3    H120467   7.756   6.187   4.427
 6842TIP3    H220468   7.784   6.279   4.545
 6843TIP3   OH220469   7.629   3.887   0.009
 6843TIP3    H120470   7.719   3.855   0.010
 6843TIP3    H220471   7.635   3.978   0.038
 6844TIP3   OH220472   0.663   6.133   0.437
 6844TIP3    H120473   0.646   6.203   0.501
 6844TIP3    H220474   0.576   6.108   0.406
 6845TIP3   OH220475   1.040   1.914   2.042
 6845TIP3    H120476   0.978   1.976   2.080
 6845TIP3    H220477   1.124   1.934   2.084
 6846TIP3   OH220478   6.235   6.341   5.991
 6846TIP3    H120479   6.148   6.373   5.964
 6846TIP3    H220480   6.295   6.409   5.963
 6847TIP3   OH220481   5.982   0.696   4.396
 6847TIP3    H120482   5.988   0.783   4.357
 6847TIP3    H220483   6.012   0.636   4.327
 6848TIP3   OH220484   6.474   4.400   3.386
 6848TIP3    H120485   6.380   4.416   3.379
 6848TIP3    H220486   6.514   4.466   3.329
 6849TIP3   OH220487   3.156   6.585   3.371
 6849TIP3    H120488   3.113   6.644   3.434
 6849TIP3    H220489   3.236   6.631   3.346
 6850TIP3   OH220490   5.156   4.730   6.222
 6850TIP3    H120491   5.245   4.756   6.247
 6850TIP3    H220492   5.168   4.652   6.168
 6851TIP3   OH220493   8.258   1.739   4.361
 6851TIP3    H120494   8.349   1.764   4.344
 6851TIP3    H220495   8.209   1.821   4.358
 6852TIP3   OH220496   2.414   0.281   0.561
 6852TIP3    H120497   2.371   0.281   0.646
 6852TIP3    H220498   2.343   0.276   0.497
 6853TIP3   OH220499   5.162   7.651   2.133
 6853TIP3    H120500   5.188   7.651   2.225
 6853TIP3    H220501   5.228   7.597   2.090
 6854TIP3   OH220502   7.758   4.088   4.209
 6854TIP3    H120503   7.821   4.123   4.146
 6854TIP3    H220504   7.673   4.108   4.171
 6855TIP3   OH220505   1.674   3.912   2.367
 6855TIP3    H120506   1.628   3.878   2.444
 6855TIP3    H220507   1.607   3.960   2.319
 6856TIP3   OH220508   1.657   3.122   6.549
 6856TIP3    H120509   1.639   3.147   6.459
 6856TIP3    H220510   1.725   3.183   6.578
 6857TIP3   OH220511   4.518   5.306   2.372
 6857TIP3    H120512   4.570   5.263   2.440
 6857TIP3    H220513   4.583   5.339   2.310
 6858TIP3   OH220514   2.544   3.500   6.791
 6858TIP3    H120515   2.571   3.425   6.845
 6858TIP3    H220516   2.456   3.521   6.823
 6859TIP3   OH220517   4.487   5.757   1.196
 6859TIP3    H120518   4.519   5.670   1.221
 6859TIP3    H220519   4.427   5.740   1.123
 6860TIP3   OH220520   6.998   0.963   1.766
 6860TIP3    H120521   6.981   0.948   1.673
 6860TIP3    H220522   6.934   0.907   1.812
 6861TIP3   OH220523   6.156   7.888   2.342
 6861TIP3    H120524   6.100   7.813   2.361
 6861TIP3    H220525   6.185   7.918   2.429
 6862TIP3   OH220526   3.779   6.458   4.358
 6862TIP3    H120527   3.745   6.369   4.347
 6862TIP3    H220528   3.874   6.449   4.350
 6863TIP3   OH220529   7.028   4.478   3.618
 6863TIP3    H120530   7.006   4.454   3.528
 6863TIP3    H220531   7.096   4.415   3.643
 6864TIP3   OH220532   1.569   4.456   4.777
 6864TIP3    H120533   1.589   4.468   4.870
 6864TIP3    H220534   1.474   4.449   4.773
 6865TIP3   OH220535   1.515   2.642   4.942
 6865TIP3    H120536   1.490   2.733   4.954
 6865TIP3    H220537   1.463   2.612   4.868
 6866TIP3   OH220538   6.713   3.487   2.318
 6866TIP3    H120539   6.692   3.579   2.334
 6866TIP3    H220540   6.770   3.462   2.391
 6867TIP3   OH220541   3.501   6.873   3.160
 6867TIP3    H120542   3.579   6.919   3.131
 6867TIP3    H220543   3.441   6.942   3.187
 6868TIP3   OH220544   1.987   5.538   5.742
 6868TIP3    H120545   1.939   5.607   5.788
 6868TIP3    H220546   1.919   5.481   5.706
 6869TIP3   OH220547   3.823   2.273   2.845
 6869TIP3    H120548   3.848   2.279   2.753
 6869TIP3    H220549   3.827   2.179   2.865
 6870TIP3   OH220550   7.878   1.375   0.841
 6870TIP3    H120551   7.896   1.448   0.782
 6870TIP3    H220552   7.837   1.415   0.918
 6871TIP3   OH220553   0.175   1.381   5.741
 6871TIP3    H120554   0.089   1.358   5.776
 6871TIP3    H220555   0.231   1.307   5.765
 6872TIP3   OH220556   0.888   6.487   0.619
 6872TIP3    H120557   0.835   6.448   0.549
 6872TIP3    H220558   0.978   6.464   0.597
 6873TIP3   OH220559   0.722   2.693   5.255
 6873TIP3    H120560   0.642   2.649   5.225
 6873TIP3    H220561   0.689   2.769   5.304
 6874TIP3   OH220562   8.278   2.943   0.863
 6874TIP3    H120563   8.308   2.910   0.948
 6874TIP3    H220564   8.311   2.878   0.800
 6875TIP3   OH220565   3.616   4.809   4.473
 6875TIP3    H120566   3.561   4.865   4.528
 6875TIP3    H220567   3.689   4.865   4.447
 6876TIP3   OH220568   1.790   0.845   2.281
 6876TIP3    H120569   1.738   0.892   2.216
 6876TIP3    H220570   1.759   0.754   2.275
 6877TIP3   OH220571   2.878   2.657   5.179
 6877TIP3    H120572   2.880   2.752   5.173
 6877TIP3    H220573   2.794   2.638   5.222
 6878TIP3   OH220574   6.687   3.843   5.898
 6878TIP3    H120575   6.701   3.756   5.935
 6878TIP3    H220576   6.693   3.902   5.973
 6879TIP3   OH220577   1.585   1.301   0.739
 6879TIP3    H120578   1.609   1.272   0.828
 6879TIP3    H220579   1.489   1.303   0.740
 6880TIP3   OH220580   8.167   1.501   3.725
 6880TIP3    H120581   8.224   1.447   3.670
 6880TIP3    H220582   8.137   1.443   3.794
 6881TIP3   OH220583   2.650   5.010   1.731
 6881TIP3    H120584   2.723   5.066   1.707
 6881TIP3    H220585   2.619   4.973   1.648
 6882TIP3   OH220586   8.329   4.244   3.473
 6882TIP3    H120587   8.397   4.269   3.411
 6882TIP3    H220588   8.307   4.154   3.448
 6883TIP3   OH220589   0.071   0.410   3.083
 6883TIP3    H120590   0.026   0.429   3.166
 6883TIP3    H220591   0.061   0.490   3.032
 6884TIP3   OH220592   6.993   2.350   0.208
 6884TIP3    H120593   6.950   2.391   0.133
 6884TIP3    H220594   6.924   2.344   0.274
 6885TIP3   OH220595   5.754   6.686   4.548
 6885TIP3    H120596   5.826   6.655   4.493
 6885TIP3    H220597   5.780   6.664   4.637
 6886TIP3   OH220598   2.724   1.238   0.145
 6886TIP3    H120599   2.693   1.147   0.139
 6886TIP3    H220600   2.776   1.240   0.226
 6887TIP3   OH220601   3.434   0.152   3.400
 6887TIP3    H120602   3.502   0.216   3.422
 6887TIP3    H220603   3.352   0.198   3.416
 6888TIP3   OH220604   6.078   5.284   4.639
 6888TIP3    H120605   6.137   5.359   4.632
 6888TIP3    H220606   6.057   5.279   4.733
 6889TIP3   OH220607   7.515   5.650   6.240
 6889TIP3    H120608   7.603   5.659   6.204
 6889TIP3    H220609   7.525   5.583   6.308
 6890TIP3   OH220610   0.252   5.786   1.996
 6890TIP3    H120611   0.221   5.874   1.974
 6890TIP3    H220612   0.330   5.800   2.049
 6891TIP3   OH220613   8.383   0.839   4.239
 6891TIP3    H120614   8.334   0.845   4.321
 6891TIP3    H220615   8.319   0.808   4.175
 6892TIP3   OH220616   7.306   1.885   3.264
 6892TIP3    H120617   7.322   1.958   3.205
 6892TIP3    H220618   7.339   1.808   3.217
 6893TIP3   OH220619   8.205   1.654   2.479
 6893TIP3    H120620   8.130   1.703   2.446
 6893TIP3    H220621   8.204   1.667   2.573
 6894TIP3   OH220622   1.297   4.870   2.296
 6894TIP3    H120623   1.370   4.928   2.276
 6894TIP3    H220624   1.323   4.785   2.260
 6895TIP3   OH220625   7.337   1.223   5.459
 6895TIP3    H120626   7.257   1.234   5.408
 6895TIP3    H220627   7.321   1.146   5.513
 6896TIP3   OH220628   6.134   3.707   2.784
 6896TIP3    H120629   6.130   3.756   2.866
 6896TIP3    H220630   6.046   3.672   2.773
 6897TIP3   OH220631   4.417   7.199   4.992
 6897TIP3    H120632   4.386   7.231   5.077
 6897TIP3    H220633   4.337   7.188   4.941
 6898TIP3   OH220634   1.895   6.987   5.666
 6898TIP3    H120635   1.914   7.080   5.679
 6898TIP3    H220636   1.926   6.945   5.747
 6899TIP3   OH220637   6.346   2.528   4.138
 6899TIP3    H120638   6.255   2.508   4.159
 6899TIP3    H220639   6.359   2.617   4.170
 6900TIP3   OH220640   7.443   6.582   3.834
 6900TIP3    H120641   7.357   6.545   3.856
 6900TIP3    H220642   7.423   6.657   3.777
 6901TIP3   OH220643   5.648   4.700   4.503
 6901TIP3    H120644   5.642   4.784   4.548
 6901TIP3    H220645   5.684   4.640   4.568
 6902TIP3   OH220646   6.799   4.318   0.723
 6902TIP3    H120647   6.713   4.278   0.711
 6902TIP3    H220648   6.786   4.410   0.701
 6903TIP3   OH220649   6.619   6.851   3.260
 6903TIP3    H120650   6.626   6.937   3.218
 6903TIP3    H220651   6.637   6.867   3.352
 6904TIP3   OH220652   4.218   1.131   1.330
 6904TIP3    H120653   4.198   1.049   1.374
 6904TIP3    H220654   4.211   1.111   1.237
 6905TIP3   OH220655   1.539   4.294   2.178
 6905TIP3    H120656   1.617   4.263   2.225
 6905TIP3    H220657   1.469   4.234   2.205
 6906TIP3   OH220658   5.696   0.733   1.458
 6906TIP3    H120659   5.718   0.732   1.551
 6906TIP3    H220660   5.633   0.805   1.449
 6907TIP3   OH220661   6.918   5.415   5.205
 6907TIP3    H120662   6.825   5.401   5.184
 6907TIP3    H220663   6.919   5.494   5.258
 6908TIP3   OH220664   2.787   1.034   2.986
 6908TIP3    H120665   2.815   0.949   3.022
 6908TIP3    H220666   2.859   1.093   3.007
 6909TIP3   OH220667   1.668   5.175   3.612
 6909TIP3    H120668   1.574   5.191   3.602
 6909TIP3    H220669   1.709   5.230   3.545
 6910TIP3   OH220670   7.279   3.274   1.519
 6910TIP3    H120671   7.317   3.353   1.557
 6910TIP3    H220672   7.220   3.306   1.451
 6911TIP3   OH220673   2.763   3.927   1.651
 6911TIP3    H120674   2.757   3.991   1.722
 6911TIP3    H220675   2.693   3.864   1.671
 6912TIP3   OH220676   7.459   6.769   2.991
 6912TIP3    H120677   7.372   6.803   2.973
 6912TIP3    H220678   7.468   6.776   3.086
 6913TIP3   OH220679   5.782   0.305   4.041
 6913TIP3    H120680   5.849   0.238   4.037
 6913TIP3    H220681   5.763   0.314   4.135
 6914TIP3   OH220682   4.307   2.759   0.854
 6914TIP3    H120683   4.376   2.805   0.903
 6914TIP3    H220684   4.250   2.829   0.823
 6915TIP3   OH220685   6.784   3.619   3.886
 6915TIP3    H120686   6.871   3.660   3.884
 6915TIP3    H220687   6.738   3.663   3.957
 6916TIP3   OH220688   0.200   5.105   3.825
 6916TIP3    H120689   0.207   5.069   3.736
 6916TIP3    H220690   0.126   5.166   3.820
 6917TIP3   OH220691   7.229   5.523   4.852
 6917TIP3    H120692   7.167   5.461   4.816
 6917TIP3    H220693   7.236   5.500   4.945
 6918TIP3   OH220694   5.109   4.576   4.956
 6918TIP3    H120695   5.080   4.657   4.997
 6918TIP3    H220696   5.060   4.507   5.000
 6919TIP3   OH220697   4.233   0.183   6.162
 6919TIP3    H120698   4.171   0.142   6.222
 6919TIP3    H220699   4.313   0.192   6.213
 6920TIP3   OH220700   5.474   0.154   6.157
 6920TIP3    H120701   5.516   0.239   6.167
 6920TIP3    H220702   5.545   0.095   6.130
 6921TIP3   OH220703   0.580   4.140   6.829
 6921TIP3    H120704   0.554   4.215   6.776
 6921TIP3    H220705   0.676   4.147   6.835
 6922TIP3   OH220706   6.948   4.676   5.937
 6922TIP3    H120707   6.976   4.701   6.026
 6922TIP3    H220708   6.853   4.668   5.944
 6923TIP3   OH220709   2.780   4.779   4.698
 6923TIP3    H120710   2.726   4.768   4.620
 6923TIP3    H220711   2.802   4.872   4.699
 6924TIP3   OH220712   0.176   2.064   6.365
 6924TIP3    H120713   0.181   2.062   6.269
 6924TIP3    H220714   0.093   2.108   6.384
 6925TIP3   OH220715   6.142   4.207   6.741
 6925TIP3    H120716   6.137   4.294   6.781
 6925TIP3    H220717   6.096   4.150   6.802
 6926TIP3   OH220718   7.577   7.590   6.433
 6926TIP3    H120719   7.606   7.652   6.500
 6926TIP3    H220720   7.601   7.505   6.468
 6927TIP3   OH220721   7.840   4.857   5.940
 6927TIP3    H120722   7.844   4.942   5.985
 6927TIP3    H220723   7.871   4.876   5.852
 6928TIP3   OH220724   2.847   5.432   3.806
 6928TIP3    H120725   2.752   5.437   3.815
 6928TIP3    H220726   2.874   5.370   3.874
 6929TIP3   OH220727   5.845   3.766   3.117
 6929TIP3    H120728   5.801   3.699   3.064
 6929TIP3    H220729   5.796   3.846   3.098
 6930TIP3   OH220730   2.663   5.640   1.915
 6930TIP3    H120731   2.650   5.545   1.912
 6930TIP3    H220732   2.713   5.660   1.836
 6931TIP3   OH220733   7.595   0.086   4.408
 6931TIP3    H120734   7.554   0.127   4.332
 6931TIP3    H220735   7.623   0.000   4.377
 6932TIP3   OH220736   4.460   6.310   1.245
 6932TIP3    H120737   4.504   6.308   1.160
 6932TIP3    H220738   4.374   6.272   1.228
 6933TIP3   OH220739   4.622   0.783   6.883
 6933TIP3    H120740   4.651   0.713   6.824
 6933TIP3    H220741   4.530   0.795   6.862
 6934TIP3   OH220742   5.989   5.063   4.474
 6934TIP3    H120743   5.895   5.077   4.467
 6934TIP3    H220744   6.023   5.146   4.507
 6935TIP3   OH220745   7.237   7.731   3.670
 6935TIP3    H120746   7.229   7.795   3.600
 6935TIP3    H220747   7.291   7.662   3.633
 6936TIP3   OH220748   6.251   3.767   6.668
 6936TIP3    H120749   6.256   3.782   6.762
 6936TIP3    H220750   6.284   3.848   6.629
 6937TIP3   OH220751   1.425   3.127   4.474
 6937TIP3    H120752   1.381   3.202   4.436
 6937TIP3    H220753   1.354   3.067   4.499
 6938TIP3   OH220754   7.167   2.309   2.764
 6938TIP3    H120755   7.234   2.269   2.709
 6938TIP3    H220756   7.167   2.256   2.844
 6939TIP3   OH220757   6.342   3.933   3.754
 6939TIP3    H120758   6.310   3.997   3.691
 6939TIP3    H220759   6.280   3.860   3.746
 6940TIP3   OH220760   8.004   0.733   5.751
 6940TIP3    H120761   7.987   0.719   5.658
 6940TIP3    H220762   8.050   0.654   5.780
 6941TIP3   OH220763   4.508   1.506   4.799
 6941TIP3    H120764   4.554   1.554   4.730
 6941TIP3    H220765   4.572   1.499   4.870
 6942TIP3   OH220766   6.136   2.069   6.035
 6942TIP3    H120767   6.183   2.092   6.115
 6942TIP3    H220768   6.069   2.137   6.026
 6943TIP3   OH220769   0.849   4.499   1.071
 6943TIP3    H120770   0.901   4.577   1.054
 6943TIP3    H220771   0.779   4.528   1.129
 6944TIP3   OH220772   5.254   6.703   2.449
 6944TIP3    H120773   5.218   6.754   2.376
 6944TIP3    H220774   5.324   6.758   2.484
 6945TIP3   OH220775   5.635   6.648   2.603
 6945TIP3    H120776   5.636   6.574   2.664
 6945TIP3    H220777   5.727   6.666   2.584
 6946TIP3   OH220778   3.268   5.191   1.443
 6946TIP3    H120779   3.339   5.130   1.466
 6946TIP3    H220780   3.216   5.143   1.378
 6947TIP3   OH220781   6.885   2.918   1.368
 6947TIP3    H120782   6.811   2.979   1.367
 6947TIP3    H220783   6.955   2.966   1.412
 6948TIP3   OH220784   6.270   4.174   2.495
 6948TIP3    H120785   6.215   4.129   2.432
 6948TIP3    H220786   6.349   4.119   2.502
 6949TIP3   OH220787   2.006   6.965   4.886
 6949TIP3    H120788   2.099   6.977   4.901
 6949TIP3    H220789   1.966   7.049   4.909
 6950TIP3   OH220790   4.202   4.843   0.446
 6950TIP3    H120791   4.175   4.811   0.532
 6950TIP3    H220792   4.155   4.926   0.436
 6951TIP3   OH220793   0.302   2.017   3.623
 6951TIP3    H120794   0.354   2.083   3.668
 6951TIP3    H220795   0.364   1.971   3.567
 6952TIP3   OH220796   5.991   2.331   0.970
 6952TIP3    H120797   6.059   2.370   1.025
 6952TIP3    H220798   5.948   2.267   1.027
 6953TIP3   OH220799   1.404   1.630   6.562
 6953TIP3    H120800   1.376   1.547   6.523
 6953TIP3    H220801   1.397   1.694   6.490
 6954TIP3   OH220802   0.019   2.262   0.031
 6954TIP3    H120803  -0.018   2.211   0.103
 6954TIP3    H220804   0.091   2.311   0.071
 6955TIP3   OH220805   3.560   0.937   2.082
 6955TIP3    H120806   3.480   0.942   2.134
 6955TIP3    H220807   3.621   0.886   2.136
 6956TIP3   OH220808   1.204   3.554   5.485
 6956TIP3    H120809   1.152   3.503   5.547
 6956TIP3    H220810   1.158   3.638   5.479
 6957TIP3   OH220811   2.357   6.220   5.527
 6957TIP3    H120812   2.277   6.211   5.476
 6957TIP3    H220813   2.331   6.267   5.606
 6958TIP3   OH220814   0.368   0.867   1.889
 6958TIP3    H120815   0.378   0.870   1.794
 6958TIP3    H220816   0.425   0.937   1.921
 6959TIP3   OH220817   3.518   1.570   2.240
 6959TIP3    H120818   3.563   1.577   2.324
 6959TIP3    H220819   3.492   1.478   2.235
 6960TIP3   OH220820   2.592   2.592   3.752
 6960TIP3    H120821   2.503   2.560   3.761
 6960TIP3    H220822   2.590   2.649   3.675
 6961TIP3   OH220823   7.669   4.922   5.427
 6961TIP3    H120824   7.728   4.893   5.357
 6961TIP3    H220825   7.605   4.979   5.383
 6962TIP3   OH220826   1.315   2.361   0.349
 6962TIP3    H120827   1.350   2.273   0.331
 6962TIP3    H220828   1.309   2.402   0.263
 6963TIP3   OH220829   7.817   0.608   3.796
 6963TIP3    H120830   7.730   0.626   3.831
 6963TIP3    H220831   7.815   0.644   3.707
 6964TIP3   OH220832   7.191   6.826   5.162
 6964TIP3    H120833   7.162   6.915   5.183
 6964TIP3    H220834   7.286   6.828   5.176
 6965TIP3   OH220835   6.566   4.161   0.713
 6965TIP3    H120836   6.536   4.076   0.743
 6965TIP3    H220837   6.537   4.222   0.781
 6966TIP3   OH220838   0.948   0.169   3.262
 6966TIP3    H120839   0.922   0.192   3.351
 6966TIP3    H220840   0.882   0.211   3.206
 6967TIP3   OH220841  -0.007   3.422   5.990
 6967TIP3    H120842   0.070   3.434   6.047
 6967TIP3    H220843   0.026   3.372   5.915
 6968TIP3   OH220844   5.398   6.131   2.784
 6968TIP3    H120845   5.458   6.110   2.712
 6968TIP3    H220846   5.423   6.070   2.854
 6969TIP3   OH220847   2.484   2.454   5.626
 6969TIP3    H120848   2.464   2.385   5.563
 6969TIP3    H220849   2.402   2.502   5.637
 6970TIP3   OH220850   5.193   2.180   6.337
 6970TIP3    H120851   5.192   2.243   6.409
 6970TIP3    H220852   5.112   2.130   6.349
 6971TIP3   OH220853   6.689   5.719   2.067
 6971TIP3    H120854   6.619   5.718   2.001
 6971TIP3    H220855   6.715   5.627   2.074
 6972TIP3   OH220856   4.572   5.617   6.195
 6972TIP3    H120857   4.550   5.586   6.107
 6972TIP3    H220858   4.584   5.712   6.184
 6973TIP3   OH220859   2.758   4.483   2.042
 6973TIP3    H120860   2.728   4.477   1.952
 6973TIP3    H220861   2.837   4.429   2.044
 6974TIP3   OH220862   2.390   0.110   3.624
 6974TIP3    H120863   2.470   0.104   3.677
 6974TIP3    H220864   2.358   0.019   3.620
 6975TIP3   OH220865   2.090   2.654   4.041
 6975TIP3    H120866   2.063   2.745   4.051
 6975TIP3    H220867   2.165   2.644   4.100
 6976TIP3   OH220868   4.810   1.550   0.209
 6976TIP3    H120869   4.790   1.471   0.259
 6976TIP3    H220870   4.906   1.551   0.204
 6977TIP3   OH220871   4.702   7.291   6.358
 6977TIP3    H120872   4.724   7.383   6.374
 6977TIP3    H220873   4.785   7.244   6.363
 6978TIP3   OH220874   7.479   7.246   4.136
 6978TIP3    H120875   7.517   7.165   4.102
 6978TIP3    H220876   7.442   7.222   4.221
 6979TIP3   OH220877   5.286   6.870   6.043
 6979TIP3    H120878   5.371   6.874   6.001
 6979TIP3    H220879   5.244   6.793   6.005
 6980TIP3   OH220880   8.018   7.699   4.492
 6980TIP3    H120881   7.985   7.611   4.473
 6980TIP3    H220882   7.940   7.754   4.498
 6981TIP3   OH220883   0.774   2.255   2.351
 6981TIP3    H120884   0.707   2.311   2.311
 6981TIP3    H220885   0.835   2.316   2.393
 6982TIP3   OH220886   7.806   6.973   0.923
 6982TIP3    H120887   7.827   6.898   0.979
 6982TIP3    H220888   7.753   7.031   0.978
 6983TIP3   OH220889   8.401   0.860   6.535
 6983TIP3    H120890   8.354   0.902   6.464
 6983TIP3    H220891   8.336   0.806   6.580
 6984TIP3   OH220892   4.901   0.011   4.507
 6984TIP3    H120893   4.900   0.099   4.545
 6984TIP3    H220894   4.829  -0.035   4.551
 6985TIP3   OH220895   4.539   3.618   4.376
 6985TIP3    H120896   4.500   3.601   4.462
 6985TIP3    H220897   4.471   3.593   4.314
 6986TIP3   OH220898   6.140   1.070   2.031
 6986TIP3    H120899   6.146   1.046   2.124
 6986TIP3    H220900   6.069   1.016   1.997
 6987TIP3   OH220901   3.306   5.594   4.834
 6987TIP3    H120902   3.245   5.650   4.881
 6987TIP3    H220903   3.313   5.633   4.747
 6988TIP3   OH220904   3.204   7.748   2.363
 6988TIP3    H120905   3.253   7.677   2.405
 6988TIP3    H220906   3.238   7.828   2.405
 6989TIP3   OH220907   2.400   1.831   4.103
 6989TIP3    H120908   2.318   1.806   4.063
 6989TIP3    H220909   2.384   1.918   4.139
 6990TIP3   OH220910   2.217   3.286   4.261
 6990TIP3    H120911   2.206   3.377   4.233
 6990TIP3    H220912   2.312   3.272   4.258
 6991TIP3   OH220913   6.836   3.625   1.358
 6991TIP3    H120914   6.871   3.564   1.294
 6991TIP3    H220915   6.907   3.687   1.375
 6992TIP3   OH220916   2.054   1.362   1.212
 6992TIP3    H120917   2.063   1.313   1.130
 6992TIP3    H220918   1.969   1.336   1.247
 6993TIP3   OH220919   7.796   0.198   2.401
 6993TIP3    H120920   7.857   0.225   2.470
 6993TIP3    H220921   7.738   0.135   2.444
 6994TIP3   OH220922   0.917   6.957   0.469
 6994TIP3    H120923   0.897   7.029   0.409
 6994TIP3    H220924   0.891   6.989   0.555
 6995TIP3   OH220925   7.942   2.728   1.163
 6995TIP3    H120926   7.896   2.685   1.235
 6995TIP3    H220927   7.964   2.815   1.198
 6996TIP3   OH220928   8.049   4.147   6.126
 6996TIP3    H120929   8.135   4.116   6.154
 6996TIP3    H220930   8.068   4.210   6.056
 6997TIP3   OH220931   1.776   1.593   3.675
 6997TIP3    H120932   1.789   1.676   3.628
 6997TIP3    H220933   1.812   1.526   3.616
 6998TIP3   OH220934   7.241   4.628   2.183
 6998TIP3    H120935   7.250   4.550   2.128
 6998TIP3    H220936   7.175   4.682   2.138
 6999TIP3   OH220937   6.475   0.195   4.979
 6999TIP3    H120938   6.443   0.242   4.902
 6999TIP3    H220939   6.511   0.263   5.035
 7000TIP3   OH220940   6.888   3.605   4.839
 7000TIP3    H120941   6.835   3.552   4.779
 7000TIP3    H220942   6.936   3.665   4.782
 7001TIP3   OH220943   4.865   0.326   0.911
 7001TIP3    H120944   4.813   0.245   0.921
 7001TIP3    H220945   4.841   0.359   0.825
 7002TIP3   OH220946   4.157   4.029   6.340
 7002TIP3    H120947   4.206   4.042   6.258
 7002TIP3    H220948   4.088   3.967   6.317
 7003TIP3   OH220949   3.807   7.763   2.534
 7003TIP3    H120950   3.745   7.691   2.530
 7003TIP3    H220951   3.886   7.729   2.491
 7004TIP3   OH220952   7.470   7.206   2.749
 7004TIP3    H120953   7.467   7.298   2.724
 7004TIP3    H220954   7.484   7.159   2.666
 7005TIP3   OH220955   1.873   6.313   0.972
 7005TIP3    H120956   1.813   6.276   0.907
 7005TIP3    H220957   1.823   6.384   1.013
 7006TIP3   OH220958   3.856   3.033   6.058
 7006TIP3    H120959   3.841   2.981   5.979
 7006TIP3    H220960   3.836   3.123   6.032
 7007TIP3   OH220961   5.986   0.419   0.306
 7007TIP3    H120962   5.954   0.461   0.385
 7007TIP3    H220963   5.979   0.325   0.324
 7008TIP3   OH220964   0.573   3.487   3.818
 7008TIP3    H120965   0.502   3.425   3.834
 7008TIP3    H220966   0.541   3.569   3.856
 7009TIP3   OH220967   0.619   2.657   1.381
 7009TIP3    H120968   0.545   2.716   1.373
 7009TIP3    H220969   0.592   2.593   1.447
 7010TIP3   OH220970   2.936   0.628   6.249
 7010TIP3    H120971   2.963   0.678   6.172
 7010TIP3    H220972   2.840   0.629   6.245
 7011TIP3   OH220973   5.117   0.177   1.769
 7011TIP3    H120974   5.101   0.130   1.851
 7011TIP3    H220975   5.042   0.236   1.760
 7012TIP3   OH220976   7.523   3.168   6.623
 7012TIP3    H120977   7.552   3.237   6.682
 7012TIP3    H220978   7.430   3.185   6.610
 7013TIP3   OH220979   2.054   1.578   6.469
 7013TIP3    H120980   2.085   1.506   6.524
 7013TIP3    H220981   2.027   1.536   6.387
 7014TIP3   OH220982   0.475   1.938   6.506
 7014TIP3    H120983   0.395   1.929   6.557
 7014TIP3    H220984   0.459   1.890   6.425
 7015TIP3   OH220985   3.249   0.205   6.194
 7015TIP3    H120986   3.253   0.197   6.099
 7015TIP3    H220987   3.215   0.294   6.209
 7016TIP3   OH220988   7.597   4.364   5.033
 7016TIP3    H120989   7.675   4.324   4.995
 7016TIP3    H220990   7.540   4.381   4.958
 7017TIP3   OH220991   5.588   6.728   3.141
 7017TIP3    H120992   5.627   6.813   3.162
 7017TIP3    H220993   5.585   6.727   3.045
 7018TIP3   OH220994   1.429   2.927   5.001
 7018TIP3    H120995   1.499   2.923   5.066
 7018TIP3    H220996   1.380   3.006   5.022
 7019TIP3   OH220997   0.354   0.229   5.572
 7019TIP3    H120998   0.262   0.249   5.590
 7019TIP3    H220999   0.367   0.258   5.482
 7020TIP3   OH221000   4.950   1.731   5.531
 7020TIP3    H121001   4.936   1.814   5.485
 7020TIP3    H221002   4.980   1.670   5.464
 7021TIP3   OH221003   2.403   1.735   0.905
 7021TIP3    H121004   2.311   1.713   0.892
 7021TIP3    H221005   2.405   1.776   0.992
 7022TIP3   OH221006   4.313   0.245   6.719
 7022TIP3    H121007   4.270   0.251   6.634
 7022TIP3    H221008   4.308   0.334   6.755
 7023TIP3   OH221009   3.849   3.191   1.290
 7023TIP3    H121010   3.860   3.225   1.201
 7023TIP3    H221011   3.788   3.251   1.332
 7024TIP3   OH221012   4.897   4.235   2.373
 7024TIP3    H121013   4.947   4.154   2.371
 7024TIP3    H221014   4.813   4.211   2.413
 7025TIP3   OH221015   6.800   3.206   0.668
 7025TIP3    H121016   6.785   3.229   0.576
 7025TIP3    H221017   6.736   3.257   0.717
 7026TIP3   OH221018   3.120   4.114   0.475
 7026TIP3    H121019   3.031   4.138   0.502
 7026TIP3    H221020   3.108   4.042   0.414
 7027TIP3   OH221021   4.225   2.890   2.529
 7027TIP3    H121022   4.138   2.852   2.546
 7027TIP3    H221023   4.286   2.831   2.573
 7028TIP3   OH221024   7.162   6.765   0.221
 7028TIP3    H121025   7.239   6.793   0.170
 7028TIP3    H221026   7.165   6.818   0.301
 7029TIP3   OH221027   8.108   1.394   3.216
 7029TIP3    H121028   8.051   1.392   3.292
 7029TIP3    H221029   8.186   1.345   3.242
 7030TIP3   OH221030   3.465   4.141   3.468
 7030TIP3    H121031   3.385   4.159   3.419
 7030TIP3    H221032   3.443   4.162   3.558
 7031TIP3   OH221033   5.375   6.798   1.735
 7031TIP3    H121034   5.450   6.847   1.702
 7031TIP3    H221035   5.349   6.742   1.661
 7032TIP3   OH221036   7.192   6.559   4.650
 7032TIP3    H121037   7.283   6.532   4.635
 7032TIP3    H221038   7.191   6.653   4.630
 7033TIP3   OH221039   6.336   7.538   5.079
 7033TIP3    H121040   6.312   7.472   5.144
 7033TIP3    H221041   6.253   7.569   5.044
 7034TIP3   OH221042   7.221   6.383   4.109
 7034TIP3    H121043   7.208   6.471   4.073
 7034TIP3    H221044   7.181   6.387   4.195
 7035TIP3   OH221045   6.471   0.528   6.481
 7035TIP3    H121046   6.548   0.484   6.519
 7035TIP3    H221047   6.494   0.621   6.481
 7036TIP3   OH221048   7.337   7.922   5.859
 7036TIP3    H121049   7.335   7.927   5.763
 7036TIP3    H221050   7.380   7.838   5.877
 7037TIP3   OH221051   7.169   5.500   3.283
 7037TIP3    H121052   7.180   5.456   3.367
 7037TIP3    H221053   7.094   5.558   3.295
 7038TIP3   OH221054   4.950   4.351   4.484
 7038TIP3    H121055   4.870   4.396   4.512
 7038TIP3    H221056   4.958   4.372   4.391
 7039TIP3   OH221057   2.651   0.650   6.220
 7039TIP3    H121058   2.618   0.737   6.240
 7039TIP3    H221059   2.594   0.618   6.150
 7040TIP3   OH221060   7.222   4.199   0.142
 7040TIP3    H121061   7.281   4.126   0.127
 7040TIP3    H221062   7.138   4.158   0.162
 7041TIP3   OH221063   3.056   2.010   2.649
 7041TIP3    H121064   3.038   2.035   2.559
 7041TIP3    H221065   2.985   1.950   2.672
 7042TIP3   OH221066   0.103   2.764   3.026
 7042TIP3    H121067   0.083   2.671   3.011
 7042TIP3    H221068   0.032   2.796   3.081
 7043TIP3   OH221069   0.745   6.029   2.188
 7043TIP3    H121070   0.806   6.101   2.205
 7043TIP3    H221071   0.660   6.062   2.216
 7044TIP3   OH221072   6.625   1.570   3.063
 7044TIP3    H121073   6.605   1.612   2.980
 7044TIP3    H221074   6.586   1.483   3.056
 7045TIP3   OH221075   0.822   4.637   5.625
 7045TIP3    H121076   0.805   4.692   5.702
 7045TIP3    H221077   0.889   4.685   5.576
 7046TIP3   OH221078   5.813   2.566   5.750
 7046TIP3    H121079   5.821   2.496   5.814
 7046TIP3    H221080   5.763   2.634   5.795
 7047TIP3   OH221081   0.339   7.388   3.275
 7047TIP3    H121082   0.266   7.432   3.318
 7047TIP3    H221083   0.381   7.456   3.223
 7048TIP3   OH221084   5.589   2.304   5.521
 7048TIP3    H121085   5.538   2.244   5.575
 7048TIP3    H221086   5.530   2.377   5.503
 7049TIP3   OH221087   1.177   0.367   5.729
 7049TIP3    H121088   1.130   0.437   5.773
 7049TIP3    H221089   1.153   0.377   5.636
 7050TIP3   OH221090   8.256   5.920   3.179
 7050TIP3    H121091   8.175   5.971   3.171
 7050TIP3    H221092   8.322   5.972   3.132
 7051TIP3   OH221093   1.105   2.918   3.495
 7051TIP3    H121094   1.131   3.007   3.520
 7051TIP3    H221095   1.172   2.891   3.432
 7052TIP3   OH221096   7.341   7.708   1.322
 7052TIP3    H121097   7.400   7.782   1.336
 7052TIP3    H221098   7.254   7.742   1.341
 7053TIP3   OH221099   8.129   4.209   4.746
 7053TIP3    H121100   8.185   4.186   4.821
 7053TIP3    H221101   8.094   4.295   4.769
 7054TIP3   OH221102   7.894   0.224   4.445
 7054TIP3    H121103   7.835   0.231   4.520
 7054TIP3    H221104   7.836   0.210   4.370
 7055TIP3   OH221105   0.327   6.003   3.110
 7055TIP3    H121106   0.325   5.951   3.030
 7055TIP3    H221107   0.406   6.057   3.102
 7056TIP3   OH221108   6.628   0.405   5.152
 7056TIP3    H121109   6.668   0.452   5.078
 7056TIP3    H221110   6.701   0.390   5.212
 7057TIP3   OH221111   6.646   2.350   1.111
 7057TIP3    H121112   6.560   2.320   1.081
 7057TIP3    H221113   6.643   2.342   1.206
 7058TIP3   OH221114   8.060   3.429   2.413
 7058TIP3    H121115   8.138   3.434   2.469
 7058TIP3    H221116   7.999   3.376   2.463
 7059TIP3   OH221117   3.622   1.666   1.774
 7059TIP3    H121118   3.553   1.604   1.800
 7059TIP3    H221119   3.652   1.704   1.857
 7060TIP3   OH221120   3.950   6.400   0.102
 7060TIP3    H121121   4.042   6.380   0.084
 7060TIP3    H221122   3.927   6.342   0.175
 7061TIP3   OH221123   6.508   5.746   5.658
 7061TIP3    H121124   6.467   5.831   5.675
 7061TIP3    H221125   6.531   5.749   5.565
 7062TIP3   OH221126   4.501   0.791   6.511
 7062TIP3    H121127   4.442   0.716   6.522
 7062TIP3    H221128   4.478   0.827   6.426
 7063TIP3   OH221129   1.836   0.098   6.688
 7063TIP3    H121130   1.755   0.109   6.739
 7063TIP3    H221131   1.889   0.038   6.740
 7064TIP3   OH221132   5.368   7.018   0.900
 7064TIP3    H121133   5.420   6.991   0.824
 7064TIP3    H221134   5.277   7.005   0.873
 7065TIP3   OH221135   2.956   5.158   5.456
 7065TIP3    H121136   3.020   5.134   5.390
 7065TIP3    H221137   2.871   5.140   5.415
 7066TIP3   OH221138   0.118   7.055   2.555
 7066TIP3    H121139   0.066   6.976   2.566
 7066TIP3    H221140   0.151   7.074   2.643
 7067TIP3   OH221141   8.272   3.385   2.580
 7067TIP3    H121142   8.297   3.381   2.672
 7067TIP3    H221143   8.333   3.447   2.541
 7068TIP3   OH221144   1.043   7.849   2.579
 7068TIP3    H121145   1.083   7.863   2.665
 7068TIP3    H221146   1.062   7.758   2.558
 7069TIP3   OH221147   2.530   2.926   4.267
 7069TIP3    H121148   2.584   3.005   4.262
 7069TIP3    H221149   2.479   2.937   4.347
 7070TIP3   OH221150   1.685   4.445   1.337
 7070TIP3    H121151   1.748   4.373   1.330
 7070TIP3    H221152   1.607   4.404   1.375
 7071TIP3   OH221153   4.690   4.263   5.209
 7071TIP3    H121154   4.723   4.226   5.127
 7071TIP3    H221155   4.702   4.193   5.273
 7072TIP3   OH221156   0.448   2.443   4.819
 7072TIP3    H121157   0.376   2.383   4.799
 7072TIP3    H221158   0.492   2.404   4.894
 7073TIP3   OH221159   2.422   7.311   6.679
 7073TIP3    H121160   2.340   7.314   6.729
 7073TIP3    H221161   2.480   7.370   6.727
 7074TIP3   OH221162   5.027   3.511   3.574
 7074TIP3    H121163   4.997   3.578   3.513
 7074TIP3    H221164   5.093   3.557   3.628
 7075TIP3   OH221165   0.770   4.500   1.387
 7075TIP3    H121166   0.712   4.564   1.346
 7075TIP3    H221167   0.713   4.447   1.442
 7076TIP3   OH221168   2.996   0.367   6.018
 7076TIP3    H121169   2.988   0.461   6.033
 7076TIP3    H221170   2.908   0.340   5.992
 7077TIP3   OH221171   5.697   5.883   2.142
 7077TIP3    H121172   5.691   5.884   2.238
 7077TIP3    H221173   5.734   5.797   2.121
 7078TIP3   OH221174   4.086   2.220   5.344
 7078TIP3    H121175   4.159   2.173   5.305
 7078TIP3    H221176   4.077   2.182   5.431
 7079TIP3   OH221177   0.634   2.240   0.626
 7079TIP3    H121178   0.708   2.268   0.680
 7079TIP3    H221179   0.621   2.311   0.564
 7080TIP3   OH221180   0.164   0.480   3.421
 7080TIP3    H121181   0.098   0.515   3.360
 7080TIP3    H221182   0.129   0.499   3.508
 7081TIP3   OH221183   5.070   5.666   2.465
 7081TIP3    H121184   5.029   5.739   2.511
 7081TIP3    H221185   4.996   5.619   2.426
 7082TIP3   OH221186   8.137   7.907   1.320
 7082TIP3    H121187   8.111   7.841   1.256
 7082TIP3    H221188   8.120   7.867   1.405
 7083TIP3   OH221189   5.541   3.526   0.205
 7083TIP3    H121190   5.588   3.521   0.288
 7083TIP3    H221191   5.459   3.571   0.226
 7084TIP3   OH221192   3.794   6.030   1.705
 7084TIP3    H121193   3.763   6.086   1.634
 7084TIP3    H221194   3.725   5.964   1.714
 7085TIP3   OH221195   7.072   4.638   0.605
 7085TIP3    H121196   7.150   4.659   0.657
 7085TIP3    H221197   7.107   4.595   0.527
 7086TIP3   OH221198   0.279   4.167   4.310
 7086TIP3    H121199   0.232   4.249   4.326
 7086TIP3    H221200   0.211   4.104   4.289
 7087TIP3   OH221201   5.310   4.155   3.255
 7087TIP3    H121202   5.368   4.091   3.296
 7087TIP3    H221203   5.246   4.102   3.207
 7088TIP3   OH221204   1.373   5.496   4.195
 7088TIP3    H121205   1.389   5.522   4.105
 7088TIP3    H221206   1.343   5.576   4.238
 7089TIP3   OH221207   3.337   3.696   2.323
 7089TIP3    H121208   3.424   3.685   2.283
 7089TIP3    H221209   3.296   3.610   2.314
 7090TIP3   OH221210   6.277   0.773   1.504
 7090TIP3    H121211   6.188   0.763   1.471
 7090TIP3    H221212   6.306   0.684   1.524
 7091TIP3   OH221213   3.073   7.341   6.360
 7091TIP3    H121214   3.123   7.265   6.391
 7091TIP3    H221215   3.037   7.312   6.276
 7092TIP3   OH221216   3.868   3.154   3.169
 7092TIP3    H121217   3.807   3.107   3.226
 7092TIP3    H221218   3.947   3.165   3.222
 7093TIP3   OH221219   2.194   5.082   3.024
 7093TIP3    H121220   2.225   5.003   3.069
 7093TIP3    H221221   2.099   5.071   3.019
 7094TIP3   OH221222   0.010   1.607   2.733
 7094TIP3    H121223   0.097   1.591   2.697
 7094TIP3    H221224   0.000   1.702   2.729
 7095TIP3   OH221225   1.389   2.470   2.931
 7095TIP3    H121226   1.463   2.441   2.877
 7095TIP3    H221227   1.312   2.437   2.884
 7096TIP3   OH221228   4.485   3.893   5.960
 7096TIP3    H121229   4.516   3.903   5.870
 7096TIP3    H221230   4.462   3.801   5.968
 7097TIP3   OH221231   2.627   5.593   4.929
 7097TIP3    H121232   2.586   5.518   4.886
 7097TIP3    H221233   2.609   5.579   5.022
 7098TIP3   OH221234   5.764   1.309   2.579
 7098TIP3    H121235   5.782   1.232   2.633
 7098TIP3    H221236   5.689   1.284   2.526
 7099TIP3   OH221237   2.096   0.846   0.892
 7099TIP3    H121238   2.037   0.895   0.950
 7099TIP3    H221239   2.057   0.854   0.805
 7100TIP3   OH221240   2.460   4.138   4.314
 7100TIP3    H121241   2.454   4.187   4.232
 7100TIP3    H221242   2.423   4.052   4.294
 7101TIP3   OH221243   6.831   0.842   1.963
 7101TIP3    H121244   6.889   0.767   1.950
 7101TIP3    H221245   6.827   0.854   2.058
 7102TIP3   OH221246   0.294   3.507   1.216
 7102TIP3    H121247   0.307   3.575   1.283
 7102TIP3    H221248   0.261   3.431   1.265
 7103TIP3   OH221249   1.547   5.880   0.261
 7103TIP3    H121250   1.497   5.830   0.326
 7103TIP3    H221251   1.626   5.907   0.307
 7104TIP3   OH221252   5.222   3.964   3.983
 7104TIP3    H121253   5.284   4.037   3.973
 7104TIP3    H221254   5.210   3.931   3.894
 7105TIP3   OH221255   6.896   7.026   2.378
 7105TIP3    H121256   6.807   6.997   2.359
 7105TIP3    H221257   6.893   7.058   2.468
 7106TIP3   OH221258   1.429   0.888   0.824
 7106TIP3    H121259   1.473   0.920   0.745
 7106TIP3    H221260   1.434   0.793   0.817
 7107TIP3   OH221261   8.274   1.149   1.393
 7107TIP3    H121262   8.289   1.054   1.393
 7107TIP3    H221263   8.180   1.158   1.407
 7108TIP3   OH221264   1.568   3.607   0.797
 7108TIP3    H121265   1.604   3.600   0.886
 7108TIP3    H221266   1.581   3.698   0.773
 7109TIP3   OH221267   7.841   5.230   4.801
 7109TIP3    H121268   7.905   5.301   4.801
 7109TIP3    H221269   7.776   5.256   4.736
 7110TIP3   OH221270   1.309   5.633   4.606
 7110TIP3    H121271   1.317   5.538   4.612
 7110TIP3    H221272   1.388   5.666   4.650
 7111TIP3   OH221273   0.804   6.284   5.486
 7111TIP3    H121274   0.844   6.262   5.570
 7111TIP3    H221275   0.711   6.292   5.504
 7112TIP3   OH221276   5.395   0.337   1.321
 7112TIP3    H121277   5.464   0.278   1.350
 7112TIP3    H221278   5.412   0.419   1.367
 7113TIP3   OH221279   3.099   0.335   2.641
 7113TIP3    H121280   3.065   0.416   2.603
 7113TIP3    H221281   3.103   0.352   2.735
 7114TIP3   OH221282   1.178   7.472   1.950
 7114TIP3    H121283   1.104   7.429   1.993
 7114TIP3    H221284   1.213   7.407   1.890
 7115TIP3   OH221285   8.022   6.983   3.188
 7115TIP3    H121286   8.027   6.942   3.275
 7115TIP3    H221287   7.931   6.970   3.161
 7116TIP3   OH221288   0.539   6.332   1.300
 7116TIP3    H121289   0.444   6.346   1.310
 7116TIP3    H221290   0.577   6.369   1.379
 7117TIP3   OH221291   5.168   2.895   1.235
 7117TIP3    H121292   5.197   2.978   1.274
 7117TIP3    H221293   5.189   2.829   1.300
 7118TIP3   OH221294   5.499   2.573   3.774
 7118TIP3    H121295   5.406   2.597   3.771
 7118TIP3    H221296   5.527   2.577   3.683
 7119TIP3   OH221297   8.043   5.352   5.187
 7119TIP3    H121298   7.998   5.436   5.189
 7119TIP3    H221299   8.117   5.366   5.128
 7120TIP3   OH221300   7.350   3.847   4.229
 7120TIP3    H121301   7.444   3.844   4.211
 7120TIP3    H221302   7.344   3.853   4.325
 7121TIP3   OH221303   7.114   5.342   3.493
 7121TIP3    H121304   7.044   5.298   3.445
 7121TIP3    H221305   7.069   5.390   3.563
 7122TIP3   OH221306   2.599   6.864   3.437
 7122TIP3    H121307   2.557   6.902   3.515
 7122TIP3    H221308   2.532   6.870   3.369
 7123TIP3   OH221309   4.451   5.554   4.970
 7123TIP3    H121310   4.530   5.609   4.967
 7123TIP3    H221311   4.411   5.574   5.054
 7124TIP3   OH221312   1.812   7.035   6.538
 7124TIP3    H121313   1.787   7.100   6.472
 7124TIP3    H221314   1.907   7.027   6.529
 7125TIP3   OH221315   5.824   4.857   4.738
 7125TIP3    H121316   5.738   4.843   4.777
 7125TIP3    H221317   5.882   4.799   4.787
 7126TIP3   OH221318   6.569   4.950   5.246
 7126TIP3    H121319   6.589   4.863   5.214
 7126TIP3    H221320   6.535   4.936   5.334
 7127TIP3   OH221321   4.864   4.710   6.324
 7127TIP3    H121322   4.955   4.727   6.299
 7127TIP3    H221323   4.824   4.797   6.331
 7128TIP3   OH221324   2.956   4.288   2.138
 7128TIP3    H121325   2.878   4.249   2.177
 7128TIP3    H221326   3.009   4.317   2.212
 7129TIP3   OH221327   3.831   7.231   5.424
 7129TIP3    H121328   3.779   7.236   5.504
 7129TIP3    H221329   3.811   7.312   5.377
 7130TIP3   OH221330   4.288   4.225   1.331
 7130TIP3    H121331   4.299   4.186   1.244
 7130TIP3    H221332   4.279   4.319   1.315
 7131TIP3   OH221333   5.185   7.443   2.753
 7131TIP3    H121334   5.179   7.431   2.658
 7131TIP3    H221335   5.192   7.538   2.764
 7132TIP3   OH221336   3.512   3.015   6.189
 7132TIP3    H121337   3.472   3.061   6.262
 7132TIP3    H221338   3.454   3.032   6.115
 7133TIP3   OH221339   2.372   6.485   1.286
 7133TIP3    H121340   2.411   6.480   1.373
 7133TIP3    H221341   2.309   6.413   1.284
 7134TIP3   OH221342   4.246   5.830   0.561
 7134TIP3    H121343   4.316   5.860   0.504
 7134TIP3    H221344   4.259   5.735   0.567
 7135TIP3   OH221345   5.551   0.662   3.106
 7135TIP3    H121346   5.461   0.686   3.083
 7135TIP3    H221347   5.596   0.651   3.022
 7136TIP3   OH221348   8.166   3.275   2.144
 7136TIP3    H121349   8.173   3.185   2.112
 7136TIP3    H221350   8.236   3.322   2.098
 7137TIP3   OH221351   1.437   3.587   1.447
 7137TIP3    H121352   1.362   3.620   1.497
 7137TIP3    H221353   1.410   3.597   1.355
 7138TIP3   OH221354   3.742   5.522   1.774
 7138TIP3    H121355   3.779   5.477   1.699
 7138TIP3    H221356   3.680   5.459   1.812
 7139TIP3   OH221357   3.284   2.591   0.318
 7139TIP3    H121358   3.218   2.526   0.294
 7139TIP3    H221359   3.349   2.588   0.248
 7140TIP3   OH221360   1.226   3.901   5.500
 7140TIP3    H121361   1.136   3.907   5.469
 7140TIP3    H221362   1.275   3.868   5.424
 7141TIP3   OH221363   1.463   7.531   2.381
 7141TIP3    H121364   1.530   7.499   2.320
 7141TIP3    H221365   1.381   7.526   2.331
 7142TIP3   OH221366   4.266   1.358   6.152
 7142TIP3    H121367   4.268   1.267   6.182
 7142TIP3    H221368   4.330   1.403   6.206
 7143TIP3   OH221369   0.846   4.732   2.840
 7143TIP3    H121370   0.752   4.723   2.831
 7143TIP3    H221371   0.877   4.644   2.863
 7144TIP3   OH221372   7.361   5.548   1.184
 7144TIP3    H121373   7.374   5.635   1.222
 7144TIP3    H221374   7.370   5.488   1.259
 7145TIP3   OH221375   4.113   4.706   5.107
 7145TIP3    H121376   4.076   4.652   5.037
 7145TIP3    H221377   4.205   4.715   5.084
 7146TIP3   OH221378   2.664   0.094   6.489
 7146TIP3    H121379   2.652   0.009   6.531
 7146TIP3    H221380   2.605   0.153   6.536
 7147TIP3   OH221381   2.146   3.933   0.355
 7147TIP3    H121382   2.145   3.875   0.278
 7147TIP3    H221383   2.091   4.007   0.331
 7148TIP3   OH221384   6.899   6.787   3.742
 7148TIP3    H121385   6.844   6.799   3.665
 7148TIP3    H221386   6.844   6.740   3.805
 7149TIP3   OH221387   1.278   5.658   5.577
 7149TIP3    H121388   1.238   5.672   5.663
 7149TIP3    H221389   1.316   5.743   5.555
 7150TIP3   OH221390   2.466   7.642   3.563
 7150TIP3    H121391   2.517   7.643   3.482
 7150TIP3    H221392   2.497   7.564   3.609
 7151TIP3   OH221393   8.061   6.131   2.700
 7151TIP3    H121394   8.120   6.104   2.771
 7151TIP3    H221395   8.057   6.227   2.708
 7152TIP3   OH221396   1.792   3.859   3.672
 7152TIP3    H121397   1.763   3.780   3.626
 7152TIP3    H221398   1.860   3.896   3.615
 7153TIP3   OH221399   5.741   4.101   5.705
 7153TIP3    H121400   5.790   4.116   5.623
 7153TIP3    H221401   5.662   4.055   5.677
 7154TIP3   OH221402   6.258   7.834   5.188
 7154TIP3    H121403   6.271   7.837   5.093
 7154TIP3    H221404   6.314   7.904   5.221
 7155TIP3   OH221405   2.530   3.481   6.302
 7155TIP3    H121406   2.510   3.528   6.382
 7155TIP3    H221407   2.544   3.390   6.329
 7156TIP3   OH221408   4.997   7.198   1.469
 7156TIP3    H121409   4.914   7.168   1.431
 7156TIP3    H221410   5.039   7.119   1.502
 7157TIP3   OH221411   0.736   6.224   2.559
 7157TIP3    H121412   0.827   6.197   2.548
 7157TIP3    H221413   0.717   6.205   2.651
 7158TIP3   OH221414   7.386   5.802   3.566
 7158TIP3    H121415   7.310   5.782   3.620
 7158TIP3    H221416   7.427   5.877   3.610
 7159TIP3   OH221417   0.687   5.109   4.275
 7159TIP3    H121418   0.684   5.156   4.358
 7159TIP3    H221419   0.666   5.175   4.209
 7160TIP3   OH221420   0.155   7.582   0.682
 7160TIP3    H121421   0.159   7.520   0.755
 7160TIP3    H221422   0.123   7.664   0.721
 7161TIP3   OH221423   1.428   4.463   3.263
 7161TIP3    H121424   1.347   4.448   3.215
 7161TIP3    H221425   1.497   4.432   3.204
 7162TIP3   OH221426   3.848   1.759   5.585
 7162TIP3    H121427   3.757   1.738   5.608
 7162TIP3    H221428   3.840   1.832   5.523
 7163TIP3   OH221429   4.963   7.115   5.843
 7163TIP3    H121430   4.916   7.050   5.896
 7163TIP3    H221431   4.935   7.200   5.878
 7164TIP3   OH221432   5.426   1.514   3.969
 7164TIP3    H121433   5.502   1.526   4.026
 7164TIP3    H221434   5.409   1.602   3.934
 7165TIP3   OH221435   1.762   5.650   0.164
 7165TIP3    H121436   1.763   5.716   0.095
 7165TIP3    H221437   1.677   5.607   0.154
 7166TIP3   OH221438   1.016   2.586   1.834
 7166TIP3    H121439   0.940   2.591   1.891
 7166TIP3    H221440   0.981   2.603   1.746
 7167TIP3   OH221441   5.110   5.470   1.734
 7167TIP3    H121442   5.181   5.534   1.730
 7167TIP3    H221443   5.117   5.432   1.822
 7168TIP3   OH221444   5.591   1.577   0.935
 7168TIP3    H121445   5.622   1.550   0.848
 7168TIP3    H221446   5.660   1.635   0.968
 7169TIP3   OH221447   0.231   1.639   6.153
 7169TIP3    H121448   0.154   1.657   6.099
 7169TIP3    H221449   0.197   1.591   6.229
 7170TIP3   OH221450   7.899   0.445   3.114
 7170TIP3    H121451   7.810   0.439   3.079
 7170TIP3    H221452   7.925   0.354   3.130
 7171TIP3   OH221453   1.977   0.002   4.048
 7171TIP3    H121454   1.967  -0.011   3.954
 7171TIP3    H221455   2.059   0.051   4.057
 7172TIP3   OH221456   8.173   3.287   1.785
 7172TIP3    H121457   8.259   3.284   1.744
 7172TIP3    H221458   8.143   3.377   1.773
 7173TIP3   OH221459   7.212   5.537   2.688
 7173TIP3    H121460   7.231   5.444   2.698
 7173TIP3    H221461   7.181   5.545   2.598
 7174TIP3   OH221462   5.039   1.635   3.600
 7174TIP3    H121463   5.108   1.570   3.597
 7174TIP3    H221464   5.031   1.667   3.510
 7175TIP3   OH221465   2.030   0.267   3.401
 7175TIP3    H121466   2.021   0.292   3.493
 7175TIP3    H221467   1.940   0.250   3.372
 7176TIP3   OH221468   5.837   0.209   4.836
 7176TIP3    H121469   5.756   0.174   4.800
 7176TIP3    H221470   5.860   0.282   4.780
 7177TIP3   OH221471   7.578   6.175   2.154
 7177TIP3    H121472   7.528   6.167   2.235
 7177TIP3    H221473   7.610   6.265   2.155
 7178TIP3   OH221474   0.186   2.113   4.519
 7178TIP3    H121475   0.233   2.033   4.494
 7178TIP3    H221476   0.141   2.140   4.439
 7179TIP3   OH221477   4.644   4.249   5.612
 7179TIP3    H121478   4.679   4.336   5.594
 7179TIP3    H221479   4.702   4.189   5.565
 7180TIP3   OH221480   2.170   2.524   2.289
 7180TIP3    H121481   2.084   2.529   2.246
 7180TIP3    H221482   2.227   2.577   2.233
 7181TIP3   OH221483   4.330   7.505   3.512
 7181TIP3    H121484   4.379   7.543   3.439
 7181TIP3    H221485   4.290   7.426   3.475
 7182TIP3   OH221486   1.479   0.606   6.584
 7182TIP3    H121487   1.481   0.526   6.531
 7182TIP3    H221488   1.490   0.677   6.520
 7183TIP3   OH221489   1.853   7.908   6.441
 7183TIP3    H121490   1.859   7.972   6.512
 7183TIP3    H221491   1.908   7.835   6.470
 7184TIP3   OH221492   3.275   3.830   3.698
 7184TIP3    H121493   3.352   3.779   3.726
 7184TIP3    H221494   3.215   3.825   3.773
 7185TIP3   OH221495   6.468   2.432   2.158
 7185TIP3    H121496   6.386   2.431   2.208
 7185TIP3    H221497   6.536   2.450   2.224
 7186TIP3   OH221498   6.670   2.619   1.996
 7186TIP3    H121499   6.592   2.565   2.008
 7186TIP3    H221500   6.651   2.673   1.919
 7187TIP3   OH221501   0.444   5.396   1.305
 7187TIP3    H121502   0.464   5.481   1.345
 7187TIP3    H221503   0.377   5.416   1.240
 7188TIP3   OH221504   3.419   2.079   1.976
 7188TIP3    H121505   3.401   2.098   2.068
 7188TIP3    H221506   3.483   2.008   1.978
 7189TIP3   OH221507   5.546   7.300   2.293
 7189TIP3    H121508   5.575   7.214   2.263
 7189TIP3    H221509   5.451   7.300   2.280
 7190TIP3   OH221510   1.503   0.782   2.003
 7190TIP3    H121511   1.533   0.865   1.965
 7190TIP3    H221512   1.575   0.721   1.986
 7191TIP3   OH221513   2.552   0.978   3.607
 7191TIP3    H121514   2.531   1.068   3.583
 7191TIP3    H221515   2.534   0.927   3.528
 7192TIP3   OH221516   2.583   5.792   4.315
 7192TIP3    H121517   2.637   5.870   4.331
 7192TIP3    H221518   2.570   5.792   4.220
 7193TIP3   OH221519   5.926   2.832   2.483
 7193TIP3    H121520   5.897   2.896   2.418
 7193TIP3    H221521   6.022   2.834   2.478
 7194TIP3   OH221522   6.880   1.301   4.797
 7194TIP3    H121523   6.911   1.360   4.866
 7194TIP3    H221524   6.900   1.347   4.716
 7195TIP3   OH221525   0.186   3.668   2.754
 7195TIP3    H121526   0.209   3.694   2.843
 7195TIP3    H221527   0.261   3.695   2.701
 7196TIP3   OH221528   1.307   3.691   3.345
 7196TIP3    H121529   1.288   3.605   3.383
 7196TIP3    H221530   1.250   3.751   3.392
 7197TIP3   OH221531   4.382   1.054   2.155
 7197TIP3    H121532   4.404   0.968   2.193
 7197TIP3    H221533   4.318   1.035   2.087
 7198TIP3   OH221534   7.036   1.780   5.098
 7198TIP3    H121535   7.088   1.848   5.055
 7198TIP3    H221536   7.091   1.750   5.170
 7199TIP3   OH221537   3.372   1.920   1.613
 7199TIP3    H121538   3.452   1.910   1.562
 7199TIP3    H221539   3.381   2.004   1.657
 7200TIP3   OH221540   6.371   5.189   5.560
 7200TIP3    H121541   6.441   5.192   5.495
 7200TIP3    H221542   6.416   5.182   5.644
 7201TIP3   OH221543   6.907   7.433   3.635
 7201TIP3    H121544   6.821   7.463   3.664
 7201TIP3    H221545   6.962   7.435   3.713
 7202TIP3   OH221546   0.454   1.994   0.692
 7202TIP3    H121547   0.514   1.970   0.762
 7202TIP3    H221548   0.495   2.070   0.651
 7203TIP3   OH221549   2.560   1.793   6.736
 7203TIP3    H121550   2.513   1.779   6.818
 7203TIP3    H221551   2.636   1.845   6.761
 7204TIP3   OH221552   0.547   6.797   4.062
 7204TIP3    H121553   0.603   6.723   4.039
 7204TIP3    H221554   0.597   6.874   4.035
 7205TIP3   OH221555   1.945   5.645   4.870
 7205TIP3    H121556   2.040   5.634   4.878
 7205TIP3    H221557   1.914   5.652   4.960
 7206TIP3   OH221558   4.058   4.398   2.686
 7206TIP3    H121559   4.052   4.303   2.696
 7206TIP3    H221560   4.148   4.413   2.657
 7207TIP3   OH221561   1.154   1.776   5.415
 7207TIP3    H121562   1.098   1.776   5.337
 7207TIP3    H221563   1.147   1.865   5.450
 7208TIP3   OH221564   0.535   7.380   5.871
 7208TIP3    H121565   0.544   7.344   5.782
 7208TIP3    H221566   0.590   7.458   5.871
 7209TIP3   OH221567   4.214   3.060   4.548
 7209TIP3    H121568   4.295   3.021   4.515
 7209TIP3    H221569   4.172   2.991   4.599
 7210TIP3   OH221570   5.247   7.095   6.839
 7210TIP3    H121571   5.308   7.062   6.905
 7210TIP3    H221572   5.182   7.026   6.829
 7211TIP3   OH221573   6.069   4.552   6.465
 7211TIP3    H121574   6.135   4.492   6.431
 7211TIP3    H221575   6.096   4.569   6.555
 7212TIP3   OH221576   4.357   7.033   6.278
 7212TIP3    H121577   4.293   7.102   6.296
 7212TIP3    H221578   4.410   7.029   6.357
 7213TIP3   OH221579   5.639   3.493   1.243
 7213TIP3    H121580   5.716   3.463   1.196
 7213TIP3    H221581   5.632   3.586   1.222
 7214TIP3   OH221582   1.335   2.740   6.366
 7214TIP3    H121583   1.263   2.722   6.306
 7214TIP3    H221584   1.399   2.788   6.314
 7215TIP3   OH221585   7.736   1.208   2.869
 7215TIP3    H121586   7.823   1.227   2.903
 7215TIP3    H221587   7.677   1.257   2.926
 7216TIP3   OH221588   3.769   5.711   1.999
 7216TIP3    H121589   3.784   5.782   1.936
 7216TIP3    H221590   3.751   5.635   1.944
 7217TIP3   OH221591   5.441   4.228   4.550
 7217TIP3    H121592   5.463   4.136   4.567
 7217TIP3    H221593   5.354   4.224   4.509
 7218TIP3   OH221594   1.542   2.305  -0.029
 7218TIP3    H121595   1.560   2.252   0.049
 7218TIP3    H221596   1.585   2.389  -0.011
 7219TIP3   OH221597   0.171   3.181   6.216
 7219TIP3    H121598   0.172   3.157   6.309
 7219TIP3    H221599   0.105   3.123   6.177
 7220TIP3   OH221600   5.799   3.033   0.276
 7220TIP3    H121601   5.804   2.938   0.274
 7220TIP3    H221602   5.750   3.056   0.196
 7221TIP3   OH221603   3.821   0.042   1.780
 7221TIP3    H121604   3.755   0.005   1.721
 7221TIP3    H221605   3.888  -0.025   1.787
 7222TIP3   OH221606   0.229   5.845   3.317
 7222TIP3    H121607   0.237   5.922   3.261
 7222TIP3    H221608   0.186   5.876   3.396
 7223TIP3   OH221609   1.689   4.292   0.266
 7223TIP3    H121610   1.649   4.231   0.327
 7223TIP3    H221611   1.780   4.262   0.259
 7224TIP3   OH221612   6.138   3.133   2.754
 7224TIP3    H121613   6.198   3.206   2.769
 7224TIP3    H221614   6.174   3.062   2.807
 7225TIP3   OH221615   6.611   3.493   2.918
 7225TIP3    H121616   6.667   3.570   2.905
 7225TIP3    H221617   6.526   3.529   2.943
 7226TIP3   OH221618   2.051   0.399   2.720
 7226TIP3    H121619   2.046   0.304   2.720
 7226TIP3    H221620   2.011   0.425   2.803
 7227TIP3   OH221621   4.722   2.384   3.672
 7227TIP3    H121622   4.745   2.362   3.581
 7227TIP3    H221623   4.691   2.475   3.667
 7228TIP3   OH221624   4.570   3.203   1.364
 7228TIP3    H121625   4.501   3.170   1.307
 7228TIP3    H221626   4.525   3.226   1.446
 7229TIP3   OH221627   6.254   5.485   3.675
 7229TIP3    H121628   6.321   5.417   3.675
 7229TIP3    H221629   6.172   5.438   3.686
 7230TIP3   OH221630   7.905   6.115   4.725
 7230TIP3    H121631   7.879   6.206   4.742
 7230TIP3    H221632   7.898   6.073   4.811
 7231TIP3   OH221633   3.057   1.592   0.914
 7231TIP3    H121634   3.129   1.529   0.912
 7231TIP3    H221635   2.980   1.541   0.889
 7232TIP3   OH221636   6.459   3.065   3.449
 7232TIP3    H121637   6.410   3.143   3.423
 7232TIP3    H221638   6.407   3.027   3.520
 7233TIP3   OH221639   6.371   1.155   5.519
 7233TIP3    H121640   6.392   1.070   5.480
 7233TIP3    H221641   6.421   1.157   5.601
 7234TIP3   OH221642   7.337   4.120   2.088
 7234TIP3    H121643   7.377   4.099   2.003
 7234TIP3    H221644   7.390   4.072   2.152
 7235TIP3   OH221645   6.956   2.645   0.649
 7235TIP3    H121646   6.989   2.682   0.731
 7235TIP3    H221647   7.034   2.622   0.599
 7236TIP3   OH221648   0.319   4.044   4.786
 7236TIP3    H121649   0.360   4.116   4.738
 7236TIP3    H221650   0.331   4.067   4.878
 7237TIP3   OH221651   7.194   2.691   1.655
 7237TIP3    H121652   7.108   2.674   1.617
 7237TIP3    H221653   7.188   2.659   1.745
 7238TIP3   OH221654   6.291   1.473   5.717
 7238TIP3    H121655   6.252   1.518   5.793
 7238TIP3    H221656   6.348   1.407   5.756
 7239TIP3   OH221657   3.131   4.053   2.071
 7239TIP3    H121658   3.059   3.990   2.079
 7239TIP3    H221659   3.089   4.135   2.045
 7240TIP3   OH221660   1.822   6.170   4.072
 7240TIP3    H121661   1.898   6.112   4.062
 7240TIP3    H221662   1.763   6.122   4.130
 7241TIP3   OH221663   4.433   1.326   4.315
 7241TIP3    H121664   4.400   1.396   4.257
 7241TIP3    H221665   4.418   1.359   4.403
 7242TIP3   OH221666   1.180   6.325   0.893
 7242TIP3    H121667   1.269   6.329   0.927
 7242TIP3    H221668   1.142   6.410   0.916
 7243TIP3   OH221669   2.895   4.070   1.265
 7243TIP3    H121670   2.805   4.102   1.254
 7243TIP3    H221671   2.916   4.029   1.181
 7244TIP3   OH221672   5.936   6.695   6.797
 7244TIP3    H121673   5.895   6.760   6.741
 7244TIP3    H221674   5.917   6.725   6.886
 7245TIP3   OH221675   4.514   1.405   5.683
 7245TIP3    H121676   4.475   1.446   5.761
 7245TIP3    H221677   4.562   1.476   5.640
 7246TIP3   OH221678   2.789   6.255   3.463
 7246TIP3    H121679   2.736   6.278   3.539
 7246TIP3    H221680   2.731   6.270   3.388
 7247TIP3   OH221681   6.004   0.976   3.188
 7247TIP3    H121682   6.085   1.024   3.206
 7247TIP3    H221683   6.020   0.934   3.103
 7248TIP3   OH221684   7.387   2.817   0.669
 7248TIP3    H121685   7.480   2.793   0.668
 7248TIP3    H221686   7.387   2.911   0.687
 7249TIP3   OH221687   0.046   3.263   5.773
 7249TIP3    H121688  -0.026   3.205   5.749
 7249TIP3    H221689   0.109   3.255   5.701
 7250TIP3   OH221690   1.843   6.512   5.602
 7250TIP3    H121691   1.857   6.437   5.659
 7250TIP3    H221692   1.846   6.476   5.513
 7251TIP3   OH221693   1.226   2.315   0.629
 7251TIP3    H121694   1.282   2.354   0.562
 7251TIP3    H221695   1.140   2.308   0.587
 7252TIP3   OH221696   3.361   4.769   2.592
 7252TIP3    H121697   3.335   4.774   2.684
 7252TIP3    H221698   3.420   4.842   2.579
 7253TIP3   OH221699   3.112   6.208   5.039
 7253TIP3    H121700   3.053   6.143   5.077
 7253TIP3    H221701   3.067   6.291   5.051
 7254TIP3   OH221702   7.065   3.895   0.822
 7254TIP3    H121703   6.978   3.914   0.788
 7254TIP3    H221704   7.058   3.808   0.861
 7255TIP3   OH221705   0.241   7.151   4.496
 7255TIP3    H121706   0.294   7.199   4.433
 7255TIP3    H221707   0.172   7.110   4.443
 7256TIP3   OH221708   3.566   6.699   3.361
 7256TIP3    H121709   3.563   6.630   3.295
 7256TIP3    H221710   3.539   6.778   3.315
 7257TIP3   OH221711   4.794   2.268   2.012
 7257TIP3    H121712   4.805   2.295   1.921
 7257TIP3    H221713   4.821   2.177   2.014
 7258TIP3   OH221714   1.406   4.259   3.017
 7258TIP3    H121715   1.434   4.168   3.003
 7258TIP3    H221716   1.367   4.285   2.934
 7259TIP3   OH221717   4.668   7.553   2.280
 7259TIP3    H121718   4.664   7.629   2.338
 7259TIP3    H221719   4.702   7.588   2.197
 7260TIP3   OH221720   6.869   3.902   0.359
 7260TIP3    H121721   6.844   3.810   0.361
 7260TIP3    H221722   6.805   3.947   0.414
 7261TIP3   OH221723   6.916   6.229   4.107
 7261TIP3    H121724   6.966   6.201   4.184
 7261TIP3    H221725   6.872   6.309   4.135
 7262TIP3   OH221726   8.224   2.911   5.986
 7262TIP3    H121727   8.243   2.878   5.898
 7262TIP3    H221728   8.131   2.892   5.999
 7263TIP3   OH221729   7.303   7.858   2.428
 7263TIP3    H121730   7.376   7.805   2.397
 7263TIP3    H221731   7.235   7.794   2.451
 7264TIP3   OH221732   2.978   6.354   5.701
 7264TIP3    H121733   2.958   6.361   5.794
 7264TIP3    H221734   3.061   6.400   5.691
 7265TIP3   OH221735   2.360   7.706   5.926
 7265TIP3    H121736   2.311   7.642   5.978
 7265TIP3    H221737   2.423   7.744   5.988
 7266TIP3   OH221738   2.130   1.534   0.682
 7266TIP3    H121739   2.059   1.482   0.643
 7266TIP3    H221740   2.089   1.619   0.702
 7267TIP3   OH221741   7.278   6.688   2.456
 7267TIP3    H121742   7.351   6.695   2.518
 7267TIP3    H221743   7.201   6.672   2.512
 7268TIP3   OH221744   6.811   5.875   4.520
 7268TIP3    H121745   6.857   5.869   4.603
 7268TIP3    H221746   6.719   5.862   4.542
 7269TIP3   OH221747   3.389   6.171   0.176
 7269TIP3    H121748   3.356   6.094   0.130
 7269TIP3    H221749   3.477   6.185   0.139
 7270TIP3   OH221750   7.334   3.049   4.805
 7270TIP3    H121751   7.305   2.963   4.773
 7270TIP3    H221752   7.414   3.067   4.756
 7271TIP3   OH221753   4.721   1.215   3.432
 7271TIP3    H121754   4.753   1.238   3.519
 7271TIP3    H221755   4.719   1.298   3.384
 7272TIP3   OH221756   1.785   3.042   1.633
 7272TIP3    H121757   1.797   2.981   1.560
 7272TIP3    H221758   1.691   3.050   1.643
 7273TIP3   OH221759   1.371   7.186   3.836
 7273TIP3    H121760   1.439   7.182   3.769
 7273TIP3    H221761   1.406   7.136   3.909
 7274TIP3   OH221762   8.064   3.673   6.271
 7274TIP3    H121763   8.034   3.756   6.309
 7274TIP3    H221764   8.041   3.680   6.178
 7275TIP3   OH221765   6.735   5.347   1.139
 7275TIP3    H121766   6.805   5.304   1.188
 7275TIP3    H221767   6.751   5.322   1.047
 7276TIP3   OH221768   1.918   5.449   4.506
 7276TIP3    H121769   1.961   5.387   4.447
 7276TIP3    H221770   1.987   5.480   4.564
 7277TIP3   OH221771   7.588   6.864   5.954
 7277TIP3    H121772   7.633   6.888   6.035
 7277TIP3    H221773   7.501   6.905   5.962
 7278TIP3   OH221774   8.095   1.291   0.229
 7278TIP3    H121775   8.145   1.241   0.164
 7278TIP3    H221776   8.091   1.380   0.193
 7279TIP3   OH221777   1.293   4.281   3.754
 7279TIP3    H121778   1.285   4.348   3.822
 7279TIP3    H221779   1.209   4.284   3.707
 7280TIP3   OH221780   2.544   3.308   3.873
 7280TIP3    H121781   2.476   3.245   3.849
 7280TIP3    H221782   2.615   3.290   3.810
 7281TIP3   OH221783   5.053   7.710   1.285
 7281TIP3    H121784   5.086   7.674   1.202
 7281TIP3    H221785   5.014   7.635   1.329
 7282TIP3   OH221786   7.228   7.489   0.253
 7282TIP3    H121787   7.214   7.486   0.158
 7282TIP3    H221788   7.243   7.398   0.278
 7283TIP3   OH221789   4.418   0.619   4.049
 7283TIP3    H121790   4.416   0.678   4.125
 7283TIP3    H221791   4.440   0.534   4.086
 7284TIP3   OH221792   4.073   4.505   6.796
 7284TIP3    H121793   4.078   4.529   6.889
 7284TIP3    H221794   4.090   4.587   6.749
 7285TIP3   OH221795   1.289   6.710   0.236
 7285TIP3    H121796   1.325   6.680   0.319
 7285TIP3    H221797   1.327   6.650   0.171
 7286TIP3   OH221798   7.804   5.216   3.410
 7286TIP3    H121799   7.823   5.123   3.397
 7286TIP3    H221800   7.709   5.220   3.421
 7287TIP3   OH221801   4.612   2.992   4.697
 7287TIP3    H121802   4.563   2.957   4.771
 7287TIP3    H221803   4.704   2.978   4.719
 7288TIP3   OH221804   4.165   5.480   6.486
 7288TIP3    H121805   4.094   5.535   6.453
 7288TIP3    H221806   4.128   5.437   6.563
 7289TIP3   OH221807   5.509   6.636   6.101
 7289TIP3    H121808   5.589   6.687   6.096
 7289TIP3    H221809   5.463   6.671   6.178
 7290TIP3   OH221810   3.397   6.508   3.843
 7290TIP3    H121811   3.322   6.449   3.835
 7290TIP3    H221812   3.365   6.592   3.812
 7291TIP3   OH221813   0.071   6.267   1.629
 7291TIP3    H121814   0.011   6.195   1.646
 7291TIP3    H221815   0.127   6.235   1.558
 7292TIP3   OH221816   1.627   0.686   5.367
 7292TIP3    H121817   1.572   0.660   5.441
 7292TIP3    H221818   1.703   0.628   5.371
 7293TIP3   OH221819   4.035   0.665   4.478
 7293TIP3    H121820   4.114   0.685   4.528
 7293TIP3    H221821   4.058   0.688   4.388
 7294TIP3   OH221822   8.312   5.933   3.934
 7294TIP3    H121823   8.230   5.892   3.908
 7294TIP3    H221824   8.362   5.862   3.975
 7295TIP3   OH221825   5.096   2.346   5.828
 7295TIP3    H121826   5.189   2.347   5.805
 7295TIP3    H221827   5.086   2.265   5.879
 7296TIP3   OH221828   4.281   2.467   5.321
 7296TIP3    H121829   4.270   2.493   5.412
 7296TIP3    H221830   4.210   2.511   5.275
 7297TIP3   OH221831   0.629   2.267   3.612
 7297TIP3    H121832   0.669   2.354   3.612
 7297TIP3    H221833   0.557   2.273   3.550
 7298TIP3   OH221834   7.411   1.964   2.974
 7298TIP3    H121835   7.449   1.912   2.903
 7298TIP3    H221836   7.480   2.025   2.999
 7299TIP3   OH221837   4.469   5.160   4.350
 7299TIP3    H121838   4.496   5.109   4.273
 7299TIP3    H221839   4.487   5.250   4.325
 7300TIP3   OH221840   2.151   1.952   0.357
 7300TIP3    H121841   2.215   1.925   0.422
 7300TIP3    H221842   2.191   1.931   0.273
 7301TIP3   OH221843   6.349   3.556   2.963
 7301TIP3    H121844   6.259   3.527   2.948
 7301TIP3    H221845   6.340   3.633   3.019
 7302TIP3   OH221846   1.635   5.327   4.453
 7302TIP3    H121847   1.695   5.400   4.462
 7302TIP3    H221848   1.568   5.341   4.519
 7303TIP3   OH221849   5.321   6.902   3.068
 7303TIP3    H121850   5.324   6.977   3.127
 7303TIP3    H221851   5.355   6.829   3.119
 7304TIP3   OH221852   3.314   2.850   1.299
 7304TIP3    H121853   3.334   2.796   1.375
 7304TIP3    H221854   3.318   2.940   1.331
 7305TIP3   OH221855   4.404   1.134   3.087
 7305TIP3    H121856   4.341   1.176   3.145
 7305TIP3    H221857   4.397   1.041   3.107
 7306TIP3   OH221858   4.394   7.544   5.757
 7306TIP3    H121859   4.339   7.600   5.702
 7306TIP3    H221860   4.365   7.455   5.736
 7307TIP3   OH221861   0.341   2.504   4.531
 7307TIP3    H121862   0.387   2.467   4.606
 7307TIP3    H221863   0.400   2.572   4.498
 7308TIP3   OH221864   6.029   1.312   1.887
 7308TIP3    H121865   6.090   1.262   1.941
 7308TIP3    H221866   6.038   1.275   1.799
 7309TIP3   OH221867   3.463   6.262   2.718
 7309TIP3    H121868   3.420   6.201   2.777
 7309TIP3    H221869   3.393   6.321   2.690
 7310TIP3   OH221870   7.079   5.536   5.534
 7310TIP3    H121871   7.066   5.601   5.465
 7310TIP3    H221872   7.063   5.583   5.615
 7311TIP3   OH221873   8.136   0.520   1.088
 7311TIP3    H121874   8.089   0.591   1.043
 7311TIP3    H221875   8.073   0.449   1.094
 7312TIP3   OH221876   2.228   1.758   5.092
 7312TIP3    H121877   2.169   1.783   5.020
 7312TIP3    H221878   2.282   1.688   5.056
 7313TIP3   OH221879   1.731   1.539   5.819
 7313TIP3    H121880   1.645   1.580   5.829
 7313TIP3    H221881   1.770   1.584   5.744
 7314TIP3   OH221882   0.592   7.831   0.049
 7314TIP3    H121883   0.652   7.835   0.123
 7314TIP3    H221884   0.549   7.916   0.046
 7315TIP3   OH221885   4.102   4.624   3.755
 7315TIP3    H121886   4.091   4.580   3.839
 7315TIP3    H221887   4.012   4.645   3.727
 7316TIP3   OH221888   1.167   3.928   1.729
 7316TIP3    H121889   1.125   3.893   1.808
 7316TIP3    H221890   1.155   4.022   1.735
 7317TIP3   OH221891   6.173   5.056   5.418
 7317TIP3    H121892   6.088   5.084   5.453
 7317TIP3    H221893   6.235   5.075   5.488
 7318TIP3   OH221894   2.714   5.209   4.320
 7318TIP3    H121895   2.715   5.272   4.248
 7318TIP3    H221896   2.684   5.259   4.396
 7319TIP3   OH221897   1.632   2.219   4.169
 7319TIP3    H121898   1.683   2.279   4.115
 7319TIP3    H221899   1.641   2.134   4.126
 7320TIP3   OH221900   7.655   1.904   5.131
 7320TIP3    H121901   7.576   1.956   5.134
 7320TIP3    H221902   7.703   1.937   5.055
 7321TIP3   OH221903   0.837   0.786   1.977
 7321TIP3    H121904   0.833   0.850   1.907
 7321TIP3    H221905   0.850   0.702   1.933
 7322TIP3   OH221906   1.564   0.718   4.058
 7322TIP3    H121907   1.648   0.676   4.042
 7322TIP3    H221908   1.586   0.798   4.107
 7323TIP3   OH221909   0.508   1.780   0.443
 7323TIP3    H121910   0.429   1.811   0.487
 7323TIP3    H221911   0.559   1.859   0.425
 7324TIP3   OH221912   8.111   3.435   6.087
 7324TIP3    H121913   8.080   3.354   6.047
 7324TIP3    H221914   8.154   3.482   6.015
 7325TIP3   OH221915   8.106   7.752   1.553
 7325TIP3    H121916   8.135   7.662   1.566
 7325TIP3    H221917   8.104   7.790   1.640
 7326TIP3   OH221918   6.964   7.872   4.804
 7326TIP3    H121919   7.035   7.842   4.747
 7326TIP3    H221920   6.962   7.808   4.875
 7327TIP3   OH221921   4.625   2.458   6.514
 7327TIP3    H121922   4.545   2.435   6.561
 7327TIP3    H221923   4.597   2.527   6.453
 7328TIP3   OH221924   3.807   0.845   3.764
 7328TIP3    H121925   3.816   0.877   3.854
 7328TIP3    H221926   3.760   0.915   3.719
 7329TIP3   OH221927   3.495   1.857   2.308
 7329TIP3    H121928   3.468   1.770   2.282
 7329TIP3    H221929   3.426   1.915   2.276
 7330TIP3   OH221930   2.462   5.351   6.571
 7330TIP3    H121931   2.549   5.361   6.609
 7330TIP3    H221932   2.416   5.432   6.593
 7331TIP3   OH221933   4.481   0.783   1.948
 7331TIP3    H121934   4.479   0.781   2.044
 7331TIP3    H221935   4.571   0.764   1.925
 7332TIP3   OH221936   2.899   0.026   5.937
 7332TIP3    H121937   2.834   0.087   5.974
 7332TIP3    H221938   2.878  -0.058   5.977
 7333TIP3   OH221939   1.366   6.334   2.405
 7333TIP3    H121940   1.457   6.333   2.375
 7333TIP3    H221941   1.356   6.419   2.448
 7334TIP3   OH221942   4.267   0.083   0.037
 7334TIP3    H121943   4.362   0.077   0.047
 7334TIP3    H221944   4.255   0.149  -0.031
 7335TIP3   OH221945   1.833   4.664   1.282
 7335TIP3    H121946   1.776   4.601   1.327
 7335TIP3    H221947   1.921   4.630   1.295
 7336TIP3   OH221948   2.028   4.151   2.884
 7336TIP3    H121949   2.097   4.184   2.940
 7336TIP3    H221950   2.070   4.135   2.800
 7337TIP3   OH221951   6.592   1.913   0.397
 7337TIP3    H121952   6.605   1.850   0.468
 7337TIP3    H221953   6.579   1.859   0.319
 7338TIP3   OH221954   5.090   2.074   5.990
 7338TIP3    H121955   5.033   2.129   6.044
 7338TIP3    H221956   5.146   2.028   6.053
 7339TIP3   OH221957   3.174   7.811   6.220
 7339TIP3    H121958   3.181   7.897   6.261
 7339TIP3    H221959   3.164   7.750   6.293
 7340TIP3   OH221960   4.272   7.645   3.115
 7340TIP3    H121961   4.232   7.560   3.098
 7340TIP3    H221962   4.349   7.626   3.167
 7341TIP3   OH221963   7.497   5.143   6.764
 7341TIP3    H121964   7.497   5.054   6.800
 7341TIP3    H221965   7.437   5.191   6.820
 7342TIP3   OH221966   6.210   0.030   4.645
 7342TIP3    H121967   6.206   0.123   4.670
 7342TIP3    H221968   6.225  -0.016   4.728
 7343TIP3   OH221969   3.097   0.687   3.140
 7343TIP3    H121970   3.071   0.613   3.195
 7343TIP3    H221971   3.052   0.763   3.178
 7344TIP3   OH221972   0.902   0.290   3.495
 7344TIP3    H121973   0.818   0.270   3.535
 7344TIP3    H221974   0.963   0.296   3.568
 7345TIP3   OH221975   3.234   3.412   5.424
 7345TIP3    H121976   3.243   3.478   5.355
 7345TIP3    H221977   3.270   3.332   5.384
 7346TIP3   OH221978   3.891   3.706   0.908
 7346TIP3    H121979   3.912   3.790   0.949
 7346TIP3    H221980   3.823   3.668   0.964
 7347TIP3   OH221981   3.028   1.852   3.378
 7347TIP3    H121982   3.072   1.918   3.324
 7347TIP3    H221983   2.960   1.816   3.320
 7348TIP3   OH221984   2.911   0.361   2.977
 7348TIP3    H121985   2.866   0.291   2.930
 7348TIP3    H221986   2.841   0.422   3.002
 7349TIP3   OH221987   4.743   6.404   3.233
 7349TIP3    H121988   4.740   6.474   3.167
 7349TIP3    H221989   4.820   6.352   3.209
 7350TIP3   OH221990   8.084   0.543   5.260
 7350TIP3    H121991   8.094   0.448   5.264
 7350TIP3    H221992   8.169   0.578   5.287
 7351TIP3   OH221993   8.090   2.845   2.976
 7351TIP3    H121994   8.038   2.847   3.057
 7351TIP3    H221995   8.048   2.778   2.922
 7352TIP3   OH221996   4.106   5.349   1.432
 7352TIP3    H121997   4.188   5.352   1.481
 7352TIP3    H221998   4.126   5.391   1.348
 7353TIP3   OH221999   6.990   0.157   5.310
 7353TIP3    H122000   6.996   0.173   5.216
 7353TIP3    H222001   6.909   0.200   5.337
 7354TIP3   OH222002   5.076   1.813  -0.027
 7354TIP3    H122003   5.124   1.774   0.045
 7354TIP3    H222004   5.014   1.874   0.014
 7355TIP3   OH222005   3.452   3.495   1.662
 7355TIP3    H122006   3.483   3.521   1.749
 7355TIP3    H222007   3.512   3.426   1.634
 7356TIP3   OH222008   1.458   7.273   5.282
 7356TIP3    H122009   1.392   7.332   5.243
 7356TIP3    H222010   1.465   7.301   5.373
 7357TIP3   OH222011   1.961   3.961   3.509
 7357TIP3    H122012   1.933   4.019   3.439
 7357TIP3    H222013   2.039   3.917   3.474
 7358TIP3   OH222014   2.251   0.220   6.416
 7358TIP3    H122015   2.237   0.309   6.449
 7358TIP3    H222016   2.335   0.226   6.370
 7359TIP3   OH222017   4.476   2.829   6.471
 7359TIP3    H122018   4.560   2.841   6.515
 7359TIP3    H222019   4.414   2.807   6.541
 7360TIP3   OH222020   5.775   3.963   3.974
 7360TIP3    H122021   5.818   3.896   4.028
 7360TIP3    H222022   5.826   3.964   3.893
 7361TIP3   OH222023   1.916   2.176   3.419
 7361TIP3    H122024   1.973   2.120   3.471
 7361TIP3    H222025   1.899   2.126   3.339
 7362TIP3   OH222026   3.519   7.431   2.044
 7362TIP3    H122027   3.531   7.486   1.966
 7362TIP3    H222028   3.517   7.342   2.009
 7363TIP3   OH222029   7.590   5.580   3.797
 7363TIP3    H122030   7.684   5.582   3.812
 7363TIP3    H222031   7.579   5.609   3.707
 7364TIP3   OH222032   2.148   5.299   6.224
 7364TIP3    H122033   2.234   5.285   6.186
 7364TIP3    H222034   2.136   5.394   6.225
 7365TIP3   OH222035   1.115   2.200   3.363
 7365TIP3    H122036   1.165   2.179   3.441
 7365TIP3    H222037   1.024   2.183   3.387
 7366TIP3   OH222038   2.837   4.688   4.934
 7366TIP3    H122039   2.820   4.724   4.847
 7366TIP3    H222040   2.927   4.712   4.953
 7367TIP3   OH222041   1.506   1.003   3.928
 7367TIP3    H122042   1.543   0.991   4.016
 7367TIP3    H222043   1.567   1.061   3.883
 7368TIP3   OH222044   3.483   3.340   5.256
 7368TIP3    H122045   3.536   3.266   5.284
 7368TIP3    H222046   3.501   3.409   5.320
 7369TIP3   OH222047   1.620   6.739   3.249
 7369TIP3    H122048   1.643   6.785   3.329
 7369TIP3    H222049   1.614   6.647   3.275
 7370TIP3   OH222050   2.840   4.566   0.798
 7370TIP3    H122051   2.858   4.644   0.746
 7370TIP3    H222052   2.892   4.497   0.757
 7371TIP3   OH222053   0.128   3.820   3.301
 7371TIP3    H122054   0.185   3.897   3.300
 7371TIP3    H222055   0.041   3.853   3.280
 7372TIP3   OH222056   2.421   6.362   1.914
 7372TIP3    H122057   2.357   6.407   1.859
 7372TIP3    H222058   2.429   6.275   1.875
 7373TIP3   OH222059   2.480   4.400   1.278
 7373TIP3    H122060   2.568   4.432   1.295
 7373TIP3    H222061   2.424   4.446   1.341
 7374TIP3   OH222062   7.979   2.166   2.776
 7374TIP3    H122063   7.892   2.135   2.803
 7374TIP3    H222064   8.022   2.089   2.738
 7375TIP3   OH222065   2.348   6.420   5.887
 7375TIP3    H122066   2.380   6.448   5.802
 7375TIP3    H222067   2.310   6.499   5.926
 7376TIP3   OH222068   7.111   0.879   0.953
 7376TIP3    H122069   7.099   0.828   0.873
 7376TIP3    H222070   7.038   0.941   0.954
 7377TIP3   OH222071   7.330  -0.020   2.470
 7377TIP3    H122072   7.319   0.027   2.552
 7377TIP3    H222073   7.285   0.033   2.405
 7378TIP3   OH222074   4.333   6.042   1.632
 7378TIP3    H122075   4.306   6.134   1.633
 7378TIP3    H222076   4.428   6.044   1.628
 7379TIP3   OH222077   4.828   1.102   1.813
 7379TIP3    H122078   4.862   1.086   1.725
 7379TIP3    H222079   4.737   1.072   1.810
 7380TIP3   OH222080   6.561   7.589   6.842
 7380TIP3    H122081   6.598   7.625   6.762
 7380TIP3    H222082   6.619   7.619   6.912
 7381TIP3   OH222083   0.301   4.353   1.633
 7381TIP3    H122084   0.270   4.443   1.620
 7381TIP3    H222085   0.316   4.347   1.727
 7382TIP3   OH222086   5.997   7.284   3.719
 7382TIP3    H122087   6.026   7.229   3.645
 7382TIP3    H222088   6.077   7.299   3.770
 7383TIP3   OH222089   4.696   0.893   0.387
 7383TIP3    H122090   4.732   0.836   0.455
 7383TIP3    H222091   4.771   0.912   0.331
 7384TIP3   OH222092   4.326   5.112   4.597
 7384TIP3    H122093   4.413   5.132   4.633
 7384TIP3    H222094   4.342   5.097   4.504
 7385TIP3   OH222095   7.727   6.023   6.079
 7385TIP3    H122096   7.651   5.965   6.075
 7385TIP3    H222097   7.772   5.997   6.160
 7386TIP3   OH222098   5.874   4.164   1.861
 7386TIP3    H122099   5.860   4.125   1.775
 7386TIP3    H222100   5.955   4.123   1.893
 7387TIP3   OH222101   1.925   0.423   2.979
 7387TIP3    H122102   1.855   0.358   2.968
 7387TIP3    H222103   1.892   0.482   3.047
 7388TIP3   OH222104   6.084   5.327   0.659
 7388TIP3    H122105   5.993   5.354   0.643
 7388TIP3    H222106   6.077   5.243   0.704
 7389TIP3   OH222107   2.809   0.032   2.238
 7389TIP3    H122108   2.831   0.117   2.276
 7389TIP3    H222109   2.799  -0.026   2.313
 7390TIP3   OH222110   2.218   4.990   0.339
 7390TIP3    H122111   2.280   4.917   0.329
 7390TIP3    H222112   2.146   4.952   0.389
 7391TIP3   OH222113   6.567   0.462   2.742
 7391TIP3    H122114   6.524   0.395   2.796
 7391TIP3    H222115   6.514   0.467   2.663
 7392TIP3   OH222116   5.414   6.374   4.405
 7392TIP3    H122117   5.442   6.358   4.495
 7392TIP3    H222118   5.337   6.430   4.413
 7393TIP3   OH222119   8.144   3.108   5.421
 7393TIP3    H122120   8.116   3.062   5.342
 7393TIP3    H222121   8.130   3.201   5.400
 7394TIP3   OH222122   1.192   2.466   4.225
 7394TIP3    H122123   1.191   2.533   4.156
 7394TIP3    H222124   1.153   2.389   4.184
 7395TIP3   OH222125   1.895   1.258   2.105
 7395TIP3    H122126   1.900   1.189   2.171
 7395TIP3    H222127   1.956   1.325   2.135
 7396TIP3   OH222128   1.767   0.285   3.313
 7396TIP3    H122129   1.674   0.265   3.327
 7396TIP3    H222130   1.769   0.380   3.301
 7397TIP3   OH222131   4.400   7.786   3.441
 7397TIP3    H122132   4.317   7.753   3.474
 7397TIP3    H222133   4.376   7.843   3.368
 7398TIP3   OH222134   7.810   0.962   1.882
 7398TIP3    H122135   7.832   0.887   1.938
 7398TIP3    H222136   7.721   0.986   1.907
 7399TIP3   OH222137   0.195   2.916   4.787
 7399TIP3    H122138   0.243   2.833   4.791
 7399TIP3    H222139   0.116   2.896   4.737
 7400TIP3   OH222140   6.371   3.228   6.041
 7400TIP3    H122141   6.306   3.209   6.108
 7400TIP3    H222142   6.342   3.178   5.965
 7401TIP3   OH222143   2.746   1.227   2.649
 7401TIP3    H122144   2.699   1.272   2.579
 7401TIP3    H222145   2.756   1.293   2.717
 7402TIP3   OH222146   6.434   3.140   0.265
 7402TIP3    H122147   6.410   3.232   0.253
 7402TIP3    H222148   6.482   3.117   0.185
 7403TIP3   OH222149   4.011   0.336   5.406
 7403TIP3    H122150   3.941   0.282   5.369
 7403TIP3    H222151   4.089   0.311   5.358
 7404TIP3   OH222152   1.262   4.295   5.783
 7404TIP3    H122153   1.198   4.290   5.712
 7404TIP3    H222154   1.210   4.319   5.860
 7405TIP3   OH222155   6.100   3.833   0.503
 7405TIP3    H122156   6.060   3.844   0.417
 7405TIP3    H222157   6.071   3.910   0.553
 7406TIP3   OH222158   1.375   1.235   3.334
 7406TIP3    H122159   1.307   1.195   3.388
 7406TIP3    H222160   1.389   1.322   3.372
 7407TIP3   OH222161   6.834   2.522   2.685
 7407TIP3    H122162   6.886   2.465   2.629
 7407TIP3    H222163   6.865   2.502   2.774
 7408TIP3   OH222164   3.732   5.767   3.903
 7408TIP3    H122165   3.723   5.781   3.997
 7408TIP3    H222166   3.654   5.717   3.879
 7409TIP3   OH222167   2.890   4.340   2.711
 7409TIP3    H122168   2.942   4.299   2.779
 7409TIP3    H222169   2.902   4.285   2.634
 7410TIP3   OH222170   2.448   5.087   1.290
 7410TIP3    H122171   2.467   5.175   1.257
 7410TIP3    H222172   2.362   5.065   1.252
 7411TIP3   OH222173   0.493   5.749   2.212
 7411TIP3    H122174   0.504   5.654   2.220
 7411TIP3    H222175   0.480   5.779   2.302
 7412TIP3   OH222176   1.639   7.628   4.821
 7412TIP3    H122177   1.697   7.569   4.773
 7412TIP3    H222178   1.578   7.569   4.866
 7413TIP3   OH222179   0.861   7.542   5.572
 7413TIP3    H122180   0.824   7.524   5.658
 7413TIP3    H222181   0.910   7.623   5.584
 7414TIP3   OH222182   4.458   6.008   2.948
 7414TIP3    H122183   4.447   5.918   2.919
 7414TIP3    H222184   4.426   6.009   3.038
 7415TIP3   OH222185   5.774   3.001   5.819
 7415TIP3    H122186   5.769   2.976   5.727
 7415TIP3    H222187   5.687   3.036   5.839
 7416TIP3   OH222188   3.105   7.857   3.630
 7416TIP3    H122189   3.011   7.872   3.617
 7416TIP3    H222190   3.133   7.928   3.687
 7417TIP3   OH222191   5.927   7.170   2.499
 7417TIP3    H122192   5.905   7.152   2.408
 7417TIP3    H222193   5.925   7.265   2.505
 7418TIP3   OH222194   3.389   0.973   3.635
 7418TIP3    H122195   3.422   1.061   3.619
 7418TIP3    H222196   3.365   0.939   3.549
 7419TIP3   OH222197   2.395   4.363   1.020
 7419TIP3    H122198   2.481   4.348   0.981
 7419TIP3    H222199   2.414   4.390   1.110
 7420TIP3   OH222200   6.104   5.315   6.851
 7420TIP3    H122201   6.190   5.281   6.877
 7420TIP3    H222202   6.104   5.312   6.756
 7421TIP3   OH222203   4.980   5.299   4.596
 7421TIP3    H122204   5.050   5.345   4.642
 7421TIP3    H222205   4.962   5.222   4.650
 7422TIP3   OH222206   6.478   1.529   4.469
 7422TIP3    H122207   6.562   1.550   4.510
 7422TIP3    H222208   6.436   1.468   4.530
 7423TIP3   OH222209   1.914   0.760   1.149
 7423TIP3    H122210   1.847   0.824   1.174
 7423TIP3    H222211   1.871   0.704   1.085
 7424TIP3   OH222212   1.166   2.075   1.097
 7424TIP3    H122213   1.129   2.001   1.146
 7424TIP3    H222214   1.253   2.044   1.071
 7425TIP3   OH222215   6.896   7.861   1.140
 7425TIP3    H122216   6.935   7.941   1.106
 7425TIP3    H222217   6.821   7.844   1.082
 7426TIP3   OH222218   2.558   5.408   0.191
 7426TIP3    H122219   2.587   5.347   0.124
 7426TIP3    H222220   2.592   5.493   0.164
 7427TIP3   OH222221   3.414   3.251   4.069
 7427TIP3    H122222   3.414   3.299   4.152
 7427TIP3    H222223   3.489   3.285   4.021
 7428TIP3   OH222224   3.577   2.156   3.489
 7428TIP3    H122225   3.483   2.136   3.485
 7428TIP3    H222226   3.581   2.250   3.504
 7429TIP3   OH222227   4.330   3.794   6.664
 7429TIP3    H122228   4.298   3.842   6.587
 7429TIP3    H222229   4.356   3.863   6.726
 7430TIP3   OH222230   0.463   3.519   3.550
 7430TIP3    H122231   0.489   3.524   3.642
 7430TIP3    H222232   0.490   3.431   3.523
 7431TIP3   OH222233   7.524   7.456   2.605
 7431TIP3    H122234   7.600   7.490   2.652
 7431TIP3    H222235   7.562   7.410   2.530
 7432TIP3   OH222236   7.536   6.438   5.951
 7432TIP3    H122237   7.522   6.516   6.004
 7432TIP3    H222238   7.592   6.382   6.005
 7433TIP3   OH222239   6.840   0.240   6.682
 7433TIP3    H122240   6.839   0.144   6.689
 7433TIP3    H222241   6.882   0.270   6.762
 7434TIP3   OH222242   4.635   6.777   1.342
 7434TIP3    H122243   4.710   6.718   1.331
 7434TIP3    H222244   4.570   6.745   1.280
 7435TIP3   OH222245   3.051   7.462   3.197
 7435TIP3    H122246   2.985   7.518   3.157
 7435TIP3    H222247   3.002   7.395   3.244
 7436TIP3   OH222248   4.592   3.415   1.185
 7436TIP3    H122249   4.574   3.335   1.234
 7436TIP3    H222250   4.558   3.486   1.240
 7437TIP3   OH222251   3.330   5.840   5.168
 7437TIP3    H122252   3.426   5.838   5.173
 7437TIP3    H222253   3.305   5.922   5.210
 7438TIP3   OH222254   2.078   5.016   3.707
 7438TIP3    H122255   2.056   5.035   3.798
 7438TIP3    H222256   2.171   5.040   3.699
 7439TIP3   OH222257   4.199   5.297   4.060
 7439TIP3    H122258   4.119   5.290   4.113
 7439TIP3    H222259   4.191   5.226   3.996
 7440TIP3   OH222260   0.403   3.984   0.019
 7440TIP3    H122261   0.360   3.945   0.095
 7440TIP3    H222262   0.480   4.028   0.056
 7441TIP3   OH222263   1.564   6.755   0.985
 7441TIP3    H122264   1.634   6.802   1.030
 7441TIP3    H222265   1.497   6.822   0.970
 7442TIP3   OH222266   7.852   5.786   0.930
 7442TIP3    H122267   7.871   5.717   0.866
 7442TIP3    H222268   7.919   5.852   0.916
 7443TIP3   OH222269   1.778   0.738   4.976
 7443TIP3    H122270   1.729   0.717   4.896
 7443TIP3    H222271   1.801   0.652   5.013
 7444TIP3   OH222272   0.421   6.273   0.995
 7444TIP3    H122273   0.420   6.287   0.901
 7444TIP3    H222274   0.511   6.294   1.022
 7445TIP3   OH222275   0.608   7.105   5.674
 7445TIP3    H122276   0.635   7.074   5.588
 7445TIP3    H222277   0.610   7.200   5.667
 7446TIP3   OH222278   5.671   0.097   6.798
 7446TIP3    H122279   5.637   0.018   6.757
 7446TIP3    H222280   5.633   0.169   6.747
 7447TIP3   OH222281   1.750   2.448   5.156
 7447TIP3    H122282   1.778   2.497   5.079
 7447TIP3    H222283   1.747   2.357   5.127
 7448TIP3   OH222284   1.763   7.521   0.044
 7448TIP3    H122285   1.669   7.533   0.030
 7448TIP3    H222286   1.770   7.446   0.102
 7449TIP3   OH222287   2.530   6.697   1.215
 7449TIP3    H122288   2.473   6.628   1.250
 7449TIP3    H222289   2.475   6.743   1.151
 7450TIP3   OH222290   1.378   1.676   3.941
 7450TIP3    H122291   1.405   1.633   4.022
 7450TIP3    H222292   1.420   1.762   3.945
 7451TIP3   OH222293   0.538   0.267   5.364
 7451TIP3    H122294   0.605   0.218   5.411
 7451TIP3    H222295   0.521   0.214   5.286
 7452TIP3   OH222296   8.044   0.652   3.229
 7452TIP3    H122297   7.991   0.731   3.232
 7452TIP3    H222298   7.981   0.581   3.214
 7453TIP3   OH222299   6.745   3.537   0.603
 7453TIP3    H122300   6.689   3.607   0.635
 7453TIP3    H222301   6.685   3.470   0.570
 7454TIP3   OH222302   2.112   0.603   4.766
 7454TIP3    H122303   2.038   0.547   4.790
 7454TIP3    H222304   2.144   0.566   4.684
 7455TIP3   OH222305   7.769   2.457   3.206
 7455TIP3    H122306   7.775   2.396   3.279
 7455TIP3    H222307   7.775   2.544   3.245
 7456TIP3   OH222308   2.641   6.041   4.657
 7456TIP3    H122309   2.633   6.052   4.562
 7456TIP3    H222310   2.708   6.105   4.682
 7457TIP3   OH222311   0.871   5.820   2.878
 7457TIP3    H122312   0.900   5.730   2.860
 7457TIP3    H222313   0.891   5.834   2.970
 7458TIP3   OH222314   1.235   1.448   3.458
 7458TIP3    H122315   1.232   1.468   3.552
 7458TIP3    H222316   1.153   1.481   3.423
 7459TIP3   OH222317   6.648   2.864   4.730
 7459TIP3    H122318   6.711   2.907   4.672
 7459TIP3    H222319   6.679   2.883   4.818
 7460TIP3   OH222320   1.431   5.416   5.478
 7460TIP3    H122321   1.443   5.346   5.542
 7460TIP3    H222322   1.348   5.457   5.504
 7461TIP3   OH222323   3.473   1.375   6.550
 7461TIP3    H122324   3.537   1.377   6.479
 7461TIP3    H222325   3.502   1.303   6.607
 7462TIP3   OH222326   3.410   3.385   4.306
 7462TIP3    H122327   3.455   3.465   4.280
 7462TIP3    H222328   3.317   3.408   4.307
 7463TIP3   OH222329   1.120   0.690   6.346
 7463TIP3    H122330   1.124   0.608   6.394
 7463TIP3    H222331   1.190   0.744   6.382
 7464TIP3   OH222332   0.806   5.483   4.196
 7464TIP3    H122333   0.781   5.412   4.137
 7464TIP3    H222334   0.901   5.489   4.187
 7465TIP3   OH222335   0.127   0.492   6.323
 7465TIP3    H122336   0.064   0.476   6.393
 7465TIP3    H222337   0.195   0.545   6.363
 7466TIP3   OH222338   4.999   5.248   3.697
 7466TIP3    H122339   4.996   5.224   3.605
 7466TIP3    H222340   5.025   5.340   3.698
 7467TIP3   OH222341   0.043   5.403   0.691
 7467TIP3    H122342   0.056   5.328   0.633
 7467TIP3    H222343  -0.051   5.405   0.707
 7468TIP3   OH222344   5.009   6.852   0.915
 7468TIP3    H122345   5.036   6.941   0.937
 7468TIP3    H222346   4.915   6.851   0.930
 7469TIP3   OH222347   7.758   6.952   3.237
 7469TIP3    H122348   7.745   6.872   3.287
 7469TIP3    H222349   7.671   6.991   3.232
 7470TIP3   OH222350   4.501   1.736   0.440
 7470TIP3    H122351   4.594   1.728   0.418
 7470TIP3    H222352   4.500   1.748   0.535
 7471TIP3   OH222353   0.309   2.212   2.051
 7471TIP3    H122354   0.325   2.290   2.103
 7471TIP3    H222355   0.295   2.244   1.962
 7472TIP3   OH222356   8.139   1.119   4.473
 7472TIP3    H122357   8.233   1.132   4.484
 7472TIP3    H222358   8.099   1.199   4.506
 7473TIP3   OH222359   4.220   7.752   5.694
 7473TIP3    H122360   4.138   7.768   5.647
 7473TIP3    H222361   4.196   7.757   5.787
 7474TIP3   OH222362   6.427   6.704   1.509
 7474TIP3    H122363   6.340   6.706   1.549
 7474TIP3    H222364   6.487   6.722   1.581
 7475TIP3   OH222365   1.337   6.310   6.238
 7475TIP3    H122366   1.303   6.272   6.319
 7475TIP3    H222367   1.385   6.388   6.266
 7476TIP3   OH222368   7.962   7.201   1.170
 7476TIP3    H122369   7.952   7.122   1.224
 7476TIP3    H222370   7.924   7.271   1.223
 7477TIP3   OH222371   3.207   5.310   2.616
 7477TIP3    H122372   3.118   5.277   2.606
 7477TIP3    H222373   3.241   5.265   2.694
 7478TIP3   OH222374   2.958   0.034   0.091
 7478TIP3    H122375   2.937   0.005   0.179
 7478TIP3    H222376   2.889   0.097   0.069
 7479TIP3   OH222377   3.664   7.862   6.134
 7479TIP3    H122378   3.643   7.822   6.218
 7479TIP3    H222379   3.580   7.894   6.101
 7480TIP3   OH222380   7.281   5.860   0.521
 7480TIP3    H122381   7.247   5.778   0.556
 7480TIP3    H222382   7.227   5.928   0.563
 7481TIP3   OH222383   6.994   1.977   2.715
 7481TIP3    H122384   7.075   2.017   2.747
 7481TIP3    H222385   6.970   1.913   2.783
 7482TIP3   OH222386   7.179   7.569   5.921
 7482TIP3    H122387   7.271   7.578   5.895
 7482TIP3    H222388   7.137   7.524   5.848
 7483TIP3   OH222389   7.734   6.092   2.460
 7483TIP3    H122390   7.829   6.100   2.460
 7483TIP3    H222391   7.717   6.002   2.435
 7484TIP3   OH222392   7.032   4.524   2.814
 7484TIP3    H122393   7.044   4.595   2.877
 7484TIP3    H222394   7.084   4.548   2.738
 7485TIP3   OH222395   2.117   1.300   0.239
 7485TIP3    H122396   2.032   1.273   0.203
 7485TIP3    H222397   2.116   1.269   0.329
 7486TIP3   OH222398   3.889   4.264   0.689
 7486TIP3    H122399   3.848   4.324   0.751
 7486TIP3    H222400   3.881   4.178   0.730
 7487TIP3   OH222401   6.904   4.085   2.521
 7487TIP3    H122402   6.829   4.128   2.481
 7487TIP3    H222403   6.977   4.105   2.463
 7488TIP3   OH222404   5.408   3.507   0.634
 7488TIP3    H122405   5.473   3.532   0.700
 7488TIP3    H222406   5.367   3.428   0.670
 7489TIP3   OH222407   0.104   1.306   3.474
 7489TIP3    H122408   0.189   1.271   3.449
 7489TIP3    H222409   0.122   1.393   3.508
 7490TIP3   OH222410   6.705   1.753   3.259
 7490TIP3    H122411   6.671   1.688   3.197
 7490TIP3    H222412   6.633   1.814   3.272
 7491TIP3   OH222413   5.593   0.319   0.239
 7491TIP3    H122414   5.510   0.343   0.280
 7491TIP3    H222415   5.571   0.305   0.147
 7492TIP3   OH222416   5.904   4.022   4.389
 7492TIP3    H122417   5.971   3.986   4.330
 7492TIP3    H222418   5.948   4.096   4.432
 7493TIP3   OH222419   2.038   7.634   2.182
 7493TIP3    H122420   1.977   7.698   2.219
 7493TIP3    H222421   2.049   7.569   2.251
 7494TIP3   OH222422   0.976   2.711   5.379
 7494TIP3    H122423   0.883   2.693   5.364
 7494TIP3    H222424   1.014   2.626   5.401
 7495TIP3   OH222425   0.644   1.254   4.796
 7495TIP3    H122426   0.622   1.341   4.762
 7495TIP3    H222427   0.713   1.270   4.860
 7496TIP3   OH222428   6.152   0.475   2.844
 7496TIP3    H122429   6.098   0.490   2.922
 7496TIP3    H222430   6.213   0.406   2.871
 7497TIP3   OH222431   2.259   2.610   4.250
 7497TIP3    H122432   2.296   2.695   4.223
 7497TIP3    H222433   2.272   2.607   4.344
 7498TIP3   OH222434   3.810   5.180   1.301
 7498TIP3    H122435   3.864   5.246   1.257
 7498TIP3    H222436   3.720   5.211   1.289
 7499TIP3   OH222437   0.931   1.357   0.759
 7499TIP3    H122438   0.976   1.365   0.675
 7499TIP3    H222439   0.973   1.283   0.802
 7500TIP3   OH222440   4.310   5.600   0.340
 7500TIP3    H122441   4.277   5.552   0.415
 7500TIP3    H222442   4.236   5.604   0.279
 7501TIP3   OH222443   3.966   5.821   0.082
 7501TIP3    H122444   4.017   5.889   0.127
 7501TIP3    H222445   3.898   5.870   0.036
 7502TIP3   OH222446   5.972   3.673   5.898
 7502TIP3    H122447   5.946   3.765   5.901
 7502TIP3    H222448   6.056   3.670   5.944
 7503TIP3   OH222449   8.173   5.558   4.320
 7503TIP3    H122450   8.170   5.600   4.407
 7503TIP3    H222451   8.257   5.513   4.319
 7504TIP3   OH222452   7.497   3.788   1.794
 7504TIP3    H122453   7.488   3.784   1.698
 7504TIP3    H222454   7.437   3.858   1.821
 7505TIP3   OH222455   6.483   5.609   1.415
 7505TIP3    H122456   6.571   5.640   1.435
 7505TIP3    H222457   6.427   5.686   1.422
 7506TIP3   OH222458   0.694   6.010   6.318
 7506TIP3    H122459   0.752   6.033   6.245
 7506TIP3    H222460   0.738   6.046   6.396
 7507TIP3   OH222461   3.549   3.859   4.227
 7507TIP3    H122462   3.637   3.892   4.244
 7507TIP3    H222463   3.491   3.922   4.269
 7508TIP3   OH222464   5.485   6.427   3.868
 7508TIP3    H122465   5.421   6.413   3.938
 7508TIP3    H222466   5.435   6.420   3.787
 7509TIP3   OH222467   7.611   4.871   3.130
 7509TIP3    H122468   7.658   4.822   3.063
 7509TIP3    H222469   7.548   4.924   3.080
 7510TIP3   OH222470   5.476   5.984   6.232
 7510TIP3    H122471   5.501   6.024   6.315
 7510TIP3    H222472   5.454   5.894   6.253
 7511TIP3   OH222473   1.094   4.793   4.492
 7511TIP3    H122474   1.074   4.831   4.407
 7511TIP3    H222475   1.064   4.859   4.555
 7512TIP3   OH222476   1.619   4.582   5.685
 7512TIP3    H122477   1.615   4.529   5.605
 7512TIP3    H222478   1.600   4.521   5.756
 7513TIP3   OH222479   1.640   3.242   6.302
 7513TIP3    H122480   1.577   3.193   6.248
 7513TIP3    H222481   1.711   3.263   6.243
 7514TIP3   OH222482   2.736   1.046   6.449
 7514TIP3    H122483   2.763   0.964   6.491
 7514TIP3    H222484   2.790   1.113   6.490
 7515TIP3   OH222485   3.086   5.149   4.973
 7515TIP3    H122486   3.037   5.227   4.998
 7515TIP3    H222487   3.158   5.144   5.036
 7516TIP3   OH222488   0.736   3.585   4.476
 7516TIP3    H122489   0.677   3.558   4.405
 7516TIP3    H222490   0.822   3.553   4.448
 7517TIP3   OH222491   7.917   4.162   6.527
 7517TIP3    H122492   7.928   4.081   6.476
 7517TIP3    H222493   7.918   4.232   6.461
 7518TIP3   OH222494   3.981   4.745   2.009
 7518TIP3    H122495   4.033   4.666   1.999
 7518TIP3    H222496   3.890   4.714   2.006
 7519TIP3   OH222497   7.653   3.662   3.131
 7519TIP3    H122498   7.746   3.662   3.152
 7519TIP3    H222499   7.649   3.692   3.040
 7520TIP3   OH222500   7.858   2.795   6.728
 7520TIP3    H122501   7.896   2.711   6.703
 7520TIP3    H222502   7.779   2.772   6.777
 7521TIP3   OH222503   4.475   7.306   3.981
 7521TIP3    H122504   4.475   7.298   3.886
 7521TIP3    H222505   4.421   7.233   4.011
 7522TIP3   OH222506   0.390   0.496   5.716
 7522TIP3    H122507   0.412   0.407   5.687
 7522TIP3    H222508   0.474   0.532   5.746
 7523TIP3   OH222509   0.994   6.403   3.679
 7523TIP3    H122510   1.068   6.369   3.629
 7523TIP3    H222511   0.953   6.466   3.621
 7524TIP3   OH222512   5.754   4.570   6.245
 7524TIP3    H122513   5.816   4.578   6.317
 7524TIP3    H222514   5.808   4.548   6.168
 7525TIP3   OH222515   5.324   2.237   2.409
 7525TIP3    H122516   5.230   2.218   2.410
 7525TIP3    H222517   5.359   2.183   2.338
 7526TIP3   OH222518   3.137   3.472   4.368
 7526TIP3    H122519   3.134   3.482   4.463
 7526TIP3    H222520   3.046   3.478   4.340
 7527TIP3   OH222521   4.334   4.282   4.004
 7527TIP3    H122522   4.323   4.353   4.067
 7527TIP3    H222523   4.245   4.261   3.976
 7528TIP3   OH222524   8.050   7.179   1.644
 7528TIP3    H122525   8.119   7.155   1.706
 7528TIP3    H222526   8.055   7.113   1.575
 7529TIP3   OH222527   1.266   5.699   6.714
 7529TIP3    H122528   1.251   5.720   6.806
 7529TIP3    H222529   1.260   5.604   6.710
 7530TIP3   OH222530   8.062   4.456   0.335
 7530TIP3    H122531   8.134   4.516   0.316
 7530TIP3    H222532   8.019   4.493   0.411
 7531TIP3   OH222533   1.532   1.850   4.852
 7531TIP3    H122534   1.549   1.760   4.879
 7531TIP3    H222535   1.582   1.861   4.771
 7532TIP3   OH222536   5.741   7.185   3.380
 7532TIP3    H122537   5.753   7.248   3.310
 7532TIP3    H222538   5.689   7.230   3.446
 7533TIP3   OH222539   5.964   6.954   6.096
 7533TIP3    H122540   6.012   6.967   6.014
 7533TIP3    H222541   5.897   7.022   6.096
 7534TIP3   OH222542   7.975   0.694   6.351
 7534TIP3    H122543   7.926   0.706   6.432
 7534TIP3    H222544   7.973   0.780   6.309
 7535TIP3   OH222545   0.138   6.336   5.169
 7535TIP3    H122546   0.133   6.382   5.085
 7535TIP3    H222547   0.221   6.288   5.164
 7536TIP3   OH222548   5.944   1.028   2.509
 7536TIP3    H122549   5.959   0.949   2.457
 7536TIP3    H222550   5.848   1.035   2.515
 7537TIP3   OH222551   6.085   2.505   4.225
 7537TIP3    H122552   6.016   2.566   4.253
 7537TIP3    H222553   6.085   2.437   4.291
 7538TIP3   OH222554   1.152   6.657   1.014
 7538TIP3    H122555   1.074   6.700   0.978
 7538TIP3    H222556   1.223   6.682   0.954
 7539TIP3   OH222557   0.822   2.038   2.176
 7539TIP3    H122558   0.744   1.985   2.192
 7539TIP3    H222559   0.821   2.104   2.245
 7540TIP3   OH222560   5.998   3.677   2.499
 7540TIP3    H122561   5.969   3.609   2.559
 7540TIP3    H222562   6.044   3.629   2.429
 7541TIP3   OH222563   3.589   2.954   2.195
 7541TIP3    H122564   3.541   2.979   2.116
 7541TIP3    H222565   3.644   2.880   2.167
 7542TIP3   OH222566   7.423   0.267   4.210
 7542TIP3    H122567   7.349   0.207   4.211
 7542TIP3    H222568   7.424   0.304   4.122
 7543TIP3   OH222569   2.980   0.907   3.230
 7543TIP3    H122570   2.989   1.002   3.227
 7543TIP3    H222571   2.893   0.892   3.266
 7544TIP3   OH222572   0.365   7.320   4.290
 7544TIP3    H122573   0.429   7.390   4.281
 7544TIP3    H222574   0.412   7.241   4.264
 7545TIP3   OH222575   1.178   7.698   6.666
 7545TIP3    H122576   1.269   7.725   6.651
 7545TIP3    H222577   1.164   7.711   6.760
 7546TIP3   OH222578   5.614   5.981   1.891
 7546TIP3    H122579   5.638   6.074   1.890
 7546TIP3    H222580   5.653   5.947   1.971
 7547TIP3   OH222581   3.624   4.000   1.163
 7547TIP3    H122582   3.641   3.943   1.088
 7547TIP3    H222583   3.544   3.965   1.202
 7548TIP3   OH222584   7.027   4.288   5.863
 7548TIP3    H122585   6.979   4.293   5.780
 7548TIP3    H222586   7.048   4.195   5.874
 7549TIP3   OH222587   1.582   2.638   5.585
 7549TIP3    H122588   1.553   2.554   5.549
 7549TIP3    H222589   1.677   2.634   5.583
 7550TIP3   OH222590   4.893   0.929   3.513
 7550TIP3    H122591   4.963   0.951   3.574
 7550TIP3    H222592   4.815   0.923   3.567
 7551TIP3   OH222593   7.610   7.133   6.383
 7551TIP3    H122594   7.522   7.166   6.366
 7551TIP3    H222595   7.645   7.192   6.449
 7552TIP3   OH222596   2.758   5.961   2.494
 7552TIP3    H122597   2.685   6.017   2.467
 7552TIP3    H222598   2.798   6.006   2.568
 7553TIP3   OH222599   4.118   4.856   3.080
 7553TIP3    H122600   4.080   4.795   3.144
 7553TIP3    H222601   4.200   4.884   3.120
 7554TIP3   OH222602   0.274   1.682   1.205
 7554TIP3    H122603   0.250   1.610   1.263
 7554TIP3    H222604   0.190   1.717   1.175
 7555TIP3   OH222605   2.305   5.668   6.690
 7555TIP3    H122606   2.383   5.713   6.658
 7555TIP3    H222607   2.232   5.714   6.647
 7556TIP3   OH222608   3.751   7.466   0.595
 7556TIP3    H122609   3.699   7.545   0.582
 7556TIP3    H222610   3.714   7.425   0.672
 7557TIP3   OH222611   4.954   3.770   6.421
 7557TIP3    H122612   4.985   3.796   6.508
 7557TIP3    H222613   4.860   3.788   6.422
 7558TIP3   OH222614   0.963   4.374   5.591
 7558TIP3    H122615   0.926   4.385   5.679
 7558TIP3    H222616   1.039   4.433   5.590
 7559TIP3   OH222617   2.158   5.704   0.292
 7559TIP3    H122618   2.191   5.640   0.229
 7559TIP3    H222619   2.178   5.789   0.252
 7560TIP3   OH222620   8.354   5.260   4.661
 7560TIP3    H122621   8.277   5.213   4.692
 7560TIP3    H222622   8.367   5.229   4.571
 7561TIP3   OH222623   3.952   1.373   4.057
 7561TIP3    H122624   4.030   1.321   4.037
 7561TIP3    H222625   3.914   1.394   3.972
 7562TIP3   OH222626   3.703   7.622   5.892
 7562TIP3    H122627   3.792   7.588   5.882
 7562TIP3    H222628   3.676   7.645   5.803
 7563TIP3   OH222629   3.208   2.668   2.192
 7563TIP3    H122630   3.213   2.649   2.286
 7563TIP3    H222631   3.298   2.686   2.166
 7564TIP3   OH222632   3.824   2.954   2.936
 7564TIP3    H122633   3.757   3.019   2.955
 7564TIP3    H222634   3.852   2.922   3.021
 7565TIP3   OH222635   1.907   4.996   3.244
 7565TIP3    H122636   1.859   4.916   3.226
 7565TIP3    H222637   1.899   5.008   3.339
 7566TIP3   OH222638   7.314   7.953   3.833
 7566TIP3    H122639   7.291   7.922   3.746
 7566TIP3    H222640   7.315   7.875   3.888
 7567TIP3   OH222641   7.904   5.860   1.305
 7567TIP3    H122642   7.933   5.945   1.272
 7567TIP3    H222643   7.981   5.803   1.296
 7568TIP3   OH222644   2.005   1.201   5.799
 7568TIP3    H122645   1.965   1.191   5.713
 7568TIP3    H222646   2.008   1.112   5.834
 7569TIP3   OH222647   3.036   5.811   3.423
 7569TIP3    H122648   3.004   5.812   3.513
 7569TIP3    H222649   2.998   5.889   3.382
 7570TIP3   OH222650   4.422   5.940   0.368
 7570TIP3    H122651   4.461   6.028   0.363
 7570TIP3    H222652   4.413   5.913   0.277
 7571TIP3   OH222653   4.335   6.472   4.461
 7571TIP3    H122654   4.313   6.554   4.417
 7571TIP3    H222655   4.397   6.498   4.530
 7572TIP3   OH222656   3.499   4.961   0.090
 7572TIP3    H122657   3.408   4.951   0.118
 7572TIP3    H222658   3.546   4.984   0.170
 7573TIP3   OH222659   0.380   0.587   6.763
 7573TIP3    H122660   0.430   0.666   6.782
 7573TIP3    H222661   0.371   0.587   6.667
 7574TIP3   OH222662   7.910   6.228   1.457
 7574TIP3    H122663   7.945   6.169   1.390
 7574TIP3    H222664   7.963   6.209   1.534
 7575TIP3   OH222665   5.798   5.177   3.607
 7575TIP3    H122666   5.877   5.208   3.650
 7575TIP3    H222667   5.805   5.082   3.607
 7576TIP3   OH222668   0.136   3.220   0.082
 7576TIP3    H122669   0.104   3.154   0.143
 7576TIP3    H222670   0.060   3.246   0.031
 7577TIP3   OH222671   7.850   0.477   0.910
 7577TIP3    H122672   7.812   0.562   0.887
 7577TIP3    H222673   7.932   0.473   0.860
 7578TIP3   OH222674   2.168   2.896   2.437
 7578TIP3    H122675   2.197   2.806   2.453
 7578TIP3    H222676   2.233   2.950   2.482
 7579TIP3   OH222677   5.863   1.199   5.082
 7579TIP3    H122678   5.921   1.251   5.027
 7579TIP3    H222679   5.816   1.143   5.020
 7580TIP3   OH222680   2.389   7.607   0.552
 7580TIP3    H122681   2.374   7.580   0.462
 7580TIP3    H222682   2.452   7.678   0.547
 7581TIP3   OH222683   6.386   6.669   1.241
 7581TIP3    H122684   6.423   6.686   1.328
 7581TIP3    H222685   6.462   6.672   1.182
 7582TIP3   OH222686   6.645   3.076   5.511
 7582TIP3    H122687   6.553   3.064   5.538
 7582TIP3    H222688   6.687   3.117   5.587
 7583TIP3   OH222689   0.974   6.721   5.776
 7583TIP3    H122690   0.892   6.769   5.771
 7583TIP3    H222691   1.032   6.779   5.826
 7584TIP3   OH222692   2.198   2.989   0.069
 7584TIP3    H122693   2.243   2.995   0.153
 7584TIP3    H222694   2.106   2.973   0.092
 7585TIP3   OH222695   8.088   4.760   0.911
 7585TIP3    H122696   8.077   4.718   0.996
 7585TIP3    H222697   8.118   4.849   0.931
 7586TIP3   OH222698   3.326   1.588   6.718
 7586TIP3    H122699   3.405   1.603   6.665
 7586TIP3    H222700   3.347   1.512   6.772
 7587TIP3   OH222701   6.704   4.886   6.734
 7587TIP3    H122702   6.632   4.909   6.675
 7587TIP3    H222703   6.764   4.836   6.678
 7588TIP3   OH222704   0.339   1.562   6.871
 7588TIP3    H122705   0.366   1.646   6.834
 7588TIP3    H222706   0.407   1.500   6.843
 7589TIP3   OH222707   5.202   2.875   6.303
 7589TIP3    H122708   5.280   2.875   6.359
 7589TIP3    H222709   5.236   2.892   6.215
 7590TIP3   OH222710   8.278   2.033   6.272
 7590TIP3    H122711   8.330   2.048   6.194
 7590TIP3    H222712   8.191   2.067   6.251
 7591TIP3   OH222713   5.018   6.848   3.014
 7591TIP3    H122714   5.063   6.840   3.098
 7591TIP3    H222715   4.932   6.884   3.036
 7592TIP3   OH222716   4.190   4.952   2.810
 7592TIP3    H122717   4.115   4.982   2.862
 7592TIP3    H222718   4.186   4.856   2.816
 7593TIP3   OH222719   2.758   0.153   0.315
 7593TIP3    H122720   2.666   0.153   0.343
 7593TIP3    H222721   2.801   0.091   0.374
 7594TIP3   OH222722   2.460   2.695   4.876
 7594TIP3    H122723   2.545   2.654   4.889
 7594TIP3    H222724   2.410   2.673   4.955
 7595TIP3   OH222725   6.754   4.330   4.654
 7595TIP3    H122726   6.718   4.393   4.592
 7595TIP3    H222727   6.679   4.276   4.679
 7596TIP3   OH222728   4.187   1.481   3.042
 7596TIP3    H122729   4.118   1.435   2.995
 7596TIP3    H222730   4.148   1.505   3.126
 7597TIP3   OH222731   5.215   5.369   0.701
 7597TIP3    H122732   5.221   5.345   0.609
 7597TIP3    H222733   5.291   5.425   0.717
 7598TIP3   OH222734   5.471   1.800   4.224
 7598TIP3    H122735   5.471   1.713   4.263
 7598TIP3    H222736   5.447   1.858   4.296
 7599TIP3   OH222737   3.007   1.879   6.321
 7599TIP3    H122738   2.957   1.929   6.385
 7599TIP3    H222739   3.076   1.939   6.292
 7600TIP3   OH222740   0.740   6.850   5.708
 7600TIP3    H122741   0.691   6.932   5.701
 7600TIP3    H222742   0.740   6.815   5.619
 7601TIP3   OH222743   3.151   3.678   5.317
 7601TIP3    H122744   3.169   3.677   5.223
 7601TIP3    H222745   3.056   3.666   5.323
 7602TIP3   OH222746   0.400   0.155   4.030
 7602TIP3    H122747   0.375   0.089   3.966
 7602TIP3    H222748   0.316   0.185   4.066
 7603TIP3   OH222749   6.189   6.726   0.190
 7603TIP3    H122750   6.220   6.636   0.192
 7603TIP3    H222751   6.268   6.780   0.195
 7604TIP3   OH222752   8.184   1.256   6.850
 7604TIP3    H122753   8.098   1.242   6.811
 7604TIP3    H222754   8.238   1.291   6.779
 7605TIP3   OH222755   4.446   3.189   3.906
 7605TIP3    H122756   4.511   3.232   3.850
 7605TIP3    H222757   4.434   3.102   3.868
 7606TIP3   OH222758   4.102   7.404   4.662
 7606TIP3    H122759   4.174   7.417   4.600
 7606TIP3    H222760   4.040   7.475   4.642
 7607TIP3   OH222761   7.279   2.151   6.120
 7607TIP3    H122762   7.331   2.213   6.172
 7607TIP3    H222763   7.211   2.120   6.180
 7608TIP3   OH222764   6.875   4.008   1.361
 7608TIP3    H122765   6.958   4.003   1.313
 7608TIP3    H222766   6.856   4.101   1.366
 7609TIP3   OH222767   6.022   6.390   0.260
 7609TIP3    H122768   5.998   6.473   0.299
 7609TIP3    H222769   6.117   6.386   0.269
 7610TIP3   OH222770   5.316   6.641   1.141
 7610TIP3    H122771   5.369   6.659   1.064
 7610TIP3    H222772   5.238   6.597   1.108
 7611TIP3   OH222773   2.304   4.997   5.028
 7611TIP3    H122774   2.256   4.932   5.079
 7611TIP3    H222775   2.382   4.950   4.998
 7612TIP3   OH222776   6.999   2.761   2.869
 7612TIP3    H122777   6.946   2.685   2.843
 7612TIP3    H222778   7.038   2.735   2.953
 7613TIP3   OH222779   5.064   1.279   2.411
 7613TIP3    H122780   5.125   1.341   2.452
 7613TIP3    H222781   5.054   1.312   2.322
 7614TIP3   OH222782   5.703   1.544   0.278
 7614TIP3    H122783   5.718   1.525   0.370
 7614TIP3    H222784   5.768   1.492   0.231
 7615TIP3   OH222785   5.415   1.388   3.274
 7615TIP3    H122786   5.439   1.345   3.356
 7615TIP3    H222787   5.392   1.477   3.300
 7616TIP3   OH222788   4.150   0.330   2.355
 7616TIP3    H122789   4.085   0.321   2.424
 7616TIP3    H222790   4.198   0.247   2.357
 7617TIP3   OH222791   4.720   5.310   0.847
 7617TIP3    H122792   4.647   5.263   0.806
 7617TIP3    H222793   4.798   5.270   0.809
 7618TIP3   OH222794   4.425   7.102   0.470
 7618TIP3    H122795   4.359   7.171   0.471
 7618TIP3    H222796   4.472   7.112   0.553
 7619TIP3   OH222797   6.140   7.909   3.267
 7619TIP3    H122798   6.118   7.819   3.290
 7619TIP3    H222799   6.071   7.962   3.307
 7620TIP3   OH222800   7.168   2.652   5.020
 7620TIP3    H122801   7.130   2.681   5.103
 7620TIP3    H222802   7.262   2.649   5.037
 7621TIP3   OH222803   5.818   4.878   6.330
 7621TIP3    H122804   5.725   4.862   6.349
 7621TIP3    H222805   5.833   4.838   6.245
 7622TIP3   OH222806   2.979   7.520   4.806
 7622TIP3    H122807   2.885   7.517   4.786
 7622TIP3    H222808   3.016   7.447   4.757
 7623TIP3   OH222809   1.460   4.102   4.820
 7623TIP3    H122810   1.479   4.060   4.736
 7623TIP3    H222811   1.386   4.161   4.800
 7624TIP3   OH222812   1.564   0.876   3.534
 7624TIP3    H122813   1.550   0.844   3.624
 7624TIP3    H222814   1.498   0.945   3.523
 7625TIP3   OH222815   5.975   3.071   4.048
 7625TIP3    H122816   5.996   2.978   4.048
 7625TIP3    H222817   5.972   3.095   4.141
 7626TIP3   OH222818   5.921  -0.009   4.539
 7626TIP3    H122819   5.941   0.083   4.529
 7626TIP3    H222820   5.992  -0.044   4.593
 7627TIP3   OH222821   5.954   1.133   0.661
 7627TIP3    H122822   5.952   1.101   0.570
 7627TIP3    H222823   6.000   1.217   0.656
 7628TIP3   OH222824   3.997   2.832   0.133
 7628TIP3    H122825   4.061   2.863   0.197
 7628TIP3    H222826   3.933   2.902   0.127
 7629TIP3   OH222827   7.809   7.889   4.368
 7629TIP3    H122828   7.728   7.868   4.415
 7629TIP3    H222829   7.812   7.827   4.296
 7630TIP3   OH222830   6.184   1.153   4.053
 7630TIP3    H122831   6.145   1.195   4.130
 7630TIP3    H222832   6.144   1.196   3.978
 7631TIP3   OH222833   2.766   0.083   4.719
 7631TIP3    H122834   2.831   0.153   4.726
 7631TIP3    H222835   2.696   0.110   4.779
 7632TIP3   OH222836   8.254   3.830   6.457
 7632TIP3    H122837   8.171   3.820   6.503
 7632TIP3    H222838   8.321   3.803   6.520
 7633TIP3   OH222839   1.166   6.701   6.305
 7633TIP3    H122840   1.108   6.772   6.277
 7633TIP3    H222841   1.197   6.729   6.392
 7634TIP3   OH222842   5.029   2.153   1.650
 7634TIP3    H122843   5.109   2.168   1.600
 7634TIP3    H222844   4.974   2.229   1.630
 7635TIP3   OH222845   1.148   0.120   2.511
 7635TIP3    H122846   1.088   0.045   2.509
 7635TIP3    H222847   1.235   0.081   2.504
 7636TIP3   OH222848   6.675   0.537   2.233
 7636TIP3    H122849   6.671   0.596   2.309
 7636TIP3    H222850   6.607   0.472   2.250
 7637TIP3   OH222851   2.002   2.995   6.199
 7637TIP3    H122852   2.063   3.020   6.129
 7637TIP3    H222853   1.964   3.078   6.228
 7638TIP3   OH222854   4.902   0.899   6.584
 7638TIP3    H122855   4.881   0.992   6.579
 7638TIP3    H222856   4.952   0.890   6.665
 7639TIP3   OH222857   4.785   5.868   0.447
 7639TIP3    H122858   4.815   5.939   0.504
 7639TIP3    H222859   4.701   5.841   0.484
 7640TIP3   OH222860   8.164   0.248   3.204
 7640TIP3    H122861   8.213   0.321   3.166
 7640TIP3    H222862   8.214   0.224   3.283
 7641TIP3   OH222863   3.038   6.235   6.193
 7641TIP3    H122864   3.087   6.177   6.135
 7641TIP3    H222865   3.092   6.240   6.272
 7642TIP3   OH222866   4.671   3.904   4.292
 7642TIP3    H122867   4.668   3.809   4.282
 7642TIP3    H222868   4.585   3.934   4.263
 7643TIP3   OH222869   6.910   4.638   5.305
 7643TIP3    H122870   6.841   4.680   5.354
 7643TIP3    H222871   6.986   4.638   5.364
 7644TIP3   OH222872   7.534   5.949   0.713
 7644TIP3    H122873   7.514   6.043   0.709
 7644TIP3    H222874   7.452   5.908   0.737
 7645TIP3   OH222875   1.561   4.494   1.983
 7645TIP3    H122876   1.642   4.523   1.941
 7645TIP3    H222877   1.590   4.434   2.052
 7646TIP3   OH222878   7.758   0.874   6.199
 7646TIP3    H122879   7.712   0.798   6.235
 7646TIP3    H222880   7.717   0.889   6.114
 7647TIP3   OH222881   7.391   3.191   4.377
 7647TIP3    H122882   7.320   3.156   4.431
 7647TIP3    H222883   7.437   3.114   4.344
 7648TIP3   OH222884   7.473   7.208   0.859
 7648TIP3    H122885   7.495   7.141   0.923
 7648TIP3    H222886   7.551   7.216   0.804
 7649TIP3   OH222887   5.336   5.302   6.432
 7649TIP3    H122888   5.321   5.381   6.485
 7649TIP3    H222889   5.314   5.230   6.490
 7650TIP3   OH222890   7.064   6.155   0.561
 7650TIP3    H122891   7.118   6.230   0.536
 7650TIP3    H222892   7.029   6.123   0.478
 7651TIP3   OH222893   0.750   4.706   2.060
 7651TIP3    H122894   0.703   4.736   2.138
 7651TIP3    H222895   0.682   4.674   2.001
 7652TIP3   OH222896   1.919   1.804   0.424
 7652TIP3    H122897   1.856   1.869   0.455
 7652TIP3    H222898   1.999   1.854   0.408
 7653TIP3   OH222899   2.281   5.279   5.003
 7653TIP3    H122900   2.286   5.191   5.042
 7653TIP3    H222901   2.250   5.263   4.914
 7654TIP3   OH222902   2.393   0.485   3.446
 7654TIP3    H122903   2.376   0.408   3.392
 7654TIP3    H222904   2.317   0.542   3.432
 7655TIP3   OH222905   1.053   3.319   3.368
 7655TIP3    H122906   1.073   3.409   3.393
 7655TIP3    H222907   0.979   3.327   3.307
 7656TIP3   OH222908   5.196   2.124   1.883
 7656TIP3    H122909   5.269   2.069   1.853
 7656TIP3    H222910   5.120   2.089   1.837
 7657TIP3   OH222911   4.989   5.870   3.089
 7657TIP3    H122912   5.043   5.933   3.137
 7657TIP3    H222913   5.051   5.806   3.056
 7658TIP3   OH222914   7.039   5.241   4.252
 7658TIP3    H122915   6.966   5.273   4.199
 7658TIP3    H222916   7.052   5.309   4.318
 7659TIP3   OH222917   2.996   4.077   3.468
 7659TIP3    H122918   3.002   4.004   3.529
 7659TIP3    H222919   2.966   4.037   3.386
 7660TIP3   OH222920   2.986   7.613   1.589
 7660TIP3    H122921   2.901   7.651   1.611
 7660TIP3    H222922   3.044   7.644   1.659
 7661TIP3   OH222923   0.521   5.835   3.876
 7661TIP3    H122924   0.531   5.750   3.833
 7661TIP3    H222925   0.592   5.889   3.841
 7662TIP3   OH222926   4.125   1.660   2.817
 7662TIP3    H122927   4.208   1.613   2.815
 7662TIP3    H222928   4.147   1.746   2.853
 7663TIP3   OH222929   2.762   4.232   3.004
 7663TIP3    H122930   2.799   4.208   2.918
 7663TIP3    H222931   2.796   4.319   3.021
 7664TIP3   OH222932   7.872   1.764   2.725
 7664TIP3    H122933   7.797   1.710   2.750
 7664TIP3    H222934   7.845   1.807   2.645
 7665TIP3   OH222935   0.065   7.615   6.363
 7665TIP3    H122936   0.108   7.580   6.441
 7665TIP3    H222937   0.057   7.540   6.304
 7666TIP3   OH222938   3.620   0.769   6.733
 7666TIP3    H122939   3.572   0.717   6.669
 7666TIP3    H222940   3.709   0.772   6.700
 7667TIP3   OH222941   1.216   0.207   0.563
 7667TIP3    H122942   1.135   0.160   0.543
 7667TIP3    H222943   1.284   0.156   0.519
 7668TIP3   OH222944   4.508   1.366   3.912
 7668TIP3    H122945   4.524   1.301   3.981
 7668TIP3    H222946   4.532   1.449   3.953
 7669TIP3   OH222947   2.357   0.960   0.667
 7669TIP3    H122948   2.280   0.912   0.638
 7669TIP3    H222949   2.428   0.895   0.666
 7670TIP3   OH222950   6.479   2.842   0.286
 7670TIP3    H122951   6.548   2.849   0.352
 7670TIP3    H222952   6.521   2.871   0.205
 7671TIP3   OH222953   4.544   0.660   3.780
 7671TIP3    H122954   4.543   0.662   3.875
 7671TIP3    H222955   4.469   0.713   3.753
 7672TIP3   OH222956   4.209   6.078   5.771
 7672TIP3    H122957   4.179   6.042   5.854
 7672TIP3    H222958   4.157   6.032   5.705
 7673TIP3   OH222959   4.847   5.398   3.944
 7673TIP3    H122960   4.752   5.400   3.934
 7673TIP3    H222961   4.882   5.413   3.856
 7674TIP3   OH222962   3.240   0.567   3.641
 7674TIP3    H122963   3.257   0.527   3.555
 7674TIP3    H222964   3.304   0.638   3.647
 7675TIP3   OH222965   1.512   4.714   6.327
 7675TIP3    H122966   1.482   4.660   6.400
 7675TIP3    H222967   1.552   4.653   6.266
 7676TIP3   OH222968   0.310   5.036   6.513
 7676TIP3    H122969   0.300   4.942   6.525
 7676TIP3    H222970   0.289   5.051   6.421
 7677TIP3   OH222971   4.643   2.347   0.196
 7677TIP3    H122972   4.689   2.301   0.267
 7677TIP3    H222973   4.562   2.298   0.184
 7678TIP3   OH222974   6.078   1.574   1.319
 7678TIP3    H122975   6.135   1.589   1.244
 7678TIP3    H222976   5.989   1.581   1.283
 7679TIP3   OH222977   8.213   5.689   0.817
 7679TIP3    H122978   8.178   5.777   0.803
 7679TIP3    H222979   8.292   5.687   0.763
 7680TIP3   OH222980   0.181   2.290   4.749
 7680TIP3    H122981   0.160   2.219   4.688
 7680TIP3    H222982   0.237   2.249   4.814
 7681TIP3   OH222983   0.317   0.274   0.876
 7681TIP3    H122984   0.262   0.233   0.943
 7681TIP3    H222985   0.256   0.326   0.824
 7682TIP3   OH222986   1.479   3.942   2.564
 7682TIP3    H122987   1.407   3.885   2.536
 7682TIP3    H222988   1.442   4.030   2.561
 7683TIP3   OH222989   7.239   5.205   1.244
 7683TIP3    H122990   7.239   5.118   1.203
 7683TIP3    H222991   7.304   5.255   1.195
 7684TIP3   OH222992   5.497   0.505   0.610
 7684TIP3    H122993   5.544   0.449   0.672
 7684TIP3    H222994   5.421   0.537   0.659
 7685TIP3   OH222995   0.010   4.402   1.567
 7685TIP3    H122996   0.010   4.351   1.647
 7685TIP3    H222997   0.092   4.377   1.523
 7686TIP3   OH222998   7.528   1.006   6.079
 7686TIP3    H122999   7.552   1.097   6.061
 7686TIP3    H223000   7.499   1.008   6.171
 7687TIP3   OH223001   4.946   1.059   2.904
 7687TIP3    H123002   4.950   1.155   2.907
 7687TIP3    H223003   4.853   1.038   2.909
 7688TIP3   OH223004   6.714   3.629   5.154
 7688TIP3    H123005   6.619   3.622   5.143
 7688TIP3    H223006   6.743   3.539   5.165
 7689TIP3   OH223007   0.788   1.348   2.054
 7689TIP3    H123008   0.880   1.322   2.043
 7689TIP3    H223009   0.775   1.418   1.990
 7690TIP3   OH223010   7.890   3.978   0.878
 7690TIP3    H123011   7.964   4.022   0.919
 7690TIP3    H223012   7.827   3.966   0.948
 7691TIP3   OH223013   0.017   7.593   1.456
 7691TIP3    H123014   0.090   7.595   1.394
 7691TIP3    H223015  -0.014   7.683   1.459
 7692TIP3   OH223016   1.485   3.094   1.422
 7692TIP3    H123017   1.484   3.184   1.452
 7692TIP3    H223018   1.563   3.087   1.368
 7693TIP3   OH223019   7.623   4.221   1.021
 7693TIP3    H123020   7.538   4.178   1.014
 7693TIP3    H223021   7.661   4.188   1.102
 7694TIP3   OH223022   8.121   3.948   3.796
 7694TIP3    H123023   8.053   3.883   3.816
 7694TIP3    H223024   8.161   3.918   3.715
 7695TIP3   OH223025   5.594   2.467   1.801
 7695TIP3    H123026   5.548   2.547   1.826
 7695TIP3    H223027   5.684   2.479   1.832
 7696TIP3   OH223028   5.660   3.034   3.482
 7696TIP3    H123029   5.639   2.941   3.471
 7696TIP3    H223030   5.577   3.079   3.469
 7697TIP3   OH223031   5.716   7.240   6.686
 7697TIP3    H123032   5.696   7.326   6.722
 7697TIP3    H223033   5.631   7.202   6.665
 7698TIP3   OH223034   7.020   5.542   6.256
 7698TIP3    H123035   6.939   5.507   6.292
 7698TIP3    H223036   7.079   5.547   6.331
 7699TIP3   OH223037   3.184   0.534   5.138
 7699TIP3    H123038   3.242   0.569   5.071
 7699TIP3    H223039   3.116   0.487   5.090
 7700TIP3   OH223040   8.100   3.028   3.247
 7700TIP3    H123041   8.042   2.954   3.230
 7700TIP3    H223042   8.081   3.054   3.337
 7701TIP3   OH223043   5.071   6.222   5.612
 7701TIP3    H123044   5.009   6.159   5.576
 7701TIP3    H223045   5.029   6.307   5.599
 7702TIP3   OH223046   2.683   2.996   2.570
 7702TIP3    H123047   2.729   3.037   2.497
 7702TIP3    H223048   2.699   3.054   2.645
 7703TIP3   OH223049   5.750   2.818   3.070
 7703TIP3    H123050   5.691   2.823   2.995
 7703TIP3    H223051   5.831   2.861   3.040
 7704TIP3   OH223052   3.811   4.275   6.069
 7704TIP3    H123053   3.872   4.230   6.010
 7704TIP3    H223054   3.856   4.357   6.092
 7705TIP3   OH223055   6.330   5.933   4.024
 7705TIP3    H123056   6.408   5.947   3.970
 7705TIP3    H223057   6.326   6.011   4.079
 7706TIP3   OH223058   4.026   6.641   3.815
 7706TIP3    H123059   3.999   6.632   3.906
 7706TIP3    H223060   4.122   6.643   3.818
 7707TIP3   OH223061   2.181   0.074   6.634
 7707TIP3    H123062   2.223   0.120   6.561
 7707TIP3    H223063   2.192   0.132   6.709
 7708TIP3   OH223064   6.237   1.619   3.374
 7708TIP3    H123065   6.312   1.677   3.361
 7708TIP3    H223066   6.201   1.645   3.458
 7709TIP3   OH223067   7.405   2.063   5.130
 7709TIP3    H123068   7.367   2.141   5.171
 7709TIP3    H223069   7.332   2.023   5.083
 7710TIP3   OH223070   6.095   1.986   5.320
 7710TIP3    H123071   6.111   1.910   5.265
 7710TIP3    H223072   6.176   2.037   5.316
 7711TIP3   OH223073   0.169   4.986   5.351
 7711TIP3    H123074   0.117   4.987   5.431
 7711TIP3    H223075   0.104   4.992   5.280
 7712TIP3   OH223076   0.836   5.681   0.397
 7712TIP3    H123077   0.844   5.755   0.457
 7712TIP3    H223078   0.864   5.714   0.312
 7713TIP3   OH223079   4.520   6.365   2.141
 7713TIP3    H123080   4.476   6.442   2.104
 7713TIP3    H223081   4.549   6.394   2.228
 7714TIP3   OH223082   7.475   1.108   1.053
 7714TIP3    H123083   7.433   1.163   0.987
 7714TIP3    H223084   7.528   1.168   1.105
 7715TIP3   OH223085   3.262   7.390   3.062
 7715TIP3    H123086   3.183   7.420   3.105
 7715TIP3    H223087   3.319   7.467   3.059
 7716TIP3   OH223088   1.084   5.982   0.404
 7716TIP3    H123089   0.990   5.979   0.424
 7716TIP3    H223090   1.127   5.962   0.487
 7717TIP3   OH223091   3.787   5.249   0.752
 7717TIP3    H123092   3.716   5.263   0.814
 7717TIP3    H223093   3.758   5.175   0.699
 7718TIP3   OH223094   1.005   7.275   6.517
 7718TIP3    H123095   0.972   7.220   6.589
 7718TIP3    H223096   1.024   7.213   6.447
 7719TIP3   OH223097   7.121   4.081   5.111
 7719TIP3    H123098   7.159   4.160   5.073
 7719TIP3    H223099   7.102   4.105   5.202
 7720TIP3   OH223100   0.639   1.187   3.454
 7720TIP3    H123101   0.713   1.232   3.413
 7720TIP3    H223102   0.625   1.109   3.400
 7721TIP3   OH223103   5.444   3.963   3.412
 7721TIP3    H123104   5.471   3.989   3.499
 7721TIP3    H223105   5.372   3.902   3.426
 7722TIP3   OH223106   7.603   5.454   5.058
 7722TIP3    H123107   7.592   5.404   4.977
 7722TIP3    H223108   7.667   5.521   5.036
 7723TIP3   OH223109   5.179   5.956   3.712
 7723TIP3    H123110   5.113   5.888   3.699
 7723TIP3    H223111   5.263   5.913   3.695
 7724TIP3   OH223112   5.257   5.530   3.534
 7724TIP3    H123113   5.225   5.462   3.475
 7724TIP3    H223114   5.344   5.553   3.500
 7725TIP3   OH223115   5.762   4.046   6.647
 7725TIP3    H123116   5.825   3.976   6.670
 7725TIP3    H223117   5.704   4.006   6.583
 7726TIP3   OH223118   5.578   0.901   0.577
 7726TIP3    H123119   5.648   0.851   0.536
 7726TIP3    H223120   5.502   0.887   0.520
 7727TIP3   OH223121   7.336   3.569   1.386
 7727TIP3    H123122   7.328   3.656   1.347
 7727TIP3    H223123   7.246   3.541   1.402
 7728TIP3   OH223124   3.321   0.532   0.212
 7728TIP3    H123125   3.340   0.558   0.122
 7728TIP3    H223126   3.386   0.578   0.264
 7729TIP3   OH223127   5.612   4.268   0.728
 7729TIP3    H123128   5.579   4.178   0.725
 7729TIP3    H223129   5.548   4.315   0.782
 7730TIP3   OH223130   6.408   3.034   4.858
 7730TIP3    H123131   6.437   3.125   4.865
 7730TIP3    H223132   6.430   2.995   4.942
 7731TIP3   OH223133   5.603  -0.017   1.687
 7731TIP3    H123134   5.552   0.024   1.617
 7731TIP3    H223135   5.578   0.031   1.766
 7732TIP3   OH223136   2.284   5.810   0.556
 7732TIP3    H123137   2.211   5.865   0.529
 7732TIP3    H223138   2.351   5.871   0.585
 7733TIP3   OH223139   4.433   4.906   3.653
 7733TIP3    H123140   4.503   4.882   3.713
 7733TIP3    H223141   4.397   4.823   3.623
 7734TIP3   OH223142   6.920   3.749   4.443
 7734TIP3    H123143   6.931   3.802   4.364
 7734TIP3    H223144   6.994   3.688   4.441
 7735TIP3   OH223145   8.289   0.115   0.945
 7735TIP3    H123146   8.384   0.129   0.940
 7735TIP3    H223147   8.276   0.077   1.032
 7736TIP3   OH223148   2.688   4.165   1.508
 7736TIP3    H123149   2.713   4.072   1.511
 7736TIP3    H223150   2.599   4.164   1.473
 7737TIP3   OH223151   1.790   1.574   5.488
 7737TIP3    H123152   1.725   1.601   5.423
 7737TIP3    H223153   1.765   1.485   5.512
 7738TIP3   OH223154   7.144   1.408   0.546
 7738TIP3    H123155   7.185   1.485   0.507
 7738TIP3    H223156   7.189   1.334   0.505
 7739TIP3   OH223157   3.327   4.273   6.081
 7739TIP3    H123158   3.408   4.276   6.030
 7739TIP3    H223159   3.280   4.197   6.047
 7740TIP3   OH223160   7.765   6.911   6.838
 7740TIP3    H123161   7.837   6.852   6.815
 7740TIP3    H223162   7.809   6.989   6.873
 7741TIP3   OH223163   4.768   6.782   4.584
 7741TIP3    H123164   4.845   6.728   4.569
 7741TIP3    H223165   4.785   6.827   4.666
 7742TIP3   OH223166   8.335   1.418   6.028
 7742TIP3    H123167   8.365   1.388   5.942
 7742TIP3    H223168   8.401   1.383   6.089
 7743TIP3   OH223169   3.826   3.980   4.263
 7743TIP3    H123170   3.897   4.044   4.262
 7743TIP3    H223171   3.870   3.895   4.254
 7744TIP3   OH223172   2.820   6.136   3.801
 7744TIP3    H123173   2.738   6.121   3.753
 7744TIP3    H223174   2.886   6.088   3.750
 7745TIP3   OH223175   1.680   1.804   4.590
 7745TIP3    H123176   1.625   1.800   4.511
 7745TIP3    H223177   1.695   1.713   4.614
 7746TIP3   OH223178   5.873   4.290   0.808
 7746TIP3    H123179   5.785   4.316   0.782
 7746TIP3    H223180   5.873   4.298   0.904
 7747TIP3   OH223181   6.363   6.156   3.327
 7747TIP3    H123182   6.318   6.073   3.341
 7747TIP3    H223183   6.434   6.134   3.265
 7748TIP3   OH223184   4.982   0.249   5.690
 7748TIP3    H123185   5.045   0.177   5.692
 7748TIP3    H223186   4.902   0.211   5.728
 7749TIP3   OH223187   2.889   4.490   2.972
 7749TIP3    H123188   2.895   4.469   2.879
 7749TIP3    H223189   2.822   4.558   2.977
 7750TIP3   OH223190   1.507   1.338   3.916
 7750TIP3    H123191   1.483   1.425   3.948
 7750TIP3    H223192   1.601   1.331   3.932
 7751TIP3   OH223193   1.450   0.518   6.199
 7751TIP3    H123194   1.471   0.610   6.219
 7751TIP3    H223195   1.528   0.485   6.155
 7752TIP3   OH223196   8.171   4.918   2.009
 7752TIP3    H123197   8.106   4.980   1.975
 7752TIP3    H223198   8.182   4.941   2.101
 7753TIP3   OH223199   1.693   7.040   2.212
 7753TIP3    H123200   1.723   7.037   2.121
 7753TIP3    H223201   1.710   7.130   2.239
 7754TIP3   OH223202   1.053   5.684   4.742
 7754TIP3    H123203   1.050   5.735   4.822
 7754TIP3    H223204   1.146   5.665   4.728
 7755TIP3   OH223205   3.623   1.582   4.145
 7755TIP3    H123206   3.540   1.584   4.193
 7755TIP3    H223207   3.653   1.492   4.154
 7756TIP3   OH223208   0.380   3.346   1.636
 7756TIP3    H123209   0.299   3.394   1.656
 7756TIP3    H223210   0.444   3.381   1.697
 7757TIP3   OH223211   3.788   0.896   1.202
 7757TIP3    H123212   3.828   0.915   1.116
 7757TIP3    H223213   3.697   0.875   1.182
 7758TIP3   OH223214   0.601   0.205   4.614
 7758TIP3    H123215   0.585   0.281   4.670
 7758TIP3    H223216   0.515   0.184   4.578
 7759TIP3   OH223217   5.690   3.244   6.077
 7759TIP3    H123218   5.768   3.296   6.094
 7759TIP3    H223219   5.696   3.171   6.139
 7760TIP3   OH223220   1.493   5.065   5.898
 7760TIP3    H123221   1.433   5.000   5.934
 7760TIP3    H223222   1.559   5.014   5.852
 7761TIP3   OH223223   6.785   2.789   2.600
 7761TIP3    H123224   6.828   2.856   2.654
 7761TIP3    H223225   6.784   2.711   2.654
 7762TIP3   OH223226   8.266   4.197   0.074
 7762TIP3    H123227   8.214   4.148   0.137
 7762TIP3    H223228   8.324   4.132   0.034
 7763TIP3   OH223229   5.419   0.907   6.293
 7763TIP3    H123230   5.403   0.973   6.360
 7763TIP3    H223231   5.474   0.841   6.337
 7764TIP3   OH223232   2.794   7.317   2.988
 7764TIP3    H123233   2.862   7.304   2.921
 7764TIP3    H223234   2.715   7.337   2.938
 7765TIP3   OH223235   4.881   3.485   0.516
 7765TIP3    H123236   4.948   3.421   0.542
 7765TIP3    H223237   4.876   3.546   0.589
 7766TIP3   OH223238   1.151   4.488   0.599
 7766TIP3    H123239   1.138   4.570   0.552
 7766TIP3    H223240   1.101   4.498   0.680
 7767TIP3   OH223241   3.737   0.176   1.997
 7767TIP3    H123242   3.773   0.121   1.927
 7767TIP3    H223243   3.655   0.133   2.021
 7768TIP3   OH223244   5.472   1.830   0.729
 7768TIP3    H123245   5.445   1.880   0.653
 7768TIP3    H223246   5.396   1.830   0.787
 7769TIP3   OH223247   1.374   4.572   0.822
 7769TIP3    H123248   1.427   4.641   0.862
 7769TIP3    H223249   1.430   4.535   0.754
 7770TIP3   OH223250   0.504   0.322   1.758
 7770TIP3    H123251   0.536   0.253   1.815
 7770TIP3    H223252   0.540   0.403   1.795
 7771TIP3   OH223253   1.757   3.835   4.062
 7771TIP3    H123254   1.764   3.830   4.157
 7771TIP3    H223255   1.833   3.886   4.034
 7772TIP3   OH223256   2.494   2.501   1.957
 7772TIP3    H123257   2.503   2.523   2.050
 7772TIP3    H223258   2.584   2.492   1.926
 7773TIP3   OH223259   3.597   6.449   1.002
 7773TIP3    H123260   3.618   6.422   0.912
 7773TIP3    H223261   3.678   6.438   1.050
 7774TIP3   OH223262   4.564   7.882   5.694
 7774TIP3    H123263   4.525   7.957   5.650
 7774TIP3    H223264   4.521   7.806   5.655
 7775TIP3   OH223265   4.575   5.310   1.082
 7775TIP3    H123266   4.541   5.223   1.100
 7775TIP3    H223267   4.631   5.299   1.005
 7776TIP3   OH223268   6.723   2.968   3.419
 7776TIP3    H123269   6.702   2.914   3.495
 7776TIP3    H223270   6.642   3.015   3.401
 7777TIP3   OH223271   5.519   6.137   2.127
 7777TIP3    H123272   5.511   6.195   2.051
 7777TIP3    H223273   5.614   6.125   2.138
 7778TIP3   OH223274   2.387   6.302   0.698
 7778TIP3    H123275   2.396   6.327   0.789
 7778TIP3    H223276   2.452   6.354   0.652
 7779TIP3   OH223277   2.756   1.227   5.010
 7779TIP3    H123278   2.766   1.253   5.102
 7779TIP3    H223279   2.670   1.263   4.985
 7780TIP3   OH223280   5.286   7.438   1.989
 7780TIP3    H123281   5.324   7.377   2.052
 7780TIP3    H223282   5.214   7.390   1.950
 7781TIP3   OH223283   2.216   0.893   1.761
 7781TIP3    H123284   2.122   0.877   1.758
 7781TIP3    H223285   2.228   0.959   1.829
 7782TIP3   OH223286   1.901   5.599   4.239
 7782TIP3    H123287   1.996   5.606   4.250
 7782TIP3    H223288   1.865   5.650   4.312
 7783TIP3   OH223289   3.538   5.287   1.880
 7783TIP3    H123290   3.520   5.210   1.934
 7783TIP3    H223291   3.535   5.254   1.790
 7784TIP3   OH223292   3.167   7.272   0.989
 7784TIP3    H123293   3.157   7.185   0.950
 7784TIP3    H223294   3.261   7.280   1.005
 7785TIP3   OH223295   8.236   5.164   1.259
 7785TIP3    H123296   8.329   5.184   1.272
 7785TIP3    H223297   8.203   5.237   1.206
 7786TIP3   OH223298   3.259   2.123   0.623
 7786TIP3    H123299   3.256   2.212   0.586
 7786TIP3    H223300   3.241   2.135   0.716
 7787TIP3   OH223301   0.889   5.003   3.685
 7787TIP3    H123302   0.960   4.942   3.665
 7787TIP3    H223303   0.933   5.081   3.718
 7788TIP3   OH223304   2.344   3.558   0.772
 7788TIP3    H123305   2.325   3.540   0.680
 7788TIP3    H223306   2.376   3.474   0.806
 7789TIP3   OH223307   0.537   1.869   5.334
 7789TIP3    H123308   0.446   1.858   5.361
 7789TIP3    H223309   0.586   1.810   5.392
 7790TIP3   OH223310   1.886   7.089   5.973
 7790TIP3    H123311   1.892   6.996   5.997
 7790TIP3    H223312   1.798   7.099   5.938
 7791TIP3   OH223313   6.929   6.407   3.574
 7791TIP3    H123314   6.848   6.412   3.625
 7791TIP3    H223315   6.958   6.316   3.584
 7792TIP3   OH223316   1.442   7.251   6.009
 7792TIP3    H123317   1.381   7.274   5.939
 7792TIP3    H223318   1.510   7.200   5.965
 7793TIP3   OH223319   1.238   7.187   0.938
 7793TIP3    H123320   1.270   7.255   0.997
 7793TIP3    H223321   1.145   7.177   0.959
 7794TIP3   OH223322   1.511   3.215   4.918
 7794TIP3    H123323   1.486   3.239   5.007
 7794TIP3    H223324   1.456   3.271   4.862
 7795TIP3   OH223325   2.112   4.837   1.945
 7795TIP3    H123326   2.116   4.811   2.037
 7795TIP3    H223327   2.203   4.830   1.914
 7796TIP3   OH223328   6.076   4.809   4.133
 7796TIP3    H123329   6.080   4.899   4.100
 7796TIP3    H223330   6.150   4.803   4.194
 7797TIP3   OH223331   5.692   2.514   6.473
 7797TIP3    H123332   5.645   2.468   6.543
 7797TIP3    H223333   5.783   2.511   6.500
 7798TIP3   OH223334   0.464   4.179   5.509
 7798TIP3    H123335   0.493   4.189   5.418
 7798TIP3    H223336   0.369   4.175   5.504
 7799TIP3   OH223337   5.096   6.367   2.424
 7799TIP3    H123338   5.168   6.303   2.426
 7799TIP3    H223339   5.127   6.439   2.478
 7800TIP3   OH223340   0.944   1.972   0.617
 7800TIP3    H123341   0.891   1.897   0.588
 7800TIP3    H223342   0.961   1.954   0.710
 7801TIP3   OH223343   4.980   3.749   4.634
 7801TIP3    H123344   5.065   3.785   4.609
 7801TIP3    H223345   4.931   3.823   4.669
 7802TIP3   OH223346   1.703   4.571   6.184
 7802TIP3    H123347   1.657   4.510   6.243
 7802TIP3    H223348   1.749   4.515   6.122
 7803TIP3   OH223349   0.110   2.044   1.210
 7803TIP3    H123350   0.176   2.107   1.239
 7803TIP3    H223351   0.158   1.982   1.156
 7804TIP3   OH223352   1.656   4.867   4.277
 7804TIP3    H123353   1.729   4.816   4.241
 7804TIP3    H223354   1.681   4.958   4.263
 7805TIP3   OH223355   4.953   2.276   3.774
 7805TIP3    H123356   5.000   2.348   3.816
 7805TIP3    H223357   4.862   2.306   3.772
 7806TIP3   OH223358   5.435   4.071   0.730
 7806TIP3    H123359   5.405   4.035   0.646
 7806TIP3    H223360   5.355   4.095   0.776
 7807TIP3   OH223361   0.242   5.014   4.895
 7807TIP3    H123362   0.149   5.037   4.889
 7807TIP3    H223363   0.287   5.099   4.895
 7808TIP3   OH223364   2.115   4.421   0.454
 7808TIP3    H123365   2.117   4.338   0.406
 7808TIP3    H223366   2.029   4.458   0.435
 7809TIP3   OH223367   7.725   4.103   3.550
 7809TIP3    H123368   7.720   4.197   3.566
 7809TIP3    H223369   7.818   4.084   3.543
 7810TIP3   OH223370   2.671   1.615   3.745
 7810TIP3    H123371   2.701   1.531   3.711
 7810TIP3    H223372   2.576   1.612   3.736
 7811TIP3   OH223373   6.812   6.825   1.036
 7811TIP3    H123374   6.875   6.868   1.093
 7811TIP3    H223375   6.859   6.749   1.001
 7812TIP3   OH223376   0.804   3.424   4.725
 7812TIP3    H123377   0.759   3.409   4.642
 7812TIP3    H223378   0.879   3.479   4.703
 7813TIP3   OH223379   4.554   6.418   5.084
 7813TIP3    H123380   4.507   6.353   5.031
 7813TIP3    H223381   4.493   6.492   5.090
 7814TIP3   OH223382   4.735   1.962   4.727
 7814TIP3    H123383   4.701   1.964   4.638
 7814TIP3    H223384   4.657   1.965   4.783
 7815TIP3   OH223385   5.045   0.276   3.740
 7815TIP3    H123386   4.997   0.294   3.660
 7815TIP3    H223387   5.118   0.338   3.739
 7816TIP3   OH223388   7.164   5.149   1.849
 7816TIP3    H123389   7.159   5.233   1.893
 7816TIP3    H223390   7.084   5.103   1.876
 7817TIP3   OH223391   5.298   4.867   0.635
 7817TIP3    H123392   5.212   4.876   0.595
 7817TIP3    H223393   5.333   4.956   0.641
 7818TIP3   OH223394   7.205   1.300   4.713
 7818TIP3    H123395   7.274   1.282   4.649
 7818TIP3    H223396   7.209   1.395   4.726
 7819TIP3   OH223397   6.174   6.715   1.083
 7819TIP3    H123398   6.182   6.640   1.023
 7819TIP3    H223399   6.250   6.707   1.140
 7820TIP3   OH223400   7.534   5.994   3.700
 7820TIP3    H123401   7.627   5.987   3.677
 7820TIP3    H223402   7.526   5.945   3.782
 7821TIP3   OH223403   5.113   0.777   2.095
 7821TIP3    H123404   5.035   0.818   2.132
 7821TIP3    H223405   5.158   0.848   2.049
 7822TIP3   OH223406   6.375   3.257   2.091
 7822TIP3    H123407   6.331   3.181   2.130
 7822TIP3    H223408   6.468   3.244   2.112
 7823TIP3   OH223409   2.345   3.215   5.704
 7823TIP3    H123410   2.314   3.169   5.625
 7823TIP3    H223411   2.390   3.292   5.670
 7824TIP3   OH223412   8.268   1.320   2.662
 7824TIP3    H123413   8.251   1.411   2.636
 7824TIP3    H223414   8.190   1.295   2.712
 7825TIP3   OH223415   7.113   6.013   6.285
 7825TIP3    H123416   7.148   5.925   6.300
 7825TIP3    H223417   7.184   6.071   6.313
 7826TIP3   OH223418   6.036   0.796   1.394
 7826TIP3    H123419   6.041   0.820   1.301
 7826TIP3    H223420   5.991   0.712   1.395
 7827TIP3   OH223421   7.935   3.664   5.989
 7827TIP3    H123422   8.011   3.717   5.966
 7827TIP3    H223423   7.967   3.573   5.984
 7828TIP3   OH223424   2.937   4.390   1.240
 7828TIP3    H123425   2.954   4.448   1.166
 7828TIP3    H223426   2.955   4.302   1.206
 7829TIP3   OH223427   5.459   1.958   1.739
 7829TIP3    H123428   5.395   1.937   1.672
 7829TIP3    H223429   5.507   1.876   1.752
 7830TIP3   OH223430   3.659   6.136   0.569
 7830TIP3    H123431   3.637   6.089   0.650
 7830TIP3    H223432   3.740   6.183   0.590
 7831TIP3   OH223433   3.953   7.755   1.480
 7831TIP3    H123434   3.912   7.805   1.409
 7831TIP3    H223435   4.033   7.804   1.500
 7832TIP3   OH223436   3.277   6.700   2.828
 7832TIP3    H123437   3.228   6.765   2.777
 7832TIP3    H223438   3.277   6.621   2.774
 7833TIP3   OH223439   3.870   0.829   2.525
 7833TIP3    H123440   3.863   0.735   2.541
 7833TIP3    H223441   3.891   0.866   2.611
 7834TIP3   OH223442   0.629   0.709   5.300
 7834TIP3    H123443   0.625   0.796   5.340
 7834TIP3    H223444   0.619   0.649   5.373
 7835TIP3   OH223445   0.551   0.516   0.865
 7835TIP3    H123446   0.579   0.602   0.832
 7835TIP3    H223447   0.496   0.536   0.940
 7836TIP3   OH223448   5.111   0.610   1.254
 7836TIP3    H123449   5.135   0.519   1.272
 7836TIP3    H223450   5.072   0.608   1.167
 7837TIP3   OH223451   1.787   5.920   3.075
 7837TIP3    H123452   1.705   5.893   3.117
 7837TIP3    H223453   1.776   6.013   3.058
 7838TIP3   OH223454   4.350   6.978   2.014
 7838TIP3    H123455   4.274   6.999   1.961
 7838TIP3    H223456   4.420   6.964   1.951
 7839TIP3   OH223457   4.464   1.811   1.900
 7839TIP3    H123458   4.389   1.769   1.942
 7839TIP3    H223459   4.520   1.739   1.873
 7840TIP3   OH223460   5.739   0.556   4.407
 7840TIP3    H123461   5.832   0.573   4.389
 7840TIP3    H223462   5.695   0.637   4.382
 7841TIP3   OH223463   7.393   0.772   0.085
 7841TIP3    H123464   7.396   0.793  -0.008
 7841TIP3    H223465   7.454   0.835   0.125
 7842TIP3   OH223466   3.025   5.861   3.694
 7842TIP3    H123467   3.004   5.817   3.776
 7842TIP3    H223468   3.056   5.948   3.720
 7843TIP3   OH223469   5.759   2.685   5.163
 7843TIP3    H123470   5.843   2.647   5.135
 7843TIP3    H223471   5.710   2.611   5.198
 7844TIP3   OH223472   2.703   4.434   4.821
 7844TIP3    H123473   2.743   4.516   4.848
 7844TIP3    H223474   2.623   4.460   4.775
 7845TIP3   OH223475   0.747   0.008   3.455
 7845TIP3    H123476   0.660   0.002   3.414
 7845TIP3    H223477   0.738   0.077   3.520
 7846TIP3   OH223478   4.148   4.411   3.421
 7846TIP3    H123479   4.059   4.442   3.432
 7846TIP3    H223480   4.197   4.449   3.494
 7847TIP3   OH223481   1.925   5.020   4.371
 7847TIP3    H123482   1.871   5.092   4.339
 7847TIP3    H223483   1.920   4.953   4.302
 7848TIP3   OH223484   5.488   2.654   3.133
 7848TIP3    H123485   5.467   2.714   3.204
 7848TIP3    H223486   5.446   2.571   3.159
 7849TIP3   OH223487   1.383   1.729   1.583
 7849TIP3    H123488   1.469   1.693   1.604
 7849TIP3    H223489   1.383   1.816   1.623
 7850TIP3   OH223490   0.158   2.413   5.503
 7850TIP3    H123491   0.230   2.384   5.560
 7850TIP3    H223492   0.194   2.485   5.453
 7851TIP3   OH223493   4.991   6.671   6.310
 7851TIP3    H123494   5.085   6.681   6.325
 7851TIP3    H223495   4.951   6.696   6.393
 7852TIP3   OH223496   8.278   7.691   4.772
 7852TIP3    H123497   8.281   7.767   4.829
 7852TIP3    H223498   8.281   7.727   4.683
 7853TIP3   OH223499   6.803   5.345   6.434
 7853TIP3    H123500   6.862   5.294   6.378
 7853TIP3    H223501   6.847   5.346   6.519
 7854TIP3   OH223502   3.158   6.705   2.138
 7854TIP3    H123503   3.220   6.631   2.142
 7854TIP3    H223504   3.203   6.776   2.184
 7855TIP3   OH223505   5.183   4.663   4.148
 7855TIP3    H123506   5.241   4.739   4.150
 7855TIP3    H223507   5.135   4.672   4.065
 7856TIP3   OH223508   0.591   5.615   6.809
 7856TIP3    H123509   0.509   5.643   6.851
 7856TIP3    H223510   0.574   5.526   6.780
 7857TIP3   OH223511   1.271   5.141   2.465
 7857TIP3    H123512   1.279   5.111   2.556
 7857TIP3    H223513   1.294   5.064   2.412
 7858TIP3   OH223514   3.239   4.390   4.387
 7858TIP3    H123515   3.244   4.415   4.479
 7858TIP3    H223516   3.153   4.350   4.377
 7859TIP3   OH223517   2.188   7.689   4.092
 7859TIP3    H123518   2.225   7.601   4.083
 7859TIP3    H223519   2.264   7.748   4.085
 7860TIP3   OH223520   6.499   4.346   0.938
 7860TIP3    H123521   6.556   4.333   1.014
 7860TIP3    H223522   6.497   4.440   0.926
 7861TIP3   OH223523   1.539   6.822   2.125
 7861TIP3    H123524   1.626   6.799   2.094
 7861TIP3    H223525   1.554   6.877   2.202
 7862TIP3   OH223526   5.968   2.079   5.022
 7862TIP3    H123527   5.914   2.158   5.012
 7862TIP3    H223528   5.909   2.007   4.998
 7863TIP3   OH223529   4.155   3.479   5.253
 7863TIP3    H123530   4.084   3.543   5.263
 7863TIP3    H223531   4.110   3.396   5.240
 7864TIP3   OH223532   1.358   7.875   5.334
 7864TIP3    H123533   1.350   7.925   5.415
 7864TIP3    H223534   1.277   7.825   5.328
 7865TIP3   OH223535   2.720   6.378   3.042
 7865TIP3    H123536   2.640   6.371   2.991
 7865TIP3    H223537   2.703   6.327   3.122
 7866TIP3   OH223538   2.385   0.578   2.376
 7866TIP3    H123539   2.344   0.491   2.370
 7866TIP3    H223540   2.323   0.630   2.427
 7867TIP3   OH223541   4.647   3.064   6.121
 7867TIP3    H123542   4.686   3.147   6.094
 7867TIP3    H223543   4.594   3.085   6.198
 7868TIP3   OH223544   4.226   6.543   0.309
 7868TIP3    H123545   4.240   6.555   0.215
 7868TIP3    H223546   4.220   6.632   0.344
 7869TIP3   OH223547   0.156   4.454   5.156
 7869TIP3    H123548   0.159   4.421   5.246
 7869TIP3    H223549   0.063   4.472   5.140
 7870TIP3   OH223550   1.641   7.773   1.574
 7870TIP3    H123551   1.580   7.762   1.648
 7870TIP3    H223552   1.639   7.867   1.556
 7871TIP3   OH223553   6.459   6.498   6.806
 7871TIP3    H123554   6.386   6.558   6.791
 7871TIP3    H223555   6.463   6.444   6.727
 7872TIP3   OH223556   3.924   4.515   1.270
 7872TIP3    H123557   3.933   4.583   1.337
 7872TIP3    H223558   3.851   4.544   1.216
 7873TIP3   OH223559   5.227   5.695   3.145
 7873TIP3    H123560   5.205   5.602   3.150
 7873TIP3    H223561   5.233   5.713   3.051
 7874TIP3   OH223562   3.625   1.657   3.324
 7874TIP3    H123563   3.597   1.737   3.367
 7874TIP3    H223564   3.560   1.642   3.255
 7875TIP3   OH223565   1.455   2.147   6.727
 7875TIP3    H123566   1.359   2.140   6.724
 7875TIP3    H223567   1.486   2.056   6.734
 7876TIP3   OH223568   4.747   2.802   6.104
 7876TIP3    H123569   4.827   2.836   6.143
 7876TIP3    H223570   4.728   2.862   6.032
 7877TIP3   OH223571   4.550   6.575   4.615
 7877TIP3    H123572   4.627   6.621   4.582
 7877TIP3    H223573   4.585   6.497   4.658
 7878TIP3   OH223574   7.797   7.003   2.474
 7878TIP3    H123575   7.853   6.964   2.542
 7878TIP3    H223576   7.729   6.938   2.459
 7879TIP3   OH223577   7.480   0.880   6.769
 7879TIP3    H123578   7.512   0.933   6.842
 7879TIP3    H223579   7.400   0.839   6.802
 7880TIP3   OH223580   6.819   7.025   2.946
 7880TIP3    H123581   6.903   7.071   2.944
 7880TIP3    H223582   6.777   7.054   3.027
 7881TIP3   OH223583   2.900   7.257   2.092
 7881TIP3    H123584   2.826   7.317   2.099
 7881TIP3    H223585   2.941   7.279   2.008
 7882TIP3   OH223586   6.115   0.477   5.065
 7882TIP3    H123587   6.132   0.492   4.972
 7882TIP3    H223588   6.074   0.390   5.068
 7883TIP3   OH223589   2.870   7.820   1.272
 7883TIP3    H123590   2.942   7.865   1.316
 7883TIP3    H223591   2.856   7.870   1.192
 7884TIP3   OH223592   6.044   5.551   3.975
 7884TIP3    H123593   6.054   5.552   3.880
 7884TIP3    H223594   5.958   5.589   3.991
 7885TIP3   OH223595   4.704   5.390   3.511
 7885TIP3    H123596   4.735   5.328   3.445
 7885TIP3    H223597   4.614   5.364   3.528
 7886TIP3   OH223598   7.277   6.511   5.255
 7886TIP3    H123599   7.369   6.485   5.255
 7886TIP3    H223600   7.256   6.525   5.163
 7887TIP3   OH223601   1.694   4.168   2.684
 7887TIP3    H123602   1.762   4.146   2.620
 7887TIP3    H223603   1.689   4.091   2.740
 7888TIP3   OH223604   4.507   6.397   4.263
 7888TIP3    H123605   4.471   6.454   4.331
 7888TIP3    H223606   4.431   6.366   4.214
 7889TIP3   OH223607   5.951   7.308   1.460
 7889TIP3    H123608   5.959   7.213   1.458
 7889TIP3    H223609   6.035   7.340   1.427
 7890TIP3   OH223610   0.384   5.142   4.610
 7890TIP3    H123611   0.411   5.051   4.614
 7890TIP3    H223612   0.371   5.167   4.701
 7891TIP3   OH223613   0.317   1.306   2.514
 7891TIP3    H123614   0.263   1.361   2.457
 7891TIP3    H223615   0.254   1.248   2.558
 7892TIP3   OH223616   3.121   5.721   5.035
 7892TIP3    H123617   3.191   5.753   5.093
 7892TIP3    H223618   3.057   5.792   5.033
 7893TIP3   OH223619   7.512   2.356   5.910
 7893TIP3    H123620   7.572   2.282   5.913
 7893TIP3    H223621   7.425   2.316   5.904
 7894TIP3   OH223622   5.867   1.720   1.799
 7894TIP3    H123623   5.775   1.694   1.805
 7894TIP3    H223624   5.891   1.700   1.708
 7895TIP3   OH223625   0.662   5.922   5.599
 7895TIP3    H123626   0.608   5.842   5.599
 7895TIP3    H223627   0.751   5.891   5.616
 7896TIP3   OH223628   6.440   3.126   4.577
 7896TIP3    H123629   6.497   3.191   4.620
 7896TIP3    H223630   6.429   3.058   4.643
 7897TIP3   OH223631   2.179   6.497   2.136
 7897TIP3    H123632   2.171   6.404   2.158
 7897TIP3    H223633   2.128   6.507   2.055
 7898TIP3   OH223634   0.544   5.453   0.873
 7898TIP3    H123635   0.514   5.482   0.787
 7898TIP3    H223636   0.622   5.505   0.890
 7899TIP3   OH223637   5.335   3.384   3.745
 7899TIP3    H123638   5.246   3.416   3.762
 7899TIP3    H223639   5.392   3.452   3.781
 7900TIP3   OH223640   1.212   7.894   5.940
 7900TIP3    H123641   1.172   7.843   6.011
 7900TIP3    H223642   1.193   7.985   5.962
 7901TIP3   OH223643   3.547   0.049   1.277
 7901TIP3    H123644   3.598   0.063   1.357
 7901TIP3    H223645   3.603   0.079   1.206
 7902TIP3   OH223646   5.967   6.623   5.818
 7902TIP3    H123647   5.915   6.578   5.885
 7902TIP3    H223648   6.029   6.557   5.788
 7903TIP3   OH223649   7.037   6.135   6.041
 7903TIP3    H123650   7.038   6.097   6.129
 7903TIP3    H223651   7.121   6.181   6.035
 7904TIP3   OH223652   5.391   3.416   4.831
 7904TIP3    H123653   5.327   3.410   4.902
 7904TIP3    H223654   5.338   3.429   4.752
 7905TIP3   OH223655   5.188   1.295   2.937
 7905TIP3    H123656   5.093   1.296   2.943
 7905TIP3    H223657   5.217   1.349   3.011
 7906TIP3   OH223658   6.277   3.163   1.824
 7906TIP3    H123659   6.224   3.086   1.845
 7906TIP3    H223660   6.328   3.179   1.904
 7907TIP3   OH223661   3.250   6.250   2.956
 7907TIP3    H123662   3.182   6.299   3.001
 7907TIP3    H223663   3.317   6.234   3.022
 7908TIP3   OH223664   7.105   7.674   1.733
 7908TIP3    H123665   7.030   7.732   1.724
 7908TIP3    H223666   7.101   7.617   1.656
 7909TIP3   OH223667   5.736   1.849   0.923
 7909TIP3    H123668   5.648   1.861   0.886
 7909TIP3    H223669   5.795   1.869   0.850
 7910TIP3   OH223670   7.450   2.264   4.746
 7910TIP3    H123671   7.509   2.195   4.716
 7910TIP3    H223672   7.440   2.322   4.671
 7911TIP3   OH223673   3.881   5.431   1.553
 7911TIP3    H123674   3.894   5.524   1.535
 7911TIP3    H223675   3.952   5.388   1.506
 7912TIP3   OH223676   4.071   5.939   5.984
 7912TIP3    H123677   4.079   6.026   6.022
 7912TIP3    H223678   3.997   5.945   5.924
 7913TIP3   OH223679   3.956   5.048   2.967
 7913TIP3    H123680   3.989   5.116   3.025
 7913TIP3    H223681   3.959   4.968   3.020
 7914TIP3   OH223682   7.332   7.105   1.897
 7914TIP3    H123683   7.417   7.097   1.940
 7914TIP3    H223684   7.335   7.191   1.855
 7915TIP3   OH223685   1.945   2.693   4.520
 7915TIP3    H123686   2.008   2.763   4.505
 7915TIP3    H223687   1.861   2.738   4.527
 7916TIP3   OH223688   3.054   2.984   4.950
 7916TIP3    H123689   3.135   3.034   4.960
 7916TIP3    H223690   3.060   2.915   5.017
 7917TIP3   OH223691   2.708   5.389   6.682
 7917TIP3    H123692   2.800   5.361   6.688
 7917TIP3    H223693   2.705   5.443   6.602
 7918TIP3   OH223694   0.567   1.603   3.190
 7918TIP3    H123695   0.536   1.646   3.269
 7918TIP3    H223696   0.522   1.648   3.118
 7919TIP3   OH223697   7.106   4.131   1.028
 7919TIP3    H123698   7.026   4.149   0.979
 7919TIP3    H223699   7.088   4.049   1.074
 7920TIP3   OH223700   3.368   0.287   2.889
 7920TIP3    H123701   3.336   0.207   2.931
 7920TIP3    H223702   3.290   0.339   2.871
 7921TIP3   OH223703   5.439   6.243   6.356
 7921TIP3    H123704   5.421   6.211   6.267
 7921TIP3    H223705   5.519   6.294   6.347
 7922TIP3   OH223706   5.079   0.478   4.693
 7922TIP3    H123707   5.061   0.543   4.625
 7922TIP3    H223708   5.166   0.501   4.726
 7923TIP3   OH223709   8.419   2.636   4.000
 7923TIP3    H123710   8.465   2.645   4.083
 7923TIP3    H223711   8.326   2.639   4.022
 7924TIP3   OH223712   1.132   2.163   5.808
 7924TIP3    H123713   1.138   2.256   5.786
 7924TIP3    H223714   1.042   2.152   5.840
 7925TIP3   OH223715   0.077   5.577   2.228
 7925TIP3    H123716  -0.001   5.525   2.248
 7925TIP3    H223717   0.093   5.563   2.135
 7926TIP3   OH223718   7.917   5.474   4.391
 7926TIP3    H123719   7.850   5.507   4.332
 7926TIP3    H223720   8.000   5.501   4.351
 7927TIP3   OH223721   2.075   6.526   6.135
 7927TIP3    H123722   2.104   6.436   6.150
 7927TIP3    H223723   2.121   6.553   6.055
 7928TIP3   OH223724   3.851   4.703   3.770
 7928TIP3    H123725   3.826   4.662   3.852
 7928TIP3    H223726   3.781   4.679   3.709
 7929TIP3   OH223727   1.718   3.853   5.133
 7929TIP3    H123728   1.798   3.804   5.118
 7929TIP3    H223729   1.651   3.786   5.146
 7930TIP3   OH223730   6.524   6.864   0.586
 7930TIP3    H123731   6.595   6.809   0.619
 7930TIP3    H223732   6.560   6.952   0.584
 7931TIP3   OH223733   3.834   0.589   1.613
 7931TIP3    H123734   3.773   0.521   1.585
 7931TIP3    H223735   3.900   0.543   1.664
 7932TIP3   OH223736   6.642   5.456   5.384
 7932TIP3    H123737   6.592   5.379   5.357
 7932TIP3    H223738   6.711   5.422   5.441
 7933TIP3   OH223739   5.613   5.495   1.938
 7933TIP3    H123740   5.688   5.532   1.984
 7933TIP3    H223741   5.575   5.570   1.891
 7934TIP3   OH223742   1.417   2.508   3.295
 7934TIP3    H123743   1.492   2.539   3.245
 7934TIP3    H223744   1.341   2.544   3.250
 7935TIP3   OH223745   7.585   5.079   2.324
 7935TIP3    H123746   7.552   5.153   2.376
 7935TIP3    H223747   7.512   5.017   2.322
 7936TIP3   OH223748   4.748   1.587   5.687
 7936TIP3    H123749   4.794   1.622   5.611
 7936TIP3    H223750   4.818   1.548   5.741
 7937TIP3   OH223751   8.349   0.737   2.048
 7937TIP3    H123752   8.432   0.784   2.046
 7937TIP3    H223753   8.357   0.677   2.122
 7938TIP3   OH223754   4.619   2.099   3.689
 7938TIP3    H123755   4.634   2.183   3.646
 7938TIP3    H223756   4.574   2.122   3.771
 7939TIP3   OH223757   3.793   1.722   2.375
 7939TIP3    H123758   3.847   1.677   2.440
 7939TIP3    H223759   3.705   1.720   2.412
 7940TIP3   OH223760   1.730   1.466   1.638
 7940TIP3    H123761   1.715   1.550   1.683
 7940TIP3    H223762   1.819   1.473   1.604
 7941TIP3   OH223763   0.535   3.319   6.684
 7941TIP3    H123764   0.604   3.384   6.700
 7941TIP3    H223765   0.581   3.236   6.681
 7942TIP3   OH223766   7.695   1.691   6.140
 7942TIP3    H123767   7.769   1.665   6.084
 7942TIP3    H223768   7.691   1.622   6.207
 7943TIP3   OH223769   2.964   7.117   3.061
 7943TIP3    H123770   2.981   7.038   3.114
 7943TIP3    H223771   2.882   7.151   3.096
 7944TIP3   OH223772   6.877   7.569   4.309
 7944TIP3    H123773   6.818   7.516   4.255
 7944TIP3    H223774   6.917   7.630   4.248
 7945TIP3   OH223775   5.482   6.242   1.465
 7945TIP3    H123776   5.545   6.311   1.485
 7945TIP3    H223777   5.507   6.211   1.378
 7946TIP3   OH223778   0.549   4.722   1.863
 7946TIP3    H123779   0.472   4.774   1.884
 7946TIP3    H223780   0.580   4.757   1.779
 7947TIP3   OH223781   0.435   1.426   1.802
 7947TIP3    H123782   0.375   1.432   1.728
 7947TIP3    H223783   0.393   1.476   1.872
 7948TIP3   OH223784   0.422   1.842   6.854
 7948TIP3    H123785   0.468   1.902   6.794
 7948TIP3    H223786   0.492   1.793   6.896
 7949TIP3   OH223787   2.359   4.183   1.851
 7949TIP3    H123788   2.335   4.275   1.861
 7949TIP3    H223789   2.453   4.185   1.832
 7950TIP3   OH223790   5.336   6.508   1.818
 7950TIP3    H123791   5.345   6.485   1.726
 7950TIP3    H223792   5.329   6.603   1.819
 7951TIP3   OH223793   0.154   2.635   0.335
 7951TIP3    H123794   0.065   2.615   0.366
 7951TIP3    H223795   0.204   2.555   0.352
 7952TIP3   OH223796   5.172   3.618   3.007
 7952TIP3    H123797   5.239   3.592   3.069
 7952TIP3    H223798   5.193   3.570   2.927
 7953TIP3   OH223799   1.846   0.958   4.689
 7953TIP3    H123800   1.896   0.910   4.623
 7953TIP3    H223801   1.768   0.988   4.643
 7954TIP3   OH223802   6.696   6.210   6.639
 7954TIP3    H123803   6.644   6.156   6.578
 7954TIP3    H223804   6.703   6.156   6.718
 7955TIP3   OH223805   8.366   6.197   3.329
 7955TIP3    H123806   8.427   6.130   3.299
 7955TIP3    H223807   8.282   6.171   3.292
 7956TIP3   OH223808   5.707   0.526   6.613
 7956TIP3    H123809   5.728   0.575   6.692
 7956TIP3    H223810   5.668   0.445   6.645
 7957TIP3   OH223811   7.515   0.305   0.637
 7957TIP3    H123812   7.521   0.212   0.661
 7957TIP3    H223813   7.569   0.313   0.558
 7958TIP3   OH223814   8.116   0.460   2.669
 7958TIP3    H123815   8.199   0.462   2.620
 7958TIP3    H223816   8.068   0.537   2.638
 7959TIP3   OH223817   6.145   1.142   1.281
 7959TIP3    H123818   6.167   1.190   1.361
 7959TIP3    H223819   6.050   1.147   1.275
 7960TIP3   OH223820   3.000   4.854   3.738
 7960TIP3    H123821   2.937   4.843   3.809
 7960TIP3    H223822   3.005   4.948   3.724
 7961TIP3   OH223823   0.276   3.422   0.196
 7961TIP3    H123824   0.278   3.466   0.110
 7961TIP3    H223825   0.248   3.333   0.177
 7962TIP3   OH223826   0.948   7.105   3.205
 7962TIP3    H123827   1.037   7.140   3.205
 7962TIP3    H223828   0.938   7.065   3.118
 7963TIP3   OH223829   5.290   4.485   2.198
 7963TIP3    H123830   5.202   4.450   2.210
 7963TIP3    H223831   5.276   4.580   2.190
 7964TIP3   OH223832   0.816   2.366   5.988
 7964TIP3    H123833   0.801   2.376   6.082
 7964TIP3    H223834   0.810   2.272   5.972
 7965TIP3   OH223835   5.630   4.515   5.609
 7965TIP3    H123836   5.580   4.505   5.528
 7965TIP3    H223837   5.612   4.435   5.658
 7966TIP3   OH223838   4.424   7.628   2.434
 7966TIP3    H123839   4.456   7.621   2.524
 7966TIP3    H223840   4.368   7.706   2.435
 7967TIP3   OH223841   1.806   7.151   6.789
 7967TIP3    H123842   1.813   7.243   6.767
 7967TIP3    H223843   1.810   7.105   6.704
 7968TIP3   OH223844   2.500   6.763   4.089
 7968TIP3    H123845   2.558   6.808   4.150
 7968TIP3    H223846   2.499   6.673   4.120
 7969TIP3   OH223847   1.867   2.389   2.551
 7969TIP3    H123848   1.826   2.313   2.592
 7969TIP3    H223849   1.812   2.407   2.475
 7970TIP3   OH223850   0.397   1.226   1.120
 7970TIP3    H123851   0.343   1.163   1.074
 7970TIP3    H223852   0.485   1.213   1.085
 7971TIP3   OH223853   2.870   0.800   6.506
 7971TIP3    H123854   2.874   0.723   6.449
 7971TIP3    H223855   2.962   0.821   6.524
 7972TIP3   OH223856   6.794   4.032   3.374
 7972TIP3    H123857   6.728   4.081   3.423
 7972TIP3    H223858   6.743   3.966   3.326
 7973TIP3   OH223859   6.916   0.656   5.406
 7973TIP3    H123860   6.960   0.664   5.491
 7973TIP3    H223861   6.975   0.699   5.344
 7974TIP3   OH223862   6.716   5.371   6.108
 7974TIP3    H123863   6.659   5.340   6.038
 7974TIP3    H223864   6.772   5.297   6.129
 7975TIP3   OH223865   0.467   1.612   0.219
 7975TIP3    H123866   0.470   1.657   0.304
 7975TIP3    H223867   0.520   1.533   0.231
 7976TIP3   OH223868   5.531   0.456   4.215
 7976TIP3    H123869   5.532   0.395   4.288
 7976TIP3    H223870   5.622   0.478   4.200
 7977TIP3   OH223871   4.505   7.490   5.054
 7977TIP3    H123872   4.535   7.433   5.125
 7977TIP3    H223873   4.433   7.540   5.092
 7978TIP3   OH223874   4.103   1.167   2.756
 7978TIP3    H123875   4.184   1.198   2.797
 7978TIP3    H223876   4.120   1.173   2.662
 7979TIP3   OH223877   4.386   6.196   5.195
 7979TIP3    H123878   4.407   6.106   5.219
 7979TIP3    H223879   4.296   6.192   5.164
 7980TIP3   OH223880   2.088   0.114   4.599
 7980TIP3    H123881   2.122   0.080   4.517
 7980TIP3    H223882   2.027   0.183   4.573
 7981TIP3   OH223883   0.441   2.621   3.147
 7981TIP3    H123884   0.383   2.642   3.220
 7981TIP3    H223885   0.401   2.664   3.071
 7982TIP3   OH223886   6.833   0.161   3.944
 7982TIP3    H123887   6.744   0.165   3.908
 7982TIP3    H223888   6.888   0.141   3.868
 7983TIP3   OH223889   0.946   2.207   6.666
 7983TIP3    H123890   0.914   2.210   6.576
 7983TIP3    H223891   0.950   2.299   6.693
 7984TIP3   OH223892   1.570   0.942   1.069
 7984TIP3    H123893   1.535   0.891   1.141
 7984TIP3    H223894   1.546   0.893   0.990
 7985TIP3   OH223895   5.322   3.036   5.260
 7985TIP3    H123896   5.303   3.089   5.337
 7985TIP3    H223897   5.236   3.008   5.229
 7986TIP3   OH223898   5.540   4.058   1.640
 7986TIP3    H123899   5.518   4.134   1.586
 7986TIP3    H223900   5.477   4.059   1.711
 7987TIP3   OH223901   6.132   3.183   0.354
 7987TIP3    H123902   6.091   3.267   0.373
 7987TIP3    H223903   6.216   3.187   0.399
 7988TIP3   OH223904   4.563   2.453   4.280
 7988TIP3    H123905   4.601   2.395   4.214
 7988TIP3    H223906   4.468   2.446   4.267
 7989TIP3   OH223907   1.867   4.735   0.724
 7989TIP3    H123908   1.804   4.771   0.786
 7989TIP3    H223909   1.913   4.667   0.774
 7990TIP3   OH223910   2.101   1.446   2.975
 7990TIP3    H123911   2.158   1.370   2.986
 7990TIP3    H223912   2.048   1.425   2.898
 7991TIP3   OH223913   5.351   1.724   5.430
 7991TIP3    H123914   5.376   1.638   5.464
 7991TIP3    H223915   5.265   1.710   5.390
 7992TIP3   OH223916   3.386   4.727   1.874
 7992TIP3    H123917   3.350   4.808   1.909
 7992TIP3    H223918   3.417   4.750   1.787
 7993TIP3   OH223919   6.744   6.381   3.020
 7993TIP3    H123920   6.698   6.355   2.941
 7993TIP3    H223921   6.712   6.321   3.087
 7994TIP3   OH223922   5.785   2.275   0.492
 7994TIP3    H123923   5.757   2.353   0.444
 7994TIP3    H223924   5.869   2.299   0.531
 7995TIP3   OH223925   6.436   3.492   4.461
 7995TIP3    H123926   6.457   3.470   4.552
 7995TIP3    H223927   6.504   3.554   4.435
 7996TIP3   OH223928   7.642   1.717   1.001
 7996TIP3    H123929   7.613   1.657   0.933
 7996TIP3    H223930   7.561   1.743   1.045
 7997TIP3   OH223931   4.519   0.696   4.582
 7997TIP3    H123932   4.588   0.672   4.520
 7997TIP3    H223933   4.551   0.776   4.624
 7998TIP3   OH223934   0.058   1.050   5.091
 7998TIP3    H123935   0.001   1.007   5.027
 7998TIP3    H223936  -0.002   1.085   5.157
 7999TIP3   OH223937   7.981   6.227   5.808
 7999TIP3    H123938   8.012   6.140   5.835
 7999TIP3    H223939   8.059   6.270   5.772
 8000TIP3   OH223940   5.161   1.023   5.990
 8000TIP3    H123941   5.100   1.091   5.962
 8000TIP3    H223942   5.125   0.992   6.073
 8001TIP3   OH223943   0.187   3.261   4.458
 8001TIP3    H123944   0.260   3.215   4.418
 8001TIP3    H223945   0.206   3.260   4.552
 8002TIP3   OH223946   7.502   4.571   5.892
 8002TIP3    H123947   7.412   4.545   5.874
 8002TIP3    H223948   7.554   4.527   5.825
 8003TIP3   OH223949   8.015   1.385   4.484
 8003TIP3    H123950   8.035   1.409   4.574
 8003TIP3    H223951   8.008   1.469   4.438
 8004TIP3   OH223952   2.200   6.418   3.032
 8004TIP3    H123953   2.137   6.457   2.971
 8004TIP3    H223954   2.263   6.373   2.975
 8005TIP3   OH223955   6.035   7.667   5.186
 8005TIP3    H123956   5.955   7.719   5.195
 8005TIP3    H223957   6.103   7.732   5.165
 8006TIP3   OH223958   2.628   2.809   3.256
 8006TIP3    H123959   2.578   2.843   3.182
 8006TIP3    H223960   2.702   2.763   3.216
 8007TIP3   OH223961   5.738   0.293   4.315
 8007TIP3    H123962   5.656   0.263   4.353
 8007TIP3    H223963   5.747   0.383   4.347
 8008TIP3   OH223964   3.387   5.450   5.167
 8008TIP3    H123965   3.420   5.360   5.174
 8008TIP3    H223966   3.305   5.442   5.118
 8009TIP3   OH223967   4.496   2.973   1.719
 8009TIP3    H123968   4.472   3.047   1.664
 8009TIP3    H223969   4.419   2.917   1.720
 8010TIP3   OH223970   2.967   0.075   5.410
 8010TIP3    H123971   3.035   0.038   5.466
 8010TIP3    H223972   3.014   0.133   5.351
 8011TIP3   OH223973   2.662   1.638   6.343
 8011TIP3    H123974   2.636   1.560   6.391
 8011TIP3    H223975   2.706   1.693   6.407
 8012TIP3   OH223976   2.561   3.188   3.620
 8012TIP3    H123977   2.621   3.123   3.583
 8012TIP3    H223978   2.488   3.136   3.654
 8013TIP3   OH223979   2.800   4.631   5.863
 8013TIP3    H123980   2.738   4.648   5.935
 8013TIP3    H223981   2.873   4.587   5.904
 8014TIP3   OH223982   4.471   4.730   2.484
 8014TIP3    H123983   4.535   4.800   2.474
 8014TIP3    H223984   4.387   4.774   2.485
 8015TIP3   OH223985   7.385   5.444   2.983
 8015TIP3    H123986   7.433   5.520   3.017
 8015TIP3    H223987   7.296   5.455   3.018
 8016TIP3   OH223988   1.504   5.374   1.023
 8016TIP3    H123989   1.543   5.436   1.085
 8016TIP3    H223990   1.417   5.356   1.059
 8017TIP3   OH223991   0.275   3.485   2.440
 8017TIP3    H123992   0.359   3.480   2.485
 8017TIP3    H223993   0.295   3.520   2.354
 8018TIP3   OH223994   6.655   5.884   3.270
 8018TIP3    H123995   6.677   5.918   3.357
 8018TIP3    H223996   6.682   5.952   3.209
 8019TIP3   OH223997   1.543   2.864   3.150
 8019TIP3    H123998   1.552   2.959   3.141
 8019TIP3    H223999   1.512   2.835   3.065
 8020TIP3   OH224000   8.308   6.911   4.058
 8020TIP3    H124001   8.303   6.999   4.020
 8020TIP3    H224002   8.315   6.853   3.982
 8021TIP3   OH224003   0.288   0.346   3.854
 8021TIP3    H124004   0.352   0.364   3.923
 8021TIP3    H224005   0.203   0.358   3.896
 8022TIP3   OH224006   2.030   0.880   6.576
 8022TIP3    H124007   2.037   0.958   6.520
 8022TIP3    H224008   1.936   0.870   6.591
 8023TIP3   OH224009   6.025   7.107   0.650
 8023TIP3    H124010   6.005   7.181   0.708
 8023TIP3    H224011   5.960   7.040   0.672
 8024TIP3   OH224012   6.018   7.202   1.164
 8024TIP3    H124013   6.100   7.175   1.204
 8024TIP3    H224014   5.996   7.131   1.104
 8025TIP3   OH224015   4.669   0.055   0.496
 8025TIP3    H124016   4.675   0.115   0.422
 8025TIP3    H224017   4.604   0.095   0.554
 8026TIP3   OH224018   5.049   2.589   6.256
 8026TIP3    H124019   5.036   2.673   6.211
 8026TIP3    H224020   5.107   2.609   6.329
 8027TIP3   OH224021   5.121   0.317   1.364
 8027TIP3    H124022   5.076   0.252   1.309
 8027TIP3    H224023   5.214   0.301   1.347
 8028TIP3   OH224024   2.676   5.345   0.686
 8028TIP3    H124025   2.620   5.317   0.614
 8028TIP3    H224026   2.765   5.340   0.650
 8029TIP3   OH224027   0.092   4.442   0.211
 8029TIP3    H124028   0.053   4.424   0.126
 8029TIP3    H224029   0.071   4.364   0.263
 8030TIP3   OH224030   0.789   1.442   5.497
 8030TIP3    H124031   0.743   1.388   5.432
 8030TIP3    H224032   0.759   1.531   5.479
 8031TIP3   OH224033   4.383   3.203   4.899
 8031TIP3    H124034   4.473   3.212   4.929
 8031TIP3    H224035   4.355   3.292   4.878
 8032TIP3   OH224036   4.186   7.668   6.350
 8032TIP3    H124037   4.270   7.691   6.313
 8032TIP3    H224038   4.138   7.751   6.357
 8033TIP3   OH224039   2.343   0.252   2.693
 8033TIP3    H124040   2.336   0.334   2.743
 8033TIP3    H224041   2.253   0.221   2.686
 8034TIP3   OH224042   7.996   7.047   5.032
 8034TIP3    H124043   8.021   6.955   5.040
 8034TIP3    H224044   7.904   7.044   5.003
 8035TIP3   OH224045   5.048   5.258   0.919
 8035TIP3    H124046   5.114   5.308   0.870
 8035TIP3    H224047   5.075   5.167   0.909
 8036TIP3   OH224048   5.078   1.520   0.249
 8036TIP3    H124049   5.090   1.485   0.160
 8036TIP3    H224050   5.074   1.443   0.305
 8037TIP3   OH224051   1.702   6.161   5.610
 8037TIP3    H124052   1.665   6.126   5.691
 8037TIP3    H224053   1.792   6.128   5.608
 8038TIP3   OH224054   5.572   3.854   4.920
 8038TIP3    H124055   5.504   3.859   4.853
 8038TIP3    H224056   5.633   3.924   4.898
 8039TIP3   OH224057   5.897   5.880   6.188
 8039TIP3    H124058   5.864   5.900   6.276
 8039TIP3    H224059   5.840   5.810   6.156
 8040TIP3   OH224060   6.536   7.400   4.856
 8040TIP3    H124061   6.558   7.488   4.887
 8040TIP3    H224062   6.473   7.415   4.786
 8041TIP3   OH224063   1.721   2.132   0.100
 8041TIP3    H124064   1.789   2.152   0.036
 8041TIP3    H224065   1.769   2.107   0.179
 8042TIP3   OH224066   2.370   4.259   6.129
 8042TIP3    H124067   2.459   4.290   6.144
 8042TIP3    H224068   2.379   4.165   6.114
 8043TIP3   OH224069   6.508   6.721   4.373
 8043TIP3    H124070   6.460   6.706   4.454
 8043TIP3    H224071   6.541   6.810   4.382
 8044TIP3   OH224072   0.525   5.728   0.687
 8044TIP3    H124073   0.544   5.646   0.642
 8044TIP3    H224074   0.430   5.737   0.681
 8045TIP3   OH224075   7.630   1.938   4.017
 8045TIP3    H124076   7.584   1.942   4.101
 8045TIP3    H224077   7.614   1.849   3.985
 8046TIP3   OH224078   0.232   4.234   6.217
 8046TIP3    H124079   0.300   4.191   6.165
 8046TIP3    H224080   0.261   4.325   6.224
 8047TIP3   OH224081   7.827   6.270   2.905
 8047TIP3    H124082   7.736   6.295   2.916
 8047TIP3    H224083   7.825   6.198   2.842
 8048TIP3   OH224084   6.486   1.795   6.495
 8048TIP3    H124085   6.532   1.868   6.537
 8048TIP3    H224086   6.433   1.757   6.565
 8049TIP3   OH224087   3.332   5.119   3.208
 8049TIP3    H124088   3.420   5.143   3.180
 8049TIP3    H224089   3.297   5.199   3.246
 8050TIP3   OH224090   5.647   7.905   4.559
 8050TIP3    H124091   5.657   7.815   4.528
 8050TIP3    H224092   5.625   7.955   4.480
 8051TIP3   OH224093   1.660   6.789   4.143
 8051TIP3    H124094   1.700   6.768   4.058
 8051TIP3    H224095   1.695   6.876   4.164
 8052TIP3   OH224096   7.655   1.633   1.322
 8052TIP3    H124097   7.566   1.598   1.313
 8052TIP3    H224098   7.650   1.722   1.285
 8053TIP3   OH224099   6.610   1.087   6.452
 8053TIP3    H124100   6.684   1.067   6.395
 8053TIP3    H224101   6.555   1.147   6.401
 8054TIP3   OH224102   3.157   4.539   1.388
 8054TIP3    H124103   3.222   4.493   1.440
 8054TIP3    H224104   3.091   4.472   1.366
 8055TIP3   OH224105   4.920   4.918   1.225
 8055TIP3    H124106   5.014   4.931   1.212
 8055TIP3    H224107   4.881   5.004   1.207
 8056TIP3   OH224108   5.866   5.113   1.366
 8056TIP3    H124109   5.866   5.018   1.374
 8056TIP3    H224110   5.889   5.129   1.274
 8057TIP3   OH224111   5.730   2.350   0.783
 8057TIP3    H124112   5.801   2.413   0.770
 8057TIP3    H224113   5.753   2.277   0.727
 8058TIP3   OH224114   7.380   5.750   2.765
 8058TIP3    H124115   7.339   5.667   2.741
 8058TIP3    H224116   7.337   5.775   2.847
 8059TIP3   OH224117   4.112   6.002   0.244
 8059TIP3    H124118   4.185   5.963   0.294
 8059TIP3    H224119   4.141   6.091   0.225
 8060TIP3   OH224120   2.467   3.694   0.391
 8060TIP3    H124121   2.375   3.679   0.409
 8060TIP3    H224122   2.468   3.761   0.323
 8061TIP3   OH224123   0.711   1.383   3.126
 8061TIP3    H124124   0.662   1.305   3.099
 8061TIP3    H224125   0.644   1.449   3.141
 8062TIP3   OH224126   4.702   7.167   1.412
 8062TIP3    H124127   4.665   7.107   1.477
 8062TIP3    H224128   4.727   7.111   1.339
 8063TIP3   OH224129   2.014   3.868   0.628
 8063TIP3    H124130   1.948   3.884   0.561
 8063TIP3    H224131   2.083   3.932   0.609
 8064TIP3   OH224132   3.638   3.405   0.126
 8064TIP3    H124133   3.658   3.488   0.083
 8064TIP3    H224134   3.703   3.397   0.195
 8065TIP3   OH224135   0.609   4.854   0.620
 8065TIP3    H124136   0.691   4.854   0.571
 8065TIP3    H224137   0.621   4.784   0.685
 8066TIP3   OH224138   4.698   1.059   3.001
 8066TIP3    H124139   4.622   1.114   3.018
 8066TIP3    H224140   4.725   1.028   3.087
 8067TIP3   OH224141   1.276   6.640   4.150
 8067TIP3    H124142   1.201   6.689   4.183
 8067TIP3    H224143   1.335   6.633   4.225
 8068TIP3   OH224144   1.057   1.548   6.630
 8068TIP3    H124145   1.031   1.567   6.540
 8068TIP3    H224146   1.102   1.463   6.625
 8069TIP3   OH224147   0.450   1.285   3.812
 8069TIP3    H124148   0.504   1.351   3.855
 8069TIP3    H224149   0.408   1.238   3.884
 8070TIP3   OH224150   7.149   6.581   0.798
 8070TIP3    H124151   7.242   6.591   0.815
 8070TIP3    H224152   7.128   6.493   0.829
 8071TIP3   OH224153   1.644   7.102   4.342
 8071TIP3    H124154   1.585   7.176   4.354
 8071TIP3    H224155   1.725   7.141   4.310
 8072TIP3   OH224156   0.629   0.508   2.122
 8072TIP3    H124157   0.632   0.412   2.126
 8072TIP3    H224158   0.571   0.533   2.193
 8073TIP3   OH224159   8.005   6.547   1.200
 8073TIP3    H124160   7.983   6.629   1.156
 8073TIP3    H224161   8.062   6.501   1.139
 8074TIP3   OH224162   5.981   4.672   5.829
 8074TIP3    H124163   5.995   4.578   5.813
 8074TIP3    H224164   5.925   4.700   5.757
 8075TIP3   OH224165   0.424   1.838   3.876
 8075TIP3    H124166   0.397   1.912   3.822
 8075TIP3    H224167   0.349   1.823   3.934
 8076TIP3   OH224168   1.572   0.430   0.287
 8076TIP3    H124169   1.478   0.425   0.304
 8076TIP3    H224170   1.610   0.460   0.369
 8077TIP3   OH224171   6.672   4.901   4.410
 8077TIP3    H124172   6.593   4.851   4.433
 8077TIP3    H224173   6.715   4.918   4.494
 8078TIP3   OH224174   8.398   2.757   5.455
 8078TIP3    H124175   8.325   2.723   5.507
 8078TIP3    H224176   8.359   2.826   5.402
 8079TIP3   OH224177   1.859   0.557   3.244
 8079TIP3    H124178   1.775   0.595   3.269
 8079TIP3    H224179   1.919   0.632   3.241
 8080TIP3   OH224180   0.903   3.552   2.154
 8080TIP3    H124181   0.972   3.595   2.103
 8080TIP3    H224182   0.887   3.610   2.227
 8081TIP3   OH224183   2.026   2.631   5.153
 8081TIP3    H124184   1.942   2.610   5.112
 8081TIP3    H224185   2.004   2.685   5.228
 8082TIP3   OH224186   0.763   4.927   3.352
 8082TIP3    H124187   0.772   5.011   3.398
 8082TIP3    H224188   0.758   4.951   3.259
 8083TIP3   OH224189   6.412   4.725   6.595
 8083TIP3    H124190   6.446   4.646   6.553
 8083TIP3    H224191   6.317   4.713   6.595
 8084TIP3   OH224192   5.261   2.910   3.853
 8084TIP3    H124193   5.262   2.950   3.766
 8084TIP3    H224194   5.353   2.905   3.879
 8085TIP3   OH224195   8.167   6.753   3.163
 8085TIP3    H124196   8.141   6.843   3.140
 8085TIP3    H224197   8.106   6.728   3.233
 8086TIP3   OH224198   0.540   1.900   2.579
 8086TIP3    H124199   0.581   1.928   2.497
 8086TIP3    H224200   0.452   1.873   2.554
 8087TIP3   OH224201   0.966   1.511   3.642
 8087TIP3    H124202   0.962   1.417   3.660
 8087TIP3    H224203   0.876   1.534   3.616
 8088TIP3   OH224204   6.079   1.503   4.224
 8088TIP3    H124205   6.088   1.415   4.261
 8088TIP3    H224206   6.122   1.560   4.288
 8089TIP3   OH224207   2.739   0.336   5.946
 8089TIP3    H124208   2.735   0.428   5.970
 8089TIP3    H224209   2.648   0.310   5.935
 8090TIP3   OH224210   2.674   2.585   4.642
 8090TIP3    H124211   2.686   2.623   4.729
 8090TIP3    H224212   2.620   2.507   4.657
 8091TIP3   OH224213   1.600   6.514   2.171
 8091TIP3    H124214   1.537   6.586   2.178
 8091TIP3    H224215   1.650   6.519   2.253
 8092TIP3   OH224216   5.312   2.191   0.986
 8092TIP3    H124217   5.392   2.243   0.994
 8092TIP3    H224218   5.333   2.108   1.029
 8093TIP3   OH224219   3.599   4.225   1.838
 8093TIP3    H124220   3.577   4.203   1.748
 8093TIP3    H224221   3.559   4.154   1.890
 8094TIP3   OH224222   6.969   6.137   3.648
 8094TIP3    H124223   6.995   6.197   3.717
 8094TIP3    H224224   6.975   6.050   3.688
 8095TIP3   OH224225   1.903   3.834   1.212
 8095TIP3    H124226   1.925   3.759   1.267
 8095TIP3    H224227   1.810   3.849   1.226
 8096TIP3   OH224228   5.037   5.971   1.514
 8096TIP3    H124229   4.955   6.015   1.538
 8096TIP3    H224230   5.009   5.889   1.475
 8097TIP3   OH224231   3.880   5.615   4.501
 8097TIP3    H124232   3.940   5.607   4.426
 8097TIP3    H224233   3.936   5.601   4.577
 8098TIP3   OH224234   3.789   4.683   0.942
 8098TIP3    H124235   3.770   4.700   1.034
 8098TIP3    H224236   3.803   4.589   0.937
 8099TIP3   OH224237   4.544   3.614   6.665
 8099TIP3    H124238   4.620   3.665   6.637
 8099TIP3    H224239   4.471   3.676   6.659
 8100TIP3   OH224240   5.590   7.327   4.451
 8100TIP3    H124241   5.585   7.309   4.545
 8100TIP3    H224242   5.507   7.295   4.416
 8101TIP3   OH224243   5.291   3.718   6.643
 8101TIP3    H124244   5.369   3.666   6.624
 8101TIP3    H224245   5.219   3.655   6.643
 8102TIP3   OH224246   7.670   0.737   1.727
 8102TIP3    H124247   7.746   0.683   1.749
 8102TIP3    H224248   7.607   0.676   1.690
 8103TIP3   OH224249   1.136   4.150   3.992
 8103TIP3    H124250   1.062   4.207   3.973
 8103TIP3    H224251   1.213   4.205   3.976
 8104TIP3   OH224252   4.421   3.481   0.356
 8104TIP3    H124253   4.348   3.449   0.410
 8104TIP3    H224254   4.391   3.470   0.266
 8105TIP3   OH224255   8.297   1.139   6.603
 8105TIP3    H124256   8.339   1.161   6.520
 8105TIP3    H224257   8.359   1.167   6.670
 8106TIP3   OH224258   2.742   7.548   4.185
 8106TIP3    H124259   2.704   7.505   4.108
 8106TIP3    H224260   2.833   7.520   4.184
 8107TIP3   OH224261   5.958   1.916   5.869
 8107TIP3    H124262   6.018   1.973   5.917
 8107TIP3    H224263   5.979   1.828   5.899
 8108TIP3   OH224264   1.348   6.927   0.903
 8108TIP3    H124265   1.340   7.007   0.955
 8108TIP3    H224266   1.323   6.953   0.814
 8109TIP3   OH224267   4.027   3.719   0.522
 8109TIP3    H124268   4.114   3.748   0.546
 8109TIP3    H224269   3.977   3.800   0.507
 8110TIP3   OH224270   3.329   0.217   0.430
 8110TIP3    H124271   3.384   0.283   0.471
 8110TIP3    H224272   3.265   0.268   0.379
 8111TIP3   OH224273   1.269   0.109   5.674
 8111TIP3    H124274   1.226   0.194   5.680
 8111TIP3    H224275   1.350   0.120   5.723
 8112TIP3   OH224276   6.097   6.246   2.763
 8112TIP3    H124277   6.121   6.201   2.682
 8112TIP3    H224278   6.179   6.281   2.796
 8113TIP3   OH224279   7.484   0.898   5.784
 8113TIP3    H124280   7.470   0.864   5.872
 8113TIP3    H224281   7.579   0.898   5.772
 8114TIP3   OH224282   3.240   2.235   4.413
 8114TIP3    H124283   3.186   2.296   4.462
 8114TIP3    H224284   3.328   2.274   4.413
 8115TIP3   OH224285   7.859   0.527   2.468
 8115TIP3    H124286   7.921   0.598   2.450
 8115TIP3    H224287   7.778   0.572   2.493
 8116TIP3   OH224288   2.504   6.089   2.110
 8116TIP3    H124289   2.537   6.030   2.041
 8116TIP3    H224290   2.553   6.170   2.096
 8117TIP3   OH224291   6.523   7.214   3.446
 8117TIP3    H124292   6.501   7.131   3.488
 8117TIP3    H224293   6.600   7.246   3.493
 8118TIP3   OH224294   0.089   3.988   1.846
 8118TIP3    H124295   0.154   3.926   1.878
 8118TIP3    H224296   0.119   4.012   1.758
 8119TIP3   OH224297   7.382   1.790   1.061
 8119TIP3    H124298   7.403   1.882   1.077
 8119TIP3    H224299   7.321   1.767   1.132
 8120TIP3   OH224300   0.317   2.006   6.046
 8120TIP3    H124301   0.234   2.052   6.041
 8120TIP3    H224302   0.383   2.075   6.037
 8121TIP3   OH224303   5.117   6.419   0.556
 8121TIP3    H124304   5.198   6.468   0.540
 8121TIP3    H224305   5.145   6.344   0.608
 8122TIP3   OH224306   4.482   4.869   6.233
 8122TIP3    H124307   4.402   4.815   6.233
 8122TIP3    H224308   4.466   4.935   6.299
 8123TIP3   OH224309   3.504   1.848   4.643
 8123TIP3    H124310   3.451   1.841   4.563
 8123TIP3    H224311   3.481   1.933   4.680
 8124TIP3   OH224312   7.607   3.080   4.693
 8124TIP3    H124313   7.694   3.041   4.695
 8124TIP3    H224314   7.617   3.165   4.736
 8125TIP3   OH224315   3.285   6.937   5.412
 8125TIP3    H124316   3.280   7.005   5.480
 8125TIP3    H224317   3.300   6.986   5.331
 8126TIP3   OH224318   4.495   5.921   5.250
 8126TIP3    H124319   4.589   5.933   5.260
 8126TIP3    H224320   4.478   5.836   5.291
 8127TIP3   OH224321   0.343   0.909   1.157
 8127TIP3    H124322   0.410   0.923   1.224
 8127TIP3    H224323   0.286   0.841   1.193
 8128TIP3   OH224324   6.128   6.535   4.179
 8128TIP3    H124325   6.083   6.456   4.151
 8128TIP3    H224326   6.205   6.541   4.122
 8129TIP3   OH224327   2.612   1.557   0.991
 8129TIP3    H124328   2.533   1.601   0.960
 8129TIP3    H224329   2.647   1.514   0.913
 8130TIP3   OH224330   2.086   5.371   5.397
 8130TIP3    H124331   2.182   5.369   5.397
 8130TIP3    H224332   2.062   5.319   5.320
 8131TIP3   OH224333   5.827   5.069   3.198
 8131TIP3    H124334   5.850   5.157   3.230
 8131TIP3    H224335   5.905   5.039   3.152
 8132TIP3   OH224336   1.718   6.751   5.600
 8132TIP3    H124337   1.764   6.667   5.605
 8132TIP3    H224338   1.788   6.815   5.585
 8133TIP3   OH224339   6.728   1.946   5.459
 8133TIP3    H124340   6.636   1.923   5.472
 8133TIP3    H224341   6.729   2.042   5.461
 8134TIP3   OH224342   5.414   6.166   0.467
 8134TIP3    H124343   5.404   6.070   0.462
 8134TIP3    H224344   5.462   6.180   0.548
 8135TIP3   OH224345   1.467   6.188   6.712
 8135TIP3    H124346   1.392   6.153   6.665
 8135TIP3    H224347   1.487   6.121   6.778
 8136TIP3   OH224348   0.639   2.810   6.650
 8136TIP3    H124349   0.719   2.809   6.701
 8136TIP3    H224350   0.618   2.903   6.639
 8137TIP3   OH224351   7.500   5.872   6.058
 8137TIP3    H124352   7.499   5.878   6.153
 8137TIP3    H224353   7.416   5.908   6.031
 8138TIP3   OH224354   2.426   6.040   0.322
 8138TIP3    H124355   2.452   6.031   0.414
 8138TIP3    H224356   2.430   6.134   0.305
 8139TIP3   OH224357   3.753   2.909   5.195
 8139TIP3    H124358   3.847   2.926   5.204
 8139TIP3    H224359   3.747   2.813   5.188
 8140TIP3   OH224360   2.398   6.871   3.850
 8140TIP3    H124361   2.458   6.926   3.900
 8140TIP3    H224362   2.407   6.784   3.890
 8141TIP3   OH224363   5.368   7.638   2.365
 8141TIP3    H124364   5.415   7.699   2.422
 8141TIP3    H224365   5.436   7.596   2.313
 8142TIP3   OH224366   3.720   0.183   1.099
 8142TIP3    H124367   3.776   0.106   1.108
 8142TIP3    H224368   3.780   0.255   1.080
 8143TIP3   OH224369   5.374   1.822   3.957
 8143TIP3    H124370   5.404   1.826   4.048
 8143TIP3    H224371   5.279   1.835   3.962
 8144TIP3   OH224372   7.323   2.506   6.809
 8144TIP3    H124373   7.387   2.571   6.779
 8144TIP3    H224374   7.311   2.448   6.734
 8145TIP3   OH224375   8.013   6.513   2.920
 8145TIP3    H124376   8.078   6.503   2.990
 8145TIP3    H224377   7.939   6.458   2.949
 8146TIP3   OH224378   0.145   1.369   2.847
 8146TIP3    H124379   0.070   1.343   2.794
 8146TIP3    H224380   0.117   1.449   2.891
 8147TIP3   OH224381   3.242   7.126   6.465
 8147TIP3    H124382   3.215   7.054   6.409
 8147TIP3    H224383   3.190   7.116   6.545
 8148TIP3   OH224384   3.460   6.712   0.674
 8148TIP3    H124385   3.471   6.644   0.608
 8148TIP3    H224386   3.415   6.668   0.747
 8149TIP3   OH224387   6.565   6.792   3.778
 8149TIP3    H124388   6.602   6.733   3.844
 8149TIP3    H224389   6.508   6.850   3.827
 8150TIP3   OH224390   6.236   2.005   1.923
 8150TIP3    H124391   6.270   1.923   1.886
 8150TIP3    H224392   6.141   1.994   1.920
 8151TIP3   OH224393   3.031   2.764   1.097
 8151TIP3    H124394   3.053   2.764   1.004
 8151TIP3    H224395   3.044   2.855   1.125
 8152TIP3   OH224396   3.649   4.312   4.574
 8152TIP3    H124397   3.605   4.392   4.603
 8152TIP3    H224398   3.598   4.241   4.614
 8153TIP3   OH224399   6.262   0.236   0.288
 8153TIP3    H124400   6.169   0.235   0.309
 8153TIP3    H224401   6.275   0.316   0.237
 8154TIP3   OH224402   1.028   4.073   2.388
 8154TIP3    H124403   1.027   4.155   2.338
 8154TIP3    H224404   0.996   4.007   2.326
 8155TIP3   OH224405   8.178   6.940   6.154
 8155TIP3    H124406   8.164   7.028   6.120
 8155TIP3    H224407   8.237   6.899   6.091
 8156TIP3   OH224408   4.226   3.118   5.891
 8156TIP3    H124409   4.193   3.208   5.882
 8156TIP3    H224410   4.321   3.127   5.882
 8157TIP3   OH224411   0.039   5.302   5.940
 8157TIP3    H124412   0.128   5.335   5.929
 8157TIP3    H224413   0.008   5.285   5.850
 8158TIP3   OH224414   7.551   0.435   2.400
 8158TIP3    H124415   7.631   0.383   2.406
 8158TIP3    H224416   7.570   0.514   2.450
 8159TIP3   OH224417   5.748   5.741   4.234
 8159TIP3    H124418   5.745   5.682   4.158
 8159TIP3    H224419   5.829   5.719   4.279
 8160TIP3   OH224420   7.728   7.846   1.243
 8160TIP3    H124421   7.681   7.812   1.167
 8160TIP3    H224422   7.668   7.912   1.280
 8161TIP3   OH224423   5.139   3.420   5.704
 8161TIP3    H124424   5.057   3.380   5.676
 8161TIP3    H224425   5.207   3.364   5.666
 8162TIP3   OH224426   7.313   1.691   4.308
 8162TIP3    H124427   7.390   1.634   4.300
 8162TIP3    H224428   7.345   1.766   4.358
 8163TIP3   OH224429   6.665   0.853   5.598
 8163TIP3    H124430   6.581   0.897   5.613
 8163TIP3    H224431   6.651   0.764   5.631
 8164TIP3   OH224432   3.416   6.216   5.110
 8164TIP3    H124433   3.366   6.140   5.080
 8164TIP3    H224434   3.352   6.287   5.115
 8165TIP3   OH224435   4.657   6.323   0.703
 8165TIP3    H124436   4.577   6.374   0.687
 8165TIP3    H224437   4.725   6.371   0.655
 8166TIP3   OH224438   1.518   5.672   4.768
 8166TIP3    H124439   1.565   5.622   4.701
 8166TIP3    H224440   1.561   5.648   4.850
 8167TIP3   OH224441   1.181  -0.009   3.193
 8167TIP3    H124442   1.220  -0.024   3.280
 8167TIP3    H224443   1.098   0.035   3.211
 8168TIP3   OH224444   1.503   7.214   2.048
 8168TIP3    H124445   1.462   7.218   1.962
 8168TIP3    H224446   1.433   7.188   2.107
 8169TIP3   OH224447   6.947   6.099   3.152
 8169TIP3    H124448   7.029   6.147   3.140
 8169TIP3    H224449   6.912   6.089   3.063
 8170TIP3   OH224450   5.799   7.455   5.778
 8170TIP3    H124451   5.777   7.434   5.687
 8170TIP3    H224452   5.755   7.386   5.829
 8171TIP3   OH224453   0.210   6.361   2.908
 8171TIP3    H124454   0.212   6.457   2.911
 8171TIP3    H224455   0.287   6.337   2.857
 8172TIP3   OH224456   7.414   5.218   5.461
 8172TIP3    H124457   7.493   5.261   5.429
 8172TIP3    H224458   7.421   5.224   5.557
 8173TIP3   OH224459   2.114   0.483   4.521
 8173TIP3    H124460   2.022   0.457   4.519
 8173TIP3    H224461   2.140   0.487   4.429
 8174TIP3   OH224462   1.617   0.555   5.920
 8174TIP3    H124463   1.701   0.585   5.885
 8174TIP3    H224464   1.625   0.460   5.923
 8175TIP3   OH224465   7.986   7.552   0.978
 8175TIP3    H124466   8.033   7.606   0.914
 8175TIP3    H224467   8.027   7.466   0.970
 8176TIP3   OH224468   5.427   5.682   4.420
 8176TIP3    H124469   5.362   5.628   4.373
 8176TIP3    H224470   5.395   5.685   4.510
 8177TIP3   OH224471   6.227   7.040   5.181
 8177TIP3    H124472   6.283   7.117   5.177
 8177TIP3    H224473   6.287   6.967   5.194
 8178TIP3   OH224474   3.086   7.541   6.836
 8178TIP3    H124475   3.054   7.631   6.828
 8178TIP3    H224476   3.054   7.497   6.757
 8179TIP3   OH224477   0.206   3.024   0.862
 8179TIP3    H124478   0.186   2.964   0.790
 8179TIP3    H224479   0.144   3.097   0.850
 8180TIP3   OH224480   0.354   0.691   5.453
 8180TIP3    H124481   0.432   0.643   5.480
 8180TIP3    H224482   0.371   0.714   5.362
 8181TIP3   OH224483   7.265   1.790   1.414
 8181TIP3    H124484   7.200   1.749   1.470
 8181TIP3    H224485   7.254   1.746   1.329
 8182TIP3   OH224486   2.130   6.319   1.237
 8182TIP3    H124487   2.046   6.346   1.275
 8182TIP3    H224488   2.115   6.229   1.208
 8183TIP3   OH224489   3.094   2.755   4.621
 8183TIP3    H124490   3.158   2.823   4.600
 8183TIP3    H224491   3.147   2.676   4.633
 8184TIP3   OH224492   2.875   3.371   3.823
 8184TIP3    H124493   2.902   3.352   3.913
 8184TIP3    H224494   2.864   3.286   3.782
 8185TIP3   OH224495   6.941   2.980   0.656
 8185TIP3    H124496   6.945   2.908   0.719
 8185TIP3    H224497   6.880   3.042   0.694
 8186TIP3   OH224498   5.797   3.226   2.079
 8186TIP3    H124499   5.851   3.222   2.000
 8186TIP3    H224500   5.817   3.145   2.126
 8187TIP3   OH224501   4.389   4.614   0.758
 8187TIP3    H124502   4.481   4.620   0.732
 8187TIP3    H224503   4.340   4.640   0.680
 8188TIP3   OH224504   3.924   2.902   2.618
 8188TIP3    H124505   3.929   2.975   2.680
 8188TIP3    H224506   3.960   2.827   2.665
 8189TIP3   OH224507   5.929   3.951   5.851
 8189TIP3    H124508   5.844   3.995   5.847
 8189TIP3    H224509   5.990   4.019   5.878
 8190TIP3   OH224510   1.096   4.537   5.279
 8190TIP3    H124511   1.122   4.624   5.250
 8190TIP3    H224512   1.149   4.520   5.357
 8191TIP3   OH224513   7.096   1.278   3.032
 8191TIP3    H124514   7.169   1.219   3.012
 8191TIP3    H224515   7.030   1.258   2.966
 8192TIP3   OH224516   7.990   6.251   6.335
 8192TIP3    H124517   7.895   6.258   6.345
 8192TIP3    H224518   8.002   6.181   6.271
 8193TIP3   OH224519   6.713   5.405   2.254
 8193TIP3    H124520   6.622   5.386   2.233
 8193TIP3    H224521   6.756   5.413   2.169
 8194TIP3   OH224522   1.456   5.245   6.762
 8194TIP3    H124523   1.482   5.310   6.827
 8194TIP3    H224524   1.417   5.174   6.812
 8195TIP3   OH224525   5.911   7.626   5.521
 8195TIP3    H124526   5.923   7.716   5.550
 8195TIP3    H224527   5.841   7.630   5.456
 8196TIP3   OH224528   3.022   4.081   2.523
 8196TIP3    H124529   3.038   3.990   2.497
 8196TIP3    H224530   3.099   4.106   2.573
 8197TIP3   OH224531   7.844   4.513   0.767
 8197TIP3    H124532   7.930   4.520   0.727
 8197TIP3    H224533   7.785   4.498   0.693
 8198TIP3   OH224534   0.983   1.425   5.100
 8198TIP3    H124535   0.951   1.509   5.067
 8198TIP3    H224536   1.030   1.446   5.180
 8199TIP3   OH224537   3.764   5.023   3.968
 8199TIP3    H124538   3.773   5.114   3.939
 8199TIP3    H224539   3.671   5.003   3.954
 8200TIP3   OH224540   2.113   6.086   4.868
 8200TIP3    H124541   2.164   6.126   4.938
 8200TIP3    H224542   2.030   6.135   4.869
 8201TIP3   OH224543   3.518   1.219   1.350
 8201TIP3    H124544   3.604   1.234   1.310
 8201TIP3    H224545   3.463   1.188   1.278
 8202TIP3   OH224546   4.519   0.417   4.181
 8202TIP3    H124547   4.535   0.332   4.140
 8202TIP3    H224548   4.599   0.434   4.232
 8203TIP3   OH224549   3.088   5.618   3.120
 8203TIP3    H124550   3.134   5.702   3.122
 8203TIP3    H224551   3.122   5.573   3.043
 8204TIP3   OH224552   4.911   1.635   6.666
 8204TIP3    H124553   4.979   1.689   6.626
 8204TIP3    H224554   4.859   1.603   6.593
 8205TIP3   OH224555   7.956   7.715   1.220
 8205TIP3    H124556   7.868   7.746   1.241
 8205TIP3    H224557   7.946   7.667   1.137
 8206TIP3   OH224558   6.791   4.446   3.190
 8206TIP3    H124559   6.731   4.514   3.221
 8206TIP3    H224560   6.757   4.422   3.104
 8207TIP3   OH224561   6.548   3.228   3.932
 8207TIP3    H124562   6.544   3.174   3.853
 8207TIP3    H224563   6.485   3.298   3.917
 8208TIP3   OH224564   7.585   4.764   6.048
 8208TIP3    H124565   7.553   4.702   5.983
 8208TIP3    H224566   7.674   4.784   6.019
 8209TIP3   OH224567   5.815   1.140   2.937
 8209TIP3    H124568   5.856   1.066   2.893
 8209TIP3    H224569   5.739   1.162   2.882
 8210TIP3   OH224570   0.704   6.076   4.115
 8210TIP3    H124571   0.724   5.994   4.161
 8210TIP3    H224572   0.787   6.101   4.074
 8211TIP3   OH224573   7.213   4.963   0.439
 8211TIP3    H124574   7.159   4.951   0.517
 8211TIP3    H224575   7.280   4.894   0.445
 8212TIP3   OH224576   1.842   3.336   6.653
 8212TIP3    H124577   1.910   3.311   6.590
 8212TIP3    H224578   1.839   3.431   6.647
 8213TIP3   OH224579   1.549   5.994   0.017
 8213TIP3    H124580   1.516   5.959   0.100
 8213TIP3    H224581   1.594   6.075   0.042
 8214TIP3   OH224582   6.521   1.524   5.124
 8214TIP3    H124583   6.593   1.511   5.186
 8214TIP3    H224584   6.564   1.546   5.041
 8215TIP3   OH224585   3.760   1.010   0.471
 8215TIP3    H124586   3.683   1.007   0.528
 8215TIP3    H224587   3.829   1.046   0.526
 8216TIP3   OH224588   3.876   4.249   1.203
 8216TIP3    H124589   3.916   4.336   1.209
 8216TIP3    H224590   3.948   4.188   1.219
 8217TIP3   OH224591   8.409   6.097   5.170
 8217TIP3    H124592   8.365   6.113   5.087
 8217TIP3    H224593   8.432   6.185   5.203
 8218TIP3   OH224594   1.386   1.240   5.156
 8218TIP3    H124595   1.463   1.256   5.210
 8218TIP3    H224596   1.406   1.159   5.109
 8219TIP3   OH224597   5.169   5.212   5.505
 8219TIP3    H124598   5.100   5.221   5.440
 8219TIP3    H224599   5.138   5.261   5.581
 8220TIP3   OH224600   4.113   7.905   4.983
 8220TIP3    H124601   4.080   7.868   4.901
 8220TIP3    H224602   4.173   7.840   5.017
 8221TIP3   OH224603   5.988   3.000   6.118
 8221TIP3    H124604   6.012   2.956   6.036
 8221TIP3    H224605   5.894   3.017   6.110
 8222TIP3   OH224606   1.734   3.322   6.030
 8222TIP3    H124607   1.656   3.268   6.043
 8222TIP3    H224608   1.745   3.325   5.935
 8223TIP3   OH224609   0.433   7.669   6.494
 8223TIP3    H124610   0.504   7.605   6.486
 8223TIP3    H224611   0.370   7.627   6.553
 8224TIP3   OH224612   5.776   3.809   1.975
 8224TIP3    H124613   5.803   3.762   2.054
 8224TIP3    H224614   5.738   3.741   1.919
 8225TIP3   OH224615   2.733   6.617   5.801
 8225TIP3    H124616   2.653   6.669   5.808
 8225TIP3    H224617   2.703   6.527   5.815
 8226TIP3   OH224618   6.853   3.404   2.750
 8226TIP3    H124619   6.820   3.483   2.708
 8226TIP3    H224620   6.820   3.407   2.839
 8227TIP3   OH224621   6.816   3.926   0.750
 8227TIP3    H124622   6.738   3.960   0.706
 8227TIP3    H224623   6.784   3.853   0.803
 8228TIP3   OH224624   3.220   6.235   6.667
 8228TIP3    H124625   3.191   6.254   6.756
 8228TIP3    H224626   3.287   6.168   6.678
 8229TIP3   OH224627   4.842   2.495   4.966
 8229TIP3    H124628   4.896   2.570   4.990
 8229TIP3    H224629   4.788   2.526   4.893
 8230TIP3   OH224630   6.255   3.382   5.294
 8230TIP3    H124631   6.192   3.423   5.353
 8230TIP3    H224632   6.202   3.350   5.220
 8231TIP3   OH224633   8.371   5.995   5.611
 8231TIP3    H124634   8.298   6.040   5.570
 8231TIP3    H224635   8.428   6.065   5.643
 8232TIP3   OH224636   7.491   3.274   3.894
 8232TIP3    H124637   7.402   3.244   3.911
 8232TIP3    H224638   7.518   3.226   3.816
 8233TIP3   OH224639   7.122   2.938   3.328
 8233TIP3    H124640   7.202   2.887   3.320
 8233TIP3    H224641   7.077   2.900   3.404
 8234TIP3   OH224642   3.987   6.635   3.082
 8234TIP3    H124643   3.934   6.662   3.007
 8234TIP3    H224644   3.990   6.539   3.075
 8235TIP3   OH224645   2.673   3.731   2.090
 8235TIP3    H124646   2.613   3.661   2.063
 8235TIP3    H224647   2.616   3.806   2.108
 8236TIP3   OH224648   0.752   7.688   6.361
 8236TIP3    H124649   0.820   7.629   6.395
 8236TIP3    H224650   0.741   7.754   6.430
 8237TIP3   OH224651   2.741   7.725   2.189
 8237TIP3    H124652   2.787   7.773   2.120
 8237TIP3    H224653   2.807   7.711   2.257
 8238TIP3   OH224654   3.418   4.375   0.067
 8238TIP3    H124655   3.374   4.346  -0.013
 8238TIP3    H224656   3.370   4.333   0.138
 8239TIP3   OH224657   7.050   6.795   3.119
 8239TIP3    H124658   7.068   6.720   3.176
 8239TIP3    H224659   6.971   6.769   3.071
 8240TIP3   OH224660   6.042   1.349   3.917
 8240TIP3    H124661   5.963   1.399   3.899
 8240TIP3    H224662   6.096   1.360   3.839
 8241TIP3   OH224663   5.889   5.494   6.298
 8241TIP3    H124664   5.930   5.421   6.344
 8241TIP3    H224665   5.955   5.523   6.235
 8242TIP3   OH224666   4.264   4.162   3.448
 8242TIP3    H124667   4.247   4.256   3.443
 8242TIP3    H224668   4.351   4.151   3.408
 8243TIP3   OH224669   5.393   7.308   4.939
 8243TIP3    H124670   5.364   7.330   5.028
 8243TIP3    H224671   5.318   7.330   4.884
 8244TIP3   OH224672   5.138   7.626   0.059
 8244TIP3    H124673   5.076   7.653  -0.008
 8244TIP3    H224674   5.089   7.636   0.141
 8245TIP3   OH224675   7.922   6.431   2.398
 8245TIP3    H124676   7.829   6.413   2.415
 8245TIP3    H224677   7.944   6.373   2.325
 8246TIP3   OH224678   3.094   5.416   3.657
 8246TIP3    H124679   3.077   5.456   3.571
 8246TIP3    H224680   3.034   5.462   3.716
 8247TIP3   OH224681   7.871   6.447   5.964
 8247TIP3    H124682   7.831   6.412   6.044
 8247TIP3    H224683   7.877   6.371   5.906
 8248TIP3   OH224684   3.811   1.595   3.556
 8248TIP3    H124685   3.750   1.570   3.487
 8248TIP3    H224686   3.863   1.666   3.518
 8249TIP3   OH224687   8.076   7.123   5.890
 8249TIP3    H124688   8.109   7.038   5.862
 8249TIP3    H224689   8.147   7.184   5.870
 8250TIP3   OH224690   3.149   3.530   6.646
 8250TIP3    H124691   3.194   3.478   6.579
 8250TIP3    H224692   3.147   3.473   6.723
 8251TIP3   OH224693   7.840   4.976   5.703
 8251TIP3    H124694   7.789   5.013   5.631
 8251TIP3    H224695   7.894   5.048   5.733
 8252TIP3   OH224696   7.079   6.422   6.781
 8252TIP3    H124697   7.151   6.362   6.761
 8252TIP3    H224698   7.000   6.376   6.752
 8253TIP3   OH224699   2.701   6.638   0.384
 8253TIP3    H124700   2.795   6.657   0.383
 8253TIP3    H224701   2.685   6.590   0.303
 8254TIP3   OH224702   1.689   5.545   5.921
 8254TIP3    H124703   1.689   5.473   5.857
 8254TIP3    H224704   1.600   5.579   5.918
 8255TIP3   OH224705   5.448   0.934   2.259
 8255TIP3    H124706   5.359   0.966   2.242
 8255TIP3    H224707   5.505   1.007   2.234
 8256TIP3   OH224708   6.205   2.589   3.363
 8256TIP3    H124709   6.115   2.578   3.394
 8256TIP3    H224710   6.195   2.619   3.272
 8257TIP3   OH224711   1.351   2.978   1.636
 8257TIP3    H124712   1.390   3.005   1.552
 8257TIP3    H224713   1.256   2.980   1.620
 8258TIP3   OH224714   3.209   7.406   2.107
 8258TIP3    H124715   3.230   7.404   2.013
 8258TIP3    H224716   3.207   7.314   2.133
 8259TIP3   OH224717   5.221   2.381   1.771
 8259TIP3    H124718   5.182   2.298   1.800
 8259TIP3    H224719   5.194   2.390   1.680
 8260TIP3   OH224720   4.705   1.563   4.992
 8260TIP3    H124721   4.645   1.572   5.066
 8260TIP3    H224722   4.729   1.470   4.992
 8261TIP3   OH224723   0.045   3.857   3.766
 8261TIP3    H124724   0.045   3.842   3.860
 8261TIP3    H224725   0.032   3.951   3.757
 8262TIP3   OH224726   6.822   0.394   5.359
 8262TIP3    H124727   6.840   0.485   5.380
 8262TIP3    H224728   6.799   0.354   5.443
 8263TIP3   OH224729   2.921   6.393   5.085
 8263TIP3    H124730   2.929   6.484   5.057
 8263TIP3    H224731   2.860   6.397   5.159
 8264TIP3   OH224732   7.906   7.170   6.400
 8264TIP3    H124733   7.964   7.215   6.338
 8264TIP3    H224734   7.821   7.167   6.357
 8265TIP3   OH224735   1.310   6.803   3.238
 8265TIP3    H124736   1.262   6.780   3.317
 8265TIP3    H224737   1.379   6.738   3.232
 8266TIP3   OH224738   6.356   3.877   2.335
 8266TIP3    H124739   6.317   3.830   2.260
 8266TIP3    H224740   6.324   3.830   2.412
 8267TIP3   OH224741   0.725   4.971   3.078
 8267TIP3    H124742   0.745   5.064   3.087
 8267TIP3    H224743   0.638   4.969   3.039
 8268TIP3   OH224744   4.834   4.367   2.655
 8268TIP3    H124745   4.924   4.336   2.646
 8268TIP3    H224746   4.796   4.312   2.723
 8269TIP3   OH224747   0.903   0.345   0.697
 8269TIP3    H124748   0.808   0.355   0.691
 8269TIP3    H224749   0.919   0.254   0.671
 8270TIP3   OH224750   7.117   0.560   1.593
 8270TIP3    H124751   7.196   0.614   1.597
 8270TIP3    H224752   7.075   0.585   1.511
 8271TIP3   OH224753   3.924   5.395   1.146
 8271TIP3    H124754   3.936   5.432   1.059
 8271TIP3    H224755   4.006   5.415   1.192
 8272TIP3   OH224756   6.860   5.322   5.570
 8272TIP3    H124757   6.917   5.394   5.543
 8272TIP3    H224758   6.864   5.323   5.665
 8273TIP3   OH224759   5.240   2.784   1.514
 8273TIP3    H124760   5.233   2.701   1.468
 8273TIP3    H224761   5.334   2.805   1.511
 8274TIP3   OH224762   2.302   0.831   4.759
 8274TIP3    H124763   2.361   0.817   4.833
 8274TIP3    H224764   2.267   0.744   4.739
 8275TIP3   OH224765   0.066   5.743   0.746
 8275TIP3    H124766   0.125   5.725   0.673
 8275TIP3    H224767   0.075   5.837   0.762
 8276TIP3   OH224768   0.184   2.852   6.562
 8276TIP3    H124769   0.144   2.765   6.560
 8276TIP3    H224770   0.210   2.865   6.653
 8277TIP3   OH224771   1.932   4.907   2.500
 8277TIP3    H124772   1.985   4.944   2.571
 8277TIP3    H224773   1.895   4.984   2.456
 8278TIP3   OH224774   0.407   2.350   5.624
 8278TIP3    H124775   0.469   2.398   5.679
 8278TIP3    H224776   0.445   2.262   5.617
 8279TIP3   OH224777   3.637   4.806   3.224
 8279TIP3    H124778   3.707   4.743   3.208
 8279TIP3    H224779   3.566   4.780   3.164
 8280TIP3   OH224780   5.496   3.494   6.639
 8280TIP3    H124781   5.467   3.424   6.580
 8280TIP3    H224782   5.447   3.479   6.720
 8281TIP3   OH224783   5.357   1.423   6.531
 8281TIP3    H124784   5.337   1.330   6.539
 8281TIP3    H224785   5.411   1.443   6.608
 8282TIP3   OH224786   0.893   1.321   6.803
 8282TIP3    H124787   0.869   1.303   6.712
 8282TIP3    H224788   0.851   1.404   6.823
 8283TIP3   OH224789   2.915   4.297   5.955
 8283TIP3    H124790   2.962   4.379   5.969
 8283TIP3    H224791   2.954   4.260   5.876
 8284TIP3   OH224792   6.946   1.434   4.569
 8284TIP3    H124793   7.000   1.511   4.551
 8284TIP3    H224794   6.912   1.409   4.483
 8285TIP3   OH224795   0.617   2.848   0.815
 8285TIP3    H124796   0.567   2.925   0.786
 8285TIP3    H224797   0.550   2.785   0.840
 8286TIP3   OH224798   2.705   3.961   0.353
 8286TIP3    H124799   2.619   3.919   0.356
 8286TIP3    H224800   2.766   3.891   0.376
 8287TIP3   OH224801   2.407   4.761   0.293
 8287TIP3    H124802   2.456   4.771   0.211
 8287TIP3    H224803   2.405   4.667   0.308
 8288TIP3   OH224804   4.815   5.178   4.209
 8288TIP3    H124805   4.871   5.104   4.186
 8288TIP3    H224806   4.728   5.151   4.182
 8289TIP3   OH224807   0.638   0.129   1.943
 8289TIP3    H124808   0.658   0.144   2.035
 8289TIP3    H224809   0.723   0.115   1.902
 8290TIP3   OH224810   5.855   6.273   6.203
 8290TIP3    H124811   5.894   6.191   6.172
 8290TIP3    H224812   5.919   6.307   6.266
 8291TIP3   OH224813   4.821   5.688   2.863
 8291TIP3    H124814   4.865   5.663   2.782
 8291TIP3    H224815   4.826   5.610   2.919
 8292TIP3   OH224816   7.998   1.872   1.887
 8292TIP3    H124817   7.928   1.930   1.858
 8292TIP3    H224818   7.956   1.814   1.951
 8293TIP3   OH224819   7.156   3.567   1.664
 8293TIP3    H124820   7.129   3.585   1.754
 8293TIP3    H224821   7.233   3.511   1.672
 8294TIP3   OH224822   5.992   5.720   0.039
 8294TIP3    H124823   6.031   5.662  -0.027
 8294TIP3    H224824   5.918   5.671   0.073
 8295TIP3   OH224825   7.274   7.818   4.312
 8295TIP3    H124826   7.364   7.838   4.336
 8295TIP3    H224827   7.278   7.733   4.269
 8296TIP3   OH224828   5.063   3.606   3.987
 8296TIP3    H124829   4.998   3.549   4.028
 8296TIP3    H224830   5.141   3.552   3.978
 8297TIP3   OH224831   6.866   1.579   0.186
 8297TIP3    H124832   6.866   1.560   0.280
 8297TIP3    H224833   6.851   1.673   0.180
 8298TIP3   OH224834   5.616   7.417   6.157
 8298TIP3    H124835   5.626   7.439   6.250
 8298TIP3    H224836   5.670   7.481   6.111
 8299TIP3   OH224837   1.123   0.240   2.924
 8299TIP3    H124838   1.131   0.279   2.837
 8299TIP3    H224839   1.049   0.180   2.916
 8300TIP3   OH224840   7.918   5.128   0.576
 8300TIP3    H124841   7.904   5.062   0.508
 8300TIP3    H224842   7.831   5.168   0.589
 8301TIP3   OH224843   1.564   0.801   3.135
 8301TIP3    H124844   1.524   0.886   3.149
 8301TIP3    H224845   1.639   0.818   3.079
 8302TIP3   OH224846   0.278   2.306   2.808
 8302TIP3    H124847   0.234   2.229   2.844
 8302TIP3    H224848   0.351   2.270   2.758
 8303TIP3   OH224849   1.685   2.861   2.451
 8303TIP3    H124850   1.612   2.906   2.407
 8303TIP3    H224851   1.731   2.816   2.380
 8304TIP3   OH224852   2.598   1.404   5.563
 8304TIP3    H124853   2.656   1.470   5.601
 8304TIP3    H224854   2.511   1.427   5.595
 8305TIP3   OH224855   4.558   3.508   1.642
 8305TIP3    H124856   4.645   3.515   1.603
 8305TIP3    H224857   4.529   3.599   1.652
 8306TIP3   OH224858   6.154   7.835   2.794
 8306TIP3    H124859   6.194   7.833   2.882
 8306TIP3    H224860   6.208   7.897   2.745
 8307TIP3   OH224861   4.675   1.565   4.525
 8307TIP3    H124862   4.748   1.626   4.539
 8307TIP3    H224863   4.699   1.517   4.447
 8308TIP3   OH224864   3.350   5.761   3.002
 8308TIP3    H124865   3.347   5.749   2.907
 8308TIP3    H224866   3.417   5.699   3.033
 8309TIP3   OH224867   3.874   6.400   5.605
 8309TIP3    H124868   3.779   6.407   5.592
 8309TIP3    H224869   3.903   6.491   5.616
 8310TIP3   OH224870   2.536   4.497   3.958
 8310TIP3    H124871   2.572   4.526   3.875
 8310TIP3    H224872   2.613   4.489   4.016
 8311TIP3   OH224873   0.263   6.189   0.364
 8311TIP3    H124874   0.221   6.256   0.311
 8311TIP3    H224875   0.196   6.121   0.375
 8312TIP3   OH224876   2.770   0.703   0.597
 8312TIP3    H124877   2.695   0.726   0.653
 8312TIP3    H224878   2.738   0.717   0.508
 8313TIP3   OH224879   8.232   7.205   3.426
 8313TIP3    H124880   8.288   7.196   3.503
 8313TIP3    H224881   8.273   7.274   3.374
 8314TIP3   OH224882   6.601   2.324   3.767
 8314TIP3    H124883   6.567   2.335   3.856
 8314TIP3    H224884   6.640   2.409   3.746
 8315TIP3   OH224885   6.895   2.141   2.508
 8315TIP3    H124886   6.966   2.200   2.484
 8315TIP3    H224887   6.936   2.074   2.562
 8316TIP3   OH224888   4.258   4.930   3.998
 8316TIP3    H124889   4.324   4.878   3.952
 8316TIP3    H224890   4.181   4.928   3.940
 8317TIP3   OH224891   2.016   5.539   3.571
 8317TIP3    H124892   2.062   5.517   3.490
 8317TIP3    H224893   2.019   5.458   3.623
 8318TIP3   OH224894   5.518   5.187   5.869
 8318TIP3    H124895   5.483   5.167   5.783
 8318TIP3    H224896   5.471   5.128   5.928
 8319TIP3   OH224897   4.011   1.670   4.762
 8319TIP3    H124898   3.952   1.699   4.832
 8319TIP3    H224899   3.958   1.609   4.710
 8320TIP3   OH224900   2.989   2.515   3.003
 8320TIP3    H124901   2.988   2.543   2.911
 8320TIP3    H224902   3.037   2.433   3.003
 8321TIP3   OH224903   3.734   0.273   5.064
 8321TIP3    H124904   3.648   0.247   5.031
 8321TIP3    H224905   3.768   0.195   5.107
 8322TIP3   OH224906   2.805   1.248   5.259
 8322TIP3    H124907   2.900   1.233   5.252
 8322TIP3    H224908   2.788   1.247   5.353
 8323TIP3   OH224909   6.975   3.446   0.737
 8323TIP3    H124910   7.000   3.361   0.701
 8323TIP3    H224911   6.885   3.459   0.707
 8324TIP3   OH224912   6.620   2.492   3.078
 8324TIP3    H124913   6.687   2.426   3.092
 8324TIP3    H224914   6.544   2.461   3.129
 8325TIP3   OH224915   0.219   7.294   6.525
 8325TIP3    H124916   0.240   7.382   6.556
 8325TIP3    H224917   0.246   7.236   6.597
 8326TIP3   OH224918   7.225   4.545   6.154
 8326TIP3    H124919   7.274   4.545   6.236
 8326TIP3    H224920   7.192   4.635   6.146
 8327TIP3   OH224921   1.871   6.254   3.380
 8327TIP3    H124922   1.825   6.171   3.366
 8327TIP3    H224923   1.867   6.268   3.474
 8328TIP3   OH224924   1.750   3.404   5.726
 8328TIP3    H124925   1.663   3.443   5.719
 8328TIP3    H224926   1.807   3.462   5.675
 8329TIP3   OH224927   0.553   7.824   1.412
 8329TIP3    H124928   0.466   7.850   1.444
 8329TIP3    H224929   0.598   7.906   1.397
 8330TIP3   OH224930   6.055   6.877   0.511
 8330TIP3    H124931   6.112   6.826   0.569
 8330TIP3    H224932   6.056   6.965   0.548
 8331TIP3   OH224933   5.107   4.033   6.089
 8331TIP3    H124934   5.199   4.047   6.111
 8331TIP3    H224935   5.101   3.939   6.071
 8332TIP3   OH224936   4.159   7.183   2.311
 8332TIP3    H124937   4.086   7.238   2.340
 8332TIP3    H224938   4.119   7.098   2.293
 8333TIP3   OH224939   4.667   1.526   4.228
 8333TIP3    H124940   4.697   1.608   4.267
 8333TIP3    H224941   4.633   1.552   4.142
 8334TIP3   OH224942   3.058   2.726   1.956
 8334TIP3    H124943   3.121   2.723   2.028
 8334TIP3    H224944   2.973   2.710   1.997
 8335TIP3   OH224945   6.293   3.582   4.010
 8335TIP3    H124946   6.384   3.607   4.024
 8335TIP3    H224947   6.295   3.486   4.004
 8336TIP3   OH224948   1.298   4.441   6.124
 8336TIP3    H124949   1.294   4.523   6.075
 8336TIP3    H224950   1.233   4.451   6.193
 8337TIP3   OH224951   2.830   0.591   5.912
 8337TIP3    H124952   2.867   0.593   5.823
 8337TIP3    H224953   2.809   0.683   5.931
 8338TIP3   OH224954   3.338   2.276   2.161
 8338TIP3    H124955   3.397   2.289   2.086
 8338TIP3    H224956   3.251   2.298   2.127
 8339TIP3   OH224957   2.369   0.931   2.023
 8339TIP3    H124958   2.445   0.990   2.032
 8339TIP3    H224959   2.394   0.871   1.953
 8340TIP3   OH224960   5.750   6.424   1.501
 8340TIP3    H124961   5.785   6.345   1.461
 8340TIP3    H224962   5.750   6.489   1.431
 8341TIP3   OH224963   6.544   6.520   2.770
 8341TIP3    H124964   6.570   6.597   2.821
 8341TIP3    H224965   6.472   6.481   2.819
 8342TIP3   OH224966   4.045   3.227   4.100
 8342TIP3    H124967   4.023   3.221   4.193
 8342TIP3    H224968   4.028   3.140   4.066
 8343TIP3   OH224969   0.455   0.416   2.705
 8343TIP3    H124970   0.416   0.444   2.622
 8343TIP3    H224971   0.380   0.386   2.758
 8344TIP3   OH224972   1.897   3.039   5.185
 8344TIP3    H124973   1.971   3.100   5.185
 8344TIP3    H224974   1.926   2.967   5.241
 8345TIP3   OH224975   4.896   2.459   0.208
 8345TIP3    H124976   4.916   2.491   0.296
 8345TIP3    H224977   4.807   2.424   0.216
 8346TIP3   OH224978   5.026   2.552   1.989
 8346TIP3    H124979   5.096   2.615   2.006
 8346TIP3    H224980   5.060   2.469   2.020
 8347TIP3   OH224981   0.865   6.750   2.585
 8347TIP3    H124982   0.831   6.661   2.574
 8347TIP3    H224983   0.957   6.744   2.560
 8348TIP3   OH224984   5.949   5.240   1.982
 8348TIP3    H124985   5.969   5.202   2.067
 8348TIP3    H224986   5.858   5.217   1.965
 8349TIP3   OH224987   6.645   5.686   4.806
 8349TIP3    H124988   6.640   5.761   4.865
 8349TIP3    H224989   6.598   5.616   4.852
 8350TIP3   OH224990   1.241   4.207   4.731
 8350TIP3    H124991   1.202   4.176   4.649
 8350TIP3    H224992   1.168   4.243   4.780
 8351TIP3   OH224993   5.328   6.304   3.381
 8351TIP3    H124994   5.263   6.309   3.311
 8351TIP3    H224995   5.383   6.381   3.368
 8352TIP3   OH224996   0.064   3.974   0.242
 8352TIP3    H124997  -0.022   3.956   0.278
 8352TIP3    H224998   0.081   4.065   0.266
 8353TIP3   OH224999   3.234   4.394   6.716
 8353TIP3    H125000   3.230   4.453   6.792
 8353TIP3    H225001   3.303   4.431   6.661
 8354TIP3   OH225002   3.271   6.234   1.315
 8354TIP3    H125003   3.335   6.218   1.384
 8354TIP3    H225004   3.311   6.300   1.259
 8355TIP3   OH225005   2.892   3.876   2.077
 8355TIP3    H125006   2.867   3.956   2.030
 8355TIP3    H225007   2.811   3.825   2.081
 8356TIP3   OH225008   7.797   1.069   3.152
 8356TIP3    H125009   7.749   1.105   3.226
 8356TIP3    H225010   7.730   1.028   3.097
 8357TIP3   OH225011   3.229   1.468   4.671
 8357TIP3    H125012   3.205   1.555   4.702
 8357TIP3    H225013   3.314   1.480   4.629
 8358TIP3   OH225014   6.877   1.418   1.004
 8358TIP3    H125015   6.786   1.442   1.019
 8358TIP3    H225016   6.876   1.322   1.000
 8359TIP3   OH225017   1.936   7.242   4.590
 8359TIP3    H125018   1.863   7.192   4.627
 8359TIP3    H225019   1.983   7.275   4.666
 8360TIP3   OH225020   4.910   4.741   1.436
 8360TIP3    H125021   4.902   4.801   1.510
 8360TIP3    H225022   4.927   4.798   1.361
 8361TIP3   OH225023   0.807   4.231   6.724
 8361TIP3    H125024   0.900   4.209   6.726
 8361TIP3    H225025   0.783   4.226   6.632
 8362TIP3   OH225026   7.021   0.172   4.726
 8362TIP3    H125027   6.943   0.206   4.770
 8362TIP3    H225028   7.010   0.197   4.634
 8363TIP3   OH225029   6.077   4.653   3.859
 8363TIP3    H125030   6.172   4.654   3.875
 8363TIP3    H225031   6.068   4.620   3.770
 8364TIP3   OH225032   5.137   1.324   2.133
 8364TIP3    H125033   5.078   1.294   2.064
 8364TIP3    H225034   5.213   1.266   2.126
 8365TIP3   OH225035   5.623   2.040   0.129
 8365TIP3    H125036   5.542   2.055   0.177
 8365TIP3    H225037   5.641   1.946   0.142
 8366TIP3   OH225038   0.730   4.390   3.179
 8366TIP3    H125039   0.745   4.397   3.273
 8366TIP3    H225040   0.745   4.478   3.145
 8367TIP3   OH225041   7.947   0.542   4.913
 8367TIP3    H125042   8.010   0.471   4.917
 8367TIP3    H225043   7.900   0.528   4.831
 8368TIP3   OH225044   5.197   6.870   1.972
 8368TIP3    H125045   5.217   6.942   1.912
 8368TIP3    H225046   5.282   6.841   2.003
 8369TIP3   OH225047   1.377   3.972   5.216
 8369TIP3    H125048   1.306   3.937   5.162
 8369TIP3    H225049   1.450   3.986   5.155
 8370TIP3   OH225050   2.754   3.564   2.817
 8370TIP3    H125051   2.692   3.515   2.762
 8370TIP3    H225052   2.779   3.639   2.763
 8371TIP3   OH225053   1.581   5.635   3.749
 8371TIP3    H125054   1.600   5.701   3.682
 8371TIP3    H225055   1.661   5.630   3.801
 8372TIP3   OH225056   3.769   4.528   0.320
 8372TIP3    H125057   3.832   4.474   0.367
 8372TIP3    H225058   3.720   4.467   0.265
 8373TIP3   OH225059   7.547   3.372   6.801
 8373TIP3    H125060   7.509   3.459   6.793
 8373TIP3    H225061   7.631   3.386   6.844
 8374TIP3   OH225062   0.584   2.439   2.256
 8374TIP3    H125063   0.491   2.452   2.277
 8374TIP3    H225064   0.602   2.504   2.188
 8375TIP3   OH225065   6.446   0.683   4.815
 8375TIP3    H125066   6.463   0.772   4.787
 8375TIP3    H225067   6.433   0.690   4.910
 8376TIP3   OH225068   7.561   0.855   1.313
 8376TIP3    H125069   7.466   0.856   1.318
 8376TIP3    H225070   7.583   0.771   1.274
 8377TIP3   OH225071   3.937   6.145   1.904
 8377TIP3    H125072   3.897   6.114   1.823
 8377TIP3    H225073   4.010   6.086   1.919
 8378TIP3   OH225074   7.103   2.162   2.028
 8378TIP3    H125075   7.100   2.066   2.031
 8378TIP3    H225076   7.090   2.189   2.118
 8379TIP3   OH225077   3.249   0.893   0.593
 8379TIP3    H125078   3.177   0.911   0.652
 8379TIP3    H225079   3.227   0.939   0.512
 8380TIP3   OH225080   7.081   3.338   4.012
 8380TIP3    H125081   6.986   3.351   4.013
 8380TIP3    H225082   7.113   3.405   3.952
 8381TIP3   OH225083   3.944   4.355   0.417
 8381TIP3    H125084   3.903   4.319   0.495
 8381TIP3    H225085   3.973   4.278   0.367
 8382TIP3   OH225086   7.685   1.410   6.234
 8382TIP3    H125087   7.685   1.456   6.318
 8382TIP3    H225088   7.694   1.317   6.258
 8383TIP3   OH225089   1.910   5.301   1.640
 8383TIP3    H125090   1.855   5.362   1.591
 8383TIP3    H225091   1.999   5.317   1.608
 8384TIP3   OH225092   0.738   6.021   5.875
 8384TIP3    H125093   0.734   5.981   5.788
 8384TIP3    H225094   0.821   5.989   5.912
 8385TIP3   OH225095   4.296   4.894   0.811
 8385TIP3    H125096   4.208   4.891   0.848
 8385TIP3    H225097   4.308   4.808   0.770
 8386TIP3   OH225098   4.777   3.549   4.730
 8386TIP3    H125099   4.871   3.551   4.714
 8386TIP3    H225100   4.757   3.635   4.769
 8387TIP3   OH225101   3.102   5.996   6.504
 8387TIP3    H125102   3.048   5.992   6.583
 8387TIP3    H225103   3.178   6.048   6.529
 8388TIP3   OH225104   7.905   5.925   4.953
 8388TIP3    H125105   7.838   5.857   4.965
 8388TIP3    H225106   7.937   5.942   5.041
 8389TIP3   OH225107   8.386   6.924   5.572
 8389TIP3    H125108   8.397   6.986   5.500
 8389TIP3    H225109   8.293   6.929   5.594
 8390TIP3   OH225110   1.631   4.667   3.303
 8390TIP3    H125111   1.715   4.681   3.347
 8390TIP3    H225112   1.646   4.592   3.246
 8391TIP3   OH225113   6.370   0.080   3.617
 8391TIP3    H125114   6.323   0.159   3.644
 8391TIP3    H225115   6.302   0.012   3.612
 8392TIP3   OH225116   2.472   2.125   6.208
 8392TIP3    H125117   2.540   2.060   6.196
 8392TIP3    H225118   2.510   2.207   6.176
 8393TIP3   OH225119   1.358   3.454   0.970
 8393TIP3    H125120   1.370   3.365   0.937
 8393TIP3    H225121   1.411   3.509   0.911
 8394TIP3   OH225122   4.192   3.811   5.347
 8394TIP3    H125123   4.247   3.809   5.269
 8394TIP3    H225124   4.114   3.861   5.320
 8395TIP3   OH225125   7.389   4.249   6.389
 8395TIP3    H125126   7.448   4.313   6.429
 8395TIP3    H225127   7.350   4.203   6.463
 8396TIP3   OH225128   3.258   1.076   3.115
 8396TIP3    H125129   3.285   1.150   3.061
 8396TIP3    H225130   3.163   1.086   3.124
 8397TIP3   OH225131   7.568   2.741   6.205
 8397TIP3    H125132   7.532   2.653   6.201
 8397TIP3    H225133   7.491   2.799   6.199
 8398TIP3   OH225134   7.163   3.135   3.004
 8398TIP3    H125135   7.172   3.126   3.099
 8398TIP3    H225136   7.244   3.099   2.969
 8399TIP3   OH225137   6.472   4.959   5.730
 8399TIP3    H125138   6.554   4.933   5.771
 8399TIP3    H225139   6.460   4.896   5.658
 8400TIP3   OH225140   6.624   2.064   1.101
 8400TIP3    H125141   6.674   2.055   1.182
 8400TIP3    H225142   6.687   2.101   1.038
 8401TIP3   OH225143   5.966   2.313   4.047
 8401TIP3    H125144   6.030   2.278   4.109
 8401TIP3    H225145   5.890   2.334   4.100
 8402TIP3   OH225146   5.553   1.273   3.493
 8402TIP3    H125147   5.643   1.303   3.478
 8402TIP3    H225148   5.555   1.179   3.475
 8403TIP3   OH225149   6.636   0.037   4.723
 8403TIP3    H125150   6.594   0.122   4.711
 8403TIP3    H225151   6.705   0.034   4.656
 8404TIP3   OH225152   1.972   3.960   3.101
 8404TIP3    H125153   1.986   3.991   3.012
 8404TIP3    H225154   1.933   4.035   3.147
 8405TIP3   OH225155   6.148   3.706   3.771
 8405TIP3    H125156   6.190   3.669   3.849
 8405TIP3    H225157   6.167   3.643   3.702
 8406TIP3   OH225158   7.044   3.513   5.185
 8406TIP3    H125159   7.035   3.494   5.092
 8406TIP3    H225160   6.974   3.574   5.205
 8407TIP3   OH225161   2.552   0.472   5.560
 8407TIP3    H125162   2.486   0.407   5.584
 8407TIP3    H225163   2.635   0.432   5.583
 8408TIP3   OH225164   2.332   5.978   6.724
 8408TIP3    H125165   2.259   6.031   6.756
 8408TIP3    H225166   2.347   6.008   6.635
 8409TIP3   OH225167   2.283   5.778   3.441
 8409TIP3    H125168   2.362   5.832   3.441
 8409TIP3    H225169   2.228   5.815   3.372
 8410TIP3   OH225170   5.050   1.907   1.323
 8410TIP3    H125171   4.972   1.941   1.365
 8410TIP3    H225172   5.041   1.812   1.327
 8411TIP3   OH225173   6.673   3.066   1.533
 8411TIP3    H125174   6.744   3.075   1.597
 8411TIP3    H225175   6.641   2.976   1.545
 8412TIP3   OH225176   7.191   3.661   0.096
 8412TIP3    H125177   7.277   3.680   0.057
 8412TIP3    H225178   7.177   3.732   0.158
 8413TIP3   OH225179   1.441   6.376   1.846
 8413TIP3    H125180   1.444   6.470   1.826
 8413TIP3    H225181   1.416   6.335   1.763
 8414TIP3   OH225182   3.410   6.509   0.012
 8414TIP3    H125183   3.373   6.474   0.093
 8414TIP3    H225184   3.452   6.591   0.039
 8415TIP3   OH225185   1.557   4.569   5.017
 8415TIP3    H125186   1.544   4.495   5.076
 8415TIP3    H225187   1.626   4.622   5.057
 8416TIP3   OH225188   4.326   0.490   6.310
 8416TIP3    H125189   4.289   0.575   6.285
 8416TIP3    H225190   4.420   0.505   6.318
 8417TIP3   OH225191   7.507   7.155   2.487
 8417TIP3    H125192   7.451   7.099   2.433
 8417TIP3    H225193   7.593   7.151   2.445
 8418TIP3   OH225194   4.417   4.506   0.218
 8418TIP3    H125195   4.366   4.474   0.293
 8418TIP3    H225196   4.418   4.601   0.229
 8419TIP3   OH225197   1.382   1.765   0.025
 8419TIP3    H125198   1.452   1.768   0.090
 8419TIP3    H225199   1.421   1.722  -0.051
 8420TIP3   OH225200   4.382   5.574   2.639
 8420TIP3    H125201   4.413   5.531   2.718
 8420TIP3    H225202   4.286   5.576   2.649
 8421TIP3   OH225203   2.874   5.457   0.866
 8421TIP3    H125204   2.850   5.530   0.924
 8421TIP3    H225205   2.791   5.426   0.831
 8422TIP3   OH225206   2.257   4.722   1.001
 8422TIP3    H125207   2.282   4.698   1.090
 8422TIP3    H225208   2.301   4.657   0.946
 8423TIP3   OH225209   2.581   1.879   2.044
 8423TIP3    H125210   2.497   1.861   2.085
 8423TIP3    H225211   2.578   1.834   1.960
 8424TIP3   OH225212   0.476   7.599   0.149
 8424TIP3    H125213   0.383   7.603   0.127
 8424TIP3    H225214   0.518   7.663   0.091
 8425TIP3   OH225215   5.270   6.053   1.255
 8425TIP3    H125216   5.356   6.020   1.279
 8425TIP3    H225217   5.282   6.094   1.169
 8426TIP3   OH225218   4.191   7.301   1.180
 8426TIP3    H125219   4.119   7.254   1.221
 8426TIP3    H225220   4.185   7.277   1.087
 8427TIP3   OH225221   2.738   1.379   3.636
 8427TIP3    H125222   2.755   1.335   3.720
 8427TIP3    H225223   2.708   1.309   3.578
 8428TIP3   OH225224   4.770   6.480   6.541
 8428TIP3    H125225   4.833   6.420   6.502
 8428TIP3    H225226   4.721   6.516   6.467
 8429TIP3   OH225227   4.771   6.401   4.175
 8429TIP3    H125228   4.677   6.387   4.186
 8429TIP3    H225229   4.811   6.324   4.215
 8430TIP3   OH225230   1.165   6.095   3.516
 8430TIP3    H125231   1.224   6.165   3.543
 8430TIP3    H225232   1.088   6.140   3.481
 8431TIP3   OH225233   7.138   4.680   4.711
 8431TIP3    H125234   7.179   4.595   4.727
 8431TIP3    H225235   7.164   4.734   4.785
 8432TIP3   OH225236   7.154   5.292   5.391
 8432TIP3    H125237   7.248   5.281   5.397
 8432TIP3    H225238   7.133   5.358   5.458
 8433TIP3   OH225239   7.716   2.110   1.775
 8433TIP3    H125240   7.695   2.194   1.816
 8433TIP3    H225241   7.633   2.062   1.774
 8434TIP3   OH225242   1.545   3.054   3.661
 8434TIP3    H125243   1.570   2.965   3.689
 8434TIP3    H225244   1.597   3.069   3.582
 8435TIP3   OH225245   6.098   5.111   0.293
 8435TIP3    H125246   6.097   5.063   0.209
 8435TIP3    H225247   6.024   5.076   0.342
 8436TIP3   OH225248   4.707   4.507   4.483
 8436TIP3    H125249   4.692   4.496   4.577
 8436TIP3    H225250   4.642   4.572   4.456
 8437TIP3   OH225251   6.767   2.257   3.101
 8437TIP3    H125252   6.751   2.227   3.190
 8437TIP3    H225253   6.772   2.176   3.049
 8438TIP3   OH225254   1.574   1.818   1.961
 8438TIP3    H125255   1.666   1.835   1.980
 8438TIP3    H225256   1.532   1.904   1.966
 8439TIP3   OH225257   4.977   4.809   0.577
 8439TIP3    H125258   4.901   4.866   0.593
 8439TIP3    H225259   4.962   4.776   0.488
 8440TIP3   OH225260   5.797   5.789   0.768
 8440TIP3    H125261   5.861   5.763   0.702
 8440TIP3    H225262   5.825   5.877   0.794
 8441TIP3   OH225263   5.558   3.179   2.264
 8441TIP3    H125264   5.570   3.221   2.179
 8441TIP3    H225265   5.552   3.252   2.326
 8442TIP3   OH225266   6.053   6.659   6.458
 8442TIP3    H125267   6.138   6.684   6.421
 8442TIP3    H225268   6.009   6.743   6.474
 8443TIP3   OH225269   6.315   2.325   5.965
 8443TIP3    H125270   6.381   2.350   5.901
 8443TIP3    H225271   6.330   2.231   5.980
 8444TIP3   OH225272   1.990   3.703   3.275
 8444TIP3    H125273   2.030   3.776   3.227
 8444TIP3    H225274   1.967   3.640   3.207
 8445TIP3   OH225275   5.998   1.297   5.868
 8445TIP3    H125276   5.932   1.236   5.901
 8445TIP3    H225277   6.007   1.274   5.775
 8446TIP3   OH225278   0.946   7.343   1.999
 8446TIP3    H125279   0.945   7.261   1.951
 8446TIP3    H225280   0.918   7.320   2.087
 8447TIP3   OH225281   1.962   3.309   6.183
 8447TIP3    H125282   2.029   3.376   6.171
 8447TIP3    H225283   1.891   3.336   6.125
 8448TIP3   OH225284   4.906   4.473   0.546
 8448TIP3    H125285   4.922   4.524   0.467
 8448TIP3    H225286   4.892   4.538   0.615
 8449TIP3   OH225287   1.537   2.918   4.056
 8449TIP3    H125288   1.463   2.929   4.115
 8449TIP3    H225289   1.584   3.001   4.062
 8450TIP3   OH225290   3.563   3.591   3.294
 8450TIP3    H125291   3.516   3.522   3.247
 8450TIP3    H225292   3.602   3.546   3.369
 8451TIP3   OH225293   6.454   5.950   1.957
 8451TIP3    H125294   6.483   5.883   1.895
 8451TIP3    H225295   6.490   6.031   1.923
 8452TIP3   OH225296   7.018   1.606   2.559
 8452TIP3    H125297   6.941   1.638   2.606
 8452TIP3    H225298   6.982   1.567   2.479
 8453TIP3   OH225299   7.892   7.772   6.408
 8453TIP3    H125300   7.841   7.809   6.336
 8453TIP3    H225301   7.902   7.845   6.470
 8454TIP3   OH225302   5.318   5.909   0.832
 8454TIP3    H125303   5.396   5.927   0.780
 8454TIP3    H225304   5.347   5.848   0.900
 8455TIP3   OH225305   6.177   6.627   0.621
 8455TIP3    H125306   6.180   6.532   0.635
 8455TIP3    H225307   6.255   6.647   0.569
 8456TIP3   OH225308   5.234   7.777   6.334
 8456TIP3    H125309   5.306   7.820   6.380
 8456TIP3    H225310   5.271   7.750   6.250
 8457TIP3   OH225311   5.801   3.857   2.348
 8457TIP3    H125312   5.749   3.807   2.284
 8457TIP3    H225313   5.855   3.791   2.391
 8458TIP3   OH225314   7.422   6.750   2.673
 8458TIP3    H125315   7.472   6.669   2.686
 8458TIP3    H225316   7.430   6.797   2.755
 8459TIP3   OH225317   7.111   3.306   2.112
 8459TIP3    H125318   7.063   3.288   2.192
 8459TIP3    H225319   7.159   3.225   2.094
 8460TIP3   OH225320   4.806   1.952   0.265
 8460TIP3    H125321   4.823   1.970   0.172
 8460TIP3    H225322   4.884   1.983   0.310
 8461TIP3   OH225323   2.198   1.832   6.490
 8461TIP3    H125324   2.157   1.745   6.487
 8461TIP3    H225325   2.201   1.854   6.584
 8462TIP3   OH225326   8.361   3.005   2.060
 8462TIP3    H125327   8.351   2.936   1.994
 8462TIP3    H225328   8.280   3.004   2.109
 8463TIP3   OH225329   3.509   5.568   0.911
 8463TIP3    H125330   3.414   5.575   0.921
 8463TIP3    H225331   3.525   5.589   0.820
 8464TIP3   OH225332   3.715   7.698   4.590
 8464TIP3    H125333   3.681   7.624   4.640
 8464TIP3    H225334   3.743   7.762   4.656
 8465TIP3   OH225335   7.880   5.692   4.595
 8465TIP3    H125336   7.962   5.724   4.632
 8465TIP3    H225337   7.879   5.725   4.505
 8466TIP3   OH225338   2.898   0.700   4.303
 8466TIP3    H125339   2.889   0.659   4.217
 8466TIP3    H225340   2.816   0.680   4.348
 8467TIP3   OH225341   3.409   7.768   2.679
 8467TIP3    H125342   3.468   7.697   2.654
 8467TIP3    H225343   3.466   7.836   2.714
 8468TIP3   OH225344   0.570   6.939   1.811
 8468TIP3    H125345   0.477   6.919   1.813
 8468TIP3    H225346   0.580   7.011   1.874
 8469TIP3   OH225347   5.923   6.865   3.187
 8469TIP3    H125348   5.832   6.877   3.160
 8469TIP3    H225349   5.927   6.902   3.276
 8470TIP3   OH225350   4.901   6.248   3.679
 8470TIP3    H125351   4.989   6.220   3.657
 8470TIP3    H225352   4.863   6.276   3.596
 8471TIP3   OH225353   5.489   2.692   6.374
 8471TIP3    H125354   5.561   2.640   6.410
 8471TIP3    H225355   5.451   2.736   6.450
 8472TIP3   OH225356   3.660   0.636   4.707
 8472TIP3    H125357   3.650   0.599   4.620
 8472TIP3    H225358   3.627   0.725   4.699
 8473TIP3   OH225359   5.797   3.486   0.937
 8473TIP3    H125360   5.885   3.510   0.907
 8473TIP3    H225361   5.809   3.407   0.988
 8474TIP3   OH225362   0.633   1.333   2.289
 8474TIP3    H125363   0.668   1.323   2.201
 8474TIP3    H225364   0.642   1.247   2.329
 8475TIP3   OH225365   2.242   1.820   0.050
 8475TIP3    H125366   2.187   1.898   0.060
 8475TIP3    H225367   2.320   1.852   0.004
 8476TIP3   OH225368   0.131   0.511   5.510
 8476TIP3    H125369   0.116   0.479   5.421
 8476TIP3    H225370   0.206   0.569   5.502
 8477TIP3   OH225371   6.195   7.445   3.904
 8477TIP3    H125372   6.188   7.512   3.973
 8477TIP3    H225373   6.184   7.493   3.823
 8478TIP3   OH225374   7.310   2.864   6.188
 8478TIP3    H125375   7.297   2.842   6.280
 8478TIP3    H225376   7.222   2.879   6.154
 8479TIP3   OH225377   6.740   5.690   1.407
 8479TIP3    H125378   6.730   5.785   1.417
 8479TIP3    H225379   6.736   5.675   1.313
 8480TIP3   OH225380   1.918   5.613   1.911
 8480TIP3    H125381   1.924   5.518   1.898
 8480TIP3    H225382   1.891   5.622   2.003
 8481TIP3   OH225383   6.442   5.012   4.562
 8481TIP3    H125384   6.521   5.059   4.590
 8481TIP3    H225385   6.406   5.066   4.491
 8482TIP3   OH225386   7.626   6.704   3.305
 8482TIP3    H125387   7.534   6.727   3.291
 8482TIP3    H225388   7.627   6.654   3.386
 8483TIP3   OH225389   7.971   7.149   1.956
 8483TIP3    H125390   8.061   7.118   1.963
 8483TIP3    H225391   7.923   7.101   2.023
 8484TIP3   OH225392   3.595   6.041   3.897
 8484TIP3    H125393   3.630   6.046   3.808
 8484TIP3    H225394   3.550   5.957   3.899
 8485TIP3   OH225395   4.607   1.876   6.458
 8485TIP3    H125396   4.666   1.858   6.385
 8485TIP3    H225397   4.526   1.830   6.435
 8486TIP3   OH225398   2.697   1.600   1.776
 8486TIP3    H125399   2.701   1.684   1.729
 8486TIP3    H225400   2.663   1.538   1.711
 8487TIP3   OH225401   6.793   2.225   2.277
 8487TIP3    H125402   6.733   2.297   2.296
 8487TIP3    H225403   6.804   2.180   2.360
 8488TIP3   OH225404   4.014   6.051   2.792
 8488TIP3    H125405   3.944   6.084   2.849
 8488TIP3    H225406   4.028   5.961   2.822
 8489TIP3   OH225407   3.375   1.589   4.296
 8489TIP3    H125408   3.312   1.517   4.292
 8489TIP3    H225409   3.342   1.653   4.233
 8490TIP3   OH225410   1.143   1.259   3.180
 8490TIP3    H125411   1.222   1.244   3.231
 8490TIP3    H225412   1.127   1.176   3.136
 8491TIP3   OH225413   4.464   0.090   1.976
 8491TIP3    H125414   4.464   0.066   2.069
 8491TIP3    H225415   4.388   0.044   1.940
 8492TIP3   OH225416   3.441   2.992   4.972
 8492TIP3    H125417   3.463   3.083   4.954
 8492TIP3    H225418   3.456   2.946   4.889
 8493TIP3   OH225419   6.206   0.934   5.126
 8493TIP3    H125420   6.224   0.925   5.033
 8493TIP3    H225421   6.188   1.028   5.138
 8494TIP3   OH225422   8.178   6.462   3.125
 8494TIP3    H125423   8.266   6.425   3.119
 8494TIP3    H225424   8.191   6.550   3.161
 8495TIP3   OH225425   7.223   6.870   1.972
 8495TIP3    H125426   7.263   6.944   1.926
 8495TIP3    H225427   7.194   6.907   2.055
 8496TIP3   OH225428   1.720   0.841   6.241
 8496TIP3    H125429   1.736   0.761   6.291
 8496TIP3    H225430   1.625   0.841   6.227
 8497TIP3   OH225431   3.996   6.136   6.364
 8497TIP3    H125432   4.031   6.137   6.275
 8497TIP3    H225433   3.999   6.043   6.389
 8498TIP3   OH225434   5.309   4.957   0.287
 8498TIP3    H125435   5.393   4.994   0.315
 8498TIP3    H225436   5.332   4.870   0.253
 8499TIP3   OH225437   7.100   1.065   3.246
 8499TIP3    H125438   7.084   0.994   3.185
 8499TIP3    H225439   7.188   1.097   3.224
 8500TIP3   OH225440   6.978   7.396   3.907
 8500TIP3    H125441   6.913   7.352   3.962
 8500TIP3    H225442   7.046   7.331   3.893
 8501TIP3   OH225443   1.889   7.231   4.317
 8501TIP3    H125444   1.909   7.242   4.410
 8501TIP3    H225445   1.973   7.205   4.278
 8502TIP3   OH225446   1.454   3.459   6.170
 8502TIP3    H125447   1.435   3.370   6.141
 8502TIP3    H225448   1.369   3.495   6.195
 8503TIP3   OH225449   7.216   1.498   3.697
 8503TIP3    H125450   7.141   1.501   3.757
 8503TIP3    H225451   7.177   1.482   3.611
 8504TIP3   OH225452   7.588   0.959   5.341
 8504TIP3    H125453   7.632   1.028   5.391
 8504TIP3    H225454   7.523   1.006   5.288
 8505TIP3   OH225455   3.573   5.292   0.911
 8505TIP3    H125456   3.525   5.369   0.879
 8505TIP3    H225457   3.572   5.302   1.006
 8506TIP3   OH225458   5.272   7.833   5.598
 8506TIP3    H125459   5.283   7.744   5.565
 8506TIP3    H225460   5.206   7.825   5.667
 8507TIP3   OH225461   7.876   0.300   5.536
 8507TIP3    H125462   7.879   0.205   5.527
 8507TIP3    H225463   7.790   0.318   5.575
 8508TIP3   OH225464   0.835   6.249   0.236
 8508TIP3    H125465   0.781   6.186   0.284
 8508TIP3    H225466   0.804   6.334   0.264
 8509TIP3   OH225467   1.023   4.939   2.891
 8509TIP3    H125468   0.959   5.008   2.877
 8509TIP3    H225469   0.985   4.862   2.850
 8510TIP3   OH225470   7.298   0.707   4.170
 8510TIP3    H125471   7.264   0.675   4.254
 8510TIP3    H225472   7.352   0.636   4.137
 8511TIP3   OH225473   7.362   4.734   0.468
 8511TIP3    H125474   7.378   4.677   0.543
 8511TIP3    H225475   7.341   4.675   0.397
 8512TIP3   OH225476   0.174   1.172   0.509
 8512TIP3    H125477   0.198   1.264   0.516
 8512TIP3    H225478   0.085   1.172   0.474
 8513TIP3   OH225479   6.335   7.137   0.654
 8513TIP3    H125480   6.240   7.135   0.662
 8513TIP3    H225481   6.366   7.141   0.745
 8514TIP3   OH225482   5.236   2.176   3.093
 8514TIP3    H125483   5.169   2.125   3.048
 8514TIP3    H225484   5.259   2.124   3.170
 8515TIP3   OH225485   5.949   3.530   4.990
 8515TIP3    H125486   5.862   3.561   5.017
 8515TIP3    H225487   5.969   3.459   5.052
 8516TIP3   OH225488   3.784   2.969   0.688
 8516TIP3    H125489   3.831   2.979   0.771
 8516TIP3    H225490   3.816   2.886   0.653
 8517TIP3   OH225491   3.760   4.982   1.932
 8517TIP3    H125492   3.750   4.888   1.945
 8517TIP3    H225493   3.678   5.020   1.963
 8518TIP3   OH225494   6.977   6.052   1.460
 8518TIP3    H125495   6.931   5.989   1.405
 8518TIP3    H225496   7.069   6.028   1.453
 8519TIP3   OH225497   3.785   0.630   2.209
 8519TIP3    H125498   3.874   0.596   2.216
 8519TIP3    H225499   3.734   0.557   2.173
 8520TIP3   OH225500   4.410   0.869   0.042
 8520TIP3    H125501   4.431   0.786   0.086
 8520TIP3    H225502   4.484   0.926   0.061
 8521TIP3   OH225503   3.114   6.175   4.323
 8521TIP3    H125504   3.079   6.112   4.387
 8521TIP3    H225505   3.087   6.260   4.356
 8522TIP3   OH225506   0.215   7.643   1.239
 8522TIP3    H125507   0.272   7.636   1.162
 8522TIP3    H225508   0.132   7.675   1.204
 8523TIP3   OH225509   5.262   5.230   0.474
 8523TIP3    H125510   5.322   5.182   0.531
 8523TIP3    H225511   5.319   5.290   0.426
 8524TIP3   OH225512   1.201   1.150   5.962
 8524TIP3    H125513   1.128   1.101   5.998
 8524TIP3    H225514   1.163   1.198   5.888
 8525TIP3   OH225515   7.540   5.999   2.872
 8525TIP3    H125516   7.611   6.032   2.817
 8525TIP3    H225517   7.521   5.912   2.837
 8526TIP3   OH225518   5.313   4.751   6.532
 8526TIP3    H125519   5.358   4.806   6.596
 8526TIP3    H225520   5.231   4.797   6.515
 8527TIP3   OH225521   2.929   6.790   5.729
 8527TIP3    H125522   2.868   6.716   5.725
 8527TIP3    H225523   2.912   6.839   5.649
 8528TIP3   OH225524   7.131   1.188   5.705
 8528TIP3    H125525   7.162   1.278   5.704
 8528TIP3    H225526   7.036   1.196   5.710
 8529TIP3   OH225527   6.007   1.370   4.464
 8529TIP3    H125528   6.084   1.328   4.426
 8529TIP3    H225529   5.933   1.322   4.426
 8530TIP3   OH225530   6.774   3.332   5.497
 8530TIP3    H125531   6.705   3.316   5.433
 8530TIP3    H225532   6.730   3.377   5.569
 8531TIP3   OH225533   4.142   2.928   0.705
 8531TIP3    H125534   4.094   3.010   0.716
 8531TIP3    H225535   4.221   2.953   0.657
 8532TIP3   OH225536   5.186   7.578   1.078
 8532TIP3    H125537   5.145   7.501   1.037
 8532TIP3    H225538   5.193   7.642   1.007
 8533TIP3   OH225539   7.620   1.654   3.842
 8533TIP3    H125540   7.656   1.566   3.854
 8533TIP3    H225541   7.528   1.639   3.819
 8534TIP3   OH225542   2.986   7.852   5.705
 8534TIP3    H125543   2.931   7.777   5.682
 8534TIP3    H225544   3.030   7.826   5.785
 8535TIP3   OH225545   2.330   2.645   0.124
 8535TIP3    H125546   2.292   2.695   0.051
 8535TIP3    H225547   2.269   2.573   0.138
 8536TIP3   OH225548   5.216   1.800   3.389
 8536TIP3    H125549   5.290   1.739   3.379
 8536TIP3    H225550   5.178   1.804   3.301
 8537TIP3   OH225551   5.078   0.008   2.293
 8537TIP3    H125552   5.101   0.061   2.217
 8537TIP3    H225553   4.987   0.032   2.313
 8538TIP3   OH225554   2.556   1.738   0.399
 8538TIP3    H125555   2.477   1.720   0.349
 8538TIP3    H225556   2.571   1.659   0.451
 8539TIP3   OH225557   0.668   4.634   3.032
 8539TIP3    H125558   0.588   4.639   2.980
 8539TIP3    H225559   0.709   4.720   3.022
 8540TIP3   OH225560   2.102   6.648   1.697
 8540TIP3    H125561   2.053   6.593   1.759
 8540TIP3    H225562   2.191   6.613   1.698
 8541TIP3   OH225563   0.497   6.134   2.249
 8541TIP3    H125564   0.437   6.208   2.243
 8541TIP3    H225565   0.453   6.072   2.307
 8542TIP3   OH225566   3.790   2.470   2.151
 8542TIP3    H125567   3.806   2.471   2.246
 8542TIP3    H225568   3.743   2.388   2.136
 8543TIP3   OH225569   6.681   6.986   0.246
 8543TIP3    H125570   6.701   7.042   0.321
 8543TIP3    H225571   6.731   7.024   0.174
 8544TIP3   OH225572   0.344   7.798   4.937
 8544TIP3    H125573   0.361   7.709   4.908
 8544TIP3    H225574   0.273   7.829   4.880
 8545TIP3   OH225575   0.269   2.169   4.092
 8545TIP3    H125576   0.214   2.200   4.164
 8545TIP3    H225577   0.354   2.154   4.132
 8546TIP3   OH225578   4.340   6.795   4.567
 8546TIP3    H125579   4.268   6.857   4.582
 8546TIP3    H225580   4.359   6.759   4.654
 8547TIP3   OH225581   0.957   0.205   1.574
 8547TIP3    H125582   0.969   0.252   1.491
 8547TIP3    H225583   0.863   0.209   1.590
 8548TIP3   OH225584   3.645   2.733   3.409
 8548TIP3    H125585   3.629   2.801   3.343
 8548TIP3    H225586   3.599   2.764   3.487
 8549TIP3   OH225587   3.066   5.661   6.313
 8549TIP3    H125588   3.011   5.734   6.339
 8549TIP3    H225589   3.062   5.660   6.217
 8550TIP3   OH225590   2.063   7.702   6.217
 8550TIP3    H125591   2.141   7.706   6.272
 8550TIP3    H225592   2.025   7.789   6.222
 8551TIP3   OH225593   8.196   0.663   6.471
 8551TIP3    H125594   8.206   0.755   6.448
 8551TIP3    H225595   8.120   0.634   6.421
 8552TIP3   OH225596   5.162   1.187   2.698
 8552TIP3    H125597   5.074   1.205   2.664
 8552TIP3    H225598   5.166   1.234   2.781
 8553TIP3   OH225599   8.032   2.475   0.215
 8553TIP3    H125600   8.052   2.496   0.306
 8553TIP3    H225601   7.994   2.387   0.218
 8554TIP3   OH225602   3.391   4.502   6.470
 8554TIP3    H125603   3.396   4.546   6.385
 8554TIP3    H225604   3.458   4.434   6.465
 8555TIP3   OH225605   5.230   1.808   0.872
 8555TIP3    H125606   5.250   1.859   0.950
 8555TIP3    H225607   5.137   1.787   0.880
 8556TIP3   OH225608   2.667   1.380   2.927
 8556TIP3    H125609   2.758   1.410   2.933
 8556TIP3    H225610   2.619   1.457   2.897
 8557TIP3   OH225611   8.135   4.364   3.848
 8557TIP3    H125612   8.206   4.324   3.898
 8557TIP3    H225613   8.179   4.412   3.779
 8558TIP3   OH225614   5.179   7.145   4.160
 8558TIP3    H125615   5.227   7.080   4.108
 8558TIP3    H225616   5.088   7.114   4.158
 8559TIP3   OH225617   5.715   0.774   3.865
 8559TIP3    H125618   5.724   0.807   3.775
 8559TIP3    H225619   5.790   0.813   3.912
 8560TIP3   OH225620   8.244   2.281   1.353
 8560TIP3    H125621   8.249   2.202   1.408
 8560TIP3    H225622   8.266   2.250   1.265
 8561TIP3   OH225623   4.833   1.641   3.797
 8561TIP3    H125624   4.898   1.619   3.730
 8561TIP3    H225625   4.844   1.574   3.864
 8562TIP3   OH225626   2.880   2.679   4.443
 8562TIP3    H125627   2.956   2.698   4.499
 8562TIP3    H225628   2.810   2.656   4.505
 8563TIP3   OH225629   7.318   0.869   0.524
 8563TIP3    H125630   7.319   0.786   0.572
 8563TIP3    H225631   7.264   0.852   0.447
 8564TIP3   OH225632   8.196   5.297   5.446
 8564TIP3    H125633   8.289   5.274   5.441
 8564TIP3    H225634   8.157   5.256   5.369
 8565TIP3   OH225635   2.396   2.019   4.654
 8565TIP3    H125636   2.321   2.068   4.621
 8565TIP3    H225637   2.375   2.003   4.746
 8566TIP3   OH225638   7.552   3.288   2.129
 8566TIP3    H125639   7.525   3.296   2.221
 8566TIP3    H225640   7.583   3.376   2.106
 8567TIP3   OH225641   2.650   0.974   5.020
 8567TIP3    H125642   2.604   1.022   5.089
 8567TIP3    H225643   2.718   1.034   4.989
 8568TIP3   OH225644   0.611   1.660   5.094
 8568TIP3    H125645   0.596   1.572   5.129
 8568TIP3    H225646   0.610   1.717   5.170
 8569TIP3   OH225647   4.525   0.047   0.112
 8569TIP3    H125648   4.586   0.101   0.162
 8569TIP3    H225649   4.557  -0.043   0.123
 8570TIP3   OH225650   3.060   2.376   4.546
 8570TIP3    H125651   2.988   2.330   4.589
 8570TIP3    H225652   3.095   2.435   4.612
 8571TIP3   OH225653   2.276   7.294   3.968
 8571TIP3    H125654   2.227   7.302   3.886
 8571TIP3    H225655   2.337   7.221   3.953
 8572TIP3   OH225656   3.362   0.330   1.887
 8572TIP3    H125657   3.378   0.305   1.796
 8572TIP3    H225658   3.278   0.375   1.885
 8573TIP3   OH225659   4.448   5.125   5.199
 8573TIP3    H125660   4.466   5.087   5.114
 8573TIP3    H225661   4.361   5.163   5.191
 8574TIP3   OH225662   7.118   0.491   5.228
 8574TIP3    H125663   7.102   0.567   5.172
 8574TIP3    H225664   7.051   0.428   5.202
 8575TIP3   OH225665   5.936   6.489   1.799
 8575TIP3    H125666   5.891   6.540   1.732
 8575TIP3    H225667   5.871   6.426   1.829
 8576TIP3   OH225668   3.484   6.912   1.109
 8576TIP3    H125669   3.389   6.926   1.106
 8576TIP3    H225670   3.505   6.910   1.202
 8577TIP3   OH225671   4.081   1.594   3.263
 8577TIP3    H125672   4.006   1.606   3.204
 8577TIP3    H225673   4.065   1.656   3.335
 8578TIP3   OH225674   2.440   7.875   0.783
 8578TIP3    H125675   2.456   7.969   0.795
 8578TIP3    H225676   2.493   7.852   0.707
 8579TIP3   OH225677   4.953   3.668   3.341
 8579TIP3    H125678   4.915   3.752   3.315
 8579TIP3    H225679   4.947   3.613   3.263
 8580TIP3   OH225680   1.702   3.552   4.026
 8580TIP3    H125681   1.728   3.643   4.029
 8580TIP3    H225682   1.606   3.555   4.017
 8581TIP3   OH225683   1.369   0.229   2.325
 8581TIP3    H125684   1.359   0.136   2.307
 8581TIP3    H225685   1.304   0.248   2.393
 8582TIP3   OH225686   3.438   4.712   1.067
 8582TIP3    H125687   3.431   4.622   1.099
 8582TIP3    H225688   3.515   4.712   1.010
 8583TIP3   OH225689   0.398   7.289   6.072
 8583TIP3    H125690   0.447   7.341   6.135
 8583TIP3    H225691   0.446   7.299   5.990
 8584TIP3   OH225692   3.253   7.003   2.683
 8584TIP3    H125693   3.340   6.980   2.649
 8584TIP3    H225694   3.196   7.001   2.606
 8585TIP3   OH225695   8.039   2.833   6.443
 8585TIP3    H125696   7.960   2.788   6.473
 8585TIP3    H225697   8.016   2.926   6.447
 8586TIP3   OH225698   3.563   1.606   1.076
 8586TIP3    H125699   3.634   1.559   1.033
 8586TIP3    H225700   3.566   1.574   1.167
 8587TIP3   OH225701   4.795   5.521   5.927
 8587TIP3    H125702   4.856   5.472   5.983
 8587TIP3    H225703   4.835   5.608   5.920
 8588TIP3   OH225704   2.996   0.965   5.807
 8588TIP3    H125705   3.014   0.919   5.725
 8588TIP3    H225706   3.081   1.003   5.831
 8589TIP3   OH225707   0.264   2.471   1.368
 8589TIP3    H125708   0.229   2.550   1.410
 8589TIP3    H225709   0.290   2.500   1.281
 8590TIP3   OH225710   3.527   1.956   0.283
 8590TIP3    H125711   3.536   2.018   0.211
 8590TIP3    H225712   3.560   2.003   0.360
 8591TIP3   OH225713   5.707   6.911   2.369
 8591TIP3    H125714   5.786   6.964   2.385
 8591TIP3    H225715   5.721   6.875   2.281
 8592TIP3   OH225716   4.149   6.410   6.687
 8592TIP3    H125717   4.076   6.373   6.737
 8592TIP3    H225718   4.222   6.350   6.704
 8593TIP3   OH225719   2.569   2.219   6.482
 8593TIP3    H125720   2.522   2.136   6.473
 8593TIP3    H225721   2.547   2.267   6.402
 8594TIP3   OH225722   6.413   1.311   2.729
 8594TIP3    H125723   6.506   1.306   2.751
 8594TIP3    H225724   6.403   1.394   2.682
 8595TIP3   OH225725   0.564   5.016   6.641
 8595TIP3    H125726   0.470   4.998   6.641
 8595TIP3    H225727   0.601   4.951   6.581
 8596TIP3   OH225728   1.905   1.826   4.337
 8596TIP3    H125729   1.982   1.781   4.371
 8596TIP3    H225730   1.868   1.764   4.274
 8597TIP3   OH225731   0.442   7.550   1.430
 8597TIP3    H125732   0.488   7.631   1.452
 8597TIP3    H225733   0.365   7.580   1.381
 8598TIP3   OH225734   4.845   2.828   4.783
 8598TIP3    H125735   4.934   2.793   4.776
 8598TIP3    H225736   4.857   2.921   4.801
 8599TIP3   OH225737   7.248   2.008   0.796
 8599TIP3    H125738   7.233   1.914   0.797
 8599TIP3    H225739   7.244   2.034   0.888
 8600TIP3   OH225740   4.413   2.139   5.689
 8600TIP3    H125741   4.415   2.231   5.714
 8600TIP3    H225742   4.505   2.111   5.695
 8601TIP3   OH225743   5.619   3.080   3.831
 8601TIP3    H125744   5.536   3.086   3.783
 8601TIP3    H225745   5.648   3.171   3.840
 8602TIP3   OH225746   5.941   0.183   3.723
 8602TIP3    H125747   6.012   0.215   3.778
 8602TIP3    H225748   5.934   0.248   3.652
 8603TIP3   OH225749   0.772   1.736   0.560
 8603TIP3    H125750   0.680   1.713   0.570
 8603TIP3    H225751   0.779   1.765   0.469
 8604TIP3   OH225752   7.552   1.612   0.745
 8604TIP3    H125753   7.529   1.535   0.693
 8604TIP3    H225754   7.643   1.631   0.722
 8605TIP3   OH225755   2.331   2.880   5.962
 8605TIP3    H125756   2.320   2.893   5.868
 8605TIP3    H225757   2.374   2.960   5.993
 8606TIP3   OH225758   4.239   0.638   0.782
 8606TIP3    H125759   4.217   0.628   0.690
 8606TIP3    H225760   4.304   0.570   0.799
 8607TIP3   OH225761   3.289   2.782   2.700
 8607TIP3    H125762   3.222   2.792   2.768
 8607TIP3    H225763   3.332   2.868   2.697
 8608TIP3   OH225764   1.149   7.448   6.103
 8608TIP3    H125765   1.233   7.411   6.127
 8608TIP3    H225766   1.114   7.484   6.185
 8609TIP3   OH225767   7.381   3.044   2.886
 8609TIP3    H125768   7.379   2.948   2.878
 8609TIP3    H225769   7.430   3.060   2.967
 8610TIP3   OH225770   4.820   0.526   3.321
 8610TIP3    H125771   4.875   0.452   3.298
 8610TIP3    H225772   4.861   0.601   3.277
 8611TIP3   OH225773   6.820   3.612   0.314
 8611TIP3    H125774   6.790   3.591   0.403
 8611TIP3    H225775   6.895   3.554   0.301
 8612TIP3   OH225776   3.187   1.200   4.728
 8612TIP3    H125777   3.091   1.209   4.728
 8612TIP3    H225778   3.219   1.290   4.733
 8613TIP3   OH225779   5.210   2.340   4.684
 8613TIP3    H125780   5.127   2.322   4.640
 8613TIP3    H225781   5.246   2.416   4.637
 8614TIP3   OH225782   0.860   7.156   5.467
 8614TIP3    H125783   0.937   7.210   5.484
 8614TIP3    H225784   0.823   7.192   5.387
 8615TIP3   OH225785   7.781   7.646   3.228
 8615TIP3    H125786   7.829   7.564   3.214
 8615TIP3    H225787   7.701   7.636   3.177
 8616TIP3   OH225788   0.319   5.053   1.305
 8616TIP3    H125789   0.394   5.063   1.364
 8616TIP3    H225790   0.262   4.990   1.349
 8617TIP3   OH225791   4.221   6.878   5.141
 8617TIP3    H125792   4.172   6.903   5.220
 8617TIP3    H225793   4.156   6.877   5.072
 8618TIP3   OH225794   2.072   4.432   2.172
 8618TIP3    H125795   2.039   4.459   2.258
 8618TIP3    H225796   2.164   4.458   2.172
 8619TIP3   OH225797   2.535   7.734   3.307
 8619TIP3    H125798   2.529   7.649   3.263
 8619TIP3    H225799   2.448   7.773   3.296
 8620TIP3   OH225800   4.175   0.125   1.551
 8620TIP3    H125801   4.141   0.143   1.639
 8620TIP3    H225802   4.270   0.119   1.564
 8621TIP3   OH225803   7.029   4.431   0.288
 8621TIP3    H125804   6.939   4.447   0.313
 8621TIP3    H225805   7.041   4.337   0.298
 8622TIP3   OH225806   2.800   1.148   1.530
 8622TIP3    H125807   2.793   1.198   1.449
 8622TIP3    H225808   2.741   1.074   1.519
 8623TIP3   OH225809   8.318   2.255   5.075
 8623TIP3    H125810   8.354   2.174   5.111
 8623TIP3    H225811   8.319   2.316   5.149
 8624TIP3   OH225812   3.327   1.849   4.445
 8624TIP3    H125813   3.291   1.760   4.444
 8624TIP3    H225814   3.306   1.885   4.359
 8625TIP3   OH225815   5.967   6.908   4.235
 8625TIP3    H125816   5.904   6.960   4.184
 8625TIP3    H225817   5.921   6.887   4.316
 8626TIP3   OH225818   5.653   7.246   5.630
 8626TIP3    H125819   5.706   7.197   5.692
 8626TIP3    H225820   5.567   7.202   5.631
 8627TIP3   OH225821   0.426   6.405   0.419
 8627TIP3    H125822   0.382   6.325   0.392
 8627TIP3    H225823   0.400   6.419   0.510
 8628TIP3   OH225824   6.391   0.763   0.854
 8628TIP3    H125825   6.350   0.837   0.898
 8628TIP3    H225826   6.398   0.696   0.921
 8629TIP3   OH225827   6.426   3.512   0.741
 8629TIP3    H125828   6.335   3.487   0.727
 8629TIP3    H225829   6.441   3.586   0.682
 8630TIP3   OH225830   4.746   7.706   6.514
 8630TIP3    H125831   4.733   7.652   6.592
 8630TIP3    H225832   4.769   7.792   6.547
 8631TIP3   OH225833   3.017   5.950   1.892
 8631TIP3    H125834   3.026   5.992   1.978
 8631TIP3    H225835   3.086   5.990   1.838
 8632TIP3   OH225836   5.271   7.420   3.208
 8632TIP3    H125837   5.351   7.368   3.206
 8632TIP3    H225838   5.206   7.366   3.163
 8633TIP3   OH225839   2.704   7.373   0.711
 8633TIP3    H125840   2.613   7.376   0.741
 8633TIP3    H225841   2.701   7.320   0.631
 8634TIP3   OH225842   5.232   3.650   3.706
 8634TIP3    H125843   5.299   3.623   3.769
 8634TIP3    H225844   5.220   3.743   3.721
 8635TIP3   OH225845   1.583   5.725   6.816
 8635TIP3    H125846   1.582   5.639   6.858
 8635TIP3    H225847   1.597   5.707   6.724
 8636TIP3   OH225848   7.815   4.864   6.565
 8636TIP3    H125849   7.742   4.810   6.596
 8636TIP3    H225850   7.789   4.892   6.477
 8637TIP3   OH225851   6.989   2.709   6.423
 8637TIP3    H125852   7.008   2.692   6.330
 8637TIP3    H225853   7.074   2.703   6.466
 8638TIP3   OH225854   8.395   1.317   2.045
 8638TIP3    H125855   8.375   1.326   2.139
 8638TIP3    H225856   8.428   1.403   2.019
 8639TIP3   OH225857   8.170   5.321   5.713
 8639TIP3    H125858   8.173   5.416   5.726
 8639TIP3    H225859   8.168   5.309   5.618
 8640TIP3   OH225860   8.026   7.661   0.335
 8640TIP3    H125861   8.113   7.700   0.340
 8640TIP3    H225862   7.970   7.732   0.302
 8641TIP3   OH225863   2.003   4.360   1.886
 8641TIP3    H125864   1.914   4.385   1.862
 8641TIP3    H225865   2.013   4.391   1.976
 8642TIP3   OH225866   0.820   0.940   0.658
 8642TIP3    H125867   0.774   0.881   0.598
 8642TIP3    H225868   0.775   0.930   0.742
 8643TIP3   OH225869   5.826   3.063   2.369
 8643TIP3    H125870   5.891   3.130   2.345
 8643TIP3    H225871   5.744   3.095   2.331
 8644TIP3   OH225872   2.273   1.591   2.728
 8644TIP3    H125873   2.207   1.526   2.707
 8644TIP3    H225874   2.231   1.675   2.709
 8645TIP3   OH225875   3.443   2.702   2.029
 8645TIP3    H125876   3.490   2.643   1.969
 8645TIP3    H225877   3.453   2.789   1.989
 8646TIP3   OH225878   5.773   5.021   2.557
 8646TIP3    H125879   5.833   5.057   2.622
 8646TIP3    H225880   5.826   4.963   2.503
 8647TIP3   OH225881   5.841   5.236   3.969
 8647TIP3    H125882   5.787   5.158   3.954
 8647TIP3    H225883   5.789   5.308   3.936
 8648TIP3   OH225884   5.351   5.648   4.975
 8648TIP3    H125885   5.301   5.709   5.028
 8648TIP3    H225886   5.392   5.590   5.038
 8649TIP3   OH225887   6.574   7.387   0.133
 8649TIP3    H125888   6.520   7.322   0.088
 8649TIP3    H225889   6.618   7.435   0.063
 8650TIP3   OH225890   6.510   6.972   3.587
 8650TIP3    H125891   6.460   6.909   3.536
 8650TIP3    H225892   6.561   6.919   3.648
 8651TIP3   OH225893   2.802   1.489   1.176
 8651TIP3    H125894   2.720   1.511   1.132
 8651TIP3    H225895   2.864   1.555   1.146
 8652TIP3   OH225896   0.176   2.568   6.548
 8652TIP3    H125897   0.269   2.588   6.550
 8652TIP3    H225898   0.155   2.559   6.455
 8653TIP3   OH225899   7.813   4.213   4.939
 8653TIP3    H125900   7.748   4.181   4.876
 8653TIP3    H225901   7.867   4.137   4.958
 8654TIP3   OH225902   0.754   7.219   6.135
 8654TIP3    H125903   0.844   7.192   6.149
 8654TIP3    H225904   0.711   7.204   6.219
 8655TIP3   OH225905   4.993   3.067   6.056
 8655TIP3    H125906   4.918   3.124   6.038
 8655TIP3    H225907   4.968   3.020   6.136
 8656TIP3   OH225908   7.241   5.787   6.343
 8656TIP3    H125909   7.280   5.715   6.293
 8656TIP3    H225910   7.301   5.800   6.416
 8657TIP3   OH225911   4.027   4.919   3.816
 8657TIP3    H125912   4.024   4.843   3.757
 8657TIP3    H225913   3.945   4.914   3.866
 8658TIP3   OH225914   6.750   2.845   4.989
 8658TIP3    H125915   6.815   2.915   4.981
 8658TIP3    H225916   6.799   2.764   4.970
 8659TIP3   OH225917   4.550   3.315   2.810
 8659TIP3    H125918   4.517   3.226   2.794
 8659TIP3    H225919   4.593   3.309   2.895
 8660TIP3   OH225920   7.436   2.637   5.098
 8660TIP3    H125921   7.424   2.631   5.193
 8660TIP3    H225922   7.489   2.715   5.085
 8661TIP3   OH225923   3.420   2.110   6.499
 8661TIP3    H125924   3.431   2.049   6.572
 8661TIP3    H225925   3.335   2.151   6.515
 8662TIP3   OH225926   8.111   2.017   4.355
 8662TIP3    H125927   8.047   2.044   4.422
 8662TIP3    H225928   8.062   1.959   4.297
 8663TIP3   OH225929   5.729   0.949   1.965
 8663TIP3    H125930   5.773   0.867   1.942
 8663TIP3    H225931   5.705   0.938   2.057
 8664TIP3   OH225932   3.052   1.920   6.740
 8664TIP3    H125933   3.076   2.013   6.730
 8664TIP3    H225934   3.116   1.885   6.802
 8665TIP3   OH225935   4.324   4.594   2.230
 8665TIP3    H125936   4.283   4.594   2.316
 8665TIP3    H225937   4.417   4.585   2.248
 8666TIP3   OH225938   8.133   7.415   0.000
 8666TIP3    H125939   8.064   7.422   0.065
 8666TIP3    H225940   8.211   7.391   0.049
 8667TIP3   OH225941   6.694   6.859   5.977
 8667TIP3    H125942   6.684   6.837   5.885
 8667TIP3    H225943   6.616   6.910   5.999
 8668TIP3   OH225944   8.140   2.923   1.545
 8668TIP3    H125945   8.222   2.971   1.558
 8668TIP3    H225946   8.071   2.986   1.568
 8669TIP3   OH225947   7.116   4.225   2.919
 8669TIP3    H125948   7.102   4.300   2.860
 8669TIP3    H225949   7.028   4.191   2.936
 8670TIP3   OH225950   4.637   4.474   1.085
 8670TIP3    H125951   4.617   4.395   1.035
 8670TIP3    H225952   4.590   4.463   1.168
 8671TIP3   OH225953   5.712   0.560   3.561
 8671TIP3    H125954   5.626   0.520   3.568
 8671TIP3    H225955   5.753   0.546   3.646
 8672TIP3   OH225956   4.844   2.003   0.829
 8672TIP3    H125957   4.778   2.069   0.851
 8672TIP3    H225958   4.923   2.054   0.810
 8673TIP3   OH225959   1.724   2.556   3.839
 8673TIP3    H125960   1.700   2.471   3.802
 8673TIP3    H225961   1.651   2.614   3.816
 8674TIP3   OH225962   0.652   6.346   5.734
 8674TIP3    H125963   0.741   6.366   5.764
 8674TIP3    H225964   0.602   6.331   5.814
 8675TIP3   OH225965   4.930   6.158   3.316
 8675TIP3    H125966   5.009   6.161   3.262
 8675TIP3    H225967   4.933   6.072   3.358
 8676TIP3   OH225968   2.260   3.395   6.664
 8676TIP3    H125969   2.218   3.390   6.750
 8676TIP3    H225970   2.310   3.314   6.657
 8677TIP3   OH225971   3.056   0.836   0.229
 8677TIP3    H125972   3.096   0.919   0.257
 8677TIP3    H225973   3.108   0.809   0.154
 8678TIP3   OH225974   2.782   7.517   5.716
 8678TIP3    H125975   2.714   7.584   5.724
 8678TIP3    H225976   2.816   7.529   5.627
 8679TIP3   OH225977   4.815   6.240   2.209
 8679TIP3    H125978   4.835   6.333   2.199
 8679TIP3    H225979   4.874   6.196   2.148
 8680TIP3   OH225980   7.061   0.780   0.697
 8680TIP3    H125981   7.019   0.719   0.636
 8680TIP3    H225982   7.139   0.734   0.727
 8681TIP3   OH225983   7.305   3.419   6.569
 8681TIP3    H125984   7.369   3.379   6.628
 8681TIP3    H225985   7.222   3.378   6.593
 8682TIP3   OH225986   6.448   5.357   2.454
 8682TIP3    H125987   6.378   5.388   2.397
 8682TIP3    H225988   6.455   5.264   2.435
 8683TIP3   OH225989   6.237   5.456   2.302
 8683TIP3    H125990   6.221   5.542   2.341
 8683TIP3    H225991   6.150   5.417   2.294
 8684TIP3   OH225992   7.516   1.841   2.753
 8684TIP3    H125993   7.531   1.825   2.660
 8684TIP3    H225994   7.491   1.756   2.789
 8685TIP3   OH225995   0.997   5.227   5.134
 8685TIP3    H125996   0.952   5.143   5.126
 8685TIP3    H225997   1.083   5.212   5.095
 8686TIP3   OH225998   7.262   4.292   0.838
 8686TIP3    H125999   7.195   4.258   0.897
 8686TIP3    H226000   7.299   4.215   0.795
 8687TIP3   OH226001   3.687   4.292   2.372
 8687TIP3    H126002   3.697   4.213   2.319
 8687TIP3    H226003   3.625   4.346   2.322
 8688TIP3   OH226004   8.242   1.583   4.901
 8688TIP3    H126005   8.232   1.626   4.816
 8688TIP3    H226006   8.336   1.562   4.906
 8689TIP3   OH226007   6.920   5.459   4.624
 8689TIP3    H126008   6.938   5.520   4.695
 8689TIP3    H226009   6.854   5.503   4.570
 8690TIP3   OH226010   5.855   0.166   2.727
 8690TIP3    H126011   5.922   0.110   2.687
 8690TIP3    H226012   5.853   0.138   2.819
 8691TIP3   OH226013   2.609   2.752   3.527
 8691TIP3    H126014   2.648   2.833   3.558
 8691TIP3    H226015   2.628   2.750   3.434
 8692TIP3   OH226016   6.929   7.149   4.694
 8692TIP3    H126017   6.942   7.228   4.748
 8692TIP3    H226018   7.005   7.147   4.636
 8693TIP3   OH226019   2.911   6.046   6.695
 8693TIP3    H126020   2.892   6.099   6.772
 8693TIP3    H226021   2.831   5.996   6.680
 8694TIP3   OH226022   4.777   2.240   1.361
 8694TIP3    H126023   4.727   2.320   1.375
 8694TIP3    H226024   4.733   2.196   1.288
 8695TIP3   OH226025   7.747   0.429   4.013
 8695TIP3    H126026   7.775   0.480   3.937
 8695TIP3    H226027   7.801   0.350   4.011
 8696TIP3   OH226028   4.430   5.931   2.190
 8696TIP3    H126029   4.414   5.837   2.177
 8696TIP3    H226030   4.419   5.945   2.284
 8697TIP3   OH226031   0.841   7.087   0.705
 8697TIP3    H126032   0.814   7.177   0.687
 8697TIP3    H226033   0.768   7.048   0.752
 8698TIP3   OH226034   3.221   1.099   6.287
 8698TIP3    H126035   3.308   1.080   6.321
 8698TIP3    H226036   3.168   1.116   6.364
 8699TIP3   OH226037   2.512   5.836   4.931
 8699TIP3    H126038   2.502   5.868   5.020
 8699TIP3    H226039   2.538   5.744   4.941
 8700TIP3   OH226040   5.954   6.025   5.517
 8700TIP3    H126041   6.008   5.954   5.550
 8700TIP3    H226042   5.968   6.023   5.422
 8701TIP3   OH226043   7.243   4.446   1.987
 8701TIP3    H126044   7.177   4.483   1.928
 8701TIP3    H226045   7.283   4.375   1.938
 8702TIP3   OH226046   1.473   1.949   3.541
 8702TIP3    H126047   1.495   2.015   3.474
 8702TIP3    H226048   1.387   1.974   3.573
 8703TIP3   OH226049   7.680   0.606   5.863
 8703TIP3    H126050   7.588   0.601   5.838
 8703TIP3    H226051   7.707   0.693   5.836
 8704TIP3   OH226052   3.872   5.049   0.979
 8704TIP3    H126053   3.825   5.030   1.060
 8704TIP3    H226054   3.830   5.127   0.944
 8705TIP3   OH226055   8.056   3.442   0.543
 8705TIP3    H126056   8.114   3.389   0.599
 8705TIP3    H226057   8.112   3.512   0.511
 8706TIP3   OH226058   2.218   3.272   0.313
 8706TIP3    H126059   2.261   3.193   0.282
 8706TIP3    H226060   2.168   3.243   0.390
 8707TIP3   OH226061   6.739   4.669   4.624
 8707TIP3    H126062   6.661   4.718   4.649
 8707TIP3    H226063   6.810   4.733   4.627
 8708TIP3   OH226064   0.095   3.039   3.384
 8708TIP3    H126065   0.098   3.125   3.426
 8708TIP3    H226066   0.159   3.046   3.312
 8709TIP3   OH226067   3.167   0.943   4.969
 8709TIP3    H126068   3.173   0.879   4.898
 8709TIP3    H226069   3.073   0.951   4.986
 8710TIP3   OH226070   2.021   2.125   1.757
 8710TIP3    H126071   2.038   2.079   1.675
 8710TIP3    H226072   2.100   2.113   1.809
 8711TIP3   OH226073   1.212   3.367   1.485
 8711TIP3    H126074   1.194   3.461   1.482
 8711TIP3    H226075   1.241   3.345   1.397
 8712TIP3   OH226076   6.959   3.658   2.299
 8712TIP3    H126077   7.031   3.607   2.336
 8712TIP3    H226078   6.933   3.717   2.370
 8713TIP3   OH226079   6.796   3.715   3.467
 8713TIP3    H126080   6.758   3.644   3.518
 8713TIP3    H226081   6.888   3.716   3.492
 8714TIP3   OH226082   5.012   0.549   1.023
 8714TIP3    H126083   4.951   0.484   0.988
 8714TIP3    H226084   5.095   0.530   0.980
 8715TIP3   OH226085   1.773   6.651   6.872
 8715TIP3    H126086   1.848   6.709   6.884
 8715TIP3    H226087   1.771   6.633   6.778
 8716TIP3   OH226088   4.069   0.338   3.609
 8716TIP3    H126089   4.047   0.429   3.587
 8716TIP3    H226090   4.002   0.312   3.673
 8717TIP3   OH226091   7.612   4.019   6.576
 8717TIP3    H126092   7.617   3.996   6.669
 8717TIP3    H226093   7.545   3.961   6.541
 8718TIP3   OH226094   6.395   4.700   2.717
 8718TIP3    H126095   6.351   4.751   2.649
 8718TIP3    H226096   6.363   4.611   2.704
 8719TIP3   OH226097   6.051   1.503   0.230
 8719TIP3    H126098   6.031   1.549   0.148
 8719TIP3    H226099   5.993   1.427   0.228
 8720TIP3   OH226100   4.443   4.296   1.979
 8720TIP3    H126101   4.500   4.244   2.036
 8720TIP3    H226102   4.355   4.285   2.016
 8721TIP3   OH226103   7.865   4.585   5.900
 8721TIP3    H126104   7.914   4.611   5.822
 8721TIP3    H226105   7.842   4.668   5.943
 8722TIP3   OH226106   1.615   4.059   3.455
 8722TIP3    H126107   1.592   4.033   3.544
 8722TIP3    H226108   1.642   3.978   3.412
 8723TIP3   OH226109   6.568   0.000   0.023
 8723TIP3    H126110   6.646   0.046  -0.006
 8723TIP3    H226111   6.546   0.041   0.107
 8724TIP3   OH226112   7.293   7.357   3.498
 8724TIP3    H126113   7.283   7.346   3.592
 8724TIP3    H226114   7.236   7.290   3.459
 8725TIP3   OH226115   4.398   1.515   0.605
 8725TIP3    H126116   4.371   1.557   0.687
 8725TIP3    H226117   4.418   1.588   0.546
 8726TIP3   OH226118   2.677   2.125   5.342
 8726TIP3    H126119   2.723   2.041   5.347
 8726TIP3    H226120   2.736   2.182   5.293
 8727TIP3   OH226121   4.065   3.967   0.712
 8727TIP3    H126122   4.121   3.890   0.721
 8727TIP3    H226123   4.086   4.001   0.625
 8728TIP3   OH226124   4.614   1.698   1.631
 8728TIP3    H126125   4.603   1.793   1.627
 8728TIP3    H226126   4.696   1.685   1.679
 8729TIP3   OH226127   5.141   0.910   3.662
 8729TIP3    H126128   5.222   0.876   3.624
 8729TIP3    H226129   5.170   0.975   3.726
 8730TIP3   OH226130   4.806   5.984   2.891
 8730TIP3    H126131   4.767   5.964   2.806
 8730TIP3    H226132   4.861   6.061   2.874
 8731TIP3   OH226133   6.150   6.451   5.067
 8731TIP3    H126134   6.100   6.370   5.080
 8731TIP3    H226135   6.085   6.516   5.041
 8732TIP3   OH226136   0.400   7.261   0.861
 8732TIP3    H126137   0.462   7.334   0.860
 8732TIP3    H226138   0.437   7.198   0.923
 8733TIP3   OH226139   1.393   4.887   0.018
 8733TIP3    H126140   1.375   4.967   0.067
 8733TIP3    H226141   1.475   4.855   0.054
 8734TIP3   OH226142   7.893   3.322   2.597
 8734TIP3    H126143   7.811   3.303   2.642
 8734TIP3    H226144   7.932   3.236   2.580
 8735TIP3   OH226145   7.803   5.194   5.126
 8735TIP3    H126146   7.825   5.190   5.033
 8735TIP3    H226147   7.881   5.230   5.168
 8736TIP3   OH226148   4.809   0.115   3.741
 8736TIP3    H126149   4.792   0.021   3.731
 8736TIP3    H226150   4.905   0.122   3.737
 8737TIP3   OH226151   2.179   5.214   4.755
 8737TIP3    H126152   2.198   5.216   4.661
 8737TIP3    H226153   2.091   5.176   4.761
 8738TIP3   OH226154   5.950   3.674   3.350
 8738TIP3    H126155   5.910   3.718   3.275
 8738TIP3    H226156   5.921   3.726   3.426
 8739TIP3   OH226157   3.382   2.631   1.484
 8739TIP3    H126158   3.396   2.563   1.418
 8739TIP3    H226159   3.467   2.640   1.527
 8740TIP3   OH226160   7.220   3.653   4.086
 8740TIP3    H126161   7.247   3.732   4.132
 8740TIP3    H226162   7.282   3.586   4.114
 8741TIP3   OH226163   6.200   2.845   0.843
 8741TIP3    H126164   6.151   2.807   0.770
 8741TIP3    H226165   6.263   2.778   0.867
 8742TIP3   OH226166   4.972   6.062   1.249
 8742TIP3    H126167   5.053   6.083   1.202
 8742TIP3    H226168   4.998   5.996   1.313
 8743TIP3   OH226169   6.350   1.704   4.030
 8743TIP3    H126170   6.255   1.716   4.026
 8743TIP3    H226171   6.362   1.610   4.045
 8744TIP3   OH226172   1.032   7.477   3.155
 8744TIP3    H126173   1.081   7.549   3.195
 8744TIP3    H226174   0.940   7.503   3.162
 8745TIP3   OH226175   8.294   6.597   6.260
 8745TIP3    H126176   8.371   6.650   6.277
 8745TIP3    H226177   8.220   6.649   6.293
 8746TIP3   OH226178   0.183   0.127   1.095
 8746TIP3    H126179   0.151   0.208   1.135
 8746TIP3    H226180   0.229   0.082   1.165
 8747TIP3   OH226181   2.780   4.959   4.069
 8747TIP3    H126182   2.794   4.874   4.028
 8747TIP3    H226183   2.817   4.951   4.156
 8748TIP3   OH226184   7.939   4.076   2.676
 8748TIP3    H126185   7.919   4.169   2.686
 8748TIP3    H226186   7.971   4.068   2.586
 8749TIP3   OH226187   7.527   7.255   0.496
 8749TIP3    H126188   7.550   7.174   0.451
 8749TIP3    H226189   7.600   7.270   0.556
 8750TIP3   OH226190   8.322   3.140   6.081
 8750TIP3    H126191   8.252   3.078   6.059
 8750TIP3    H226192   8.299   3.220   6.034
 8751TIP3   OH226193   3.943   0.643   3.294
 8751TIP3    H126194   3.984   0.726   3.269
 8751TIP3    H226195   4.014   0.594   3.335
 8752TIP3   OH226196   7.482   4.879   6.869
 8752TIP3    H126197   7.493   4.802   6.924
 8752TIP3    H226198   7.502   4.848   6.780
 8753TIP3   OH226199   7.990   6.535   6.400
 8753TIP3    H126200   8.043   6.456   6.386
 8753TIP3    H226201   7.985   6.575   6.313
 8754TIP3   OH226202   7.276   5.158   4.523
 8754TIP3    H126203   7.222   5.236   4.513
 8754TIP3    H226204   7.242   5.097   4.458
 8755TIP3   OH226205   5.044   7.142   2.169
 8755TIP3    H126206   5.082   7.064   2.208
 8755TIP3    H226207   4.997   7.184   2.240
 8756TIP3   OH226208   0.989   2.921   2.254
 8756TIP3    H126209   1.003   2.899   2.346
 8756TIP3    H226210   0.918   2.984   2.255
 8757TIP3   OH226211   6.640   6.099   2.321
 8757TIP3    H126212   6.669   6.091   2.230
 8757TIP3    H226213   6.709   6.149   2.364
 8758TIP3   OH226214   6.991   0.956   5.191
 8758TIP3    H126215   6.967   1.003   5.271
 8758TIP3    H226216   7.085   0.939   5.199
 8759TIP3   OH226217   7.630   3.007   2.529
 8759TIP3    H126218   7.695   3.049   2.585
 8759TIP3    H226219   7.670   2.924   2.503
 8760TIP3   OH226220   6.791   7.171   6.202
 8760TIP3    H126221   6.794   7.084   6.242
 8760TIP3    H226222   6.712   7.212   6.239
 8761TIP3   OH226223   3.621   1.857   4.957
 8761TIP3    H126224   3.710   1.874   4.926
 8761TIP3    H226225   3.569   1.850   4.877
 8762TIP3   OH226226   6.754   5.588   2.982
 8762TIP3    H126227   6.817   5.653   3.014
 8762TIP3    H226228   6.682   5.641   2.947
 8763TIP3   OH226229   5.325   1.262   4.844
 8763TIP3    H126230   5.239   1.303   4.858
 8763TIP3    H226231   5.349   1.286   4.755
 8764TIP3   OH226232   1.573   5.711   6.228
 8764TIP3    H126233   1.521   5.634   6.252
 8764TIP3    H226234   1.641   5.716   6.295
 8765TIP3   OH226235   7.327   0.308   6.025
 8765TIP3    H126236   7.260   0.340   6.086
 8765TIP3    H226237   7.391   0.378   6.021
 8766TIP3   OH226238   8.269   3.922   6.746
 8766TIP3    H126239   8.213   3.993   6.713
 8766TIP3    H226240   8.358   3.953   6.730
 8767TIP3   OH226241   2.332   0.711   3.124
 8767TIP3    H126242   2.241   0.685   3.111
 8767TIP3    H226243   2.383   0.635   3.096
 8768TIP3   OH226244   7.009   7.684   4.990
 8768TIP3    H126245   7.086   7.630   5.005
 8768TIP3    H226246   6.936   7.632   5.023
 8769TIP3   OH226247   8.277   4.675   0.274
 8769TIP3    H126248   8.267   4.732   0.351
 8769TIP3    H226249   8.370   4.680   0.253
 8770TIP3   OH226250   5.425   1.106   5.389
 8770TIP3    H126251   5.517   1.130   5.376
 8770TIP3    H226252   5.378   1.157   5.323
 8771TIP3   OH226253   7.628   6.355   5.512
 8771TIP3    H126254   7.606   6.269   5.548
 8771TIP3    H226255   7.568   6.416   5.557
 8772TIP3   OH226256   4.314   5.452   4.751
 8772TIP3    H126257   4.361   5.468   4.832
 8772TIP3    H226258   4.347   5.369   4.719
 8773TIP3   OH226259   4.185   0.038   3.693
 8773TIP3    H126260   4.138  -0.013   3.627
 8773TIP3    H226261   4.222   0.112   3.645
 8774TIP3   OH226262   0.894   7.140   4.751
 8774TIP3    H126263   0.869   7.172   4.664
 8774TIP3    H226264   0.979   7.097   4.737
 8775TIP3   OH226265   8.115   0.928   6.612
 8775TIP3    H126266   8.025   0.960   6.598
 8775TIP3    H226267   8.169   1.007   6.611
 8776TIP3   OH226268   0.351   3.319   3.856
 8776TIP3    H126269   0.260   3.343   3.873
 8776TIP3    H226270   0.345   3.240   3.802
 8777TIP3   OH226271   2.920   2.673   2.372
 8777TIP3    H126272   2.905   2.587   2.334
 8777TIP3    H226273   2.938   2.730   2.297
 8778TIP3   OH226274   0.761   5.041   5.461
 8778TIP3    H126275   0.823   5.082   5.521
 8778TIP3    H226276   0.730   5.112   5.405
 8779TIP3   OH226277   0.747   1.662   5.850
 8779TIP3    H126278   0.739   1.668   5.945
 8779TIP3    H226279   0.707   1.743   5.817
 8780TIP3   OH226280   3.766   7.581   1.561
 8780TIP3    H126281   3.680   7.618   1.578
 8780TIP3    H226282   3.819   7.655   1.533
 8781TIP3   OH226283   4.396   0.520   3.159
 8781TIP3    H126284   4.380   0.464   3.082
 8781TIP3    H226285   4.437   0.462   3.223
 8782TIP3   OH226286   1.322   1.200   1.938
 8782TIP3    H126287   1.344   1.107   1.942
 8782TIP3    H226288   1.371   1.232   1.862
 8783TIP3   OH226289   4.843   4.741   4.369
 8783TIP3    H126290   4.836   4.653   4.406
 8783TIP3    H226291   4.860   4.797   4.444
 8784TIP3   OH226292   3.607   2.527   3.831
 8784TIP3    H126293   3.546   2.576   3.886
 8784TIP3    H226294   3.685   2.582   3.827
 8785TIP3   OH226295   1.002   1.091   6.595
 8785TIP3    H126296   1.072   1.070   6.534
 8785TIP3    H226297   1.043   1.087   6.681
 8786TIP3   OH226298   0.583   2.424   3.328
 8786TIP3    H126299   0.618   2.466   3.406
 8786TIP3    H226300   0.584   2.492   3.261
 8787TIP3   OH226301   2.082   6.339   5.362
 8787TIP3    H126302   2.131   6.395   5.302
 8787TIP3    H226303   1.991   6.349   5.335
 8788TIP3   OH226304   6.492   1.895   4.166
 8788TIP3    H126305   6.446   1.832   4.111
 8788TIP3    H226306   6.475   1.980   4.125
 8789TIP3   OH226307   2.754   7.511   1.239
 8789TIP3    H126308   2.732   7.551   1.155
 8789TIP3    H226309   2.847   7.491   1.233
 8790TIP3   OH226310   3.180   0.669   4.191
 8790TIP3    H126311   3.100   0.621   4.214
 8790TIP3    H226312   3.149   0.740   4.134
 8791TIP3   OH226313   7.394   1.723   5.048
 8791TIP3    H126314   7.371   1.760   5.133
 8791TIP3    H226315   7.479   1.681   5.063
 8792TIP3   OH226316   3.909   3.923   1.888
 8792TIP3    H126317   3.876   3.988   1.826
 8792TIP3    H226318   3.922   3.844   1.836
 8793TIP3   OH226319   3.219   6.882   1.630
 8793TIP3    H126320   3.277   6.828   1.685
 8793TIP3    H226321   3.163   6.928   1.692
 8794TIP3   OH226322   2.354   3.627   1.036
 8794TIP3    H126323   2.344   3.642   0.942
 8794TIP3    H226324   2.438   3.668   1.058
 8795TIP3   OH226325   1.661   0.516   6.806
 8795TIP3    H126326   1.649   0.533   6.900
 8795TIP3    H226327   1.572   0.505   6.772
 8796TIP3   OH226328   3.539   0.948   5.603
 8796TIP3    H126329   3.483   0.928   5.528
 8796TIP3    H226330   3.539   1.044   5.607
 8797TIP3   OH226331   0.950   2.949   1.153
 8797TIP3    H126332   0.944   2.930   1.247
 8797TIP3    H226333   1.014   3.020   1.147
 8798TIP3   OH226334   3.047   6.854   4.179
 8798TIP3    H126335   3.109   6.866   4.251
 8798TIP3    H226336   2.994   6.934   4.180
 8799TIP3   OH226337   0.497   7.908   3.067
 8799TIP3    H126338   0.570   7.970   3.066
 8799TIP3    H226339   0.528   7.834   3.016
 8800TIP3   OH226340   1.896   6.569   4.180
 8800TIP3    H126341   1.862   6.658   4.190
 8800TIP3    H226342   1.941   6.551   4.262
 8801TIP3   OH226343   4.902   5.888   4.091
 8801TIP3    H126344   4.945   5.816   4.135
 8801TIP3    H226345   4.843   5.846   4.027
 8802TIP3   OH226346   1.778   7.406   6.651
 8802TIP3    H126347   1.688   7.422   6.621
 8802TIP3    H226348   1.831   7.409   6.571
 8803TIP3   OH226349   2.358   2.497   2.740
 8803TIP3    H126350   2.368   2.565   2.806
 8803TIP3    H226351   2.266   2.472   2.745
 8804TIP3   OH226352   3.475   1.602   4.915
 8804TIP3    H126353   3.380   1.597   4.921
 8804TIP3    H226354   3.493   1.605   4.821
 8805TIP3   OH226355   6.400   0.710   0.582
 8805TIP3    H126356   6.428   0.731   0.671
 8805TIP3    H226357   6.459   0.639   0.555
 8806TIP3   OH226358   2.396   5.408   5.837
 8806TIP3    H126359   2.389   5.350   5.913
 8806TIP3    H226360   2.485   5.393   5.803
 8807TIP3   OH226361   6.825   7.871   0.809
 8807TIP3    H126362   6.789   7.950   0.848
 8807TIP3    H226363   6.905   7.900   0.765
 8808TIP3   OH226364   2.318   0.212   4.285
 8808TIP3    H126365   2.267   0.148   4.334
 8808TIP3    H226366   2.409   0.190   4.303
 8809TIP3   OH226367   8.208   1.466   2.279
 8809TIP3    H126368   8.118   1.433   2.281
 8809TIP3    H226369   8.212   1.526   2.354
 8810TIP3   OH226370   6.087   4.156   5.896
 8810TIP3    H126371   6.084   4.199   5.982
 8810TIP3    H226372   6.180   4.139   5.882
 8811TIP3   OH226373   7.375   7.202   4.989
 8811TIP3    H126374   7.416   7.263   5.050
 8811TIP3    H226375   7.447   7.171   4.934
 8812TIP3   OH226376   5.263   7.434   0.749
 8812TIP3    H126377   5.274   7.443   0.654
 8812TIP3    H226378   5.201   7.363   0.760
 8813TIP3   OH226379   3.601   5.777   2.744
 8813TIP3    H126380   3.614   5.733   2.827
 8813TIP3    H226381   3.646   5.722   2.679
 8814TIP3   OH226382   7.870   4.359   2.724
 8814TIP3    H126383   7.906   4.445   2.744
 8814TIP3    H226384   7.777   4.367   2.743
 8815TIP3   OH226385   1.919   7.213   3.232
 8815TIP3    H126386   1.942   7.280   3.297
 8815TIP3    H226387   1.982   7.224   3.162
 8816TIP3   OH226388   2.312   3.354   0.055
 8816TIP3    H126389   2.318   3.376   0.148
 8816TIP3    H226390   2.328   3.259   0.051
 8817TIP3   OH226391   3.208   6.788   5.729
 8817TIP3    H126392   3.212   6.847   5.654
 8817TIP3    H226393   3.115   6.769   5.739
 8818TIP3   OH226394   1.903   7.854   4.848
 8818TIP3    H126395   1.875   7.845   4.939
 8818TIP3    H226396   1.837   7.911   4.808
 8819TIP3   OH226397   2.510   6.533   0.561
 8819TIP3    H126398   2.431   6.584   0.580
 8819TIP3    H226399   2.545   6.572   0.480
 8820TIP3   OH226400   4.632   4.857   3.844
 8820TIP3    H126401   4.688   4.794   3.798
 8820TIP3    H226402   4.693   4.926   3.873
 8821TIP3   OH226403   3.572   3.489   5.485
 8821TIP3    H126404   3.616   3.571   5.465
 8821TIP3    H226405   3.541   3.499   5.575
 8822TIP3   OH226406   6.953   2.208   1.722
 8822TIP3    H126407   6.906   2.208   1.806
 8822TIP3    H226408   7.043   2.232   1.745
 8823TIP3   OH226409   0.164   0.228   2.519
 8823TIP3    H126410   0.134   0.172   2.591
 8823TIP3    H226411   0.259   0.236   2.534
 8824TIP3   OH226412   0.128   2.994   5.092
 8824TIP3    H126413   0.067   2.950   5.152
 8824TIP3    H226414   0.180   2.922   5.055
 8825TIP3   OH226415   0.046   1.907   5.566
 8825TIP3    H126416   0.095   1.984   5.597
 8825TIP3    H226417  -0.045   1.935   5.565
 8826TIP3   OH226418   2.189   6.808   2.612
 8826TIP3    H126419   2.267   6.792   2.666
 8826TIP3    H226420   2.170   6.724   2.571
 8827TIP3   OH226421   5.636   3.366   6.361
 8827TIP3    H126422   5.659   3.318   6.282
 8827TIP3    H226423   5.551   3.331   6.387
 8828TIP3   OH226424   4.713   5.242   2.595
 8828TIP3    H126425   4.791   5.243   2.650
 8828TIP3    H226426   4.646   5.285   2.649
 8829TIP3   OH226427   0.429   2.209   4.631
 8829TIP3    H126428   0.355   2.234   4.576
 8829TIP3    H226429   0.506   2.223   4.576
 8830TIP3   OH226430   3.892   7.107   2.876
 8830TIP3    H126431   3.941   7.139   2.952
 8830TIP3    H226432   3.948   7.129   2.801
 8831TIP3   OH226433   8.039   2.726   4.608
 8831TIP3    H126434   8.105   2.697   4.544
 8831TIP3    H226435   8.007   2.645   4.647
 8832TIP3   OH226436   3.648   4.741   4.064
 8832TIP3    H126437   3.584   4.713   3.998
 8832TIP3    H226438   3.598   4.794   4.125
 8833TIP3   OH226439   8.301   3.869   4.498
 8833TIP3    H126440   8.351   3.924   4.559
 8833TIP3    H226441   8.217   3.914   4.488
 8834TIP3   OH226442   3.546   3.983   5.738
 8834TIP3    H126443   3.451   3.974   5.729
 8834TIP3    H226444   3.579   3.987   5.649
 8835TIP3   OH226445   3.513   5.989   0.771
 8835TIP3    H126446   3.438   5.979   0.712
 8835TIP3    H226447   3.478   6.037   0.845
 8836TIP3   OH226448   6.144   3.220   0.727
 8836TIP3    H126449   6.182   3.154   0.667
 8836TIP3    H226450   6.152   3.180   0.813
 8837TIP3   OH226451   7.360   2.276   3.091
 8837TIP3    H126452   7.288   2.227   3.051
 8837TIP3    H226453   7.419   2.296   3.018
 8838TIP3   OH226454   5.034   0.160   5.981
 8838TIP3    H126455   5.000   0.246   5.958
 8838TIP3    H226456   5.024   0.108   5.902
 8839TIP3   OH226457   3.951   1.525   5.448
 8839TIP3    H126458   3.906   1.600   5.487
 8839TIP3    H226459   4.044   1.550   5.448
 8840TIP3   OH226460   8.060   1.936   6.502
 8840TIP3    H126461   8.031   1.858   6.455
 8840TIP3    H226462   8.014   2.008   6.459
 8841TIP3   OH226463   2.467   7.135   1.053
 8841TIP3    H126464   2.520   7.214   1.043
 8841TIP3    H226465   2.428   7.122   0.966
 8842TIP3   OH226466   2.008   5.829   3.522
 8842TIP3    H126467   1.992   5.735   3.519
 8842TIP3    H226468   2.004   5.858   3.431
 8843TIP3   OH226469   7.760   4.522   6.581
 8843TIP3    H126470   7.703   4.582   6.531
 8843TIP3    H226471   7.707   4.443   6.591
 8844TIP3   OH226472   0.963   3.022   5.704
 8844TIP3    H126473   0.999   2.934   5.696
 8844TIP3    H226474   0.973   3.044   5.797
 8845TIP3   OH226475   5.031   7.128   0.995
 8845TIP3    H126476   4.995   7.204   1.040
 8845TIP3    H226477   5.099   7.095   1.055
 8846TIP3   OH226478   7.996   6.028   2.449
 8846TIP3    H126479   8.077   6.029   2.399
 8846TIP3    H226480   8.024   6.039   2.540
 8847TIP3   OH226481   4.193   1.079   4.171
 8847TIP3    H126482   4.187   1.157   4.116
 8847TIP3    H226483   4.200   1.113   4.260
 8848TIP3   OH226484   3.548   5.303   3.456
 8848TIP3    H126485   3.543   5.315   3.551
 8848TIP3    H226486   3.606   5.227   3.445
 8849TIP3   OH226487   1.113   7.696   3.286
 8849TIP3    H126488   1.102   7.705   3.381
 8849TIP3    H226489   1.057   7.765   3.249
 8850TIP3   OH226490   0.114   3.933   5.851
 8850TIP3    H126491   0.063   3.935   5.771
 8850TIP3    H226492   0.137   3.841   5.862
 8851TIP3   OH226493   6.037   4.195   0.611
 8851TIP3    H126494   6.112   4.250   0.590
 8851TIP3    H226495   5.974   4.255   0.650
 8852TIP3   OH226496   3.264   2.694   0.575
 8852TIP3    H126497   3.270   2.654   0.489
 8852TIP3    H226498   3.211   2.633   0.626
 8853TIP3   OH226499   0.280   0.888   6.616
 8853TIP3    H126500   0.188   0.882   6.592
 8853TIP3    H226501   0.279   0.915   6.708
 8854TIP3   OH226502   5.126   0.187   6.778
 8854TIP3    H126503   5.157   0.224   6.861
 8854TIP3    H226504   5.045   0.141   6.800
 8855TIP3   OH226505   2.463   3.570   6.552
 8855TIP3    H126506   2.381   3.520   6.559
 8855TIP3    H226507   2.496   3.574   6.642
 8856TIP3   OH226508   8.147   6.971   1.443
 8856TIP3    H126509   8.128   6.888   1.488
 8856TIP3    H226510   8.239   6.988   1.463
 8857TIP3   OH226511   7.671   0.630   6.271
 8857TIP3    H126512   7.647   0.654   6.360
 8857TIP3    H226513   7.699   0.539   6.277
 8858TIP3   OH226514   5.891   5.802   2.577
 8858TIP3    H126515   5.940   5.720   2.588
 8858TIP3    H226516   5.937   5.865   2.632
 8859TIP3   OH226517   7.188   1.082   1.379
 8859TIP3    H126518   7.209   1.145   1.310
 8859TIP3    H226519   7.105   1.113   1.415
 8860TIP3   OH226520   6.175   5.926   1.592
 8860TIP3    H126521   6.262   5.912   1.555
 8860TIP3    H226522   6.155   6.018   1.572
 8861TIP3   OH226523   3.429   4.833   4.258
 8861TIP3    H126524   3.466   4.827   4.346
 8861TIP3    H226525   3.433   4.743   4.225
 8862TIP3   OH226526   4.711   4.150   1.368
 8862TIP3    H126527   4.675   4.236   1.347
 8862TIP3    H226528   4.663   4.122   1.446
 8863TIP3   OH226529   2.183   5.956   5.179
 8863TIP3    H126530   2.091   5.951   5.154
 8863TIP3    H226531   2.218   6.030   5.129
 8864TIP3   OH226532   3.627   0.762   5.055
 8864TIP3    H126533   3.663   0.744   5.142
 8864TIP3    H226534   3.689   0.720   4.995
 8865TIP3   OH226535   0.680   7.129   4.940
 8865TIP3    H126536   0.675   7.040   4.906
 8865TIP3    H226537   0.724   7.178   4.872
 8866TIP3   OH226538   0.778   2.320   5.259
 8866TIP3    H126539   0.691   2.360   5.261
 8866TIP3    H226540   0.816   2.342   5.344
 8867TIP3   OH226541   4.018   2.896   4.664
 8867TIP3    H126542   4.090   2.875   4.724
 8867TIP3    H226543   3.991   2.811   4.630
 8868TIP3   OH226544   7.387   3.313   5.953
 8868TIP3    H126545   7.479   3.314   5.927
 8868TIP3    H226546   7.388   3.281   6.043
 8869TIP3   OH226547   0.799   3.733   2.366
 8869TIP3    H126548   0.777   3.817   2.406
 8869TIP3    H226549   0.742   3.670   2.410
 8870TIP3   OH226550   7.069   0.542   6.781
 8870TIP3    H126551   7.104   0.467   6.829
 8870TIP3    H226552   6.977   0.545   6.806
 8871TIP3   OH226553   5.738   2.747   0.243
 8871TIP3    H126554   5.823   2.712   0.218
 8871TIP3    H226555   5.713   2.697   0.321
 8872TIP3   OH226556   1.594   6.186   4.542
 8872TIP3    H126557   1.551   6.165   4.625
 8872TIP3    H226558   1.687   6.186   4.563
 8873TIP3   OH226559   3.065   2.466   1.814
 8873TIP3    H126560   3.078   2.550   1.768
 8873TIP3    H226561   3.100   2.401   1.754
 8874TIP3   OH226562   1.363   6.461   6.706
 8874TIP3    H126563   1.281   6.455   6.659
 8874TIP3    H226564   1.399   6.372   6.704
 8875TIP3   OH226565   3.805   1.326   3.226
 8875TIP3    H126566   3.841   1.347   3.140
 8875TIP3    H226567   3.728   1.382   3.235
 8876TIP3   OH226568   7.387   1.620   3.226
 8876TIP3    H126569   7.475   1.581   3.228
 8876TIP3    H226570   7.341   1.572   3.157
 8877TIP3   OH226571   0.100   7.391   5.019
 8877TIP3    H126572   0.039   7.465   5.020
 8877TIP3    H226573   0.044   7.315   5.003
 8878TIP3   OH226574   0.105   3.399   3.920
 8878TIP3    H126575   0.059   3.441   3.847
 8878TIP3    H226576   0.112   3.468   3.986
 8879TIP3   OH226577   6.311   3.730   2.556
 8879TIP3    H126578   6.335   3.786   2.630
 8879TIP3    H226579   6.248   3.668   2.593
 8880TIP3   OH226580   4.277   7.523   3.935
 8880TIP3    H126581   4.338   7.451   3.918
 8880TIP3    H226582   4.312   7.597   3.886
 8881TIP3   OH226583   5.510   1.007   1.127
 8881TIP3    H126584   5.537   1.098   1.143
 8881TIP3    H226585   5.464   0.982   1.207
 8882TIP3   OH226586   0.278   2.468   4.282
 8882TIP3    H126587   0.281   2.475   4.378
 8882TIP3    H226588   0.228   2.545   4.254
 8883TIP3   OH226589   4.191   2.186   2.284
 8883TIP3    H126590   4.267   2.245   2.288
 8883TIP3    H226591   4.204   2.126   2.358
 8884TIP3   OH226592   2.661   3.650   4.995
 8884TIP3    H126593   2.704   3.652   5.080
 8884TIP3    H226594   2.728   3.616   4.935
 8885TIP3   OH226595   5.637   5.741   3.704
 8885TIP3    H126596   5.675   5.685   3.636
 8885TIP3    H226597   5.712   5.787   3.741
 8886TIP3   OH226598   0.522   2.822   4.088
 8886TIP3    H126599   0.593   2.875   4.051
 8886TIP3    H226600   0.459   2.886   4.119
 8887TIP3   OH226601   6.995   1.085   0.092
 8887TIP3    H126602   6.955   1.047   0.170
 8887TIP3    H226603   7.008   1.010   0.034
 8888TIP3   OH226604   3.552   7.594   0.939
 8888TIP3    H126605   3.465   7.629   0.961
 8888TIP3    H226606   3.554   7.594   0.843
 8889TIP3   OH226607   8.288   2.842   1.865
 8889TIP3    H126608   8.206   2.891   1.875
 8889TIP3    H226609   8.326   2.876   1.785
 8890TIP3   OH226610   6.545   5.839   0.524
 8890TIP3    H126611   6.509   5.760   0.483
 8890TIP3    H226612   6.630   5.852   0.482
 8891TIP3   OH226613   1.869  -0.004   2.907
 8891TIP3    H126614   1.820   0.062   2.956
 8891TIP3    H226615   1.807  -0.037   2.842
 8892TIP3   OH226616   4.860   2.385   6.345
 8892TIP3    H126617   4.931   2.450   6.340
 8892TIP3    H226618   4.787   2.426   6.298
 8893TIP3   OH226619   4.427   1.687   2.337
 8893TIP3    H126620   4.362   1.747   2.374
 8893TIP3    H226621   4.414   1.606   2.385
 8894TIP3   OH226622   4.611   4.935   3.005
 8894TIP3    H126623   4.612   4.906   2.914
 8894TIP3    H226624   4.701   4.922   3.036
 8895TIP3   OH226625   5.881   1.255   1.192
 8895TIP3    H126626   5.855   1.236   1.102
 8895TIP3    H226627   5.868   1.349   1.202
 8896TIP3   OH226628   5.429   7.557   6.537
 8896TIP3    H126629   5.383   7.641   6.541
 8896TIP3    H226630   5.372   7.495   6.583
 8897TIP3   OH226631   1.295  -0.013   2.813
 8897TIP3    H126632   1.266   0.078   2.822
 8897TIP3    H226633   1.326  -0.037   2.900
 8898TIP3   OH226634   1.290   6.918   1.664
 8898TIP3    H126635   1.316   6.916   1.756
 8898TIP3    H226636   1.250   6.832   1.649
 8899TIP3   OH226637   0.600   4.284   5.257
 8899TIP3    H126638   0.669   4.345   5.284
 8899TIP3    H226639   0.552   4.331   5.189
 8900TIP3   OH226640   4.175   6.303   3.575
 8900TIP3    H126641   4.108   6.358   3.534
 8900TIP3    H226642   4.138   6.215   3.575
 8901TIP3   OH226643   5.493   4.323   5.817
 8901TIP3    H126644   5.443   4.405   5.820
 8901TIP3    H226645   5.458   4.277   5.741
 8902TIP3   OH226646   6.272   2.252   2.811
 8902TIP3    H126647   6.365   2.270   2.801
 8902TIP3    H226648   6.228   2.324   2.766
 8903TIP3   OH226649   0.650   4.084   0.128
 8903TIP3    H126650   0.679   4.169   0.159
 8903TIP3    H226651   0.662   4.026   0.203
 8904TIP3   OH226652   3.172   1.629   2.331
 8904TIP3    H126653   3.103   1.695   2.322
 8904TIP3    H226654   3.242   1.673   2.378
 8905TIP3   OH226655   6.117   6.120   4.055
 8905TIP3    H126656   6.127   6.120   3.960
 8905TIP3    H226657   6.091   6.209   4.077
 8906TIP3   OH226658   6.347   5.779   5.933
 8906TIP3    H126659   6.360   5.860   5.884
 8906TIP3    H226660   6.434   5.738   5.935
 8907TIP3   OH226661   1.919   1.393   4.401
 8907TIP3    H126662   1.896   1.455   4.471
 8907TIP3    H226663   1.834   1.359   4.372
 8908TIP3   OH226664   0.307   0.087   4.571
 8908TIP3    H126665   0.213   0.069   4.565
 8908TIP3    H226666   0.345   0.005   4.604
 8909TIP3   OH226667   1.948   3.762   2.757
 8909TIP3    H126668   1.863   3.804   2.750
 8909TIP3    H226669   1.969   3.734   2.668
 8910TIP3   OH226670   5.344   1.135   6.521
 8910TIP3    H126671   5.439   1.136   6.506
 8910TIP3    H226672   5.334   1.097   6.608
 8911TIP3   OH226673   4.035   3.003   5.716
 8911TIP3    H126674   3.980   2.943   5.767
 8911TIP3    H226675   4.115   3.011   5.767
 8912TIP3   OH226676   2.674   6.239   0.786
 8912TIP3    H126677   2.669   6.330   0.815
 8912TIP3    H226678   2.725   6.243   0.705
 8913TIP3   OH226679   0.702   4.847   6.476
 8913TIP3    H126680   0.737   4.894   6.401
 8913TIP3    H226681   0.777   4.837   6.535
 8914TIP3   OH226682   0.414   2.571   6.340
 8914TIP3    H126683   0.470   2.589   6.265
 8914TIP3    H226684   0.362   2.495   6.312
 8915TIP3   OH226685   1.520   6.886   6.284
 8915TIP3    H126686   1.501   6.945   6.357
 8915TIP3    H226687   1.448   6.900   6.223
 8916TIP3   OH226688   1.963   2.196   4.266
 8916TIP3    H126689   1.931   2.271   4.315
 8916TIP3    H226690   2.000   2.233   4.186
 8917TIP3   OH226691   4.278   2.129   4.424
 8917TIP3    H126692   4.248   2.051   4.377
 8917TIP3    H226693   4.212   2.195   4.405
 8918TIP3   OH226694   6.347   6.320   2.317
 8918TIP3    H126695   6.325   6.302   2.226
 8918TIP3    H226696   6.263   6.346   2.357
 8919TIP3   OH226697   1.832   5.749   0.675
 8919TIP3    H126698   1.852   5.741   0.582
 8919TIP3    H226699   1.879   5.677   0.716
 8920TIP3   OH226700   7.730   1.523   6.477
 8920TIP3    H126701   7.792   1.491   6.542
 8920TIP3    H226702   7.664   1.571   6.528
 8921TIP3   OH226703   5.533   4.485   1.292
 8921TIP3    H126704   5.573   4.540   1.225
 8921TIP3    H226705   5.531   4.540   1.370
 8922TIP3   OH226706   5.280   5.551   5.445
 8922TIP3    H126707   5.253   5.626   5.499
 8922TIP3    H226708   5.201   5.499   5.436
 8923TIP3   OH226709   7.301   6.489   2.850
 8923TIP3    H126710   7.266   6.535   2.774
 8923TIP3    H226711   7.224   6.455   2.896
 8924TIP3   OH226712   5.356   3.260   1.500
 8924TIP3    H126713   5.313   3.334   1.543
 8924TIP3    H226714   5.449   3.281   1.503
 8925TIP3   OH226715   8.185   0.435   4.025
 8925TIP3    H126716   8.202   0.529   4.014
 8925TIP3    H226717   8.124   0.430   4.098
 8926TIP3   OH226718   2.189   5.614   1.519
 8926TIP3    H126719   2.179   5.621   1.614
 8926TIP3    H226720   2.251   5.683   1.496
 8927TIP3   OH226721   5.826   6.048   0.901
 8927TIP3    H126722   5.747   6.074   0.854
 8927TIP3    H226723   5.862   6.130   0.934
 8928TIP3   OH226724   7.165   2.638   2.662
 8928TIP3    H126725   7.114   2.715   2.687
 8928TIP3    H226726   7.209   2.611   2.742
 8929TIP3   OH226727   2.759   3.590   6.173
 8929TIP3    H126728   2.684   3.546   6.211
 8929TIP3    H226729   2.832   3.571   6.232
 8930TIP3   OH226730   1.193   4.584   5.857
 8930TIP3    H126731   1.192   4.536   5.774
 8930TIP3    H226732   1.233   4.668   5.835
 8931TIP3   OH226733   3.014   6.513   1.257
 8931TIP3    H126734   3.030   6.452   1.329
 8931TIP3    H226735   2.936   6.480   1.214
 8932TIP3   OH226736   5.582   7.793   5.536
 8932TIP3    H126737   5.518   7.811   5.604
 8932TIP3    H226738   5.631   7.717   5.568
 8933TIP3   OH226739   8.162   3.115   0.203
 8933TIP3    H126740   8.191   3.178   0.138
 8933TIP3    H226741   8.131   3.040   0.153
 8934TIP3   OH226742   2.022   3.516   4.752
 8934TIP3    H126743   2.063   3.602   4.758
 8934TIP3    H226744   2.094   3.457   4.730
 8935TIP3   OH226745   1.825   2.017   2.894
 8935TIP3    H126746   1.757   2.016   2.962
 8935TIP3    H226747   1.864   1.930   2.899
 8936TIP3   OH226748   4.794   3.892   0.049
 8936TIP3    H126749   4.800   3.824   0.117
 8936TIP3    H226750   4.874   3.944   0.060
 8937TIP3   OH226751   5.713   0.860   2.814
 8937TIP3    H126752   5.624   0.893   2.829
 8937TIP3    H226753   5.721   0.855   2.719
 8938TIP3   OH226754   3.609   0.582   5.985
 8938TIP3    H126755   3.591   0.661   5.933
 8938TIP3    H226756   3.663   0.614   6.058
 8939TIP3   OH226757   0.965   2.619   5.088
 8939TIP3    H126758   0.877   2.650   5.108
 8939TIP3    H226759   1.017   2.648   5.163
 8940TIP3   OH226760   3.648   7.284   3.391
 8940TIP3    H126761   3.581   7.257   3.329
 8940TIP3    H226762   3.626   7.240   3.473
 8941TIP3   OH226763   5.978   0.919   0.070
 8941TIP3    H126764   5.916   0.849   0.048
 8941TIP3    H226765   6.018   0.891   0.153
 8942TIP3   OH226766   5.404   5.772   3.852
 8942TIP3    H126767   5.412   5.778   3.756
 8942TIP3    H226768   5.494   5.781   3.883
 8943TIP3   OH226769   5.623   0.549   0.994
 8943TIP3    H126770   5.641   0.612   1.064
 8943TIP3    H226771   5.603   0.603   0.917
 8944TIP3   OH226772   4.938   0.088   1.456
 8944TIP3    H126773   4.881   0.164   1.445
 8944TIP3    H226774   4.890   0.016   1.415
 8945TIP3   OH226775   8.033   4.541   4.225
 8945TIP3    H126776   7.953   4.521   4.273
 8945TIP3    H226777   8.104   4.506   4.279
 8946TIP3   OH226778   7.314   6.743   3.647
 8946TIP3    H126779   7.302   6.837   3.636
 8946TIP3    H226780   7.232   6.713   3.686
 8947TIP3   OH226781   2.292   4.459   6.592
 8947TIP3    H126782   2.324   4.371   6.610
 8947TIP3    H226783   2.338   4.515   6.655
 8948TIP3   OH226784   8.282   2.418   5.570
 8948TIP3    H126785   8.239   2.346   5.615
 8948TIP3    H226786   8.374   2.411   5.596
 8949TIP3   OH226787   4.009   1.345   2.388
 8949TIP3    H126788   4.099   1.349   2.356
 8949TIP3    H226789   3.990   1.252   2.395
 8950TIP3   OH226790   6.128   4.446   5.520
 8950TIP3    H126791   6.045   4.407   5.546
 8950TIP3    H226792   6.172   4.378   5.469
 8951TIP3   OH226793   4.004   0.891   3.590
 8951TIP3    H126794   3.940   0.852   3.650
 8951TIP3    H226795   4.054   0.951   3.645
 8952TIP3   OH226796   7.375   7.216   6.294
 8952TIP3    H126797   7.366   7.249   6.205
 8952TIP3    H226798   7.295   7.243   6.339
 8953TIP3   OH226799   5.057   5.917   1.874
 8953TIP3    H126800   5.150   5.928   1.854
 8953TIP3    H226801   5.021   5.876   1.795
 8954TIP3   OH226802   4.411   5.783   1.456
 8954TIP3    H126803   4.480   5.818   1.511
 8954TIP3    H226804   4.446   5.787   1.367
 8955TIP3   OH226805   6.880   7.689   0.239
 8955TIP3    H126806   6.854   7.604   0.274
 8955TIP3    H226807   6.798   7.729   0.211
 8956TIP3   OH226808   2.797   0.227   0.824
 8956TIP3    H126809   2.827   0.234   0.733
 8956TIP3    H226810   2.815   0.314   0.861
 8957TIP3   OH226811   2.484   4.893   6.820
 8957TIP3    H126812   2.415   4.951   6.853
 8957TIP3    H226813   2.501   4.923   6.731
 8958TIP3   OH226814   3.177   2.673   2.471
 8958TIP3    H126815   3.196   2.706   2.559
 8958TIP3    H226816   3.088   2.704   2.452
 8959TIP3   OH226817   6.636   1.657   0.570
 8959TIP3    H126818   6.714   1.632   0.520
 8959TIP3    H226819   6.669   1.713   0.640
 8960TIP3   OH226820   3.950   7.253   3.335
 8960TIP3    H126821   3.960   7.164   3.368
 8960TIP3    H226822   3.857   7.260   3.313
 8961TIP3   OH226823   8.399   5.817   4.211
 8961TIP3    H126824   8.446   5.900   4.203
 8961TIP3    H226825   8.357   5.821   4.298
 8962TIP3   OH226826   7.381   1.174   1.999
 8962TIP3    H126827   7.390   1.197   2.091
 8962TIP3    H226828   7.452   1.111   1.984
 8963TIP3   OH226829   6.218   7.396   3.088
 8963TIP3    H126830   6.124   7.387   3.075
 8963TIP3    H226831   6.251   7.307   3.097
 8964TIP3   OH226832   5.514   2.986   1.179
 8964TIP3    H126833   5.490   2.923   1.111
 8964TIP3    H226834   5.431   3.009   1.221
 8965TIP3   OH226835   1.238   5.679   0.217
 8965TIP3    H126836   1.224   5.631   0.135
 8965TIP3    H226837   1.190   5.761   0.205
 8966TIP3   OH226838   1.674   4.982   1.570
 8966TIP3    H126839   1.584   4.991   1.540
 8966TIP3    H226840   1.671   5.005   1.663
 8967TIP3   OH226841   7.389   3.864   6.505
 8967TIP3    H126842   7.333   3.854   6.429
 8967TIP3    H226843   7.386   3.780   6.550
 8968TIP3   OH226844   0.596   4.204   1.941
 8968TIP3    H126845   0.638   4.212   2.027
 8968TIP3    H226846   0.592   4.294   1.908
 8969TIP3   OH226847   2.029   2.121   1.248
 8969TIP3    H126848   2.079   2.202   1.261
 8969TIP3    H226849   2.073   2.077   1.175
 8970TIP3   OH226850   5.461   2.426   4.876
 8970TIP3    H126851   5.472   2.517   4.848
 8970TIP3    H226852   5.434   2.380   4.797
 8971TIP3   OH226853   6.375   1.905   1.115
 8971TIP3    H126854   6.375   1.831   1.055
 8971TIP3    H226855   6.440   1.965   1.078
 8972TIP3   OH226856   6.797   0.661   3.613
 8972TIP3    H126857   6.805   0.630   3.523
 8972TIP3    H226858   6.841   0.594   3.666
 8973TIP3   OH226859   1.899   3.320   3.978
 8973TIP3    H126860   1.885   3.270   3.898
 8973TIP3    H226861   1.848   3.400   3.967
 8974TIP3   OH226862   2.830   4.482   5.436
 8974TIP3    H126863   2.800   4.570   5.458
 8974TIP3    H226864   2.749   4.431   5.423
 8975TIP3   OH226865   1.735   0.318   0.055
 8975TIP3    H126866   1.703   0.352   0.138
 8975TIP3    H226867   1.657   0.315  -0.001
 8976TIP3   OH226868   0.971   0.961   1.780
 8976TIP3    H126869   1.064   0.952   1.804
 8976TIP3    H226870   0.961   1.054   1.759
 8977TIP3   OH226871   7.675   7.600   4.032
 8977TIP3    H126872   7.734   7.666   4.069
 8977TIP3    H226873   7.616   7.578   4.105
 8978TIP3   OH226874   1.051   3.454   0.693
 8978TIP3    H126875   0.970   3.494   0.723
 8978TIP3    H226876   1.110   3.528   0.678
 8979TIP3   OH226877   5.365   5.421   3.787
 8979TIP3    H126878   5.356   5.477   3.710
 8979TIP3    H226879   5.284   5.436   3.836
 8980TIP3   OH226880   8.266   3.983   5.396
 8980TIP3    H126881   8.262   4.038   5.318
 8980TIP3    H226882   8.176   3.982   5.429
 8981TIP3   OH226883   1.727   1.501   2.003
 8981TIP3    H126884   1.707   1.469   2.091
 8981TIP3    H226885   1.687   1.588   1.998
 8982TIP3   OH226886   4.812   7.592   6.279
 8982TIP3    H126887   4.890   7.619   6.231
 8982TIP3    H226888   4.804   7.656   6.350
 8983TIP3   OH226889   7.660   5.687   1.595
 8983TIP3    H126890   7.741   5.726   1.628
 8983TIP3    H226891   7.677   5.672   1.502
 8984TIP3   OH226892   0.302   6.355   1.477
 8984TIP3    H126893   0.337   6.416   1.542
 8984TIP3    H226894   0.331   6.269   1.507
 8985TIP3   OH226895   7.625   6.758   5.100
 8985TIP3    H126896   7.668   6.705   5.168
 8985TIP3    H226897   7.617   6.699   5.025
 8986TIP3   OH226898   0.752   3.701   6.128
 8986TIP3    H126899   0.670   3.656   6.107
 8986TIP3    H226900   0.819   3.632   6.121
 8987TIP3   OH226901   3.000   7.905   3.272
 8987TIP3    H126902   3.086   7.947   3.280
 8987TIP3    H226903   3.002   7.833   3.335
 8988TIP3   OH226904   3.296   1.452   3.988
 8988TIP3    H126905   3.244   1.392   4.041
 8988TIP3    H226906   3.387   1.426   4.005
 8989TIP3   OH226907   2.757   1.532   5.263
 8989TIP3    H126908   2.771   1.453   5.211
 8989TIP3    H226909   2.792   1.510   5.350
 8990TIP3   OH226910   4.560   3.393   6.470
 8990TIP3    H126911   4.539   3.481   6.499
 8990TIP3    H226912   4.582   3.345   6.550
 8991TIP3   OH226913   1.611   3.056   4.682
 8991TIP3    H126914   1.665   3.003   4.625
 8991TIP3    H226915   1.542   3.090   4.625
 8992TIP3   OH226916   6.265   0.387   5.447
 8992TIP3    H126917   6.311   0.455   5.399
 8992TIP3    H226918   6.192   0.363   5.390
 8993TIP3   OH226919   5.883   2.401   1.477
 8993TIP3    H126920   5.975   2.421   1.495
 8993TIP3    H226921   5.866   2.320   1.524
 8994TIP3   OH226922   7.540   2.103   3.640
 8994TIP3    H126923   7.573   2.134   3.724
 8994TIP3    H226924   7.516   2.011   3.656
 8995TIP3   OH226925   7.141   7.751   0.249
 8995TIP3    H126926   7.052   7.721   0.267
 8995TIP3    H226927   7.196   7.673   0.258
 8996TIP3   OH226928   5.643   7.816   3.461
 8996TIP3    H126929   5.647   7.720   3.454
 8996TIP3    H226930   5.578   7.832   3.530
 8997TIP3   OH226931   6.479   3.617   5.559
 8997TIP3    H126932   6.459   3.580   5.473
 8997TIP3    H226933   6.393   3.644   5.593
 8998TIP3   OH226934   1.263   3.604   0.623
 8998TIP3    H126935   1.341   3.647   0.590
 8998TIP3    H226936   1.294   3.549   0.695
 8999TIP3   OH226937   2.566   4.896   5.644
 8999TIP3    H126938   2.614   4.823   5.683
 8999TIP3    H226939   2.473   4.874   5.657
 9000TIP3   OH226940   4.536   5.322   1.908
 9000TIP3    H126941   4.562   5.335   1.817
 9000TIP3    H226942   4.467   5.257   1.905
 9001TIP3   OH226943   4.473   7.152   6.013
 9001TIP3    H126944   4.499   7.077   6.068
 9001TIP3    H226945   4.522   7.140   5.932
 9002TIP3   OH226946   1.994   5.808   0.926
 9002TIP3    H126947   1.922   5.851   0.880
 9002TIP3    H226948   2.046   5.880   0.962
 9003TIP3   OH226949   1.398   0.954   4.364
 9003TIP3    H126950   1.383   1.023   4.429
 9003TIP3    H226951   1.328   0.966   4.300
 9004TIP3   OH226952   6.482   2.780   6.436
 9004TIP3    H126953   6.406   2.760   6.382
 9004TIP3    H226954   6.457   2.752   6.524
 9005TIP3   OH226955   7.469   2.037   5.474
 9005TIP3    H126956   7.447   2.024   5.566
 9005TIP3    H226957   7.565   2.043   5.473
 9006TIP3   OH226958   4.183   6.771   2.144
 9006TIP3    H126959   4.240   6.742   2.215
 9006TIP3    H226960   4.234   6.839   2.099
 9007TIP3   OH226961   4.616   5.980   1.320
 9007TIP3    H126962   4.558   5.911   1.289
 9007TIP3    H226963   4.655   6.017   1.241
 9008TIP3   OH226964   4.651   5.218   2.925
 9008TIP3    H126965   4.624   5.127   2.930
 9008TIP3    H226966   4.570   5.268   2.936
 9009TIP3   OH226967   3.924   7.067   0.657
 9009TIP3    H126968   3.951   6.987   0.612
 9009TIP3    H226969   3.851   7.040   0.712
 9010TIP3   OH226970   0.785   7.730   5.191
 9010TIP3    H126971   0.696   7.700   5.173
 9010TIP3    H226972   0.825   7.660   5.242
 9011TIP3   OH226973   6.480   2.143   3.325
 9011TIP3    H126974   6.409   2.079   3.323
 9011TIP3    H226975   6.496   2.159   3.418
 9012TIP3   OH226976   7.907   6.701   5.899
 9012TIP3    H126977   7.899   6.606   5.901
 9012TIP3    H226978   7.821   6.732   5.872
 9013TIP3   OH226979   1.260   5.856   0.905
 9013TIP3    H126980   1.355   5.869   0.903
 9013TIP3    H226981   1.247   5.782   0.964
 9014TIP3   OH226982   1.294   3.428   4.925
 9014TIP3    H126983   1.232   3.386   4.986
 9014TIP3    H226984   1.327   3.504   4.973
 9015TIP3   OH226985   4.154   3.099   2.777
 9015TIP3    H126986   4.138   3.162   2.847
 9015TIP3    H226987   4.137   3.147   2.696
 9016TIP3   OH226988   1.661   6.224   0.097
 9016TIP3    H126989   1.629   6.263   0.178
 9016TIP3    H226990   1.735   6.279   0.071
 9017TIP3   OH226991   6.880   4.374   1.675
 9017TIP3    H126992   6.879   4.440   1.606
 9017TIP3    H226993   6.972   4.371   1.703
 9018TIP3   OH226994   4.483   3.227   0.829
 9018TIP3    H126995   4.575   3.234   0.805
 9018TIP3    H226996   4.479   3.153   0.889
 9019TIP3   OH226997   0.100   6.800   3.155
 9019TIP3    H126998   0.035   6.869   3.142
 9019TIP3    H226999   0.078   6.763   3.241
 9020TIP3   OH227000   4.166   1.134   2.504
 9020TIP3    H127001   4.108   1.080   2.451
 9020TIP3    H227002   4.253   1.123   2.463
 9021TIP3   OH227003   2.504   3.719   2.459
 9021TIP3    H127004   2.461   3.717   2.374
 9021TIP3    H227005   2.447   3.668   2.517
 9022TIP3   OH227006   5.930   0.302   6.825
 9022TIP3    H127007   5.922   0.230   6.887
 9022TIP3    H227008   5.869   0.279   6.754
 9023TIP3   OH227009   2.668   0.587   5.346
 9023TIP3    H127010   2.646   0.548   5.431
 9023TIP3    H227011   2.763   0.578   5.340
 9024TIP3   OH227012   3.963   2.421   0.441
 9024TIP3    H127013   4.010   2.501   0.466
 9024TIP3    H227014   3.891   2.416   0.504
 9025TIP3   OH227015   5.146  -0.019   1.584
 9025TIP3    H127016   5.154   0.062   1.636
 9025TIP3    H227017   5.092   0.006   1.509
 9026TIP3   OH227018   7.645   6.517   4.963
 9026TIP3    H127019   7.657   6.427   4.994
 9026TIP3    H227020   7.609   6.508   4.875
 9027TIP3   OH227021   5.532   2.408   3.421
 9027TIP3    H127022   5.495   2.341   3.479
 9027TIP3    H227023   5.531   2.488   3.474
 9028TIP3   OH227024   1.203   5.768   6.453
 9028TIP3    H127025   1.266   5.839   6.444
 9028TIP3    H227026   1.201   5.749   6.546
 9029TIP3   OH227027   8.234   2.581   5.064
 9029TIP3    H127028   8.199   2.543   4.984
 9029TIP3    H227029   8.188   2.535   5.134
 9030TIP3   OH227030   6.610   4.710   5.763
 9030TIP3    H127031   6.640   4.687   5.850
 9030TIP3    H227032   6.534   4.653   5.748
 9031TIP3   OH227033   0.029   0.064   1.446
 9031TIP3    H127034   0.040  -0.018   1.493
 9031TIP3    H227035   0.012   0.129   1.514
 9032TIP3   OH227036   3.522   7.644   0.595
 9032TIP3    H127037   3.482   7.688   0.521
 9032TIP3    H227038   3.559   7.714   0.648
 9033TIP3   OH227039   6.968   2.897   3.552
 9033TIP3    H127040   6.996   2.920   3.640
 9033TIP3    H227041   6.880   2.933   3.544
 9034TIP3   OH227042   2.916   1.715   1.085
 9034TIP3    H127043   2.961   1.673   1.011
 9034TIP3    H227044   2.980   1.777   1.120
 9035TIP3   OH227045   7.001   1.908   1.363
 9035TIP3    H127046   7.058   1.985   1.359
 9035TIP3    H227047   7.036   1.848   1.298
 9036TIP3   OH227048   3.435   7.237   3.220
 9036TIP3    H127049   3.410   7.288   3.143
 9036TIP3    H227050   3.356   7.187   3.242
 9037TIP3   OH227051   1.060   1.264   2.040
 9037TIP3    H127052   1.046   1.209   2.117
 9037TIP3    H227053   1.080   1.203   1.969
 9038TIP3   OH227054   2.584   1.598   2.400
 9038TIP3    H127055   2.623   1.659   2.338
 9038TIP3    H227056   2.495   1.632   2.415
 9039TIP3   OH227057   4.249   7.472   5.992
 9039TIP3    H127058   4.264   7.521   6.073
 9039TIP3    H227059   4.325   7.493   5.937
 9040TIP3   OH227060   4.156   7.901   6.656
 9040TIP3    H127061   4.218   7.909   6.729
 9040TIP3    H227062   4.136   7.808   6.651
 9041TIP3   OH227063   3.916   5.730   4.988
 9041TIP3    H127064   3.931   5.759   4.898
 9041TIP3    H227065   3.821   5.724   4.996
 9042TIP3   OH227066   1.739   2.279   3.115
 9042TIP3    H127067   1.651   2.253   3.086
 9042TIP3    H227068   1.786   2.196   3.125
 9043TIP3   OH227069   5.178   3.619   6.308
 9043TIP3    H127070   5.119   3.675   6.358
 9043TIP3    H227071   5.181   3.537   6.357
 9044TIP3   OH227072   8.250   1.232   3.618
 9044TIP3    H127073   8.303   1.219   3.697
 9044TIP3    H227074   8.311   1.216   3.546
 9045TIP3   OH227075   7.597   5.943   3.138
 9045TIP3    H127076   7.549   5.948   3.056
 9045TIP3    H227077   7.600   6.033   3.171
 9046TIP3   OH227078   8.073   1.194   0.850
 9046TIP3    H127079   8.094   1.196   0.944
 9046TIP3    H227080   7.997   1.252   0.842
 9047TIP3   OH227081   2.201   3.119   6.053
 9047TIP3    H127082   2.295   3.130   6.042
 9047TIP3    H227083   2.167   3.209   6.061
 9048TIP3   OH227084   3.820   7.066   3.812
 9048TIP3    H127085   3.738   7.020   3.829
 9048TIP3    H227086   3.841   7.108   3.895
 9049TIP3   OH227087   4.480   4.586   6.428
 9049TIP3    H127088   4.548   4.611   6.489
 9049TIP3    H227089   4.501   4.633   6.347
 9050TIP3   OH227090   4.795   5.456   3.020
 9050TIP3    H127091   4.744   5.466   3.100
 9050TIP3    H227092   4.753   5.385   2.973
 9051TIP3   OH227093   5.345   3.674   1.335
 9051TIP3    H127094   5.291   3.645   1.261
 9051TIP3    H227095   5.405   3.601   1.350
 9052TIP3   OH227096   0.965   6.921   6.320
 9052TIP3    H127097   0.917   6.844   6.353
 9052TIP3    H227098   1.021   6.947   6.393
 9053TIP3   OH227099   2.505   7.369   5.740
 9053TIP3    H127100   2.534   7.455   5.770
 9053TIP3    H227101   2.519   7.371   5.645
 9054TIP3   OH227102   4.721   1.588   1.944
 9054TIP3    H127103   4.792   1.528   1.923
 9054TIP3    H227104   4.741   1.621   2.032
 9055TIP3   OH227105   5.076   2.627   0.105
 9055TIP3    H127106   5.003   2.579   0.146
 9055TIP3    H227107   5.077   2.596   0.015
 9056TIP3   OH227108   6.399   3.710   3.185
 9056TIP3    H127109   6.451   3.649   3.236
 9056TIP3    H227110   6.372   3.778   3.247
 9057TIP3   OH227111   4.371   7.225   2.531
 9057TIP3    H127112   4.445   7.235   2.591
 9057TIP3    H227113   4.296   7.209   2.589
 9058TIP3   OH227114   4.043   4.140   2.287
 9058TIP3    H127115   3.970   4.090   2.323
 9058TIP3    H227116   4.119   4.113   2.339
 9059TIP3   OH227117   5.343   6.299   6.094
 9059TIP3    H127118   5.376   6.356   6.024
 9059TIP3    H227119   5.342   6.212   6.055
 9060TIP3   OH227120   1.292   0.451   5.338
 9060TIP3    H127121   1.313   0.530   5.388
 9060TIP3    H227122   1.373   0.431   5.290
 9061TIP3   OH227123   6.851   5.209   4.572
 9061TIP3    H127124   6.888   5.143   4.629
 9061TIP3    H227125   6.891   5.291   4.600
 9062TIP3   OH227126   0.601   2.654   4.748
 9062TIP3    H127127   0.622   2.714   4.820
 9062TIP3    H227128   0.535   2.595   4.784
 9063TIP3   OH227129   7.518   4.369   1.777
 9063TIP3    H127130   7.481   4.366   1.688
 9063TIP3    H227131   7.539   4.461   1.791
 9064TIP3   OH227132   7.428   5.678   2.274
 9064TIP3    H127133   7.393   5.722   2.196
 9064TIP3    H227134   7.510   5.638   2.244
 9065TIP3   OH227135   6.854   4.642   0.770
 9065TIP3    H127136   6.935   4.628   0.720
 9065TIP3    H227137   6.799   4.694   0.711
 9066TIP3   OH227138   3.898   5.270   6.147
 9066TIP3    H127139   3.954   5.271   6.069
 9066TIP3    H227140   3.830   5.335   6.128
 9067TIP3   OH227141   6.266   5.737   2.389
 9067TIP3    H127142   6.191   5.784   2.354
 9067TIP3    H227143   6.342   5.786   2.357
 9068TIP3   OH227144   4.555   6.828   4.401
 9068TIP3    H127145   4.495   6.811   4.473
 9068TIP3    H227146   4.642   6.810   4.437
 9069TIP3   OH227147   2.648   0.938   0.067
 9069TIP3    H127148   2.600   0.973  -0.009
 9069TIP3    H227149   2.670   0.849   0.041
 9070TIP3   OH227150   1.363   1.118   1.255
 9070TIP3    H127151   1.390   1.067   1.179
 9070TIP3    H227152   1.293   1.174   1.223
 9071TIP3   OH227153   3.224   7.428   3.758
 9071TIP3    H127154   3.191   7.416   3.669
 9071TIP3    H227155   3.312   7.392   3.756
 9072TIP3   OH227156   5.248   0.565   1.592
 9072TIP3    H127157   5.196   0.630   1.640
 9072TIP3    H227158   5.263   0.495   1.656
 9073TIP3   OH227159   2.621   2.358   6.152
 9073TIP3    H127160   2.604   2.443   6.192
 9073TIP3    H227161   2.618   2.375   6.058
 9074TIP3   OH227162   5.509   2.679   3.509
 9074TIP3    H127163   5.459   2.737   3.451
 9074TIP3    H227164   5.600   2.708   3.499
 9075TIP3   OH227165   3.528   5.281   1.243
 9075TIP3    H127166   3.530   5.359   1.300
 9075TIP3    H227167   3.436   5.272   1.219
 9076TIP3   OH227168   7.814   0.744   6.633
 9076TIP3    H127169   7.783   0.764   6.721
 9076TIP3    H227170   7.837   0.829   6.595
 9077TIP3   OH227171   1.141   1.809   6.627
 9077TIP3    H127172   1.236   1.799   6.616
 9077TIP3    H227173   1.110   1.720   6.646
 9078TIP3   OH227174   7.286   3.159   6.746
 9078TIP3    H127175   7.308   3.163   6.839
 9078TIP3    H227176   7.197   3.194   6.742
 9079TIP3   OH227177   1.810   2.705   2.242
 9079TIP3    H127178   1.902   2.725   2.224
 9079TIP3    H227179   1.762   2.779   2.206
 9080TIP3   OH227180   4.792   3.574   0.085
 9080TIP3    H127181   4.742   3.532   0.154
 9080TIP3    H227182   4.729   3.585   0.013
 9081TIP3   OH227183   7.885   3.767   3.356
 9081TIP3    H127184   7.956   3.705   3.341
 9081TIP3    H227185   7.810   3.713   3.377
 9082TIP3   OH227186   2.265   6.729   0.432
 9082TIP3    H127187   2.291   6.750   0.342
 9082TIP3    H227188   2.185   6.779   0.446
 9083TIP3   OH227189   2.613   4.958   4.307
 9083TIP3    H127190   2.664   5.036   4.327
 9083TIP3    H227191   2.526   4.991   4.286
 9084TIP3   OH227192   5.747   6.396   0.866
 9084TIP3    H127193   5.828   6.371   0.821
 9084TIP3    H227194   5.683   6.332   0.836
 9085TIP3   OH227195   7.801   6.664   5.318
 9085TIP3    H127196   7.856   6.742   5.313
 9085TIP3    H227197   7.802   6.639   5.411
 9086TIP3   OH227198   2.823   0.389   6.567
 9086TIP3    H127199   2.775   0.376   6.485
 9086TIP3    H227200   2.797   0.476   6.597
 9087TIP3   OH227201   0.552   5.681   5.607
 9087TIP3    H127202   0.591   5.665   5.693
 9087TIP3    H227203   0.494   5.606   5.593
 9088TIP3   OH227204   0.881   6.960   1.181
 9088TIP3    H127205   0.833   6.884   1.147
 9088TIP3    H227206   0.849   6.971   1.271
 9089TIP3   OH227207   6.712   5.800   6.699
 9089TIP3    H127208   6.634   5.747   6.712
 9089TIP3    H227209   6.769   5.747   6.644
 9090TIP3   OH227210   4.830   5.195   5.432
 9090TIP3    H127211   4.736   5.206   5.445
 9090TIP3    H227212   4.871   5.232   5.510
 9091TIP3   OH227213   1.007   6.155   2.534
 9091TIP3    H127214   1.068   6.205   2.588
 9091TIP3    H227215   1.013   6.195   2.447
 9092TIP3   OH227216   2.082   0.963   3.057
 9092TIP3    H127217   2.157   0.927   3.010
 9092TIP3    H227218   2.042   1.024   2.995
 9093TIP3   OH227219   7.340   7.581   6.812
 9093TIP3    H127220   7.334   7.572   6.717
 9093TIP3    H227221   7.302   7.666   6.832
 9094TIP3   OH227222   6.440   7.769   3.223
 9094TIP3    H127223   6.355   7.746   3.261
 9094TIP3    H227224   6.460   7.855   3.259
 9095TIP3   OH227225   5.651   0.028   3.585
 9095TIP3    H127226   5.584   0.050   3.650
 9095TIP3    H227227   5.603   0.016   3.504
 9096TIP3   OH227228   4.255   4.368   0.411
 9096TIP3    H127229   4.197   4.443   0.423
 9096TIP3    H227230   4.312   4.369   0.488
 9097TIP3   OH227231   5.016   4.442   4.194
 9097TIP3    H127232   5.087   4.493   4.156
 9097TIP3    H227233   5.030   4.353   4.161
 9098TIP3   OH227234   6.539   3.955   1.878
 9098TIP3    H127235   6.576   3.903   1.950
 9098TIP3    H227236   6.590   3.930   1.802
 9099TIP3   OH227237   2.699   6.822   3.174
 9099TIP3    H127238   2.732   6.811   3.084
 9099TIP3    H227239   2.740   6.751   3.223
 9100TIP3   OH227240   0.054   0.479   3.939
 9100TIP3    H127241  -0.008   0.463   4.010
 9100TIP3    H227242   0.115   0.543   3.975
 9101TIP3   OH227243   2.151   5.522   4.619
 9101TIP3    H127244   2.202   5.538   4.699
 9101TIP3    H227245   2.215   5.528   4.548
 9102TIP3   OH227246   1.736   4.477   1.021
 9102TIP3    H127247   1.713   4.555   1.072
 9102TIP3    H227248   1.828   4.462   1.042
 9103TIP3   OH227249   6.055   3.493   1.775
 9103TIP3    H127250   6.147   3.467   1.771
 9103TIP3    H227251   6.054   3.579   1.731
 9104TIP3   OH227252   6.368   7.628   2.310
 9104TIP3    H127253   6.445   7.676   2.339
 9104TIP3    H227254   6.303   7.643   2.379
 9105TIP3   OH227255   3.461   3.140   5.904
 9105TIP3    H127256   3.443   3.198   5.829
 9105TIP3    H227257   3.426   3.055   5.877
 9106TIP3   OH227258   1.067   4.946   1.350
 9106TIP3    H127259   1.021   5.004   1.411
 9106TIP3    H227260   1.137   5.000   1.314
 9107TIP3   OH227261   1.517   3.926   3.685
 9107TIP3    H127262   1.511   3.924   3.781
 9107TIP3    H227263   1.541   3.837   3.660
 9108TIP3   OH227264   7.943   7.488   6.063
 9108TIP3    H127265   7.868   7.525   6.016
 9108TIP3    H227266   7.918   7.490   6.155
 9109TIP3   OH227267   0.484   1.693   1.544
 9109TIP3    H127268   0.480   1.598   1.535
 9109TIP3    H227269   0.496   1.707   1.638
 9110TIP3   OH227270   8.124   0.160   2.568
 9110TIP3    H127271   8.199   0.108   2.599
 9110TIP3    H227272   8.143   0.249   2.597
 9111TIP3   OH227273   0.850   4.115   0.310
 9111TIP3    H127274   0.856   4.105   0.404
 9111TIP3    H227275   0.925   4.169   0.286
 9112TIP3   OH227276   0.361   7.050   5.822
 9112TIP3    H127277   0.439   7.092   5.785
 9112TIP3    H227278   0.374   7.055   5.917
 9113TIP3   OH227279   1.203   7.600   1.040
 9113TIP3    H127280   1.233   7.573   0.953
 9113TIP3    H227281   1.283   7.607   1.092
 9114TIP3   OH227282   4.802   3.134   5.214
 9114TIP3    H127283   4.845   3.219   5.213
 9114TIP3    H227284   4.779   3.120   5.306
 9115TIP3   OH227285   1.897   1.609   0.246
 9115TIP3    H127286   1.802   1.595   0.250
 9115TIP3    H227287   1.910   1.695   0.286
 9116TIP3   OH227288   4.117   3.479   0.446
 9116TIP3    H127289   4.036   3.427   0.443
 9116TIP3    H227290   4.086   3.569   0.460
 9117TIP3   OH227291   1.229   0.952   3.380
 9117TIP3    H127292   1.255   0.863   3.401
 9117TIP3    H227293   1.245   0.961   3.286
 9118TIP3   OH227294   6.726   3.706   5.648
 9118TIP3    H127295   6.635   3.690   5.623
 9118TIP3    H227296   6.721   3.772   5.717
 9119TIP3   OH227297   0.797   5.690   3.509
 9119TIP3    H127298   0.836   5.633   3.443
 9119TIP3    H227299   0.705   5.695   3.484
 9120TIP3   OH227300   3.018   2.564   2.737
 9120TIP3    H127301   2.955   2.504   2.697
 9120TIP3    H227302   2.994   2.650   2.702
 9121TIP3   OH227303   6.714   0.432   4.184
 9121TIP3    H127304   6.674   0.405   4.266
 9121TIP3    H227305   6.804   0.454   4.207
 9122TIP3   OH227306   8.382   6.313   6.353
 9122TIP3    H127307   8.461   6.346   6.396
 9122TIP3    H227308   8.356   6.383   6.293
 9123TIP3   OH227309   3.844   4.919   4.229
 9123TIP3    H127310   3.808   4.968   4.155
 9123TIP3    H227311   3.823   4.827   4.210
 9124TIP3   OH227312   6.239   1.322   0.387
 9124TIP3    H127313   6.299   1.331   0.313
 9124TIP3    H227314   6.163   1.375   0.362
 9125TIP3   OH227315   3.858   3.738   1.461
 9125TIP3    H127316   3.868   3.802   1.391
 9125TIP3    H227317   3.875   3.653   1.420
 9126TIP3   OH227318   6.149   3.267   5.542
 9126TIP3    H127319   6.114   3.313   5.618
 9126TIP3    H227320   6.243   3.284   5.545
 9127TIP3   OH227321   4.369   2.602   2.313
 9127TIP3    H127322   4.437   2.629   2.252
 9127TIP3    H227323   4.289   2.598   2.260
 9128TIP3   OH227324   7.920   6.295   0.441
 9128TIP3    H127325   7.934   6.380   0.482
 9128TIP3    H227326   7.851   6.311   0.376
 9129TIP3   OH227327   1.926   2.818   0.074
 9129TIP3    H127328   1.880   2.736   0.056
 9129TIP3    H227329   1.875   2.884   0.026
 9130TIP3   OH227330   2.075   3.748   2.501
 9130TIP3    H127331   2.008   3.813   2.479
 9130TIP3    H227332   2.148   3.768   2.442
 9131TIP3   OH227333   1.583   6.496   3.416
 9131TIP3    H127334   1.490   6.494   3.437
 9131TIP3    H227335   1.626   6.512   3.500
 9132TIP3   OH227336   1.634   4.825   3.737
 9132TIP3    H127337   1.553   4.827   3.686
 9132TIP3    H227338   1.605   4.820   3.828
 9133TIP3   OH227339   0.785   6.091   1.318
 9133TIP3    H127340   0.748   6.051   1.398
 9133TIP3    H227341   0.806   6.180   1.344
 9134TIP3   OH227342   6.117   4.486   6.798
 9134TIP3    H127343   6.023   4.507   6.798
 9134TIP3    H227344   6.160   4.570   6.779
 9135TIP3   OH227345   4.244   4.044   2.416
 9135TIP3    H127346   4.309   4.103   2.456
 9135TIP3    H227347   4.288   3.959   2.411
 9136TIP3   OH227348   7.825   0.053   0.691
 9136TIP3    H127349   7.855   0.122   0.750
 9136TIP3    H227350   7.906   0.014   0.658
 9137TIP3   OH227351   1.969   7.427   3.410
 9137TIP3    H127352   2.054   7.470   3.413
 9137TIP3    H227353   1.906   7.498   3.393
 9138TIP3   OH227354   0.428   7.567   5.161
 9138TIP3    H127355   0.428   7.519   5.078
 9138TIP3    H227356   0.369   7.641   5.145
 9139TIP3   OH227357   3.893   3.167   6.790
 9139TIP3    H127358   3.818   3.189   6.845
 9139TIP3    H227359   3.957   3.235   6.810
 9140TIP3   OH227360   0.464   4.607   5.928
 9140TIP3    H127361   0.513   4.638   5.852
 9140TIP3    H227362   0.531   4.585   5.993
 9141TIP3   OH227363   7.177   4.007   4.076
 9141TIP3    H127364   7.190   3.950   4.000
 9141TIP3    H227365   7.258   3.997   4.126
 9142TIP3   OH227366   0.024   0.447   0.348
 9142TIP3    H127367   0.020   0.375   0.411
 9142TIP3    H227368  -0.036   0.421   0.278
 9143TIP3   OH227369   6.199   6.103   2.544
 9143TIP3    H127370   6.130   6.125   2.481
 9143TIP3    H227371   6.280   6.115   2.495
 9144TIP3   OH227372   1.784   2.105   6.145
 9144TIP3    H127373   1.739   2.154   6.214
 9144TIP3    H227374   1.861   2.069   6.188
 9145TIP3   OH227375   1.232   2.476   5.598
 9145TIP3    H127376   1.185   2.478   5.515
 9145TIP3    H227377   1.164   2.467   5.665
 9146TIP3   OH227378   4.348   7.473   0.309
 9146TIP3    H127379   4.442   7.455   0.311
 9146TIP3    H227380   4.319   7.434   0.226
 9147TIP3   OH227381   0.503   4.247   2.384
 9147TIP3    H127382   0.444   4.259   2.310
 9147TIP3    H227383   0.591   4.250   2.346
 9148TIP3   OH227384   1.673   5.966   2.401
 9148TIP3    H127385   1.647   6.026   2.471
 9148TIP3    H227386   1.768   5.954   2.414
 9149TIP3   OH227387   1.718   7.409   2.920
 9149TIP3    H127388   1.642   7.440   2.969
 9149TIP3    H227389   1.734   7.321   2.953
 9150TIP3   OH227390   4.906   7.430   4.904
 9150TIP3    H127391   4.849   7.383   4.965
 9150TIP3    H227392   4.861   7.424   4.820
 9151TIP3   OH227393   0.630   2.460   2.543
 9151TIP3    H127394   0.591   2.506   2.468
 9151TIP3    H227395   0.566   2.393   2.566
 9152TIP3   OH227396   4.013   7.094   5.001
 9152TIP3    H127397   4.024   7.093   5.096
 9152TIP3    H227398   4.012   7.187   4.978
 9153TIP3   OH227399   0.163   1.872   3.155
 9153TIP3    H127400   0.191   1.808   3.220
 9153TIP3    H227401   0.091   1.920   3.198
 9154TIP3   OH227402   1.317   5.457   2.743
 9154TIP3    H127403   1.322   5.475   2.650
 9154TIP3    H227404   1.397   5.409   2.763
 9155TIP3   OH227405   1.353   6.709   6.828
 9155TIP3    H127406   1.426   6.706   6.890
 9155TIP3    H227407   1.336   6.618   6.806
 9156TIP3   OH227408   4.729   2.831   2.312
 9156TIP3    H127409   4.703   2.914   2.272
 9156TIP3    H227410   4.737   2.852   2.405
 9157TIP3   OH227411   0.633   1.996   1.169
 9157TIP3    H127412   0.562   1.958   1.220
 9157TIP3    H227413   0.709   1.941   1.188
 9158TIP3   OH227414   0.727   2.100   4.765
 9158TIP3    H127415   0.701   2.192   4.757
 9158TIP3    H227416   0.662   2.061   4.824
 9159TIP3   OH227417   3.431   4.437   5.577
 9159TIP3    H127418   3.522   4.425   5.549
 9159TIP3    H227419   3.437   4.491   5.656
 9160TIP3   OH227420   0.501   6.876   5.177
 9160TIP3    H127421   0.431   6.892   5.114
 9160TIP3    H227422   0.494   6.782   5.197
 9161TIP3   OH227423   1.050   2.189   2.413
 9161TIP3    H127424   1.027   2.224   2.327
 9161TIP3    H227425   0.985   2.120   2.429
 9162TIP3   OH227426   1.347   0.620   0.710
 9162TIP3    H127427   1.390   0.535   0.704
 9162TIP3    H227428   1.255   0.602   0.695
 9163TIP3   OH227429   4.058   4.241   3.927
 9163TIP3    H127430   4.023   4.245   3.838
 9163TIP3    H227431   4.035   4.326   3.965
 9164TIP3   OH227432   7.653   6.025   6.861
 9164TIP3    H127433   7.707   6.097   6.892
 9164TIP3    H227434   7.598   6.063   6.793
 9165TIP3   OH227435   0.190   4.626   5.965
 9165TIP3    H127436   0.279   4.638   5.932
 9165TIP3    H227437   0.133   4.658   5.895
 9166TIP3   OH227438   2.587   1.696   5.139
 9166TIP3    H127439   2.565   1.759   5.208
 9166TIP3    H227440   2.660   1.646   5.174
 9167TIP3   OH227441   3.120   0.115   3.274
 9167TIP3    H127442   3.102   0.079   3.187
 9167TIP3    H227443   3.211   0.092   3.291
 9168TIP3   OH227444   5.627   1.609   6.170
 9168TIP3    H127445   5.662   1.520   6.178
 9168TIP3    H227446   5.548   1.609   6.225
 9169TIP3   OH227447   4.167   0.777   5.622
 9169TIP3    H127448   4.140   0.685   5.621
 9169TIP3    H227449   4.190   0.794   5.714
 9170TIP3   OH227450   6.196   5.634   4.958
 9170TIP3    H127451   6.185   5.547   4.920
 9170TIP3    H227452   6.227   5.617   5.048
 9171TIP3   OH227453   4.749   2.929   5.701
 9171TIP3    H127454   4.801   2.851   5.723
 9171TIP3    H227455   4.789   2.963   5.622
 9172TIP3   OH227456   3.859   0.964   5.743
 9172TIP3    H127457   3.818   0.886   5.706
 9172TIP3    H227458   3.913   0.999   5.672
 9173TIP3   OH227459   1.540   0.987   1.823
 9173TIP3    H127460   1.579   0.922   1.764
 9173TIP3    H227461   1.573   1.071   1.791
 9174TIP3   OH227462   5.787   5.587   3.506
 9174TIP3    H127463   5.823   5.666   3.467
 9174TIP3    H227464   5.821   5.516   3.451
 9175TIP3   OH227465   0.382   5.920   2.397
 9175TIP3    H127466   0.312   5.956   2.342
 9175TIP3    H227467   0.338   5.897   2.479
 9176TIP3   OH227468   0.204   3.666   5.955
 9176TIP3    H127469   0.130   3.696   6.009
 9176TIP3    H227470   0.184   3.574   5.937
 9177TIP3   OH227471   1.721   1.713   6.179
 9177TIP3    H127472   1.713   1.769   6.255
 9177TIP3    H227473   1.696   1.626   6.210
 9178TIP3   OH227474   5.508   4.267   3.533
 9178TIP3    H127475   5.508   4.178   3.570
 9178TIP3    H227476   5.441   4.313   3.584
 9179TIP3   OH227477   6.005   3.579   6.581
 9179TIP3    H127478   6.009   3.492   6.620
 9179TIP3    H227479   5.931   3.575   6.520
 9180TIP3   OH227480   4.179   0.865   5.095
 9180TIP3    H127481   4.099   0.918   5.092
 9180TIP3    H227482   4.150   0.779   5.124
 9181TIP3   OH227483   6.429   4.621   4.227
 9181TIP3    H127484   6.363   4.691   4.232
 9181TIP3    H227485   6.377   4.540   4.225
 9182TIP3   OH227486   8.049   6.334   4.935
 9182TIP3    H127487   8.024   6.374   5.018
 9182TIP3    H227488   8.007   6.388   4.869
 9183TIP3   OH227489   7.512   1.285   6.035
 9183TIP3    H127490   7.531   1.350   6.102
 9183TIP3    H227491   7.431   1.315   5.995
 9184TIP3   OH227492   8.065   1.970   1.386
 9184TIP3    H127493   8.132   2.007   1.329
 9184TIP3    H227494   8.050   2.037   1.452
 9185TIP3   OH227495   1.330   7.421   3.476
 9185TIP3    H127496   1.407   7.473   3.452
 9185TIP3    H227497   1.282   7.476   3.537
 9186TIP3   OH227498   5.246   2.232   1.505
 9186TIP3    H127499   5.290   2.316   1.495
 9186TIP3    H227500   5.183   2.229   1.433
 9187TIP3   OH227501   1.177   1.286   0.144
 9187TIP3    H127502   1.146   1.375   0.157
 9187TIP3    H227503   1.101   1.239   0.109
 9188TIP3   OH227504   2.879   5.702   6.689
 9188TIP3    H127505   2.863   5.672   6.779
 9188TIP3    H227506   2.817   5.774   6.677
 9189TIP3   OH227507   5.100   6.662   2.137
 9189TIP3    H127508   5.189   6.631   2.121
 9189TIP3    H227509   5.080   6.717   2.062
 9190TIP3   OH227510   0.577   4.093   0.914
 9190TIP3    H127511   0.666   4.059   0.908
 9190TIP3    H227512   0.575   4.143   0.996
 9191TIP3   OH227513   7.215   2.977   4.442
 9191TIP3    H127514   7.170   2.957   4.360
 9191TIP3    H227515   7.296   2.925   4.438
 9192TIP3   OH227516   6.059   1.454   4.720
 9192TIP3    H127517   6.107   1.535   4.702
 9192TIP3    H227518   6.035   1.421   4.633
 9193TIP3   OH227519   6.965   0.305   1.301
 9193TIP3    H127520   7.008   0.346   1.227
 9193TIP3    H227521   6.880   0.276   1.267
 9194TIP3   OH227522   6.212   3.766   5.351
 9194TIP3    H127523   6.242   3.821   5.424
 9194TIP3    H227524   6.174   3.689   5.393
 9195TIP3   OH227525   6.414   2.529   5.396
 9195TIP3    H127526   6.496   2.534   5.347
 9195TIP3    H227527   6.440   2.515   5.487
 9196TIP3   OH227528   3.974   6.091   2.510
 9196TIP3    H127529   3.916   6.016   2.507
 9196TIP3    H227530   3.986   6.109   2.603
 9197TIP3   OH227531   4.858   5.880   3.357
 9197TIP3    H127532   4.816   5.794   3.365
 9197TIP3    H227533   4.946   5.861   3.326
 9198TIP3   OH227534   5.923   3.532   4.448
 9198TIP3    H127535   5.898   3.574   4.530
 9198TIP3    H227536   6.017   3.548   4.440
 9199TIP3   OH227537   3.661   0.612   3.371
 9199TIP3    H127538   3.750   0.593   3.342
 9199TIP3    H227539   3.658   0.707   3.380
 9200TIP3   OH227540   2.018   4.242   5.799
 9200TIP3    H127541   1.974   4.252   5.883
 9200TIP3    H227542   2.105   4.208   5.821
 9201TIP3   OH227543   7.931   5.964   3.268
 9201TIP3    H127544   7.878   5.927   3.198
 9201TIP3    H227545   7.894   6.050   3.284
 9202TIP3   OH227546   5.327   1.134   2.022
 9202TIP3    H127547   5.244   1.132   1.974
 9202TIP3    H227548   5.394   1.113   1.957
 9203TIP3   OH227549   4.819   2.415   1.083
 9203TIP3    H127550   4.906   2.375   1.084
 9203TIP3    H227551   4.826   2.486   1.018
 9204TIP3   OH227552   5.754   3.216   6.814
 9204TIP3    H127553   5.835   3.183   6.854
 9204TIP3    H227554   5.695   3.140   6.816
 9205TIP3   OH227555   1.608   1.695   0.761
 9205TIP3    H127556   1.586   1.638   0.835
 9205TIP3    H227557   1.643   1.774   0.803
 9206TIP3   OH227558   6.809   0.642   0.591
 9206TIP3    H127559   6.730   0.618   0.638
 9206TIP3    H227560   6.837   0.561   0.548
 9207TIP3   OH227561   7.709   5.622   0.491
 9207TIP3    H127562   7.614   5.621   0.489
 9207TIP3    H227563   7.735   5.600   0.401
 9208TIP3   OH227564   8.377   4.905   1.285
 9208TIP3    H127565   8.325   4.860   1.218
 9208TIP3    H227566   8.381   4.996   1.255
 9209TIP3   OH227567   0.491   4.563   2.420
 9209TIP3    H127568   0.580   4.553   2.454
 9209TIP3    H227569   0.451   4.477   2.432
 9210TIP3   OH227570   4.245   6.368   6.221
 9210TIP3    H127571   4.316   6.324   6.268
 9210TIP3    H227572   4.233   6.451   6.268
 9211TIP3   OH227573   8.026   4.968   3.278
 9211TIP3    H127574   7.941   4.948   3.318
 9211TIP3    H227575   8.004   5.002   3.191
 9212TIP3   OH227576   0.749   5.858   3.253
 9212TIP3    H127577   0.839   5.844   3.225
 9212TIP3    H227578   0.734   5.952   3.238
 9213TIP3   OH227579   1.775   7.517   2.645
 9213TIP3    H127580   1.739   7.501   2.732
 9213TIP3    H227581   1.716   7.471   2.585
 9214TIP3   OH227582   7.469   2.568   1.014
 9214TIP3    H127583   7.557   2.541   0.989
 9214TIP3    H227584   7.471   2.573   1.109
 9215TIP3   OH227585   0.472   6.556   6.138
 9215TIP3    H127586   0.412   6.621   6.175
 9215TIP3    H227587   0.492   6.498   6.212
 9216TIP3   OH227588   1.111   6.078   0.977
 9216TIP3    H127589   1.156   6.149   0.932
 9216TIP3    H227590   1.159   5.999   0.953
 9217TIP3   OH227591   6.506   3.601   2.100
 9217TIP3    H127592   6.581   3.563   2.054
 9217TIP3    H227593   6.543   3.639   2.179
 9218TIP3   OH227594   1.939   2.168   3.897
 9218TIP3    H127595   1.970   2.084   3.931
 9218TIP3    H227596   1.878   2.144   3.827
 9219TIP3   OH227597   3.457   1.557   4.547
 9219TIP3    H127598   3.443   1.559   4.453
 9219TIP3    H227599   3.541   1.601   4.559
 9220TIP3   OH227600   5.573   4.146   6.030
 9220TIP3    H127601   5.609   4.069   5.986
 9220TIP3    H227602   5.541   4.202   5.959
 9221TIP3   OH227603   3.445   1.480   6.060
 9221TIP3    H127604   3.492   1.523   5.988
 9221TIP3    H227605   3.420   1.552   6.118
 9222TIP3   OH227606   6.852   6.213   5.267
 9222TIP3    H127607   6.878   6.287   5.322
 9222TIP3    H227608   6.914   6.143   5.290
 9223TIP3   OH227609   4.604   1.754   6.719
 9223TIP3    H127610   4.649   1.793   6.794
 9223TIP3    H227611   4.610   1.820   6.651
 9224TIP3   OH227612   1.710   6.053   3.354
 9224TIP3    H127613   1.665   6.094   3.428
 9224TIP3    H227614   1.638   6.023   3.297
 9225TIP3   OH227615   2.477   5.265   3.006
 9225TIP3    H127616   2.496   5.206   2.934
 9225TIP3    H227617   2.561   5.277   3.050
 9226TIP3   OH227618   4.669   6.204   1.939
 9226TIP3    H127619   4.746   6.261   1.936
 9226TIP3    H227620   4.610   6.246   2.001
 9227TIP3   OH227621   2.203   7.211   2.325
 9227TIP3    H127622   2.253   7.236   2.248
 9227TIP3    H227623   2.185   7.118   2.313
 9228TIP3   OH227624   3.355   3.948   0.103
 9228TIP3    H127625   3.409   3.870   0.121
 9228TIP3    H227626   3.315   3.931   0.018
 9229TIP3   OH227627   8.111   1.108   0.582
 9229TIP3    H127628   8.045   1.171   0.553
 9229TIP3    H227629   8.109   1.115   0.678
 9230TIP3   OH227630   5.765   6.351   2.554
 9230TIP3    H127631   5.819   6.410   2.607
 9230TIP3    H227632   5.828   6.300   2.503
 9231TIP3   OH227633   8.324   3.683   5.086
 9231TIP3    H127634   8.232   3.703   5.102
 9231TIP3    H227635   8.339   3.707   4.995
 9232TIP3   OH227636   7.790   1.390   4.956
 9232TIP3    H127637   7.793   1.344   4.872
 9232TIP3    H227638   7.733   1.337   5.011
 9233TIP3   OH227639   2.019   5.035   2.718
 9233TIP3    H127640   1.962   5.108   2.741
 9233TIP3    H227641   2.055   5.005   2.802
 9234TIP3   OH227642   7.453   5.961   4.434
 9234TIP3    H127643   7.425   6.051   4.418
 9234TIP3    H227644   7.548   5.967   4.444
 9235TIP3   OH227645   3.274   3.932   5.709
 9235TIP3    H127646   3.248   4.003   5.650
 9235TIP3    H227647   3.230   3.855   5.673
 9236TIP3   OH227648   2.733   0.135   6.171
 9236TIP3    H127649   2.801   0.087   6.219
 9236TIP3    H227650   2.745   0.226   6.197
 9237TIP3   OH227651   1.344   4.661   1.726
 9237TIP3    H127652   1.256   4.680   1.695
 9237TIP3    H227653   1.339   4.672   1.821
 9238TIP3   OH227654   0.221   6.514   3.592
 9238TIP3    H127655   0.267   6.487   3.672
 9238TIP3    H227656   0.239   6.608   3.586
 9239TIP3   OH227657   8.088   7.269   2.194
 9239TIP3    H127658   8.076   7.243   2.286
 9239TIP3    H227659   8.003   7.255   2.154
 9240TIP3   OH227660   3.626   5.471   6.244
 9240TIP3    H127661   3.657   5.453   6.333
 9240TIP3    H227662   3.683   5.540   6.212
 9241TIP3   OH227663   5.847   5.655   2.311
 9241TIP3    H127664   5.820   5.567   2.284
 9241TIP3    H227665   5.856   5.649   2.406
 9242TIP3   OH227666   8.416   1.554   6.293
 9242TIP3    H127667   8.435   1.562   6.386
 9242TIP3    H227668   8.330   1.594   6.282
 9243TIP3   OH227669   0.628   4.653   5.219
 9243TIP3    H127670   0.692   4.589   5.247
 9243TIP3    H227671   0.673   4.737   5.224
 9244TIP3   OH227672   5.049   0.583   2.723
 9244TIP3    H127673   5.048   0.639   2.801
 9244TIP3    H227674   4.957   0.556   2.713
 9245TIP3   OH227675   6.641   5.090   5.003
 9245TIP3    H127676   6.715   5.042   4.966
 9245TIP3    H227677   6.611   5.035   5.076
 9246TIP3   OH227678   7.616   7.072   4.729
 9246TIP3    H127679   7.631   6.999   4.669
 9246TIP3    H227680   7.565   7.135   4.678
 9247TIP3   OH227681   2.107   1.200   4.547
 9247TIP3    H127682   2.123   1.131   4.482
 9247TIP3    H227683   2.094   1.279   4.496
 9248TIP3   OH227684   5.281   1.668   1.242
 9248TIP3    H127685   5.256   1.579   1.269
 9248TIP3    H227686   5.272   1.720   1.322
 9249TIP3   OH227687   1.255   6.731   2.508
 9249TIP3    H127688   1.241   6.760   2.418
 9249TIP3    H227689   1.308   6.801   2.547
 9250TIP3   OH227690   1.449   0.625   0.145
 9250TIP3    H127691   1.518   0.658   0.087
 9250TIP3    H227692   1.491   0.557   0.196
 9251TIP3   OH227693   2.139   6.438   6.498
 9251TIP3    H127694   2.071   6.484   6.448
 9251TIP3    H227695   2.107   6.348   6.507
 9252TIP3   OH227696   3.147   5.426   3.937
 9252TIP3    H127697   3.207   5.352   3.944
 9252TIP3    H227698   3.089   5.417   4.013
 9253TIP3   OH227699   1.291   5.541   5.025
 9253TIP3    H127700   1.305   5.495   5.108
 9253TIP3    H227701   1.373   5.586   5.009
 9254TIP3   OH227702   6.724   2.582   6.481
 9254TIP3    H127703   6.641   2.621   6.454
 9254TIP3    H227704   6.774   2.574   6.400
 9255TIP3   OH227705   0.983   1.620   4.543
 9255TIP3    H127706   0.902   1.569   4.530
 9255TIP3    H227707   1.019   1.587   4.625
 9256TIP3   OH227708   2.346   3.384   4.923
 9256TIP3    H127709   2.286   3.347   4.858
 9256TIP3    H227710   2.395   3.309   4.957
 9257TIP3   OH227711   4.892   3.703   0.324
 9257TIP3    H127712   4.880   3.639   0.395
 9257TIP3    H227713   4.906   3.649   0.246
 9258TIP3   OH227714   7.710   7.047   4.106
 9258TIP3    H127715   7.767   7.122   4.117
 9258TIP3    H227716   7.769   6.972   4.100
 9259TIP3   OH227717   6.853   7.533   3.388
 9259TIP3    H127718   6.759   7.526   3.405
 9259TIP3    H227719   6.894   7.485   3.460
 9260TIP3   OH227720   2.655   7.730   5.174
 9260TIP3    H127721   2.704   7.768   5.248
 9260TIP3    H227722   2.596   7.801   5.146
 9261TIP3   OH227723   6.158   6.688   4.432
 9261TIP3    H127724   6.244   6.646   4.436
 9261TIP3    H227725   6.131   6.695   4.524
 9262TIP3   OH227726   2.561   0.046   0.505
 9262TIP3    H127727   2.532   0.132   0.536
 9262TIP3    H227728   2.491  -0.014   0.531
 9263TIP3   OH227729   2.031   3.923   1.720
 9263TIP3    H127730   2.024   3.838   1.763
 9263TIP3    H227731   1.940   3.948   1.701
 9264TIP3   OH227732   6.113   4.213   4.434
 9264TIP3    H127733   6.129   4.294   4.483
 9264TIP3    H227734   6.198   4.168   4.437
 9265TIP3   OH227735   3.535   6.782   3.883
 9265TIP3    H127736   3.546   6.738   3.967
 9265TIP3    H227737   3.588   6.730   3.822
 9266TIP3   OH227738   8.251   1.706   3.101
 9266TIP3    H127739   8.157   1.702   3.085
 9266TIP3    H227740   8.285   1.760   3.030
 9267TIP3   OH227741   0.503   2.310   1.840
 9267TIP3    H127742   0.450   2.354   1.906
 9267TIP3    H227743   0.440   2.257   1.790
 9268TIP3   OH227744   4.907   0.645   5.932
 9268TIP3    H127745   4.895   0.704   5.857
 9268TIP3    H227746   4.832   0.586   5.928
 9269TIP3   OH227747   3.467   6.372   4.659
 9269TIP3    H127748   3.454   6.317   4.582
 9269TIP3    H227749   3.378   6.393   4.689
 9270TIP3   OH227750   3.172   7.501   0.831
 9270TIP3    H127751   3.244   7.478   0.772
 9270TIP3    H227752   3.178   7.436   0.901
 9271TIP3   OH227753   6.120   4.518   4.140
 9271TIP3    H127754   6.104   4.529   4.234
 9271TIP3    H227755   6.093   4.601   4.102
 9272TIP3   OH227756   3.029   7.667   3.421
 9272TIP3    H127757   3.088   7.621   3.361
 9272TIP3    H227758   3.087   7.706   3.486
 9273TIP3   OH227759   3.830   1.248   5.614
 9273TIP3    H127760   3.885   1.327   5.618
 9273TIP3    H227761   3.888   1.180   5.581
 9274TIP3   OH227762   7.819   4.925   1.702
 9274TIP3    H127763   7.741   4.914   1.647
 9274TIP3    H227764   7.892   4.920   1.641
 9275TIP3   OH227765   3.060   7.889   5.117
 9275TIP3    H127766   3.036   7.967   5.167
 9275TIP3    H227767   2.977   7.847   5.096
 9276TIP3   OH227768   1.339   3.436   2.520
 9276TIP3    H127769   1.323   3.412   2.611
 9276TIP3    H227770   1.258   3.414   2.475
 9277TIP3   OH227771   3.872   3.907   3.894
 9277TIP3    H127772   3.781   3.936   3.883
 9277TIP3    H227773   3.865   3.835   3.957
 9278TIP3   OH227774   0.699   0.652   2.692
 9278TIP3    H127775   0.628   0.611   2.742
 9278TIP3    H227776   0.769   0.665   2.757
 9279TIP3   OH227777   4.264   0.633   3.626
 9279TIP3    H127778   4.208   0.599   3.695
 9279TIP3    H227779   4.279   0.725   3.649
 9280TIP3   OH227780   5.048   0.611   3.479
 9280TIP3    H127781   5.049   0.697   3.436
 9280TIP3    H227782   5.062   0.630   3.572
 9281TIP3   OH227783   5.515   0.279   0.923
 9281TIP3    H127784   5.551   0.360   0.960
 9281TIP3    H227785   5.420   0.288   0.934
 9282TIP3   OH227786   3.327   1.618   0.662
 9282TIP3    H127787   3.337   1.704   0.703
 9282TIP3    H227788   3.274   1.635   0.584
 9283TIP3   OH227789   7.947   5.603   5.268
 9283TIP3    H127790   7.986   5.602   5.356
 9283TIP3    H227791   7.855   5.581   5.283
 9284TIP3   OH227792   1.838   6.421   2.341
 9284TIP3    H127793   1.803   6.434   2.429
 9284TIP3    H227794   1.813   6.332   2.317
 9285TIP3   OH227795   4.558   2.328   4.653
 9285TIP3    H127796   4.596   2.416   4.657
 9285TIP3    H227797   4.476   2.334   4.702
 9286TIP3   OH227798   2.715   6.993   5.942
 9286TIP3    H127799   2.804   7.026   5.929
 9286TIP3    H227800   2.658   7.065   5.914
 9287TIP3   OH227801   1.757   6.054   0.423
 9287TIP3    H127802   1.833   6.086   0.472
 9287TIP3    H227803   1.781   6.065   0.331
 9288TIP3   OH227804   6.311   1.931   2.366
 9288TIP3    H127805   6.346   1.863   2.308
 9288TIP3    H227806   6.384   1.952   2.425
 9289TIP3   OH227807   1.167   5.924   1.487
 9289TIP3    H127808   1.119   6.000   1.455
 9289TIP3    H227809   1.252   5.929   1.443
 9290TIP3   OH227810   1.029   7.489   1.226
 9290TIP3    H127811   0.982   7.570   1.243
 9290TIP3    H227812   1.094   7.512   1.160
 9291TIP3   OH227813   4.909   4.646   0.353
 9291TIP3    H127814   4.815   4.640   0.367
 9291TIP3    H227815   4.918   4.674   0.262
 9292TIP3   OH227816   4.926   0.366   3.519
 9292TIP3    H127817   4.949   0.453   3.485
 9292TIP3    H227818   4.905   0.315   3.441
 9293TIP3   OH227819   2.948   0.559   4.069
 9293TIP3    H127820   2.877   0.567   4.006
 9293TIP3    H227821   3.027   0.556   4.015
 9294TIP3   OH227822   0.297   0.684   3.049
 9294TIP3    H127823   0.221   0.627   3.035
 9294TIP3    H227824   0.264   0.772   3.031
 9295TIP3   OH227825   3.259   0.366   3.381
 9295TIP3    H127826   3.171   0.385   3.349
 9295TIP3    H227827   3.316   0.420   3.326
 9296TIP3   OH227828   4.827   6.540   1.885
 9296TIP3    H127829   4.890   6.610   1.871
 9296TIP3    H227830   4.755   6.582   1.933
 9297TIP3   OH227831   1.951   6.175   0.600
 9297TIP3    H127832   1.939   6.270   0.607
 9297TIP3    H227833   2.038   6.165   0.563
 9298TIP3   OH227834   6.411   7.486   2.915
 9298TIP3    H127835   6.356   7.487   2.992
 9298TIP3    H227836   6.471   7.559   2.927
 9299TIP3   OH227837   1.291   4.170   6.139
 9299TIP3    H127838   1.307   4.263   6.129
 9299TIP3    H227839   1.369   4.137   6.184
 9300TIP3   OH227840   2.231   0.052   1.884
 9300TIP3    H127841   2.197   0.119   1.943
 9300TIP3    H227842   2.196   0.075   1.798
 9301TIP3   OH227843   7.626   0.667   2.528
 9301TIP3    H127844   7.668   0.753   2.524
 9301TIP3    H227845   7.565   0.674   2.602
 9302TIP3   OH227846   7.391   4.109   1.126
 9302TIP3    H127847   7.380   4.057   1.047
 9302TIP3    H227848   7.319   4.172   1.124
 9303TIP3   OH227849   4.986   0.064   0.384
 9303TIP3    H127850   4.962  -0.029   0.392
 9303TIP3    H227851   4.915   0.103   0.333
 9304TIP3   OH227852   2.173   7.710   3.668
 9304TIP3    H127853   2.253   7.762   3.665
 9304TIP3    H227854   2.172   7.663   3.585
 9305TIP3   OH227855   5.660   1.309   6.158
 9305TIP3    H127856   5.576   1.265   6.145
 9305TIP3    H227857   5.682   1.291   6.250
 9306TIP3   OH227858   8.346   7.616   5.390
 9306TIP3    H127859   8.267   7.601   5.441
 9306TIP3    H227860   8.416   7.623   5.455
 9307TIP3   OH227861   1.272   7.276   1.542
 9307TIP3    H127862   1.224   7.359   1.551
 9307TIP3    H227863   1.226   7.229   1.473
 9308TIP3   OH227864   1.026   4.103   6.083
 9308TIP3    H127865   1.116   4.126   6.106
 9308TIP3    H227866   1.000   4.171   6.020
 9309TIP3   OH227867   8.220   2.991   2.306
 9309TIP3    H127868   8.270   2.911   2.321
 9309TIP3    H227869   8.241   3.047   2.380
 9310TIP3   OH227870   2.856   5.230   2.072
 9310TIP3    H127871   2.909   5.192   2.001
 9310TIP3    H227872   2.799   5.158   2.099
 9311TIP3   OH227873   6.282   3.295   4.079
 9311TIP3    H127874   6.309   3.227   4.017
 9311TIP3    H227875   6.306   3.259   4.165
 9312TIP3   OH227876   3.427   5.825   3.886
 9312TIP3    H127877   3.394   5.736   3.874
 9312TIP3    H227878   3.364   5.866   3.945
 9313TIP3   OH227879   7.528   7.175   5.725
 9313TIP3    H127880   7.611   7.136   5.754
 9313TIP3    H227881   7.464   7.105   5.735
 9314TIP3   OH227882   7.390   4.854   0.834
 9314TIP3    H127883   7.375   4.763   0.858
 9314TIP3    H227884   7.446   4.849   0.756
 9315TIP3   OH227885   2.838   1.318   0.396
 9315TIP3    H127886   2.864   1.401   0.437
 9315TIP3    H227887   2.908   1.257   0.417
 9316TIP3   OH227888   4.252   4.847   1.166
 9316TIP3    H127889   4.278   4.815   1.252
 9316TIP3    H227890   4.227   4.938   1.180
 9317TIP3   OH227891   0.530   7.835   3.330
 9317TIP3    H127892   0.523   7.837   3.234
 9317TIP3    H227893   0.589   7.907   3.351
 9318TIP3   OH227894   7.044   3.057   4.877
 9318TIP3    H127895   7.068   3.032   4.967
 9318TIP3    H227896   7.128   3.067   4.832
 9319TIP3   OH227897   1.672   7.237   4.046
 9319TIP3    H127898   1.719   7.154   4.036
 9319TIP3    H227899   1.631   7.230   4.132
 9320TIP3   OH227900   1.073   1.821   2.649
 9320TIP3    H127901   0.984   1.824   2.686
 9320TIP3    H227902   1.060   1.788   2.560
 9321TIP3   OH227903   6.733   2.168   4.545
 9321TIP3    H127904   6.731   2.150   4.451
 9321TIP3    H227905   6.718   2.262   4.553
 9322TIP3   OH227906   0.380   1.509   5.945
 9322TIP3    H127907   0.369   1.414   5.946
 9322TIP3    H227908   0.350   1.537   6.031
 9323TIP3   OH227909   1.847   5.352   0.279
 9323TIP3    H127910   1.828   5.357   0.373
 9323TIP3    H227911   1.844   5.442   0.249
 9324TIP3   OH227912   3.249   2.056   0.074
 9324TIP3    H127913   3.180   2.101   0.025
 9324TIP3    H227914   3.203   2.013   0.146
 9325TIP3   OH227915   4.879   4.640   1.131
 9325TIP3    H127916   4.853   4.702   1.199
 9325TIP3    H227917   4.821   4.565   1.143
 9326TIP3   OH227918   1.828   3.660   0.193
 9326TIP3    H127919   1.895   3.683   0.128
 9326TIP3    H227920   1.878   3.638   0.272
 9327TIP3   OH227921   5.056   7.860   5.050
 9327TIP3    H127922   5.043   7.799   5.123
 9327TIP3    H227923   5.132   7.912   5.075
 9328TIP3   OH227924   0.298   3.835   0.611
 9328TIP3    H127925   0.377   3.787   0.588
 9328TIP3    H227926   0.326   3.897   0.679
 9329TIP3   OH227927   7.555   7.080   2.190
 9329TIP3    H127928   7.492   7.046   2.253
 9329TIP3    H227929   7.542   7.175   2.192
 9330TIP3   OH227930   0.939   7.369   5.088
 9330TIP3    H127931   0.854   7.359   5.131
 9330TIP3    H227932   0.989   7.293   5.117
 9331TIP3   OH227933   1.446   3.313   0.407
 9331TIP3    H127934   1.442   3.358   0.491
 9331TIP3    H227935   1.433   3.381   0.341
 9332TIP3   OH227936   5.506   4.684   1.506
 9332TIP3    H127937   5.526   4.774   1.532
 9332TIP3    H227938   5.411   4.681   1.500
 9333TIP3   OH227939   3.831   1.686   3.140
 9333TIP3    H127940   3.748   1.646   3.168
 9333TIP3    H227941   3.831   1.677   3.045
 9334TIP3   OH227942   2.448   1.218   1.770
 9334TIP3    H127943   2.402   1.216   1.855
 9334TIP3    H227944   2.491   1.133   1.764
 9335TIP3   OH227945   8.030   4.511   1.715
 9335TIP3    H127946   8.006   4.602   1.731
 9335TIP3    H227947   8.094   4.490   1.783
 9336TIP3   OH227948   3.045   7.666   1.030
 9336TIP3    H127949   3.055   7.601   0.961
 9336TIP3    H227950   3.021   7.617   1.108
 9337TIP3   OH227951   5.400   5.373   6.181
 9337TIP3    H127952   5.377   5.359   6.273
 9337TIP3    H227953   5.392   5.287   6.140
 9338TIP3   OH227954   3.496   2.031   2.524
 9338TIP3    H127955   3.502   1.964   2.456
 9338TIP3    H227956   3.448   2.103   2.483
 9339TIP3   OH227957   3.660   2.797   6.116
 9339TIP3    H127958   3.622   2.880   6.145
 9339TIP3    H227959   3.748   2.820   6.087
 9340TIP3   OH227960   2.724   3.175   4.264
 9340TIP3    H127961   2.784   3.135   4.326
 9340TIP3    H227962   2.771   3.174   4.181
 9341TIP3   OH227963   7.149   3.370   4.754
 9341TIP3    H127964   7.144   3.309   4.680
 9341TIP3    H227965   7.071   3.352   4.806
 9342TIP3   OH227966   0.001   4.913   5.988
 9342TIP3    H127967   0.051   4.923   5.907
 9342TIP3    H227968   0.067   4.888   6.053
 9343TIP3   OH227969   3.417   5.958   3.152
 9343TIP3    H127970   3.373   5.922   3.076
 9343TIP3    H227971   3.437   5.882   3.207
 9344TIP3   OH227972   5.100   5.060   5.960
 9344TIP3    H127973   5.159   5.049   5.886
 9344TIP3    H227974   5.014   5.035   5.925
 9345TIP3   OH227975   6.914   3.957   5.667
 9345TIP3    H127976   6.842   3.986   5.611
 9345TIP3    H227977   6.915   3.862   5.657
 9346TIP3   OH227978   4.599   7.849   5.330
 9346TIP3    H127979   4.554   7.878   5.251
 9346TIP3    H227980   4.613   7.930   5.380
 9347TIP3   OH227981   0.018   0.777   2.413
 9347TIP3    H127982   0.004   0.689   2.378
 9347TIP3    H227983   0.016   0.766   2.508
 9348TIP3   OH227984   0.300   0.789   5.789
 9348TIP3    H127985   0.281   0.695   5.780
 9348TIP3    H227986   0.237   0.819   5.854
 9349TIP3   OH227987   3.115   3.834   2.462
 9349TIP3    H127988   3.198   3.791   2.439
 9349TIP3    H227989   3.054   3.807   2.393
 9350TIP3   OH227990   7.724   3.938   2.077
 9350TIP3    H127991   7.676   3.900   2.004
 9350TIP3    H227992   7.785   4.000   2.036
 9351TIP3   OH227993   6.078   1.359   6.618
 9351TIP3    H127994   6.149   1.318   6.668
 9351TIP3    H227995   6.015   1.387   6.684
 9352TIP3   OH227996   1.133   2.053   5.509
 9352TIP3    H127997   1.196   2.112   5.466
 9352TIP3    H227998   1.139   2.076   5.602
 9353TIP3   OH227999   0.303   6.921   4.087
 9353TIP3    H128000   0.252   6.855   4.039
 9353TIP3    H228001   0.393   6.891   4.080
 9354TIP3   OH228002   5.589   7.823   6.192
 9354TIP3    H128003   5.598   7.901   6.246
 9354TIP3    H228004   5.666   7.770   6.212
 9355TIP3   OH228005   2.726   2.595   0.347
 9355TIP3    H128006   2.643   2.550   0.335
 9355TIP3    H228007   2.773   2.541   0.411
 9356TIP3   OH228008   6.588   4.829   6.174
 9356TIP3    H128009   6.493   4.825   6.173
 9356TIP3    H228010   6.611   4.875   6.093
 9357TIP3   OH228011   3.366   6.981   4.950
 9357TIP3    H128012   3.445   7.034   4.944
 9357TIP3    H228013   3.345   6.979   5.043
 9358TIP3   OH228014   6.861   1.298   5.898
 9358TIP3    H128015   6.868   1.215   5.851
 9358TIP3    H228016   6.881   1.276   5.989
 9359TIP3   OH228017   4.106   7.745   4.763
 9359TIP3    H128018   4.084   7.710   4.677
 9359TIP3    H228019   4.201   7.742   4.767
 9360TIP3   OH228020   4.403   4.570   3.085
 9360TIP3    H128021   4.483   4.518   3.083
 9360TIP3    H228022   4.421   4.638   3.151
 9361TIP3   OH228023   5.960   2.897   6.795
 9361TIP3    H128024   6.051   2.871   6.780
 9361TIP3    H228025   5.909   2.823   6.763
 9362TIP3   OH228026   2.444   4.866   2.646
 9362TIP3    H128027   2.377   4.800   2.627
 9362TIP3    H228028   2.449   4.919   2.566
 9363TIP3   OH228029   6.671   0.500   6.296
 9363TIP3    H128030   6.584   0.489   6.333
 9363TIP3    H228031   6.658   0.558   6.220
 9364TIP3   OH228032   7.542   6.562   6.822
 9364TIP3    H128033   7.530   6.528   6.911
 9364TIP3    H228034   7.459   6.606   6.802
 9365TIP3   OH228035   6.745   0.110   4.475
 9365TIP3    H128036   6.770   0.198   4.502
 9365TIP3    H228037   6.684   0.124   4.402
 9366TIP3   OH228038   6.929   7.151   3.259
 9366TIP3    H128039   7.000   7.169   3.198
 9366TIP3    H228040   6.944   7.060   3.287
 9367TIP3   OH228041   5.919   4.780   0.844
 9367TIP3    H128042   5.843   4.746   0.891
 9367TIP3    H228043   5.901   4.873   0.831
 9368TIP3   OH228044   0.573   3.917   4.783
 9368TIP3    H128045   0.594   3.920   4.876
 9368TIP3    H228046   0.495   3.971   4.774
 9369TIP3   OH228047   0.344   2.670   2.877
 9369TIP3    H128048   0.253   2.642   2.883
 9369TIP3    H228049   0.339   2.764   2.856
 9370TIP3   OH228050   3.156   3.487   4.628
 9370TIP3    H128051   3.196   3.530   4.703
 9370TIP3    H228052   3.130   3.401   4.660
 9371TIP3   OH228053   6.752   5.744   5.786
 9371TIP3    H128054   6.677   5.744   5.726
 9371TIP3    H228055   6.726   5.802   5.857
 9372TIP3   OH228056   8.311   7.471   4.093
 9372TIP3    H128057   8.386   7.415   4.113
 9372TIP3    H228058   8.300   7.525   4.172
 9373TIP3   OH228059   0.100   2.473   3.768
 9373TIP3    H128060   0.073   2.528   3.841
 9373TIP3    H228061   0.133   2.393   3.809
 9374TIP3   OH228062   5.262   4.135   1.027
 9374TIP3    H128063   5.243   4.208   1.085
 9374TIP3    H228064   5.177   4.105   0.996
 9375TIP3   OH228065   5.444   4.046   2.196
 9375TIP3    H128066   5.513   4.042   2.130
 9375TIP3    H228067   5.392   4.123   2.172
 9376TIP3   OH228068   1.813   0.282   5.065
 9376TIP3    H128069   1.828   0.369   5.104
 9376TIP3    H228070   1.888   0.230   5.093
 9377TIP3   OH228071   3.387   5.543   5.429
 9377TIP3    H128072   3.374   5.532   5.335
 9377TIP3    H228073   3.391   5.453   5.463
 9378TIP3   OH228074   3.228   6.225   5.770
 9378TIP3    H128075   3.227   6.321   5.762
 9378TIP3    H228076   3.136   6.200   5.758
 9379TIP3   OH228077   1.947   3.590   6.555
 9379TIP3    H128078   1.876   3.591   6.491
 9379TIP3    H228079   1.943   3.677   6.596
 9380TIP3   OH228080   7.689   1.988   2.286
 9380TIP3    H128081   7.631   1.988   2.210
 9380TIP3    H228082   7.735   1.904   2.281
 9381TIP3   OH228083   1.434   2.239   6.146
 9381TIP3    H128084   1.517   2.199   6.169
 9381TIP3    H228085   1.430   2.318   6.200
 9382TIP3   OH228086   3.621   7.921   2.931
 9382TIP3    H128087   3.616   7.828   2.956
 9382TIP3    H228088   3.714   7.938   2.920
 9383TIP3   OH228089   7.768   1.000   3.484
 9383TIP3    H128090   7.818   1.078   3.509
 9383TIP3    H228091   7.700   0.993   3.552
 9384TIP3   OH228092   7.333   6.103   5.223
 9384TIP3    H128093   7.371   6.145   5.145
 9384TIP3    H228094   7.332   6.172   5.289
 9385TIP3   OH228095   1.706   5.128   4.605
 9385TIP3    H128096   1.691   5.174   4.523
 9385TIP3    H228097   1.620   5.094   4.630
 9386TIP3   OH228098   6.552   3.384   2.605
 9386TIP3    H128099   6.494   3.391   2.528
 9386TIP3    H228100   6.602   3.465   2.604
 9387TIP3   OH228101   4.635   0.878   4.949
 9387TIP3    H128102   4.562   0.861   5.008
 9387TIP3    H228103   4.646   0.795   4.902
 9388TIP3   OH228104   1.241   5.680   3.403
 9388TIP3    H128105   1.203   5.677   3.315
 9388TIP3    H228106   1.196   5.611   3.451
 9389TIP3   OH228107   2.847   0.528   2.679
 9389TIP3    H128108   2.759   0.536   2.642
 9389TIP3    H228109   2.848   0.440   2.717
 9390TIP3   OH228110   5.985   7.873   0.224
 9390TIP3    H128111   6.025   7.931   0.289
 9390TIP3    H228112   6.058   7.840   0.172
 9391TIP3   OH228113   8.141   2.632   1.508
 9391TIP3    H128114   8.075   2.600   1.447
 9391TIP3    H228115   8.128   2.726   1.512
 9392TIP3   OH228116   2.681   0.763   3.158
 9392TIP3    H128117   2.697   0.727   3.071
 9392TIP3    H228118   2.643   0.690   3.208
 9393TIP3   OH228119   3.310   6.745   6.285
 9393TIP3    H128120   3.383   6.777   6.338
 9393TIP3    H228121   3.297   6.654   6.314
 9394TIP3   OH228122   6.106   5.318   5.807
 9394TIP3    H128123   6.062   5.355   5.731
 9394TIP3    H228124   6.167   5.387   5.835
 9395TIP3   OH228125   3.674   6.115   6.586
 9395TIP3    H128126   3.763   6.152   6.590
 9395TIP3    H228127   3.688   6.021   6.573
 9396TIP3   OH228128   1.515   5.187   4.845
 9396TIP3    H128129   1.495   5.094   4.859
 9396TIP3    H228130   1.603   5.198   4.880
 9397TIP3   OH228131   6.580   6.515   5.219
 9397TIP3    H128132   6.506   6.566   5.186
 9397TIP3    H228133   6.647   6.580   5.240
 9398TIP3   OH228134   3.509   0.992   6.623
 9398TIP3    H128135   3.547   0.911   6.659
 9398TIP3    H228136   3.511   0.979   6.528
 9399TIP3   OH228137   0.318   0.634   6.451
 9399TIP3    H128138   0.253   0.691   6.492
 9399TIP3    H228139   0.397   0.689   6.445
 9400TIP3   OH228140   2.432   0.483   3.056
 9400TIP3    H128141   2.362   0.445   3.109
 9400TIP3    H228142   2.394   0.492   2.969
 9401TIP3   OH228143   4.718   5.862   6.159
 9401TIP3    H128144   4.792   5.921   6.155
 9401TIP3    H228145   4.736   5.804   6.233
 9402TIP3   OH228146   5.719   7.018   4.103
 9402TIP3    H128147   5.654   6.948   4.101
 9402TIP3    H228148   5.669   7.097   4.118
 9403TIP3   OH228149   2.360   3.771   1.575
 9403TIP3    H128150   2.290   3.798   1.516
 9403TIP3    H228151   2.345   3.820   1.656
 9404TIP3   OH228152   1.386   3.094   1.981
 9404TIP3    H128153   1.425   3.122   1.899
 9404TIP3    H228154   1.453   3.111   2.047
 9405TIP3   OH228155   1.011   4.320   4.834
 9405TIP3    H128156   0.938   4.264   4.860
 9405TIP3    H228157   0.970   4.402   4.807
 9406TIP3   OH228158   0.651   6.006   1.586
 9406TIP3    H128159   0.656   6.027   1.680
 9406TIP3    H228160   0.690   5.919   1.579
 9407TIP3   OH228161   6.666   6.965   5.483
 9407TIP3    H128162   6.694   7.029   5.417
 9407TIP3    H228163   6.624   6.896   5.432
 9408TIP3   OH228164   6.058   5.302   3.740
 9408TIP3    H128165   6.001   5.323   3.815
 9408TIP3    H228166   6.088   5.212   3.758
 9409TIP3   OH228167   6.944   1.346   3.272
 9409TIP3    H128168   6.868   1.396   3.241
 9409TIP3    H228169   6.996   1.331   3.193
 9410TIP3   OH228170   3.880   7.213   1.697
 9410TIP3    H128171   3.922   7.149   1.755
 9410TIP3    H228172   3.923   7.296   1.718
 9411TIP3   OH228173   4.547   7.305   5.270
 9411TIP3    H128174   4.498   7.223   5.272
 9411TIP3    H228175   4.628   7.286   5.317
 9412TIP3   OH228176   3.481   0.262   6.732
 9412TIP3    H128177   3.403   0.314   6.752
 9412TIP3    H228178   3.462   0.223   6.647
 9413TIP3   OH228179   8.121   0.768   4.658
 9413TIP3    H128180   8.112   0.681   4.697
 9413TIP3    H228181   8.062   0.824   4.710
 9414TIP3   OH228182   5.854   7.231   4.389
 9414TIP3    H128183   5.771   7.277   4.396
 9414TIP3    H228184   5.832   7.139   4.404
 9415TIP3   OH228185   1.100   2.255   0.880
 9415TIP3    H128186   1.133   2.185   0.937
 9415TIP3    H228187   1.163   2.258   0.808
 9416TIP3   OH228188   6.340   4.700   0.506
 9416TIP3    H128189   6.375   4.614   0.530
 9416TIP3    H228190   6.281   4.722   0.578
 9417TIP3   OH228191   0.857   4.028   0.932
 9417TIP3    H128192   0.880   3.963   0.999
 9417TIP3    H228193   0.911   4.105   0.954
 9418TIP3   OH228194   0.868   1.992   2.476
 9418TIP3    H128195   0.901   1.929   2.411
 9418TIP3    H228196   0.780   1.961   2.496
 9419TIP3   OH228197   6.360   4.107   4.464
 9419TIP3    H128198   6.440   4.124   4.415
 9419TIP3    H228199   6.371   4.153   4.547
 9420TIP3   OH228200   1.146   1.027   6.331
 9420TIP3    H128201   1.121   1.119   6.339
 9420TIP3    H228202   1.113   1.001   6.244
 9421TIP3   OH228203   5.598   7.184   0.712
 9421TIP3    H128204   5.660   7.145   0.774
 9421TIP3    H228205   5.525   7.214   0.766
 9422TIP3   OH228206   1.352   6.983   6.125
 9422TIP3    H128207   1.365   7.075   6.100
 9422TIP3    H228208   1.268   6.959   6.085
 9423TIP3   OH228209   7.749   5.783   5.584
 9423TIP3    H128210   7.687   5.814   5.649
 9423TIP3    H228211   7.766   5.692   5.608
 9424TIP3   OH228212   6.561   4.750   2.923
 9424TIP3    H128213   6.489   4.717   2.870
 9424TIP3    H228214   6.630   4.772   2.861
 9425TIP3   OH228215   0.036   0.162   6.667
 9425TIP3    H128216  -0.021   0.239   6.662
 9425TIP3    H228217   0.073   0.164   6.755
 9426TIP3   OH228218   0.157   7.338   4.111
 9426TIP3    H128219   0.214   7.324   4.036
 9426TIP3    H228220   0.217   7.353   4.184
 9427TIP3   OH228221   7.967   3.907   4.967
 9427TIP3    H128222   7.996   3.895   4.876
 9427TIP3    H228223   8.012   3.838   5.016
 9428TIP3   OH228224   0.980   4.267   5.868
 9428TIP3    H128225   0.966   4.185   5.820
 9428TIP3    H228226   0.892   4.303   5.880
 9429TIP3   OH228227   6.733   0.316   2.081
 9429TIP3    H128228   6.646   0.284   2.058
 9429TIP3    H228229   6.717   0.389   2.141
 9430TIP3   OH228230   0.112   6.347   5.446
 9430TIP3    H128231   0.095   6.324   5.355
 9430TIP3    H228232   0.197   6.390   5.445
 9431TIP3   OH228233   5.970   7.311   3.037
 9431TIP3    H128234   5.931   7.355   2.962
 9431TIP3    H228235   5.998   7.226   3.003
 9432TIP3   OH228236   4.216   1.872   6.561
 9432TIP3    H128237   4.230   1.778   6.571
 9432TIP3    H228238   4.183   1.882   6.472
 9433TIP3   OH228239   3.217   6.088   6.040
 9433TIP3    H128240   3.267   6.085   5.958
 9433TIP3    H228241   3.143   6.030   6.026
 9434TIP3   OH228242   6.492   5.168   3.832
 9434TIP3    H128243   6.543   5.230   3.779
 9434TIP3    H228244   6.474   5.215   3.913
 9435TIP3   OH228245   1.844   1.152   5.207
 9435TIP3    H128246   1.915   1.208   5.176
 9435TIP3    H228247   1.814   1.106   5.129
 9436TIP3   OH228248   8.186   2.612   3.252
 9436TIP3    H128249   8.234   2.541   3.294
 9436TIP3    H228250   8.253   2.676   3.228
 9437TIP3   OH228251   5.196   3.579   1.113
 9437TIP3    H128252   5.147   3.502   1.145
 9437TIP3    H228253   5.161   3.595   1.025
 9438TIP3   OH228254   4.367   3.291   6.281
 9438TIP3    H128255   4.382   3.202   6.313
 9438TIP3    H228256   4.430   3.345   6.329
 9439TIP3   OH228257   7.849   0.244   2.005
 9439TIP3    H128258   7.773   0.289   2.043
 9439TIP3    H228259   7.924   0.291   2.041
 9440TIP3   OH228260   1.187   4.974   5.927
 9440TIP3    H128261   1.235   4.943   5.850
 9440TIP3    H228262   1.219   4.919   5.998
 9441TIP3   OH228263   8.373   6.578   3.801
 9441TIP3    H128264   8.400   6.486   3.806
 9441TIP3    H228265   8.291   6.581   3.850
 9442TIP3   OH228266   0.910   5.360   3.361
 9442TIP3    H128267   0.906   5.278   3.313
 9442TIP3    H228268   0.913   5.334   3.453
 9443TIP3   OH228269   5.636   0.841   5.071
 9443TIP3    H128270   5.610   0.790   5.148
 9443TIP3    H228271   5.724   0.872   5.092
 9444TIP3   OH228272   7.242   1.206   2.447
 9444TIP3    H128273   7.292   1.175   2.371
 9444TIP3    H228274   7.204   1.289   2.419
 9445TIP3   OH228275   7.321   0.388   2.633
 9445TIP3    H128276   7.382   0.406   2.562
 9445TIP3    H228277   7.375   0.389   2.712
 9446TIP3   OH228278   7.314   0.179   2.236
 9446TIP3    H128279   7.248   0.187   2.305
 9446TIP3    H228280   7.332   0.269   2.210
 9447TIP3   OH228281   2.854   3.806   0.150
 9447TIP3    H128282   2.918   3.746   0.189
 9447TIP3    H228283   2.906   3.880   0.119
 9448TIP3   OH228284   3.936   5.288   3.349
 9448TIP3    H128285   3.995   5.219   3.318
 9448TIP3    H228286   3.918   5.266   3.440
 9449TIP3   OH228287   4.569   6.514   6.304
 9449TIP3    H128288   4.570   6.511   6.208
 9449TIP3    H228289   4.488   6.559   6.326
 9450TIP3   OH228290   1.461   2.247   3.077
 9450TIP3    H128291   1.370   2.228   3.101
 9450TIP3    H228292   1.463   2.342   3.066
 9451TIP3   OH228293   1.644   5.119   2.962
 9451TIP3    H128294   1.658   5.027   2.984
 9451TIP3    H228295   1.626   5.161   3.047
 9452TIP3   OH228296   0.269   1.539   3.844
 9452TIP3    H128297   0.232   1.614   3.890
 9452TIP3    H228298   0.364   1.554   3.846
 9453TIP3   OH228299   2.768   7.058   0.936
 9453TIP3    H128300   2.789   7.147   0.963
 9453TIP3    H228301   2.781   7.058   0.841
 9454TIP3   OH228302   2.530   7.166   4.971
 9454TIP3    H128303   2.595   7.145   4.904
 9454TIP3    H228304   2.486   7.244   4.938
 9455TIP3   OH228305   6.320   1.032   0.213
 9455TIP3    H128306   6.324   0.975   0.290
 9455TIP3    H228307   6.409   1.028   0.177
 9456TIP3   OH228308   2.098   1.635   4.775
 9456TIP3    H128309   2.140   1.616   4.691
 9456TIP3    H228310   2.060   1.552   4.802
 9457TIP3   OH228311   7.515   2.998   6.839
 9457TIP3    H128312   7.451   3.027   6.903
 9457TIP3    H228313   7.486   3.037   6.756
 9458TIP3   OH228314   6.802   3.123   0.230
 9458TIP3    H128315   6.893   3.123   0.259
 9458TIP3    H228316   6.758   3.060   0.288
 9459TIP3   OH228317   7.724   2.266   5.215
 9459TIP3    H128318   7.670   2.222   5.149
 9459TIP3    H228319   7.748   2.349   5.175
 9460TIP3   OH228320   0.416   3.747   3.964
 9460TIP3    H128321   0.366   3.708   3.893
 9460TIP3    H228322   0.371   3.719   4.044
 9461TIP3   OH228323   1.544   6.351   5.170
 9461TIP3    H128324   1.549   6.360   5.265
 9461TIP3    H228325   1.546   6.256   5.155
 9462TIP3   OH228326   1.809   6.819   2.025
 9462TIP3    H128327   1.853   6.894   1.984
 9462TIP3    H228328   1.880   6.770   2.067
 9463TIP3   OH228329   8.197   0.305   5.382
 9463TIP3    H128330   8.220   0.222   5.424
 9463TIP3    H228331   8.167   0.361   5.454
 9464TIP3   OH228332   4.379   0.671   1.685
 9464TIP3    H128333   4.394   0.734   1.756
 9464TIP3    H228334   4.466   0.656   1.647
 9465TIP3   OH228335   3.865   6.659   0.128
 9465TIP3    H128336   3.919   6.582   0.108
 9465TIP3    H228337   3.911   6.702   0.200
 9466TIP3   OH228338   2.412   1.590   0.662
 9466TIP3    H128339   2.419   1.651   0.736
 9466TIP3    H228340   2.323   1.554   0.670
 9467TIP3   OH228341   7.359   6.782   6.382
 9467TIP3    H128342   7.275   6.738   6.388
 9467TIP3    H228343   7.354   6.834   6.301
 9468TIP3   OH228344   2.603   6.348   1.070
 9468TIP3    H128345   2.672   6.382   1.013
 9468TIP3    H228346   2.639   6.356   1.159
 9469TIP3   OH228347   1.941   7.521   3.044
 9469TIP3    H128348   1.898   7.463   2.982
 9469TIP3    H228349   1.887   7.601   3.043
 9470TIP3   OH228350   5.194   5.241   0.181
 9470TIP3    H128351   5.276   5.289   0.171
 9470TIP3    H228352   5.129   5.295   0.135
 9471TIP3   OH228353   8.134   0.084   6.766
 9471TIP3    H128354   8.164   0.166   6.807
 9471TIP3    H228355   8.041   0.081   6.785
 9472TIP3   OH228356   2.631   1.111   1.210
 9472TIP3    H128357   2.597   1.078   1.126
 9472TIP3    H228358   2.564   1.086   1.274
 9473TIP3   OH228359   6.190   6.391   3.505
 9473TIP3    H128360   6.150   6.343   3.578
 9473TIP3    H228361   6.118   6.443   3.469
 9474TIP3   OH228362   5.460   2.464   2.095
 9474TIP3    H128363   5.511   2.415   2.160
 9474TIP3    H228364   5.479   2.419   2.012
 9475TIP3   OH228365   3.471   2.504   1.222
 9475TIP3    H128366   3.385   2.465   1.211
 9475TIP3    H228367   3.529   2.429   1.241
 9476TIP3   OH228368   6.896   2.311   1.471
 9476TIP3    H128369   6.957   2.384   1.470
 9476TIP3    H228370   6.888   2.288   1.564
 9477TIP3   OH228371   0.882   0.273   4.694
 9477TIP3    H128372   0.946   0.202   4.691
 9477TIP3    H228373   0.797   0.230   4.684
 9478TIP3   OH228374   2.663   3.608   0.127
 9478TIP3    H128375   2.721   3.684   0.139
 9478TIP3    H228376   2.575   3.646   0.124
 9479TIP3   OH228377   2.407   5.868   2.314
 9479TIP3    H128378   2.361   5.925   2.252
 9479TIP3    H228379   2.496   5.863   2.280
 9480TIP3   OH228380   5.039   3.365   1.165
 9480TIP3    H128381   4.989   3.361   1.247
 9480TIP3    H228382   5.007   3.290   1.114
 9481TIP3   OH228383   0.891   5.642   1.245
 9481TIP3    H128384   0.977   5.674   1.274
 9481TIP3    H228385   0.836   5.720   1.243
 9482TIP3   OH228386   1.505   2.500   2.483
 9482TIP3    H128387   1.579   2.512   2.423
 9482TIP3    H228388   1.538   2.528   2.569
 9483TIP3   OH228389   0.068   5.235   3.520
 9483TIP3    H128390   0.105   5.152   3.490
 9483TIP3    H228391  -0.026   5.217   3.527
 9484TIP3   OH228392   4.206   5.036   0.229
 9484TIP3    H128393   4.247   4.989   0.157
 9484TIP3    H228394   4.148   5.100   0.187
 9485TIP3   OH228395   2.922   0.212   3.858
 9485TIP3    H128396   2.844   0.263   3.836
 9485TIP3    H228397   2.990   0.247   3.801
 9486TIP3   OH228398   5.196   3.195   5.489
 9486TIP3    H128399   5.283   3.220   5.520
 9486TIP3    H228400   5.170   3.122   5.546
 9487TIP3   OH228401   4.133   3.103   2.387
 9487TIP3    H128402   4.220   3.136   2.366
 9487TIP3    H228403   4.149   3.015   2.421
 9488TIP3   OH228404   4.324   0.236   4.866
 9488TIP3    H128405   4.391   0.302   4.885
 9488TIP3    H228406   4.317   0.184   4.946
 9489TIP3   OH228407   2.768   7.620   3.507
 9489TIP3    H128408   2.855   7.616   3.467
 9489TIP3    H228409   2.749   7.714   3.513
 9490TIP3   OH228410   7.233   2.308   5.882
 9490TIP3    H128411   7.230   2.247   5.956
 9490TIP3    H228412   7.201   2.257   5.808
 9491TIP3   OH228413   3.185   6.226   2.087
 9491TIP3    H128414   3.229   6.149   2.122
 9491TIP3    H228415   3.239   6.253   2.012
 9492TIP3   OH228416   5.629   7.538   2.391
 9492TIP3    H128417   5.642   7.601   2.321
 9492TIP3    H228418   5.605   7.457   2.346
 9493TIP3   OH228419   0.765   0.556   0.088
 9493TIP3    H128420   0.800   0.622   0.148
 9493TIP3    H228421   0.671   0.558   0.102
 9494TIP3   OH228422   5.268   6.738   4.331
 9494TIP3    H128423   5.238   6.825   4.306
 9494TIP3    H228424   5.353   6.752   4.372
 9495TIP3   OH228425   4.175   6.674   6.707
 9495TIP3    H128426   4.255   6.676   6.654
 9495TIP3    H228427   4.138   6.587   6.691
 9496TIP3   OH228428   3.686   1.429   5.375
 9496TIP3    H128429   3.676   1.383   5.292
 9496TIP3    H228430   3.775   1.463   5.373
 9497TIP3   OH228431   5.348   7.115   3.829
 9497TIP3    H128432   5.299   7.053   3.883
 9497TIP3    H228433   5.423   7.065   3.797
 9498TIP3   OH228434   0.728   1.751   0.100
 9498TIP3    H128435   0.717   1.658   0.119
 9498TIP3    H228436   0.656   1.773   0.041
 9499TIP3   OH228437   3.955   2.739   0.799
 9499TIP3    H128438   4.041   2.782   0.798
 9499TIP3    H228439   3.950   2.694   0.715
 9500TIP3   OH228440   3.937   1.423   5.147
 9500TIP3    H128441   4.002   1.485   5.112
 9500TIP3    H228442   3.953   1.423   5.241
 9501TIP3   OH228443   1.726   4.238   1.826
 9501TIP3    H128444   1.794   4.271   1.767
 9501TIP3    H228445   1.644   4.265   1.785
 9502TIP3   OH228446   5.728   5.716   6.357
 9502TIP3    H128447   5.800   5.653   6.360
 9502TIP3    H228448   5.666   5.679   6.294
 9503TIP3   OH228449   2.515   2.274   3.497
 9503TIP3    H128450   2.573   2.322   3.438
 9503TIP3    H228451   2.472   2.210   3.440
 9504TIP3   OH228452   2.663   2.173   4.897
 9504TIP3    H128453   2.618   2.096   4.864
 9504TIP3    H228454   2.750   2.141   4.923
 9505TIP3   OH228455   0.306   1.603   5.655
 9505TIP3    H128456   0.268   1.525   5.695
 9505TIP3    H228457   0.352   1.647   5.726
 9506TIP3   OH228458   5.358   2.728   0.066
 9506TIP3    H128459   5.444   2.769   0.060
 9506TIP3    H228460   5.375   2.645   0.111
 9507TIP3   OH228461   2.342   4.706   4.513
 9507TIP3    H128462   2.252   4.734   4.530
 9507TIP3    H228463   2.347   4.698   4.418
 9508TIP3   OH228464   6.638   0.254   0.804
 9508TIP3    H128465   6.650   0.159   0.806
 9508TIP3    H228466   6.546   0.267   0.826
 9509TIP3   OH228467   7.876   0.415   3.566
 9509TIP3    H128468   7.923   0.475   3.508
 9509TIP3    H228469   7.859   0.466   3.645
 9510TIP3   OH228470   2.899   2.342   3.811
 9510TIP3    H128471   2.837   2.285   3.765
 9510TIP3    H228472   2.881   2.325   3.904
 9511TIP3   OH228473   0.772   5.182   1.810
 9511TIP3    H128474   0.731   5.119   1.750
 9511TIP3    H228475   0.778   5.263   1.759
 9512TIP3   OH228476   5.290   3.114   1.285
 9512TIP3    H128477   5.293   3.172   1.360
 9512TIP3    H228478   5.265   3.170   1.212
 9513TIP3   OH228479   1.874   2.559   5.647
 9513TIP3    H128480   1.796   2.518   5.685
 9513TIP3    H228481   1.944   2.540   5.710
 9514TIP3   OH228482   5.130   5.762   2.863
 9514TIP3    H128483   5.086   5.827   2.809
 9514TIP3    H228484   5.108   5.678   2.821
 9515TIP3   OH228485   7.938   5.189   6.590
 9515TIP3    H128486   8.008   5.209   6.653
 9515TIP3    H228487   7.983   5.177   6.507
 9516TIP3   OH228488   7.663   4.913   3.947
 9516TIP3    H128489   7.759   4.914   3.947
 9516TIP3    H228490   7.641   4.825   3.918
 9517TIP3   OH228491   4.434   4.283   2.867
 9517TIP3    H128492   4.432   4.337   2.788
 9517TIP3    H228493   4.348   4.241   2.869
 9518TIP3   OH228494   7.859   1.013   6.543
 9518TIP3    H128495   7.823   1.067   6.613
 9518TIP3    H228496   7.846   1.065   6.464
 9519TIP3   OH228497   4.000   3.805   6.267
 9519TIP3    H128498   4.014   3.805   6.172
 9519TIP3    H228499   3.955   3.723   6.285
 9520TIP3   OH228500   2.897   3.923   1.029
 9520TIP3    H128501   2.818   3.944   0.980
 9520TIP3    H228502   2.957   3.887   0.964
 9521TIP3   OH228503   5.916   5.119   4.800
 9521TIP3    H128504   5.904   5.034   4.758
 9521TIP3    H228505   5.850   5.175   4.759
 9522TIP3   OH228506   5.314   2.493   4.313
 9522TIP3    H128507   5.271   2.543   4.244
 9522TIP3    H228508   5.407   2.495   4.290
 9523TIP3   OH228509   2.150   2.571   0.459
 9523TIP3    H128510   2.155   2.665   0.476
 9523TIP3    H228511   2.057   2.550   0.464
 9524TIP3   OH228512   4.131   7.103   1.833
 9524TIP3    H128513   4.092   7.141   1.912
 9524TIP3    H228514   4.158   7.178   1.781
 9525TIP3   OH228515   1.467   6.748   3.785
 9525TIP3    H128516   1.425   6.809   3.845
 9525TIP3    H228517   1.561   6.759   3.802
 9526TIP3   OH228518   2.232   5.636   1.808
 9526TIP3    H128519   2.299   5.622   1.875
 9526TIP3    H228520   2.153   5.659   1.857
 9527TIP3   OH228521   4.370   3.062   0.615
 9527TIP3    H128522   4.459   3.061   0.579
 9527TIP3    H228523   4.378   3.110   0.697
 9528TIP3   OH228524   3.890   1.542   2.194
 9528TIP3    H128525   3.868   1.616   2.251
 9528TIP3    H228526   3.916   1.472   2.254
 9529TIP3   OH228527   6.596   5.723   4.260
 9529TIP3    H128528   6.634   5.802   4.222
 9529TIP3    H228529   6.550   5.681   4.188
 9530TIP3   OH228530   7.359   4.639   3.526
 9530TIP3    H128531   7.392   4.627   3.437
 9530TIP3    H228532   7.373   4.732   3.545
 9531TIP3   OH228533   6.034   0.252   4.268
 9531TIP3    H128534   5.965   0.191   4.239
 9531TIP3    H228535   6.107   0.195   4.293
 9532TIP3   OH228536   2.436   1.386   6.094
 9532TIP3    H128537   2.380   1.416   6.023
 9532TIP3    H228538   2.380   1.386   6.171
 9533TIP3   OH228539   7.247   6.178   6.697
 9533TIP3    H128540   7.162   6.144   6.728
 9533TIP3    H228541   7.308   6.106   6.713
 9534TIP3   OH228542   8.190   7.606   5.600
 9534TIP3    H128543   8.138   7.568   5.670
 9534TIP3    H228544   8.280   7.577   5.618
 9535TIP3   OH228545   7.921   0.382   2.253
 9535TIP3    H128546   7.912   0.452   2.318
 9535TIP3    H228547   7.876   0.307   2.292
 9536TIP3   OH228548   0.664   7.346   6.780
 9536TIP3    H128549   0.605   7.285   6.824
 9536TIP3    H228550   0.752   7.318   6.807
 9537TIP3   OH228551   6.412   2.519   1.913
 9537TIP3    H128552   6.386   2.465   1.987
 9537TIP3    H228553   6.470   2.463   1.862
 9538TIP3   OH228554   3.898   3.922   2.536
 9538TIP3    H128555   3.822   3.930   2.594
 9538TIP3    H228556   3.862   3.943   2.449
 9539TIP3   OH228557   4.424   5.687   4.177
 9539TIP3    H128558   4.482   5.699   4.103
 9539TIP3    H228559   4.439   5.596   4.205
 9540TIP3   OH228560   3.628   0.455   2.986
 9540TIP3    H128561   3.572   0.423   2.915
 9540TIP3    H228562   3.681   0.379   3.011
 9541TIP3   OH228563   0.829   1.763   4.326
 9541TIP3    H128564   0.796   1.686   4.371
 9541TIP3    H228565   0.917   1.777   4.361
 9542TIP3   OH228566   5.350   1.973   4.411
 9542TIP3    H128567   5.265   1.968   4.368
 9542TIP3    H228568   5.335   2.028   4.488
 9543TIP3   OH228569   5.682   3.892   0.776
 9543TIP3    H128570   5.661   3.800   0.760
 9543TIP3    H228571   5.600   3.939   0.762
 9544TIP3   OH228572   7.055   6.778   3.442
 9544TIP3    H128573   7.081   6.695   3.403
 9544TIP3    H228574   7.116   6.842   3.406
 9545TIP3   OH228575   4.117   0.383   0.976
 9545TIP3    H128576   4.045   0.364   0.915
 9545TIP3    H228577   4.074   0.404   1.058
 9546TIP3   OH228578   2.721   0.679   3.607
 9546TIP3    H128579   2.783   0.666   3.678
 9546TIP3    H228580   2.639   0.643   3.639
 9547TIP3   OH228581   6.307   7.096   5.560
 9547TIP3    H128582   6.285   7.177   5.604
 9547TIP3    H228583   6.358   7.123   5.483
 9548TIP3   OH228584   0.696   4.745   0.269
 9548TIP3    H128585   0.717   4.659   0.231
 9548TIP3    H228586   0.613   4.731   0.315
 9549TIP3   OH228587   5.668   7.692   3.123
 9549TIP3    H128588   5.573   7.685   3.126
 9549TIP3    H228589   5.685   7.785   3.111
 9550TIP3   OH228590   0.349   7.879   6.662
 9550TIP3    H128591   0.294   7.938   6.610
 9550TIP3    H228592   0.385   7.817   6.598
 9551TIP3   OH228593   4.162   0.196   4.094
 9551TIP3    H128594   4.102   0.192   4.019
 9551TIP3    H228595   4.148   0.282   4.132
 9552TIP3   OH228596   2.982   2.292   6.773
 9552TIP3    H128597   2.892   2.291   6.740
 9552TIP3    H228598   2.980   2.351   6.847
 9553TIP3   OH228599   7.198   1.554   4.960
 9553TIP3    H128600   7.283   1.599   4.963
 9553TIP3    H228601   7.193   1.516   4.872
 9554TIP3   OH228602   4.925   3.975   1.505
 9554TIP3    H128603   4.835   3.994   1.532
 9554TIP3    H228604   4.979   4.035   1.556
 9555TIP3   OH228605   3.884   6.020   4.776
 9555TIP3    H128606   3.864   5.974   4.693
 9555TIP3    H228607   3.971   6.058   4.762
 9556TIP3   OH228608   5.572   5.771   0.660
 9556TIP3    H128609   5.661   5.758   0.693
 9556TIP3    H228610   5.572   5.860   0.625
 9557TIP3   OH228611   2.203   1.123   2.696
 9557TIP3    H128612   2.229   1.035   2.721
 9557TIP3    H228613   2.114   1.133   2.730
 9558TIP3   OH228614   2.268   6.170   2.228
 9558TIP3    H128615   2.353   6.165   2.184
 9558TIP3    H228616   2.224   6.088   2.205
 9559TIP3   OH228617   5.727   3.613   5.639
 9559TIP3    H128618   5.720   3.600   5.545
 9559TIP3    H228619   5.813   3.652   5.652
 9560TIP3   OH228620   1.378   5.184   3.582
 9560TIP3    H128621   1.343   5.188   3.493
 9560TIP3    H228622   1.303   5.161   3.636
 9561TIP3   OH228623   0.979   3.659   4.640
 9561TIP3    H128624   1.054   3.718   4.634
 9561TIP3    H228625   0.907   3.715   4.668
 9562TIP3   OH228626   5.670   5.943   0.418
 9562TIP3    H128627   5.595   5.926   0.361
 9562TIP3    H228628   5.746   5.917   0.366
 9563TIP3   OH228629   0.639   2.817   3.194
 9563TIP3    H128630   0.686   2.805   3.111
 9563TIP3    H228631   0.555   2.772   3.180
 9564TIP3   OH228632   2.319   0.926   4.117
 9564TIP3    H128633   2.377   0.911   4.042
 9564TIP3    H228634   2.376   0.961   4.185
 9565TIP3   OH228635   0.972   1.100   2.930
 9565TIP3    H128636   0.886   1.062   2.912
 9565TIP3    H228637   0.969   1.186   2.888
 9566TIP3   OH228638   3.896   3.693   1.736
 9566TIP3    H128639   3.923   3.728   1.651
 9566TIP3    H228640   3.824   3.633   1.716
 9567TIP3   OH228641   0.170   2.797   4.534
 9567TIP3    H128642   0.118   2.872   4.506
 9567TIP3    H228643   0.113   2.748   4.593
 9568TIP3   OH228644   6.331   5.998   0.494
 9568TIP3    H128645   6.421   5.967   0.480
 9568TIP3    H228646   6.305   5.959   0.577
 9569TIP3   OH228647   2.926   3.205   2.126
 9569TIP3    H128648   2.887   3.146   2.062
 9569TIP3    H228649   2.981   3.264   2.074
 9570TIP3   OH228650   6.628   3.907   2.714
 9570TIP3    H128651   6.546   3.925   2.759
 9570TIP3    H228652   6.655   3.820   2.744
 9571TIP3   OH228653   0.736   7.410   4.842
 9571TIP3    H128654   0.810   7.418   4.901
 9571TIP3    H228655   0.774   7.415   4.754
 9572TIP3   OH228656   0.639   5.205   5.222
 9572TIP3    H128657   0.547   5.189   5.246
 9572TIP3    H228658   0.675   5.252   5.297
 9573TIP3   OH228659   2.955   2.093   5.482
 9573TIP3    H128660   2.905   2.172   5.500
 9573TIP3    H228661   2.899   2.021   5.511
 9574TIP3   OH228662   0.911   1.091   4.117
 9574TIP3    H128663   0.926   1.164   4.177
 9574TIP3    H228664   0.869   1.131   4.041
 9575TIP3   OH228665   4.132   3.369   1.650
 9575TIP3    H128666   4.178   3.408   1.725
 9575TIP3    H228667   4.146   3.275   1.661
 9576TIP3   OH228668   8.393   5.117   4.918
 9576TIP3    H128669   8.389   5.195   4.863
 9576TIP3    H228670   8.397   5.151   5.008
 9577TIP3   OH228671   4.784   4.290   6.434
 9577TIP3    H128672   4.775   4.240   6.516
 9577TIP3    H228673   4.711   4.260   6.380
 9578TIP3   OH228674   2.117   6.339   5.678
 9578TIP3    H128675   2.121   6.264   5.618
 9578TIP3    H228676   2.119   6.300   5.765
 9579TIP3   OH228677   6.526   2.639   4.852
 9579TIP3    H128678   6.561   2.710   4.799
 9579TIP3    H228679   6.436   2.627   4.822
 9580TIP3   OH228680   2.465   4.956   2.914
 9580TIP3    H128681   2.396   5.022   2.922
 9580TIP3    H228682   2.449   4.917   2.828
 9581TIP3   OH228683   0.183   2.739   1.431
 9581TIP3    H128684   0.181   2.766   1.523
 9581TIP3    H228685   0.106   2.781   1.392
 9582TIP3   OH228686   4.001   5.374   6.692
 9582TIP3    H128687   3.986   5.283   6.666
 9582TIP3    H228688   3.917   5.403   6.728
 9583TIP3   OH228689   4.848   4.477   2.263
 9583TIP3    H128690   4.858   4.400   2.319
 9583TIP3    H228691   4.911   4.540   2.298
 9584TIP3   OH228692   3.403   0.035   5.618
 9584TIP3    H128693   3.434   0.071   5.534
 9584TIP3    H228694   3.337   0.098   5.647
 9585TIP3   OH228695   2.041   7.431   1.081
 9585TIP3    H128696   2.083   7.375   1.146
 9585TIP3    H228697   1.992   7.372   1.024
 9586TIP3   OH228698   1.453   1.156   6.403
 9586TIP3    H128699   1.531   1.104   6.381
 9586TIP3    H228700   1.424   1.193   6.320
 9587TIP3   OH228701   4.044   5.195   3.768
 9587TIP3    H128702   4.013   5.155   3.686
 9587TIP3    H228703   4.030   5.128   3.834
 9588TIP3   OH228704   6.954   5.049   4.001
 9588TIP3    H128705   7.040   5.035   4.040
 9588TIP3    H228706   6.904   5.095   4.069
 9589TIP3   OH228707   2.599   3.131   0.927
 9589TIP3    H128708   2.534   3.084   0.980
 9589TIP3    H228709   2.651   3.179   0.991
 9590TIP3   OH228710   7.706   7.099   1.692
 9590TIP3    H128711   7.775   7.147   1.739
 9590TIP3    H228712   7.680   7.029   1.752
 9591TIP3   OH228713   1.427   0.813   5.774
 9591TIP3    H128714   1.485   0.833   5.702
 9591TIP3    H228715   1.430   0.891   5.830
 9592TIP3   OH228716   1.440   2.727   1.709
 9592TIP3    H128717   1.417   2.819   1.708
 9592TIP3    H228718   1.390   2.690   1.781
 9593TIP3   OH228719   1.295   1.838   2.809
 9593TIP3    H128720   1.335   1.924   2.796
 9593TIP3    H228721   1.209   1.844   2.768
 9594TIP3   OH228722   1.118   3.947   4.145
 9594TIP3    H128723   1.024   3.935   4.164
 9594TIP3    H228724   1.122   4.030   4.098
 9595TIP3   OH228725   5.423   6.882   0.657
 9595TIP3    H128726   5.488   6.907   0.592
 9595TIP3    H228727   5.449   6.794   0.685
 9596TIP3   OH228728   7.728   4.812   0.859
 9596TIP3    H128729   7.753   4.896   0.897
 9596TIP3    H228730   7.781   4.747   0.906
 9597TIP3   OH228731   3.651   0.966   2.831
 9597TIP3    H128732   3.713   0.894   2.840
 9597TIP3    H228733   3.567   0.929   2.856
 9598TIP3   OH228734   2.338   3.008   1.370
 9598TIP3    H128735   2.335   3.033   1.463
 9598TIP3    H228736   2.272   2.939   1.362
 9599TIP3   OH228737   5.151   7.723   5.302
 9599TIP3    H128738   5.060   7.700   5.324
 9599TIP3    H228739   5.202   7.690   5.376
 9600TIP3   OH228740   7.370   2.286   2.543
 9600TIP3    H128741   7.372   2.381   2.541
 9600TIP3    H228742   7.382   2.260   2.451
 9601TIP3   OH228743   6.233   0.954   4.295
 9601TIP3    H128744   6.284   0.912   4.365
 9601TIP3    H228745   6.299   0.991   4.237
 9602TIP3   OH228746   3.557   3.299   0.914
 9602TIP3    H128747   3.540   3.264   0.827
 9602TIP3    H228748   3.587   3.389   0.899
 9603TIP3   OH228749   4.080   3.213   0.684
 9603TIP3    H128750   3.986   3.214   0.701
 9603TIP3    H228751   4.112   3.297   0.716
 9604TIP3   OH228752   7.713   6.710   4.337
 9604TIP3    H128753   7.723   6.616   4.354
 9604TIP3    H228754   7.696   6.715   4.243
 9605TIP3   OH228755   7.199   6.881   3.998
 9605TIP3    H128756   7.268   6.930   4.043
 9605TIP3    H228757   7.138   6.857   4.067
 9606TIP3   OH228758   6.562   0.108   3.896
 9606TIP3    H128759   6.576   0.200   3.921
 9606TIP3    H228760   6.508   0.113   3.818
 9607TIP3   OH228761   2.310   5.683   4.053
 9607TIP3    H128762   2.402   5.662   4.070
 9607TIP3    H228763   2.297   5.657   3.962
 9608TIP3   OH228764   7.113   4.820   3.284
 9608TIP3    H128765   7.178   4.880   3.249
 9608TIP3    H228766   7.148   4.733   3.265
 9609TIP3   OH228767   8.177   3.958   0.286
 9609TIP3    H128768   8.165   4.035   0.343
 9609TIP3    H228769   8.089   3.921   0.278
 9610TIP3   OH228770   2.945   3.830   2.968
 9610TIP3    H128771   2.923   3.747   3.009
 9610TIP3    H228772   2.977   3.806   2.881
 9611TIP3   OH228773   3.146   7.691   2.102
 9611TIP3    H128774   3.194   7.608   2.105
 9611TIP3    H228775   3.141   7.719   2.194
 9612TIP3   OH228776   7.887   7.316   4.849
 9612TIP3    H128777   7.967   7.315   4.795
 9612TIP3    H228778   7.899   7.244   4.910
 9613TIP3   OH228779   8.195   7.723   3.418
 9613TIP3    H128780   8.101   7.707   3.430
 9613TIP3    H228781   8.238   7.660   3.475
 9614TIP3   OH228782   4.737   2.021   2.739
 9614TIP3    H128783   4.805   1.961   2.708
 9614TIP3    H228784   4.785   2.089   2.786
 9615TIP3   OH228785   8.279   5.955   6.379
 9615TIP3    H128786   8.373   5.939   6.380
 9615TIP3    H228787   8.265   6.021   6.447
 9616TIP3   OH228788   1.979   2.752   1.938
 9616TIP3    H128789   1.904   2.810   1.930
 9616TIP3    H228790   2.055   2.807   1.916
 9617TIP3   OH228791   1.507   3.158   0.114
 9617TIP3    H128792   1.572   3.221   0.146
 9617TIP3    H228793   1.516   3.161   0.019
 9618TIP3   OH228794   0.157   6.010   1.870
 9618TIP3    H128795   0.185   5.943   1.807
 9618TIP3    H228796   0.061   6.005   1.870
 9619TIP3   OH228797   5.918   3.868   6.263
 9619TIP3    H128798   5.847   3.803   6.268
 9619TIP3    H228799   5.914   3.901   6.173
 9620TIP3   OH228800   0.709   1.180   6.298
 9620TIP3    H128801   0.740   1.270   6.293
 9620TIP3    H228802   0.729   1.142   6.213
 9621TIP3   OH228803   1.546   7.784   3.257
 9621TIP3    H128804   1.596   7.859   3.291
 9621TIP3    H228805   1.460   7.820   3.237
 9622TIP3   OH228806   4.386   7.644   4.814
 9622TIP3    H128807   4.343   7.643   4.899
 9622TIP3    H228808   4.464   7.590   4.825
 9623TIP3   OH228809   2.765   5.821   5.964
 9623TIP3    H128810   2.720   5.900   5.935
 9623TIP3    H228811   2.711   5.787   6.035
 9624TIP3   OH228812   2.097   1.857   3.094
 9624TIP3    H128813   2.183   1.896   3.078
 9624TIP3    H228814   2.076   1.812   3.013
 9625TIP3   OH228815   0.297   7.657   3.895
 9625TIP3    H128816   0.325   7.707   3.972
 9625TIP3    H228817   0.250   7.720   3.841
 9626TIP3   OH228818   7.421   3.684   2.575
 9626TIP3    H128819   7.469   3.608   2.606
 9626TIP3    H228820   7.403   3.735   2.654
 9627TIP3   OH228821   6.069   2.968   1.628
 9627TIP3    H128822   6.133   2.977   1.558
 9627TIP3    H228823   6.120   2.937   1.703
 9628TIP3   OH228824   5.199   1.139   6.275
 9628TIP3    H128825   5.216   1.162   6.367
 9628TIP3    H228826   5.285   1.145   6.233
 9629TIP3   OH228827   6.904   5.997   4.296
 9629TIP3    H128828   6.873   5.954   4.376
 9629TIP3    H228829   6.838   5.974   4.230
 9630TIP3   OH228830   1.184   4.969   1.884
 9630TIP3    H128831   1.144   4.942   1.801
 9630TIP3    H228832   1.270   4.927   1.883
 9631TIP3   OH228833   1.409   5.124   0.139
 9631TIP3    H128834   1.500   5.126   0.165
 9631TIP3    H228835   1.360   5.123   0.221
 9632TIP3   OH228836   7.727   6.705   0.520
 9632TIP3    H128837   7.757   6.719   0.610
 9632TIP3    H228838   7.798   6.739   0.465
 9633TIP3   OH228839   3.956   4.268   4.702
 9633TIP3    H128840   3.939   4.183   4.660
 9633TIP3    H228841   3.974   4.327   4.629
 9634TIP3   OH228842   6.787   5.730   2.653
 9634TIP3    H128843   6.759   5.771   2.571
 9634TIP3    H228844   6.772   5.636   2.638
 9635TIP3   OH228845   1.723   3.455   0.599
 9635TIP3    H128846   1.682   3.370   0.617
 9635TIP3    H228847   1.674   3.517   0.652
 9636TIP3   OH228848   1.000   7.177   4.238
 9636TIP3    H128849   1.043   7.193   4.321
 9636TIP3    H228850   0.954   7.258   4.217
 9637TIP3   OH228851   7.855   7.169   5.583
 9637TIP3    H128852   7.876   7.261   5.564
 9637TIP3    H228853   7.815   7.171   5.669
 9638TIP3   OH228854   3.408   5.347   3.026
 9638TIP3    H128855   3.329   5.401   3.034
 9638TIP3    H228856   3.427   5.319   3.115
 9639TIP3   OH228857   5.804   4.084   3.613
 9639TIP3    H128858   5.792   4.073   3.518
 9639TIP3    H228859   5.846   4.169   3.622
 9640TIP3   OH228860   7.749   3.807   2.590
 9640TIP3    H128861   7.829   3.786   2.637
 9640TIP3    H228862   7.778   3.833   2.503
 9641TIP3   OH228863   2.912   1.377   5.744
 9641TIP3    H128864   2.955   1.299   5.781
 9641TIP3    H228865   2.945   1.450   5.796
 9642TIP3   OH228866   2.807   2.719   0.878
 9642TIP3    H128867   2.791   2.626   0.891
 9642TIP3    H228868   2.738   2.762   0.929
 9643TIP3   OH228869   1.617   6.474   4.319
 9643TIP3    H128870   1.539   6.524   4.343
 9643TIP3    H228871   1.621   6.479   4.224
 9644TIP3   OH228872   1.073   7.496   1.507
 9644TIP3    H128873   1.060   7.485   1.413
 9644TIP3    H228874   1.070   7.591   1.521
 9645TIP3   OH228875   5.918   7.704   1.535
 9645TIP3    H128876   5.886   7.711   1.444
 9645TIP3    H228877   5.878   7.624   1.569
 9646TIP3   OH228878   3.372   5.843   6.386
 9646TIP3    H128879   3.283   5.811   6.369
 9646TIP3    H228880   3.393   5.810   6.473
 9647TIP3   OH228881   6.997   0.231   2.097
 9647TIP3    H128882   6.907   0.261   2.091
 9647TIP3    H228883   7.050   0.311   2.090
 9648TIP3   OH228884   1.023   0.400   1.958
 9648TIP3    H128885   1.112   0.379   1.986
 9648TIP3    H228886   0.967   0.362   2.026
 9649TIP3   OH228887   2.922   7.795   3.879
 9649TIP3    H128888   2.893   7.884   3.860
 9649TIP3    H228889   2.907   7.784   3.973
 9650TIP3   OH228890   1.596   2.063   5.360
 9650TIP3    H128891   1.574   2.042   5.270
 9650TIP3    H228892   1.691   2.054   5.364
 9651TIP3   OH228893   5.449   1.857   4.744
 9651TIP3    H128894   5.437   1.946   4.712
 9651TIP3    H228895   5.518   1.821   4.688
 9652TIP3   OH228896   0.828   2.269   6.413
 9652TIP3    H128897   0.893   2.316   6.361
 9652TIP3    H228898   0.791   2.336   6.471
 9653TIP3   OH228899   6.873   4.453   1.125
 9653TIP3    H128900   6.785   4.485   1.103
 9653TIP3    H228901   6.864   4.358   1.126
 9654TIP3   OH228902   2.954   5.681   3.898
 9654TIP3    H128903   2.891   5.726   3.955
 9654TIP3    H228904   2.911   5.598   3.877
 9655TIP3   OH228905   5.154   5.912   6.683
 9655TIP3    H128906   5.191   5.995   6.711
 9655TIP3    H228907   5.209   5.883   6.611
 9656TIP3   OH228908   4.113   7.790   5.924
 9656TIP3    H128909   4.104   7.880   5.956
 9656TIP3    H228910   4.039   7.743   5.961
 9657TIP3   OH228911   7.907   5.483   2.870
 9657TIP3    H128912   7.815   5.497   2.890
 9657TIP3    H228913   7.954   5.544   2.926
 9658TIP3   OH228914   0.094   0.913   6.214
 9658TIP3    H128915   0.061   0.994   6.253
 9658TIP3    H228916   0.019   0.854   6.215
 9659TIP3   OH228917   4.997   0.670   4.493
 9659TIP3    H128918   5.002   0.766   4.498
 9659TIP3    H228919   4.907   0.653   4.466
 9660TIP3   OH228920   1.930   1.844   6.012
 9660TIP3    H128921   1.961   1.776   5.952
 9660TIP3    H228922   1.884   1.795   6.081
 9661TIP3   OH228923   5.496   2.945   6.255
 9661TIP3    H128924   5.505   2.865   6.307
 9661TIP3    H228925   5.448   2.916   6.176
 9662TIP3   OH228926   6.994   0.853   2.973
 9662TIP3    H128927   6.906   0.886   2.993
 9662TIP3    H228928   6.989   0.759   2.992
 9663TIP3   OH228929   3.900   3.713   3.154
 9663TIP3    H128930   3.917   3.672   3.069
 9663TIP3    H228931   3.834   3.780   3.136
 9664TIP3   OH228932   4.981   4.366   0.147
 9664TIP3    H128933   4.951   4.330   0.231
 9664TIP3    H228934   5.027   4.446   0.171
 9665TIP3   OH228935   3.057   7.008   4.893
 9665TIP3    H128936   3.127   6.952   4.927
 9665TIP3    H228937   2.993   7.011   4.964
 9666TIP3   OH228938   1.336   6.580   3.610
 9666TIP3    H128939   1.281   6.633   3.552
 9666TIP3    H228940   1.365   6.640   3.678
 9667TIP3   OH228941   8.281   6.302   2.436
 9667TIP3    H128942   8.222   6.340   2.501
 9667TIP3    H228943   8.347   6.256   2.488
 9668TIP3   OH228944   1.464   4.870   3.394
 9668TIP3    H128945   1.514   4.789   3.383
 9668TIP3    H228946   1.428   4.864   3.482
 9669TIP3   OH228947   7.692   2.325   5.597
 9669TIP3    H128948   7.602   2.335   5.564
 9669TIP3    H228949   7.727   2.249   5.550
 9670TIP3   OH228950   5.733   4.440   3.458
 9670TIP3    H128951   5.796   4.410   3.523
 9670TIP3    H228952   5.651   4.397   3.482
 9671TIP3   OH228953   1.969   6.546   1.317
 9671TIP3    H128954   1.966   6.623   1.373
 9671TIP3    H228955   2.039   6.565   1.254
 9672TIP3   OH228956   1.491   5.584   0.200
 9672TIP3    H128957   1.490   5.556   0.291
 9672TIP3    H228958   1.404   5.621   0.185
 9673TIP3   OH228959   4.437   7.609   4.315
 9673TIP3    H128960   4.383   7.533   4.338
 9673TIP3    H228961   4.517   7.572   4.280
 9674TIP3   OH228962   0.618   7.840   3.758
 9674TIP3    H128963   0.577   7.925   3.774
 9674TIP3    H228964   0.583   7.783   3.826
 9675TIP3   OH228965   5.749   1.212   6.653
 9675TIP3    H128966   5.717   1.249   6.735
 9675TIP3    H228967   5.764   1.119   6.672
 9676TIP3   OH228968   5.385   3.204   2.562
 9676TIP3    H128969   5.428   3.270   2.507
 9676TIP3    H228970   5.451   3.177   2.625
 9677TIP3   OH228971   5.385   5.886   0.393
 9677TIP3    H128972   5.422   5.804   0.360
 9677TIP3    H228973   5.292   5.867   0.405
 9678TIP3   OH228974   8.183   0.995   3.033
 9678TIP3    H128975   8.114   1.059   3.051
 9678TIP3    H228976   8.254   1.020   3.093
 9679TIP3   OH228977   0.577   4.105   3.618
 9679TIP3    H128978   0.591   4.185   3.669
 9679TIP3    H228979   0.488   4.078   3.640
 9680TIP3   OH228980   0.223   3.442   6.152
 9680TIP3    H128981   0.304   3.471   6.195
 9680TIP3    H228982   0.204   3.358   6.193
 9681TIP3   OH228983   0.777   3.082   2.235
 9681TIP3    H128984   0.747   2.994   2.213
 9681TIP3    H228985   0.773   3.130   2.153
 9682TIP3   OH228986   1.646   5.420   6.583
 9682TIP3    H128987   1.570   5.476   6.562
 9682TIP3    H228988   1.721   5.478   6.574
 9683TIP3   OH228989   1.176   7.698   4.996
 9683TIP3    H128990   1.172   7.639   4.920
 9683TIP3    H228991   1.205   7.781   4.960
 9684TIP3   OH228992   0.197   6.646   6.283
 9684TIP3    H128993   0.210   6.684   6.196
 9684TIP3    H228994   0.195   6.722   6.342
 9685TIP3   OH228995   1.819   4.386   4.112
 9685TIP3    H128996   1.773   4.390   4.028
 9685TIP3    H228997   1.784   4.308   4.155
 9686TIP3   OH228998   4.761   0.632   0.032
 9686TIP3    H128999   4.772   0.616   0.125
 9686TIP3    H229000   4.845   0.609  -0.007
 9687TIP3   OH229001   2.991   6.876   0.646
 9687TIP3    H129002   2.915   6.821   0.663
 9687TIP3    H229003   3.052   6.818   0.601
 9688TIP3   OH229004   2.595   6.919   0.397
 9688TIP3    H129005   2.539   6.876   0.333
 9688TIP3    H229006   2.657   6.851   0.425
 9689TIP3   OH229007   0.213   7.449   3.551
 9689TIP3    H129008   0.274   7.413   3.616
 9689TIP3    H229009   0.256   7.528   3.519
 9690TIP3   OH229010   5.289   0.101   0.365
 9690TIP3    H129011   5.315   0.193   0.355
 9690TIP3    H229012   5.196   0.099   0.341
 9691TIP3   OH229013   2.905   7.794   0.793
 9691TIP3    H129014   2.881   7.741   0.717
 9691TIP3    H229015   2.994   7.826   0.773
 9692TIP3   OH229016   8.343   3.689   1.252
 9692TIP3    H129017   8.280   3.761   1.262
 9692TIP3    H229018   8.423   3.731   1.222
 9693TIP3   OH229019   4.054   2.865   2.149
 9693TIP3    H129020   4.116   2.925   2.190
 9693TIP3    H229021   3.971   2.882   2.194
 9694TIP3   OH229022   3.586   1.427   5.093
 9694TIP3    H129023   3.615   1.347   5.049
 9694TIP3    H229024   3.557   1.485   5.022
 9695TIP3   OH229025   5.159   7.695   2.803
 9695TIP3    H129026   5.153   7.763   2.737
 9695TIP3    H229027   5.075   7.698   2.848
 9696TIP3   OH229028   8.006   5.791   6.262
 9696TIP3    H129029   7.979   5.881   6.277
 9696TIP3    H229030   8.080   5.797   6.202
 9697TIP3   OH229031   7.545   2.133   0.471
 9697TIP3    H129032   7.474   2.074   0.446
 9697TIP3    H229033   7.567   2.180   0.390
 9698TIP3   OH229034   6.473   0.696   2.819
 9698TIP3    H129035   6.443   0.723   2.733
 9698TIP3    H229036   6.522   0.615   2.803
 9699TIP3   OH229037   7.537   6.492   6.349
 9699TIP3    H129038   7.504   6.559   6.290
 9699TIP3    H229039   7.459   6.458   6.393
 9700TIP3   OH229040   1.639   2.728   2.685
 9700TIP3    H129041   1.723   2.688   2.704
 9700TIP3    H229042   1.655   2.781   2.607
 9701TIP3   OH229043   2.681   2.301   6.739
 9701TIP3    H129044   2.648   2.242   6.806
 9701TIP3    H229045   2.664   2.256   6.656
 9702TIP3   OH229046   4.192   3.651   2.285
 9702TIP3    H129047   4.182   3.734   2.238
 9702TIP3    H229048   4.266   3.666   2.345
 9703TIP3   OH229049   2.110   0.158   5.364
 9703TIP3    H129050   2.051   0.199   5.426
 9703TIP3    H229051   2.084   0.066   5.363
 9704TIP3   OH229052   0.382   0.556   6.142
 9704TIP3    H129053   0.465   0.562   6.095
 9704TIP3    H229054   0.390   0.619   6.214
 9705TIP3   OH229055   0.352   2.443   0.396
 9705TIP3    H129056   0.319   2.373   0.339
 9705TIP3    H229057   0.429   2.405   0.438
 9706TIP3   OH229058   2.432   5.194   2.166
 9706TIP3    H129059   2.424   5.278   2.211
 9706TIP3    H229060   2.446   5.216   2.074
 9707TIP3   OH229061   0.466   5.283   4.369
 9707TIP3    H129062   0.539   5.328   4.411
 9707TIP3    H229063   0.396   5.283   4.435
 9708TIP3   OH229064   4.466   4.440   5.286
 9708TIP3    H129065   4.547   4.390   5.274
 9708TIP3    H229066   4.430   4.410   5.369
 9709TIP3   OH229067   3.036   2.513   1.216
 9709TIP3    H129068   3.115   2.473   1.180
 9709TIP3    H229069   3.033   2.599   1.175
 9710TIP3   OH229070   5.732   1.532   2.918
 9710TIP3    H129071   5.713   1.466   2.986
 9710TIP3    H229072   5.646   1.564   2.891
 9711TIP3   OH229073   5.522   1.846   5.280
 9711TIP3    H129074   5.451   1.809   5.333
 9711TIP3    H229075   5.491   1.837   5.189
 9712TIP3   OH229076   7.671   6.254   6.387
 9712TIP3    H129077   7.650   6.211   6.469
 9712TIP3    H229078   7.628   6.340   6.393
 9713TIP3   OH229079   6.471   5.047   2.761
 9713TIP3    H129080   6.394   4.992   2.779
 9713TIP3    H229081   6.497   5.079   2.848
 9714TIP3   OH229082   1.853   1.026   1.053
 9714TIP3    H129083   1.843   1.089   1.125
 9714TIP3    H229084   1.769   0.982   1.048
 9715TIP3   OH229085   1.072   3.026   2.867
 9715TIP3    H129086   1.002   3.081   2.831
 9715TIP3    H229087   1.153   3.067   2.837
 9716TIP3   OH229088   2.219   5.935   1.869
 9716TIP3    H129089   2.268   6.016   1.854
 9716TIP3    H229090   2.239   5.880   1.793
 9717TIP3   OH229091   2.065   5.430   3.312
 9717TIP3    H129092   2.072   5.522   3.288
 9717TIP3    H229093   2.000   5.394   3.252
 9718TIP3   OH229094   3.176   3.156   2.983
 9718TIP3    H129095   3.108   3.221   2.964
 9718TIP3    H229096   3.158   3.084   2.923
 9719TIP3   OH229097   1.888   3.967   0.032
 9719TIP3    H129098   1.795   3.945   0.040
 9719TIP3    H229099   1.902   4.034   0.099
 9720TIP3   OH229100   5.728   5.790   6.813
 9720TIP3    H129101   5.790   5.720   6.790
 9720TIP3    H229102   5.703   5.828   6.728
 9721TIP3   OH229103   0.236   7.700   0.061
 9721TIP3    H129104   0.170   7.661   0.003
 9721TIP3    H229105   0.241   7.792   0.035
 9722TIP3   OH229106   4.602   1.637   3.966
 9722TIP3    H129107   4.679   1.651   3.911
 9722TIP3    H229108   4.571   1.726   3.985
 9723TIP3   OH229109   0.090   2.456   1.778
 9723TIP3    H129110   0.064   2.467   1.687
 9723TIP3    H229111   0.062   2.537   1.821
 9724TIP3   OH229112   6.499   5.898   3.566
 9724TIP3    H129113   6.411   5.935   3.574
 9724TIP3    H229114   6.484   5.803   3.563
 9725TIP3   OH229115   7.676   7.871   5.749
 9725TIP3    H129116   7.740   7.909   5.689
 9725TIP3    H229117   7.629   7.807   5.696
 9726TIP3   OH229118   7.707   3.003   6.108
 9726TIP3    H129119   7.675   2.913   6.107
 9726TIP3    H229120   7.628   3.056   6.117
 9727TIP3   OH229121   2.671   7.349   0.224
 9727TIP3    H129122   2.734   7.333   0.154
 9727TIP3    H229123   2.619   7.423   0.193
 9728TIP3   OH229124   3.404   7.562   6.519
 9728TIP3    H129125   3.431   7.571   6.611
 9728TIP3    H229126   3.449   7.483   6.489
 9729TIP3   OH229127   6.302   1.939   3.051
 9729TIP3    H129128   6.362   1.984   2.992
 9729TIP3    H229129   6.248   1.884   2.994
 9730TIP3   OH229130   8.055   4.956   6.256
 9730TIP3    H129131   7.960   4.952   6.273
 9730TIP3    H229132   8.074   4.873   6.212
 9731TIP3   OH229133   0.137   5.734   2.486
 9731TIP3    H129134   0.217   5.711   2.533
 9731TIP3    H229135   0.145   5.688   2.402
 9732TIP3   OH229136   1.119   4.158   4.500
 9732TIP3    H129137   1.127   4.065   4.480
 9732TIP3    H229138   1.025   4.176   4.494
 9733TIP3   OH229139   5.327   4.675   3.526
 9733TIP3    H129140   5.413   4.717   3.535
 9733TIP3    H229141   5.322   4.652   3.433
 9734TIP3   OH229142   0.725   6.747   5.074
 9734TIP3    H129143   0.663   6.809   5.114
 9734TIP3    H229144   0.811   6.788   5.085
 9735TIP3   OH229145   5.534   5.518   2.864
 9735TIP3    H129146   5.522   5.558   2.778
 9735TIP3    H229147   5.465   5.453   2.871
 9736TIP3   OH229148   4.572   5.935   1.936
 9736TIP3    H129149   4.620   6.015   1.914
 9736TIP3    H229150   4.548   5.946   2.028
 9737TIP3   OH229151   0.705   5.340   6.590
 9737TIP3    H129152   0.711   5.267   6.651
 9737TIP3    H229153   0.695   5.299   6.504
 9738TIP3   OH229154   5.315   6.478   2.258
 9738TIP3    H129155   5.411   6.487   2.260
 9738TIP3    H229156   5.283   6.544   2.319
 9739TIP3   OH229157   3.054   4.963   6.759
 9739TIP3    H129158   2.992   4.897   6.790
 9739TIP3    H229159   2.998   5.035   6.727
 9740TIP3   OH229160   2.517   0.736   5.636
 9740TIP3    H129161   2.607   0.767   5.640
 9740TIP3    H229162   2.524   0.647   5.600
 9741TIP3   OH229163   0.742   1.612   6.605
 9741TIP3    H129164   0.773   1.627   6.695
 9741TIP3    H229165   0.648   1.630   6.609
 9742TIP3   OH229166   0.540   0.449   1.312
 9742TIP3    H129167   0.467   0.454   1.374
 9742TIP3    H229168   0.568   0.358   1.315
 9743TIP3   OH229169   0.373   0.475   3.259
 9743TIP3    H129170   0.287   0.473   3.301
 9743TIP3    H229171   0.359   0.523   3.177
 9744TIP3   OH229172   1.038   4.112   3.373
 9744TIP3    H129173   1.115   4.105   3.316
 9744TIP3    H229174   0.972   4.155   3.320
 9745TIP3   OH229175   2.269   7.720   2.550
 9745TIP3    H129176   2.285   7.767   2.631
 9745TIP3    H229177   2.176   7.699   2.552
 9746TIP3   OH229178   7.403   7.703   3.441
 9746TIP3    H129179   7.398   7.787   3.395
 9746TIP3    H229180   7.377   7.638   3.375
 9747TIP3   OH229181   7.665   7.742   1.601
 9747TIP3    H129182   7.638   7.828   1.634
 9747TIP3    H229183   7.731   7.763   1.535
 9748TIP3   OH229184   7.939   6.873   5.616
 9748TIP3    H129185   7.914   6.938   5.550
 9748TIP3    H229186   8.004   6.818   5.571
 9749TIP3   OH229187   5.552   1.457   1.927
 9749TIP3    H129188   5.474   1.446   1.983
 9749TIP3    H229189   5.622   1.412   1.974
 9750TIP3   OH229190   5.110   2.346   6.133
 9750TIP3    H129191   5.075   2.423   6.178
 9750TIP3    H229192   5.150   2.294   6.203
 9751TIP3   OH229193   7.625   3.046   2.042
 9751TIP3    H129194   7.625   3.128   2.092
 9751TIP3    H229195   7.712   3.040   2.004
 9752TIP3   OH229196   1.304   5.399   1.838
 9752TIP3    H129197   1.288   5.456   1.913
 9752TIP3    H229198   1.222   5.351   1.827
 9753TIP3   OH229199   0.690   0.945   3.325
 9753TIP3    H129200   0.772   0.965   3.369
 9753TIP3    H229201   0.645   0.884   3.384
 9754TIP3   OH229202   4.784   3.295   3.051
 9754TIP3    H129203   4.761   3.328   3.137
 9754TIP3    H229204   4.801   3.202   3.064
 9755TIP3   OH229205   1.170   7.600   2.824
 9755TIP3    H129206   1.165   7.505   2.837
 9755TIP3    H229207   1.241   7.629   2.882
 9756TIP3   OH229208   1.052   4.765   5.418
 9756TIP3    H129209   1.121   4.824   5.386
 9756TIP3    H229210   0.976   4.785   5.363
 9757TIP3   OH229211   6.770   5.267   0.464
 9757TIP3    H129212   6.774   5.325   0.387
 9757TIP3    H229213   6.853   5.219   0.462
 9758TIP3   OH229214   0.930   1.023   3.462
 9758TIP3    H129215   0.911   1.114   3.440
 9758TIP3    H229216   1.025   1.016   3.456
 9759TIP3   OH229217   5.774   2.573   0.499
 9759TIP3    H129218   5.843   2.549   0.437
 9759TIP3    H229219   5.816   2.570   0.584
 9760TIP3   OH229220   2.521   1.823   5.605
 9760TIP3    H129221   2.465   1.745   5.603
 9760TIP3    H229222   2.530   1.848   5.514
 9761TIP3   OH229223   8.325   3.382   2.848
 9761TIP3    H129224   8.242   3.351   2.885
 9761TIP3    H229225   8.352   3.452   2.907
 9762TIP3   OH229226   1.035   4.248   0.153
 9762TIP3    H129227   0.970   4.205   0.097
 9762TIP3    H229228   1.119   4.218   0.119
 9763TIP3   OH229229   5.457   7.054   5.708
 9763TIP3    H129230   5.511   7.021   5.779
 9763TIP3    H229231   5.461   6.987   5.640
 9764TIP3   OH229232   8.240   5.157   3.250
 9764TIP3    H129233   8.165   5.107   3.282
 9764TIP3    H229234   8.291   5.093   3.200
 9765TIP3   OH229235   3.949   7.217   6.005
 9765TIP3    H129236   3.912   7.187   5.922
 9765TIP3    H229237   4.036   7.177   6.007
 9766TIP3   OH229238   2.232   3.671   5.836
 9766TIP3    H129239   2.261   3.703   5.750
 9766TIP3    H229240   2.210   3.579   5.821
 9767TIP3   OH229241   3.155   5.211   4.257
 9767TIP3    H129242   3.081   5.150   4.260
 9767TIP3    H229243   3.203   5.187   4.178
 9768TIP3   OH229244   6.459   1.587   6.174
 9768TIP3    H129245   6.528   1.647   6.144
 9768TIP3    H229246   6.487   1.562   6.262
 9769TIP3   OH229247   1.104   6.505   6.142
 9769TIP3    H129248   1.020   6.551   6.146
 9769TIP3    H229249   1.149   6.530   6.222
 9770TIP3   OH229250   7.340   3.119   2.637
 9770TIP3    H129251   7.336   3.097   2.730
 9770TIP3    H229252   7.422   3.079   2.607
 9771TIP3   OH229253   6.919   7.737   6.257
 9771TIP3    H129254   6.967   7.657   6.236
 9771TIP3    H229255   6.944   7.800   6.189
 9772TIP3   OH229256   1.475   4.558   6.560
 9772TIP3    H129257   1.565   4.576   6.588
 9772TIP3    H229258   1.478   4.467   6.528
 9773TIP3   OH229259   2.282   5.478   0.158
 9773TIP3    H129260   2.372   5.451   0.177
 9773TIP3    H229261   2.228   5.408   0.196
 9774TIP3   OH229262   3.970   2.124   0.742
 9774TIP3    H129263   4.035   2.072   0.789
 9774TIP3    H229264   4.004   2.213   0.745
 9775TIP3   OH229265   0.487   1.017   2.643
 9775TIP3    H129266   0.453   0.981   2.561
 9775TIP3    H229267   0.582   1.023   2.628
 9776TIP3   OH229268   6.469   1.956   1.393
 9776TIP3    H129269   6.562   1.964   1.370
 9776TIP3    H229270   6.425   1.943   1.310
 9777TIP3   OH229271   0.926   7.124   6.762
 9777TIP3    H129272   0.942   7.208   6.805
 9777TIP3    H229273   0.962   7.059   6.822
 9778TIP3   OH229274   4.662   1.265   4.145
 9778TIP3    H129275   4.594   1.198   4.148
 9778TIP3    H229276   4.626   1.338   4.196
 9779TIP3   OH229277   2.170   4.385   2.566
 9779TIP3    H129278   2.181   4.300   2.608
 9779TIP3    H229279   2.253   4.401   2.521
 9780TIP3   OH229280   1.867   0.936   4.332
 9780TIP3    H129281   1.845   0.875   4.402
 9780TIP3    H229282   1.955   0.966   4.354
 9781TIP3   OH229283   7.821   6.056   5.539
 9781TIP3    H129284   7.799   6.091   5.625
 9781TIP3    H229285   7.817   5.961   5.550
 9782TIP3   OH229286   7.164   2.475   5.336
 9782TIP3    H129287   7.208   2.546   5.382
 9782TIP3    H229288   7.091   2.450   5.393
 9783TIP3   OH229289   5.912   6.331   4.160
 9783TIP3    H129290   5.910   6.316   4.065
 9783TIP3    H229291   5.822   6.318   4.188
 9784TIP3   OH229292   0.222   5.445   3.550
 9784TIP3    H129293   0.171   5.364   3.548
 9784TIP3    H229294   0.294   5.426   3.609
 9785TIP3   OH229295   2.471   0.032   2.350
 9785TIP3    H129296   2.501   0.108   2.400
 9785TIP3    H229297   2.411   0.067   2.285
 9786TIP3   OH229298   6.851   2.982   2.783
 9786TIP3    H129299   6.884   2.915   2.842
 9786TIP3    H229300   6.790   3.033   2.836
 9787TIP3   OH229301   0.502   1.124   0.784
 9787TIP3    H129302   0.564   1.146   0.853
 9787TIP3    H229303   0.432   1.076   0.829
 9788TIP3   OH229304   0.445   5.370   3.681
 9788TIP3    H129305   0.439   5.320   3.763
 9788TIP3    H229306   0.486   5.452   3.707
 9789TIP3   OH229307   4.587   7.248   0.731
 9789TIP3    H129308   4.518   7.310   0.752
 9789TIP3    H229309   4.665   7.284   0.772
 9790TIP3   OH229310   6.213   2.184   6.306
 9790TIP3    H129311   6.309   2.190   6.302
 9790TIP3    H229312   6.197   2.115   6.370
 9791TIP3   OH229313   7.404   5.872   6.558
 9791TIP3    H129314   7.403   5.911   6.645
 9791TIP3    H229315   7.477   5.810   6.560
 9792TIP3   OH229316   5.319   4.005   0.488
 9792TIP3    H129317   5.243   3.974   0.439
 9792TIP3    H229318   5.394   3.980   0.434
 9793TIP3   OH229319   4.626   1.021   6.753
 9793TIP3    H129320   4.697   0.985   6.807
 9793TIP3    H229321   4.564   0.949   6.745
 9794TIP3   OH229322   6.350   7.726   2.060
 9794TIP3    H129323   6.256   7.739   2.051
 9794TIP3    H229324   6.362   7.700   2.152
 9795TIP3   OH229325   5.707   1.429   3.218
 9795TIP3    H129326   5.782   1.434   3.278
 9795TIP3    H229327   5.643   1.375   3.265
 9796TIP3   OH229328   6.554   6.089   1.355
 9796TIP3    H129329   6.523   6.167   1.309
 9796TIP3    H229330   6.614   6.123   1.422
 9797TIP3   OH229331   0.778   7.848   5.794
 9797TIP3    H129332   0.768   7.902   5.872
 9797TIP3    H229333   0.721   7.889   5.729
 9798TIP3   OH229334   7.780   5.600   6.201
 9798TIP3    H129335   7.848   5.661   6.230
 9798TIP3    H229336   7.807   5.516   6.237
 9799TIP3   OH229337   7.894   1.772   3.906
 9799TIP3    H129338   7.811   1.742   3.941
 9799TIP3    H229339   7.957   1.706   3.934
 9800TIP3   OH229340   4.754   6.059   0.640
 9800TIP3    H129341   4.743   6.145   0.679
 9800TIP3    H229342   4.811   6.012   0.701
 9801TIP3   OH229343   1.234   7.050   3.137
 9801TIP3    H129344   1.207   6.998   3.061
 9801TIP3    H229345   1.270   6.986   3.198
 9802TIP3   OH229346   0.152   5.620   0.971
 9802TIP3    H129347   0.121   5.664   0.892
 9802TIP3    H229348   0.222   5.676   1.004
 9803TIP3   OH229349   3.344   3.575   3.546
 9803TIP3    H129350   3.279   3.639   3.516
 9803TIP3    H229351   3.428   3.613   3.524
 9804TIP3   OH229352   7.413   5.224   0.764
 9804TIP3    H129353   7.424   5.147   0.707
 9804TIP3    H229354   7.474   5.208   0.836
 9805TIP3   OH229355   1.051   7.256   0.081
 9805TIP3    H129356   1.023   7.334   0.129
 9805TIP3    H229357   0.972   7.201   0.079
 9806TIP3   OH229358   3.603   0.002   1.630
 9806TIP3    H129359   3.656   0.006   1.550
 9806TIP3    H229360   3.547   0.079   1.626
 9807TIP3   OH229361   1.362   3.179   0.833
 9807TIP3    H129362   1.395   3.123   0.904
 9807TIP3    H229363   1.305   3.122   0.782
 9808TIP3   OH229364   5.476   1.332   5.048
 9808TIP3    H129365   5.418   1.321   4.972
 9808TIP3    H229366   5.427   1.294   5.121
 9809TIP3   OH229367   0.297   3.898   5.357
 9809TIP3    H129368   0.273   3.987   5.383
 9809TIP3    H229369   0.214   3.858   5.330
 9810TIP3   OH229370   7.031   3.841   6.371
 9810TIP3    H129371   7.113   3.812   6.331
 9810TIP3    H229372   6.968   3.773   6.351
 9811TIP3   OH229373   5.080   2.430   3.069
 9811TIP3    H129374   5.127   2.349   3.048
 9811TIP3    H229375   5.067   2.473   2.985
 9812TIP3   OH229376   5.436   6.776   2.070
 9812TIP3    H129377   5.516   6.809   2.029
 9812TIP3    H229378   5.459   6.688   2.100
 9813TIP3   OH229379   5.781   7.624   6.075
 9813TIP3    H129380   5.741   7.686   6.014
 9813TIP3    H229381   5.874   7.646   6.074
 9814TIP3   OH229382   7.395   3.445   0.195
 9814TIP3    H129383   7.490   3.452   0.196
 9814TIP3    H229384   7.367   3.508   0.128
 9815TIP3   OH229385   1.641   6.252   6.260
 9815TIP3    H129386   1.546   6.255   6.262
 9815TIP3    H229387   1.669   6.314   6.327
 9816TIP3   OH229388   1.348   2.212   4.644
 9816TIP3    H129389   1.405   2.269   4.696
 9816TIP3    H229390   1.287   2.174   4.708
 9817TIP3   OH229391   2.279   3.898   2.869
 9817TIP3    H129392   2.306   3.811   2.842
 9817TIP3    H229393   2.204   3.919   2.813
 9818TIP3   OH229394   6.860   3.117   3.237
 9818TIP3    H129395   6.821   3.060   3.303
 9818TIP3    H229396   6.954   3.098   3.242
 9819TIP3   OH229397   4.818   6.294   5.840
 9819TIP3    H129398   4.842   6.317   5.929
 9819TIP3    H229399   4.878   6.345   5.785
 9820TIP3   OH229400   5.830   5.348   5.311
 9820TIP3    H129401   5.826   5.441   5.335
 9820TIP3    H229402   5.861   5.348   5.221
 9821TIP3   OH229403   6.269   6.633   3.369
 9821TIP3    H129404   6.270   6.544   3.406
 9821TIP3    H229405   6.176   6.652   3.356
 9822TIP3   OH229406   3.942   0.722   0.489
 9822TIP3    H129407   3.855   0.710   0.451
 9822TIP3    H229408   4.002   0.687   0.423
 9823TIP3   OH229409   5.061   6.946   2.767
 9823TIP3    H129410   5.017   6.869   2.732
 9823TIP3    H229411   5.039   6.947   2.860
 9824TIP3   OH229412   8.379   2.358   5.315
 9824TIP3    H129413   8.317   2.430   5.313
 9824TIP3    H229414   8.435   2.375   5.391
 9825TIP3   OH229415   0.623   7.920   6.596
 9825TIP3    H129416   0.529   7.909   6.588
 9825TIP3    H229417   0.655   7.837   6.631
 9826TIP3   OH229418   7.781   7.578   4.855
 9826TIP3    H129419   7.849   7.511   4.844
 9826TIP3    H229420   7.780   7.595   4.950
 9827TIP3   OH229421   2.143   1.263   0.535
 9827TIP3    H129422   2.101   1.219   0.609
 9827TIP3    H229423   2.077   1.326   0.504
 9828TIP3   OH229424   4.896   6.763   0.493
 9828TIP3    H129425   4.890   6.705   0.417
 9828TIP3    H229426   4.956   6.718   0.553
 9829TIP3   OH229427   5.371   2.803   4.556
 9829TIP3    H129428   5.302   2.737   4.556
 9829TIP3    H229429   5.407   2.802   4.468
 9830TIP3   OH229430   7.423   0.567   6.109
 9830TIP3    H129431   7.497   0.629   6.112
 9830TIP3    H229432   7.407   0.544   6.200
 9831TIP3   OH229433   3.534   6.660   2.927
 9831TIP3    H129434   3.526   6.641   3.020
 9831TIP3    H229435   3.444   6.653   2.894
 9832TIP3   OH229436   0.661   7.370   0.158
 9832TIP3    H129437   0.682   7.424   0.082
 9832TIP3    H229438   0.585   7.413   0.197
 9833TIP3   OH229439   2.104   5.269   5.880
 9833TIP3    H129440   2.027   5.242   5.930
 9833TIP3    H229441   2.114   5.363   5.899
 9834TIP3   OH229442   5.478   0.319   5.228
 9834TIP3    H129443   5.469   0.245   5.289
 9834TIP3    H229444   5.558   0.300   5.179
 9835TIP3   OH229445   0.900   7.592   0.264
 9835TIP3    H129446   0.911   7.509   0.311
 9835TIP3    H229447   0.901   7.568   0.172
 9836TIP3   OH229448   4.940   0.404   6.133
 9836TIP3    H129449   5.019   0.434   6.088
 9836TIP3    H229450   4.868   0.432   6.075
 9837TIP3   OH229451   8.122   5.698   1.277
 9837TIP3    H129452   8.175   5.646   1.338
 9837TIP3    H229453   8.182   5.724   1.208
 9838TIP3   OH229454   7.312   3.002   1.216
 9838TIP3    H129455   7.361   2.945   1.157
 9838TIP3    H229456   7.286   2.944   1.288
 9839TIP3   OH229457   6.248   0.606   0.349
 9839TIP3    H129458   6.315   0.606   0.417
 9839TIP3    H229459   6.293   0.575   0.271
 9840TIP3   OH229460   7.766   2.721   1.591
 9840TIP3    H129461   7.733   2.810   1.578
 9840TIP3    H229462   7.781   2.714   1.685
 9841TIP3   OH229463   3.011   1.773   2.024
 9841TIP3    H129464   2.983   1.852   1.977
 9841TIP3    H229465   3.106   1.780   2.027
 9842TIP3   OH229466   3.635   5.493   4.473
 9842TIP3    H129467   3.716   5.537   4.499
 9842TIP3    H229468   3.662   5.434   4.402
 9843TIP3   OH229469   4.079   6.559   0.593
 9843TIP3    H129470   4.123   6.643   0.584
 9843TIP3    H229471   4.099   6.530   0.682
 9844TIP3   OH229472   6.632   3.427   4.210
 9844TIP3    H129473   6.616   3.514   4.174
 9844TIP3    H229474   6.687   3.384   4.145
 9845TIP3   OH229475   0.267   5.841   0.580
 9845TIP3    H129476   0.220   5.905   0.527
 9845TIP3    H229477   0.251   5.757   0.537
 9846TIP3   OH229478   6.053   1.083   0.392
 9846TIP3    H129479   6.131   1.135   0.370
 9846TIP3    H229480   6.083   1.020   0.456
 9847TIP3   OH229481   4.267   2.502   2.966
 9847TIP3    H129482   4.293   2.575   2.911
 9847TIP3    H229483   4.330   2.433   2.945
 9848TIP3   OH229484   0.805   6.696   6.414
 9848TIP3    H129485   0.788   6.663   6.326
 9848TIP3    H229486   0.721   6.731   6.444
 9849TIP3   OH229487   3.541   0.348   6.145
 9849TIP3    H129488   3.451   0.318   6.157
 9849TIP3    H229489   3.537   0.409   6.072
 9850TIP3   OH229490   2.110   1.517   3.417
 9850TIP3    H129491   2.055   1.589   3.385
 9850TIP3    H229492   2.048   1.449   3.443
 9851TIP3   OH229493   5.838   4.180   6.186
 9851TIP3    H129494   5.803   4.195   6.274
 9851TIP3    H229495   5.761   4.168   6.131
 9852TIP3   OH229496   3.407   0.222   4.652
 9852TIP3    H129497   3.450   0.294   4.698
 9852TIP3    H229498   3.477   0.158   4.637
 9853TIP3   OH229499   6.211   3.777   5.641
 9853TIP3    H129500   6.205   3.830   5.721
 9853TIP3    H229501   6.121   3.778   5.606
 9854TIP3   OH229502   2.210   2.336   1.942
 9854TIP3    H129503   2.277   2.404   1.949
 9854TIP3    H229504   2.131   2.377   1.980
 9855TIP3   OH229505   3.843   5.259   0.412
 9855TIP3    H129506   3.879   5.176   0.442
 9855TIP3    H229507   3.863   5.262   0.318
 9856TIP3   OH229508   0.044   5.468   0.326
 9856TIP3    H129509  -0.046   5.498   0.316
 9856TIP3    H229510   0.058   5.413   0.248
 9857TIP3   OH229511   2.169   7.394   0.058
 9857TIP3    H129512   2.251   7.352   0.033
 9857TIP3    H229513   2.164   7.384   0.153
 9858TIP3   OH229514   1.042   5.787   4.486
 9858TIP3    H129515   0.970   5.742   4.441
 9858TIP3    H229516   1.043   5.749   4.574
 9859TIP3   OH229517   3.040   6.277   6.462
 9859TIP3    H129518   3.104   6.285   6.532
 9859TIP3    H229519   3.021   6.184   6.457
 9860TIP3   OH229520   3.135   0.065   2.618
 9860TIP3    H129521   3.095   0.015   2.547
 9860TIP3    H229522   3.109   0.155   2.602
 9861TIP3   OH229523   2.227   2.313   0.608
 9861TIP3    H129524   2.234   2.379   0.539
 9861TIP3    H229525   2.133   2.297   0.616
 9862TIP3   OH229526   0.238   6.758   6.034
 9862TIP3    H129527   0.246   6.751   5.939
 9862TIP3    H229528   0.226   6.852   6.050
 9863TIP3   OH229529   0.868   3.261   0.573
 9863TIP3    H129530   0.906   3.317   0.640
 9863TIP3    H229531   0.923   3.275   0.496
 9864TIP3   OH229532   1.184   4.754   0.672
 9864TIP3    H129533   1.248   4.689   0.700
 9864TIP3    H229534   1.234   4.816   0.619
 9865TIP3   OH229535   0.798   5.292   4.758
 9865TIP3    H129536   0.875   5.347   4.744
 9865TIP3    H229537   0.780   5.298   4.852
 9866TIP3   OH229538   2.905   1.158   6.029
 9866TIP3    H129539   2.951   1.109   5.960
 9866TIP3    H229540   2.973   1.175   6.095
 9867TIP3   OH229541   7.240   0.868   5.203
 9867TIP3    H129542   7.258   0.835   5.114
 9867TIP3    H229543   7.282   0.804   5.261
 9868TIP3   OH229544   3.030   2.733   6.668
 9868TIP3    H129545   3.009   2.744   6.760
 9868TIP3    H229546   2.968   2.789   6.622
 9869TIP3   OH229547   3.893   1.943   3.212
 9869TIP3    H129548   3.875   1.861   3.166
 9869TIP3    H229549   3.811   1.992   3.207
 9870TIP3   OH229550   7.484   2.632   3.934
 9870TIP3    H129551   7.522   2.599   4.015
 9870TIP3    H229552   7.426   2.562   3.904
 9871TIP3   OH229553   3.560   1.379   1.621
 9871TIP3    H129554   3.606   1.414   1.544
 9871TIP3    H229555   3.499   1.448   1.646
 9872TIP3   OH229556   3.042   5.897   2.985
 9872TIP3    H129557   3.102   5.931   2.920
 9872TIP3    H229558   3.018   5.973   3.038
 9873TIP3   OH229559   3.024   5.850   5.322
 9873TIP3    H129560   3.015   5.780   5.258
 9873TIP3    H229561   3.088   5.818   5.385
 9874TIP3   OH229562   7.577   7.910   1.802
 9874TIP3    H129563   7.483   7.897   1.792
 9874TIP3    H229564   7.592   7.904   1.896
 9875TIP3   OH229565   7.124   7.018   2.187
 9875TIP3    H129566   7.116   7.101   2.139
 9875TIP3    H229567   7.061   7.026   2.258
 9876TIP3   OH229568   5.556   5.076   4.588
 9876TIP3    H129569   5.622   5.142   4.610
 9876TIP3    H229570   5.498   5.074   4.664
 9877TIP3   OH229571   1.700   4.128   0.717
 9877TIP3    H129572   1.716   4.222   0.728
 9877TIP3    H229573   1.786   4.090   0.705
 9878TIP3   OH229574   4.096   3.477   1.218
 9878TIP3    H129575   4.163   3.419   1.254
 9878TIP3    H229576   4.073   3.437   1.134
 9879TIP3   OH229577   0.677   4.256   0.665
 9879TIP3    H129578   0.622   4.197   0.614
 9879TIP3    H229579   0.650   4.241   0.756
 9880TIP3   OH229580   6.180   0.050   5.110
 9880TIP3    H129581   6.198  -0.015   5.042
 9880TIP3    H229582   6.265   0.090   5.128
 9881TIP3   OH229583   7.451   7.206   0.100
 9881TIP3    H129584   7.500   7.270   0.152
 9881TIP3    H229585   7.369   7.250   0.078
 9882TIP3   OH229586   8.213   1.371   5.412
 9882TIP3    H129587   8.303   1.404   5.411
 9882TIP3    H229588   8.162   1.437   5.367
 9883TIP3   OH229589   7.921   4.382   2.444
 9883TIP3    H129590   8.003   4.428   2.466
 9883TIP3    H229591   7.925   4.301   2.495
 9884TIP3   OH229592   7.190   6.186   5.709
 9884TIP3    H129593   7.199   6.196   5.804
 9884TIP3    H229594   7.124   6.117   5.699
 9885TIP3   OH229595   8.318   3.840   4.002
 9885TIP3    H129596   8.223   3.847   3.993
 9885TIP3    H229597   8.332   3.755   4.043
 9886TIP3   OH229598   4.251   5.680   0.817
 9886TIP3    H129599   4.281   5.770   0.827
 9886TIP3    H229600   4.299   5.630   0.882
 9887TIP3   OH229601   7.732   6.121   0.055
 9887TIP3    H129602   7.802   6.119   0.120
 9887TIP3    H229603   7.772   6.162  -0.022
 9888TIP3   OH229604   3.365   6.071   0.994
 9888TIP3    H129605   3.293   6.098   0.937
 9888TIP3    H229606   3.326   6.066   1.081
 9889TIP3   OH229607   5.756   6.344   4.753
 9889TIP3    H129608   5.698   6.273   4.778
 9889TIP3    H229609   5.826   6.343   4.819
 9890TIP3   OH229610   3.492   2.352   4.375
 9890TIP3    H129611   3.458   2.382   4.290
 9890TIP3    H229612   3.578   2.315   4.355
 9891TIP3   OH229613   0.733   3.151   3.567
 9891TIP3    H129614   0.801   3.217   3.549
 9891TIP3    H229615   0.687   3.142   3.484
 9892TIP3   OH229616   4.227   1.618   6.006
 9892TIP3    H129617   4.165   1.652   6.070
 9892TIP3    H229618   4.250   1.530   6.039
 9893TIP3   OH229619   1.471   3.339   1.572
 9893TIP3    H129620   1.376   3.345   1.579
 9893TIP3    H229621   1.499   3.427   1.547
 9894TIP3   OH229622   0.587   7.013   1.549
 9894TIP3    H129623   0.560   6.965   1.627
 9894TIP3    H229624   0.505   7.035   1.505
 9895TIP3   OH229625   5.774   6.520   6.632
 9895TIP3    H129626   5.767   6.573   6.552
 9895TIP3    H229627   5.846   6.560   6.681
 9896TIP3   OH229628   3.834   4.726   5.202
 9896TIP3    H129629   3.930   4.720   5.198
 9896TIP3    H229630   3.812   4.791   5.136
 9897TIP3   OH229631   3.598   5.295   4.260
 9897TIP3    H129632   3.657   5.338   4.198
 9897TIP3    H229633   3.511   5.309   4.224
 9898TIP3   OH229634   0.119   5.813   5.820
 9898TIP3    H129635   0.051   5.819   5.752
 9898TIP3    H229636   0.202   5.813   5.771
 9899TIP3   OH229637   7.037   2.534   1.379
 9899TIP3    H129638   7.003   2.580   1.456
 9899TIP3    H229639   7.044   2.602   1.312
 9900TIP3   OH229640   3.243   5.330   4.801
 9900TIP3    H129641   3.280   5.417   4.811
 9900TIP3    H229642   3.270   5.283   4.880
 9901TIP3   OH229643   4.128   3.886   3.072
 9901TIP3    H129644   4.052   3.915   3.021
 9901TIP3    H229645   4.091   3.825   3.136
 9902TIP3   OH229646   7.899   5.658   5.929
 9902TIP3    H129647   7.853   5.620   5.854
 9902TIP3    H229648   7.833   5.660   5.999
 9903TIP3   OH229649   1.332   3.204   6.599
 9903TIP3    H129650   1.391   3.161   6.661
 9903TIP3    H229651   1.302   3.134   6.542
 9904TIP3   OH229652   5.948   4.447   6.107
 9904TIP3    H129653   6.038   4.473   6.126
 9904TIP3    H229654   5.939   4.361   6.147
 9905TIP3   OH229655   2.496   1.253   4.026
 9905TIP3    H129656   2.560   1.301   4.080
 9905TIP3    H229657   2.473   1.315   3.956
 9906TIP3   OH229658   0.041   2.999   0.243
 9906TIP3    H129659   0.015   2.936   0.175
 9906TIP3    H229660  -0.039   3.013   0.294
 9907TIP3   OH229661   2.934   3.806   0.532
 9907TIP3    H129662   2.873   3.736   0.509
 9907TIP3    H229663   3.019   3.764   0.535
 9908TIP3   OH229664   2.392   5.548   6.366
 9908TIP3    H129665   2.305   5.549   6.328
 9908TIP3    H229666   2.425   5.460   6.347
 9909TIP3   OH229667   3.208   5.748   5.511
 9909TIP3    H129668   3.248   5.665   5.484
 9909TIP3    H229669   3.247   5.767   5.596
 9910TIP3   OH229670   2.510   5.747   1.269
 9910TIP3    H129671   2.461   5.715   1.193
 9910TIP3    H229672   2.446   5.798   1.319
 9911TIP3   OH229673   5.244   5.767   0.130
 9911TIP3    H129674   5.208   5.832   0.192
 9911TIP3    H229675   5.247   5.686   0.180
 9912TIP3   OH229676   2.458   3.273   0.713
 9912TIP3    H129677   2.506   3.235   0.787
 9912TIP3    H229678   2.518   3.262   0.639
 9913TIP3   OH229679   3.984   6.503   3.485
 9913TIP3    H129680   3.925   6.571   3.453
 9913TIP3    H229681   4.069   6.524   3.446
 9914TIP3   OH229682   6.884   1.710   6.617
 9914TIP3    H129683   6.860   1.790   6.663
 9914TIP3    H229684   6.923   1.654   6.684
 9915TIP3   OH229685   4.198   2.936   0.301
 9915TIP3    H129686   4.200   3.026   0.332
 9915TIP3    H229687   4.287   2.904   0.313
 9916TIP3   OH229688   0.469   5.943   6.768
 9916TIP3    H129689   0.440   5.854   6.787
 9916TIP3    H229690   0.491   5.941   6.674
 9917TIP3   OH229691   3.397   1.872   0.722
 9917TIP3    H129692   3.366   1.955   0.684
 9917TIP3    H229693   3.484   1.892   0.755
 9918TIP3   OH229694   2.813   7.606   5.971
 9918TIP3    H129695   2.899   7.565   5.982
 9918TIP3    H229696   2.780   7.571   5.888
 9919TIP3   OH229697   5.457   3.308   1.143
 9919TIP3    H129698   5.524   3.375   1.157
 9919TIP3    H229699   5.480   3.238   1.204
 9920TIP3   OH229700   0.901   7.462   3.963
 9920TIP3    H129701   0.986   7.421   3.978
 9920TIP3    H229702   0.883   7.446   3.870
 9921TIP3   OH229703   2.433   1.214   5.802
 9921TIP3    H129704   2.491   1.192   5.875
 9921TIP3    H229705   2.385   1.291   5.831
 9922TIP3   OH229706   5.840   2.323   2.133
 9922TIP3    H129707   5.822   2.395   2.193
 9922TIP3    H229708   5.893   2.362   2.064
 9923TIP3   OH229709   4.112   1.120   0.406
 9923TIP3    H129710   4.036   1.083   0.361
 9923TIP3    H229711   4.108   1.213   0.385
 9924TIP3   OH229712   6.848   6.750   6.515
 9924TIP3    H129713   6.866   6.738   6.608
 9924TIP3    H229714   6.878   6.668   6.475
 9925TIP3   OH229715   5.768   7.727   5.292
 9925TIP3    H129716   5.696   7.745   5.353
 9925TIP3    H229717   5.727   7.723   5.206
 9926TIP3   OH229718   2.970   7.679   4.505
 9926TIP3    H129719   3.022   7.759   4.516
 9926TIP3    H229720   3.009   7.635   4.430
 9927TIP3   OH229721   6.391   0.214   4.109
 9927TIP3    H129722   6.448   0.187   4.036
 9927TIP3    H229723   6.445   0.202   4.187
 9928TIP3   OH229724   1.275   2.923   5.968
 9928TIP3    H129725   1.322   2.989   6.019
 9928TIP3    H229726   1.331   2.906   5.893
 9929TIP3   OH229727   4.750   2.459   5.352
 9929TIP3    H129728   4.833   2.418   5.328
 9929TIP3    H229729   4.767   2.503   5.435
 9930TIP3   OH229730   6.550   0.645   4.336
 9930TIP3    H129731   6.514   0.605   4.256
 9930TIP3    H229732   6.478   0.643   4.398
 9931TIP3   OH229733   3.885   7.249   1.966
 9931TIP3    H129734   3.812   7.216   1.914
 9931TIP3    H229735   3.856   7.239   2.057
 9932TIP3   OH229736   3.596   6.329   5.304
 9932TIP3    H129737   3.529   6.291   5.247
 9932TIP3    H229738   3.679   6.295   5.270
 9933TIP3   OH229739   3.905   0.580   6.363
 9933TIP3    H129740   3.809   0.572   6.366
 9933TIP3    H229741   3.935   0.542   6.445
 9934TIP3   OH229742   4.981   1.514   3.274
 9934TIP3    H129743   4.936   1.569   3.337
 9934TIP3    H229744   4.915   1.493   3.208
 9935TIP3   OH229745   4.962   6.793   2.362
 9935TIP3    H129746   4.989   6.725   2.300
 9935TIP3    H229747   5.032   6.859   2.356
 9936TIP3   OH229748   0.668   3.200   3.838
 9936TIP3    H129749   0.732   3.267   3.860
 9936TIP3    H229750   0.670   3.196   3.742
 9937TIP3   OH229751   5.409   6.665   3.630
 9937TIP3    H129752   5.497   6.637   3.607
 9937TIP3    H229753   5.354   6.587   3.616
 9938TIP3   OH229754   7.983   1.674   1.488
 9938TIP3    H129755   7.998   1.761   1.450
 9938TIP3    H229756   7.893   1.677   1.520
 9939TIP3   OH229757   0.946   0.125   4.382
 9939TIP3    H129758   0.944   0.079   4.298
 9939TIP3    H229759   1.016   0.082   4.431
 9940TIP3   OH229760   0.826   0.018   0.204
 9940TIP3    H129761   0.827   0.112   0.225
 9940TIP3    H229762   0.757  -0.018   0.259
 9941TIP3   OH229763   6.097   7.852   2.042
 9941TIP3    H129764   6.090   7.887   2.131
 9941TIP3    H229765   6.104   7.929   1.987
 9942TIP3   OH229766   1.863   6.341   2.811
 9942TIP3    H129767   1.853   6.435   2.818
 9942TIP3    H229768   1.847   6.308   2.900
 9943TIP3   OH229769   1.528   6.121   0.577
 9943TIP3    H129770   1.603   6.098   0.524
 9943TIP3    H229771   1.457   6.137   0.514
 9944TIP3   OH229772   3.096   7.166   6.066
 9944TIP3    H129773   3.004   7.140   6.070
 9944TIP3    H229774   3.143   7.093   6.107
 9945TIP3   OH229775   3.197   7.035   0.605
 9945TIP3    H129776   3.138   6.968   0.640
 9945TIP3    H229777   3.260   7.051   0.675
 9946TIP3   OH229778   1.160   0.926   4.540
 9946TIP3    H129779   1.080   0.909   4.490
 9946TIP3    H229780   1.230   0.890   4.486
 9947TIP3   OH229781   1.489   5.808   2.286
 9947TIP3    H129782   1.556   5.865   2.324
 9947TIP3    H229783   1.523   5.786   2.200
 9948TIP3   OH229784   1.499   7.863   2.193
 9948TIP3    H129785   1.468   7.844   2.282
 9948TIP3    H229786   1.429   7.915   2.154
 9949TIP3   OH229787   1.683   5.854   6.011
 9949TIP3    H129788   1.768   5.843   6.054
 9949TIP3    H229789   1.620   5.826   6.076
 9950TIP3   OH229790   3.151   5.648   0.909
 9950TIP3    H129791   3.148   5.711   0.980
 9950TIP3    H229792   3.089   5.580   0.935
 9951TIP3   OH229793   7.652   5.219   6.545
 9951TIP3    H129794   7.609   5.194   6.627
 9951TIP3    H229795   7.745   5.201   6.560
 9952TIP3   OH229796   4.738   6.871   0.932
 9952TIP3    H129797   4.711   6.781   0.949
 9952TIP3    H229798   4.666   6.908   0.882
 9953TIP3   OH229799   0.864   2.333   5.514
 9953TIP3    H129800   0.811   2.409   5.540
 9953TIP3    H229801   0.814   2.257   5.546
 9954TIP3   OH229802   5.672   5.148   2.897
 9954TIP3    H129803   5.736   5.189   2.955
 9954TIP3    H229804   5.626   5.085   2.952
 9955TIP3   OH229805   0.449   6.016   4.589
 9955TIP3    H129806   0.525   5.959   4.579
 9955TIP3    H229807   0.484   6.104   4.576
 9956TIP3   OH229808   3.880   0.186   5.679
 9956TIP3    H129809   3.974   0.186   5.660
 9956TIP3    H229810   3.838   0.197   5.594
 9957TIP3   OH229811   6.614   3.160   4.175
 9957TIP3    H129812   6.531   3.190   4.213
 9957TIP3    H229813   6.614   3.193   4.086
 9958TIP3   OH229814   4.523   5.367   0.261
 9958TIP3    H129815   4.574   5.298   0.218
 9958TIP3    H229816   4.570   5.448   0.241
 9959TIP3   OH229817   3.672   4.472   3.814
 9959TIP3    H129818   3.719   4.405   3.763
 9959TIP3    H229819   3.630   4.423   3.885
 9960TIP3   OH229820   0.747   2.380   4.729
 9960TIP3    H129821   0.774   2.361   4.819
 9960TIP3    H229822   0.705   2.466   4.734
 9961TIP3   OH229823   8.013   3.818   6.611
 9961TIP3    H129824   7.980   3.881   6.674
 9961TIP3    H229825   7.963   3.836   6.531
 9962TIP3   OH229826   7.795   6.448   0.273
 9962TIP3    H129827   7.855   6.521   0.289
 9962TIP3    H229828   7.722   6.487   0.225
 9963TIP3   OH229829   1.814   3.701   4.815
 9963TIP3    H129830   1.853   3.788   4.808
 9963TIP3    H229831   1.888   3.641   4.803
 9964TIP3   OH229832   2.235   6.551   4.647
 9964TIP3    H129833   2.254   6.622   4.585
 9964TIP3    H229834   2.144   6.528   4.630
 9965TIP3   OH229835   6.725   5.959   5.224
 9965TIP3    H129836   6.738   6.053   5.227
 9965TIP3    H229837   6.747   5.934   5.134
 9966TIP3   OH229838   2.978   1.584   0.215
 9966TIP3    H129839   2.898   1.634   0.235
 9966TIP3    H229840   3.026   1.638   0.153
 9967TIP3   OH229841   5.358   3.865   0.150
 9967TIP3    H129842   5.337   3.939   0.092
 9967TIP3    H229843   5.448   3.881   0.178
 9968TIP3   OH229844   2.258   6.752   4.483
 9968TIP3    H129845   2.267   6.709   4.398
 9968TIP3    H229846   2.219   6.837   4.462
 9969TIP3   OH229847   1.214   6.204   4.646
 9969TIP3    H129848   1.231   6.131   4.706
 9969TIP3    H229849   1.119   6.199   4.630
 9970TIP3   OH229850   5.854   1.044   6.344
 9970TIP3    H129851   5.871   0.989   6.420
 9970TIP3    H229852   5.936   1.093   6.331
 9971TIP3   OH229853   6.413   1.522   1.602
 9971TIP3    H129854   6.476   1.497   1.535
 9971TIP3    H229855   6.331   1.482   1.575
 9972TIP3   OH229856   3.929   5.632   2.182
 9972TIP3    H129857   3.861   5.665   2.123
 9972TIP3    H229858   3.988   5.583   2.125
 9973TIP3   OH229859   6.495   0.235   4.365
 9973TIP3    H129860   6.413   0.195   4.393
 9973TIP3    H229861   6.531   0.273   4.445
 9974TIP3   OH229862   7.674   3.806   6.048
 9974TIP3    H129863   7.704   3.887   6.008
 9974TIP3    H229864   7.748   3.747   6.041
 9975TIP3   OH229865   2.981   7.656   0.299
 9975TIP3    H129866   2.948   7.654   0.209
 9975TIP3    H229867   3.068   7.617   0.293
 9976TIP3   OH229868   4.333   3.327   5.681
 9976TIP3    H129869   4.244   3.333   5.716
 9976TIP3    H229870   4.322   3.341   5.587
 9977TIP3   OH229871   7.356   6.982   5.949
 9977TIP3    H129872   7.314   6.974   5.863
 9977TIP3    H229873   7.296   6.939   6.010
 9978TIP3   OH229874   7.791   6.332   4.172
 9978TIP3    H129875   7.799   6.309   4.264
 9978TIP3    H229876   7.698   6.324   4.153
 9979TIP3   OH229877   7.213   4.220   1.503
 9979TIP3    H129878   7.161   4.226   1.423
 9979TIP3    H229879   7.238   4.127   1.508
 9980TIP3   OH229880   4.309   7.755   0.349
 9980TIP3    H129881   4.341   7.666   0.333
 9980TIP3    H229882   4.377   7.812   0.314
 9981TIP3   OH229883   0.993   7.829   0.860
 9981TIP3    H129884   0.970   7.916   0.826
 9981TIP3    H229885   0.910   7.796   0.896
 9982TIP3   OH229886   0.940   0.438   2.366
 9982TIP3    H129887   0.935   0.393   2.281
 9982TIP3    H229888   1.021   0.489   2.361
 9983TIP3   OH229889   6.658   3.146   6.406
 9983TIP3    H129890   6.589   3.104   6.458
 9983TIP3    H229891   6.700   3.075   6.359
 9984TIP3   OH229892   1.158   3.125   6.230
 9984TIP3    H129893   1.248   3.155   6.215
 9984TIP3    H229894   1.133   3.083   6.148
 9985TIP3   OH229895   8.207   3.679   0.476
 9985TIP3    H129896   8.176   3.756   0.524
 9985TIP3    H229897   8.301   3.695   0.463
 9986TIP3   OH229898   3.623   7.108   2.704
 9986TIP3    H129899   3.548   7.163   2.683
 9986TIP3    H229900   3.591   7.048   2.772
 9987TIP3   OH229901   5.789   6.431   0.118
 9987TIP3    H129902   5.836   6.376   0.181
 9987TIP3    H229903   5.852   6.498   0.093
 9988TIP3   OH229904   4.087   3.040   5.325
 9988TIP3    H129905   4.168   3.020   5.277
 9988TIP3    H229906   4.064   3.128   5.298
 9989TIP3   OH229907   2.367   5.082   5.321
 9989TIP3    H129908   2.349   5.058   5.412
 9989TIP3    H229909   2.433   5.019   5.292
 9990TIP3   OH229910   8.141   2.057   1.720
 9990TIP3    H129911   8.127   1.983   1.779
 9990TIP3    H229912   8.061   2.063   1.668
 9991TIP3   OH229913   6.111   3.095   4.659
 9991TIP3    H129914   6.203   3.101   4.683
 9991TIP3    H229915   6.099   3.164   4.593
 9992TIP3   OH229916   0.109   6.323   3.840
 9992TIP3    H129917   0.110   6.228   3.832
 9992TIP3    H229918   0.201   6.348   3.839
 9993TIP3   OH229919   7.910   4.642   2.798
 9993TIP3    H129920   7.891   4.703   2.726
 9993TIP3    H229921   7.902   4.696   2.877
 9994TIP3   OH229922   1.139   5.725   1.310
 9994TIP3    H129923   1.190   5.745   1.232
 9994TIP3    H229924   1.127   5.810   1.353
 9995TIP3   OH229925   7.569   3.138   5.677
 9995TIP3    H129926   7.483   3.107   5.705
 9995TIP3    H229927   7.609   3.063   5.633
 9996TIP3   OH229928   5.925   0.548   1.458
 9996TIP3    H129929   5.883   0.532   1.542
 9996TIP3    H229930   5.856   0.534   1.393
 9997TIP3   OH229931   5.094   2.585   3.302
 9997TIP3    H129932   5.095   2.527   3.226
 9997TIP3    H229933   5.170   2.558   3.353
 9998TIP3   OH229934   3.263   3.289   0.834
 9998TIP3    H129935   3.255   3.196   0.855
 9998TIP3    H229936   3.297   3.328   0.915
 9999TIP3   OH229937   2.286   6.421   1.649
 9999TIP3    H129938   2.370   6.432   1.605
 9999TIP3    H229939   2.223   6.407   1.577
10000TIP3   OH229940   6.831   6.209   5.628
10000TIP3    H129941   6.826   6.168   5.714
10000TIP3    H229942   6.790   6.146   5.568
10001TIP3   OH229943   4.696   5.048   2.020
10001TIP3    H129944   4.610   5.081   1.993
10001TIP3    H229945   4.749   5.048   1.940
10002TIP3   OH229946   3.173   1.496   4.991
10002TIP3    H129947   3.189   1.428   5.057
10002TIP3    H229948   3.105   1.460   4.935
10003TIP3   OH229949   7.456   6.802   6.645
10003TIP3    H129950   7.378   6.832   6.692
10003TIP3    H229951   7.425   6.784   6.556
10004TIP3   OH229952   1.991   2.592   3.776
10004TIP3    H129953   1.896   2.582   3.779
10004TIP3    H229954   2.018   2.594   3.868
10005TIP3   OH229955   4.593   1.199   6.367
10005TIP3    H129956   4.510   1.239   6.339
10005TIP3    H229957   4.618   1.143   6.293
10006TIP3   OH229958   0.560   4.765   3.859
10006TIP3    H129959   0.499   4.700   3.825
10006TIP3    H229960   0.562   4.834   3.792
10007TIP3   OH229961   4.342   5.134   6.360
10007TIP3    H129962   4.326   5.186   6.439
10007TIP3    H229963   4.301   5.184   6.290
10008TIP3   OH229964   7.673   7.407   3.816
10008TIP3    H129965   7.682   7.476   3.882
10008TIP3    H229966   7.662   7.454   3.734
10009TIP3   OH229967   1.417   3.825   2.853
10009TIP3    H129968   1.400   3.755   2.915
10009TIP3    H229969   1.353   3.813   2.784
10010TIP3   OH229970   3.893   5.800   6.140
10010TIP3    H129971   3.833   5.866   6.173
10010TIP3    H229972   3.967   5.849   6.105
10011TIP3   OH229973   4.329   4.771   4.756
10011TIP3    H129974   4.402   4.832   4.743
10011TIP3    H229975   4.258   4.808   4.704
10012TIP3   OH229976   5.925   3.050   3.583
10012TIP3    H129977   5.956   3.124   3.636
10012TIP3    H229978   5.835   3.072   3.561
10013TIP3   OH229979   4.747   0.509   0.690
10013TIP3    H129980   4.715   0.541   0.605
10013TIP3    H229981   4.742   0.584   0.748
10014TIP3   OH229982   0.706   6.856   6.813
10014TIP3    H129983   0.743   6.777   6.773
10014TIP3    H229984   0.657   6.824   6.889
10015TIP3   OH229985   3.604   6.585   4.976
10015TIP3    H129986   3.684   6.588   5.029
10015TIP3    H229987   3.598   6.494   4.948
10016TIP3   OH229988   6.525   1.795   0.155
10016TIP3    H129989   6.483   1.857   0.095
10016TIP3    H229990   6.503   1.709   0.121
10017TIP3   OH229991   5.937   4.449   0.410
10017TIP3    H129992   5.903   4.386   0.347
10017TIP3    H229993   5.861   4.501   0.436
10018TIP3   OH229994   0.483   5.143   3.230
10018TIP3    H129995   0.418   5.174   3.167
10018TIP3    H229996   0.454   5.056   3.255
10019TIP3   OH229997   0.244   4.784   5.570
10019TIP3    H129998   0.326   4.733   5.570
10019TIP3    H229999   0.267   4.866   5.528
10020TIP3   OH230000   8.028   2.083   6.186
10020TIP3    H130001   7.939   2.107   6.212
10020TIP3    H230002   8.026   2.083   6.090
10021TIP3   OH230003   1.700   7.127   3.100
10021TIP3    H130004   1.723   7.052   3.046
10021TIP3    H230005   1.780   7.180   3.103
10022TIP3   OH230006   5.679   0.770   4.237
10022TIP3    H130007   5.593   0.752   4.274
10022TIP3    H230008   5.687   0.866   4.241
10023TIP3   OH230009   7.076   1.215   2.174
10023TIP3    H130010   7.073   1.218   2.078
10023TIP3    H230011   7.141   1.148   2.194
10024TIP3   OH230012   5.302   4.052   5.213
10024TIP3    H130013   5.284   4.124   5.274
10024TIP3    H230014   5.347   4.093   5.139
10025TIP3   OH230015   4.387   2.609   4.536
10025TIP3    H130016   4.324   2.663   4.488
10025TIP3    H230017   4.447   2.672   4.576
10026TIP3   OH230018   7.451   0.040   5.955
10026TIP3    H130019   7.365   0.081   5.944
10026TIP3    H230020   7.451  -0.033   5.893
10027TIP3   OH230021   1.625   7.207   6.394
10027TIP3    H130022   1.600   7.271   6.460
10027TIP3    H230023   1.621   7.255   6.311
10028TIP3   OH230024   7.561   0.299   1.700
10028TIP3    H130025   7.611   0.225   1.735
10028TIP3    H230026   7.511   0.263   1.627
10029TIP3   OH230027   7.107   4.103   1.759
10029TIP3    H130028   7.134   4.181   1.710
10029TIP3    H230029   7.189   4.055   1.773
10030TIP3   OH230030   2.511   4.914   4.560
10030TIP3    H130031   2.439   4.852   4.546
10030TIP3    H230032   2.569   4.900   4.484
10031TIP3   OH230033   4.971   6.356   1.377
10031TIP3    H130034   4.942   6.280   1.327
10031TIP3    H230035   5.025   6.320   1.447
10032TIP3   OH230036   6.586   2.697   1.437
10032TIP3    H130037   6.601   2.604   1.424
10032TIP3    H230038   6.493   2.704   1.457
10033TIP3   OH230039   1.655   3.384   1.945
10033TIP3    H130040   1.655   3.473   1.910
10033TIP3    H230041   1.578   3.381   2.003
10034TIP3   OH230042   7.955   3.543   3.946
10034TIP3    H130043   7.903   3.524   4.024
10034TIP3    H230044   8.042   3.508   3.966
10035TIP3   OH230045   4.006   0.922   2.751
10035TIP3    H130046   4.038   0.891   2.835
10035TIP3    H230047   4.046   1.008   2.739
10036TIP3   OH230048   8.080   3.112   0.815
10036TIP3    H130049   8.036   3.093   0.898
10036TIP3    H230050   8.155   3.053   0.813
10037TIP3   OH230051   7.345   3.411   4.983
10037TIP3    H130052   7.279   3.373   4.925
10037TIP3    H230053   7.325   3.505   4.984
10038TIP3   OH230054   8.305   1.191   0.062
10038TIP3    H130055   8.399   1.208   0.070
10038TIP3    H230056   8.293   1.163  -0.029
10039TIP3   OH230057   7.306   7.427   0.851
10039TIP3    H130058   7.230   7.378   0.820
10039TIP3    H230059   7.371   7.360   0.874
10040TIP3   OH230060   6.256   0.830   3.764
10040TIP3    H130061   6.300   0.812   3.847
10040TIP3    H230062   6.308   0.899   3.723
10041TIP3   OH230063   5.095   1.299   1.515
10041TIP3    H130064   5.032   1.362   1.550
10041TIP3    H230065   5.041   1.234   1.471
10042TIP3   OH230066   1.076   2.982   0.256
10042TIP3    H130067   1.169   2.992   0.278
10042TIP3    H230068   1.073   2.982   0.161
10043TIP3   OH230069   6.243   7.715   4.043
10043TIP3    H130070   6.229   7.764   3.962
10043TIP3    H230071   6.206   7.770   4.112
10044TIP3   OH230072   6.166   2.653   5.324
10044TIP3    H130073   6.255   2.619   5.321
10044TIP3    H230074   6.154   2.696   5.239
10045TIP3   OH230075   5.161   0.375   0.626
10045TIP3    H130076   5.197   0.372   0.538
10045TIP3    H230077   5.100   0.302   0.630
10046TIP3   OH230078   0.151   2.110   5.012
10046TIP3    H130079   0.081   2.054   5.045
10046TIP3    H230080   0.190   2.150   5.090
10047TIP3   OH230081   4.311   3.158   6.554
10047TIP3    H130082   4.269   3.242   6.572
10047TIP3    H230083   4.334   3.124   6.640
10048TIP3   OH230084   6.301   2.469   1.037
10048TIP3    H130085   6.272   2.477   1.128
10048TIP3    H230086   6.234   2.516   0.987
10049TIP3   OH230087   5.927   5.575   6.834
10049TIP3    H130088   5.851   5.521   6.814
10049TIP3    H230089   6.001   5.513   6.834
10050TIP3   OH230090   2.586   6.782   4.717
10050TIP3    H130091   2.610   6.710   4.659
10050TIP3    H230092   2.669   6.821   4.744
10051TIP3   OH230093   3.899   6.637   4.050
10051TIP3    H130094   3.827   6.613   3.991
10051TIP3    H230095   3.859   6.638   4.137
10052TIP3   OH230096   0.027   5.564   3.700
10052TIP3    H130097   0.106   5.542   3.650
10052TIP3    H230098  -0.029   5.611   3.639
10053TIP3   OH230099   2.103   2.491   2.807
10053TIP3    H130100   2.068   2.566   2.759
10053TIP3    H230101   2.026   2.440   2.832
10054TIP3   OH230102   1.992   2.466   2.057
10054TIP3    H130103   1.901   2.440   2.072
10054TIP3    H230104   1.987   2.560   2.036
10055TIP3   OH230105   0.582   3.330   5.971
10055TIP3    H130106   0.610   3.375   6.051
10055TIP3    H230107   0.612   3.240   5.982
10056TIP3   OH230108   5.113   2.834   5.506
10056TIP3    H130109   5.150   2.773   5.569
10056TIP3    H230110   5.129   2.793   5.421
10057TIP3   OH230111   1.788   5.987   4.862
10057TIP3    H130112   1.808   6.073   4.824
10057TIP3    H230113   1.795   5.926   4.788
10058TIP3   OH230114   1.941   5.955   2.481
10058TIP3    H130115   1.915   5.999   2.562
10058TIP3    H230116   2.034   5.975   2.471
10059TIP3   OH230117   4.830   1.947   5.928
10059TIP3    H130118   4.920   1.978   5.919
10059TIP3    H230119   4.794   1.998   6.001
10060TIP3   OH230120   4.153   2.038   2.863
10060TIP3    H130121   4.060   2.013   2.869
10060TIP3    H230122   4.175   2.070   2.951
10061TIP3   OH230123   3.746   5.331   5.179
10061TIP3    H130124   3.827   5.326   5.129
10061TIP3    H230125   3.704   5.412   5.149
10062TIP3   OH230126   2.898   1.136   1.995
10062TIP3    H130127   2.847   1.216   1.983
10062TIP3    H230128   2.922   1.109   1.907
10063TIP3   OH230129   2.060   4.290   3.643
10063TIP3    H130130   2.111   4.259   3.568
10063TIP3    H230131   2.107   4.367   3.673
10064TIP3   OH230132   5.210   0.298   4.512
10064TIP3    H130133   5.181   0.356   4.583
10064TIP3    H230134   5.152   0.319   4.439
10065TIP3   OH230135   2.173   7.055   5.917
10065TIP3    H130136   2.237   7.074   5.986
10065TIP3    H230137   2.089   7.050   5.963
10066TIP3   OH230138   4.748   5.327   4.433
10066TIP3    H130139   4.827   5.315   4.486
10066TIP3    H230140   4.760   5.268   4.359
10067TIP3   OH230141   5.651   2.720   1.149
10067TIP3    H130142   5.694   2.635   1.135
10067TIP3    H230143   5.718   2.773   1.193
10068TIP3   OH230144   1.254   4.459   3.972
10068TIP3    H130145   1.215   4.479   4.058
10068TIP3    H230146   1.246   4.541   3.923
10069TIP3   OH230147   2.111   0.859   6.252
10069TIP3    H130148   2.083   0.932   6.308
10069TIP3    H230149   2.157   0.901   6.179
10070TIP3   OH230150   3.053   3.825   6.536
10070TIP3    H130151   3.050   3.861   6.625
10070TIP3    H230152   3.144   3.838   6.508
10071TIP3   OH230153   4.779   7.003   1.207
10071TIP3    H130154   4.859   6.951   1.211
10071TIP3    H230155   4.729   6.964   1.135
10072TIP3   OH230156   7.864   7.319   1.786
10072TIP3    H130157   7.930   7.266   1.742
10072TIP3    H230158   7.888   7.316   1.878
10073TIP3   OH230159   8.032   6.035   6.150
10073TIP3    H130160   8.117   6.053   6.190
10073TIP3    H230161   8.052   6.013   6.059
10074TIP3   OH230162   4.364   6.686   2.323
10074TIP3    H130163   4.331   6.718   2.407
10074TIP3    H230164   4.456   6.664   2.339
10075TIP3   OH230165   7.104   0.161   2.415
10075TIP3    H130166   7.022   0.210   2.404
10075TIP3    H230167   7.075   0.072   2.436
10076TIP3   OH230168   7.225   5.933   0.251
10076TIP3    H130169   7.236   5.897   0.339
10076TIP3    H230170   7.303   5.987   0.238
10077TIP3   OH230171   4.809   0.103   2.291
10077TIP3    H130172   4.851   0.183   2.323
10077TIP3    H230173   4.793   0.121   2.198
10078TIP3   OH230174   0.984   6.663   5.496
10078TIP3    H130175   0.897   6.679   5.459
10078TIP3    H230176   0.975   6.685   5.589
10079TIP3   OH230177   0.884   3.253   1.814
10079TIP3    H130178   0.876   3.294   1.900
10079TIP3    H230179   0.957   3.191   1.824
10080TIP3   OH230180   2.227   2.423   5.091
10080TIP3    H130181   2.217   2.517   5.077
10080TIP3    H230182   2.186   2.406   5.176
10081TIP3   OH230183   6.642   4.212   3.493
10081TIP3    H130184   6.588   4.284   3.459
10081TIP3    H230185   6.691   4.251   3.565
10082TIP3   OH230186   5.371   3.210   4.361
10082TIP3    H130187   5.393   3.172   4.276
10082TIP3    H230188   5.453   3.247   4.393
10083TIP3   OH230189   5.835   3.519   0.615
10083TIP3    H130190   5.793   3.513   0.701
10083TIP3    H230191   5.762   3.525   0.554
10084TIP3   OH230192   2.169   2.434   0.222
10084TIP3    H130193   2.148   2.342   0.240
10084TIP3    H230194   2.153   2.479   0.305
10085TIP3   OH230195   5.259   6.136   0.991
10085TIP3    H130196   5.339   6.187   0.982
10085TIP3    H230197   5.279   6.054   0.946
10086TIP3   OH230198   5.999   3.546   1.174
10086TIP3    H130199   5.981   3.452   1.167
10086TIP3    H230200   6.015   3.574   1.084
10087TIP3   OH230201   6.391   0.895   1.826
10087TIP3    H130202   6.418   0.916   1.915
10087TIP3    H230203   6.473   0.892   1.776
10088TIP3   OH230204   2.570   7.845   0.170
10088TIP3    H130205   2.554   7.922   0.224
10088TIP3    H230206   2.577   7.879   0.081
10089TIP3   OH230207   6.723   6.543   2.570
10089TIP3    H130208   6.642   6.561   2.619
10089TIP3    H230209   6.752   6.628   2.540
10090TIP3   OH230210   0.274   4.943   3.568
10090TIP3    H130211   0.351   4.998   3.554
10090TIP3    H230212   0.220   4.958   3.490
10091TIP3   OH230213   5.198   1.516   5.972
10091TIP3    H130214   5.212   1.607   5.998
10091TIP3    H230215   5.227   1.512   5.881
10092TIP3   OH230216   7.647   0.688   0.751
10092TIP3    H130217   7.609   0.631   0.818
10092TIP3    H230218   7.629   0.777   0.781
10093TIP3   OH230219   5.631   5.161   0.043
10093TIP3    H130220   5.570   5.230   0.069
10093TIP3    H230221   5.718   5.200   0.054
10094TIP3   OH230222   6.739   2.863   0.432
10094TIP3    H130223   6.770   2.800   0.367
10094TIP3    H230224   6.788   2.840   0.512
10095TIP3   OH230225   4.676   0.362   6.491
10095TIP3    H130226   4.628   0.416   6.429
10095TIP3    H230227   4.738   0.313   6.438
10096TIP3   OH230228   1.139   3.380   5.173
10096TIP3    H130229   1.078   3.433   5.121
10096TIP3    H230230   1.085   3.349   5.246
10097TIP3   OH230231   4.831   2.002   1.509
10097TIP3    H130232   4.791   2.083   1.478
10097TIP3    H230233   4.893   2.030   1.576
10098TIP3   OH230234   2.860   3.108   3.769
10098TIP3    H130235   2.783   3.055   3.751
10098TIP3    H230236   2.924   3.082   3.702
10099TIP3   OH230237   1.218   6.172   5.609
10099TIP3    H130238   1.123   6.177   5.606
10099TIP3    H230239   1.247   6.260   5.584
10100TIP3   OH230240   4.717   4.498   0.123
10100TIP3    H130241   4.628   4.483   0.092
10100TIP3    H230242   4.773   4.452   0.061
10101TIP3   OH230243   1.982   3.578   1.358
10101TIP3    H130244   2.021   3.602   1.442
10101TIP3    H230245   2.049   3.523   1.316
10102TIP3   OH230246   2.488   2.459   0.287
10102TIP3    H130247   2.416   2.508   0.246
10102TIP3    H230248   2.445   2.386   0.331
10103TIP3   OH230249   2.561   0.539   5.096
10103TIP3    H130250   2.482   0.485   5.098
10103TIP3    H230251   2.589   0.545   5.187
10104TIP3   OH230252   5.849   1.865   6.491
10104TIP3    H130253   5.807   1.936   6.442
10104TIP3    H230254   5.906   1.822   6.428
10105TIP3   OH230255   5.627   1.841   2.062
10105TIP3    H130256   5.644   1.787   2.139
10105TIP3    H230257   5.660   1.928   2.086
10106TIP3   OH230258   5.915   0.028   2.977
10106TIP3    H130259   5.868   0.010   3.058
10106TIP3    H230260   5.962   0.110   2.994
10107TIP3   OH230261   6.435   1.290   0.930
10107TIP3    H130262   6.488   1.223   0.973
10107TIP3    H230263   6.473   1.298   0.843
10108TIP3   OH230264   1.940   6.814   5.979
10108TIP3    H130265   1.981   6.729   5.966
10108TIP3    H230266   1.884   6.802   6.056
10109TIP3   OH230267   3.937   7.473   3.504
10109TIP3    H130268   3.984   7.434   3.577
10109TIP3    H230269   3.953   7.413   3.431
10110TIP3   OH230270   1.744   2.752   0.684
10110TIP3    H130271   1.746   2.761   0.780
10110TIP3    H230272   1.766   2.660   0.668
10111TIP3   OH230273   6.652   5.947   4.923
10111TIP3    H130274   6.613   6.032   4.943
10111TIP3    H230275   6.732   5.969   4.876
10112TIP3   OH230276   3.692   1.674   2.730
10112TIP3    H130277   3.716   1.764   2.707
10112TIP3    H230278   3.768   1.640   2.776
10113TIP3   OH230279   1.082   5.470   4.356
10113TIP3    H130280   1.138   5.543   4.331
10113TIP3    H230281   1.085   5.468   4.452
10114TIP3   OH230282   7.972   4.826   4.469
10114TIP3    H130283   8.060   4.815   4.431
10114TIP3    H230284   7.913   4.822   4.394
10115TIP3   OH230285   3.299   4.146   5.512
10115TIP3    H130286   3.358   4.221   5.522
10115TIP3    H230287   3.299   4.129   5.417
10116TIP3   OH230288   2.290   5.692   5.102
10116TIP3    H130289   2.209   5.643   5.114
10116TIP3    H230290   2.275   5.774   5.149
10117TIP3   OH230291   0.405   5.443   1.630
10117TIP3    H130292   0.474   5.486   1.580
10117TIP3    H230293   0.387   5.503   1.703
10118TIP3   OH230294   5.815   1.117   3.642
10118TIP3    H130295   5.771   1.118   3.727
10118TIP3    H230296   5.797   1.030   3.607
10119TIP3   OH230297   7.293   5.435   1.440
10119TIP3    H130298   7.200   5.453   1.456
10119TIP3    H230299   7.294   5.351   1.394
10120TIP3   OH230300   1.665   5.833   2.029
10120TIP3    H130301   1.607   5.905   2.003
10120TIP3    H230302   1.747   5.852   1.984
10121TIP3   OH230303   5.530   2.952   4.063
10121TIP3    H130304   5.588   2.884   4.099
10121TIP3    H230305   5.585   3.000   4.001
10122TIP3   OH230306   2.987   7.419   1.140
10122TIP3    H130307   2.912   7.390   1.087
10122TIP3    H230308   3.064   7.394   1.089
10123TIP3   OH230309   6.503   2.347   4.012
10123TIP3    H130310   6.592   2.371   4.037
10123TIP3    H230311   6.448   2.419   4.042
10124TIP3   OH230312   1.658   1.148   4.602
10124TIP3    H130313   1.679   1.199   4.524
10124TIP3    H230314   1.563   1.134   4.597
10125TIP3   OH230315   4.738   1.714   6.249
10125TIP3    H130316   4.800   1.767   6.199
10125TIP3    H230317   4.719   1.639   6.193
10126TIP3   OH230318   5.280   5.781   5.560
10126TIP3    H130319   5.322   5.851   5.510
10126TIP3    H230320   5.242   5.826   5.636
10127TIP3   OH230321   1.588   3.139   2.173
10127TIP3    H130322   1.578   3.190   2.254
10127TIP3    H230323   1.682   3.144   2.154
10128TIP3   OH230324   2.382   6.570   6.503
10128TIP3    H130325   2.290   6.545   6.495
10128TIP3    H230326   2.430   6.489   6.485
10129TIP3   OH230327   1.278   6.863   2.905
10129TIP3    H130328   1.365   6.849   2.942
10129TIP3    H230329   1.247   6.776   2.882
10130TIP3   OH230330   0.233   5.200   6.693
10130TIP3    H130331   0.264   5.144   6.622
10130TIP3    H230332   0.143   5.172   6.708
10131TIP3   OH230333   7.260   0.127   0.254
10131TIP3    H130334   7.322   0.066   0.292
10131TIP3    H230335   7.293   0.144   0.166
10132TIP3   OH230336   5.905   2.872   5.321
10132TIP3    H130337   5.989   2.829   5.305
10132TIP3    H230338   5.847   2.836   5.253
10133TIP3   OH230339   0.151   4.720   2.983
10133TIP3    H130340   0.085   4.651   2.980
10133TIP3    H230341   0.146   4.762   2.897
10134TIP3   OH230342   5.090   6.226   1.592
10134TIP3    H130343   5.042   6.222   1.675
10134TIP3    H230344   5.073   6.141   1.552
10135TIP3   OH230345   3.062   3.358   0.464
10135TIP3    H130346   3.022   3.391   0.383
10135TIP3    H230347   3.102   3.435   0.505
10136TIP3   OH230348   2.791   7.838   3.119
10136TIP3    H130349   2.799   7.744   3.131
10136TIP3    H230350   2.836   7.876   3.196
10137TIP3   OH230351   1.946   4.056   5.595
10137TIP3    H130352   1.890   4.003   5.652
10137TIP3    H230353   1.983   4.122   5.654
10138TIP3   OH230354   1.540   3.406   3.467
10138TIP3    H130355   1.517   3.383   3.557
10138TIP3    H230356   1.580   3.326   3.431
10139TIP3   OH230357   6.947   4.135   6.123
10139TIP3    H130358   6.972   4.109   6.035
10139TIP3    H230359   7.030   4.146   6.170
10140TIP3   OH230360   7.166   0.628   5.951
10140TIP3    H130361   7.244   0.610   6.003
10140TIP3    H230362   7.095   0.586   5.999
10141TIP3   OH230363   0.577   6.419   3.431
10141TIP3    H130364   0.660   6.390   3.471
10141TIP3    H230365   0.574   6.513   3.448
10142TIP3   OH230366   5.108   2.848   1.739
10142TIP3    H130367   5.164   2.811   1.671
10142TIP3    H230368   5.165   2.857   1.815
10143TIP3   OH230369   3.684   4.931   6.636
10143TIP3    H130370   3.646   4.847   6.611
10143TIP3    H230371   3.760   4.941   6.579
10144TIP3   OH230372   1.398   0.539   4.322
10144TIP3    H130373   1.457   0.464   4.329
10144TIP3    H230374   1.450   0.614   4.349
10145TIP3   OH230375   6.778   5.144   0.013
10145TIP3    H130376   6.833   5.205   0.062
10145TIP3    H230377   6.839   5.080  -0.023
10146TIP3   OH230378   5.748   1.211   2.260
10146TIP3    H130379   5.760   1.260   2.179
10146TIP3    H230380   5.827   1.229   2.311
10147TIP3   OH230381   3.464   7.815   4.896
10147TIP3    H130382   3.558   7.811   4.916
10147TIP3    H230383   3.449   7.741   4.837
10148TIP3   OH230384   4.909   2.111   6.332
10148TIP3    H130385   4.879   2.074   6.249
10148TIP3    H230386   4.873   2.200   6.333
10149TIP3   OH230387   0.121   3.678   0.800
10149TIP3    H130388   0.204   3.681   0.847
10149TIP3    H230389   0.139   3.725   0.718
10150TIP3   OH230390   3.033   2.648   4.059
10150TIP3    H130391   2.941   2.673   4.069
10150TIP3    H230392   3.049   2.585   4.129
10151TIP3   OH230393   0.198   5.746   0.256
10151TIP3    H130394   0.122   5.733   0.198
10151TIP3    H230395   0.240   5.660   0.259
10152TIP3   OH230396   1.309   6.445   5.011
10152TIP3    H130397   1.397   6.449   5.048
10152TIP3    H230398   1.319   6.395   4.930
10153TIP3   OH230399   1.278   7.780   5.701
10153TIP3    H130400   1.371   7.756   5.699
10153TIP3    H230401   1.265   7.814   5.790
10154TIP3   OH230402   1.228   3.689   1.598
10154TIP3    H130403   1.159   3.709   1.535
10154TIP3    H230404   1.219   3.756   1.666
10155TIP3   OH230405   5.157   1.149   0.144
10155TIP3    H130406   5.087   1.212   0.160
10155TIP3    H230407   5.130   1.103   0.064
10156TIP3   OH230408   7.555   4.233   3.789
10156TIP3    H130409   7.557   4.254   3.695
10156TIP3    H230410   7.645   4.207   3.809
10157TIP3   OH230411   5.838   5.403   0.593
10157TIP3    H130412   5.787   5.450   0.527
10157TIP3    H230413   5.773   5.356   0.645
10158TIP3   OH230414   0.144   1.487   1.328
10158TIP3    H130415   0.084   1.475   1.254
10158TIP3    H230416   0.142   1.404   1.375
10159TIP3   OH230417   2.729   3.359   2.994
10159TIP3    H130418   2.639   3.391   3.000
10159TIP3    H230419   2.774   3.422   2.938
10160TIP3   OH230420   2.492   2.820   2.464
10160TIP3    H130421   2.413   2.805   2.516
10160TIP3    H230422   2.554   2.861   2.524
10161TIP3   OH230423   1.102   3.264   4.579
10161TIP3    H130424   1.130   3.173   4.584
10161TIP3    H230425   1.180   3.311   4.549
10162TIP3   OH230426   3.728   7.527   1.866
10162TIP3    H130427   3.785   7.496   1.936
10162TIP3    H230428   3.771   7.499   1.785
10163TIP3   OH230429   6.649   5.186   1.953
10163TIP3    H130430   6.652   5.091   1.967
10163TIP3    H230431   6.577   5.216   2.009
10164TIP3   OH230432   4.448   0.419   3.537
10164TIP3    H130433   4.422   0.509   3.557
10164TIP3    H230434   4.515   0.398   3.602
10165TIP3   OH230435   5.528   4.010   3.676
10165TIP3    H130436   5.519   3.940   3.741
10165TIP3    H230437   5.622   4.014   3.659
10166TIP3   OH230438   2.808   2.970   5.198
10166TIP3    H130439   2.834   2.965   5.290
10166TIP3    H230440   2.725   2.922   5.194
10167TIP3   OH230441   7.525   5.492   2.593
10167TIP3    H130442   7.585   5.446   2.534
10167TIP3    H230443   7.531   5.584   2.567
10168TIP3   OH230444   5.764   2.636   3.280
10168TIP3    H130445   5.767   2.691   3.359
10168TIP3    H230446   5.747   2.697   3.209
10169TIP3   OH230447   5.077   7.197   5.295
10169TIP3    H130448   5.069   7.279   5.343
10169TIP3    H230449   5.111   7.134   5.359
10170TIP3   OH230450   1.784   5.857   4.081
10170TIP3    H130451   1.841   5.801   4.029
10170TIP3    H230452   1.820   5.853   4.170
10171TIP3   OH230453   7.740   0.165   2.704
10171TIP3    H130454   7.676   0.182   2.772
10171TIP3    H230455   7.815   0.220   2.728
10172TIP3   OH230456   4.979   3.249   0.574
10172TIP3    H130457   4.979   3.180   0.507
10172TIP3    H230458   5.072   3.258   0.598
10173TIP3   OH230459   3.489   1.072   1.846
10173TIP3    H130460   3.428   1.128   1.894
10173TIP3    H230461   3.539   1.028   1.915
10174TIP3   OH230462   6.914   6.550   1.066
10174TIP3    H130463   6.927   6.477   1.126
10174TIP3    H230464   6.860   6.514   0.995
10175TIP3   OH230465   8.414   1.164   2.981
10175TIP3    H130466   8.325   1.197   2.975
10175TIP3    H230467   8.470   1.238   2.957
10176TIP3   OH230468   7.684   5.651   5.354
10176TIP3    H130469   7.711   5.718   5.417
10176TIP3    H230470   7.625   5.697   5.295
10177TIP3   OH230471   4.127   5.059   6.598
10177TIP3    H130472   4.218   5.085   6.585
10177TIP3    H230473   4.118   5.046   6.693
10178TIP3   OH230474   6.109   2.209   5.747
10178TIP3    H130475   6.189   2.175   5.788
10178TIP3    H230476   6.072   2.135   5.700
10179TIP3   OH230477   6.662   0.968   5.039
10179TIP3    H130478   6.589   0.927   5.086
10179TIP3    H230479   6.711   1.015   5.106
10180TIP3   OH230480   2.247   3.139   2.958
10180TIP3    H130481   2.322   3.115   2.904
10180TIP3    H230482   2.178   3.162   2.895
10181TIP3   OH230483   6.929   3.364   4.956
10181TIP3    H130484   6.891   3.451   4.941
10181TIP3    H230485   6.883   3.307   4.894
10182TIP3   OH230486   4.082   6.026   0.755
10182TIP3    H130487   4.164   6.069   0.731
10182TIP3    H230488   4.108   5.938   0.782
10183TIP3   OH230489   1.375   6.023   5.772
10183TIP3    H130490   1.335   6.102   5.738
10183TIP3    H230491   1.355   5.956   5.706
10184TIP3   OH230492   3.984   3.353   6.102
10184TIP3    H130493   3.933   3.321   6.176
10184TIP3    H230494   3.940   3.433   6.075
10185TIP3   OH230495   5.430   2.041   0.523
10185TIP3    H130496   5.356   2.076   0.571
10185TIP3    H230497   5.397   2.025   0.435
10186TIP3   OH230498   5.104   4.939   0.075
10186TIP3    H130499   5.019   4.894   0.076
10186TIP3    H230500   5.117   4.964  -0.017
10187TIP3   OH230501   0.845   4.170   3.041
10187TIP3    H130502   0.793   4.236   3.086
10187TIP3    H230503   0.802   4.160   2.956
10188TIP3   OH230504   5.914   1.700   6.049
10188TIP3    H130505   5.888   1.676   5.960
10188TIP3    H230506   5.973   1.630   6.077
10189TIP3   OH230507   4.042   7.754   2.757
10189TIP3    H130508   4.020   7.783   2.846
10189TIP3    H230509   4.040   7.658   2.763
10190TIP3   OH230510   2.380   5.093   4.402
10190TIP3    H130511   2.293   5.095   4.441
10190TIP3    H230512   2.433   5.043   4.464
10191TIP3   OH230513   1.792   0.019   0.123
10191TIP3    H130514   1.733   0.089   0.095
10191TIP3    H230515   1.733  -0.047   0.160
10192TIP3   OH230516   5.158   3.602   0.469
10192TIP3    H130517   5.131   3.632   0.382
10192TIP3    H230518   5.253   3.618   0.472
10193TIP3   OH230519   4.710   7.139   2.119
10193TIP3    H130520   4.703   7.213   2.059
10193TIP3    H230521   4.793   7.153   2.164
10194TIP3   OH230522   6.797   0.207   0.562
10194TIP3    H130523   6.761   0.237   0.646
10194TIP3    H230524   6.861   0.139   0.586
10195TIP3   OH230525   6.805   6.672   3.051
10195TIP3    H130526   6.789   6.579   3.066
10195TIP3    H230527   6.740   6.717   3.104
10196TIP3   OH230528   5.037   6.675   3.729
10196TIP3    H130529   5.073   6.761   3.747
10196TIP3    H230530   5.112   6.615   3.733
10197TIP3   OH230531   8.141   2.660   5.583
10197TIP3    H130532   8.069   2.659   5.520
10197TIP3    H230533   8.184   2.575   5.572
10198TIP3   OH230534   3.116   2.419   2.084
10198TIP3    H130535   3.163   2.448   2.005
10198TIP3    H230536   3.111   2.498   2.139
10199TIP3   OH230537   3.186   0.479   3.897
10199TIP3    H130538   3.230   0.487   3.813
10199TIP3    H230539   3.254   0.495   3.963
10200TIP3   OH230540   3.234   7.560   4.989
10200TIP3    H130541   3.207   7.607   4.910
10200TIP3    H230542   3.201   7.471   4.977
10201TIP3   OH230543   2.867   4.510   0.174
10201TIP3    H130544   2.932   4.462   0.124
10201TIP3    H230545   2.784   4.468   0.152
10202TIP3   OH230546   4.312   2.975   2.151
10202TIP3    H130547   4.337   2.905   2.091
10202TIP3    H230548   4.390   2.991   2.204
10203TIP3   OH230549   2.535   6.256   4.932
10203TIP3    H130550   2.615   6.219   4.893
10203TIP3    H230551   2.515   6.332   4.877
10204TIP3   OH230552   4.427   1.216   1.027
10204TIP3    H130553   4.377   1.144   0.988
10204TIP3    H230554   4.509   1.175   1.054
10205TIP3   OH230555   4.709   6.778   5.184
10205TIP3    H130556   4.683   6.817   5.268
10205TIP3    H230557   4.632   6.788   5.128
10206TIP3   OH230558   8.029   6.607   5.504
10206TIP3    H130559   7.967   6.534   5.513
10206TIP3    H230560   8.113   6.570   5.529
10207TIP3   OH230561   5.881   3.099   1.801
10207TIP3    H130562   5.942   3.049   1.747
10207TIP3    H230563   5.865   3.043   1.877
10208TIP3   OH230564   7.501   1.029   0.139
10208TIP3    H130565   7.531   1.070   0.220
10208TIP3    H230566   7.406   1.041   0.140
10209TIP3   OH230567   0.994   1.141   1.370
10209TIP3    H130568   1.048   1.156   1.448
10209TIP3    H230569   1.057   1.112   1.304
10210TIP3   OH230570   6.444   6.995   4.423
10210TIP3    H130571   6.458   7.070   4.366
10210TIP3    H230572   6.437   7.033   4.511
10211TIP3   OH230573   5.419   7.455   2.903
10211TIP3    H130574   5.327   7.448   2.879
10211TIP3    H230575   5.466   7.439   2.821
10212TIP3   OH230576   7.608   1.839   6.833
10212TIP3    H130577   7.694   1.855   6.873
10212TIP3    H230578   7.598   1.744   6.836
10213TIP3   OH230579   2.326   1.510   3.164
10213TIP3    H130580   2.272   1.497   3.087
10213TIP3    H230581   2.272   1.480   3.237
10214TIP3   OH230582   3.115   7.768   2.760
10214TIP3    H130583   3.112   7.813   2.844
10214TIP3    H230584   3.207   7.768   2.735
10215TIP3   OH230585   5.943   2.310   0.158
10215TIP3    H130586   5.879   2.365   0.113
10215TIP3    H230587   6.003   2.281   0.089
10216TIP3   OH230588   1.713   5.545   2.460
10216TIP3    H130589   1.709   5.596   2.380
10216TIP3    H230590   1.734   5.608   2.528
10217TIP3   OH230591   0.555   0.796   4.550
10217TIP3    H130592   0.617   0.845   4.605
10217TIP3    H230593   0.610   0.742   4.494
10218TIP3   OH230594   7.151   5.701   3.722
10218TIP3    H130595   7.108   5.615   3.722
10218TIP3    H230596   7.081   5.763   3.741
10219TIP3   OH230597   3.332   6.903   0.347
10219TIP3    H130598   3.353   6.970   0.413
10219TIP3    H230599   3.335   6.951   0.264
10220TIP3   OH230600   7.356   2.326   6.333
10220TIP3    H130601   7.436   2.305   6.381
10220TIP3    H230602   7.377   2.407   6.286
10221TIP3   OH230603   3.259   1.291   2.907
10221TIP3    H130604   3.169   1.307   2.877
10221TIP3    H230605   3.307   1.270   2.827
10222TIP3   OH230606   7.475   2.616   1.800
10222TIP3    H130607   7.392   2.640   1.759
10222TIP3    H230608   7.524   2.699   1.805
10223TIP3   OH230609   3.967   3.559   2.948
10223TIP3    H130610   4.047   3.589   2.904
10223TIP3    H230611   3.901   3.558   2.879
10224TIP3   OH230612   4.107   6.840   4.092
10224TIP3    H130613   4.050   6.916   4.102
10224TIP3    H230614   4.046   6.767   4.075
10225TIP3   OH230615   4.770   2.866   4.129
10225TIP3    H130616   4.859   2.843   4.105
10225TIP3    H230617   4.738   2.919   4.056
10226TIP3   OH230618   5.925   4.574   0.089
10226TIP3    H130619   5.948   4.540   0.175
10226TIP3    H230620   5.975   4.655   0.082
10227TIP3   OH230621   1.580   1.324   5.778
10227TIP3    H130622   1.554   1.338   5.869
10227TIP3    H230623   1.668   1.362   5.772
10228TIP3   OH230624   1.649   1.768   2.488
10228TIP3    H130625   1.682   1.830   2.423
10228TIP3    H230626   1.595   1.821   2.546
10229TIP3   OH230627   7.334   7.285   6.039
10229TIP3    H130628   7.263   7.343   6.009
10229TIP3    H230629   7.337   7.216   5.973
10230TIP3   OH230630   7.448   3.775   4.671
10230TIP3    H130631   7.391   3.700   4.684
10230TIP3    H230632   7.506   3.750   4.599
10231TIP3   OH230633   1.917   1.214   0.094
10231TIP3    H130634   1.964   1.132   0.079
10231TIP3    H230635   1.828   1.197   0.065
10232TIP3   OH230636   7.338   6.985   2.358
10232TIP3    H130637   7.320   6.896   2.391
10232TIP3    H230638   7.275   6.998   2.288
10233TIP3   OH230639   8.259   7.921   5.475
10233TIP3    H130640   8.280   7.829   5.491
10233TIP3    H230641   8.312   7.969   5.538
10234TIP3   OH230642   6.960   0.474   4.319
10234TIP3    H130643   7.053   0.498   4.316
10234TIP3    H230644   6.957   0.395   4.374
10235TIP3   OH230645   6.462   2.919   1.638
10235TIP3    H130646   6.464   2.991   1.701
10235TIP3    H230647   6.395   2.945   1.574
10236TIP3   OH230648   1.648   0.193   6.402
10236TIP3    H130649   1.645   0.097   6.397
10236TIP3    H230650   1.741   0.214   6.408
10237TIP3   OH230651   5.911   4.907   6.595
10237TIP3    H130652   5.899   5.001   6.607
10237TIP3    H230653   5.852   4.885   6.523
10238TIP3   OH230654   7.981   1.681   4.569
10238TIP3    H130655   8.073   1.703   4.583
10238TIP3    H230656   7.972   1.674   4.474
10239TIP3   OH230657   3.534   0.309   5.650
10239TIP3    H130658   3.585   0.259   5.586
10239TIP3    H230659   3.538   0.399   5.618
10240TIP3   OH230660   2.269   0.306   0.789
10240TIP3    H130661   2.215   0.375   0.829
10240TIP3    H230662   2.344   0.297   0.848
10241TIP3   OH230663   6.739   6.703   5.090
10241TIP3    H130664   6.797   6.629   5.108
10241TIP3    H230665   6.788   6.780   5.122
10242TIP3   OH230666   4.158   2.143   2.606
10242TIP3    H130667   4.132   2.118   2.695
10242TIP3    H230668   4.241   2.189   2.618
10243TIP3   OH230669   1.789   7.858   1.080
10243TIP3    H130670   1.785   7.933   1.139
10243TIP3    H230671   1.697   7.837   1.062
10244TIP3   OH230672   2.577   0.082   3.092
10244TIP3    H130673   2.481   0.081   3.088
10244TIP3    H230674   2.598   0.169   3.126
10245TIP3   OH230675   0.370   5.360   4.105
10245TIP3    H130676   0.349   5.347   4.197
10245TIP3    H230677   0.356   5.454   4.090
10246TIP3   OH230678   7.614   1.246   1.608
10246TIP3    H130679   7.569   1.163   1.624
10246TIP3    H230680   7.663   1.231   1.527
10247TIP3   OH230681   8.035   2.430   3.113
10247TIP3    H130682   8.073   2.512   3.143
10247TIP3    H230683   8.005   2.387   3.193
10248TIP3   OH230684   7.028   1.845   4.770
10248TIP3    H130685   6.980   1.911   4.820
10248TIP3    H230686   7.087   1.805   4.834
10249TIP3   OH230687   1.229   5.755   3.742
10249TIP3    H130688   1.265   5.695   3.677
10249TIP3    H230689   1.165   5.808   3.694
10250TIP3   OH230690   7.071   5.720   6.601
10250TIP3    H130691   7.165   5.731   6.586
10250TIP3    H230692   7.030   5.744   6.518
10251TIP3   OH230693   5.270   1.967   1.509
10251TIP3    H130694   5.196   1.940   1.455
10251TIP3    H230695   5.261   2.062   1.516
10252TIP3   OH230696   5.492   0.548   2.480
10252TIP3    H130697   5.474   0.495   2.558
10252TIP3    H230698   5.496   0.485   2.408
10253TIP3   OH230699   6.604   1.261   0.528
10253TIP3    H130700   6.690   1.290   0.559
10253TIP3    H230701   6.548   1.338   0.536
10254TIP3   OH230702   3.585   6.615   4.548
10254TIP3    H130703   3.568   6.534   4.595
10254TIP3    H230704   3.658   6.656   4.595
10255TIP3   OH230705   5.782   5.190   6.313
10255TIP3    H130706   5.866   5.194   6.358
10255TIP3    H230707   5.784   5.107   6.266
10256TIP3   OH230708   3.585   3.194   2.349
10256TIP3    H130709   3.578   3.109   2.304
10256TIP3    H230710   3.617   3.172   2.436
10257TIP3   OH230711   3.423   6.502   2.485
10257TIP3    H130712   3.507   6.471   2.519
10257TIP3    H230713   3.358   6.453   2.534
10258TIP3   OH230714   3.326   2.414   2.767
10258TIP3    H130715   3.369   2.479   2.712
10258TIP3    H230716   3.233   2.433   2.758
10259TIP3   OH230717   7.523   4.672   3.310
10259TIP3    H130718   7.551   4.738   3.246
10259TIP3    H230719   7.598   4.664   3.369
10260TIP3   OH230720   3.096   6.408   3.115
10260TIP3    H130721   3.127   6.442   3.199
10260TIP3    H230722   3.030   6.472   3.088
10261TIP3   OH230723   7.025   5.152   2.951
10261TIP3    H130724   6.982   5.233   2.978
10261TIP3    H230725   7.047   5.166   2.859
10262TIP3   OH230726   3.693   6.101   4.945
10262TIP3    H130727   3.759   6.080   4.878
10262TIP3    H230728   3.679   6.195   4.935
10263TIP3   OH230729   2.340   2.937   0.783
10263TIP3    H130730   2.384   3.005   0.834
10263TIP3    H230731   2.327   2.865   0.844
10264TIP3   OH230732   4.123   5.170   4.770
10264TIP3    H130733   4.052   5.148   4.709
10264TIP3    H230734   4.202   5.171   4.715
10265TIP3   OH230735   8.394   5.429   2.591
10265TIP3    H130736   8.454   5.490   2.633
10265TIP3    H230737   8.308   5.451   2.627
10266TIP3   OH230738   7.254   2.789   6.457
10266TIP3    H130739   7.327   2.765   6.515
10266TIP3    H230740   7.201   2.849   6.510
10267TIP3   OH230741   5.990   1.282   5.331
10267TIP3    H130742   5.965   1.260   5.242
10267TIP3    H230743   5.977   1.377   5.337
10268TIP3   OH230744   4.756   2.228   2.269
10268TIP3    H130745   4.759   2.266   2.181
10268TIP3    H230746   4.727   2.138   2.254
10269TIP3   OH230747   1.003   5.150   5.575
10269TIP3    H130748   0.994   5.228   5.630
10269TIP3    H230749   1.083   5.165   5.525
10270TIP3   OH230750   1.991   1.713   3.855
10270TIP3    H130751   1.911   1.679   3.815
10270TIP3    H230752   2.056   1.710   3.784
10271TIP3   OH230753   7.626   2.459   0.137
10271TIP3    H130754   7.696   2.495   0.082
10271TIP3    H230755   7.589   2.387   0.085
10272TIP3   OH230756   5.712   7.701   5.817
10272TIP3    H130757   5.787   7.747   5.780
10272TIP3    H230758   5.741   7.610   5.823
10273TIP3   OH230759   4.271   0.192   4.459
10273TIP3    H130760   4.308   0.105   4.445
10273TIP3    H230761   4.194   0.177   4.513
10274TIP3   OH230762   7.008   6.843   0.826
10274TIP3    H130763   7.083   6.890   0.864
10274TIP3    H230764   7.047   6.764   0.789
10275TIP3   OH230765   7.498   6.551   5.684
10275TIP3    H130766   7.503   6.504   5.768
10275TIP3    H230767   7.563   6.621   5.692
10276TIP3   OH230768   7.340   4.105   3.580
10276TIP3    H130769   7.386   4.024   3.559
10276TIP3    H230770   7.307   4.137   3.496
10277TIP3   OH230771   3.780   7.083   0.965
10277TIP3    H130772   3.740   7.021   0.904
10277TIP3    H230773   3.813   7.028   1.036
10278TIP3   OH230774   0.442   5.530   0.220
10278TIP3    H130775   0.413   5.443   0.194
10278TIP3    H230776   0.501   5.515   0.294
10279TIP3   OH230777   8.003   0.293   0.641
10279TIP3    H130778   8.041   0.379   0.659
10279TIP3    H230779   8.036   0.237   0.712
10280TIP3   OH230780   7.091   4.832   1.400
10280TIP3    H130781   7.137   4.893   1.458
10280TIP3    H230782   7.079   4.880   1.318
10281TIP3   OH230783   1.497   2.576   5.269
10281TIP3    H130784   1.412   2.544   5.238
10281TIP3    H230785   1.561   2.532   5.213
10282TIP3   OH230786   7.905   6.850   0.091
10282TIP3    H130787   7.874   6.777   0.038
10282TIP3    H230788   7.979   6.814   0.140
10283TIP3   OH230789   3.298   4.339   2.223
10283TIP3    H130790   3.335   4.255   2.198
10283TIP3    H230791   3.236   4.319   2.292
10284TIP3   OH230792   1.457   0.054   0.731
10284TIP3    H130793   1.547   0.079   0.754
10284TIP3    H230794   1.462   0.032   0.638
10285TIP3   OH230795   6.131   0.129   2.376
10285TIP3    H130796   6.095   0.217   2.363
10285TIP3    H230797   6.213   0.129   2.327
10286TIP3   OH230798   7.058   5.335   6.076
10286TIP3    H130799   7.140   5.300   6.112
10286TIP3    H230800   7.043   5.415   6.126
10287TIP3   OH230801   0.762   7.321   4.167
10287TIP3    H130802   0.791   7.353   4.082
10287TIP3    H230803   0.699   7.387   4.197
10288TIP3   OH230804   3.564   4.289   5.943
10288TIP3    H130805   3.641   4.302   5.997
10288TIP3    H230806   3.572   4.200   5.909
10289TIP3   OH230807   0.078   2.310   2.368
10289TIP3    H130808  -0.016   2.319   2.384
10289TIP3    H230809   0.099   2.384   2.311
10290TIP3   OH230810   4.578   2.686   1.828
10290TIP3    H130811   4.644   2.692   1.897
10290TIP3    H230812   4.587   2.768   1.779
10291TIP3   OH230813   3.811   5.208   6.575
10291TIP3    H130814   3.801   5.150   6.501
10291TIP3    H230815   3.798   5.296   6.539
10292TIP3   OH230816   5.076   6.938   3.743
10292TIP3    H130817   5.079   7.018   3.690
10292TIP3    H230818   5.078   6.970   3.833
10293TIP3   OH230819   5.903   2.335   2.852
10293TIP3    H130820   5.842   2.291   2.794
10293TIP3    H230821   5.850   2.363   2.926
10294TIP3   OH230822   4.841   2.593   2.289
10294TIP3    H130823   4.799   2.533   2.226
10294TIP3    H230824   4.796   2.676   2.276
10295TIP3   OH230825   7.134   3.462   2.807
10295TIP3    H130826   7.164   3.449   2.897
10295TIP3    H230827   7.049   3.418   2.803
10296TIP3   OH230828   5.335   2.862   6.042
10296TIP3    H130829   5.309   2.780   6.001
10296TIP3    H230830   5.353   2.922   5.970
10297TIP3   OH230831   6.853   4.735   4.316
10297TIP3    H130832   6.802   4.679   4.258
10297TIP3    H230833   6.792   4.803   4.345
10298TIP3   OH230834   3.556   3.559   1.921
10298TIP3    H130835   3.593   3.485   1.969
10298TIP3    H230836   3.566   3.634   1.980
10299TIP3   OH230837   5.223   6.649   5.611
10299TIP3    H130838   5.149   6.643   5.550
10299TIP3    H230839   5.214   6.736   5.650
10300TIP3   OH230840   3.630   0.729   4.329
10300TIP3    H130841   3.707   0.693   4.371
10300TIP3    H230842   3.557   0.678   4.364
10301TIP3   OH230843   0.543   1.427   1.538
10301TIP3    H130844   0.634   1.425   1.508
10301TIP3    H230845   0.520   1.335   1.550
10302TIP3   OH230846   4.276   1.987   3.402
10302TIP3    H130847   4.313   1.920   3.345
10302TIP3    H230848   4.245   2.056   3.343
10303TIP3   OH230849   0.894   1.277   4.294
10303TIP3    H130850   0.839   1.246   4.366
10303TIP3    H230851   0.979   1.295   4.335
10304TIP3   OH230852   3.337   4.009   4.838
10304TIP3    H130853   3.271   3.980   4.776
10304TIP3    H230854   3.293   4.008   4.923
10305TIP3   OH230855   7.161   3.525   2.408
10305TIP3    H130856   7.191   3.464   2.475
10305TIP3    H230857   7.219   3.601   2.416
10306TIP3   OH230858   3.236   6.485   0.816
10306TIP3    H130859   3.184   6.421   0.767
10306TIP3    H230860   3.271   6.435   0.890
10307TIP3   OH230861   2.704   7.355   3.934
10307TIP3    H130862   2.778   7.390   3.885
10307TIP3    H230863   2.631   7.415   3.915
10308TIP3   OH230864   2.327   2.914   3.595
10308TIP3    H130865   2.259   2.847   3.587
10308TIP3    H230866   2.399   2.881   3.541
10309TIP3   OH230867   5.393   7.482   1.189
10309TIP3    H130868   5.320   7.534   1.156
10309TIP3    H230869   5.378   7.395   1.151
10310TIP3   OH230870   7.962   5.600   2.454
10310TIP3    H130871   8.008   5.627   2.375
10310TIP3    H230872   7.902   5.672   2.472
10311TIP3   OH230873   3.232   1.053   0.332
10311TIP3    H130874   3.221   1.125   0.394
10311TIP3    H230875   3.200   1.089   0.249
10312TIP3   OH230876   5.721   7.132   2.987
10312TIP3    H130877   5.696   7.112   2.896
10312TIP3    H230878   5.816   7.133   2.986
10313TIP3   OH230879   2.293   6.578   3.790
10313TIP3    H130880   2.285   6.486   3.765
10313TIP3    H230881   2.294   6.626   3.707
10314TIP3   OH230882   6.760   3.371   3.314
10314TIP3    H130883   6.821   3.374   3.388
10314TIP3    H230884   6.769   3.283   3.279
10315TIP3   OH230885   0.000   1.884   2.672
10315TIP3    H130886   0.030   1.927   2.752
10315TIP3    H230887  -0.013   1.955   2.609
10316TIP3   OH230888   1.000   0.550   5.862
10316TIP3    H130889   1.053   0.602   5.922
10316TIP3    H230890   0.925   0.606   5.841
10317TIP3   OH230891   5.564   4.296   3.007
10317TIP3    H130892   5.637   4.262   3.059
10317TIP3    H230893   5.501   4.327   3.073
10318TIP3   OH230894   0.825   2.380   1.437
10318TIP3    H130895   0.916   2.359   1.461
10318TIP3    H230896   0.811   2.332   1.355
10319TIP3   OH230897   6.740   4.459   2.726
10319TIP3    H130898   6.822   4.410   2.729
10319TIP3    H230899   6.768   4.551   2.724
10320TIP3   OH230900   1.662   1.986   4.060
10320TIP3    H130901   1.612   1.950   3.987
10320TIP3    H230902   1.752   1.956   4.045
10321TIP3   OH230903   4.761   5.066   5.044
10321TIP3    H130904   4.678   5.112   5.038
10321TIP3    H230905   4.826   5.126   5.007
10322TIP3   OH230906   7.811   5.511   5.679
10322TIP3    H130907   7.901   5.503   5.647
10322TIP3    H230908   7.776   5.422   5.674
10323TIP3   OH230909   8.001   6.446   0.051
10323TIP3    H130910   7.959   6.432   0.136
10323TIP3    H230911   8.031   6.359   0.024
10324TIP3   OH230912   3.812   5.551   5.979
10324TIP3    H130913   3.865   5.504   5.915
10324TIP3    H230914   3.874   5.606   6.027
10325TIP3   OH230915   1.503   1.679   5.817
10325TIP3    H130916   1.416   1.669   5.778
10325TIP3    H230917   1.528   1.769   5.795
10326TIP3   OH230918   8.045   0.604   6.062
10326TIP3    H130919   7.950   0.612   6.056
10326TIP3    H230920   8.073   0.581   5.974
10327TIP3   OH230921   1.739   6.180   2.234
10327TIP3    H130922   1.654   6.176   2.192
10327TIP3    H230923   1.755   6.091   2.267
10328TIP3   OH230924   7.220   6.033   0.845
10328TIP3    H130925   7.139   5.986   0.824
10328TIP3    H230926   7.265   5.975   0.907
10329TIP3   OH230927   4.867   2.912   1.404
10329TIP3    H130928   4.937   2.963   1.444
10329TIP3    H230929   4.904   2.882   1.321
10330TIP3   OH230930   8.130   1.049   3.927
10330TIP3    H130931   8.075   1.052   4.005
10330TIP3    H230932   8.128   1.138   3.893
10331TIP3   OH230933   4.533   4.062   6.515
10331TIP3    H130934   4.591   4.080   6.589
10331TIP3    H230935   4.510   4.149   6.482
10332TIP3   OH230936   4.459   0.874   1.363
10332TIP3    H130937   4.494   0.809   1.424
10332TIP3    H230938   4.366   0.851   1.355
10333TIP3   OH230939   1.441   4.669   2.151
10333TIP3    H130940   1.461   4.624   2.069
10333TIP3    H230941   1.438   4.600   2.217
10334TIP3   OH230942   2.232   2.267   0.903
10334TIP3    H130943   2.316   2.235   0.935
10334TIP3    H230944   2.237   2.257   0.808
10335TIP3   OH230945   5.497   2.152   6.588
10335TIP3    H130946   5.486   2.217   6.518
10335TIP3    H230947   5.591   2.152   6.606
10336TIP3   OH230948   6.124   2.930   5.876
10336TIP3    H130949   6.064   2.981   5.821
10336TIP3    H230950   6.101   2.839   5.857
10337TIP3   OH230951   5.038   7.787   3.320
10337TIP3    H130952   5.070   7.707   3.363
10337TIP3    H230953   4.972   7.821   3.381
10338TIP3   OH230954   2.096   6.111   3.571
10338TIP3    H130955   2.056   6.030   3.540
10338TIP3    H230956   2.183   6.111   3.532
10339TIP3   OH230957   0.110   4.400   3.877
10339TIP3    H130958   0.190   4.351   3.897
10339TIP3    H230959   0.105   4.466   3.947
10340TIP3   OH230960   1.956   5.213   3.936
10340TIP3    H130961   1.895   5.249   4.000
10340TIP3    H230962   1.905   5.149   3.886
10341TIP3   OH230963   1.300   0.175   5.391
10341TIP3    H130964   1.238   0.127   5.445
10341TIP3    H230965   1.274   0.267   5.400
10342TIP3   OH230966   3.654   2.770   2.833
10342TIP3    H130967   3.731   2.823   2.849
10342TIP3    H230968   3.679   2.682   2.860
10343TIP3   OH230969   4.682   4.222   2.852
10343TIP3    H130970   4.682   4.150   2.914
10343TIP3    H230971   4.601   4.269   2.870
10344TIP3   OH230972   1.244   5.924   2.338
10344TIP3    H130973   1.325   5.879   2.312
10344TIP3    H230974   1.260   6.016   2.314
10345TIP3   OH230975   6.440   1.337   3.122
10345TIP3    H130976   6.407   1.275   3.058
10345TIP3    H230977   6.522   1.298   3.153
10346TIP3   OH230978   7.266   0.913   4.412
10346TIP3    H130979   7.212   0.990   4.433
10346TIP3    H230980   7.298   0.882   4.497
10347TIP3   OH230981   7.509   3.460   0.545
10347TIP3    H130982   7.488   3.522   0.475
10347TIP3    H230983   7.596   3.485   0.574
10348TIP3   OH230984   0.730   1.030   2.839
10348TIP3    H130985   0.696   0.978   2.912
10348TIP3    H230986   0.654   1.078   2.807
10349TIP3   OH230987   4.446   2.295   2.935
10349TIP3    H130988   4.427   2.219   2.991
10349TIP3    H230989   4.541   2.297   2.929
10350TIP3   OH230990   0.294   7.657   4.477
10350TIP3    H130991   0.325   7.569   4.455
10350TIP3    H230992   0.369   7.698   4.522
10351TIP3   OH230993   7.651   6.975   1.949
10351TIP3    H130994   7.706   6.899   1.968
10351TIP3    H230995   7.633   7.014   2.034
10352TIP3   OH230996   5.566   3.627   0.828
10352TIP3    H130997   5.503   3.659   0.893
10352TIP3    H230998   5.640   3.597   0.879
10353TIP3   OH230999   3.171   7.316   4.309
10353TIP3    H131000   3.191   7.395   4.360
10353TIP3    H231001   3.246   7.306   4.251
10354TIP3   OH231002   2.607   2.880   5.519
10354TIP3    H131003   2.610   2.905   5.427
10354TIP3    H231004   2.625   2.961   5.566
10355TIP3   OH231005   2.273   0.330   2.439
10355TIP3    H131006   2.184   0.363   2.453
10355TIP3    H231007   2.294   0.281   2.519
10356TIP3   OH231008   1.122   3.870   0.523
10356TIP3    H131009   1.166   3.805   0.577
10356TIP3    H231010   1.083   3.931   0.586
10357TIP3   OH231011   1.746   7.563   1.903
10357TIP3    H131012   1.832   7.522   1.912
10357TIP3    H231013   1.711   7.528   1.822
10358TIP3   OH231014   7.215   6.379   0.538
10358TIP3    H131015   7.162   6.397   0.461
10358TIP3    H231016   7.266   6.459   0.553
10359TIP3   OH231017   1.565   4.997   6.425
10359TIP3    H131018   1.635   4.966   6.482
10359TIP3    H231019   1.507   4.920   6.416
10360TIP3   OH231020   2.323   6.305   3.734
10360TIP3    H131021   2.417   6.317   3.719
10360TIP3    H231022   2.293   6.254   3.659
10361TIP3   OH231023   6.301   5.128   2.173
10361TIP3    H131024   6.254   5.162   2.097
10361TIP3    H231025   6.383   5.178   2.174
10362TIP3   OH231026   7.684   6.074   5.786
10362TIP3    H131027   7.720   6.090   5.873
10362TIP3    H231028   7.668   5.980   5.783
10363TIP3   OH231029   3.591   6.932   4.395
10363TIP3    H131030   3.621   7.013   4.436
10363TIP3    H231031   3.548   6.961   4.314
10364TIP3   OH231032   7.463   6.665   6.084
10364TIP3    H131033   7.388   6.724   6.089
10364TIP3    H231034   7.530   6.714   6.036
10365TIP3   OH231035   5.078   3.490   1.485
10365TIP3    H131036   5.123   3.481   1.401
10365TIP3    H231037   5.092   3.582   1.509
10366TIP3   OH231038   2.719   6.692   4.255
10366TIP3    H131039   2.715   6.787   4.249
10366TIP3    H231040   2.792   6.667   4.199
10367TIP3   OH231041   7.495   5.396   6.362
10367TIP3    H131042   7.576   5.345   6.370
10367TIP3    H231043   7.454   5.390   6.448
10368TIP3   OH231044   7.075   1.964   1.066
10368TIP3    H131045   7.043   1.875   1.085
10368TIP3    H231046   7.128   1.987   1.142
10369TIP3   OH231047   7.208   6.935   0.425
10369TIP3    H131048   7.233   6.885   0.503
10369TIP3    H231049   7.114   6.950   0.435
10370TIP3   OH231050   2.889   5.518   5.332
10370TIP3    H131051   2.965   5.509   5.389
10370TIP3    H231052   2.814   5.502   5.389
10371TIP3   OH231053   0.801   4.441   4.093
10371TIP3    H131054   0.811   4.369   4.156
10371TIP3    H231055   0.710   4.435   4.065
10372TIP3   OH231056   5.597   4.701   5.214
10372TIP3    H131057   5.553   4.778   5.250
10372TIP3    H231058   5.685   4.703   5.253
10373TIP3   OH231059   0.925   5.352   5.778
10373TIP3    H131060   0.971   5.323   5.857
10373TIP3    H231061   0.923   5.448   5.785
10374TIP3   OH231062   1.588   2.547   2.083
10374TIP3    H131063   1.579   2.512   1.994
10374TIP3    H231064   1.621   2.636   2.070
10375TIP3   OH231065   0.241   3.051   1.853
10375TIP3    H131066   0.250   3.036   1.947
10375TIP3    H231067   0.171   3.115   1.845
10376TIP3   OH231068   5.588   2.160   2.070
10376TIP3    H131069   5.673   2.204   2.066
10376TIP3    H231070   5.536   2.201   2.002
10377TIP3   OH231071   5.076   5.412   5.689
10377TIP3    H131072   5.034   5.478   5.634
10377TIP3    H231073   5.153   5.456   5.725
10378TIP3   OH231074   5.857   5.523   0.853
10378TIP3    H131075   5.854   5.617   0.836
10378TIP3    H231076   5.864   5.483   0.766
10379TIP3   OH231077   2.295   4.339   3.188
10379TIP3    H131078   2.380   4.384   3.183
10379TIP3    H231079   2.231   4.405   3.162
10380TIP3   OH231080   8.077   5.948   5.531
10380TIP3    H131081   8.127   5.967   5.451
10380TIP3    H231082   7.991   5.988   5.515
10381TIP3   OH231083   3.282   0.826   6.808
10381TIP3    H131084   3.300   0.891   6.875
10381TIP3    H231085   3.365   0.782   6.794
10382TIP3   OH231086   7.545   0.643   5.165
10382TIP3    H131087   7.620   0.643   5.224
10382TIP3    H231088   7.574   0.595   5.088
10383TIP3   OH231089   6.678   6.511   1.784
10383TIP3    H131090   6.652   6.524   1.693
10383TIP3    H231091   6.600   6.535   1.835
10384TIP3   OH231092   3.421   5.068   0.806
10384TIP3    H131093   3.340   5.067   0.754
10384TIP3    H231094   3.434   5.160   0.828
10385TIP3   OH231095   8.071   5.638   6.490
10385TIP3    H131096   8.071   5.709   6.425
10385TIP3    H231097   8.135   5.575   6.457
10386TIP3   OH231098   0.488   1.175   1.906
10386TIP3    H131099   0.442   1.256   1.927
10386TIP3    H231100   0.580   1.201   1.901
10387TIP3   OH231101   0.555   1.367   0.637
10387TIP3    H131102   0.545   1.276   0.667
10387TIP3    H231103   0.632   1.364   0.580
10388TIP3   OH231104   4.854   3.919   3.779
10388TIP3    H131105   4.764   3.934   3.750
10388TIP3    H231106   4.845   3.876   3.864
10389TIP3   OH231107   5.792   7.410   2.103
10389TIP3    H131108   5.871   7.432   2.053
10389TIP3    H231109   5.744   7.493   2.109
10390TIP3   OH231110   7.129   2.231   0.671
10390TIP3    H131111   7.141   2.314   0.718
10390TIP3    H231112   7.145   2.163   0.737
10391TIP3   OH231113   3.774   4.163   3.946
10391TIP3    H131114   3.860   4.131   3.972
10391TIP3    H231115   3.717   4.086   3.954
10392TIP3   OH231116   2.407   6.193   0.038
10392TIP3    H131117   2.456   6.228   0.112
10392TIP3    H231118   2.461   6.214  -0.038
10393TIP3   OH231119   0.169   4.189   2.512
10393TIP3    H131120   0.231   4.118   2.525
10393TIP3    H231121   0.190   4.223   2.425
10394TIP3   OH231122   1.707   1.118   1.606
10394TIP3    H131123   1.789   1.122   1.557
10394TIP3    H231124   1.730   1.153   1.692
10395TIP3   OH231125   7.344   5.248   3.216
10395TIP3    H131126   7.285   5.320   3.238
10395TIP3    H231127   7.376   5.269   3.128
10396TIP3   OH231128   2.427   1.263   5.410
10396TIP3    H131129   2.504   1.313   5.439
10396TIP3    H231130   2.438   1.177   5.451
10397TIP3   OH231131   0.469   6.328   4.646
10397TIP3    H131132   0.463   6.394   4.715
10397TIP3    H231133   0.558   6.335   4.613
10398TIP3   OH231134   7.968   4.266   4.455
10398TIP3    H131135   7.950   4.344   4.507
10398TIP3    H231136   7.885   4.247   4.411
10399TIP3   OH231137   6.160   1.170   6.060
10399TIP3    H131138   6.106   1.207   5.991
10399TIP3    H231139   6.125   1.081   6.072
10400TIP3   OH231140   8.157   4.768   4.106
10400TIP3    H131141   8.111   4.704   4.160
10400TIP3    H231142   8.171   4.724   4.022
10401TIP3   OH231143   4.170   1.087   1.962
10401TIP3    H131144   4.108   1.079   1.890
10401TIP3    H231145   4.214   1.171   1.947
10402TIP3   OH231146   8.106   1.891   2.146
10402TIP3    H131147   8.168   1.963   2.137
10402TIP3    H231148   8.084   1.867   2.056
10403TIP3   OH231149   8.355   2.009   3.791
10403TIP3    H131150   8.373   1.962   3.872
10403TIP3    H231151   8.285   2.070   3.813
10404TIP3   OH231152   3.113   5.435   5.065
10404TIP3    H131153   3.078   5.522   5.046
10404TIP3    H231154   3.047   5.393   5.120
10405TIP3   OH231155   5.959   2.257   6.395
10405TIP3    H131156   6.038   2.254   6.341
10405TIP3    H231157   5.891   2.288   6.336
10406TIP3   OH231158   1.198   6.993   4.116
10406TIP3    H131159   1.208   6.925   4.182
10406TIP3    H231160   1.156   7.065   4.162
10407TIP3   OH231161   3.153   1.339   1.896
10407TIP3    H131162   3.101   1.279   1.843
10407TIP3    H231163   3.089   1.401   1.932
10408TIP3   OH231164   6.368   3.394   1.288
10408TIP3    H131165   6.346   3.435   1.204
10408TIP3    H231166   6.393   3.305   1.265
10409TIP3   OH231167   6.788   6.474   0.837
10409TIP3    H131168   6.800   6.539   0.768
10409TIP3    H231169   6.831   6.395   0.804
10410TIP3   OH231170   5.881   6.209   1.353
10410TIP3    H131171   5.915   6.251   1.274
10410TIP3    H231172   5.913   6.119   1.348
10411TIP3   OH231173   0.421   1.831   6.256
10411TIP3    H131174   0.357   1.772   6.216
10411TIP3    H231175   0.410   1.914   6.210
10412TIP3   OH231176   5.533   5.205   5.243
10412TIP3    H131177   5.545   5.296   5.268
10412TIP3    H231178   5.438   5.196   5.228
10413TIP3   OH231179   7.630   0.610   1.169
10413TIP3    H131180   7.561   0.569   1.117
10413TIP3    H231181   7.705   0.550   1.160
10414TIP3   OH231182   4.818   2.846   0.278
10414TIP3    H131183   4.852   2.780   0.218
10414TIP3    H231184   4.874   2.922   0.264
10415TIP3   OH231185   7.088   2.961   6.619
10415TIP3    H131186   7.097   3.054   6.600
10415TIP3    H231187   7.058   2.958   6.710
10416TIP3   OH231188   1.818   4.048   2.024
10416TIP3    H131189   1.806   4.091   2.109
10416TIP3    H231190   1.788   4.113   1.960
10417TIP3   OH231191   0.221   6.359   2.552
10417TIP3    H131192   0.146   6.352   2.612
10417TIP3    H231193   0.289   6.304   2.592
10418TIP3   OH231194   2.795   0.897   0.307
10418TIP3    H131195   2.884   0.866   0.288
10418TIP3    H231196   2.755   0.909   0.221
10419TIP3   OH231197   6.943   5.591   2.192
10419TIP3    H131198   6.954   5.533   2.116
10419TIP3    H231199   6.899   5.669   2.157
10420TIP3   OH231200   7.082   6.669   5.370
10420TIP3    H131201   7.101   6.709   5.285
10420TIP3    H231202   7.154   6.607   5.384
10421TIP3   OH231203   0.601   4.358   1.542
10421TIP3    H131204   0.520   4.348   1.492
10421TIP3    H231205   0.572   4.381   1.630
10422TIP3   OH231206   2.605   6.016   5.831
10422TIP3    H131207   2.645   6.079   5.770
10422TIP3    H231208   2.519   5.996   5.792
10423TIP3   OH231209   7.046   1.649   4.446
10423TIP3    H131210   6.989   1.726   4.445
10423TIP3    H231211   7.124   1.677   4.397
10424TIP3   OH231212   5.946   7.007   3.432
10424TIP3    H131213   6.008   7.078   3.445
10424TIP3    H231214   5.861   7.050   3.424
10425TIP3   OH231215   2.140   2.352   2.508
10425TIP3    H131216   2.160   2.386   2.421
10425TIP3    H231217   2.057   2.394   2.531
10426TIP3   OH231218   3.797   5.498   3.817
10426TIP3    H131219   3.814   5.583   3.859
10426TIP3    H231220   3.884   5.466   3.793
10427TIP3   OH231221   6.956   7.653   0.572
10427TIP3    H131222   6.993   7.570   0.542
10427TIP3    H231223   7.032   7.709   0.589
10428TIP3   OH231224   3.432   7.345   0.991
10428TIP3    H131225   3.496   7.317   1.056
10428TIP3    H231226   3.460   7.433   0.965
10429TIP3   OH231227   1.860   5.069   0.986
10429TIP3    H131228   1.780   5.114   0.960
10429TIP3    H231229   1.866   5.083   1.080
10430TIP3   OH231230   0.911   3.890   6.239
10430TIP3    H131231   0.843   3.831   6.208
10430TIP3    H231232   0.949   3.928   6.159
10431TIP3   OH231233   3.994   0.026   4.377
10431TIP3    H131234   3.932   0.076   4.324
10431TIP3    H231235   4.052   0.092   4.415
10432TIP3   OH231236   7.128   1.441   0.819
10432TIP3    H131237   7.117   1.430   0.725
10432TIP3    H231238   7.051   1.400   0.858
10433TIP3   OH231239   2.706   4.846   5.096
10433TIP3    H131240   2.628   4.805   5.132
10433TIP3    H231241   2.754   4.774   5.054
10434TIP3   OH231242   3.188   0.887   5.481
10434TIP3    H131243   3.119   0.953   5.490
10434TIP3    H231244   3.259   0.932   5.435
10435TIP3   OH231245   1.104   1.202   4.771
10435TIP3    H131246   1.109   1.165   4.859
10435TIP3    H231247   1.188   1.245   4.758
10436TIP3   OH231248   7.783   1.811   5.346
10436TIP3    H131249   7.737   1.843   5.269
10436TIP3    H231250   7.780   1.716   5.339
10437TIP3   OH231251   5.813   7.158   2.219
10437TIP3    H131252   5.897   7.140   2.177
10437TIP3    H231253   5.786   7.243   2.183
10438TIP3   OH231254   2.476   3.285   4.623
10438TIP3    H131255   2.558   3.252   4.659
10438TIP3    H231256   2.475   3.378   4.647
10439TIP3   OH231257   6.419   0.650   5.661
10439TIP3    H131258   6.384   0.598   5.733
10439TIP3    H231259   6.496   0.602   5.631
10440TIP3   OH231260   5.126   1.090   4.140
10440TIP3    H131261   5.091   1.120   4.056
10440TIP3    H231262   5.114   0.995   4.139
10441TIP3   OH231263   4.435   6.613   2.594
10441TIP3    H131264   4.348   6.625   2.632
10441TIP3    H231265   4.486   6.687   2.626
10442TIP3   OH231266   6.203   6.630   6.681
10442TIP3    H131267   6.189   6.624   6.587
10442TIP3    H231268   6.128   6.681   6.714
10443TIP3   OH231269   4.551   7.836   1.324
10443TIP3    H131270   4.594   7.770   1.269
10443TIP3    H231271   4.468   7.853   1.280
10444TIP3   OH231272   0.284   2.784   5.675
10444TIP3    H131273   0.247   2.847   5.736
10444TIP3    H231274   0.301   2.835   5.595
10445TIP3   OH231275   7.514   2.079   6.801
10445TIP3    H131276   7.430   2.067   6.757
10445TIP3    H231277   7.549   1.991   6.811
10446TIP3   OH231278   2.912   0.514   5.342
10446TIP3    H131279   2.972   0.531   5.269
10446TIP3    H231280   2.957   0.449   5.395
10447TIP3   OH231281   8.115   3.511   5.534
10447TIP3    H131282   8.195   3.460   5.519
10447TIP3    H231283   8.062   3.496   5.456
10448TIP3   OH231284   1.316   3.579   4.377
10448TIP3    H131285   1.313   3.568   4.472
10448TIP3    H231286   1.253   3.647   4.358
10449TIP3   OH231287   2.243   3.115   3.394
10449TIP3    H131288   2.309   3.053   3.425
10449TIP3    H231289   2.209   3.156   3.473
10450TIP3   OH231290   3.701   4.692   1.953
10450TIP3    H131291   3.615   4.661   1.925
10450TIP3    H231292   3.705   4.671   2.046
10451TIP3   OH231293   1.676   2.638   3.169
10451TIP3    H131294   1.685   2.598   3.083
10451TIP3    H231295   1.638   2.724   3.152
10452TIP3   OH231296   1.047   7.876   2.941
10452TIP3    H131297   1.090   7.810   2.888
10452TIP3    H231298   1.118   7.933   2.972
10453TIP3   OH231299   6.507   6.313   4.005
10453TIP3    H131300   6.496   6.233   3.954
10453TIP3    H231301   6.504   6.284   4.096
10454TIP3   OH231302   0.940   2.951   4.724
10454TIP3    H131303   0.887   3.015   4.677
10454TIP3    H231304   0.965   2.996   4.805
10455TIP3   OH231305   3.560   3.138   1.648
10455TIP3    H131306   3.625   3.094   1.593
10455TIP3    H231307   3.610   3.171   1.723
10456TIP3   OH231308   0.296   4.810   4.694
10456TIP3    H131309   0.300   4.875   4.765
10456TIP3    H231310   0.283   4.726   4.740
10457TIP3   OH231311   8.369   5.818   2.144
10457TIP3    H131312   8.415   5.738   2.171
10457TIP3    H231313   8.342   5.801   2.054
10458TIP3   OH231314   1.993   0.652   5.393
10458TIP3    H131315   2.086   0.633   5.405
10458TIP3    H231316   1.968   0.704   5.469
10459TIP3   OH231317   4.128   3.502   3.485
10459TIP3    H131318   4.103   3.592   3.465
10459TIP3    H231319   4.046   3.454   3.486
10460TIP3   OH231320   1.231   5.406   0.525
10460TIP3    H131321   1.274   5.478   0.572
10460TIP3    H231322   1.213   5.340   0.592
10461TIP3   OH231323   7.390   3.443   1.681
10461TIP3    H131324   7.413   3.381   1.750
10461TIP3    H231325   7.414   3.529   1.717
10462TIP3   OH231326   2.554   7.757   4.788
10462TIP3    H131327   2.572   7.710   4.706
10462TIP3    H231328   2.533   7.846   4.760
10463TIP3   OH231329   6.610   0.365   3.948
10463TIP3    H131330   6.650   0.443   3.909
10463TIP3    H231331   6.619   0.378   4.042
10464TIP3   OH231332   0.132   4.547   2.239
10464TIP3    H131333   0.174   4.603   2.173
10464TIP3    H231334   0.044   4.532   2.205
10465TIP3   OH231335   6.370   3.481   1.893
10465TIP3    H131336   6.405   3.483   1.982
10465TIP3    H231337   6.426   3.420   1.846
10466TIP3   OH231338   5.233   7.630   1.604
10466TIP3    H131339   5.279   7.558   1.560
10466TIP3    H231340   5.266   7.709   1.561
10467TIP3   OH231341   3.152   7.359   4.682
10467TIP3    H131342   3.193   7.290   4.734
10467TIP3    H231343   3.199   7.358   4.599
10468TIP3   OH231344   5.535   6.558   0.949
10468TIP3    H131345   5.614   6.503   0.946
10468TIP3    H231346   5.545   6.618   0.876
10469TIP3   OH231347   2.568   7.470   6.842
10469TIP3    H131348   2.631   7.507   6.780
10469TIP3    H231349   2.564   7.534   6.913
10470TIP3   OH231350   5.646   7.330   3.613
10470TIP3    H131351   5.698   7.283   3.678
10470TIP3    H231352   5.555   7.305   3.631
10471TIP3   OH231353   7.209   1.104   4.920
10471TIP3    H131354   7.288   1.118   4.973
10471TIP3    H231355   7.213   1.171   4.852
10472TIP3   OH231356   1.138   3.181   1.846
10472TIP3    H131357   1.137   3.275   1.864
10472TIP3    H231358   1.213   3.148   1.896
10473TIP3   OH231359   2.343   2.487   6.114
10473TIP3    H131360   2.360   2.512   6.023
10473TIP3    H231361   2.323   2.393   6.108
10474TIP3   OH231362   2.593   2.388   5.899
10474TIP3    H131363   2.651   2.346   5.835
10474TIP3    H231364   2.531   2.437   5.845
10475TIP3   OH231365   7.243   0.323   0.678
10475TIP3    H131366   7.335   0.305   0.701
10475TIP3    H231367   7.207   0.365   0.756
10476TIP3   OH231368   2.143   5.296   0.931
10476TIP3    H131369   2.071   5.238   0.905
10476TIP3    H231370   2.107   5.347   1.004
10477TIP3   OH231371   6.933   2.410   3.446
10477TIP3    H131372   6.894   2.359   3.517
10477TIP3    H231373   6.863   2.418   3.381
10478TIP3   OH231374   6.083   3.029   3.376
10478TIP3    H131375   6.042   3.002   3.458
10478TIP3    H231376   6.033   2.982   3.308
10479TIP3   OH231377   3.584   4.421   3.166
10479TIP3    H131378   3.627   4.427   3.080
10479TIP3    H231379   3.651   4.384   3.224
10480TIP3   OH231380   4.013   6.325   5.890
10480TIP3    H131381   3.919   6.334   5.877
10480TIP3    H231382   4.049   6.316   5.802
10481TIP3   OH231383   3.950   0.068   0.088
10481TIP3    H131384   4.035   0.084   0.129
10481TIP3    H231385   3.917   0.155   0.064
10482TIP3   OH231386   5.593   3.579   3.292
10482TIP3    H131387   5.556   3.664   3.314
10482TIP3    H231388   5.531   3.542   3.229
10483TIP3   OH231389   8.417   7.568   6.811
10483TIP3    H131390   8.371   7.484   6.805
10483TIP3    H231391   8.426   7.584   6.905
10484TIP3   OH231392   1.038   3.525   4.208
10484TIP3    H131393   1.053   3.598   4.268
10484TIP3    H231394   1.026   3.567   4.123
10485TIP3   OH231395   0.788   6.071   6.716
10485TIP3    H131396   0.811   5.981   6.694
10485TIP3    H231397   0.807   6.120   6.636
10486TIP3   OH231398   7.150   6.727   1.058
10486TIP3    H131399   7.207   6.680   1.119
10486TIP3    H231400   7.128   6.663   0.991
10487TIP3   OH231401   3.745   4.383   1.501
10487TIP3    H131402   3.691   4.455   1.469
10487TIP3    H231403   3.784   4.345   1.422
10488TIP3   OH231404   2.828   4.837   0.732
10488TIP3    H131405   2.843   4.905   0.799
10488TIP3    H231406   2.743   4.860   0.695
10489TIP3   OH231407   0.473   3.068   0.006
10489TIP3    H131408   0.565   3.044   0.008
10489TIP3    H231409   0.459   3.115   0.089
10490TIP3   OH231410   7.544   5.254   3.456
10490TIP3    H131411   7.520   5.346   3.443
10490TIP3    H231412   7.462   5.207   3.452
10491TIP3   OH231413   3.618   7.239   1.131
10491TIP3    H131414   3.660   7.164   1.089
10491TIP3    H231415   3.683   7.271   1.193
10492TIP3   OH231416   6.345   7.768   6.165
10492TIP3    H131417   6.350   7.759   6.070
10492TIP3    H231418   6.436   7.764   6.195
10493TIP3   OH231419   5.686   3.354   5.116
10493TIP3    H131420   5.680   3.268   5.157
10493TIP3    H231421   5.601   3.395   5.131
10494TIP3   OH231422   4.866   7.494   0.521
10494TIP3    H131423   4.923   7.420   0.540
10494TIP3    H231424   4.867   7.546   0.602
10495TIP3   OH231425   2.748   2.669   4.896
10495TIP3    H131426   2.822   2.719   4.861
10495TIP3    H231427   2.787   2.587   4.928
10496TIP3   OH231428   5.764   3.032   2.639
10496TIP3    H131429   5.793   3.026   2.548
10496TIP3    H231430   5.734   2.944   2.661
10497TIP3   OH231431   1.159   2.139   6.198
10497TIP3    H131432   1.245   2.151   6.158
10497TIP3    H231433   1.178   2.110   6.288
10498TIP3   OH231434   4.314   5.276   5.917
10498TIP3    H131435   4.231   5.228   5.908
10498TIP3    H231436   4.296   5.363   5.881
10499TIP3   OH231437   0.323   4.263   2.933
10499TIP3    H131438   0.279   4.303   2.858
10499TIP3    H231439   0.414   4.252   2.904
10500TIP3   OH231440   5.887   5.312   5.017
10500TIP3    H131441   5.841   5.236   4.982
10500TIP3    H231442   5.967   5.318   4.965
10501TIP3   OH231443   7.669   3.375   1.527
10501TIP3    H131444   7.663   3.335   1.614
10501TIP3    H231445   7.629   3.310   1.468
10502TIP3   OH231446   3.650   4.830   2.391
10502TIP3    H131447   3.684   4.763   2.450
10502TIP3    H231448   3.608   4.893   2.448
10503TIP3   OH231449   3.829   5.548   0.594
10503TIP3    H131450   3.832   5.627   0.540
10503TIP3    H231451   3.881   5.570   0.671
10504TIP3   OH231452   5.985   4.824   2.433
10504TIP3    H131453   5.912   4.783   2.385
10504TIP3    H231454   6.055   4.830   2.368
10505TIP3   OH231455   7.899   7.914   3.098
10505TIP3    H131456   7.870   7.833   3.056
10505TIP3    H231457   7.849   7.917   3.180
10506TIP3   OH231458   5.043   7.223   0.100
10506TIP3    H131459   5.115   7.259   0.151
10506TIP3    H231460   5.077   7.142   0.063
10507TIP3   OH231461   3.453   2.539   2.547
10507TIP3    H131462   3.403   2.615   2.576
10507TIP3    H231463   3.437   2.534   2.453
10508TIP3   OH231464   4.713   7.433   0.028
10508TIP3    H131465   4.752   7.368   0.086
10508TIP3    H231466   4.705   7.389  -0.057
10509TIP3   OH231467   0.416   6.436   4.914
10509TIP3    H131468   0.381   6.367   4.971
10509TIP3    H231469   0.510   6.436   4.932
10510TIP3   OH231470   7.680   3.853   4.917
10510TIP3    H131471   7.631   3.922   4.873
10510TIP3    H231472   7.764   3.893   4.939
10511TIP3   OH231473   3.439   5.461   6.010
10511TIP3    H131474   3.492   5.521   5.958
10511TIP3    H231475   3.487   5.452   6.092
10512TIP3   OH231476   6.951   4.134   3.969
10512TIP3    H131477   7.043   4.112   3.984
10512TIP3    H231478   6.941   4.222   4.003
10513TIP3   OH231479   2.361   6.009   6.455
10513TIP3    H131480   2.359   5.977   6.364
10513TIP3    H231481   2.409   6.092   6.450
10514TIP3   OH231482   6.955   6.902   6.332
10514TIP3    H131483   7.012   6.941   6.398
10514TIP3    H231484   6.894   6.848   6.382
10515TIP3   OH231485   6.855   6.416   4.310
10515TIP3    H131486   6.935   6.465   4.328
10515TIP3    H231487   6.805   6.420   4.392
10516TIP3   OH231488   4.544   2.030   0.674
10516TIP3    H131489   4.597   2.103   0.709
10516TIP3    H231490   4.605   1.958   0.666
10517TIP3   OH231491   3.969   5.748   3.700
10517TIP3    H131492   3.905   5.739   3.630
10517TIP3    H231493   3.925   5.802   3.766
10518TIP3   OH231494   3.257   2.032   4.636
10518TIP3    H131495   3.263   2.105   4.574
10518TIP3    H231496   3.268   1.953   4.582
10519TIP3   OH231497   4.844   4.918   5.379
10519TIP3    H131498   4.823   4.892   5.468
10519TIP3    H231499   4.863   5.012   5.384
10520TIP3   OH231500   5.648   6.226   0.250
10520TIP3    H131501   5.585   6.208   0.320
10520TIP3    H231502   5.641   6.321   0.237
10521TIP3   OH231503   2.888   5.679   4.235
10521TIP3    H131504   2.972   5.721   4.254
10521TIP3    H231505   2.828   5.715   4.301
10522TIP3   OH231506   2.130   7.020   0.147
10522TIP3    H131507   2.056   7.000   0.090
10522TIP3    H231508   2.094   7.011   0.236
10523TIP3   OH231509   6.239   3.509   6.769
10523TIP3    H131510   6.190   3.430   6.751
10523TIP3    H231511   6.205   3.574   6.708
10524TIP3   OH231512   5.838   7.584   4.956
10524TIP3    H131513   5.752   7.625   4.959
10524TIP3    H231514   5.820   7.491   4.968
10525TIP3   OH231515   1.586   5.407   0.721
10525TIP3    H131516   1.680   5.401   0.702
10525TIP3    H231517   1.582   5.429   0.814
10526TIP3   OH231518   6.951   1.024   0.721
10526TIP3    H131519   7.019   0.958   0.709
10526TIP3    H231520   6.872   0.984   0.685
10527TIP3   OH231521   3.923   2.308   3.557
10527TIP3    H131522   3.838   2.289   3.598
10527TIP3    H231523   3.972   2.226   3.565
10528TIP3   OH231524   3.175   2.003   4.283
10528TIP3    H131525   3.088   2.008   4.243
10528TIP3    H231526   3.192   2.092   4.314
10529TIP3   OH231527   5.889   1.659   4.462
10529TIP3    H131528   5.946   1.603   4.409
10529TIP3    H231529   5.858   1.725   4.400
10530TIP3   OH231530   6.555   7.595   5.627
10530TIP3    H131531   6.649   7.585   5.641
10530TIP3    H231532   6.514   7.550   5.701
10531TIP3   OH231533   5.798   3.993   1.651
10531TIP3    H131534   5.809   3.900   1.673
10531TIP3    H231535   5.703   4.006   1.651
10532TIP3   OH231536   0.873   3.731   5.569
10532TIP3    H131537   0.782   3.731   5.600
10532TIP3    H231538   0.895   3.639   5.557
10533TIP3   OH231539   7.752   1.960   0.875
10533TIP3    H131540   7.703   1.898   0.929
10533TIP3    H231541   7.685   1.997   0.817
10534TIP3   OH231542   6.488   0.995   3.477
10534TIP3    H131543   6.557   0.988   3.542
10534TIP3    H231544   6.483   1.089   3.458
10535TIP3   OH231545   2.527   1.568   2.822
10535TIP3    H131546   2.454   1.551   2.762
10535TIP3    H231547   2.538   1.663   2.821
10536TIP3   OH231548   1.219   1.248   0.420
10536TIP3    H131549   1.128   1.225   0.440
10536TIP3    H231550   1.218   1.274   0.328
10537TIP3   OH231551   2.147   3.745   4.804
10537TIP3    H131552   2.088   3.819   4.819
10537TIP3    H231553   2.234   3.783   4.802
10538TIP3   OH231554   0.059   6.231   0.182
10538TIP3    H131555   0.009   6.174   0.240
10538TIP3    H231556   0.018   6.317   0.193
10539TIP3   OH231557   7.605   0.891   3.048
10539TIP3    H131558   7.531   0.950   3.037
10539TIP3    H231559   7.568   0.813   3.088
10540TIP3   OH231560   7.367   2.818   1.023
10540TIP3    H131561   7.390   2.843   0.934
10540TIP3    H231562   7.410   2.734   1.037
10541TIP3   OH231563   2.360   2.954   5.124
10541TIP3    H131564   2.421   3.016   5.162
10541TIP3    H231565   2.297   3.009   5.077
10542TIP3   OH231566   7.903   0.605   4.451
10542TIP3    H131567   7.942   0.692   4.460
10542TIP3    H231568   7.835   0.616   4.384
10543TIP3   OH231569   6.030   0.795   6.385
10543TIP3    H131570   6.079   0.787   6.467
10543TIP3    H231571   6.052   0.882   6.352
10544TIP3   OH231572   5.032   4.978   0.836
10544TIP3    H131573   5.048   4.888   0.808
10544TIP3    H231574   4.946   4.975   0.876
10545TIP3   OH231575   0.326   3.654   3.298
10545TIP3    H131576   0.387   3.658   3.371
10545TIP3    H231577   0.256   3.716   3.321
10546TIP3   OH231578   3.182   5.145   0.643
10546TIP3    H131579   3.259   5.139   0.587
10546TIP3    H231580   3.108   5.127   0.585
10547TIP3   OH231581   6.440   4.394   1.474
10547TIP3    H131582   6.479   4.357   1.553
10547TIP3    H231583   6.402   4.318   1.429
10548TIP3   OH231584   1.631   1.888   0.961
10548TIP3    H131585   1.609   1.934   1.042
10548TIP3    H231586   1.713   1.929   0.933
10549TIP3   OH231587   4.425   2.929   3.814
10549TIP3    H131588   4.515   2.908   3.792
10549TIP3    H231589   4.374   2.900   3.738
10550TIP3   OH231590   3.134   6.028   1.218
10550TIP3    H131591   3.094   5.985   1.293
10550TIP3    H231592   3.176   6.106   1.255
10551TIP3   OH231593   4.620   7.269   1.154
10551TIP3    H131594   4.691   7.232   1.101
10551TIP3    H231595   4.639   7.237   1.243
10552TIP3   OH231596   8.079   3.191   3.666
10552TIP3    H131597   8.065   3.123   3.600
10552TIP3    H231598   8.172   3.212   3.659
10553TIP3   OH231599   5.501   4.334   6.561
10553TIP3    H131600   5.506   4.416   6.512
10553TIP3    H231601   5.440   4.279   6.511
10554TIP3   OH231602   0.047   0.235   5.697
10554TIP3    H131603  -0.014   0.161   5.689
10554TIP3    H231604   0.003   0.307   5.652
10555TIP3   OH231605   0.468   1.664   6.606
10555TIP3    H131606   0.432   1.576   6.614
10555TIP3    H231607   0.391   1.720   6.595
10556TIP3   OH231608   5.714   3.494   1.970
10556TIP3    H131609   5.720   3.408   2.013
10556TIP3    H231610   5.749   3.479   1.882
10557TIP3   OH231611   4.220   3.115   1.744
10557TIP3    H131612   4.203   3.023   1.728
10557TIP3    H231613   4.154   3.141   1.809
10558TIP3   OH231614   1.218   5.798   1.912
10558TIP3    H131615   1.240   5.741   1.986
10558TIP3    H231616   1.183   5.738   1.846
10559TIP3   OH231617   4.488   1.068   0.276
10559TIP3    H131618   4.563   1.010   0.284
10559TIP3    H231619   4.424   1.034   0.338
10560TIP3   OH231620   3.494   2.964   3.203
10560TIP3    H131621   3.415   2.997   3.247
10560TIP3    H231622   3.463   2.890   3.151
10561TIP3   OH231623   5.138   6.205   3.575
10561TIP3    H131624   5.213   6.195   3.516
10561TIP3    H231625   5.149   6.136   3.640
10562TIP3   OH231626   0.822   1.250   5.252
10562TIP3    H131627   0.743   1.303   5.261
10562TIP3    H231628   0.886   1.309   5.212
10563TIP3   OH231629   7.820   3.454   5.076
10563TIP3    H131630   7.745   3.437   5.133
10563TIP3    H231631   7.782   3.493   4.997
10564TIP3   OH231632   7.762   1.897   4.873
10564TIP3    H131633   7.721   1.952   4.805
10564TIP3    H231634   7.720   1.812   4.862
10565TIP3   OH231635   5.821   2.655   6.138
10565TIP3    H131636   5.749   2.601   6.105
10565TIP3    H231637   5.858   2.696   6.060
10566TIP3   OH231638   3.826   2.925   2.347
10566TIP3    H131639   3.826   2.902   2.440
10566TIP3    H231640   3.740   2.965   2.332
10567TIP3   OH231641   5.662   0.742   1.186
10567TIP3    H131642   5.710   0.708   1.262
10567TIP3    H231643   5.596   0.799   1.224
10568TIP3   OH231644   3.875   3.090   0.130
10568TIP3    H131645   3.908   3.178   0.147
10568TIP3    H231646   3.788   3.088   0.172
10569TIP3   OH231647   6.233   6.651   3.933
10569TIP3    H131648   6.177   6.671   3.857
10569TIP3    H231649   6.278   6.733   3.952
10570TIP3   OH231650   3.375   3.496   0.336
10570TIP3    H131651   3.466   3.488   0.364
10570TIP3    H231652   3.331   3.541   0.408
10571TIP3   OH231653   6.245   5.418   5.445
10571TIP3    H131654   6.175   5.432   5.509
10571TIP3    H231655   6.300   5.350   5.484
10572TIP3   OH231656   7.825   4.192   3.847
10572TIP3    H131657   7.879   4.193   3.927
10572TIP3    H231658   7.887   4.170   3.777
10573TIP3   OH231659   3.175   2.109   4.000
10573TIP3    H131660   3.114   2.165   4.048
10573TIP3    H231661   3.186   2.033   4.057
10574TIP3   OH231662   5.147   0.175   6.488
10574TIP3    H131663   5.097   0.178   6.569
10574TIP3    H231664   5.124   0.091   6.449
10575TIP3   OH231665   2.771   0.806   5.706
10575TIP3    H131666   2.801   0.894   5.681
10575TIP3    H231667   2.847   0.750   5.691
10576TIP3   OH231668   3.446   0.196   6.398
10576TIP3    H131669   3.455   0.111   6.441
10576TIP3    H231670   3.400   0.176   6.316
10577TIP3   OH231671   6.425   4.391   2.907
10577TIP3    H131672   6.514   4.358   2.896
10577TIP3    H231673   6.384   4.329   2.967
10578TIP3   OH231674   2.373   2.230   0.337
10578TIP3    H131675   2.311   2.226   0.264
10578TIP3    H231676   2.359   2.149   0.385
10579TIP3   OH231677   0.401   5.165   5.366
10579TIP3    H131678   0.383   5.248   5.410
10579TIP3    H231679   0.329   5.108   5.390
10580TIP3   OH231680   5.367   4.677   4.864
10580TIP3    H131681   5.297   4.616   4.890
10580TIP3    H231682   5.432   4.621   4.821
10581TIP3   OH231683   8.324   2.821   1.279
10581TIP3    H131684   8.300   2.736   1.244
10581TIP3    H231685   8.241   2.869   1.284
10582TIP3   OH231686   3.728   1.181   5.876
10582TIP3    H131687   3.781   1.101   5.877
10582TIP3    H231688   3.743   1.218   5.789
10583TIP3   OH231689   4.865   2.085   5.538
10583TIP3    H131690   4.795   2.055   5.596
10583TIP3    H231691   4.890   2.171   5.571
10584TIP3   OH231692   7.553   4.397   2.137
10584TIP3    H131693   7.515   4.386   2.224
10584TIP3    H231694   7.514   4.328   2.085
10585TIP3   OH231695   7.552   3.809   3.928
10585TIP3    H131696   7.519   3.757   3.854
10585TIP3    H231697   7.496   3.887   3.928
10586TIP3   OH231698   5.815   2.657   6.735
10586TIP3    H131699   5.749   2.589   6.745
10586TIP3    H231700   5.877   2.621   6.671
10587TIP3   OH231701   1.781   0.844   0.100
10587TIP3    H131702   1.748   0.765   0.057
10587TIP3    H231703   1.834   0.887   0.033
10588TIP3   OH231704   5.002   7.397   3.987
10588TIP3    H131705   4.993   7.307   4.016
10588TIP3    H231706   5.074   7.433   4.039
10589TIP3   OH231707   4.010   7.453   2.940
10589TIP3    H131708   3.939   7.453   2.876
10589TIP3    H231709   4.007   7.366   2.980
10590TIP3   OH231710   2.477   7.917   1.187
10590TIP3    H131711   2.565   7.951   1.172
10590TIP3    H231712   2.485   7.860   1.264
10591TIP3   OH231713   0.121   0.915   5.941
10591TIP3    H131714   0.115   0.943   6.033
10591TIP3    H231715   0.043   0.861   5.928
10592TIP3   OH231716   0.641   1.376   5.731
10592TIP3    H131717   0.661   1.469   5.746
10592TIP3    H231718   0.650   1.365   5.637
10593TIP3   OH231719   5.583   7.181   2.030
10593TIP3    H131720   5.621   7.268   2.017
10593TIP3    H231721   5.659   7.125   2.047
10594TIP3   OH231722   7.928   1.347   2.406
10594TIP3    H131723   7.905   1.331   2.497
10594TIP3    H231724   7.862   1.411   2.376
10595TIP3   OH231725   6.795   2.447   4.495
10595TIP3    H131726   6.761   2.515   4.437
10595TIP3    H231727   6.810   2.492   4.578
10596TIP3   OH231728   2.323   6.210   2.836
10596TIP3    H131729   2.330   6.114   2.838
10596TIP3    H231730   2.249   6.228   2.778
10597TIP3   OH231731   6.651   4.754   0.590
10597TIP3    H131732   6.588   4.824   0.572
10597TIP3    H231733   6.725   4.774   0.533
10598TIP3   OH231734   6.540   2.311   5.222
10598TIP3    H131735   6.463   2.367   5.217
10598TIP3    H231736   6.566   2.298   5.131
10599TIP3   OH231737   3.535   2.597   0.550
10599TIP3    H131738   3.565   2.658   0.482
10599TIP3    H231739   3.440   2.611   0.555
10600TIP3   OH231740   5.927   6.621   0.362
10600TIP3    H131741   5.942   6.602   0.455
10600TIP3    H231742   5.950   6.713   0.352
10601TIP3   OH231743   2.616   0.935   1.514
10601TIP3    H131744   2.522   0.956   1.512
10601TIP3    H231745   2.619   0.844   1.544
10602TIP3   OH231746   3.849   0.110   4.838
10602TIP3    H131747   3.939   0.080   4.849
10602TIP3    H231748   3.801   0.072   4.911
10603TIP3   OH231749   7.138   7.912   4.069
10603TIP3    H131750   7.190   7.870   4.137
10603TIP3    H231751   7.200   7.927   3.997
10604TIP3   OH231752   6.323   4.798   6.130
10604TIP3    H131753   6.321   4.767   6.039
10604TIP3    H231754   6.239   4.769   6.166
10605TIP3   OH231755   6.460   0.510   4.609
10605TIP3    H131756   6.413   0.561   4.543
10605TIP3    H231757   6.460   0.566   4.687
10606TIP3   OH231758   2.182   4.913   6.601
10606TIP3    H131759   2.136   4.908   6.518
10606TIP3    H231760   2.235   4.992   6.595
10607TIP3   OH231761   0.112   5.066   5.619
10607TIP3    H131762   0.022   5.047   5.643
10607TIP3    H231763   0.165   5.009   5.674
10608TIP3   OH231764   1.699   6.774   0.187
10608TIP3    H131765   1.682   6.868   0.193
10608TIP3    H231766   1.631   6.742   0.128
10609TIP3   OH231767   6.143   1.774   3.584
10609TIP3    H131768   6.183   1.818   3.658
10609TIP3    H231769   6.118   1.844   3.524
10610TIP3   OH231770   1.285   4.731   3.911
10610TIP3    H131771   1.195   4.763   3.915
10610TIP3    H231772   1.333   4.786   3.973
10611TIP3   OH231773   7.365   5.089   3.793
10611TIP3    H131774   7.448   5.052   3.764
10611TIP3    H231775   7.380   5.183   3.794
10612TIP3   OH231776   3.207   7.328   2.784
10612TIP3    H131777   3.243   7.322   2.873
10612TIP3    H231778   3.266   7.275   2.731
10613TIP3   OH231779   6.220   4.876   0.718
10613TIP3    H131780   6.279   4.950   0.733
10613TIP3    H231781   6.134   4.917   0.702
10614TIP3   OH231782   4.976   7.791   1.729
10614TIP3    H131783   4.991   7.711   1.780
10614TIP3    H231784   5.057   7.803   1.679
10615TIP3   OH231785   4.564   5.243   6.044
10615TIP3    H131786   4.483   5.267   6.000
10615TIP3    H231787   4.632   5.296   6.001
10616TIP3   OH231788   0.413   2.782   1.923
10616TIP3    H131789   0.497   2.826   1.924
10616TIP3    H231790   0.377   2.800   1.836
10617TIP3   OH231791   0.315   4.076   0.908
10617TIP3    H131792   0.295   4.159   0.865
10617TIP3    H231793   0.410   4.076   0.918
10618TIP3   OH231794   3.466   2.540   2.270
10618TIP3    H131795   3.477   2.588   2.188
10618TIP3    H231796   3.413   2.464   2.245
10619TIP3   OH231797   3.647   3.119   0.283
10619TIP3    H131798   3.643   3.054   0.353
10619TIP3    H231799   3.559   3.155   0.278
10620TIP3   OH231800   4.411   2.403   3.996
10620TIP3    H131801   4.374   2.453   3.924
10620TIP3    H231802   4.374   2.443   4.075
10621TIP3   OH231803   0.842   5.534   6.860
10621TIP3    H131804   0.751   5.546   6.834
10621TIP3    H231805   0.891   5.540   6.778
10622TIP3   OH231806   3.870   0.955   4.549
10622TIP3    H131807   3.889   0.941   4.641
10622TIP3    H231808   3.931   0.898   4.502
10623TIP3   OH231809   8.337   5.283   1.593
10623TIP3    H131810   8.285   5.241   1.524
10623TIP3    H231811   8.402   5.335   1.546
10624TIP3   OH231812   1.414   7.724   4.633
10624TIP3    H131813   1.479   7.783   4.595
10624TIP3    H231814   1.406   7.653   4.570
10625TIP3   OH231815   1.973   3.481   2.250
10625TIP3    H131816   1.914   3.554   2.270
10625TIP3    H231817   1.978   3.479   2.155
10626TIP3   OH231818   8.159   4.907   5.899
10626TIP3    H131819   8.238   4.893   5.951
10626TIP3    H231820   8.089   4.864   5.949
10627TIP3   OH231821   0.280   3.711   1.402
10627TIP3    H131822   0.365   3.751   1.385
10627TIP3    H231823   0.217   3.773   1.367
10628TIP3   OH231824   7.227   7.728   0.566
10628TIP3    H131825   7.283   7.651   0.557
10628TIP3    H231826   7.288   7.800   0.581
10629TIP3   OH231827   7.239   0.989   2.191
10629TIP3    H131828   7.201   0.918   2.243
10629TIP3    H231829   7.251   0.951   2.104
10630TIP3   OH231830   0.717   3.072   6.113
10630TIP3    H131831   0.641   3.067   6.170
10630TIP3    H231832   0.788   3.102   6.169
10631TIP3   OH231833   7.694   4.625   2.467
10631TIP3    H131834   7.781   4.598   2.496
10631TIP3    H231835   7.710   4.694   2.403
10632TIP3   OH231836   0.338   5.291   1.033
10632TIP3    H131837   0.252   5.333   1.026
10632TIP3    H231838   0.396   5.348   0.984
10633TIP3   OH231839   8.086   1.333   5.073
10633TIP3    H131840   8.012   1.394   5.071
10633TIP3    H231841   8.046   1.247   5.062
10634TIP3   OH231842   3.297   1.623   2.074
10634TIP3    H131843   3.384   1.585   2.074
10634TIP3    H231844   3.270   1.622   2.166
10635TIP3   OH231845   1.314   6.834  -0.013
10635TIP3    H131846   1.294   6.842   0.080
10635TIP3    H231847   1.252   6.769  -0.046
10636TIP3   OH231848   1.275   1.498   0.529
10636TIP3    H131849   1.216   1.528   0.460
10636TIP3    H231850   1.291   1.406   0.509
10637TIP3   OH231851   4.082   6.182   6.107
10637TIP3    H131852   4.145   6.235   6.155
10637TIP3    H231853   4.058   6.236   6.032
10638TIP3   OH231854   1.975   3.515   5.953
10638TIP3    H131855   2.062   3.476   5.945
10638TIP3    H231856   1.938   3.510   5.865
10639TIP3   OH231857   4.573   0.638   1.451
10639TIP3    H131858   4.642   0.636   1.385
10639TIP3    H231859   4.607   0.585   1.524
10640TIP3   OH231860   3.410   4.909   4.876
10640TIP3    H131861   3.387   4.818   4.858
10640TIP3    H231862   3.448   4.907   4.964
10641TIP3   OH231863   5.279   5.563   5.801
10641TIP3    H131864   5.271   5.654   5.773
10641TIP3    H231865   5.362   5.533   5.763
10642TIP3   OH231866   3.978   1.839   3.456
10642TIP3    H131867   3.963   1.906   3.522
10642TIP3    H231868   3.939   1.875   3.376
10643TIP3   OH231869   5.749   1.929   3.565
10643TIP3    H131870   5.804   1.854   3.543
10643TIP3    H231871   5.685   1.934   3.494
10644TIP3   OH231872   1.624   1.914   6.500
10644TIP3    H131873   1.665   1.828   6.511
10644TIP3    H231874   1.533   1.894   6.479
10645TIP3   OH231875   2.471   0.018   4.006
10645TIP3    H131876   2.525   0.005   3.928
10645TIP3    H231877   2.529  -0.003   4.080
10646TIP3   OH231878   1.457   4.311   3.543
10646TIP3    H131879   1.412   4.283   3.622
10646TIP3    H231880   1.401   4.380   3.507
10647TIP3   OH231881   0.877   5.211   3.047
10647TIP3    H131882   0.804   5.222   2.986
10647TIP3    H231883   0.951   5.251   3.001
10648TIP3   OH231884   6.515   6.445   3.329
10648TIP3    H131885   6.517   6.497   3.409
10648TIP3    H231886   6.447   6.486   3.276
10649TIP3   OH231887   4.338   4.407   6.725
10649TIP3    H131888   4.331   4.389   6.632
10649TIP3    H231889   4.248   4.427   6.753
10650TIP3   OH231890   1.409   7.420   5.518
10650TIP3    H131891   1.331   7.475   5.512
10650TIP3    H231892   1.398   7.372   5.601
10651TIP3   OH231893   4.647   6.590   2.308
10651TIP3    H131894   4.726   6.633   2.275
10651TIP3    H231895   4.677   6.540   2.384
10652TIP3   OH231896   1.159   0.158   0.967
10652TIP3    H131897   1.152   0.248   0.936
10652TIP3    H231898   1.094   0.152   1.038
10653TIP3   OH231899   3.056   5.554   1.691
10653TIP3    H131900   3.091   5.472   1.725
10653TIP3    H231901   3.014   5.594   1.767
10654TIP3   OH231902   6.703   6.342   4.770
10654TIP3    H131903   6.704   6.402   4.695
10654TIP3    H231904   6.775   6.371   4.826
10655TIP3   OH231905   5.040   3.182   0.075
10655TIP3    H131906   4.977   3.235   0.025
10655TIP3    H231907   5.120   3.234   0.076
10656TIP3   OH231908   2.703   0.403   4.205
10656TIP3    H131909   2.778   0.432   4.153
10656TIP3    H231910   2.644   0.362   4.142
10657TIP3   OH231911   7.031   0.375   2.599
10657TIP3    H131912   7.010   0.283   2.616
10657TIP3    H231913   7.126   0.380   2.610
10658TIP3   OH231914   5.080   1.730   6.455
10658TIP3    H131915   5.163   1.685   6.440
10658TIP3    H231916   5.014   1.672   6.417
10659TIP3   OH231917   3.179   3.851   4.666
10659TIP3    H131918   3.115   3.796   4.711
10659TIP3    H231919   3.196   3.805   4.584
10660TIP3   OH231920   0.532   6.384   2.020
10660TIP3    H131921   0.611   6.400   1.967
10660TIP3    H231922   0.506   6.295   1.996
10661TIP3   OH231923   4.000   7.111   1.226
10661TIP3    H131924   3.995   7.018   1.201
10661TIP3    H231925   3.911   7.134   1.250
10662TIP3   OH231926   1.647   7.430   1.035
10662TIP3    H131927   1.566   7.470   1.067
10662TIP3    H231928   1.710   7.503   1.031
10663TIP3   OH231929   2.011  -0.005   3.561
10663TIP3    H131930   2.004  -0.001   3.656
10663TIP3    H231931   1.930   0.035   3.529
10664TIP3   OH231932   1.761   3.384   5.282
10664TIP3    H131933   1.817   3.395   5.359
10664TIP3    H231934   1.823   3.375   5.209
10665TIP3   OH231935   2.115   4.447   5.628
10665TIP3    H131936   2.089   4.359   5.657
10665TIP3    H231937   2.175   4.478   5.696
10666TIP3   OH231938   6.008   0.825   3.574
10666TIP3    H131939   6.016   0.865   3.661
10666TIP3    H231940   6.073   0.755   3.574
10667TIP3   OH231941   4.186   1.415   1.284
10667TIP3    H131942   4.269   1.396   1.329
10667TIP3    H231943   4.147   1.328   1.269
10668TIP3   OH231944   3.630   6.496   6.260
10668TIP3    H131945   3.543   6.529   6.278
10668TIP3    H231946   3.638   6.417   6.314
10669TIP3   OH231947   3.167   6.556   5.953
10669TIP3    H131948   3.088   6.502   5.950
10669TIP3    H231949   3.137   6.640   5.987
10670TIP3   OH231950   7.107   6.506   6.042
10670TIP3    H131951   7.154   6.423   6.029
10670TIP3    H231952   7.103   6.545   5.955
10671TIP3   OH231953   6.435   5.557   1.945
10671TIP3    H131954   6.448   5.624   1.879
10671TIP3    H231955   6.341   5.556   1.961
10672TIP3   OH231956   7.296   3.212   0.317
10672TIP3    H131957   7.315   3.293   0.269
10672TIP3    H231958   7.303   3.143   0.251
10673TIP3   OH231959   5.844   7.527   1.112
10673TIP3    H131960   5.911   7.524   1.044
10673TIP3    H231961   5.844   7.618   1.141
10674TIP3   OH231962   3.851   2.759   0.494
10674TIP3    H131963   3.806   2.678   0.471
10674TIP3    H231964   3.942   2.744   0.471
10675TIP3   OH231965   3.305   5.746   3.552
10675TIP3    H131966   3.333   5.829   3.591
10675TIP3    H231967   3.210   5.755   3.543
10676TIP3   OH231968   6.864   1.132   0.960
10676TIP3    H131969   6.903   1.077   1.027
10676TIP3    H231970   6.901   1.101   0.878
10677TIP3   OH231971   6.620   3.330   0.823
10677TIP3    H131972   6.568   3.395   0.777
10677TIP3    H231973   6.619   3.358   0.914
10678TIP3   OH231974   1.236   2.436   5.994
10678TIP3    H131975   1.283   2.408   6.072
10678TIP3    H231976   1.298   2.491   5.946
10679TIP3   OH231977   7.176   7.394   6.417
10679TIP3    H131978   7.243   7.447   6.461
10679TIP3    H231979   7.151   7.446   6.341
10680TIP3   OH231980   8.116   6.762   5.040
10680TIP3    H131981   8.045   6.701   5.023
10680TIP3    H231982   8.114   6.776   5.135
10681TIP3   OH231983   3.100   3.946   0.225
10681TIP3    H131984   3.046   3.868   0.237
10681TIP3    H231985   3.190   3.913   0.223
10682TIP3   OH231986   1.114   1.213   4.474
10682TIP3    H131987   1.111   1.118   4.486
10682TIP3    H231988   1.068   1.248   4.551
10683TIP3   OH231989   6.086   2.019   0.581
10683TIP3    H131990   6.159   2.075   0.608
10683TIP3    H231991   6.107   1.996   0.491
10684TIP3   OH231992   4.279   1.018   0.906
10684TIP3    H131993   4.347   1.007   0.840
10684TIP3    H231994   4.267   0.930   0.943
10685TIP3   OH231995   3.171   3.416   0.149
10685TIP3    H131996   3.203   3.373   0.070
10685TIP3    H231997   3.247   3.422   0.206
10686TIP3   OH231998   5.593   4.045   2.833
10686TIP3    H131999   5.542   4.036   2.753
10686TIP3    H232000   5.598   4.139   2.848
10687TIP3   OH232001   2.036   6.929   0.405
10687TIP3    H132002   1.973   7.000   0.412
10687TIP3    H232003   1.984   6.849   0.419
10688TIP3   OH232004   6.548   5.814   0.188
10688TIP3    H132005   6.490   5.741   0.209
10688TIP3    H232006   6.623   5.803   0.247
10689TIP3   OH232007   3.946   7.425   2.657
10689TIP3    H132008   3.953   7.355   2.593
10689TIP3    H232009   3.868   7.474   2.630
10690TIP3   OH232010   4.971   1.535   6.231
10690TIP3    H132011   4.982   1.618   6.184
10690TIP3    H232012   4.959   1.470   6.162
10691TIP3   OH232013   7.864   2.551   1.384
10691TIP3    H132014   7.840   2.468   1.426
10691TIP3    H232015   7.830   2.618   1.443
10692TIP3   OH232016   6.159   6.877   1.317
10692TIP3    H132017   6.254   6.876   1.305
10692TIP3    H232018   6.125   6.834   1.239
10693TIP3   OH232019   0.618   4.350   3.743
10693TIP3    H132020   0.688   4.412   3.725
10693TIP3    H232021   0.600   4.360   3.837
10694TIP3   OH232022   6.664   2.174   0.418
10694TIP3    H132023   6.617   2.092   0.403
10694TIP3    H232024   6.754   2.146   0.436
10695TIP3   OH232025   7.999   4.081   1.413
10695TIP3    H132026   8.026   4.158   1.463
10695TIP3    H232027   7.937   4.035   1.470
10696TIP3   OH232028   8.317   7.813   4.509
10696TIP3    H132029   8.224   7.811   4.490
10696TIP3    H232030   8.335   7.903   4.536
10697TIP3   OH232031   6.375   7.235   5.015
10697TIP3    H132032   6.427   7.259   4.938
10697TIP3    H232033   6.285   7.258   4.991
10698TIP3   OH232034   4.412   0.144   0.903
10698TIP3    H132035   4.473   0.200   0.854
10698TIP3    H232036   4.370   0.203   0.965
10699TIP3   OH232037   7.458   3.420   4.534
10699TIP3    H132038   7.443   3.343   4.479
10699TIP3    H232039   7.389   3.481   4.508
10700TIP3   OH232040   0.327   2.193   1.295
10700TIP3    H132041   0.294   2.280   1.318
10700TIP3    H232042   0.393   2.174   1.362
10701TIP3   OH232043   2.940   3.260   4.067
10701TIP3    H132044   2.964   3.168   4.052
10701TIP3    H232045   2.960   3.275   4.159
10702TIP3   OH232046   7.047   7.695   2.737
10702TIP3    H132047   7.141   7.704   2.751
10702TIP3    H232048   7.012   7.784   2.750
10703TIP3   OH232049   7.797   2.267   0.905
10703TIP3    H132050   7.738   2.210   0.856
10703TIP3    H232051   7.884   2.234   0.885
10704TIP3   OH232052   6.596   4.699   5.137
10704TIP3    H132053   6.623   4.615   5.100
10704TIP3    H232054   6.503   4.706   5.116
10705TIP3   OH232055   5.189   6.841   4.690
10705TIP3    H132056   5.232   6.782   4.752
10705TIP3    H232057   5.244   6.919   4.688
10706TIP3   OH232058   4.669   7.919   6.229
10706TIP3    H132059   4.661   7.933   6.134
10706TIP3    H232060   4.763   7.909   6.243
10707TIP3   OH232061   2.591   1.183   5.997
10707TIP3    H132062   2.682   1.197   5.971
10707TIP3    H232063   2.573   1.252   6.061
10708TIP3   OH232064   0.347   6.668   1.488
10708TIP3    H132065   0.324   6.710   1.571
10708TIP3    H232066   0.438   6.641   1.500
10709TIP3   OH232067   7.163   3.758   2.125
10709TIP3    H132068   7.097   3.726   2.186
10709TIP3    H232069   7.236   3.786   2.181
10710TIP3   OH232070   7.532   1.305   6.774
10710TIP3    H132071   7.441   1.311   6.746
10710TIP3    H232072   7.533   1.233   6.837
10711TIP3   OH232073   0.666   3.307   5.490
10711TIP3    H132074   0.652   3.367   5.564
10711TIP3    H232075   0.685   3.223   5.531
10712TIP3   OH232076   2.232   7.013   6.325
10712TIP3    H132077   2.277   6.939   6.365
10712TIP3    H232078   2.282   7.033   6.247
10713TIP3   OH232079   8.047   5.855   4.730
10713TIP3    H132080   8.023   5.887   4.816
10713TIP3    H232081   8.024   5.926   4.670
10714TIP3   OH232082   3.395   0.936   2.301
10714TIP3    H132083   3.482   0.900   2.319
10714TIP3    H232084   3.360   0.957   2.388
10715TIP3   OH232085   0.224   5.696   1.554
10715TIP3    H132086   0.266   5.757   1.615
10715TIP3    H232087   0.162   5.751   1.506
10716TIP3   OH232088   4.855   3.062   4.934
10716TIP3    H132089   4.834   3.081   5.025
10716TIP3    H232090   4.871   3.148   4.895
10717TIP3   OH232091   7.187   6.612   5.780
10717TIP3    H132092   7.280   6.589   5.777
10717TIP3    H232093   7.184   6.703   5.751
10718TIP3   OH232094   2.768   4.725   4.413
10718TIP3    H132095   2.744   4.794   4.351
10718TIP3    H232096   2.702   4.657   4.399
10719TIP3   OH232097   2.924   1.342   0.878
10719TIP3    H132098   2.835   1.348   0.842
10719TIP3    H232099   2.913   1.297   0.962
10720TIP3   OH232100   3.080   0.864   4.024
10720TIP3    H132101   3.071   0.824   3.937
10720TIP3    H232102   3.134   0.941   4.009
10721TIP3   OH232103   7.879   6.955   1.298
10721TIP3    H132104   7.970   6.938   1.320
10721TIP3    H232105   7.852   7.024   1.358
10722TIP3   OH232106   2.310   5.462   5.597
10722TIP3    H132107   2.334   5.441   5.688
10722TIP3    H232108   2.214   5.459   5.596
10723TIP3   OH232109   5.110   6.583   2.638
10723TIP3    H132110   5.176   6.631   2.589
10723TIP3    H232111   5.146   6.573   2.726
10724TIP3   OH232112   6.891   0.023   0.336
10724TIP3    H132113   6.945  -0.038   0.387
10724TIP3    H232114   6.935   0.108   0.345
10725TIP3   OH232115   2.806   5.603   3.168
10725TIP3    H132116   2.789   5.666   3.098
10725TIP3    H232117   2.901   5.608   3.183
10726TIP3   OH232118   7.147   4.766   5.474
10726TIP3    H132119   7.104   4.795   5.555
10726TIP3    H232120   7.206   4.696   5.502
10727TIP3   OH232121   1.348   3.066   2.796
10727TIP3    H132122   1.438   3.074   2.829
10727TIP3    H232123   1.356   3.009   2.719
10728TIP3   OH232124   3.347   5.174   2.403
10728TIP3    H132125   3.275   5.145   2.348
10728TIP3    H232126   3.305   5.220   2.476
10729TIP3   OH232127   5.375   3.710   2.259
10729TIP3    H132128   5.385   3.642   2.326
10729TIP3    H232129   5.458   3.710   2.212
10730TIP3   OH232130   5.002   1.176   1.099
10730TIP3    H132131   4.983   1.137   1.184
10730TIP3    H232132   4.981   1.108   1.035
10731TIP3   OH232133   4.530   1.757   5.707
10731TIP3    H132134   4.510   1.778   5.798
10731TIP3    H232135   4.613   1.710   5.710
10732TIP3   OH232136   2.565   0.889   5.928
10732TIP3    H132137   2.626   0.887   5.855
10732TIP3    H232138   2.552   0.982   5.946
10733TIP3   OH232139   8.352   0.012   4.841
10733TIP3    H132140   8.342  -0.026   4.754
10733TIP3    H232141   8.317   0.100   4.833
10734TIP3   OH232142   3.553   6.432   3.501
10734TIP3    H132143   3.542   6.524   3.475
10734TIP3    H232144   3.587   6.436   3.590
10735TIP3   OH232145   5.389   4.865   6.226
10735TIP3    H132146   5.443   4.903   6.295
10735TIP3    H232147   5.434   4.783   6.203
10736TIP3   OH232148   6.344   7.170   5.992
10736TIP3    H132149   6.294   7.179   5.910
10736TIP3    H232150   6.356   7.260   6.022
10737TIP3   OH232151   5.323   0.148   3.174
10737TIP3    H132152   5.247   0.202   3.152
10737TIP3    H232153   5.298   0.059   3.152
10738TIP3   OH232154   8.285   0.779   5.584
10738TIP3    H132155   8.342   0.724   5.637
10738TIP3    H232156   8.231   0.827   5.647
10739TIP3   OH232157   4.378   3.382   0.114
10739TIP3    H132158   4.311   3.383   0.046
10739TIP3    H232159   4.456   3.417   0.072
10740TIP3   OH232160   6.083   6.410   5.730
10740TIP3    H132161   6.026   6.339   5.701
10740TIP3    H232162   6.165   6.395   5.682
10741TIP3   OH232163   2.587   1.952   4.371
10741TIP3    H132164   2.616   1.883   4.312
10741TIP3    H232165   2.525   2.004   4.320
10742TIP3   OH232166   4.972   0.870   5.329
10742TIP3    H132167   4.977   0.864   5.233
10742TIP3    H232168   5.061   0.853   5.358
10743TIP3   OH232169   4.731   3.859   1.297
10743TIP3    H132170   4.806   3.890   1.348
10743TIP3    H232171   4.745   3.893   1.209
10744TIP3   OH232172   2.975   2.751   1.677
10744TIP3    H132173   2.892   2.796   1.657
10744TIP3    H232174   2.994   2.700   1.599
10745TIP3   OH232175   3.264   2.958   4.521
10745TIP3    H132176   3.236   2.931   4.434
10745TIP3    H232177   3.353   2.992   4.508
10746TIP3   OH232178   4.737   0.990   3.253
10746TIP3    H132179   4.741   1.067   3.309
10746TIP3    H232180   4.736   0.916   3.313
10747TIP3   OH232181   7.928   2.873   6.012
10747TIP3    H132182   7.901   2.876   5.921
10747TIP3    H232183   7.860   2.922   6.059
10748TIP3   OH232184   2.354   6.704   2.233
10748TIP3    H132185   2.293   6.632   2.221
10748TIP3    H232186   2.382   6.727   2.144
10749TIP3   OH232187   4.141   7.114   5.586
10749TIP3    H132188   4.187   7.031   5.595
10749TIP3    H232189   4.096   7.107   5.502
10750TIP3   OH232190   1.404   6.136   0.347
10750TIP3    H132191   1.420   6.046   0.320
10750TIP3    H232192   1.326   6.163   0.297
10751TIP3   OH232193   4.845   7.789   4.266
10751TIP3    H132194   4.905   7.800   4.192
10751TIP3    H232195   4.780   7.727   4.234
10752TIP3   OH232196   1.586   6.588   4.890
10752TIP3    H132197   1.659   6.555   4.838
10752TIP3    H232198   1.626   6.636   4.962
10753TIP3   OH232199   3.782   2.257   0.919
10753TIP3    H132200   3.834   2.192   0.871
10753TIP3    H232201   3.840   2.287   0.989
10754TIP3   OH232202   0.102   7.068   2.986
10754TIP3    H132203   0.182   7.091   3.033
10754TIP3    H232204   0.033   7.070   3.052
10755TIP3   OH232205   8.204   4.944   3.808
10755TIP3    H132206   8.178   5.004   3.739
10755TIP3    H232207   8.285   4.904   3.776
10756TIP3   OH232208   0.693   5.243   2.846
10756TIP3    H132209   0.611   5.287   2.828
10756TIP3    H232210   0.717   5.202   2.763
10757TIP3   OH232211   4.789   1.158   6.562
10757TIP3    H132212   4.739   1.098   6.617
10757TIP3    H232213   4.729   1.181   6.491
10758TIP3   OH232214   2.914   5.216   3.981
10758TIP3    H132215   2.850   5.156   4.020
10758TIP3    H232216   2.927   5.284   4.047
10759TIP3   OH232217   5.654   2.232   3.261
10759TIP3    H132218   5.629   2.148   3.298
10759TIP3    H232219   5.636   2.296   3.330
10760TIP3   OH232220   7.702   3.083   0.362
10760TIP3    H132221   7.638   3.153   0.347
10760TIP3    H232222   7.650   3.010   0.396
10761TIP3   OH232223   2.398   3.068   3.822
10761TIP3    H132224   2.318   3.066   3.875
10761TIP3    H232225   2.376   3.017   3.744
10762TIP3   OH232226   4.993   2.790   3.121
10762TIP3    H132227   5.025   2.745   3.200
10762TIP3    H232228   4.996   2.723   3.053
10763TIP3   OH232229   7.072   7.266   5.917
10763TIP3    H132230   7.079   7.246   5.824
10763TIP3    H232231   6.980   7.288   5.930
10764TIP3   OH232232   8.359   3.591   3.065
10764TIP3    H132233   8.446   3.627   3.045
10764TIP3    H232234   8.299   3.664   3.051
10765TIP3   OH232235   2.789   4.269   3.851
10765TIP3    H132236   2.712   4.231   3.894
10765TIP3    H232237   2.863   4.244   3.906
10766TIP3   OH232238   3.275   4.656   4.581
10766TIP3    H132239   3.330   4.734   4.575
10766TIP3    H232240   3.193   4.681   4.537
10767TIP3   OH232241   3.003   2.520   5.951
10767TIP3    H132242   2.920   2.554   5.987
10767TIP3    H232243   3.068   2.542   6.018
10768TIP3   OH232244   6.391   2.949   1.190
10768TIP3    H132245   6.474   2.906   1.173
10768TIP3    H232246   6.401   3.036   1.154
10769TIP3   OH232247   5.618   4.724   3.003
10769TIP3    H132248   5.667   4.686   2.930
10769TIP3    H232249   5.643   4.671   3.078
10770TIP3   OH232250   3.594   5.960   5.160
10770TIP3    H132251   3.619   6.018   5.088
10770TIP3    H232252   3.564   6.020   5.229
10771TIP3   OH232253   6.209   6.247   1.854
10771TIP3    H132254   6.185   6.292   1.935
10771TIP3    H232255   6.185   6.155   1.869
10772TIP3   OH232256   1.447   7.036   5.170
10772TIP3    H132257   1.352   7.030   5.163
10772TIP3    H232258   1.463   7.120   5.213
10773TIP3   OH232259   7.066   2.876   2.377
10773TIP3    H132260   7.057   2.933   2.454
10773TIP3    H232261   7.161   2.873   2.361
10774TIP3   OH232262   2.610   0.035   5.952
10774TIP3    H132263   2.588  -0.054   5.981
10774TIP3    H232264   2.658   0.073   6.026
10775TIP3   OH232265   5.997   2.849   4.733
10775TIP3    H132266   5.956   2.869   4.817
10775TIP3    H232267   6.023   2.934   4.698
10776TIP3   OH232268   7.772   5.392   2.442
10776TIP3    H132269   7.796   5.319   2.498
10776TIP3    H232270   7.849   5.448   2.440
10777TIP3   OH232271   2.587   1.357   3.235
10777TIP3    H132272   2.578   1.341   3.141
10777TIP3    H232273   2.508   1.406   3.259
10778TIP3   OH232274   0.727   0.605   2.394
10778TIP3    H132275   0.728   0.597   2.490
10778TIP3    H232276   0.810   0.565   2.366
10779TIP3   OH232277   1.381   2.877   2.589
10779TIP3    H132278   1.412   2.857   2.501
10779TIP3    H232279   1.410   2.802   2.642
10780TIP3   OH232280   6.176   3.085   3.034
10780TIP3    H132281   6.152   3.171   3.069
10780TIP3    H232282   6.269   3.094   3.011
10781TIP3   OH232283   5.526   6.926   1.098
10781TIP3    H132284   5.491   6.977   1.025
10781TIP3    H232285   5.513   6.982   1.175
10782TIP3   OH232286   2.385   6.366   3.332
10782TIP3    H132287   2.417   6.434   3.391
10782TIP3    H232288   2.292   6.385   3.322
10783TIP3   OH232289   6.535   4.957   6.515
10783TIP3    H132290   6.538   4.962   6.420
10783TIP3    H232291   6.478   4.882   6.533
10784TIP3   OH232292   7.650   7.779   3.823
10784TIP3    H132293   7.649   7.713   3.893
10784TIP3    H232294   7.739   7.776   3.788
10785TIP3   OH232295   5.960   0.192   0.708
10785TIP3    H132296   5.947   0.099   0.692
10785TIP3    H232297   5.972   0.230   0.620
10786TIP3   OH232298   4.323   2.399   6.550
10786TIP3    H132299   4.260   2.461   6.586
10786TIP3    H232300   4.298   2.315   6.588
10787TIP3   OH232301   4.082   1.405   0.347
10787TIP3    H132302   4.140   1.435   0.276
10787TIP3    H232303   4.098   1.466   0.419
10788TIP3   OH232304   4.087   5.538   3.957
10788TIP3    H132305   4.147   5.468   3.985
10788TIP3    H232306   4.078   5.593   4.035
10789TIP3   OH232307   2.826   4.253   5.683
10789TIP3    H132308   2.801   4.295   5.600
10789TIP3    H232309   2.915   4.283   5.699
10790TIP3   OH232310   4.770   6.192   0.234
10790TIP3    H132311   4.690   6.199   0.286
10790TIP3    H232312   4.840   6.198   0.299
10791TIP3   OH232313   0.548   6.203   6.855
10791TIP3    H132314   0.485   6.143   6.815
10791TIP3    H232315   0.615   6.147   6.892
10792TIP3   OH232316   7.557   0.985   1.700
10792TIP3    H132317   7.600   0.900   1.700
10792TIP3    H232318   7.464   0.966   1.688
10793TIP3   OH232319   2.806   0.317   4.454
10793TIP3    H132320   2.879   0.264   4.422
10793TIP3    H232321   2.782   0.371   4.378
10794TIP3   OH232322   4.526   6.759   6.113
10794TIP3    H132323   4.590   6.782   6.181
10794TIP3    H232324   4.579   6.730   6.039
10795TIP3   OH232325   7.150   2.540   1.923
10795TIP3    H132326   7.220   2.557   1.986
10795TIP3    H232327   7.069   2.553   1.973
10796TIP3   OH232328   5.587   3.436   3.520
10796TIP3    H132329   5.597   3.454   3.427
10796TIP3    H232330   5.612   3.344   3.530
10797TIP3   OH232331   0.029   2.639   1.040
10797TIP3    H132332   0.074   2.586   1.106
10797TIP3    H232333  -0.063   2.614   1.049
10798TIP3   OH232334   0.795   3.418   3.557
10798TIP3    H132335   0.857   3.418   3.631
10798TIP3    H232336   0.758   3.506   3.558
10799TIP3   OH232337   2.249   0.608   0.950
10799TIP3    H132338   2.337   0.642   0.935
10799TIP3    H232339   2.191   0.682   0.934
10800TIP3   OH232340   5.729   7.309   1.227
10800TIP3    H132341   5.813   7.277   1.259
10800TIP3    H232342   5.746   7.398   1.198
10801TIP3   OH232343   1.251   6.049   3.915
10801TIP3    H132344   1.198   5.982   3.873
10801TIP3    H232345   1.329   6.003   3.944
10802TIP3   OH232346   7.980   4.363   6.333
10802TIP3    H132347   7.938   4.448   6.323
10802TIP3    H232348   8.021   4.347   6.248
10803TIP3   OH232349   6.012   4.590   2.683
10803TIP3    H132350   6.080   4.522   2.692
10803TIP3    H232351   6.050   4.667   2.725
10804TIP3   OH232352   6.916   5.760   5.090
10804TIP3    H132353   6.928   5.757   5.185
10804TIP3    H232354   6.964   5.838   5.062
10805TIP3   OH232355   7.950   1.387   1.636
10805TIP3    H132356   7.877   1.448   1.648
10805TIP3    H232357   7.923   1.308   1.683
10806TIP3   OH232358   6.570   7.830   3.598
10806TIP3    H132359   6.520   7.873   3.528
10806TIP3    H232360   6.662   7.845   3.574
10807TIP3   OH232361   7.395   7.045   2.964
10807TIP3    H132362   7.434   7.113   2.908
10807TIP3    H232363   7.324   7.009   2.911
10808TIP3   OH232364   7.656   1.383   3.863
10808TIP3    H132365   7.714   1.314   3.894
10808TIP3    H232366   7.584   1.384   3.927
10809TIP3   OH232367   1.307   3.821   0.278
10809TIP3    H132368   1.355   3.794   0.200
10809TIP3    H232369   1.373   3.820   0.348
10810TIP3   OH232370   0.870   4.530   4.737
10810TIP3    H132371   0.786   4.569   4.761
10810TIP3    H232372   0.848   4.467   4.668
10811TIP3   OH232373   0.729   6.685   6.152
10811TIP3    H132374   0.708   6.755   6.090
10811TIP3    H232375   0.646   6.640   6.166
10812TIP3   OH232376   6.652   1.216   1.896
10812TIP3    H132377   6.698   1.269   1.961
10812TIP3    H232378   6.584   1.170   1.946
10813TIP3   OH232379   6.896   1.573   3.103
10813TIP3    H132380   6.902   1.626   3.183
10813TIP3    H232381   6.803   1.571   3.083
10814TIP3   OH232382   3.077   5.962   4.084
10814TIP3    H132383   3.128   5.882   4.080
10814TIP3    H232384   3.079   5.987   4.176
10815TIP3   OH232385   4.141   2.585   4.713
10815TIP3    H132386   4.203   2.552   4.648
10815TIP3    H232387   4.189   2.580   4.796
10816TIP3   OH232388   3.964   7.917   5.651
10816TIP3    H132389   3.950   7.822   5.644
10816TIP3    H232390   3.945   7.938   5.742
10817TIP3   OH232391   2.834   4.957   2.357
10817TIP3    H132392   2.809   4.976   2.266
10817TIP3    H232393   2.781   4.881   2.380
10818TIP3   OH232394   2.613   7.536   4.991
10818TIP3    H132395   2.661   7.568   4.914
10818TIP3    H232396   2.628   7.602   5.058
10819TIP3   OH232397   8.328   0.387   5.116
10819TIP3    H132398   8.308   0.389   5.210
10819TIP3    H232399   8.412   0.342   5.110
10820TIP3   OH232400   4.816   7.251   0.258
10820TIP3    H132401   4.847   7.284   0.342
10820TIP3    H232402   4.895   7.232   0.208
10821TIP3   OH232403   2.845   2.222   4.638
10821TIP3    H132404   2.867   2.258   4.725
10821TIP3    H232405   2.792   2.145   4.657
10822TIP3   OH232406   1.859   6.296   4.427
10822TIP3    H132407   1.921   6.292   4.354
10822TIP3    H232408   1.781   6.336   4.390
10823TIP3   OH232409   3.859   3.312   5.030
10823TIP3    H132410   3.873   3.405   5.013
10823TIP3    H232411   3.799   3.284   4.961
10824TIP3   OH232412   1.031   3.238   0.868
10824TIP3    H132413   1.076   3.258   0.950
10824TIP3    H232414   1.052   3.313   0.811
10825TIP3   OH232415   5.664   1.029   2.555
10825TIP3    H132416   5.571   1.056   2.556
10825TIP3    H232417   5.663   0.941   2.520
10826TIP3   OH232418   2.325   1.177   3.489
10826TIP3    H132419   2.262   1.151   3.556
10826TIP3    H232420   2.291   1.139   3.408
10827TIP3   OH232421   1.719   1.569   5.117
10827TIP3    H132422   1.791   1.582   5.178
10827TIP3    H232423   1.641   1.596   5.165
10828TIP3   OH232424   6.797   6.147   3.897
10828TIP3    H132425   6.856   6.163   3.970
10828TIP3    H232426   6.840   6.078   3.846
10829TIP3   OH232427   2.668   2.382   4.121
10829TIP3    H132428   2.739   2.365   4.182
10829TIP3    H232429   2.638   2.295   4.094
10830TIP3   OH232430   6.937   5.631   3.383
10830TIP3    H132431   6.969   5.719   3.405
10830TIP3    H232432   6.884   5.605   3.459
10831TIP3   OH232433   2.336   0.923   1.511
10831TIP3    H132434   2.308   0.922   1.602
10831TIP3    H232435   2.322   0.833   1.481
10832TIP3   OH232436   2.891   4.543   6.198
10832TIP3    H132437   2.818   4.574   6.252
10832TIP3    H232438   2.962   4.528   6.261
10833TIP3   OH232439   8.274   1.593   2.017
10833TIP3    H132440   8.223   1.547   1.950
10833TIP3    H232441   8.220   1.589   2.095
10834TIP3   OH232442   8.195   0.456   3.719
10834TIP3    H132443   8.146   0.515   3.661
10834TIP3    H232444   8.286   0.484   3.709
10835TIP3   OH232445   6.191   1.211   5.122
10835TIP3    H132446   6.271   1.245   5.161
10835TIP3    H232447   6.151   1.287   5.080
10836TIP3   OH232448   3.648   5.097   4.449
10836TIP3    H132449   3.643   5.142   4.365
10836TIP3    H232450   3.579   5.136   4.503
10837TIP3   OH232451   5.565   4.395   1.796
10837TIP3    H132452   5.566   4.490   1.782
10837TIP3    H232453   5.529   4.359   1.715
10838TIP3   OH232454   1.206   1.400   2.799
10838TIP3    H132455   1.139   1.393   2.731
10838TIP3    H232456   1.268   1.330   2.779
10839TIP3   OH232457   6.418   4.058   5.241
10839TIP3    H132458   6.474   4.064   5.163
10839TIP3    H232459   6.458   3.988   5.293
10840TIP3   OH232460   2.071   3.121   4.100
10840TIP3    H132461   2.122   3.175   4.160
10840TIP3    H232462   2.004   3.179   4.065
10841TIP3   OH232463   2.437   1.721   3.643
10841TIP3    H132464   2.481   1.805   3.627
10841TIP3    H232465   2.369   1.717   3.576
10842TIP3   OH232466   2.115   7.449   2.749
10842TIP3    H132467   2.086   7.537   2.723
10842TIP3    H232468   2.168   7.463   2.827
10843TIP3   OH232469   5.775   5.534   4.919
10843TIP3    H132470   5.814   5.447   4.927
10843TIP3    H232471   5.722   5.543   4.999
10844TIP3   OH232472   3.455   0.115   5.342
10844TIP3    H132473   3.419   0.204   5.345
10844TIP3    H232474   3.406   0.072   5.271
10845TIP3   OH232475   8.290   4.016   6.249
10845TIP3    H132476   8.269   4.104   6.280
10845TIP3    H232477   8.281   3.961   6.327
10846TIP3   OH232478   1.798   6.435   0.318
10846TIP3    H132479   1.802   6.410   0.411
10846TIP3    H232480   1.705   6.432   0.296
10847TIP3   OH232481   0.600   4.496   0.623
10847TIP3    H132482   0.648   4.413   0.631
10847TIP3    H232483   0.664   4.563   0.649
10848TIP3   OH232484   1.277   6.169   2.205
10848TIP3    H132485   1.292   6.222   2.283
10848TIP3    H232486   1.350   6.191   2.147
10849TIP3   OH232487   8.085   0.036   4.436
10849TIP3    H132488   8.013   0.096   4.454
10849TIP3    H232489   8.092  -0.017   4.516
10850TIP3   OH232490   7.527   7.353   2.250
10850TIP3    H132491   7.550   7.392   2.165
10850TIP3    H232492   7.611   7.341   2.295
10851TIP3   OH232493   6.110   3.583   2.269
10851TIP3    H132494   6.108   3.518   2.199
10851TIP3    H232495   6.139   3.663   2.226
10852TIP3   OH232496   0.928   3.192   6.635
10852TIP3    H132497   0.981   3.112   6.632
10852TIP3    H232498   0.986   3.260   6.601
10853TIP3   OH232499   5.680   0.313   1.966
10853TIP3    H132500   5.741   0.244   1.993
10853TIP3    H232501   5.703   0.388   2.021
10854TIP3   OH232502   7.075   4.790   3.574
10854TIP3    H132503   7.057   4.696   3.579
10854TIP3    H232504   7.128   4.800   3.495
10855TIP3   OH232505   3.992   5.478   5.509
10855TIP3    H132506   4.041   5.400   5.480
10855TIP3    H232507   3.951   5.511   5.430
10856TIP3   OH232508   2.672   6.686   3.733
10856TIP3    H132509   2.691   6.771   3.772
10856TIP3    H232510   2.618   6.642   3.798
10857TIP3   OH232511   4.601   5.188   6.325
10857TIP3    H132512   4.605   5.197   6.229
10857TIP3    H232513   4.511   5.164   6.343
10858TIP3   OH232514   4.485   7.133   2.853
10858TIP3    H132515   4.576   7.110   2.875
10858TIP3    H232516   4.491   7.221   2.815
10859TIP3   OH232517   3.519   5.438   4.841
10859TIP3    H132518   3.456   5.506   4.864
10859TIP3    H232519   3.484   5.359   4.882
10860TIP3   OH232520   0.724   5.258   0.184
10860TIP3    H132521   0.761   5.321   0.246
10860TIP3    H232522   0.661   5.207   0.235
10861TIP3   OH232523   2.455   5.711   5.524
10861TIP3    H132524   2.398   5.751   5.459
10861TIP3    H232525   2.420   5.622   5.534
10862TIP3   OH232526   5.994   6.239   5.208
10862TIP3    H132527   5.984   6.303   5.278
10862TIP3    H232528   6.074   6.191   5.230
10863TIP3   OH232529   2.342   1.802   3.342
10863TIP3    H132530   2.433   1.773   3.339
10863TIP3    H232531   2.306   1.777   3.257
10864TIP3   OH232532   1.639   2.035   0.672
10864TIP3    H132533   1.726   2.050   0.710
10864TIP3    H232534   1.581   2.092   0.723
10865TIP3   OH232535   0.434   3.050   6.139
10865TIP3    H132536   0.407   2.959   6.140
10865TIP3    H232537   0.359   3.098   6.172
10866TIP3   OH232538   1.211   3.550   6.780
10866TIP3    H132539   1.144   3.614   6.806
10866TIP3    H232540   1.291   3.581   6.821
10867TIP3   OH232541   0.349   7.690   1.003
10867TIP3    H132542   0.386   7.643   0.928
10867TIP3    H232543   0.327   7.777   0.969
10868TIP3   OH232544   7.545   0.690   4.794
10868TIP3    H132545   7.581   0.670   4.708
10868TIP3    H232546   7.574   0.619   4.850
10869TIP3   OH232547   3.968   0.443   6.599
10869TIP3    H132548   3.898   0.384   6.626
10869TIP3    H232549   4.018   0.460   6.680
10870TIP3   OH232550   4.257   4.557   4.871
10870TIP3    H132551   4.332   4.546   4.930
10870TIP3    H232552   4.268   4.645   4.835
10871TIP3   OH232553   8.309   1.009   2.737
10871TIP3    H132554   8.213   1.012   2.739
10871TIP3    H232555   8.336   1.041   2.823
10872TIP3   OH232556   2.743   5.071   5.295
10872TIP3    H132557   2.757   4.989   5.249
10872TIP3    H232558   2.706   5.130   5.229
10873TIP3   OH232559   4.569   5.274   5.450
10873TIP3    H132560   4.528   5.202   5.402
10873TIP3    H232561   4.501   5.306   5.509
10874TIP3   OH232562   4.680   3.895   6.734
10874TIP3    H132563   4.686   3.990   6.734
10874TIP3    H232564   4.646   3.873   6.821
10875TIP3   OH232565   3.471   1.594   5.345
10875TIP3    H132566   3.548   1.538   5.332
10875TIP3    H232567   3.480   1.626   5.435
10876TIP3   OH232568   0.430   7.260   1.774
10876TIP3    H132569   0.342   7.284   1.803
10876TIP3    H232570   0.423   7.250   1.680
10877TIP3   OH232571   7.782   7.705   2.583
10877TIP3    H132572   7.831   7.727   2.662
10877TIP3    H232573   7.725   7.633   2.610
10878TIP3   OH232574   7.387   3.231   1.888
10878TIP3    H132575   7.421   3.222   1.977
10878TIP3    H232576   7.343   3.147   1.872
10879TIP3   OH232577   1.528   4.341   5.158
10879TIP3    H132578   1.470   4.338   5.234
10879TIP3    H232579   1.530   4.250   5.126
10880TIP3   OH232580   1.472   5.375   6.111
10880TIP3    H132581   1.429   5.417   6.185
10880TIP3    H232582   1.404   5.367   6.044
10881TIP3   OH232583   6.814   4.391   6.076
10881TIP3    H132584   6.862   4.390   5.993
10881TIP3    H232585   6.767   4.308   6.078
10882TIP3   OH232586   2.423   0.358   5.921
10882TIP3    H132587   2.408   0.338   5.828
10882TIP3    H232588   2.386   0.282   5.967
10883TIP3   OH232589   6.990   3.689   5.819
10883TIP3    H132590   6.903   3.676   5.857
10883TIP3    H232591   7.050   3.684   5.894
10884TIP3   OH232592   5.297   6.950   6.576
10884TIP3    H132593   5.296   6.881   6.643
10884TIP3    H232594   5.215   6.997   6.589
10885TIP3   OH232595   6.010   7.665   2.231
10885TIP3    H132596   6.077   7.672   2.162
10885TIP3    H232597   6.036   7.589   2.283
10886TIP3   OH232598   5.363   0.375   0.382
10886TIP3    H132599   5.295   0.434   0.351
10886TIP3    H232600   5.396   0.417   0.462
10887TIP3   OH232601   6.680   4.158   4.025
10887TIP3    H132602   6.667   4.251   4.004
10887TIP3    H232603   6.764   4.136   3.986
10888TIP3   OH232604   5.770   2.642   4.209
10888TIP3    H132605   5.736   2.581   4.144
10888TIP3    H232606   5.814   2.710   4.158
10889TIP3   OH232607   5.527   4.470   5.350
10889TIP3    H132608   5.437   4.500   5.338
10889TIP3    H232609   5.574   4.503   5.273
10890TIP3   OH232610   4.821   2.526   2.542
10890TIP3    H132611   4.897   2.473   2.567
10890TIP3    H232612   4.829   2.538   2.448
10891TIP3   OH232613   0.171   6.021   4.240
10891TIP3    H132614   0.216   5.986   4.163
10891TIP3    H232615   0.186   6.116   4.236
10892TIP3   OH232616   5.856   6.227   6.866
10892TIP3    H132617   5.879   6.316   6.840
10892TIP3    H232618   5.762   6.220   6.849
10893TIP3   OH232619   5.272   3.111   5.975
10893TIP3    H132620   5.183   3.110   6.012
10893TIP3    H232621   5.305   3.198   5.997
10894TIP3   OH232622   2.436   3.431   5.551
10894TIP3    H132623   2.453   3.448   5.458
10894TIP3    H232624   2.511   3.468   5.596
10895TIP3   OH232625   8.229   7.545   2.443
10895TIP3    H132626   8.249   7.545   2.349
10895TIP3    H232627   8.264   7.462   2.475
10896TIP3   OH232628   2.141   2.031   0.750
10896TIP3    H132629   2.107   1.945   0.724
10896TIP3    H232630   2.104   2.091   0.685
10897TIP3   OH232631   5.880   4.803   1.967
10897TIP3    H132632   5.940   4.745   2.015
10897TIP3    H232633   5.849   4.749   1.894
10898TIP3   OH232634   6.932   3.562   3.175
10898TIP3    H132635   6.933   3.491   3.110
10898TIP3    H232636   6.868   3.533   3.241
10899TIP3   OH232637   0.282   5.569   5.610
10899TIP3    H132638   0.210   5.536   5.556
10899TIP3    H232639   0.290   5.661   5.584
10900TIP3   OH232640   4.158   5.956   1.138
10900TIP3    H132641   4.190   5.999   1.218
10900TIP3    H232642   4.136   5.867   1.165
10901TIP3   OH232643   5.132   2.815   0.765
10901TIP3    H132644   5.065   2.845   0.704
10901TIP3    H232645   5.147   2.889   0.823
10902TIP3   OH232646   6.132   1.806   5.555
10902TIP3    H132647   6.212   1.778   5.601
10902TIP3    H232648   6.136   1.761   5.471
10903TIP3   OH232649   3.886   0.600   1.003
10903TIP3    H132650   3.860   0.569   0.917
10903TIP3    H232651   3.917   0.689   0.988
10904TIP3   OH232652   4.563   2.935   0.944
10904TIP3    H132653   4.607   2.880   1.009
10904TIP3    H232654   4.630   2.951   0.877
10905TIP3   OH232655   2.777   5.991   0.254
10905TIP3    H132656   2.861   5.972   0.212
10905TIP3    H232657   2.713   5.989   0.183
10906TIP3   OH232658   2.728   5.053   0.875
10906TIP3    H132659   2.744   5.144   0.849
10906TIP3    H232660   2.635   5.039   0.858
10907TIP3   OH232661   8.148   5.383   6.685
10907TIP3    H132662   8.173   5.376   6.592
10907TIP3    H232663   8.176   5.471   6.710
10908TIP3   OH232664   4.153   6.785   0.947
10908TIP3    H132665   4.248   6.786   0.941
10908TIP3    H232666   4.123   6.828   0.867
10909TIP3   OH232667   5.840   0.414   6.384
10909TIP3    H132668   5.915   0.472   6.369
10909TIP3    H232669   5.788   0.459   6.450
10910TIP3   OH232670   1.281   6.461   5.440
10910TIP3    H132671   1.365   6.504   5.455
10910TIP3    H232672   1.229   6.482   5.517
10911TIP3   OH232673   1.699   4.161   4.232
10911TIP3    H132674   1.672   4.148   4.323
10911TIP3    H232675   1.627   4.126   4.180
10912TIP3   OH232676   7.959   7.653   6.689
10912TIP3    H132677   7.876   7.696   6.669
10912TIP3    H232678   8.011   7.665   6.609
10913TIP3   OH232679   1.136   7.706   4.451
10913TIP3    H132680   1.170   7.793   4.430
10913TIP3    H232681   1.196   7.645   4.408
10914TIP3   OH232682   4.557   0.350   3.302
10914TIP3    H132683   4.647   0.381   3.300
10914TIP3    H232684   4.523   0.380   3.387
10915TIP3   OH232685   7.969   6.531   2.034
10915TIP3    H132686   8.011   6.551   1.950
10915TIP3    H232687   7.962   6.616   2.078
10916TIP3   OH232688   3.234   2.573   6.834
10916TIP3    H132689   3.181   2.597   6.758
10916TIP3    H232690   3.265   2.656   6.869
10917TIP3   OH232691   5.776   1.770   0.587
10917TIP3    H132692   5.860   1.794   0.626
10917TIP3    H232693   5.737   1.853   0.560
10918TIP3   OH232694   7.775   7.110   3.478
10918TIP3    H132695   7.695   7.120   3.529
10918TIP3    H232696   7.744   7.093   3.389
10919TIP3   OH232697   5.308   6.206   6.597
10919TIP3    H132698   5.377   6.212   6.531
10919TIP3    H232699   5.309   6.291   6.641
10920TIP3   OH232700   8.437   2.640   1.982
10920TIP3    H132701   8.377   2.622   2.054
10920TIP3    H232702   8.393   2.707   1.930
10921TIP3   OH232703   5.840   6.771   5.239
10921TIP3    H132704   5.877   6.770   5.328
10921TIP3    H232705   5.837   6.864   5.216
10922TIP3   OH232706   3.161   3.483   5.856
10922TIP3    H132707   3.158   3.396   5.896
10922TIP3    H232708   3.117   3.540   5.919
10923TIP3   OH232709   4.715   1.802   4.211
10923TIP3    H132710   4.809   1.789   4.195
10923TIP3    H232711   4.683   1.845   4.131
10924TIP3   OH232712   5.435   6.989   4.616
10924TIP3    H132713   5.423   7.014   4.524
10924TIP3    H232714   5.456   6.895   4.613
10925TIP3   OH232715   1.265   2.671   0.182
10925TIP3    H132716   1.172   2.649   0.178
10925TIP3    H232717   1.295   2.668   0.092
10926TIP3   OH232718   3.741   7.795   3.685
10926TIP3    H132719   3.832   7.820   3.702
10926TIP3    H232720   3.697   7.877   3.662
10927TIP3   OH232721   2.939   7.385   0.087
10927TIP3    H132722   3.028   7.408   0.111
10927TIP3    H232723   2.896   7.469   0.069
10928TIP3   OH232724   3.964   2.456   5.279
10928TIP3    H132725   3.900   2.447   5.350
10928TIP3    H232726   4.006   2.370   5.274
10929TIP3   OH232727   7.402   0.588   5.758
10929TIP3    H132728   7.395   0.608   5.664
10929TIP3    H232729   7.315   0.607   5.793
10930TIP3   OH232730   2.235   6.245   0.471
10930TIP3    H132731   2.293   6.258   0.546
10930TIP3    H232732   2.213   6.334   0.442
10931TIP3   OH232733   3.201   0.028   1.985
10931TIP3    H132734   3.149   0.073   1.918
10931TIP3    H232735   3.137  -0.015   2.041
10932TIP3   OH232736   5.921   7.664   2.656
10932TIP3    H132737   5.984   7.679   2.727
10932TIP3    H232738   5.842   7.634   2.700
10933TIP3   OH232739   6.951   6.119   2.569
10933TIP3    H132740   6.967   6.025   2.580
10933TIP3    H232741   7.039   6.158   2.569
10934TIP3   OH232742   2.234   2.395   6.798
10934TIP3    H132743   2.289   2.372   6.723
10934TIP3    H232744   2.167   2.454   6.762
10935TIP3   OH232745   8.315   6.700   0.455
10935TIP3    H132746   8.407   6.724   0.465
10935TIP3    H232747   8.290   6.736   0.369
10936TIP3   OH232748   5.236   4.631   1.520
10936TIP3    H132749   5.224   4.678   1.602
10936TIP3    H232750   5.150   4.592   1.501
10937TIP3   OH232751   0.064   3.650   4.513
10937TIP3    H132752   0.138   3.673   4.569
10937TIP3    H232753   0.002   3.722   4.524
10938TIP3   OH232754   0.367   1.515   2.068
10938TIP3    H132755   0.277   1.547   2.069
10938TIP3    H232756   0.368   1.445   2.133
10939TIP3   OH232757   6.096   6.121   0.695
10939TIP3    H132758   6.136   6.036   0.712
10939TIP3    H232759   6.016   6.101   0.646
10940TIP3   OH232760   0.551   1.581   6.322
10940TIP3    H132761   0.490   1.639   6.275
10940TIP3    H232762   0.554   1.617   6.411
10941TIP3   OH232763   7.529   7.825   5.035
10941TIP3    H132764   7.438   7.853   5.026
10941TIP3    H232765   7.577   7.907   5.050
10942TIP3   OH232766   6.915   4.944   0.605
10942TIP3    H132767   6.856   4.965   0.532
10942TIP3    H232768   6.871   4.979   0.682
10943TIP3   OH232769   2.361   2.302   4.527
10943TIP3    H132770   2.395   2.296   4.616
10943TIP3    H232771   2.420   2.363   4.483
10944TIP3   OH232772   0.313   7.100   3.221
10944TIP3    H132773   0.268   7.061   3.295
10944TIP3    H232774   0.337   7.187   3.251
10945TIP3   OH232775   0.313   1.856   2.444
10945TIP3    H132776   0.237   1.909   2.471
10945TIP3    H232777   0.288   1.822   2.358
10946TIP3   OH232778   6.529   1.934   3.806
10946TIP3    H132779   6.624   1.947   3.809
10946TIP3    H232780   6.494   1.995   3.871
10947TIP3   OH232781   7.206   5.027   3.093
10947TIP3    H132782   7.140   5.068   3.038
10947TIP3    H232783   7.239   5.098   3.148
10948TIP3   OH232784   0.258   7.359   3.853
10948TIP3    H132785   0.187   7.396   3.801
10948TIP3    H232786   0.310   7.435   3.880
10949TIP3   OH232787   6.294   7.420   4.726
10949TIP3    H132788   6.228   7.447   4.789
10949TIP3    H232789   6.245   7.377   4.656
10950TIP3   OH232790   7.684   6.942   4.472
10950TIP3    H132791   7.702   6.850   4.452
10950TIP3    H232792   7.759   6.989   4.436
10951TIP3   OH232793   4.687   0.343   3.666
10951TIP3    H132794   4.688   0.251   3.694
10951TIP3    H232795   4.770   0.356   3.622
10952TIP3   OH232796   6.232   3.457   2.685
10952TIP3    H132797   6.244   3.526   2.751
10952TIP3    H232798   6.295   3.390   2.710
10953TIP3   OH232799   3.228   0.136   0.097
10953TIP3    H132800   3.138   0.103   0.104
10953TIP3    H232801   3.253   0.159   0.186
10954TIP3   OH232802   6.861   5.425   1.972
10954TIP3    H132803   6.807   5.357   1.930
10954TIP3    H232804   6.948   5.386   1.977
10955TIP3   OH232805   6.207   3.092   2.256
10955TIP3    H132806   6.123   3.136   2.265
10955TIP3    H232807   6.257   3.119   2.333
10956TIP3   OH232808   3.413   2.834   1.054
10956TIP3    H132809   3.381   2.827   1.144
10956TIP3    H232810   3.481   2.902   1.059
10957TIP3   OH232811   4.392   0.910   5.517
10957TIP3    H132812   4.394   0.912   5.422
10957TIP3    H232813   4.307   0.872   5.538
10958TIP3   OH232814   6.097   1.233   5.618
10958TIP3    H132815   6.189   1.251   5.639
10958TIP3    H232816   6.097   1.218   5.524
10959TIP3   OH232817   7.250   5.860   3.335
10959TIP3    H132818   7.300   5.831   3.412
10959TIP3    H232819   7.162   5.877   3.368
10960TIP3   OH232820   2.550   4.105   0.663
10960TIP3    H132821   2.487   4.055   0.611
10960TIP3    H232822   2.514   4.194   0.665
10961TIP3   OH232823   4.424   3.270   1.576
10961TIP3    H132824   4.355   3.259   1.641
10961TIP3    H232825   4.478   3.341   1.609
10962TIP3   OH232826   7.795   7.169   1.443
10962TIP3    H132827   7.767   7.161   1.534
10962TIP3    H232828   7.741   7.238   1.406
10963TIP3   OH232829   5.946   1.726   0.048
10963TIP3    H132830   5.936   1.770   0.132
10963TIP3    H232831   5.877   1.764  -0.007
10964TIP3   OH232832   6.678   3.262   3.581
10964TIP3    H132833   6.688   3.270   3.486
10964TIP3    H232834   6.691   3.351   3.613
10965TIP3   OH232835   0.229   2.697   3.302
10965TIP3    H132836   0.204   2.776   3.254
10965TIP3    H232837   0.198   2.712   3.391
10966TIP3   OH232838   4.479   4.502   3.730
10966TIP3    H132839   4.493   4.506   3.825
10966TIP3    H232840   4.517   4.419   3.703
10967TIP3   OH232841   6.470   6.297   3.660
10967TIP3    H132842   6.447   6.299   3.567
10967TIP3    H232843   6.439   6.381   3.694
10968TIP3   OH232844   7.015   5.691   5.731
10968TIP3    H132845   6.923   5.700   5.754
10968TIP3    H232846   7.058   5.669   5.814
10969TIP3   OH232847   5.673   4.359   1.032
10969TIP3    H132848   5.654   4.267   1.017
10969TIP3    H232849   5.588   4.402   1.023
10970TIP3   OH232850   7.295   6.258   5.997
10970TIP3    H132851   7.373   6.293   5.955
10970TIP3    H232852   7.323   6.237   6.086
10971TIP3   OH232853   2.353   1.259   2.026
10971TIP3    H132854   2.326   1.338   2.072
10971TIP3    H232855   2.387   1.202   2.094
10972TIP3   OH232856   8.109   6.593   4.471
10972TIP3    H132857   8.074   6.663   4.415
10972TIP3    H232858   8.199   6.619   4.490
10973TIP3   OH232859   4.848   5.575   2.366
10973TIP3    H132860   4.770   5.610   2.408
10973TIP3    H232861   4.831   5.585   2.272
10974TIP3   OH232862   6.235   6.945   4.744
10974TIP3    H132863   6.188   6.919   4.665
10974TIP3    H232864   6.301   7.007   4.713
10975TIP3   OH232865   5.375   7.601   4.391
10975TIP3    H132866   5.372   7.506   4.397
10975TIP3    H232867   5.297   7.631   4.436
10976TIP3   OH232868   5.599   3.450   1.512
10976TIP3    H132869   5.675   3.395   1.532
10976TIP3    H232870   5.600   3.457   1.417
10977TIP3   OH232871   4.005   1.236   1.756
10977TIP3    H132872   3.966   1.304   1.811
10977TIP3    H232873   3.957   1.241   1.673
10978TIP3   OH232874   5.810   3.414   1.726
10978TIP3    H132875   5.785   3.324   1.706
10978TIP3    H232876   5.905   3.410   1.737
10979TIP3   OH232877   1.505   7.773   2.711
10979TIP3    H132878   1.543   7.773   2.623
10979TIP3    H232879   1.581   7.783   2.769
10980TIP3   OH232880   7.762   1.867   2.962
10980TIP3    H132881   7.831   1.838   2.903
10980TIP3    H232882   7.733   1.788   3.006
10981TIP3   OH232883   0.705   4.629   2.565
10981TIP3    H132884   0.771   4.564   2.588
10981TIP3    H232885   0.679   4.668   2.648
10982TIP3   OH232886   5.423   7.642   3.513
10982TIP3    H132887   5.335   7.616   3.486
10982TIP3    H232888   5.481   7.594   3.453
10983TIP3   OH232889   6.160   7.598   2.516
10983TIP3    H132890   6.185   7.565   2.602
10983TIP3    H232891   6.069   7.625   2.526
10984TIP3   OH232892   3.933   4.998   2.481
10984TIP3    H132893   3.900   4.974   2.568
10984TIP3    H232894   3.940   4.915   2.434
10985TIP3   OH232895   7.184   0.155   4.155
10985TIP3    H132896   7.209   0.073   4.113
10985TIP3    H232897   7.094   0.141   4.184
10986TIP3   OH232898   1.846   5.240   2.785
10986TIP3    H132899   1.915   5.299   2.813
10986TIP3    H232900   1.791   5.229   2.862
10987TIP3   OH232901   2.265   5.313   0.693
10987TIP3    H132902   2.305   5.229   0.672
10987TIP3    H232903   2.244   5.306   0.787
10988TIP3   OH232904   3.226   6.490   4.680
10988TIP3    H132905   3.188   6.489   4.593
10988TIP3    H232906   3.162   6.443   4.734
10989TIP3   OH232907   3.690   6.054   2.755
10989TIP3    H132908   3.645   5.970   2.755
10989TIP3    H232909   3.631   6.114   2.710
10990TIP3   OH232910   1.406   3.964   6.515
10990TIP3    H132911   1.314   3.955   6.491
10990TIP3    H232912   1.437   3.874   6.528
10991TIP3   OH232913   0.778   6.156   4.868
10991TIP3    H132914   0.729   6.088   4.820
10991TIP3    H232915   0.837   6.193   4.803
10992TIP3   OH232916   6.885   1.916   6.816
10992TIP3    H132917   6.978   1.901   6.829
10992TIP3    H232918   6.878   2.010   6.798
10993TIP3   OH232919   4.108   7.698   3.509
10993TIP3    H132920   4.060   7.728   3.586
10993TIP3    H232921   4.072   7.611   3.491
10994TIP3   OH232922   0.848   1.402   6.459
10994TIP3    H132923   0.796   1.324   6.478
10994TIP3    H232924   0.796   1.475   6.493
10995TIP3   OH232925   0.194   4.887   3.993
10995TIP3    H132926   0.188   4.974   3.954
10995TIP3    H232927   0.186   4.827   3.919
10996TIP3   OH232928   1.837   6.448   5.879
10996TIP3    H132929   1.754   6.454   5.832
10996TIP3    H232930   1.828   6.370   5.934
10997TIP3   OH232931   5.199   3.349   0.723
10997TIP3    H132932   5.161   3.435   0.744
10997TIP3    H232933   5.229   3.315   0.807
10998TIP3   OH232934   3.576   4.993   1.144
10998TIP3    H132935   3.493   4.987   1.098
10998TIP3    H232936   3.570   5.074   1.194
10999TIP3   OH232937   5.175   5.046   1.456
10999TIP3    H132938   5.240   5.053   1.526
10999TIP3    H232939   5.099   5.094   1.488
11000TIP3   OH232940   2.993   3.980   4.518
11000TIP3    H132941   2.928   3.919   4.554
11000TIP3    H232942   3.068   3.971   4.576
11001TIP3   OH232943   1.277   2.882   3.276
11001TIP3    H132944   1.248   2.791   3.276
11001TIP3    H232945   1.372   2.877   3.263
11002TIP3   OH232946   1.415   0.045   0.418
11002TIP3    H132947   1.476   0.118   0.406
11002TIP3    H232948   1.447  -0.023   0.359
11003TIP3   OH232949   1.889   7.025   2.467
11003TIP3    H132950   1.842   7.034   2.384
11003TIP3    H232951   1.920   7.114   2.487
11004TIP3   OH232952   8.181   7.035   1.084
11004TIP3    H132953   8.161   7.020   0.992
11004TIP3    H232954   8.103   7.079   1.119
11005TIP3   OH232955   5.357   1.132   3.143
11005TIP3    H132956   5.450   1.113   3.137
11005TIP3    H232957   5.352   1.224   3.166
11006TIP3   OH232958   2.523   1.261   6.736
11006TIP3    H132959   2.573   1.301   6.807
11006TIP3    H232960   2.455   1.325   6.715
11007TIP3   OH232961   0.214   7.093   0.363
11007TIP3    H132962   0.189   7.185   0.369
11007TIP3    H232963   0.306   7.091   0.389
11008TIP3   OH232964   1.461   2.736   2.897
11008TIP3    H132965   1.439   2.649   2.933
11008TIP3    H232966   1.514   2.717   2.820
11009TIP3   OH232967   6.590   7.684   2.970
11009TIP3    H132968   6.548   7.707   3.053
11009TIP3    H232969   6.669   7.638   2.996
11010TIP3   OH232970   5.701   1.265   0.997
11010TIP3    H132971   5.651   1.274   1.078
11010TIP3    H232972   5.685   1.347   0.949
11011TIP3   OH232973   4.220   2.204   6.854
11011TIP3    H132974   4.315   2.213   6.856
11011TIP3    H232975   4.197   2.202   6.761
11012TIP3   OH232976   1.618   1.330   5.268
11012TIP3    H132977   1.697   1.278   5.251
11012TIP3    H232978   1.626   1.406   5.211
11013TIP3   OH232979   3.777   0.217   3.020
11013TIP3    H132980   3.780   0.178   2.933
11013TIP3    H232981   3.863   0.199   3.058
11014TIP3   OH232982   4.671   4.082   2.123
11014TIP3    H132983   4.738   4.023   2.157
11014TIP3    H232984   4.642   4.131   2.201
11015TIP3   OH232985   1.517   3.112   5.627
11015TIP3    H132986   1.430   3.123   5.588
11015TIP3    H232987   1.545   3.202   5.647
11016TIP3   OH232988   3.344   2.646   0.868
11016TIP3    H132989   3.367   2.707   0.939
11016TIP3    H232990   3.363   2.695   0.788
11017TIP3   OH232991   7.019   5.053   5.588
11017TIP3    H132992   7.008   5.145   5.564
11017TIP3    H232993   7.094   5.052   5.647
11018TIP3   OH232994   5.063   2.644   5.076
11018TIP3    H132995   5.129   2.694   5.029
11018TIP3    H232996   5.101   2.630   5.163
11019TIP3   OH232997   2.640   0.420   0.666
11019TIP3    H132998   2.607   0.352   0.608
11019TIP3    H232999   2.683   0.483   0.608
11020TIP3   OH233000   1.420   4.524   4.483
11020TIP3    H133001   1.424   4.579   4.404
11020TIP3    H233002   1.361   4.571   4.542
11021TIP3   OH233003   8.363   4.169   3.046
11021TIP3    H133004   8.346   4.106   3.116
11021TIP3    H233005   8.305   4.243   3.064
11022TIP3   OH233006   7.893   4.464   6.849
11022TIP3    H133007   7.886   4.374   6.882
11022TIP3    H233008   7.889   4.455   6.753
11023TIP3   OH233009   3.845   5.426   2.446
11023TIP3    H133010   3.873   5.475   2.368
11023TIP3    H233011   3.792   5.489   2.495
11024TIP3   OH233012   7.623   4.125   4.771
11024TIP3    H133013   7.641   4.180   4.694
11024TIP3    H233014   7.529   4.108   4.767
11025TIP3   OH233015   5.512   2.043   3.800
11025TIP3    H133016   5.595   2.005   3.772
11025TIP3    H233017   5.448   1.973   3.786
11026TIP3   OH233018   2.091   3.519   4.147
11026TIP3    H133019   2.064   3.458   4.078
11026TIP3    H233020   2.012   3.532   4.200
11027TIP3   OH233021   2.424   5.064   3.251
11027TIP3    H133022   2.411   5.127   3.181
11027TIP3    H233023   2.358   4.996   3.237
11028TIP3   OH233024   1.967   6.756   5.378
11028TIP3    H133025   1.996   6.846   5.393
11028TIP3    H233026   2.042   6.713   5.336
11029TIP3   OH233027   3.996   1.402   5.777
11029TIP3    H133028   4.025   1.351   5.853
11029TIP3    H233029   3.926   1.458   5.812
11030TIP3   OH233030   8.074   5.567   3.644
11030TIP3    H133031   8.032   5.587   3.561
11030TIP3    H233032   8.165   5.590   3.631
11031TIP3   OH233033   7.341   2.200   4.062
11031TIP3    H133034   7.366   2.136   4.129
11031TIP3    H233035   7.245   2.206   4.069
11032TIP3   OH233036   1.170   6.163   0.189
11032TIP3    H133037   1.162   6.122   0.103
11032TIP3    H233038   1.149   6.094   0.251
11033TIP3   OH233039   0.979   6.872   6.891
11033TIP3    H133040   0.929   6.822   6.826
11033TIP3    H233041   1.059   6.897   6.846
11034TIP3   OH233042   1.932   3.221   1.055
11034TIP3    H133043   1.875   3.181   1.120
11034TIP3    H233044   2.013   3.241   1.102
11035TIP3   OH233045   8.326   7.563   5.134
11035TIP3    H133046   8.332   7.576   5.229
11035TIP3    H233047   8.378   7.635   5.097
11036TIP3   OH233048   5.741   2.338   6.245
11036TIP3    H133049   5.671   2.351   6.181
11036TIP3    H233050   5.721   2.400   6.315
11037TIP3   OH233051   6.287   4.606   5.915
11037TIP3    H133052   6.213   4.547   5.910
11037TIP3    H233053   6.347   4.576   5.846
11038TIP3   OH233054   1.845   7.638   6.856
11038TIP3    H133055   1.857   7.585   6.778
11038TIP3    H233056   1.925   7.690   6.863
11039TIP3   OH233057   3.697   4.882   5.688
11039TIP3    H133058   3.611   4.857   5.655
11039TIP3    H233059   3.756   4.812   5.659
11040TIP3   OH233060   2.344   3.333   5.265
11040TIP3    H133061   2.378   3.245   5.280
11040TIP3    H233062   2.413   3.377   5.215
11041TIP3   OH233063   4.055   6.522   0.879
11041TIP3    H133064   3.984   6.514   0.942
11041TIP3    H233065   4.092   6.609   0.896
11042TIP3   OH233066   2.592   5.352   2.505
11042TIP3    H133067   2.591   5.402   2.587
11042TIP3    H233068   2.505   5.365   2.467
11043TIP3   OH233069   0.257   4.298   2.237
11043TIP3    H133070   0.252   4.268   2.146
11043TIP3    H233071   0.205   4.378   2.239
11044TIP3   OH233072   1.846   4.283   5.113
11044TIP3    H133073   1.869   4.214   5.176
11044TIP3    H233074   1.755   4.265   5.089
11045TIP3   OH233075   8.235   4.692   5.547
11045TIP3    H133076   8.195   4.778   5.538
11045TIP3    H233077   8.161   4.632   5.556
11046TIP3   OH233078   6.126   3.220   0.073
11046TIP3    H133079   6.112   3.200   0.166
11046TIP3    H233080   6.076   3.153   0.027
11047TIP3   OH233081   5.811   0.578   3.248
11047TIP3    H133082   5.757   0.655   3.232
11047TIP3    H233083   5.765   0.531   3.318
11048TIP3   OH233084   4.652   2.411   3.209
11048TIP3    H133085   4.682   2.497   3.238
11048TIP3    H233086   4.559   2.424   3.188
11049TIP3   OH233087   2.732   2.640   5.595
11049TIP3    H133088   2.716   2.730   5.566
11049TIP3    H233089   2.656   2.591   5.565
11050TIP3   OH233090   8.266   3.454   3.454
11050TIP3    H133091   8.211   3.483   3.381
11050TIP3    H233092   8.323   3.528   3.472
11051TIP3   OH233093   5.314   0.831   1.149
11051TIP3    H133094   5.345   0.742   1.163
11051TIP3    H233095   5.237   0.822   1.093
11052TIP3   OH233096   0.299   1.449   0.041
11052TIP3    H133097   0.293   1.363   0.083
11052TIP3    H233098   0.353   1.501   0.100
11053TIP3   OH233099   3.367   7.517   6.824
11053TIP3    H133100   3.389   7.610   6.832
11053TIP3    H233101   3.273   7.516   6.809
11054TIP3   OH233102   4.977   4.278   6.156
11054TIP3    H133103   5.019   4.198   6.124
11054TIP3    H233104   5.002   4.283   6.249
11055TIP3   OH233105   0.719   5.048   3.998
11055TIP3    H133106   0.682   5.041   4.086
11055TIP3    H233107   0.645   5.030   3.940
11056TIP3   OH233108   4.928   5.994   6.276
11056TIP3    H133109   4.882   6.024   6.355
11056TIP3    H233110   5.005   5.948   6.309
11057TIP3   OH233111   2.927   5.894   6.343
11057TIP3    H133112   2.989   5.948   6.391
11057TIP3    H233113   2.847   5.945   6.340
11058TIP3   OH233114   5.800   7.389   0.429
11058TIP3    H133115   5.708   7.370   0.445
11058TIP3    H233116   5.816   7.471   0.475
11059TIP3   OH233117   1.177   7.556   5.548
11059TIP3    H133118   1.093   7.595   5.527
11059TIP3    H233119   1.224   7.624   5.595
11060TIP3   OH233120   6.390   0.030   5.532
11060TIP3    H133121   6.431   0.116   5.525
11060TIP3    H233122   6.354   0.014   5.444
11061TIP3   OH233123   5.388   3.068   4.652
11061TIP3    H133124   5.396   3.118   4.570
11061TIP3    H233125   5.387   2.977   4.624
11062TIP3   OH233126   5.654   2.797   2.739
11062TIP3    H133127   5.723   2.732   2.726
11062TIP3    H233128   5.586   2.751   2.787
11063TIP3   OH233129   7.097   4.769   6.151
11063TIP3    H133130   7.113   4.838   6.215
11063TIP3    H233131   7.134   4.804   6.069
11064TIP3   OH233132   6.157   1.012   6.666
11064TIP3    H133133   6.167   0.918   6.653
11064TIP3    H233134   6.170   1.050   6.578
11065TIP3   OH233135   5.510   5.927   1.401
11065TIP3    H133136   5.584   5.968   1.445
11065TIP3    H233137   5.549   5.870   1.335
11066TIP3   OH233138   4.340   2.988   3.199
11066TIP3    H133139   4.265   2.977   3.141
11066TIP3    H233140   4.318   2.937   3.277
11067TIP3   OH233141   2.817   6.816   5.464
11067TIP3    H133142   2.841   6.728   5.435
11067TIP3    H233143   2.724   6.809   5.486
11068TIP3   OH233144   5.265   2.090   6.737
11068TIP3    H133145   5.330   2.140   6.688
11068TIP3    H233146   5.211   2.048   6.670
11069TIP3   OH233147   1.929   4.824   6.718
11069TIP3    H133148   1.974   4.857   6.640
11069TIP3    H233149   1.997   4.774   6.765
11070TIP3   OH233150   4.868   6.983   1.903
11070TIP3    H133151   4.888   7.047   1.835
11070TIP3    H233152   4.904   7.020   1.983
11071TIP3   OH233153   4.436   6.195   4.759
11071TIP3    H133154   4.429   6.106   4.792
11071TIP3    H233155   4.352   6.235   4.780
11072TIP3   OH233156   3.158   6.903   4.634
11072TIP3    H133157   3.234   6.846   4.620
11072TIP3    H233158   3.137   6.892   4.727
11073TIP3   OH233159   3.924   5.710   1.753
11073TIP3    H133160   3.906   5.738   1.663
11073TIP3    H233161   3.862   5.639   1.769
11074TIP3   OH233162   6.060   0.522   6.831
11074TIP3    H133163   6.013   0.438   6.832
11074TIP3    H233164   5.991   0.588   6.829
11075TIP3   OH233165   2.439   7.852   6.626
11075TIP3    H133166   2.420   7.917   6.693
11075TIP3    H233167   2.376   7.870   6.556
11076TIP3   OH233168   0.142   7.577   1.921
11076TIP3    H133169   0.182   7.527   1.850
11076TIP3    H233170   0.160   7.525   2.000
11077TIP3   OH233171   2.146   2.300   5.335
11077TIP3    H133172   2.169   2.228   5.394
11077TIP3    H233173   2.062   2.332   5.367
11078TIP3   OH233174   5.248   2.229   4.275
11078TIP3    H133175   5.334   2.189   4.260
11078TIP3    H233176   5.266   2.323   4.274
11079TIP3   OH233177   3.283   1.800   5.990
11079TIP3    H133178   3.221   1.793   5.917
11079TIP3    H233179   3.267   1.722   6.042
11080TIP3   OH233180   0.929   5.203   3.964
11080TIP3    H133181   0.846   5.159   3.981
11080TIP3    H233182   0.930   5.277   4.025
11081TIP3   OH233183   5.889   1.855   2.581
11081TIP3    H133184   5.906   1.787   2.646
11081TIP3    H233185   5.905   1.937   2.627
11082TIP3   OH233186   5.445   1.133   6.142
11082TIP3    H133187   5.434   1.041   6.164
11082TIP3    H233188   5.438   1.137   6.047
11083TIP3   OH233189   3.135   7.418   0.441
11083TIP3    H133190   3.048   7.386   0.466
11083TIP3    H233191   3.192   7.393   0.513
11084TIP3   OH233192   0.232   4.383   6.580
11084TIP3    H133193   0.206   4.323   6.509
11084TIP3    H233194   0.176   4.460   6.567
11085TIP3   OH233195   5.905   6.706   2.535
11085TIP3    H133196   5.944   6.701   2.448
11085TIP3    H233197   5.935   6.627   2.579
11086TIP3   OH233198   0.771   3.434   1.080
11086TIP3    H133199   0.778   3.351   1.127
11086TIP3    H233200   0.676   3.451   1.076
11087TIP3   OH233201   5.052   6.532   3.430
11087TIP3    H133202   5.047   6.491   3.344
11087TIP3    H233203   5.131   6.494   3.470
11088TIP3   OH233204   4.551   4.211   2.326
11088TIP3    H133205   4.482   4.198   2.391
11088TIP3    H233206   4.546   4.304   2.304
11089TIP3   OH233207   5.530   6.501   4.727
11089TIP3    H133208   5.498   6.420   4.687
11089TIP3    H233209   5.622   6.483   4.745
11090TIP3   OH233210   1.002   1.787   3.509
11090TIP3    H133211   0.989   1.730   3.585
11090TIP3    H233212   1.035   1.728   3.441
11091TIP3   OH233213   0.575   7.698   2.900
11091TIP3    H133214   0.643   7.766   2.891
11091TIP3    H233215   0.619   7.617   2.873
11092TIP3   OH233216   0.687   6.474   5.294
11092TIP3    H133217   0.764   6.454   5.347
11092TIP3    H233218   0.708   6.556   5.250
11093TIP3   OH233219   5.170   2.758   0.324
11093TIP3    H133220   5.177   2.727   0.234
11093TIP3    H233221   5.169   2.854   0.317
11094TIP3   OH233222   2.720   4.570   0.391
11094TIP3    H133223   2.790   4.553   0.327
11094TIP3    H233224   2.678   4.485   0.403
11095TIP3   OH233225   5.341   6.209   2.353
11095TIP3    H133226   5.345   6.304   2.341
11095TIP3    H233227   5.369   6.172   2.269
11096TIP3   OH233228   6.555   5.287   5.886
11096TIP3    H133229   6.614   5.268   5.813
11096TIP3    H233230   6.490   5.216   5.883
11097TIP3   OH233231   2.838   0.070   5.666
11097TIP3    H133232   2.902   0.018   5.616
11097TIP3    H233233   2.869   0.066   5.756
11098TIP3   OH233234   3.257   5.100   4.484
11098TIP3    H133235   3.198   5.136   4.417
11098TIP3    H233236   3.326   5.166   4.493
11099TIP3   OH233237   4.557   0.441   5.525
11099TIP3    H133238   4.568   0.346   5.526
11099TIP3    H233239   4.635   0.474   5.571
11100TIP3   OH233240   0.085   5.526   5.429
11100TIP3    H133241   0.006   5.567   5.464
11100TIP3    H233242   0.082   5.544   5.335
11101TIP3   OH233243   1.488   0.268   1.834
11101TIP3    H133244   1.486   0.264   1.930
11101TIP3    H233245   1.396   0.271   1.808
11102TIP3   OH233246   6.094   3.296   6.715
11102TIP3    H133247   6.066   3.238   6.645
11102TIP3    H233248   6.061   3.254   6.795
11103TIP3   OH233249   0.068   3.723   0.517
11103TIP3    H133250   0.155   3.759   0.532
11103TIP3    H233251   0.079   3.629   0.527
11104TIP3   OH233252   2.718   6.503   0.857
11104TIP3    H133253   2.802   6.547   0.865
11104TIP3    H233254   2.655   6.566   0.892
11105TIP3   OH233255   8.246   5.920   5.300
11105TIP3    H133256   8.291   5.999   5.271
11105TIP3    H233257   8.290   5.849   5.254
11106TIP3   OH233258   4.609   2.212   1.135
11106TIP3    H133259   4.684   2.265   1.109
11106TIP3    H233260   4.545   2.224   1.065
11107TIP3   OH233261   3.561   5.153   1.653
11107TIP3    H133262   3.656   5.150   1.652
11107TIP3    H233263   3.534   5.101   1.577
11108TIP3   OH233264   2.712   5.577   5.537
11108TIP3    H133265   2.627   5.621   5.531
11108TIP3    H233266   2.747   5.603   5.622
11109TIP3   OH233267   0.594   3.992   5.057
11109TIP3    H133268   0.596   3.927   5.128
11109TIP3    H233269   0.509   4.035   5.067
11110TIP3   OH233270   3.626   5.559   3.365
11110TIP3    H133271   3.709   5.519   3.342
11110TIP3    H233272   3.576   5.489   3.407
11111TIP3   OH233273   2.785   5.384   5.930
11111TIP3    H133274   2.858   5.443   5.911
11111TIP3    H233275   2.779   5.328   5.852
11112TIP3   OH233276   4.573   3.350   2.184
11112TIP3    H133277   4.656   3.374   2.225
11112TIP3    H233278   4.581   3.382   2.094
11113TIP3   OH233279   0.151   6.479   0.741
11113TIP3    H133280   0.172   6.394   0.701
11113TIP3    H233281   0.231   6.504   0.787
11114TIP3   OH233282   3.105   6.984   2.429
11114TIP3    H133283   3.081   6.892   2.437
11114TIP3    H233284   3.039   7.031   2.480
11115TIP3   OH233285   5.366   3.056   0.536
11115TIP3    H133286   5.450   3.012   0.546
11115TIP3    H233287   5.319   3.039   0.617
11116TIP3   OH233288   6.604   1.581   4.186
11116TIP3    H133289   6.582   1.648   4.252
11116TIP3    H233290   6.570   1.500   4.222
11117TIP3   OH233291   3.822   4.951   5.038
11117TIP3    H133292   3.858   4.897   4.968
11117TIP3    H233293   3.848   5.041   5.017
11118TIP3   OH233294   1.970   7.732   1.915
11118TIP3    H133295   1.987   7.694   2.002
11118TIP3    H233296   1.893   7.684   1.883
11119TIP3   OH233297   0.200   1.261   5.264
11119TIP3    H133298   0.184   1.177   5.220
11119TIP3    H233299   0.136   1.320   5.226
11120TIP3   OH233300   3.685   6.285   2.414
11120TIP3    H133301   3.755   6.321   2.468
11120TIP3    H233302   3.730   6.234   2.347
11121TIP3   OH233303   5.352   0.852   0.417
11121TIP3    H133304   5.263   0.836   0.384
11121TIP3    H233305   5.405   0.782   0.378
11122TIP3   OH233306   5.545   1.154   2.831
11122TIP3    H133307   5.469   1.100   2.850
11122TIP3    H233308   5.509   1.230   2.786
11123TIP3   OH233309   5.390   1.122   2.572
11123TIP3    H133310   5.398   1.173   2.491
11123TIP3    H233311   5.308   1.152   2.611
11124TIP3   OH233312   6.513   1.008   2.051
11124TIP3    H133313   6.460   1.087   2.062
11124TIP3    H233314   6.589   1.023   2.107
11125TIP3   OH233315   8.006   4.156   3.650
11125TIP3    H133316   8.078   4.094   3.662
11125TIP3    H233317   8.046   4.242   3.659
11126TIP3   OH233318   3.298   1.169   2.019
11126TIP3    H133319   3.249   1.211   1.949
11126TIP3    H233320   3.234   1.157   2.089
11127TIP3   OH233321   5.285   4.366   1.213
11127TIP3    H133322   5.369   4.396   1.246
11127TIP3    H233323   5.250   4.441   1.166
11128TIP3   OH233324   6.609   1.070   1.037
11128TIP3    H133325   6.640   1.036   1.121
11128TIP3    H233326   6.686   1.111   0.998
11129TIP3   OH233327   1.477   6.669   1.809
11129TIP3    H133328   1.435   6.678   1.723
11129TIP3    H233329   1.569   6.687   1.792
11130TIP3   OH233330   1.828   0.585   1.501
11130TIP3    H133331   1.777   0.522   1.451
11130TIP3    H233332   1.898   0.612   1.442
11131TIP3   OH233333   6.008   6.388   1.169
11131TIP3    H133334   6.019   6.394   1.074
11131TIP3    H233335   6.095   6.404   1.205
11132TIP3   OH233336   2.026   1.770   1.655
11132TIP3    H133337   1.960   1.824   1.699
11132TIP3    H233338   2.051   1.822   1.578
11133TIP3   OH233339   3.272   4.900   1.647
11133TIP3    H133340   3.226   4.846   1.712
11133TIP3    H233341   3.243   4.865   1.563
11134TIP3   OH233342   6.176   1.818   2.854
11134TIP3    H133343   6.125   1.897   2.839
11134TIP3    H233344   6.111   1.749   2.866
11135TIP3   OH233345   5.075   5.928   5.358
11135TIP3    H133346   5.014   5.978   5.411
11135TIP3    H233347   5.162   5.957   5.386
11136TIP3   OH233348   5.907   5.543   5.839
11136TIP3    H133349   5.985   5.554   5.893
11136TIP3    H233350   5.941   5.534   5.750
11137TIP3   OH233351   1.888   1.798   5.032
11137TIP3    H133352   1.938   1.724   5.067
11137TIP3    H233353   1.808   1.758   4.996
11138TIP3   OH233354   0.637   4.985   2.458
11138TIP3    H133355   0.544   5.003   2.467
11138TIP3    H233356   0.663   5.027   2.376
11139TIP3   OH233357   3.112   2.517   5.087
11139TIP3    H133358   3.033   2.571   5.091
11139TIP3    H233359   3.152   2.528   5.173
11140TIP3   OH233360   5.957   6.532   3.459
11140TIP3    H133361   5.969   6.616   3.502
11140TIP3    H233362   5.863   6.528   3.439
11141TIP3   OH233363   3.233   7.047   2.947
11141TIP3    H133364   3.144   7.081   2.950
11141TIP3    H233365   3.251   7.033   2.854
11142TIP3   OH233366   1.813   4.386   0.707
11142TIP3    H133367   1.869   4.309   0.708
11142TIP3    H233368   1.863   4.453   0.754
11143TIP3   OH233369   5.053   4.317   2.128
11143TIP3    H133370   5.029   4.403   2.095
11143TIP3    H233371   4.983   4.295   2.190
11144TIP3   OH233372   5.340   1.729   6.812
11144TIP3    H133373   5.302   1.656   6.862
11144TIP3    H233374   5.293   1.806   6.843
11145TIP3   OH233375   2.210   4.744   5.093
11145TIP3    H133376   2.140   4.685   5.120
11145TIP3    H233377   2.197   4.755   4.999
11146TIP3   OH233378   1.186   5.973   4.831
11146TIP3    H133379   1.123   6.037   4.864
11146TIP3    H233380   1.178   5.899   4.891
11147TIP3   OH233381   3.599   2.834   2.563
11147TIP3    H133382   3.602   2.784   2.645
11147TIP3    H233383   3.631   2.921   2.586
11148TIP3   OH233384   7.603   5.031   5.190
11148TIP3    H133385   7.631   4.951   5.147
11148TIP3    H233386   7.669   5.096   5.164
11149TIP3   OH233387   4.569   1.974   2.537
11149TIP3    H133388   4.489   1.944   2.581
11149TIP3    H233389   4.613   2.029   2.603
11150TIP3   OH233390   5.155   4.208   1.408
11150TIP3    H133391   5.096   4.274   1.444
11150TIP3    H233392   5.214   4.256   1.350
11151TIP3   OH233393   3.019   3.608   6.043
11151TIP3    H133394   3.093   3.644   6.091
11151TIP3    H233395   2.947   3.609   6.106
11152TIP3   OH233396   3.117   4.985   6.137
11152TIP3    H133397   3.201   5.018   6.169
11152TIP3    H233398   3.073   4.953   6.216
11153TIP3   OH233399   6.867   7.961   1.995
11153TIP3    H133400   6.787   7.912   2.012
11153TIP3    H233401   6.937   7.896   1.999
11154TIP3   OH233402   1.415   5.070   4.074
11154TIP3    H133403   1.479   5.136   4.048
11154TIP3    H233404   1.367   5.110   4.147
11155TIP3   OH233405   2.071   6.519   0.943
11155TIP3    H133406   2.021   6.439   0.958
11155TIP3    H233407   2.061   6.569   1.024
11156TIP3   OH233408   2.076   5.778   6.582
11156TIP3    H133409   2.017   5.771   6.507
11156TIP3    H233410   2.134   5.850   6.561
11157TIP3   OH233411   3.602   0.543   0.414
11157TIP3    H133412   3.624   0.497   0.332
11157TIP3    H233413   3.611   0.636   0.391
11158TIP3   OH233414   7.205   6.969   4.722
11158TIP3    H133415   7.141   6.927   4.780
11158TIP3    H233416   7.273   6.903   4.709
11159TIP3   OH233417   0.712   7.313   1.788
11159TIP3    H133418   0.708   7.346   1.878
11159TIP3    H233419   0.620   7.298   1.765
11160TIP3   OH233420   5.163   5.373   2.411
11160TIP3    H133421   5.248   5.375   2.456
11160TIP3    H233422   5.128   5.461   2.424
11161TIP3   OH233423   5.886   1.537   5.242
11161TIP3    H133424   5.908   1.481   5.168
11161TIP3    H233425   5.790   1.546   5.238
11162TIP3   OH233426   2.671   5.026   2.143
11162TIP3    H133427   2.670   4.949   2.086
11162TIP3    H233428   2.579   5.038   2.169
11163TIP3   OH233429   7.914   5.878   2.157
11163TIP3    H133430   7.891   5.961   2.114
11163TIP3    H233431   7.874   5.811   2.101
11164TIP3   OH233432   0.558   4.123   5.776
11164TIP3    H133433   0.575   4.052   5.838
11164TIP3    H233434   0.545   4.078   5.692
11165TIP3   OH233435   2.048   5.411   1.190
11165TIP3    H133436   2.020   5.330   1.233
11165TIP3    H233437   1.993   5.479   1.227
11166TIP3   OH233438   0.910   3.155   2.497
11166TIP3    H133439   0.849   3.137   2.426
11166TIP3    H233440   0.857   3.152   2.577
11167TIP3   OH233441   2.985   5.610   5.697
11167TIP3    H133442   2.984   5.568   5.611
11167TIP3    H233443   3.078   5.621   5.718
11168TIP3   OH233444   3.131   5.010   4.718
11168TIP3    H133445   3.178   5.062   4.653
11168TIP3    H233446   3.125   5.068   4.794
11169TIP3   OH233447   6.777   6.993   6.680
11169TIP3    H133448   6.865   6.991   6.717
11169TIP3    H233449   6.720   6.962   6.751
11170TIP3   OH233450   3.080   3.029   1.210
11170TIP3    H133451   3.043   3.073   1.133
11170TIP3    H233452   3.172   3.056   1.211
11171TIP3   OH233453   2.182   5.468   0.462
11171TIP3    H133454   2.181   5.412   0.539
11171TIP3    H233455   2.153   5.411   0.391
11172TIP3   OH233456   1.475   5.648   0.874
11172TIP3    H133457   1.455   5.635   0.966
11172TIP3    H233458   1.504   5.739   0.868
11173TIP3   OH233459   7.410   5.576   0.203
11173TIP3    H133460   7.475   5.515   0.166
11173TIP3    H233461   7.439   5.662   0.174
11174TIP3   OH233462   6.385   6.785   3.144
11174TIP3    H133463   6.368   6.708   3.199
11174TIP3    H233464   6.473   6.813   3.168
11175TIP3   OH233465   0.350   3.402   0.657
11175TIP3    H133466   0.430   3.354   0.679
11175TIP3    H233467   0.284   3.366   0.716
11176TIP3   OH233468   0.665   1.244   1.061
11176TIP3    H133469   0.701   1.217   1.146
11176TIP3    H233470   0.739   1.282   1.014
11177TIP3   OH233471   4.814   2.768   5.094
11177TIP3    H133472   4.900   2.726   5.102
11177TIP3    H233473   4.787   2.750   5.004
11178TIP3   OH233474   6.930   4.128   0.550
11178TIP3    H133475   6.935   4.048   0.602
11178TIP3    H233476   6.884   4.190   0.606
11179TIP3   OH233477   4.895   3.631   1.220
11179TIP3    H133478   4.817   3.681   1.194
11179TIP3    H233479   4.934   3.603   1.137
11180TIP3   OH233480   1.764   5.407   3.448
11180TIP3    H133481   1.718   5.470   3.392
11180TIP3    H233482   1.821   5.460   3.503
11181TIP3   OH233483   7.390   3.644   5.266
11181TIP3    H133484   7.471   3.597   5.248
11181TIP3    H233485   7.337   3.634   5.187
11182TIP3   OH233486   4.069   7.323   3.699
11182TIP3    H133487   4.030   7.326   3.786
11182TIP3    H233488   4.076   7.229   3.679
11183TIP3   OH233489   3.447   0.759   4.111
11183TIP3    H133490   3.361   0.763   4.154
11183TIP3    H233491   3.509   0.744   4.183
11184TIP3   OH233492   7.484   2.034   4.237
11184TIP3    H133493   7.560   2.081   4.272
11184TIP3    H233494   7.454   1.980   4.311
11185TIP3   OH233495   8.436   5.712   0.031
11185TIP3    H133496   8.382   5.633   0.024
11185TIP3    H233497   8.375   5.781   0.053
11186TIP3   OH233498   6.422   0.263   4.730
11186TIP3    H133499   6.441   0.343   4.680
11186TIP3    H233500   6.328   0.250   4.720
11187TIP3   OH233501   5.691   6.201   5.931
11187TIP3    H133502   5.676   6.108   5.950
11187TIP3    H233503   5.680   6.245   6.016
11188TIP3   OH233504   7.803   6.527   0.796
11188TIP3    H133505   7.828   6.619   0.785
11188TIP3    H233506   7.712   6.523   0.766
11189TIP3   OH233507   6.684   7.540   4.114
11189TIP3    H133508   6.721   7.578   4.034
11189TIP3    H233509   6.691   7.445   4.100
11190TIP3   OH233510   5.827   0.514   1.727
11190TIP3    H133511   5.732   0.527   1.733
11190TIP3    H233512   5.841   0.425   1.758
11191TIP3   OH233513   3.518   6.120   1.791
11191TIP3    H133514   3.604   6.082   1.812
11191TIP3    H233515   3.476   6.131   1.876
11192TIP3   OH233516   0.107   1.254   1.470
11192TIP3    H133517   0.036   1.196   1.444
11192TIP3    H233518   0.160   1.201   1.530
11193TIP3   OH233519   1.746   7.726   2.145
11193TIP3    H133520   1.668   7.767   2.182
11193TIP3    H233521   1.723   7.710   2.053
11194TIP3   OH233522   7.042   2.720   5.257
11194TIP3    H133523   7.073   2.629   5.257
11194TIP3    H233524   6.960   2.718   5.306
11195TIP3   OH233525   5.820   4.714   5.595
11195TIP3    H133526   5.756   4.645   5.578
11195TIP3    H233527   5.840   4.750   5.509
11196TIP3   OH233528   6.996   4.940   0.279
11196TIP3    H133529   7.054   4.960   0.352
11196TIP3    H233530   7.053   4.942   0.202
11197TIP3   OH233531   2.193   4.778   0.050
11197TIP3    H133532   2.259   4.748   0.113
11197TIP3    H233533   2.133   4.704   0.041
11198TIP3   OH233534   7.215   2.863   5.482
11198TIP3    H133535   7.285   2.800   5.461
11198TIP3    H233536   7.147   2.810   5.523
11199TIP3   OH233537   8.085   2.103   3.124
11199TIP3    H133538   8.050   2.055   3.199
11199TIP3    H233539   8.009   2.146   3.085
11200TIP3   OH233540   3.422   6.958   3.662
11200TIP3    H133541   3.424   6.912   3.746
11200TIP3    H233542   3.359   6.909   3.610
11201TIP3   OH233543   7.014   5.482   0.471
11201TIP3    H133544   7.031   5.493   0.377
11201TIP3    H233545   7.007   5.387   0.482
11202TIP3   OH233546   4.956   0.156   4.904
11202TIP3    H133547   4.888   0.126   4.965
11202TIP3    H233548   5.002   0.076   4.879
11203TIP3   OH233549   3.812   0.999   3.093
11203TIP3    H133550   3.812   1.085   3.136
11203TIP3    H233551   3.729   0.997   3.045
11204TIP3   OH233552   3.183   5.477   2.886
11204TIP3    H133553   3.163   5.529   2.808
11204TIP3    H233554   3.194   5.388   2.853
11205TIP3   OH233555   5.297   0.021   5.140
11205TIP3    H133556   5.246   0.089   5.185
11205TIP3    H233557   5.358   0.070   5.084
11206TIP3   OH233558   3.998   7.899   1.004
11206TIP3    H133559   3.941   7.919   0.930
11206TIP3    H233560   3.985   7.806   1.021
11207TIP3   OH233561   1.938   2.834   5.343
11207TIP3    H133562   1.986   2.852   5.424
11207TIP3    H233563   1.858   2.790   5.372
11208TIP3   OH233564   5.923   5.330   1.726
11208TIP3    H133565   5.842   5.302   1.683
11208TIP3    H233566   5.945   5.258   1.786
11209TIP3   OH233567   0.584   1.636   0.830
11209TIP3    H133568   0.568   1.583   0.752
11209TIP3    H233569   0.553   1.582   0.902
11210TIP3   OH233570   2.451   1.978   6.548
11210TIP3    H133571   2.474   1.890   6.578
11210TIP3    H233572   2.366   1.968   6.506
11211TIP3   OH233573   3.259   4.716   5.048
11211TIP3    H133574   3.334   4.668   5.013
11211TIP3    H233575   3.211   4.746   4.971
11212TIP3   OH233576   3.390   4.201   1.320
11212TIP3    H133577   3.357   4.119   1.284
11212TIP3    H233578   3.337   4.269   1.277
11213TIP3   OH233579   0.556   3.650   4.703
11213TIP3    H133580   0.607   3.627   4.625
11213TIP3    H233581   0.570   3.744   4.714
11214TIP3   OH233582   4.335   6.340   2.392
11214TIP3    H133583   4.346   6.403   2.463
11214TIP3    H233584   4.261   6.374   2.341
11215TIP3   OH233585   3.865   6.400   4.699
11215TIP3    H133586   3.865   6.493   4.676
11215TIP3    H233587   3.865   6.354   4.615
11216TIP3   OH233588   7.167   1.018   3.705
11216TIP3    H133589   7.152   1.082   3.635
11216TIP3    H233590   7.080   1.004   3.743
11217TIP3   OH233591   0.465   1.835   1.326
11217TIP3    H133592   0.476   1.803   1.416
11217TIP3    H233593   0.389   1.787   1.293
11218TIP3   OH233594   2.453   5.181   1.845
11218TIP3    H133595   2.370   5.165   1.800
11218TIP3    H233596   2.518   5.130   1.797
11219TIP3   OH233597   4.468   1.569   3.458
11219TIP3    H133598   4.373   1.560   3.451
11219TIP3    H233599   4.497   1.490   3.505
11220TIP3   OH233600   0.525   3.507   4.229
11220TIP3    H133601   0.477   3.529   4.309
11220TIP3    H233602   0.511   3.413   4.218
11221TIP3   OH233603   3.447   7.338   6.428
11221TIP3    H133604   3.460   7.313   6.337
11221TIP3    H233605   3.373   7.284   6.457
11222TIP3   OH233606   0.860   5.219   6.108
11222TIP3    H133607   0.952   5.201   6.090
11222TIP3    H233608   0.861   5.294   6.168
11223TIP3   OH233609   0.585   7.420   0.448
11223TIP3    H133610   0.648   7.488   0.471
11223TIP3    H233611   0.502   7.467   0.435
11224TIP3   OH233612   5.317   2.327   5.083
11224TIP3    H133613   5.341   2.236   5.065
11224TIP3    H233614   5.349   2.376   5.007
11225TIP3   OH233615   5.052   3.520   6.708
11225TIP3    H133616   4.987   3.449   6.709
11225TIP3    H233617   5.104   3.507   6.787
11226TIP3   OH233618   7.609   5.933   1.000
11226TIP3    H133619   7.589   5.957   0.909
11226TIP3    H233620   7.666   5.857   0.992
11227TIP3   OH233621   8.018   1.161   1.359
11227TIP3    H133622   7.975   1.247   1.362
11227TIP3    H233623   7.945   1.098   1.354
11228TIP3   OH233624   6.589   4.407   3.963
11228TIP3    H133625   6.495   4.398   3.974
11228TIP3    H233626   6.615   4.476   4.025
11229TIP3   OH233627   3.892   7.708   6.113
11229TIP3    H133628   3.888   7.633   6.173
11229TIP3    H233629   3.824   7.767   6.143
11230TIP3   OH233630   8.025   5.362   4.609
11230TIP3    H133631   7.996   5.402   4.527
11230TIP3    H233632   8.032   5.269   4.590
11231TIP3   OH233633   1.096   4.252   2.935
11231TIP3    H133634   1.124   4.220   2.849
11231TIP3    H233635   1.019   4.199   2.956
11232TIP3   OH233636   7.168   0.488   6.529
11232TIP3    H133637   7.127   0.499   6.615
11232TIP3    H233638   7.233   0.419   6.541
11233TIP3   OH233639   8.015   0.186   0.905
11233TIP3    H133640   8.093   0.150   0.946
11233TIP3    H233641   7.981   0.248   0.970
11234TIP3   OH233642   1.311   3.792   6.005
11234TIP3    H133643   1.312   3.835   5.920
11234TIP3    H233644   1.372   3.844   6.058
11235TIP3   OH233645   1.570   6.095   2.885
11235TIP3    H133646   1.640   6.130   2.940
11235TIP3    H233647   1.607   6.015   2.847
11236TIP3   OH233648   3.568   2.220   0.711
11236TIP3    H133649   3.503   2.199   0.778
11236TIP3    H233650   3.646   2.245   0.760
11237TIP3   OH233651   7.300   5.754   2.039
11237TIP3    H133652   7.248   5.797   2.108
11237TIP3    H233653   7.341   5.827   1.992
11238TIP3   OH233654   2.776   0.858   3.406
11238TIP3    H133655   2.759   0.799   3.480
11238TIP3    H233656   2.742   0.810   3.330
11239TIP3   OH233657   4.428   6.305   3.453
11239TIP3    H133658   4.334   6.317   3.443
11239TIP3    H233659   4.436   6.227   3.509
11240TIP3   OH233660   8.353   4.925   3.144
11240TIP3    H133661   8.289   4.903   3.077
11240TIP3    H233662   8.339   4.860   3.213
11241TIP3   OH233663   4.381   6.934   5.467
11241TIP3    H133664   4.425   6.849   5.471
11241TIP3    H233665   4.288   6.913   5.459
11242TIP3   OH233666   7.608   3.589   1.025
11242TIP3    H133667   7.576   3.545   1.104
11242TIP3    H233668   7.559   3.549   0.953
11243TIP3   OH233669   3.217   5.160   5.658
11243TIP3    H133670   3.141   5.130   5.609
11243TIP3    H233671   3.191   5.153   5.750
11244TIP3   OH233672   1.143   4.924   3.136
11244TIP3    H133673   1.231   4.888   3.131
11244TIP3    H233674   1.123   4.950   3.046
11245TIP3   OH233675   2.369   7.553   2.000
11245TIP3    H133676   2.367   7.562   1.905
11245TIP3    H233677   2.420   7.628   2.030
11246TIP3   OH233678   3.375   0.641   4.422
11246TIP3    H133679   3.338   0.601   4.501
11246TIP3    H233680   3.299   0.675   4.375
11247TIP3   OH233681   6.821   0.824   6.472
11247TIP3    H133682   6.814   0.798   6.564
11247TIP3    H233683   6.842   0.918   6.475
11248TIP3   OH233684   0.032   3.767   0.058
11248TIP3    H133685   0.068   3.847   0.096
11248TIP3    H233686  -0.031   3.735   0.122
11249TIP3   OH233687   6.681   1.019   1.302
11249TIP3    H133688   6.586   1.022   1.290
11249TIP3    H233689   6.695   1.047   1.392
11250TIP3   OH233690   5.728   4.720   1.038
11250TIP3    H133691   5.783   4.644   1.057
11250TIP3    H233692   5.638   4.689   1.051
11251TIP3   OH233693   5.211   2.369   6.541
11251TIP3    H133694   5.275   2.372   6.612
11251TIP3    H233695   5.131   2.406   6.579
11252TIP3   OH233696   2.059   3.267   6.467
11252TIP3    H133697   2.144   3.291   6.505
11252TIP3    H233698   2.078   3.249   6.375
11253TIP3   OH233699   6.227   6.471   1.318
11253TIP3    H133700   6.180   6.503   1.394
11253TIP3    H233701   6.274   6.548   1.284
11254TIP3   OH233702   7.981   4.144   1.120
11254TIP3    H133703   7.990   4.136   1.215
11254TIP3    H233704   8.050   4.087   1.085
11255TIP3   OH233705   7.445   5.211   5.753
11255TIP3    H133706   7.436   5.189   5.845
11255TIP3    H233707   7.395   5.293   5.743
11256TIP3   OH233708   2.695   4.536   1.344
11256TIP3    H133709   2.725   4.605   1.403
11256TIP3    H233710   2.773   4.483   1.327
11257TIP3   OH233711   4.279   1.602   3.867
11257TIP3    H133712   4.242   1.640   3.788
11257TIP3    H233713   4.373   1.616   3.860
11258TIP3   OH233714   3.229   1.058   6.623
11258TIP3    H133715   3.320   1.040   6.645
11258TIP3    H233716   3.189   0.972   6.612
11259TIP3   OH233717   5.959   1.575   3.651
11259TIP3    H133718   5.933   1.596   3.741
11259TIP3    H233719   6.029   1.637   3.630
11260TIP3   OH233720   6.518   6.091   3.850
11260TIP3    H133721   6.516   6.132   3.763
11260TIP3    H233722   6.611   6.072   3.865
11261TIP3   OH233723   1.166   4.529   4.234
11261TIP3    H133724   1.079   4.537   4.272
11261TIP3    H233725   1.212   4.609   4.262
11262TIP3   OH233726   8.016   7.400   5.733
11262TIP3    H133727   7.943   7.441   5.688
11262TIP3    H233728   7.983   7.383   5.822
11263TIP3   OH233729   6.404   6.901   0.236
11263TIP3    H133730   6.493   6.924   0.207
11263TIP3    H233731   6.369   6.982   0.273
11264TIP3   OH233732   5.936   4.114   2.854
11264TIP3    H133733   5.880   4.144   2.782
11264TIP3    H233734   6.019   4.090   2.811
11265TIP3   OH233735   2.560   7.427   2.353
11265TIP3    H133736   2.529   7.442   2.442
11265TIP3    H233737   2.537   7.336   2.334
11266TIP3   OH233738   1.086   3.624   1.350
11266TIP3    H133739   1.117   3.639   1.261
11266TIP3    H233740   0.992   3.609   1.340
11267TIP3   OH233741   3.665   5.057   2.849
11267TIP3    H133742   3.732   4.997   2.816
11267TIP3    H233743   3.666   5.130   2.788
11268TIP3   OH233744   3.579   2.190   4.638
11268TIP3    H133745   3.645   2.259   4.629
11268TIP3    H233746   3.544   2.178   4.550
11269TIP3   OH233747   7.960   3.653   3.041
11269TIP3    H133748   8.008   3.732   3.016
11269TIP3    H233749   7.946   3.607   2.958
11270TIP3   OH233750   6.218   0.360   1.151
11270TIP3    H133751   6.302   0.318   1.130
11270TIP3    H233752   6.163   0.341   1.075
11271TIP3   OH233753   4.656   7.334   2.477
11271TIP3    H133754   4.615   7.342   2.563
11271TIP3    H233755   4.602   7.386   2.419
11272TIP3   OH233756   2.378   4.383   2.411
11272TIP3    H133757   2.439   4.342   2.471
11272TIP3    H233758   2.432   4.414   2.339
11273TIP3   OH233759   3.377   3.219   0.470
11273TIP3    H133760   3.315   3.288   0.445
11273TIP3    H233761   3.442   3.263   0.525
11274TIP3   OH233762   4.142   0.077   5.580
11274TIP3    H133763   4.237   0.080   5.582
11274TIP3    H233764   4.119   0.008   5.643
11275TIP3   OH233765   5.601   6.806   2.884
11275TIP3    H133766   5.669   6.869   2.861
11275TIP3    H233767   5.538   6.810   2.812
11276TIP3   OH233768   5.690   3.069   5.101
11276TIP3    H133769   5.629   3.089   5.030
11276TIP3    H233770   5.649   2.995   5.147
11277TIP3   OH233771   2.873   6.497   6.346
11277TIP3    H133772   2.920   6.425   6.305
11277TIP3    H233773   2.936   6.536   6.406
11278TIP3   OH233774   4.108   0.618   5.162
11278TIP3    H133775   4.029   0.567   5.146
11278TIP3    H233776   4.180   0.558   5.146
11279TIP3   OH233777   2.634   6.894   5.177
11279TIP3    H133778   2.627   6.819   5.118
11279TIP3    H233779   2.606   6.860   5.262
11280TIP3   OH233780   0.921   6.200   4.614
11280TIP3    H133781   0.901   6.293   4.626
11280TIP3    H233782   0.875   6.176   4.534
11281TIP3   OH233783   6.930   1.110   1.519
11281TIP3    H133784   6.864   1.176   1.498
11281TIP3    H233785   6.885   1.026   1.511
11282TIP3   OH233786   7.404   6.603   0.907
11282TIP3    H133787   7.426   6.697   0.905
11282TIP3    H233788   7.482   6.561   0.942
11283TIP3   OH233789   4.185   6.355   5.647
11283TIP3    H133790   4.207   6.283   5.707
11283TIP3    H233791   4.246   6.425   5.670
11284TIP3   OH233792   6.079   7.283   6.755
11284TIP3    H133793   6.075   7.205   6.700
11284TIP3    H233794   6.044   7.353   6.701
11285TIP3   OH233795   2.690   0.362   3.753
11285TIP3    H133796   2.720   0.446   3.788
11285TIP3    H233797   2.611   0.342   3.803
11286TIP3   OH233798   3.323   3.762   2.864
11286TIP3    H133799   3.385   3.691   2.844
11286TIP3    H233800   3.370   3.817   2.927
11287TIP3   OH233801   2.103   7.854   3.074
11287TIP3    H133802   2.111   7.838   2.980
11287TIP3    H233803   2.136   7.775   3.116
11288TIP3   OH233804   2.618   2.619   6.254
11288TIP3    H133805   2.546   2.589   6.310
11288TIP3    H233806   2.660   2.688   6.304
11289TIP3   OH233807   7.884   6.802   0.728
11289TIP3    H133808   7.872   6.871   0.793
11289TIP3    H233809   7.971   6.820   0.691
11290TIP3   OH233810   0.850   3.904   3.088
11290TIP3    H133811   0.772   3.913   3.143
11290TIP3    H233812   0.875   3.994   3.067
11291TIP3   OH233813   2.122   5.167   4.453
11291TIP3    H133814   2.118   5.242   4.394
11291TIP3    H233815   2.047   5.113   4.429
11292TIP3   OH233816   6.566   7.578   3.387
11292TIP3    H133817   6.510   7.612   3.318
11292TIP3    H233818   6.580   7.652   3.447
11293TIP3   OH233819   8.123   6.210   3.209
11293TIP3    H133820   8.034   6.202   3.243
11293TIP3    H233821   8.134   6.304   3.193
11294TIP3   OH233822   1.322   0.261   4.662
11294TIP3    H133823   1.283   0.218   4.737
11294TIP3    H233824   1.416   0.267   4.683
11295TIP3   OH233825   4.132   0.869   3.346
11295TIP3    H133826   4.089   0.867   3.432
11295TIP3    H233827   4.223   0.845   3.365
11296TIP3   OH233828   3.542   0.777   0.055
11296TIP3    H133829   3.532   0.859   0.007
11296TIP3    H233830   3.526   0.801   0.147
11297TIP3   OH233831   1.288   7.439   0.404
11297TIP3    H133832   1.295   7.508   0.470
11297TIP3    H233833   1.336   7.474   0.329
11298TIP3   OH233834   1.600   3.778   0.283
11298TIP3    H133835   1.579   3.848   0.222
11298TIP3    H233836   1.682   3.741   0.250
11299TIP3   OH233837   2.021   2.867   4.212
11299TIP3    H133838   2.075   2.847   4.288
11299TIP3    H233839   2.034   2.960   4.197
11300TIP3   OH233840   1.502   3.505   0.229
11300TIP3    H133841   1.493   3.588   0.276
11300TIP3    H233842   1.464   3.522   0.143
11301TIP3   OH233843   0.111   0.778   0.001
11301TIP3    H133844   0.032   0.827   0.024
11301TIP3    H233845   0.124   0.717   0.074
11302TIP3   OH233846   7.599   0.062   1.279
11302TIP3    H133847   7.646   0.028   1.202
11302TIP3    H233848   7.564  -0.016   1.321
11303TIP3   OH233849   8.023   3.115   6.447
11303TIP3    H133850   7.978   3.179   6.392
11303TIP3    H233851   8.027   3.156   6.534
11304TIP3   OH233852   8.353   1.415   1.158
11304TIP3    H133853   8.302   1.367   1.223
11304TIP3    H233854   8.298   1.490   1.134
11305TIP3   OH233855   0.019   1.744   1.376
11305TIP3    H133856   0.005   1.739   1.282
11305TIP3    H233857   0.069   1.665   1.397
11306TIP3   OH233858   1.260   1.779   5.676
11306TIP3    H133859   1.170   1.749   5.689
11306TIP3    H233860   1.267   1.797   5.583
11307TIP3   OH233861   5.296   1.525   2.050
11307TIP3    H133862   5.209   1.488   2.064
11307TIP3    H233863   5.336   1.524   2.137
11308TIP3   OH233864   1.144   2.311   1.887
11308TIP3    H133865   1.103   2.397   1.883
11308TIP3    H233866   1.177   2.295   1.799
11309TIP3   OH233867   4.562   6.951   1.534
11309TIP3    H133868   4.575   6.893   1.609
11309TIP3    H233869   4.596   6.902   1.459
11310TIP3   OH233870   0.313   2.312   3.595
11310TIP3    H133871   0.334   2.403   3.612
11310TIP3    H233872   0.253   2.287   3.666
11311TIP3   OH233873   2.328   7.271   2.080
11311TIP3    H133874   2.314   7.361   2.050
11311TIP3    H233875   2.423   7.261   2.084
11312TIP3   OH233876   5.559   7.923   1.899
11312TIP3    H133877   5.470   7.906   1.868
11312TIP3    H233878   5.594   7.836   1.919
11313TIP3   OH233879   1.296   4.124   2.495
11313TIP3    H133880   1.209   4.109   2.458
11313TIP3    H233881   1.297   4.218   2.516
11314TIP3   OH233882   4.816   1.346   4.682
11314TIP3    H133883   4.889   1.390   4.726
11314TIP3    H233884   4.834   1.356   4.589
11315TIP3   OH233885   7.097   7.888   3.451
11315TIP3    H133886   7.080   7.958   3.388
11315TIP3    H233887   7.099   7.809   3.398
11316TIP3   OH233888   7.987   5.910   5.202
11316TIP3    H133889   8.078   5.924   5.228
11316TIP3    H233890   7.968   5.819   5.224
11317TIP3   OH233891   7.370   1.971   6.547
11317TIP3    H133892   7.452   2.005   6.511
11317TIP3    H233893   7.305   1.989   6.479
11318TIP3   OH233894   7.138   4.886   2.504
11318TIP3    H133895   7.151   4.844   2.419
11318TIP3    H233896   7.093   4.819   2.557
11319TIP3   OH233897   7.658   6.507   2.408
11319TIP3    H133898   7.673   6.503   2.313
11319TIP3    H233899   7.566   6.483   2.418
11320TIP3   OH233900   5.777   2.287   4.926
11320TIP3    H133901   5.694   2.251   4.958
11320TIP3    H233902   5.803   2.350   4.993
11321TIP3   OH233903   8.368   2.781   6.185
11321TIP3    H133904   8.354   2.846   6.254
11321TIP3    H233905   8.312   2.809   6.113
11322TIP3   OH233906   6.533   6.083   4.680
11322TIP3    H133907   6.611   6.136   4.690
11322TIP3    H233908   6.562   6.006   4.632
11323TIP3   OH233909   5.177   6.066   3.182
11323TIP3    H133910   5.232   6.008   3.234
11323TIP3    H233911   5.235   6.101   3.114
11324TIP3   OH233912   8.343   1.455   6.756
11324TIP3    H133913   8.407   1.448   6.685
11324TIP3    H233914   8.391   1.433   6.835
11325TIP3   OH233915   0.739   5.695   2.437
11325TIP3    H133916   0.703   5.769   2.485
11325TIP3    H233917   0.804   5.733   2.379
11326TIP3   OH233918   3.274   1.331   5.197
11326TIP3    H133919   3.289   1.402   5.259
11326TIP3    H233920   3.360   1.315   5.157
11327TIP3   OH233921   4.327   0.602   6.584
11327TIP3    H133922   4.303   0.542   6.513
11327TIP3    H233923   4.305   0.555   6.664
11328TIP3   OH233924   4.872   6.882   6.497
11328TIP3    H133925   4.842   6.916   6.581
11328TIP3    H233926   4.946   6.938   6.473
11329TIP3   OH233927   5.278   5.214   2.694
11329TIP3    H133928   5.339   5.140   2.694
11329TIP3    H233929   5.330   5.287   2.660
11330TIP3   OH233930   1.841   5.647   1.091
11330TIP3    H133931   1.881   5.651   1.178
11330TIP3    H233932   1.895   5.705   1.038
11331TIP3   OH233933   8.274   4.127   2.005
11331TIP3    H133934   8.212   4.065   2.044
11331TIP3    H233935   8.332   4.073   1.951
11332TIP3   OH233936   4.841   6.390   6.133
11332TIP3    H133937   4.808   6.478   6.112
11332TIP3    H233938   4.933   6.405   6.155
11333TIP3   OH233939   0.769   7.733   0.991
11333TIP3    H133940   0.721   7.701   1.068
11333TIP3    H233941   0.706   7.728   0.919
11334TIP3   OH233942   4.023   5.374   0.816
11334TIP3    H133943   3.934   5.345   0.797
11334TIP3    H233944   4.016   5.468   0.826
11335TIP3   OH233945   0.524   2.965   4.742
11335TIP3    H133946   0.602   2.948   4.795
11335TIP3    H233947   0.506   2.881   4.699
11336TIP3   OH233948   0.816   6.709   0.385
11336TIP3    H133949   0.886   6.660   0.343
11336TIP3    H233950   0.855   6.794   0.406
11337TIP3   OH233951   0.609   2.448   5.795
11337TIP3    H133952   0.645   2.509   5.731
11337TIP3    H233953   0.669   2.455   5.870
11338TIP3   OH233954   6.482   6.195   2.536
11338TIP3    H133955   6.447   6.273   2.491
11338TIP3    H233956   6.555   6.167   2.481
11339TIP3   OH233957   3.785   4.516   6.343
11339TIP3    H133958   3.811   4.477   6.259
11339TIP3    H233959   3.718   4.457   6.377
11340TIP3   OH233960   0.581   2.363   0.149
11340TIP3    H133961   0.651   2.399   0.095
11340TIP3    H233962   0.626   2.318   0.220
11341TIP3   OH233963   8.054   4.693   0.516
11341TIP3    H133964   8.136   4.742   0.522
11341TIP3    H233965   8.054   4.637   0.594
11342TIP3   OH233966   7.428   0.340   2.901
11342TIP3    H133967   7.490   0.410   2.916
11342TIP3    H233968   7.475   0.260   2.924
11343TIP3   OH233969   1.806   6.985   1.371
11343TIP3    H133970   1.856   6.916   1.415
11343TIP3    H233971   1.863   7.061   1.372
11344TIP3   OH233972   7.169   4.326   5.015
11344TIP3    H133973   7.092   4.340   4.959
11344TIP3    H233974   7.207   4.413   5.027
11345TIP3   OH233975   3.893   0.848   0.139
11345TIP3    H133976   3.988   0.845   0.152
11345TIP3    H233977   3.883   0.852   0.043
11346TIP3   OH233978   7.407   6.696   5.477
11346TIP3    H133979   7.421   6.611   5.434
11346TIP3    H233980   7.429   6.680   5.569
11347TIP3   OH233981   1.093   2.579   1.064
11347TIP3    H133982   1.176   2.600   1.107
11347TIP3    H233983   1.029   2.577   1.136
11348TIP3   OH233984   7.196   3.805   2.504
11348TIP3    H133985   7.272   3.762   2.544
11348TIP3    H233986   7.124   3.786   2.565
11349TIP3   OH233987   0.102   4.796   4.235
11349TIP3    H133988   0.154   4.849   4.295
11349TIP3    H233989   0.105   4.843   4.152
11350TIP3   OH233990   3.160   5.752   1.169
11350TIP3    H133991   3.147   5.726   1.260
11350TIP3    H233992   3.240   5.804   1.170
11351TIP3   OH233993   6.585   4.046   5.025
11351TIP3    H133994   6.598   4.132   4.985
11351TIP3    H233995   6.672   4.006   5.024
11352TIP3   OH233996   1.892   5.181   6.069
11352TIP3    H133997   1.802   5.203   6.095
11352TIP3    H233998   1.942   5.187   6.150
11353TIP3   OH233999   2.293   1.042   0.975
11353TIP3    H134000   2.260   1.017   1.061
11353TIP3    H234001   2.229   1.007   0.913
11354TIP3   OH234002   5.303   7.503   0.460
11354TIP3    H134003   5.395   7.520   0.439
11354TIP3    H234004   5.259   7.587   0.445
11355TIP3   OH234005   2.736   2.538   6.851
11355TIP3    H134006   2.727   2.449   6.816
11355TIP3    H234007   2.830   2.557   6.842
11356TIP3   OH234008   7.700   2.873   3.161
11356TIP3    H134009   7.785   2.836   3.136
11356TIP3    H234010   7.636   2.824   3.109
11357TIP3   OH234011   8.044   3.977   4.568
11357TIP3    H134012   8.069   3.932   4.649
11357TIP3    H234013   8.063   4.069   4.585
11358TIP3   OH234014   8.063   5.406   2.015
11358TIP3    H134015   7.991   5.343   2.024
11358TIP3    H234016   8.110   5.377   1.936
11359TIP3   OH234017   4.999   4.986   4.424
11359TIP3    H134018   5.076   4.930   4.437
11359TIP3    H234019   4.995   5.000   4.330
11360TIP3   OH234020   8.405   0.893   1.288
11360TIP3    H134021   8.314   0.872   1.269
11360TIP3    H234022   8.429   0.959   1.223
11361TIP3   OH234023   3.426   4.441   1.110
11361TIP3    H134024   3.377   4.424   1.030
11361TIP3    H234025   3.499   4.379   1.106
11362TIP3   OH234026   5.597   6.679   5.315
11362TIP3    H134027   5.681   6.723   5.307
11362TIP3    H234028   5.618   6.586   5.325
11363TIP3   OH234029   0.013   7.184   3.613
11363TIP3    H134030   0.050   7.152   3.695
11363TIP3    H234031   0.067   7.145   3.545
11364TIP3   OH234032   4.532   6.550   3.978
11364TIP3    H134033   4.576   6.530   4.061
11364TIP3    H234034   4.571   6.491   3.915
11365TIP3   OH234035   3.020   2.578   0.678
11365TIP3    H134036   2.955   2.548   0.614
11365TIP3    H234037   3.028   2.506   0.740
11366TIP3   OH234038   2.953   5.172   2.606
11366TIP3    H134039   2.925   5.188   2.697
11366TIP3    H234040   2.884   5.117   2.570
11367TIP3   OH234041   5.329   5.616   1.660
11367TIP3    H134042   5.315   5.709   1.646
11367TIP3    H234043   5.416   5.611   1.700
11368TIP3   OH234044   4.366   4.055   6.799
11368TIP3    H134045   4.313   4.062   6.720
11368TIP3    H234046   4.313   4.096   6.867
11369TIP3   OH234047   0.885   0.766   4.466
11369TIP3    H134048   0.842   0.757   4.551
11369TIP3    H234049   0.909   0.676   4.443
11370TIP3   OH234050   4.295   2.330   4.762
11370TIP3    H134051   4.333   2.349   4.847
11370TIP3    H234052   4.306   2.235   4.752
11371TIP3   OH234053   3.655   1.333   0.482
11371TIP3    H134054   3.654   1.267   0.551
11371TIP3    H234055   3.569   1.325   0.441
11372TIP3   OH234056   6.642   2.518   0.164
11372TIP3    H134057   6.712   2.563   0.210
11372TIP3    H234058   6.686   2.453   0.109
11373TIP3   OH234059   7.498   5.909   1.608
11373TIP3    H134060   7.542   5.983   1.567
11373TIP3    H234061   7.556   5.834   1.590
11374TIP3   OH234062   3.389   6.692   1.741
11374TIP3    H134063   3.414   6.749   1.814
11374TIP3    H234064   3.417   6.605   1.768
11375TIP3   OH234065   3.131   5.140   1.723
11375TIP3    H134066   3.196   5.209   1.708
11375TIP3    H234067   3.160   5.067   1.668
11376TIP3   OH234068   1.427   4.195   5.381
11376TIP3    H134069   1.421   4.116   5.328
11376TIP3    H234070   1.354   4.189   5.442
11377TIP3   OH234071   2.379   2.881   6.496
11377TIP3    H134072   2.311   2.845   6.439
11377TIP3    H234073   2.451   2.902   6.436
11378TIP3   OH234074   3.914   6.821   2.821
11378TIP3    H134075   3.906   6.900   2.874
11378TIP3    H234076   3.850   6.832   2.751
11379TIP3   OH234077   0.170   7.016   3.789
11379TIP3    H134078   0.252   7.064   3.779
11379TIP3    H234079   0.153   7.016   3.883
11380TIP3   OH234080   3.902   1.859   5.843
11380TIP3    H134081   3.889   1.801   5.769
11380TIP3    H234082   3.838   1.929   5.832
11381TIP3   OH234083   3.638   2.335   5.321
11381TIP3    H134084   3.685   2.272   5.266
11381TIP3    H234085   3.704   2.365   5.385
11382TIP3   OH234086   7.592   7.916   2.079
11382TIP3    H134087   7.575   7.925   2.173
11382TIP3    H234088   7.687   7.925   2.071
11383TIP3   OH234089   0.343   0.918   3.881
11383TIP3    H134090   0.296   0.920   3.964
11383TIP3    H234091   0.429   0.953   3.901
11384TIP3   OH234092   7.606   5.886   2.154
11384TIP3    H134093   7.600   5.981   2.147
11384TIP3    H234094   7.592   5.868   2.247
11385TIP3   OH234095   3.501   5.010   3.881
11385TIP3    H134096   3.489   4.917   3.859
11385TIP3    H234097   3.425   5.031   3.936
11386TIP3   OH234098   5.586   7.744   1.595
11386TIP3    H134099   5.618   7.749   1.685
11386TIP3    H234100   5.608   7.655   1.567
11387TIP3   OH234101   3.042   5.970   1.471
11387TIP3    H134102   3.062   5.876   1.471
11387TIP3    H234103   2.954   5.976   1.506
11388TIP3   OH234104   2.447   0.692   1.864
11388TIP3    H134105   2.438   0.719   1.773
11388TIP3    H234106   2.541   0.694   1.880
11389TIP3   OH234107   3.962   0.378   1.203
11389TIP3    H134108   3.876   0.420   1.197
11389TIP3    H234109   3.958   0.326   1.283
11390TIP3   OH234110   8.117   1.622   4.018
11390TIP3    H134111   8.176   1.695   4.040
11390TIP3    H234112   8.163   1.576   3.947
11391TIP3   OH234113   6.664   5.182   5.652
11391TIP3    H134114   6.737   5.229   5.612
11391TIP3    H234115   6.672   5.093   5.618
11392TIP3   OH234116   1.818   2.469   1.800
11392TIP3    H134117   1.782   2.528   1.734
11392TIP3    H234118   1.745   2.412   1.825
11393TIP3   OH234119   7.114   5.457   6.477
11393TIP3    H134120   7.201   5.455   6.519
11393TIP3    H234121   7.056   5.494   6.544
11394TIP3   OH234122   4.306   7.077   4.140
11394TIP3    H134123   4.298   7.056   4.047
11394TIP3    H234124   4.241   7.020   4.183
11395TIP3   OH234125   0.952   7.566   2.347
11395TIP3    H134126   1.017   7.562   2.418
11395TIP3    H234127   1.002   7.596   2.271
11396TIP3   OH234128   1.990   0.925   0.657
11396TIP3    H134129   1.973   0.924   0.563
11396TIP3    H234130   1.925   0.985   0.693
11397TIP3   OH234131   1.166   0.658   0.984
11397TIP3    H134132   1.130   0.725   0.926
11397TIP3    H234133   1.127   0.576   0.953
11398TIP3   OH234134   7.821   4.281   2.174
11398TIP3    H134135   7.848   4.303   2.263
11398TIP3    H234136   7.740   4.331   2.161
11399TIP3   OH234137   3.345   2.409   4.156
11399TIP3    H134138   3.255   2.390   4.130
11399TIP3    H234139   3.397   2.396   4.076
11400TIP3   OH234140   1.935   3.296   3.145
11400TIP3    H134141   1.883   3.354   3.199
11400TIP3    H234142   1.895   3.301   3.058
11401TIP3   OH234143   4.277   6.174   2.787
11401TIP3    H134144   4.295   6.151   2.878
11401TIP3    H234145   4.185   6.151   2.774
11402TIP3   OH234146   2.998   0.151   4.112
11402TIP3    H134147   2.981   0.170   4.019
11402TIP3    H234148   2.915   0.113   4.143
11403TIP3   OH234149   5.867   2.514   1.863
11403TIP3    H134150   5.953   2.506   1.903
11403TIP3    H234151   5.863   2.605   1.833
11404TIP3   OH234152   1.450   6.973   3.979
11404TIP3    H134153   1.376   6.959   4.038
11404TIP3    H234154   1.525   6.939   4.026
11405TIP3   OH234155   6.995   7.485   1.940
11405TIP3    H134156   6.974   7.434   1.862
11405TIP3    H234157   7.028   7.568   1.906
11406TIP3   OH234158   0.278   0.916   4.768
11406TIP3    H134159   0.231   0.833   4.778
11406TIP3    H234160   0.363   0.902   4.810
11407TIP3   OH234161   7.451   6.040   0.041
11407TIP3    H134162   7.535   6.082   0.057
11407TIP3    H234163   7.463   5.951   0.072
11408TIP3   OH234164   6.556   0.775   1.500
11408TIP3    H134165   6.605   0.754   1.579
11408TIP3    H234166   6.478   0.820   1.531
11409TIP3   OH234167   1.915   4.764   3.751
11409TIP3    H134168   1.834   4.741   3.706
11409TIP3    H234169   1.960   4.825   3.692
11410TIP3   OH234170   3.469   4.735   3.809
11410TIP3    H134171   3.506   4.745   3.721
11410TIP3    H234172   3.383   4.695   3.795
11411TIP3   OH234173   3.544   0.791   1.140
11411TIP3    H134174   3.476   0.846   1.101
11411TIP3    H234175   3.521   0.786   1.233
11412TIP3   OH234176   6.592   7.568   5.339
11412TIP3    H134177   6.525   7.509   5.305
11412TIP3    H234178   6.582   7.564   5.434
11413TIP3   OH234179   3.849   6.425   0.507
11413TIP3    H134180   3.867   6.348   0.561
11413TIP3    H234181   3.926   6.481   0.520
11414TIP3   OH234182   4.888   5.102   1.837
11414TIP3    H134183   4.841   5.120   1.756
11414TIP3    H234184   4.961   5.046   1.811
11415TIP3   OH234185   3.456   4.601   4.875
11415TIP3    H134186   3.505   4.594   4.794
11415TIP3    H234187   3.420   4.513   4.889
11416TIP3   OH234188   4.019   2.012   1.019
11416TIP3    H134189   4.075   1.984   1.092
11416TIP3    H234190   3.971   1.933   0.994
11417TIP3   OH234191   3.704   1.987   5.411
11417TIP3    H134192   3.681   2.068   5.366
11417TIP3    H234193   3.703   1.920   5.343
11418TIP3   OH234194   4.595   7.208   3.247
11418TIP3    H134195   4.574   7.165   3.329
11418TIP3    H234196   4.670   7.159   3.213
11419TIP3   OH234197   6.730   1.329   3.779
11419TIP3    H134198   6.639   1.304   3.798
11419TIP3    H234199   6.725   1.367   3.691
11420TIP3   OH234200   8.312   7.889   4.182
11420TIP3    H134201   8.266   7.949   4.241
11420TIP3    H234202   8.393   7.868   4.228
11421TIP3   OH234203   7.325   7.556   4.754
11421TIP3    H134204   7.348   7.583   4.842
11421TIP3    H234205   7.316   7.460   4.759
11422TIP3   OH234206   6.126   1.176   0.081
11422TIP3    H134207   6.076   1.094   0.086
11422TIP3    H234208   6.214   1.153   0.108
11423TIP3   OH234209   3.664   5.930   6.255
11423TIP3    H134210   3.637   6.022   6.248
11423TIP3    H234211   3.587   5.880   6.228
11424TIP3   OH234212   6.120   0.988   2.725
11424TIP3    H134213   6.146   1.075   2.754
11424TIP3    H234214   6.057   1.004   2.655
11425TIP3   OH234215   6.087   0.059   3.284
11425TIP3    H134216   6.109   0.111   3.361
11425TIP3    H234217   6.167   0.010   3.264
11426TIP3   OH234218   1.055   1.863   4.864
11426TIP3    H134219   1.004   1.865   4.783
11426TIP3    H234220   1.115   1.789   4.852
11427TIP3   OH234221   2.877   0.210   1.214
11427TIP3    H134222   2.949   0.250   1.262
11427TIP3    H234223   2.919   0.168   1.139
11428TIP3   OH234224   7.123   1.493   0.085
11428TIP3    H134225   7.188   1.487   0.155
11428TIP3    H234226   7.046   1.531   0.128
11429TIP3   OH234227   0.690   0.815   2.214
11429TIP3    H134228   0.691   0.738   2.271
11429TIP3    H234229   0.747   0.792   2.141
11430TIP3   OH234230   4.953   3.344   3.818
11430TIP3    H134231   4.910   3.400   3.883
11430TIP3    H234232   4.948   3.394   3.736
11431TIP3   OH234233   7.926   6.031   6.631
11431TIP3    H134234   7.936   5.953   6.685
11431TIP3    H234235   7.885   6.095   6.690
11432TIP3   OH234236   4.454   3.771   0.974
11432TIP3    H134237   4.404   3.692   0.955
11432TIP3    H234238   4.542   3.739   0.997
11433TIP3   OH234239   5.310   3.332   0.421
11433TIP3    H134240   5.303   3.274   0.497
11433TIP3    H234241   5.276   3.416   0.452
11434TIP3   OH234242   8.171   6.759   0.689
11434TIP3    H134243   8.221   6.746   0.608
11434TIP3    H234244   8.175   6.675   0.734
11435TIP3   OH234245   7.529   5.139   1.394
11435TIP3    H134246   7.469   5.151   1.320
11435TIP3    H234247   7.553   5.047   1.391
11436TIP3   OH234248   3.702   7.262   1.517
11436TIP3    H134249   3.695   7.358   1.514
11436TIP3    H234250   3.762   7.245   1.589
11437TIP3   OH234251   0.498   2.598   5.127
11437TIP3    H134252   0.413   2.606   5.083
11437TIP3    H234253   0.508   2.504   5.143
11438TIP3   OH234254   3.825   4.666   3.092
11438TIP3    H134255   3.857   4.596   3.036
11438TIP3    H234256   3.898   4.684   3.152
11439TIP3   OH234257   2.401   3.510   3.228
11439TIP3    H134258   2.456   3.476   3.299
11439TIP3    H234259   2.324   3.452   3.228
11440TIP3   OH234260   0.223   4.031   3.022
11440TIP3    H134261   0.203   4.029   3.116
11440TIP3    H234262   0.245   4.122   3.004
11441TIP3   OH234263   5.155   3.371   4.986
11441TIP3    H134264   5.163   3.290   4.935
11441TIP3    H234265   5.115   3.433   4.925
11442TIP3   OH234266   7.141   5.087   4.751
11442TIP3    H134267   7.194   5.117   4.677
11442TIP3    H234268   7.138   5.161   4.811
11443TIP3   OH234269   5.181   2.358   2.083
11443TIP3    H134270   5.202   2.296   2.013
11443TIP3    H234271   5.262   2.365   2.133
11444TIP3   OH234272   6.312   3.025   3.976
11444TIP3    H134273   6.266   3.032   3.893
11444TIP3    H234274   6.402   3.002   3.952
11445TIP3   OH234275   6.083   5.067   4.032
11445TIP3    H134276   6.009   5.128   4.021
11445TIP3    H234277   6.160   5.123   4.029
11446TIP3   OH234278   7.671   3.988   0.696
11446TIP3    H134279   7.637   3.899   0.701
11446TIP3    H234280   7.743   3.990   0.759
11447TIP3   OH234281   1.248   2.894   0.724
11447TIP3    H134282   1.168   2.886   0.775
11447TIP3    H234283   1.225   2.857   0.638
11448TIP3   OH234284   8.247   1.060   4.797
11448TIP3    H134285   8.337   1.091   4.789
11448TIP3    H234286   8.221   1.036   4.708
11449TIP3   OH234287   5.102   7.514   4.225
11449TIP3    H134288   5.183   7.471   4.253
11449TIP3    H234289   5.116   7.607   4.242
11450TIP3   OH234290   4.406   3.206   2.356
11450TIP3    H134291   4.400   3.292   2.397
11450TIP3    H234292   4.458   3.220   2.277
11451TIP3   OH234293   2.222   6.432   6.775
11451TIP3    H134294   2.307   6.389   6.766
11451TIP3    H234295   2.191   6.443   6.685
11452TIP3   OH234296   6.090   5.732   0.991
11452TIP3    H134297   6.098   5.650   0.943
11452TIP3    H234298   6.143   5.795   0.941
11453TIP3   OH234299   7.506   5.520   3.385
11453TIP3    H134300   7.566   5.595   3.384
11453TIP3    H234301   7.420   5.557   3.365
11454TIP3   OH234302   0.087   7.275   5.662
11454TIP3    H134303   0.100   7.215   5.588
11454TIP3    H234304   0.174   7.280   5.703
11455TIP3   OH234305   5.018   5.776   4.762
11455TIP3    H134306   4.956   5.766   4.690
11455TIP3    H234307   5.030   5.870   4.771
11456TIP3   OH234308   4.965   2.619   2.880
11456TIP3    H134309   4.967   2.596   2.787
11456TIP3    H234310   4.877   2.655   2.894
11457TIP3   OH234311   1.538   3.929   3.952
11457TIP3    H134312   1.617   3.905   4.001
11457TIP3    H234313   1.516   4.016   3.985
11458TIP3   OH234314   1.135   3.902   4.606
11458TIP3    H134315   1.228   3.909   4.625
11458TIP3    H234316   1.092   3.922   4.690
11459TIP3   OH234317   2.387   3.545   3.687
11459TIP3    H134318   2.416   3.629   3.721
11459TIP3    H234319   2.462   3.487   3.701
11460TIP3   OH234320   5.368   7.283   3.620
11460TIP3    H134321   5.349   7.205   3.671
11460TIP3    H234322   5.314   7.276   3.542
11461TIP3   OH234323   2.078   7.705   4.672
11461TIP3    H134324   2.031   7.750   4.742
11461TIP3    H234325   2.025   7.722   4.594
11462TIP3   OH234326   0.308   4.345   1.082
11462TIP3    H134327   0.228   4.397   1.084
11462TIP3    H234328   0.378   4.409   1.093
11463TIP3   OH234329   7.245   1.973   2.262
11463TIP3    H134330   7.327   1.955   2.216
11463TIP3    H234331   7.263   2.052   2.313
11464TIP3   OH234332   1.596   5.252   3.986
11464TIP3    H134333   1.628   5.327   4.036
11464TIP3    H234334   1.629   5.267   3.897
11465TIP3   OH234335   5.822   4.905   5.381
11465TIP3    H134336   5.852   4.986   5.423
11465TIP3    H234337   5.868   4.903   5.297
11466TIP3   OH234338   3.756   6.827   2.127
11466TIP3    H134339   3.685   6.765   2.142
11466TIP3    H234340   3.819   6.779   2.074
11467TIP3   OH234341   3.619   2.258   1.138
11467TIP3    H134342   3.539   2.236   1.091
11467TIP3    H234343   3.685   2.270   1.070
11468TIP3   OH234344   0.778   7.838   0.248
11468TIP3    H134345   0.833   7.764   0.272
11468TIP3    H234346   0.720   7.851   0.323
11469TIP3   OH234347   2.103   1.766   2.601
11469TIP3    H134348   2.083   1.855   2.571
11469TIP3    H234349   2.038   1.711   2.557
11470TIP3   OH234350   3.112   5.454   6.455
11470TIP3    H134351   3.111   5.536   6.406
11470TIP3    H234352   3.136   5.387   6.391
11471TIP3   OH234353   0.541   5.608   5.077
11471TIP3    H134354   0.550   5.702   5.063
11471TIP3    H234355   0.539   5.598   5.172
11472TIP3   OH234356   0.849   7.474   6.050
11472TIP3    H134357   0.824   7.386   6.076
11472TIP3    H234358   0.778   7.530   6.084
11473TIP3   OH234359   4.061   5.959   5.523
11473TIP3    H134360   3.977   6.003   5.536
11473TIP3    H234361   4.054   5.918   5.437
11474TIP3   OH234362   7.909   2.967   4.553
11474TIP3    H134363   7.972   2.896   4.566
11474TIP3    H234364   7.847   2.932   4.489
11475TIP3   OH234365   4.575   5.847   0.608
11475TIP3    H134366   4.600   5.928   0.653
11475TIP3    H234367   4.496   5.870   0.560
11476TIP3   OH234368   0.680   0.894   0.875
11476TIP3    H134369   0.693   0.856   0.962
11476TIP3    H234370   0.587   0.914   0.872
11477TIP3   OH234371   4.371   7.183   1.523
11477TIP3    H134372   4.328   7.124   1.460
11477TIP3    H234373   4.438   7.129   1.565
11478TIP3   OH234374   6.217   1.976   0.326
11478TIP3    H134375   6.231   1.998   0.234
11478TIP3    H234376   6.208   1.881   0.327
11479TIP3   OH234377   1.712   4.444   5.468
11479TIP3    H134378   1.785   4.482   5.516
11479TIP3    H234379   1.748   4.421   5.383
11480TIP3   OH234380   1.976   2.448   1.138
11480TIP3    H134381   2.063   2.443   1.177
11480TIP3    H234382   1.920   2.480   1.209
11481TIP3   OH234383   1.880   0.013   1.349
11481TIP3    H134384   1.901   0.083   1.411
11481TIP3    H234385   1.812   0.050   1.293
11482TIP3   OH234386   2.610   0.524   2.550
11482TIP3    H134387   2.647   0.496   2.467
11482TIP3    H234388   2.533   0.576   2.526
11483TIP3   OH234389   2.693   3.146   3.226
11483TIP3    H134390   2.718   3.225   3.180
11483TIP3    H234391   2.674   3.082   3.156
11484TIP3   OH234392   2.313   0.524   2.797
11484TIP3    H134393   2.322   0.612   2.759
11484TIP3    H234394   2.222   0.500   2.781
11485TIP3   OH234395   1.597   1.860   5.593
11485TIP3    H134396   1.689   1.864   5.618
11485TIP3    H234397   1.582   1.940   5.542
11486TIP3   OH234398   0.174   0.284   5.138
11486TIP3    H134399   0.180   0.223   5.212
11486TIP3    H234400   0.231   0.247   5.071
11487TIP3   OH234401   6.839   7.881   6.483
11487TIP3    H134402   6.906   7.926   6.535
11487TIP3    H234403   6.887   7.849   6.406
11488TIP3   OH234404   3.552   1.907   4.008
11488TIP3    H134405   3.497   1.917   3.930
11488TIP3    H234406   3.491   1.878   4.076
11489TIP3   OH234407   5.555   1.178   4.595
11489TIP3    H134408   5.567   1.228   4.676
11489TIP3    H234409   5.601   1.230   4.528
11490TIP3   OH234410   1.468   4.924   4.916
11490TIP3    H134411   1.405   4.852   4.923
11490TIP3    H234412   1.514   4.925   4.999
11491TIP3   OH234413   5.635   3.983   5.213
11491TIP3    H134414   5.558   3.991   5.157
11491TIP3    H234415   5.700   3.939   5.158
11492TIP3   OH234416   7.400   2.649   5.472
11492TIP3    H134417   7.480   2.665   5.422
11492TIP3    H234418   7.410   2.559   5.504
11493TIP3   OH234419   6.535   3.710   4.125
11493TIP3    H134420   6.536   3.732   4.218
11493TIP3    H234421   6.522   3.794   4.081
11494TIP3   OH234422   7.463   3.756   0.510
11494TIP3    H134423   7.453   3.803   0.427
11494TIP3    H234424   7.398   3.797   0.568
11495TIP3   OH234425   4.520   3.524   0.830
11495TIP3    H134426   4.559   3.446   0.789
11495TIP3    H234427   4.497   3.496   0.918
11496TIP3   OH234428   1.279   7.063   3.563
11496TIP3    H134429   1.271   7.053   3.658
11496TIP3    H234430   1.352   7.123   3.552
11497TIP3   OH234431   8.348   7.712   3.885
11497TIP3    H134432   8.378   7.688   3.973
11497TIP3    H234433   8.428   7.737   3.839
11498TIP3   OH234434   1.170   4.338   1.559
11498TIP3    H134435   1.133   4.316   1.473
11498TIP3    H234436   1.201   4.428   1.550
11499TIP3   OH234437   0.302   6.772   1.749
11499TIP3    H134438   0.322   6.723   1.829
11499TIP3    H234439   0.207   6.778   1.748
11500TIP3   OH234440   8.071   3.197   3.956
11500TIP3    H134441   8.072   3.171   3.864
11500TIP3    H234442   8.104   3.286   3.957
11501TIP3   OH234443   5.798   7.137   4.962
11501TIP3    H134444   5.721   7.142   4.905
11501TIP3    H234445   5.800   7.223   5.005
11502TIP3   OH234446   1.588   5.732   5.322
11502TIP3    H134447   1.519   5.783   5.279
11502TIP3    H234448   1.649   5.710   5.251
11503TIP3   OH234449   6.708   3.073   5.785
11503TIP3    H134450   6.670   2.986   5.799
11503TIP3    H234451   6.665   3.129   5.849
11504TIP3   OH234452   4.585   7.846   4.555
11504TIP3    H134453   4.646   7.911   4.522
11504TIP3    H234454   4.578   7.781   4.485
11505TIP3   OH234455   3.885   2.776   1.596
11505TIP3    H134456   3.922   2.769   1.684
11505TIP3    H234457   3.933   2.711   1.545
11506TIP3   OH234458   8.123   5.743   2.269
11506TIP3    H134459   8.200   5.798   2.255
11506TIP3    H234460   8.050   5.794   2.234
11507TIP3   OH234461   3.679   7.110   4.072
11507TIP3    H134462   3.604   7.077   4.121
11507TIP3    H234463   3.675   7.205   4.081
11508TIP3   OH234464   0.954   4.851   0.277
11508TIP3    H134465   0.953   4.896   0.361
11508TIP3    H234466   0.877   4.793   0.280
11509TIP3   OH234467   5.619   1.812   0.297
11509TIP3    H134468   5.676   1.737   0.279
11509TIP3    H234469   5.672   1.872   0.348
11510TIP3   OH234470   3.054   4.539   5.963
11510TIP3    H134471   3.106   4.620   5.958
11510TIP3    H234472   3.013   4.543   6.049
11511TIP3   OH234473   0.358   2.949   2.602
11511TIP3    H134474   0.355   3.045   2.600
11511TIP3    H234475   0.361   2.928   2.695
11512TIP3   OH234476   3.057   6.712   3.022
11512TIP3    H134477   3.040   6.633   2.971
11512TIP3    H234478   3.145   6.740   2.997
11513TIP3   OH234479   3.965   4.306   5.560
11513TIP3    H134480   3.999   4.369   5.624
11513TIP3    H234481   4.015   4.323   5.480
11514TIP3   OH234482   1.621   3.818   2.075
11514TIP3    H134483   1.702   3.862   2.100
11514TIP3    H234484   1.566   3.887   2.039
11515TIP3   OH234485   1.987   3.667   1.774
11515TIP3    H134486   1.916   3.646   1.712
11515TIP3    H234487   2.066   3.633   1.733
11516TIP3   OH234488   8.044   7.173   2.452
11516TIP3    H134489   7.998   7.089   2.445
11516TIP3    H234490   7.997   7.220   2.520
11517TIP3   OH234491   4.900   2.581   3.950
11517TIP3    H134492   4.808   2.580   3.977
11517TIP3    H234493   4.940   2.511   4.001
11518TIP3   OH234494   8.340   3.438   6.268
11518TIP3    H134495   8.259   3.458   6.223
11518TIP3    H234496   8.365   3.351   6.236
11519TIP3   OH234497   2.735   6.021   4.313
11519TIP3    H134498   2.709   6.102   4.357
11519TIP3    H234499   2.750   6.047   4.222
11520TIP3   OH234500   6.775   7.193   3.632
11520TIP3    H134501   6.807   7.146   3.709
11520TIP3    H234502   6.824   7.275   3.632
11521TIP3   OH234503   6.063   2.858   4.388
11521TIP3    H134504   5.984   2.869   4.440
11521TIP3    H234505   6.101   2.946   4.384
11522TIP3   OH234506   0.493   5.636   1.425
11522TIP3    H134507   0.406   5.674   1.412
11522TIP3    H234508   0.530   5.686   1.498
11523TIP3   OH234509   0.855   0.585   1.811
11523TIP3    H134510   0.898   0.511   1.854
11523TIP3    H234511   0.868   0.569   1.717
11524TIP3   OH234512   5.090   4.528   3.354
11524TIP3    H134513   5.009   4.578   3.355
11524TIP3    H234514   5.080   4.467   3.427
11525TIP3   OH234515   1.156   3.922   1.395
11525TIP3    H134516   1.074   3.880   1.370
11525TIP3    H234517   1.165   3.904   1.489
11526TIP3   OH234518   4.930   5.903   2.178
11526TIP3    H134519   4.917   5.893   2.083
11526TIP3    H234520   5.013   5.860   2.196
11527TIP3   OH234521   8.009   0.991   6.150
11527TIP3    H134522   8.018   1.022   6.060
11527TIP3    H234523   7.923   0.951   6.153
11528TIP3   OH234524   5.213   3.126   4.849
11528TIP3    H134525   5.266   3.117   4.770
11528TIP3    H234526   5.138   3.068   4.835
11529TIP3   OH234527   3.003   1.219   3.758
11529TIP3    H134528   2.950   1.205   3.836
11529TIP3    H234529   2.981   1.148   3.699
11530TIP3   OH234530   5.493   6.866   2.524
11530TIP3    H134531   5.565   6.892   2.468
11530TIP3    H234532   5.525   6.787   2.569
11531TIP3   OH234533   4.333   1.878   2.693
11531TIP3    H134534   4.289   1.844   2.615
11531TIP3    H234535   4.271   1.942   2.728
11532TIP3   OH234536   4.625   4.599   5.014
11532TIP3    H134537   4.613   4.519   5.066
11532TIP3    H234538   4.662   4.662   5.076
11533TIP3   OH234539   1.591   1.321   2.233
11533TIP3    H134540   1.645   1.242   2.241
11533TIP3    H234541   1.502   1.288   2.222
11534TIP3   OH234542   1.635   2.821   2.025
11534TIP3    H134543   1.684   2.898   2.053
11534TIP3    H234544   1.570   2.855   1.963
11535TIP3   OH234545   5.805   0.455   4.682
11535TIP3    H134546   5.833   0.518   4.747
11535TIP3    H234547   5.784   0.507   4.605
11536TIP3   OH234548   1.511   4.059   5.877
11536TIP3    H134549   1.430   4.017   5.849
11536TIP3    H234550   1.530   4.019   5.962
11537TIP3   OH234551   6.698   1.530   1.188
11537TIP3    H134552   6.640   1.464   1.228
11537TIP3    H234553   6.754   1.559   1.259
11538TIP3   OH234554   7.474   6.068   2.415
11538TIP3    H134555   7.552   6.115   2.444
11538TIP3    H234556   7.479   5.983   2.459
11539TIP3   OH234557   4.737   4.472   4.781
11539TIP3    H134558   4.699   4.531   4.846
11539TIP3    H234559   4.718   4.384   4.814
11540TIP3   OH234560   4.039   2.285   0.211
11540TIP3    H134561   4.012   2.346   0.280
11540TIP3    H234562   3.958   2.264   0.164
11541TIP3   OH234563   6.930   6.080   1.751
11541TIP3    H134564   6.946   6.092   1.657
11541TIP3    H234565   6.981   6.149   1.793
11542TIP3   OH234566   1.679   2.161   6.581
11542TIP3    H134567   1.600   2.191   6.626
11542TIP3    H234568   1.666   2.067   6.569
11543TIP3   OH234569   1.420   2.031   1.668
11543TIP3    H134570   1.387   2.121   1.671
11543TIP3    H234571   1.437   2.008   1.759
11544TIP3   OH234572   6.407   4.497   3.646
11544TIP3    H134573   6.453   4.448   3.715
11544TIP3    H234574   6.451   4.472   3.565
11545TIP3   OH234575   8.215   0.367   1.760
11545TIP3    H134576   8.218   0.404   1.849
11545TIP3    H234577   8.144   0.303   1.763
11546TIP3   OH234578   0.865   6.517   2.951
11546TIP3    H134579   0.817   6.489   3.029
11546TIP3    H234580   0.820   6.596   2.922
11547TIP3   OH234581   0.899   2.006   3.085
11547TIP3    H134582   0.914   2.055   3.166
11547TIP3    H234583   0.890   1.915   3.113
11548TIP3   OH234584   3.977   7.332   0.670
11548TIP3    H134585   3.906   7.382   0.629
11548TIP3    H234586   3.949   7.241   0.664
11549TIP3   OH234587   0.238   7.250   5.200
11549TIP3    H134588   0.325   7.241   5.162
11549TIP3    H234589   0.186   7.291   5.131
11550TIP3   OH234590   2.366   1.764   2.492
11550TIP3    H134591   2.403   1.810   2.567
11550TIP3    H234592   2.271   1.767   2.507
11551TIP3   OH234593   4.512   3.526   4.613
11551TIP3    H134594   4.490   3.433   4.616
11551TIP3    H234595   4.607   3.529   4.616
11552TIP3   OH234596   6.328   4.107   3.544
11552TIP3    H134597   6.272   4.175   3.506
11552TIP3    H234598   6.403   4.156   3.578
11553TIP3   OH234599   6.973   4.972   5.324
11553TIP3    H134600   6.971   5.021   5.407
11553TIP3    H234601   7.032   4.899   5.341
11554TIP3   OH234602   2.433   3.020   4.509
11554TIP3    H134603   2.486   2.966   4.568
11554TIP3    H234604   2.394   3.086   4.565
11555TIP3   OH234605   7.067   2.952   3.801
11555TIP3    H134606   7.129   2.970   3.872
11555TIP3    H234607   6.987   2.998   3.828
11556TIP3   OH234608   3.756   7.508   3.690
11556TIP3    H134609   3.826   7.495   3.626
11556TIP3    H234610   3.720   7.594   3.670
11557TIP3   OH234611   5.017   7.576   0.786
11557TIP3    H134612   5.010   7.670   0.798
11557TIP3    H234613   5.105   7.563   0.752
11558TIP3   OH234614   0.776   3.138   0.220
11558TIP3    H134615   0.708   3.129   0.287
11558TIP3    H234616   0.770   3.230   0.193
11559TIP3   OH234617   1.576   0.943   2.527
11559TIP3    H134618   1.627   0.913   2.452
11559TIP3    H234619   1.503   0.992   2.489
11560TIP3   OH234620   3.764   5.769   0.445
11560TIP3    H134621   3.725   5.805   0.366
11560TIP3    H234622   3.829   5.834   0.472
11561TIP3   OH234623   8.379   1.878   5.152
11561TIP3    H134624   8.378   1.824   5.231
11561TIP3    H234625   8.324   1.830   5.090
11562TIP3   OH234626   8.050   1.804   5.931
11562TIP3    H134627   8.123   1.754   5.895
11562TIP3    H234628   7.987   1.739   5.960
11563TIP3   OH234629   0.849   7.804   4.007
11563TIP3    H134630   0.887   7.801   3.919
11563TIP3    H234631   0.877   7.723   4.049
11564TIP3   OH234632   1.699   0.363   2.501
11564TIP3    H134633   1.652   0.360   2.418
11564TIP3    H234634   1.775   0.306   2.489
11565TIP3   OH234635   0.700   2.911   1.904
11565TIP3    H134636   0.786   2.894   1.943
11565TIP3    H234637   0.698   2.855   1.826
11566TIP3   OH234638   2.196   4.548   0.685
11566TIP3    H134639   2.172   4.522   0.596
11566TIP3    H234640   2.268   4.610   0.674
11567TIP3   OH234641   3.728   4.402   2.930
11567TIP3    H134642   3.822   4.416   2.944
11567TIP3    H234643   3.722   4.377   2.838
11568TIP3   OH234644   7.130   3.704   5.552
11568TIP3    H134645   7.086   3.696   5.637
11568TIP3    H234646   7.075   3.654   5.492
11569TIP3   OH234647   2.497   7.450   3.240
11569TIP3    H134648   2.544   7.442   3.158
11569TIP3    H234649   2.443   7.371   3.245
11570TIP3   OH234650   6.666   7.107   3.203
11570TIP3    H134651   6.751   7.136   3.237
11570TIP3    H234652   6.602   7.162   3.247
11571TIP3   OH234653   2.137   1.025   4.358
11571TIP3    H134654   2.180   0.954   4.404
11571TIP3    H234655   2.165   1.015   4.267
11572TIP3   OH234656   0.893   1.197   3.848
11572TIP3    H134657   0.905   1.121   3.792
11572TIP3    H234658   0.839   1.257   3.797
11573TIP3   OH234659   1.719   1.386   6.283
11573TIP3    H134660   1.803   1.427   6.264
11573TIP3    H234661   1.695   1.419   6.369
11574TIP3   OH234662   8.197   3.680   0.210
11574TIP3    H134663   8.211   3.773   0.231
11574TIP3    H234664   8.191   3.637   0.295
11575TIP3   OH234665   5.486   3.843   6.829
11575TIP3    H134666   5.423   3.830   6.759
11575TIP3    H234667   5.568   3.809   6.794
11576TIP3   OH234668   4.914   6.459   5.646
11576TIP3    H134669   4.818   6.459   5.641
11576TIP3    H234670   4.940   6.547   5.617
11577TIP3   OH234671   7.816   4.364   4.701
11577TIP3    H134672   7.851   4.453   4.697
11577TIP3    H234673   7.875   4.317   4.760
11578TIP3   OH234674   1.524   3.262   5.210
11578TIP3    H134675   1.458   3.285   5.276
11578TIP3    H234676   1.606   3.295   5.246
11579TIP3   OH234677   1.371   1.081   3.637
11579TIP3    H134678   1.293   1.046   3.593
11579TIP3    H234679   1.386   1.022   3.710
11580TIP3   OH234680   5.586   6.312   3.108
11580TIP3    H134681   5.635   6.282   3.184
11580TIP3    H234682   5.633   6.275   3.033
11581TIP3   OH234683   1.040   6.558   0.311
11581TIP3    H134684   1.106   6.623   0.288
11581TIP3    H234685   1.087   6.491   0.359
11582TIP3   OH234686   6.643   1.368   5.469
11582TIP3    H134687   6.636   1.281   5.508
11582TIP3    H234688   6.709   1.413   5.522
11583TIP3   OH234689   4.612   0.514   1.701
11583TIP3    H134690   4.698   0.492   1.736
11583TIP3    H234691   4.559   0.436   1.718
11584TIP3   OH234692   2.385   0.752   0.148
11584TIP3    H134693   2.387   0.725   0.057
11584TIP3    H234694   2.296   0.785   0.161
11585TIP3   OH234695   1.688   2.033   5.874
11585TIP3    H134696   1.688   2.060   5.783
11585TIP3    H234697   1.600   2.051   5.906
11586TIP3   OH234698   2.268   1.913   1.884
11586TIP3    H134699   2.205   1.864   1.936
11586TIP3    H234700   2.272   1.867   1.800
11587TIP3   OH234701   2.750   0.628   6.696
11587TIP3    H134702   2.756   0.711   6.649
11587TIP3    H234703   2.765   0.652   6.787
11588TIP3   OH234704   7.420   1.628   2.878
11588TIP3    H134705   7.391   1.634   2.969
11588TIP3    H234706   7.373   1.554   2.842
11589TIP3   OH234707   4.200   4.466   1.241
11589TIP3    H134708   4.107   4.487   1.244
11589TIP3    H234709   4.235   4.518   1.168
11590TIP3   OH234710   1.984   2.948   3.648
11590TIP3    H134711   2.051   3.014   3.632
11590TIP3    H234712   2.027   2.864   3.629
11591TIP3   OH234713   5.689   3.390   4.833
11591TIP3    H134714   5.610   3.443   4.819
11591TIP3    H234715   5.712   3.405   4.925
11592TIP3   OH234716   0.278   0.030   0.759
11592TIP3    H134717   0.295   0.028   0.665
11592TIP3    H234718   0.313   0.114   0.788
11593TIP3   OH234719   0.162   3.586   6.452
11593TIP3    H134720   0.076   3.556   6.424
11593TIP3    H234721   0.213   3.506   6.462
11594TIP3   OH234722   4.792   3.456   0.958
11594TIP3    H134723   4.739   3.439   1.036
11594TIP3    H234724   4.789   3.374   0.909
11595TIP3   OH234725   0.560   3.952   2.219
11595TIP3    H134726   0.574   3.900   2.140
11595TIP3    H234727   0.474   3.924   2.251
11596TIP3   OH234728   5.261   6.469   6.680
11596TIP3    H134729   5.271   6.557   6.644
11596TIP3    H234730   5.176   6.469   6.723
11597TIP3   OH234731   0.443   6.660   0.285
11597TIP3    H134732   0.390   6.727   0.327
11597TIP3    H234733   0.419   6.579   0.330
11598TIP3   OH234734   0.337   4.100   5.984
11598TIP3    H134735   0.277   4.063   5.919
11598TIP3    H234736   0.399   4.029   6.002
11599TIP3   OH234737   4.277   3.367   4.032
11599TIP3    H134738   4.194   3.327   4.058
11599TIP3    H234739   4.321   3.300   3.981
11600TIP3   OH234740   3.604   5.873   0.206
11600TIP3    H134741   3.592   5.952   0.154
11600TIP3    H234742   3.516   5.847   0.232
11601TIP3   OH234743   1.708   1.221   1.863
11601TIP3    H134744   1.750   1.234   1.948
11601TIP3    H234745   1.680   1.309   1.836
11602TIP3   OH234746   7.745   2.412   3.857
11602TIP3    H134747   7.789   2.344   3.806
11602TIP3    H234748   7.685   2.364   3.914
11603TIP3   OH234749   1.555   4.538   2.821
11603TIP3    H134750   1.566   4.625   2.783
11603TIP3    H234751   1.519   4.485   2.749
11604TIP3   OH234752   0.642   7.111   6.360
11604TIP3    H134753   0.604   7.051   6.295
11604TIP3    H234754   0.661   7.056   6.436
11605TIP3   OH234755   5.500   4.438   0.379
11605TIP3    H134756   5.408   4.465   0.378
11605TIP3    H234757   5.547   4.519   0.399
11606TIP3   OH234758   2.082   4.586   1.674
11606TIP3    H134759   2.012   4.643   1.707
11606TIP3    H234760   2.063   4.500   1.714
11607TIP3   OH234761   6.655   3.199   2.895
11607TIP3    H134762   6.614   3.192   2.981
11607TIP3    H234763   6.669   3.293   2.883
11608TIP3   OH234764   2.333   1.778   2.197
11608TIP3    H134765   2.356   1.838   2.269
11608TIP3    H234766   2.240   1.762   2.208
11609TIP3   OH234767   7.603   5.801   4.250
11609TIP3    H134768   7.618   5.753   4.331
11609TIP3    H234769   7.517   5.842   4.262
11610TIP3   OH234770   1.330   5.589   2.041
11610TIP3    H134771   1.274   5.601   2.118
11610TIP3    H234772   1.416   5.569   2.078
11611TIP3   OH234773   6.270   3.716   5.086
11611TIP3    H134774   6.242   3.737   5.175
11611TIP3    H234775   6.214   3.770   5.030
11612TIP3   OH234776   7.289   2.187   3.541
11612TIP3    H134777   7.325   2.243   3.472
11612TIP3    H234778   7.367   2.148   3.582
11613TIP3   OH234779   5.286   2.914   1.940
11613TIP3    H134780   5.308   2.968   2.016
11613TIP3    H234781   5.305   2.970   1.864
11614TIP3   OH234782   5.415   0.779   3.600
11614TIP3    H134783   5.425   0.741   3.513
11614TIP3    H234784   5.455   0.865   3.594
11615TIP3   OH234785   4.269   0.490   2.701
11615TIP3    H134786   4.365   0.500   2.697
11615TIP3    H234787   4.251   0.414   2.647
11616TIP3   OH234788   5.708   0.332   5.094
11616TIP3    H134789   5.761   0.412   5.093
11616TIP3    H234790   5.689   0.315   5.002
11617TIP3   OH234791   4.470   0.019   4.745
11617TIP3    H134792   4.403  -0.044   4.771
11617TIP3    H234793   4.444   0.100   4.789
11618TIP3   OH234794   4.715   2.456   1.752
11618TIP3    H134795   4.657   2.529   1.774
11618TIP3    H234796   4.797   2.499   1.725
11619TIP3   OH234797   7.605   1.513   0.342
11619TIP3    H134798   7.575   1.474   0.260
11619TIP3    H234799   7.535   1.492   0.405
11620TIP3   OH234800   3.140   3.157   6.043
11620TIP3    H134801   3.234   3.152   6.026
11620TIP3    H234802   3.121   3.079   6.095
11621TIP3   OH234803   5.611   5.755   2.962
11621TIP3    H134804   5.577   5.667   2.943
11621TIP3    H234805   5.697   5.756   2.920
11622TIP3   OH234806   8.029   0.106   1.813
11622TIP3    H134807   7.986   0.185   1.780
11622TIP3    H234808   8.010   0.106   1.906
11623TIP3   OH234809   4.199   6.635   4.861
11623TIP3    H134810   4.134   6.705   4.856
11623TIP3    H234811   4.148   6.554   4.862
11624TIP3   OH234812   6.821   7.812   3.487
11624TIP3    H134813   6.856   7.741   3.541
11624TIP3    H234814   6.887   7.881   3.494
11625TIP3   OH234815   6.126   3.907   4.945
11625TIP3    H134816   6.156   3.963   4.873
11625TIP3    H234817   6.104   3.968   5.015
11626TIP3   OH234818   0.122   7.005   1.099
11626TIP3    H134819   0.040   7.038   1.061
11626TIP3    H234820   0.094   6.956   1.177
11627TIP3   OH234821   4.668   0.161   5.509
11627TIP3    H134822   4.719   0.103   5.453
11627TIP3    H234823   4.579   0.128   5.503
11628TIP3   OH234824   2.072   5.725   2.313
11628TIP3    H134825   2.128   5.654   2.344
11628TIP3    H234826   2.056   5.778   2.391
11629TIP3   OH234827   7.308   4.580   6.407
11629TIP3    H134828   7.306   4.676   6.405
11629TIP3    H234829   7.342   4.559   6.494
11630TIP3   OH234830   5.417   3.918   2.637
11630TIP3    H134831   5.461   3.957   2.561
11630TIP3    H234832   5.432   3.824   2.627
11631TIP3   OH234833   6.689   3.491   1.946
11631TIP3    H134834   6.774   3.450   1.929
11631TIP3    H234835   6.629   3.444   1.888
11632TIP3   OH234836   4.423   3.074   2.848
11632TIP3    H134837   4.329   3.092   2.850
11632TIP3    H234838   4.441   3.047   2.758
11633TIP3   OH234839   0.311   6.729   2.672
11633TIP3    H134840   0.254   6.804   2.684
11633TIP3    H234841   0.264   6.671   2.611
11634TIP3   OH234842   5.234   2.453   3.726
11634TIP3    H134843   5.240   2.541   3.689
11634TIP3    H234844   5.176   2.463   3.802
11635TIP3   OH234845   0.233   5.563   5.887
11635TIP3    H134846   0.288   5.533   5.815
11635TIP3    H234847   0.199   5.647   5.857
11636TIP3   OH234848   4.444   3.417   6.835
11636TIP3    H134849   4.481   3.489   6.784
11636TIP3    H234850   4.388   3.370   6.773
11637TIP3   OH234851   0.664   1.014   0.397
11637TIP3    H134852   0.594   1.034   0.460
11637TIP3    H234853   0.673   0.919   0.402
11638TIP3   OH234854   1.159   5.138   1.035
11638TIP3    H134855   1.107   5.060   1.017
11638TIP3    H234856   1.094   5.207   1.049
11639TIP3   OH234857   1.982   0.869   5.130
11639TIP3    H134858   1.939   0.825   5.057
11639TIP3    H234859   2.074   0.843   5.123
11640TIP3   OH234860   8.232   3.932   1.314
11640TIP3    H134861   8.165   4.000   1.322
11640TIP3    H234862   8.307   3.967   1.363
11641TIP3   OH234863   2.251   0.328   6.744
11641TIP3    H134864   2.211   0.370   6.669
11641TIP3    H234865   2.209   0.369   6.820
11642TIP3   OH234866   3.144   3.743   3.473
11642TIP3    H134867   3.054   3.714   3.486
11642TIP3    H234868   3.170   3.778   3.559
11643TIP3   OH234869   4.870   6.495   0.638
11643TIP3    H134870   4.925   6.532   0.707
11643TIP3    H234871   4.931   6.458   0.575
11644TIP3   OH234872   7.850   4.005   2.930
11644TIP3    H134873   7.921   3.944   2.946
11644TIP3    H234874   7.868   4.041   2.843
11645TIP3   OH234875   7.085   5.735   0.089
11645TIP3    H134876   7.111   5.805   0.149
11645TIP3    H234877   7.006   5.768   0.047
11646TIP3   OH234878   5.604   6.401   5.381
11646TIP3    H134879   5.678   6.412   5.440
11646TIP3    H234880   5.526   6.408   5.437
11647TIP3   OH234881   1.496   7.119   2.407
11647TIP3    H134882   1.414   7.132   2.359
11647TIP3    H234883   1.545   7.056   2.355
11648TIP3   OH234884   2.284   5.621   5.966
11648TIP3    H134885   2.315   5.553   5.906
11648TIP3    H234886   2.363   5.670   5.989
11649TIP3   OH234887   3.307   4.487   2.894
11649TIP3    H134888   3.227   4.501   2.945
11649TIP3    H234889   3.345   4.408   2.931
11650TIP3   OH234890   4.001   7.927   3.401
11650TIP3    H134891   4.079   7.962   3.357
11650TIP3    H234892   4.023   7.836   3.420
11651TIP3   OH234893   6.127   0.593   1.689
11651TIP3    H134894   6.215   0.562   1.667
11651TIP3    H234895   6.070   0.551   1.625
11652TIP3   OH234896   2.345   4.458   1.888
11652TIP3    H134897   2.281   4.529   1.884
11652TIP3    H234898   2.417   4.488   1.833
11653TIP3   OH234899   4.442   7.106   2.214
11653TIP3    H134900   4.415   7.039   2.151
11653TIP3    H234901   4.533   7.126   2.191
11654TIP3   OH234902   3.078   5.415   6.062
11654TIP3    H134903   3.047   5.337   6.015
11654TIP3    H234904   3.141   5.381   6.126
11655TIP3   OH234905   6.044   5.439   1.330
11655TIP3    H134906   6.075   5.519   1.373
11655TIP3    H234907   6.045   5.373   1.399
11656TIP3   OH234908   7.207   5.557   4.007
11656TIP3    H134909   7.138   5.578   4.069
11656TIP3    H234910   7.179   5.596   3.924
11657TIP3   OH234911   6.578   6.804   6.399
11657TIP3    H134912   6.657   6.818   6.452
11657TIP3    H234913   6.545   6.891   6.381
11658TIP3   OH234914   2.600   6.075   1.438
11658TIP3    H134915   2.582   6.028   1.357
11658TIP3    H234916   2.514   6.105   1.469
11659TIP3   OH234917   4.061   5.830   5.227
11659TIP3    H134918   4.143   5.863   5.191
11659TIP3    H234919   4.006   5.812   5.151
11660TIP3   OH234920   4.278   2.319   0.704
11660TIP3    H134921   4.192   2.339   0.742
11660TIP3    H234922   4.259   2.291   0.614
11661TIP3   OH234923   7.776   7.161   5.222
11661TIP3    H134924   7.742   7.081   5.182
11661TIP3    H234925   7.729   7.169   5.305
11662TIP3   OH234926   2.168   3.232   0.741
11662TIP3    H134927   2.260   3.252   0.723
11662TIP3    H234928   2.121   3.264   0.663
11663TIP3   OH234929   6.039   6.419   6.348
11663TIP3    H134930   6.015   6.509   6.369
11663TIP3    H234931   6.127   6.426   6.310
11664TIP3   OH234932   2.952   2.288   5.189
11664TIP3    H134933   3.042   2.296   5.157
11664TIP3    H234934   2.951   2.337   5.271
11665TIP3   OH234935   1.095   6.740   1.872
11665TIP3    H134936   1.087   6.686   1.794
11665TIP3    H234937   1.010   6.784   1.879
11666TIP3   OH234938   7.135   3.577   4.360
11666TIP3    H134939   7.164   3.597   4.272
11666TIP3    H234940   7.103   3.487   4.356
11667TIP3   OH234941   6.323   6.083   6.663
11667TIP3    H134942   6.335   6.059   6.571
11667TIP3    H234943   6.344   6.176   6.666
11668TIP3   OH234944   0.077   1.453   5.461
11668TIP3    H134945   0.110   1.447   5.550
11668TIP3    H234946   0.113   1.375   5.417
11669TIP3   OH234947   4.203   1.059   6.811
11669TIP3    H134948   4.252   0.981   6.786
11669TIP3    H234949   4.245   1.089   6.891
11670TIP3   OH234950   1.881   3.245   2.003
11670TIP3    H134951   1.794   3.267   1.969
11670TIP3    H234952   1.924   3.329   2.014
11671TIP3   OH234953   4.691   6.975   0.598
11671TIP3    H134954   4.775   6.930   0.589
11671TIP3    H234955   4.709   7.065   0.571
11672TIP3   OH234956   1.224   5.386   2.304
11672TIP3    H134957   1.244   5.305   2.351
11672TIP3    H234958   1.188   5.356   2.220
11673TIP3   OH234959   7.319   5.818   5.687
11673TIP3    H134960   7.296   5.879   5.616
11673TIP3    H234961   7.413   5.802   5.674
11674TIP3   OH234962   7.410   5.611   0.749
11674TIP3    H134963   7.437   5.579   0.663
11674TIP3    H234964   7.319   5.638   0.737
11675TIP3   OH234965   3.124   5.750   2.734
11675TIP3    H134966   3.067   5.774   2.807
11675TIP3    H234967   3.183   5.825   2.724
11676TIP3   OH234968   7.874   0.774   1.279
11676TIP3    H134969   7.840   0.685   1.283
11676TIP3    H234970   7.860   0.809   1.367
11677TIP3   OH234971   4.359   7.562   1.091
11677TIP3    H134972   4.374   7.650   1.056
11677TIP3    H234973   4.275   7.569   1.136
11678TIP3   OH234974   0.786   0.747   5.798
11678TIP3    H134975   0.703   0.770   5.756
11678TIP3    H234976   0.850   0.806   5.759
11679TIP3   OH234977   3.225   0.430   0.934
11679TIP3    H134978   3.133   0.438   0.908
11679TIP3    H234979   3.258   0.354   0.885
11680TIP3   OH234980   3.999   6.952   2.322
11680TIP3    H134981   3.967   6.914   2.240
11680TIP3    H234982   4.023   6.876   2.375
11681TIP3   OH234983   7.010   6.764   1.867
11681TIP3    H134984   7.083   6.805   1.913
11681TIP3    H234985   7.020   6.671   1.884
11682TIP3   OH234986   7.858   4.605   6.223
11682TIP3    H134987   7.799   4.677   6.247
11682TIP3    H234988   7.802   4.542   6.178
11683TIP3   OH234989   0.075   1.802   5.891
11683TIP3    H134990   0.138   1.792   5.820
11683TIP3    H234991   0.036   1.889   5.877
11684TIP3   OH234992   3.700   1.016   4.274
11684TIP3    H134993   3.673   0.933   4.313
11684TIP3    H234994   3.779   1.041   4.321
11685TIP3   OH234995   4.685   6.538   0.142
11685TIP3    H134996   4.754   6.532   0.208
11685TIP3    H234997   4.731   6.550   0.059
11686TIP3   OH234998   7.932   1.039   0.254
11686TIP3    H134999   7.971   1.126   0.256
11686TIP3    H235000   7.881   1.036   0.173
11687TIP3   OH235001   8.252   5.650   3.209
11687TIP3    H135002   8.324   5.625   3.150
11687TIP3    H235003   8.240   5.744   3.192
11688TIP3   OH235004   8.029   1.602   4.312
11688TIP3    H135005   8.025   1.597   4.217
11688TIP3    H235006   8.114   1.640   4.331
11689TIP3   OH235007   7.639   5.450   0.044
11689TIP3    H135008   7.644   5.506  -0.034
11689TIP3    H235009   7.638   5.361   0.009
11690TIP3   OH235010   2.900   4.791   0.220
11690TIP3    H135011   2.872   4.708   0.183
11690TIP3    H235012   2.919   4.772   0.312
11691TIP3   OH235013   1.205   2.600   3.123
11691TIP3    H135014   1.156   2.660   3.067
11691TIP3    H235015   1.192   2.514   3.083
11692TIP3   OH235016   8.383   0.806   4.556
11692TIP3    H135017   8.292   0.806   4.584
11692TIP3    H235018   8.433   0.784   4.635
11693TIP3   OH235019   6.907   3.466   4.596
11693TIP3    H135020   6.980   3.408   4.617
11693TIP3    H235021   6.839   3.409   4.561
11694TIP3   OH235022   2.540   2.977   1.572
11694TIP3    H135023   2.500   2.916   1.635
11694TIP3    H235024   2.556   2.924   1.494
11695TIP3   OH235025   4.690   6.954   5.433
11695TIP3    H135026   4.722   6.903   5.507
11695TIP3    H235027   4.598   6.970   5.452
11696TIP3   OH235028   1.986   0.314   2.249
11696TIP3    H135029   2.036   0.380   2.297
11696TIP3    H235030   1.927   0.276   2.313
11697TIP3   OH235031   4.571   1.052   2.719
11697TIP3    H135032   4.659   1.026   2.690
11697TIP3    H235033   4.556   1.000   2.797
11698TIP3   OH235034   0.094   5.944   3.530
11698TIP3    H135035   0.105   5.970   3.621
11698TIP3    H235036   0.007   5.977   3.506
11699TIP3   OH235037   5.595   0.106   2.892
11699TIP3    H135038   5.585   0.042   2.821
11699TIP3    H235039   5.593   0.054   2.972
11700TIP3   OH235040   4.341   4.886   0.042
11700TIP3    H135041   4.308   4.802   0.011
11700TIP3    H235042   4.360   4.936  -0.038
11701TIP3   OH235043   0.606   5.604   5.344
11701TIP3    H135044   0.685   5.655   5.327
11701TIP3    H235045   0.553   5.660   5.401
11702TIP3   OH235046   0.396   4.318   0.778
11702TIP3    H135047   0.413   4.329   0.872
11702TIP3    H235048   0.454   4.381   0.736
11703TIP3   OH235049   6.751   2.044   1.382
11703TIP3    H135050   6.781   2.134   1.394
11703TIP3    H235051   6.831   1.992   1.387
11704TIP3   OH235052   2.702   2.157   5.737
11704TIP3    H135053   2.669   2.105   5.664
11704TIP3    H235054   2.766   2.100   5.780
11705TIP3   OH235055   7.313   5.357   6.155
11705TIP3    H135056   7.326   5.439   6.107
11705TIP3    H235057   7.365   5.366   6.234
11706TIP3   OH235058   4.415   0.350   1.300
11706TIP3    H135059   4.479   0.406   1.256
11706TIP3    H235060   4.381   0.405   1.371
11707TIP3   OH235061   7.297   6.389   1.095
11707TIP3    H135062   7.346   6.471   1.106
11707TIP3    H235063   7.333   6.331   1.163
11708TIP3   OH235064   0.970   4.484   0.813
11708TIP3    H135065   0.982   4.393   0.840
11708TIP3    H235066   0.923   4.525   0.885
11709TIP3   OH235067   3.435   1.920   6.735
11709TIP3    H135068   3.376   1.986   6.773
11709TIP3    H235069   3.449   1.857   6.806
11710TIP3   OH235070   3.915   5.211   2.765
11710TIP3    H135071   3.969   5.201   2.687
11710TIP3    H235072   3.956   5.152   2.829
11711TIP3   OH235073   6.043   2.456   6.793
11711TIP3    H135074   6.078   2.367   6.799
11711TIP3    H235075   6.105   2.510   6.842
11712TIP3   OH235076   2.426   7.826   5.435
11712TIP3    H135077   2.464   7.841   5.349
11712TIP3    H235078   2.483   7.875   5.495
11713TIP3   OH235079   4.861   3.154   3.436
11713TIP3    H135080   4.782   3.133   3.485
11713TIP3    H235081   4.849   3.111   3.351
11714TIP3   OH235082   1.371   0.388   5.898
11714TIP3    H135083   1.386   0.480   5.919
11714TIP3    H235084   1.290   0.388   5.847
11715TIP3   OH235085   7.327   3.940   0.912
11715TIP3    H135086   7.358   3.981   0.831
11715TIP3    H235087   7.238   3.912   0.892
11716TIP3   OH235088   4.735   5.298   0.479
11716TIP3    H135089   4.646   5.326   0.458
11716TIP3    H235090   4.734   5.203   0.462
11717TIP3   OH235091   0.280   2.162   1.754
11717TIP3    H135092   0.220   2.104   1.801
11717TIP3    H235093   0.234   2.182   1.672
11718TIP3   OH235094   2.144   2.876   4.451
11718TIP3    H135095   2.214   2.869   4.516
11718TIP3    H235096   2.145   2.969   4.426
11719TIP3   OH235097   5.723   1.159   1.417
11719TIP3    H135098   5.656   1.170   1.350
11719TIP3    H235099   5.802   1.197   1.378
11720TIP3   OH235100   8.062   2.471   5.234
11720TIP3    H135101   8.041   2.390   5.281
11720TIP3    H235102   8.014   2.539   5.281
11721TIP3   OH235103   1.386   1.822   3.081
11721TIP3    H135104   1.321   1.765   3.122
11721TIP3    H235105   1.366   1.818   2.988
11722TIP3   OH235106   5.973   5.845   6.666
11722TIP3    H135107   5.953   5.825   6.758
11722TIP3    H235108   5.980   5.940   6.663
11723TIP3   OH235109   2.535   5.599   5.189
11723TIP3    H135110   2.440   5.599   5.180
11723TIP3    H235111   2.553   5.528   5.250
11724TIP3   OH235112   1.775   4.345   5.945
11724TIP3    H135113   1.794   4.438   5.929
11724TIP3    H235114   1.695   4.328   5.895
11725TIP3   OH235115   5.100   1.756   5.775
11725TIP3    H135116   5.145   1.672   5.780
11725TIP3    H235117   5.037   1.745   5.703
11726TIP3   OH235118   6.832   3.190   4.760
11726TIP3    H135119   6.891   3.121   4.789
11726TIP3    H235120   6.809   3.166   4.670
11727TIP3   OH235121   1.376   7.142   4.573
11727TIP3    H135122   1.424   7.225   4.573
11727TIP3    H235123   1.442   7.076   4.594
11728TIP3   OH235124   4.311   5.314   5.541
11728TIP3    H135125   4.296   5.228   5.581
11728TIP3    H235126   4.252   5.373   5.587
11729TIP3   OH235127   7.254   2.300   1.529
11729TIP3    H135128   7.337   2.341   1.506
11729TIP3    H235129   7.260   2.284   1.624
11730TIP3   OH235130   8.032   4.394   1.468
11730TIP3    H135131   8.055   4.427   1.555
11730TIP3    H235132   7.942   4.421   1.454
11731TIP3   OH235133   8.201   1.514   1.390
11731TIP3    H135134   8.193   1.569   1.312
11731TIP3    H235135   8.127   1.539   1.445
11732TIP3   OH235136   7.000   0.203   4.434
11732TIP3    H135137   7.083   0.158   4.449
11732TIP3    H235138   6.969   0.167   4.351
11733TIP3   OH235139   3.707   3.882   6.463
11733TIP3    H135140   3.649   3.806   6.469
11733TIP3    H235141   3.735   3.884   6.371
11734TIP3   OH235142   4.787   4.447   3.959
11734TIP3    H135143   4.717   4.386   3.938
11734TIP3    H235144   4.868   4.402   3.935
11735TIP3   OH235145   2.543   0.998   6.697
11735TIP3    H135146   2.448   1.006   6.695
11735TIP3    H235147   2.575   1.087   6.679
11736TIP3   OH235148   6.330   5.290   4.432
11736TIP3    H135149   6.299   5.273   4.521
11736TIP3    H235150   6.290   5.374   4.409
11737TIP3   OH235151   1.748   7.830   2.867
11737TIP3    H135152   1.774   7.802   2.955
11737TIP3    H235153   1.824   7.879   2.834
11738TIP3   OH235154   5.671   5.419   3.831
11738TIP3    H135155   5.701   5.407   3.741
11738TIP3    H235156   5.576   5.409   3.826
11739TIP3   OH235157   6.770   0.308   0.067
11739TIP3    H135158   6.793   0.367  -0.005
11739TIP3    H235159   6.812   0.225   0.045
11740TIP3   OH235160   3.014   7.813   5.982
11740TIP3    H135161   3.060   7.803   6.066
11740TIP3    H235162   2.969   7.730   5.970
11741TIP3   OH235163   3.628   4.279   1.103
11741TIP3    H135164   3.710   4.278   1.153
11741TIP3    H235165   3.585   4.196   1.125
11742TIP3   OH235166   7.215   2.801   4.747
11742TIP3    H135167   7.275   2.753   4.689
11742TIP3    H235168   7.218   2.752   4.830
11743TIP3   OH235169   6.985   5.951   3.390
11743TIP3    H135170   6.983   6.005   3.469
11743TIP3    H235171   6.959   6.010   3.320
11744TIP3   OH235172   1.313   6.278   3.624
11744TIP3    H135173   1.275   6.259   3.711
11744TIP3    H235174   1.328   6.372   3.625
11745TIP3   OH235175   7.297   6.663   0.535
11745TIP3    H135176   7.326   6.730   0.597
11745TIP3    H235177   7.347   6.680   0.455
11746TIP3   OH235178   5.146   0.355   3.114
11746TIP3    H135179   5.167   0.448   3.106
11746TIP3    H235180   5.094   0.335   3.037
11747TIP3   OH235181   6.365   0.977   1.340
11747TIP3    H135182   6.292   1.002   1.283
11747TIP3    H235183   6.333   0.901   1.389
11748TIP3   OH235184   2.786   1.825   0.611
11748TIP3    H135185   2.744   1.875   0.542
11748TIP3    H235186   2.836   1.889   0.661
11749TIP3   OH235187   4.894   3.375   6.366
11749TIP3    H135188   4.809   3.374   6.410
11749TIP3    H235189   4.873   3.391   6.274
11750TIP3   OH235190   0.206   6.601   2.034
11750TIP3    H135191   0.224   6.536   2.103
11750TIP3    H235192   0.240   6.683   2.069
11751TIP3   OH235193   4.583   1.260   5.966
11751TIP3    H135194   4.553   1.243   5.876
11751TIP3    H235195   4.601   1.174   6.003
11752TIP3   OH235196   0.958   7.738   3.789
11752TIP3    H135197   0.910   7.655   3.799
11752TIP3    H235198   1.046   7.718   3.820
11753TIP3   OH235199   2.367   7.102   6.100
11753TIP3    H135200   2.413   7.132   6.021
11753TIP3    H235201   2.430   7.045   6.145
11754TIP3   OH235202   1.742   6.437   3.647
11754TIP3    H135203   1.702   6.350   3.654
11754TIP3    H235204   1.740   6.471   3.736
11755TIP3   OH235205   1.193   0.832   5.197
11755TIP3    H135206   1.161   0.750   5.235
11755TIP3    H235207   1.280   0.811   5.163
11756TIP3   OH235208   2.244   7.088   1.246
11756TIP3    H135209   2.295   7.154   1.200
11756TIP3    H235210   2.181   7.057   1.181
11757TIP3   OH235211   8.042   0.096   6.053
11757TIP3    H135212   7.953   0.110   6.087
11757TIP3    H235213   8.093   0.166   6.093
11758TIP3   OH235214   1.395   5.889   1.342
11758TIP3    H135215   1.404   5.865   1.434
11758TIP3    H235216   1.465   5.842   1.298
11759TIP3   OH235217   2.540   5.504   2.715
11759TIP3    H135218   2.465   5.554   2.685
11759TIP3    H235219   2.539   5.514   2.810
11760TIP3   OH235220   5.284   0.377   3.676
11760TIP3    H135221   5.299   0.458   3.724
11760TIP3    H235222   5.332   0.387   3.594
11761TIP3   OH235223   4.619   4.614   1.450
11761TIP3    H135224   4.706   4.653   1.451
11761TIP3    H235225   4.577   4.645   1.531
11762TIP3   OH235226   1.000   4.583   2.475
11762TIP3    H135227   0.972   4.512   2.417
11762TIP3    H235228   0.950   4.659   2.446
11763TIP3   OH235229   5.726   2.574   5.496
11763TIP3    H135230   5.742   2.564   5.590
11763TIP3    H235231   5.806   2.541   5.454
11764TIP3   OH235232   8.279   3.613   3.782
11764TIP3    H135233   8.316   3.701   3.783
11764TIP3    H235234   8.184   3.626   3.777
11765TIP3   OH235235   0.139   5.745   3.892
11765TIP3    H135236   0.097   5.689   3.957
11765TIP3    H235237   0.087   5.734   3.813
11766TIP3   OH235238   0.686   4.021   2.818
11766TIP3    H135239   0.643   4.071   2.749
11766TIP3    H235240   0.614   3.994   2.876
11767TIP3   OH235241   3.586   5.682   5.884
11767TIP3    H135242   3.580   5.644   5.797
11767TIP3    H235243   3.675   5.662   5.914
11768TIP3   OH235244   8.015   1.833   6.757
11768TIP3    H135245   8.010   1.748   6.712
11768TIP3    H235246   8.030   1.896   6.687
11769TIP3   OH235247   6.329   3.404   2.433
11769TIP3    H135248   6.255   3.439   2.384
11769TIP3    H235249   6.303   3.414   2.525
11770TIP3   OH235250   3.601   5.625   3.029
11770TIP3    H135251   3.672   5.684   3.053
11770TIP3    H235252   3.614   5.548   3.083
11771TIP3   OH235253   3.323   5.788   1.695
11771TIP3    H135254   3.361   5.788   1.607
11771TIP3    H235255   3.232   5.760   1.682
11772TIP3   OH235256   4.874   3.590   5.529
11772TIP3    H135257   4.868   3.496   5.542
11772TIP3    H235258   4.957   3.603   5.482
11773TIP3   OH235259   3.383   1.063   4.843
11773TIP3    H135260   3.326   1.109   4.782
11773TIP3    H235261   3.324   1.022   4.906
11774TIP3   OH235262   1.368   5.616   3.940
11774TIP3    H135263   1.434   5.573   3.885
11774TIP3    H235264   1.307   5.656   3.878
11775TIP3   OH235265   0.826   4.802   0.909
11775TIP3    H135266   0.738   4.803   0.946
11775TIP3    H235267   0.811   4.796   0.814
11776TIP3   OH235268   3.272   1.416   0.306
11776TIP3    H135269   3.263   1.489   0.245
11776TIP3    H235270   3.244   1.339   0.257
11777TIP3   OH235271   6.999   7.818   3.047
11777TIP3    H135272   6.928   7.866   3.089
11777TIP3    H235273   7.078   7.848   3.092
11778TIP3   OH235274   5.117   3.116   6.628
11778TIP3    H135275   5.206   3.105   6.660
11778TIP3    H235276   5.126   3.118   6.533
11779TIP3   OH235277   6.656   4.262   1.128
11779TIP3    H135278   6.619   4.175   1.137
11779TIP3    H235279   6.658   4.297   1.217
11780TIP3   OH235280   3.857   0.301   2.196
11780TIP3    H135281   3.794   0.247   2.149
11780TIP3    H235282   3.809   0.335   2.271
11781TIP3   OH235283   6.747   0.702   4.047
11781TIP3    H135284   6.736   0.644   4.123
11781TIP3    H235285   6.806   0.654   3.989
11782TIP3   OH235286   6.200   6.674   2.379
11782TIP3    H135287   6.202   6.620   2.457
11782TIP3    H235288   6.122   6.646   2.331
11783TIP3   OH235289   4.117   5.541   3.469
11783TIP3    H135290   4.101   5.462   3.520
11783TIP3    H235291   4.192   5.582   3.512
11784TIP3   OH235292   4.892   1.261   0.201
11784TIP3    H135293   4.814   1.247   0.255
11784TIP3    H235294   4.867   1.329   0.139
11785TIP3   OH235295   5.924   1.275   4.158
11785TIP3    H135296   5.965   1.317   4.083
11785TIP3    H235297   5.858   1.338   4.188
11786TIP3   OH235298   8.298   2.633   0.451
11786TIP3    H135299   8.322   2.541   0.463
11786TIP3    H235300   8.206   2.629   0.424
11787TIP3   OH235301   0.358   5.183   5.980
11787TIP3    H135302   0.418   5.114   6.010
11787TIP3    H235303   0.411   5.262   5.980
11788TIP3   OH235304   2.721   7.272   5.225
11788TIP3    H135305   2.729   7.189   5.271
11788TIP3    H235306   2.668   7.251   5.148
11789TIP3   OH235307   2.501   6.284   0.262
11789TIP3    H135308   2.568   6.342   0.225
11789TIP3    H235309   2.434   6.344   0.295
11790TIP3   OH235310   6.258   3.877   1.834
11790TIP3    H135311   6.351   3.898   1.823
11790TIP3    H235312   6.244   3.801   1.778
11791TIP3   OH235313   3.487   4.826   5.418
11791TIP3    H135314   3.402   4.838   5.376
11791TIP3    H235315   3.469   4.840   5.511
11792TIP3   OH235316   1.549   6.131   5.370
11792TIP3    H135317   1.622   6.089   5.324
11792TIP3    H235318   1.582   6.145   5.459
11793TIP3   OH235319   8.286   4.356   5.286
11793TIP3    H135320   8.276   4.349   5.381
11793TIP3    H235321   8.291   4.450   5.270
11794TIP3   OH235322   2.848   1.563   0.562
11794TIP3    H135323   2.834   1.650   0.601
11794TIP3    H235324   2.775   1.552   0.502
11795TIP3   OH235325   4.846   0.368   5.356
11795TIP3    H135326   4.807   0.324   5.431
11795TIP3    H235327   4.928   0.404   5.388
11796TIP3   OH235328   8.088   3.761   5.636
11796TIP3    H135329   8.005   3.807   5.622
11796TIP3    H235330   8.072   3.672   5.603
11797TIP3   OH235331   3.975   0.617   4.041
11797TIP3    H135332   3.928   0.534   4.032
11797TIP3    H235333   3.907   0.681   4.061
11798TIP3   OH235334   4.701   4.504   3.026
11798TIP3    H135335   4.774   4.445   3.011
11798TIP3    H235336   4.661   4.516   2.940
11799TIP3   OH235337   7.530   2.829   3.493
11799TIP3    H135338   7.511   2.916   3.458
11799TIP3    H235339   7.535   2.843   3.588
11800TIP3   OH235340   1.362   5.225   2.908
11800TIP3    H135341   1.453   5.225   2.878
11800TIP3    H235342   1.312   5.185   2.837
11801TIP3   OH235343   0.334   3.183   5.183
11801TIP3    H135344   0.248   3.148   5.158
11801TIP3    H235345   0.315   3.244   5.255
11802TIP3   OH235346   2.084   7.564   0.768
11802TIP3    H135347   2.139   7.533   0.840
11802TIP3    H235348   2.113   7.513   0.692
11803TIP3   OH235349   7.860   0.401   5.869
11803TIP3    H135350   7.799   0.475   5.861
11803TIP3    H235351   7.806   0.331   5.905
11804TIP3   OH235352   4.909   7.765   2.045
11804TIP3    H135353   5.001   7.740   2.055
11804TIP3    H235354   4.888   7.742   1.954
11805TIP3   OH235355   4.978   5.760   5.160
11805TIP3    H135356   5.020   5.814   5.227
11805TIP3    H235357   4.948   5.822   5.094
11806TIP3   OH235358   4.894   1.488   2.168
11806TIP3    H135359   4.979   1.486   2.213
11806TIP3    H235360   4.884   1.400   2.132
11807TIP3   OH235361   5.069   1.836   2.119
11807TIP3    H135362   5.121   1.876   2.189
11807TIP3    H235363   5.133   1.810   2.053
11808TIP3   OH235364   0.257   6.978   5.365
11808TIP3    H135365   0.261   6.992   5.271
11808TIP3    H235366   0.208   6.896   5.376
11809TIP3   OH235367   6.086   7.233   4.958
11809TIP3    H135368   6.034   7.161   4.921
11809TIP3    H235369   6.040   7.258   5.038
11810TIP3   OH235370   6.385   6.244   0.894
11810TIP3    H135371   6.420   6.234   0.806
11810TIP3    H235372   6.355   6.157   0.919
11811TIP3   OH235373   1.745   5.061   3.835
11811TIP3    H135374   1.711   5.119   3.767
11811TIP3    H235375   1.699   4.978   3.821
11812TIP3   OH235376   2.630   1.033   1.820
11812TIP3    H135377   2.632   0.964   1.754
11812TIP3    H235378   2.722   1.057   1.831
11813TIP3   OH235379   4.256   3.530   4.261
11813TIP3    H135380   4.291   3.465   4.322
11813TIP3    H235381   4.252   3.484   4.177
11814TIP3   OH235382   6.809   6.898   2.014
11814TIP3    H135383   6.837   6.830   1.953
11814TIP3    H235384   6.858   6.880   2.094
11815TIP3   OH235385   1.657   4.065   5.622
11815TIP3    H135386   1.644   4.143   5.567
11815TIP3    H235387   1.598   4.078   5.696
11816TIP3   OH235388   0.175   4.159   5.431
11816TIP3    H135389   0.181   4.254   5.445
11816TIP3    H235390   0.103   4.132   5.488
11817TIP3   OH235391   2.739   2.284   2.084
11817TIP3    H135392   2.709   2.209   2.033
11817TIP3    H235393   2.751   2.354   2.020
11818TIP3   OH235394   7.226   7.571   6.210
11818TIP3    H135395   7.174   7.533   6.139
11818TIP3    H235396   7.316   7.568   6.178
11819TIP3   OH235397   2.538   7.016   2.907
11819TIP3    H135398   2.620   6.974   2.934
11819TIP3    H235399   2.475   6.944   2.899
11820TIP3   OH235400   1.730   7.090   4.707
11820TIP3    H135401   1.714   7.120   4.796
11820TIP3    H235402   1.658   7.031   4.688
11821TIP3   OH235403   5.464   5.659   3.396
11821TIP3    H135404   5.534   5.690   3.338
11821TIP3    H235405   5.438   5.737   3.445
11822TIP3   OH235406   8.064   1.449   6.143
11822TIP3    H135407   8.079   1.524   6.200
11822TIP3    H235408   8.149   1.433   6.102
11823TIP3   OH235409   1.388   7.659   1.417
11823TIP3    H135410   1.335   7.601   1.362
11823TIP3    H235411   1.420   7.726   1.357
11824TIP3   OH235412   8.380   6.711   3.413
11824TIP3    H135413   8.392   6.623   3.449
11824TIP3    H235414   8.286   6.720   3.402
11825TIP3   OH235415   3.142   7.866   4.858
11825TIP3    H135416   3.125   7.956   4.832
11825TIP3    H235417   3.154   7.870   4.953
11826TIP3   OH235418   4.858   0.715   5.526
11826TIP3    H135419   4.901   0.767   5.458
11826TIP3    H235420   4.789   0.771   5.559
11827TIP3   OH235421   5.722   2.578   4.473
11827TIP3    H135422   5.747   2.606   4.385
11827TIP3    H235423   5.785   2.621   4.531
11828TIP3   OH235424   2.153   1.151   3.246
11828TIP3    H135425   2.134   1.068   3.202
11828TIP3    H235426   2.197   1.204   3.180
11829TIP3   OH235427   2.714   0.388   1.484
11829TIP3    H135428   2.647   0.320   1.496
11829TIP3    H235429   2.756   0.396   1.570
11830TIP3   OH235430   6.359   6.078   5.371
11830TIP3    H135431   6.287   6.124   5.415
11830TIP3    H235432   6.425   6.145   5.355
11831TIP3   OH235433   4.643   2.354   5.877
11831TIP3    H135434   4.552   2.348   5.847
11831TIP3    H235435   4.654   2.446   5.901
11832TIP3   OH235436   1.749   2.506   6.594
11832TIP3    H135437   1.695   2.558   6.535
11832TIP3    H235438   1.687   2.452   6.643
11833TIP3   OH235439   1.392   7.045   6.484
11833TIP3    H135440   1.468   7.011   6.530
11833TIP3    H235441   1.422   7.125   6.442
11834TIP3   OH235442   3.332   7.166   5.563
11834TIP3    H135443   3.271   7.184   5.635
11834TIP3    H235444   3.409   7.219   5.583
11835TIP3   OH235445   4.305   1.654   2.074
11835TIP3    H135446   4.342   1.686   2.157
11835TIP3    H235447   4.339   1.565   2.065
11836TIP3   OH235448   5.152   3.977   3.098
11836TIP3    H135449   5.068   3.971   3.143
11836TIP3    H235450   5.153   3.901   3.039
11837TIP3   OH235451   5.013   5.889   2.601
11837TIP3    H135452   5.091   5.944   2.588
11837TIP3    H235453   4.942   5.951   2.617
11838TIP3   OH235454   6.724   4.955   5.477
11838TIP3    H135455   6.739   4.974   5.384
11838TIP3    H235456   6.742   4.862   5.485
11839TIP3   OH235457   2.433   6.750   4.938
11839TIP3    H135458   2.474   6.678   4.986
11839TIP3    H235459   2.482   6.755   4.856
11840TIP3   OH235460   2.574   3.259   1.596
11840TIP3    H135461   2.537   3.179   1.560
11840TIP3    H235462   2.531   3.330   1.548
11841TIP3   OH235463   4.669   5.929   3.559
11841TIP3    H135464   4.603   5.996   3.541
11841TIP3    H235465   4.731   5.937   3.487
11842TIP3   OH235466   6.007   4.368   1.471
11842TIP3    H135467   5.913   4.362   1.455
11842TIP3    H235468   6.034   4.278   1.489
11843TIP3   OH235469   4.081   1.247   3.745
11843TIP3    H135470   3.985   1.247   3.752
11843TIP3    H235471   4.111   1.280   3.830
11844TIP3   OH235472   3.782   5.117   6.860
11844TIP3    H135473   3.751   5.194   6.813
11844TIP3    H235474   3.792   5.050   6.792
11845TIP3   OH235475   1.061   0.868   4.792
11845TIP3    H135476   1.080   0.901   4.704
11845TIP3    H235477   0.971   0.836   4.786
11846TIP3   OH235478   2.810   3.320   5.994
11846TIP3    H135479   2.884   3.363   5.951
11846TIP3    H235480   2.816   3.229   5.967
11847TIP3   OH235481   0.031   6.002   0.825
11847TIP3    H135482   0.073   6.042   0.750
11847TIP3    H235483  -0.045   6.058   0.843
11848TIP3   OH235484   0.225   1.904   0.528
11848TIP3    H135485   0.289   1.911   0.598
11848TIP3    H235486   0.153   1.853   0.565
11849TIP3   OH235487   3.365   4.513   1.562
11849TIP3    H135488   3.427   4.575   1.525
11849TIP3    H235489   3.400   4.493   1.649
11850TIP3   OH235490   1.168   2.383   5.118
11850TIP3    H135491   1.251   2.347   5.088
11850TIP3    H235492   1.105   2.355   5.051
11851TIP3   OH235493   2.019   4.481   6.653
11851TIP3    H135494   2.019   4.469   6.748
11851TIP3    H235495   2.112   4.486   6.629
11852TIP3   OH235496   3.676   7.464   5.005
11852TIP3    H135497   3.643   7.502   4.924
11852TIP3    H235498   3.611   7.487   5.071
11853TIP3   OH235499   0.499   2.891   3.612
11853TIP3    H135500   0.478   2.798   3.611
11853TIP3    H235501   0.593   2.894   3.627
11854TIP3   OH235502   2.545   1.528   0.100
11854TIP3    H135503   2.589   1.613   0.108
11854TIP3    H235504   2.560   1.485   0.184
11855TIP3   OH235505   2.335   1.667   0.264
11855TIP3    H135506   2.339   1.573   0.245
11855TIP3    H235507   2.320   1.709   0.179
11856TIP3   OH235508   2.332   6.161   1.459
11856TIP3    H135509   2.286   6.239   1.489
11856TIP3    H235510   2.287   6.136   1.378
11857TIP3   OH235511   1.117   3.758   4.376
11857TIP3    H135512   1.120   3.830   4.312
11857TIP3    H235513   1.113   3.802   4.461
11858TIP3   OH235514   6.038   4.102   1.532
11858TIP3    H135515   5.987   4.039   1.583
11858TIP3    H235516   6.101   4.048   1.485
11859TIP3   OH235517   5.335   6.687   4.874
11859TIP3    H135518   5.392   6.625   4.829
11859TIP3    H235519   5.386   6.714   4.951
11860TIP3   OH235520   7.092   7.235   2.036
11860TIP3    H135521   7.164   7.229   1.973
11860TIP3    H235522   7.057   7.323   2.024
11861TIP3   OH235523   2.250   7.058   3.327
11861TIP3    H135524   2.209   7.110   3.258
11861TIP3    H235525   2.317   7.007   3.283
11862TIP3   OH235526   4.272   0.214   3.511
11862TIP3    H135527   4.345   0.275   3.511
11862TIP3    H235528   4.198   0.265   3.546
11863TIP3   OH235529   0.247   1.257   0.224
11863TIP3    H135530   0.323   1.296   0.267
11863TIP3    H235531   0.209   1.199   0.290
11864TIP3   OH235532   0.167   1.061   1.009
11864TIP3    H135533   0.138   1.009   0.934
11864TIP3    H235534   0.214   0.998   1.065
11865TIP3   OH235535   6.031   1.329   6.350
11865TIP3    H135536   6.067   1.320   6.438
11865TIP3    H235537   5.938   1.349   6.364
11866TIP3   OH235538   7.443   1.311   2.272
11866TIP3    H135539   7.496   1.373   2.222
11866TIP3    H235540   7.477   1.317   2.361
11867TIP3   OH235541   3.779   0.516   4.467
11867TIP3    H135542   3.782   0.440   4.526
11867TIP3    H235543   3.864   0.559   4.479
11868TIP3   OH235544   5.461   3.636   2.662
11868TIP3    H135545   5.491   3.590   2.584
11868TIP3    H235546   5.500   3.588   2.735
11869TIP3   OH235547   5.354   4.909   4.065
11869TIP3    H135548   5.326   4.968   3.995
11869TIP3    H235549   5.445   4.888   4.044
11870TIP3   OH235550   5.382   0.434   3.229
11870TIP3    H135551   5.326   0.364   3.194
11870TIP3    H235552   5.437   0.459   3.155
11871TIP3   OH235553   1.867   4.115   5.352
11871TIP3    H135554   1.781   4.078   5.332
11871TIP3    H235555   1.877   4.102   5.446
11872TIP3   OH235556   1.988   2.156   5.898
11872TIP3    H135557   2.022   2.244   5.917
11872TIP3    H235558   2.007   2.142   5.805
11873TIP3   OH235559   5.957   1.348   2.390
11873TIP3    H135560   5.958   1.443   2.400
11873TIP3    H235561   5.901   1.317   2.461
11874TIP3   OH235562   2.331   4.358   5.862
11874TIP3    H135563   2.413   4.322   5.895
11874TIP3    H235564   2.273   4.359   5.938
11875TIP3   OH235565   3.927   0.567   3.614
11875TIP3    H135566   3.841   0.542   3.646
11875TIP3    H235567   3.914   0.653   3.573
11876TIP3   OH235568   6.693   4.021   5.509
11876TIP3    H135569   6.679   3.943   5.455
11876TIP3    H235570   6.716   4.090   5.447
11877TIP3   OH235571   0.290   7.555   1.681
11877TIP3    H135572   0.284   7.649   1.665
11877TIP3    H235573   0.320   7.518   1.598
11878TIP3   OH235574   0.971   5.862   3.632
11878TIP3    H135575   0.909   5.799   3.594
11878TIP3    H235576   0.970   5.935   3.570
11879TIP3   OH235577   1.429   6.374   5.940
11879TIP3    H135578   1.388   6.367   6.027
11879TIP3    H235579   1.357   6.401   5.883
11880TIP3   OH235580   1.879   0.361   6.220
11880TIP3    H135581   1.934   0.428   6.261
11880TIP3    H235582   1.884   0.286   6.280
11881TIP3   OH235583   4.430   3.961   4.152
11881TIP3    H135584   4.343   3.990   4.125
11881TIP3    H235585   4.462   3.909   4.078
11882TIP3   OH235586   5.542   7.511   5.576
11882TIP3    H135587   5.555   7.418   5.592
11882TIP3    H235588   5.537   7.550   5.663
11883TIP3   OH235589   4.090   3.172   3.350
11883TIP3    H135590   4.159   3.236   3.329
11883TIP3    H235591   4.129   3.118   3.419
11884TIP3   OH235592   0.994   4.130   2.704
11884TIP3    H135593   1.001   4.077   2.624
11884TIP3    H235594   0.927   4.085   2.756
11885TIP3   OH235595   0.532   2.309   6.590
11885TIP3    H135596   0.467   2.289   6.523
11885TIP3    H235597   0.547   2.403   6.583
11886TIP3   OH235598   5.609   3.143   0.778
11886TIP3    H135599   5.703   3.160   0.764
11886TIP3    H235600   5.596   3.053   0.746
11887TIP3   OH235601   5.317   2.829   4.240
11887TIP3    H135602   5.398   2.860   4.280
11887TIP3    H235603   5.345   2.767   4.174
11888TIP3   OH235604   1.060   6.796   3.738
11888TIP3    H135605   0.990   6.811   3.674
11888TIP3    H235606   1.069   6.880   3.783
11889TIP3   OH235607   2.940   3.184   4.584
11889TIP3    H135608   2.878   3.239   4.633
11889TIP3    H235609   2.887   3.112   4.550
11890TIP3   OH235610   2.197   7.561   3.127
11890TIP3    H135611   2.258   7.557   3.053
11890TIP3    H235612   2.111   7.545   3.088
11891TIP3   OH235613   3.025   0.997   1.295
11891TIP3    H135614   3.098   0.940   1.318
11891TIP3    H235615   3.027   1.066   1.361
11892TIP3   OH235616   4.052   5.756   1.268
11892TIP3    H135617   4.103   5.749   1.348
11892TIP3    H235618   3.962   5.766   1.297
11893TIP3   OH235619   6.529   6.791   2.881
11893TIP3    H135620   6.455   6.785   2.942
11893TIP3    H235621   6.487   6.803   2.795
11894TIP3   OH235622   7.754   6.970   4.973
11894TIP3    H135623   7.691   6.989   4.903
11894TIP3    H235624   7.727   6.884   5.005
11895TIP3   OH235625   6.337   3.956   6.436
11895TIP3    H135626   6.374   4.010   6.366
11895TIP3    H235627   6.269   3.904   6.393
11896TIP3   OH235628   6.220   1.274   4.340
11896TIP3    H135629   6.223   1.178   4.342
11896TIP3    H235630   6.302   1.299   4.298
11897TIP3   OH235631   7.971   1.216   3.519
11897TIP3    H135632   8.060   1.206   3.554
11897TIP3    H235633   7.962   1.309   3.502
11898TIP3   OH235634   7.210   5.388   0.829
11898TIP3    H135635   7.275   5.320   0.811
11898TIP3    H235636   7.240   5.463   0.776
11899TIP3   OH235637   6.378   4.172   5.868
11899TIP3    H135638   6.396   4.080   5.847
11899TIP3    H235639   6.403   4.220   5.790
11900TIP3   OH235640   3.236   2.799   1.636
11900TIP3    H135641   3.273   2.737   1.572
11900TIP3    H235642   3.309   2.820   1.694
11901TIP3   OH235643   1.624   5.306   5.185
11901TIP3    H135644   1.690   5.316   5.253
11901TIP3    H235645   1.667   5.254   5.117
11902TIP3   OH235646   2.272   5.748   1.131
11902TIP3    H135647   2.291   5.731   1.038
11902TIP3    H235648   2.273   5.844   1.138
11903TIP3   OH235649   3.311   2.562   4.599
11903TIP3    H135650   3.392   2.534   4.556
11903TIP3    H235651   3.333   2.561   4.693
11904TIP3   OH235652   0.654   5.067   2.198
11904TIP3    H135653   0.587   4.999   2.207
11904TIP3    H235654   0.609   5.140   2.156
11905TIP3   OH235655   5.539   1.991   1.354
11905TIP3    H135656   5.463   2.009   1.410
11905TIP3    H235657   5.566   1.903   1.378
11906TIP3   OH235658   2.287   2.692   5.104
11906TIP3    H135659   2.198   2.698   5.140
11906TIP3    H235660   2.315   2.782   5.094
11907TIP3   OH235661   2.035   7.423   2.338
11907TIP3    H135662   2.079   7.339   2.327
11907TIP3    H235663   2.010   7.424   2.431
11908TIP3   OH235664   6.975   3.185   2.309
11908TIP3    H135665   6.992   3.096   2.339
11908TIP3    H235666   6.919   3.223   2.376
11909TIP3   OH235667   4.961   4.462   5.457
11909TIP3    H135668   4.891   4.447   5.520
11909TIP3    H235669   5.029   4.509   5.506
11910TIP3   OH235670   8.096   1.582   6.692
11910TIP3    H135671   8.060   1.506   6.647
11910TIP3    H235672   8.178   1.551   6.730
11911TIP3   OH235673   4.865   7.633   3.648
11911TIP3    H135674   4.919   7.702   3.609
11911TIP3    H235675   4.779   7.645   3.609
11912TIP3   OH235676   0.162   0.441   4.680
11912TIP3    H135677   0.227   0.497   4.638
11912TIP3    H235678   0.089   0.439   4.618
11913TIP3   OH235679   4.648   7.444   5.762
11913TIP3    H135680   4.674   7.502   5.834
11913TIP3    H235681   4.558   7.468   5.742
11914TIP3   OH235682   0.321   3.090   3.701
11914TIP3    H135683   0.250   3.037   3.737
11914TIP3    H235684   0.389   3.026   3.680
11915TIP3   OH235685   2.498   0.272   4.100
11915TIP3    H135686   2.472   0.193   4.052
11915TIP3    H235687   2.439   0.275   4.175
11916TIP3   OH235688   6.322   3.793   0.048
11916TIP3    H135689   6.243   3.765   0.003
11916TIP3    H235690   6.303   3.883   0.076
11917TIP3   OH235691   0.590   0.950   5.439
11917TIP3    H135692   0.547   1.019   5.390
11917TIP3    H235693   0.683   0.968   5.432
11918TIP3   OH235694   5.190   5.560   1.406
11918TIP3    H135695   5.124   5.620   1.441
11918TIP3    H235696   5.265   5.570   1.465
11919TIP3   OH235697   7.287   0.750   2.949
11919TIP3    H135698   7.196   0.780   2.959
11919TIP3    H235699   7.333   0.789   3.023
11920TIP3   OH235700   5.644   5.103   4.978
11920TIP3    H135701   5.603   5.106   5.064
11920TIP3    H235702   5.598   5.169   4.926
11921TIP3   OH235703   7.590   4.656   1.518
11921TIP3    H135704   7.574   4.571   1.560
11921TIP3    H235705   7.580   4.720   1.589
11922TIP3   OH235706   8.377   3.581   4.127
11922TIP3    H135707   8.459   3.557   4.169
11922TIP3    H235708   8.314   3.588   4.200
11923TIP3   OH235709   0.596   1.888   5.707
11923TIP3    H135710   0.620   1.980   5.699
11923TIP3    H235711   0.536   1.886   5.782
11924TIP3   OH235712   1.006   2.400   6.273
11924TIP3    H135713   1.073   2.332   6.273
11924TIP3    H235714   1.050   2.476   6.234
11925TIP3   OH235715   6.405   3.279   6.599
11925TIP3    H135716   6.332   3.275   6.661
11925TIP3    H235717   6.414   3.189   6.568
11926TIP3   OH235718   3.501   4.272   4.271
11926TIP3    H135719   3.489   4.240   4.181
11926TIP3    H235720   3.415   4.261   4.311
11927TIP3   OH235721   7.857   5.565   3.814
11927TIP3    H135722   7.940   5.563   3.766
11927TIP3    H235723   7.858   5.485   3.867
11928TIP3   OH235724   3.465   3.601   4.128
11928TIP3    H135725   3.447   3.694   4.137
11928TIP3    H235726   3.561   3.595   4.122
11929TIP3   OH235727   4.076   4.904   3.460
11929TIP3    H135728   4.009   4.942   3.517
11929TIP3    H235729   4.116   4.979   3.417
11930TIP3   OH235730   2.396   6.236   6.278
11930TIP3    H135731   2.413   6.245   6.184
11930TIP3    H235732   2.428   6.319   6.316
11931TIP3   OH235733   1.398   7.834   4.137
11931TIP3    H135734   1.336   7.842   4.209
11931TIP3    H235735   1.425   7.924   4.119
11932TIP3   OH235736   7.813   4.877   2.926
11932TIP3    H135737   7.837   4.955   2.976
11932TIP3    H235738   7.818   4.904   2.834
11933TIP3   OH235739   2.887   2.919   5.435
11933TIP3    H135740   2.909   2.830   5.464
11933TIP3    H235741   2.969   2.967   5.443
11934TIP3   OH235742   7.696   3.049   3.829
11934TIP3    H135743   7.679   3.132   3.785
11934TIP3    H235744   7.731   3.073   3.915
11935TIP3   OH235745   8.097   3.640   1.051
11935TIP3    H135746   8.147   3.685   0.983
11935TIP3    H235747   8.155   3.570   1.080
11936TIP3   OH235748   6.815   7.333   2.997
11936TIP3    H135749   6.847   7.424   2.998
11936TIP3    H235750   6.804   7.311   3.089
11937TIP3   OH235751   1.638   7.862   5.402
11937TIP3    H135752   1.645   7.796   5.471
11937TIP3    H235753   1.546   7.859   5.375
11938TIP3   OH235754   4.396   7.308   3.724
11938TIP3    H135755   4.358   7.365   3.658
11938TIP3    H235756   4.339   7.231   3.725
11939TIP3   OH235757   4.793   0.577   4.836
11939TIP3    H135758   4.854   0.647   4.859
11939TIP3    H235759   4.820   0.503   4.890
11940TIP3   OH235760   3.396   4.264   3.005
11940TIP3    H135761   3.457   4.276   3.077
11940TIP3    H235762   3.318   4.224   3.045
11941TIP3   OH235763   0.445   1.394   6.663
11941TIP3    H135764   0.500   1.347   6.725
11941TIP3    H235765   0.406   1.326   6.609
11942TIP3   OH235766   0.530   0.474   4.718
11942TIP3    H135767   0.613   0.519   4.700
11942TIP3    H235768   0.474   0.497   4.644
11943TIP3   OH235769   6.266   1.352   3.426
11943TIP3    H135770   6.221   1.313   3.351
11943TIP3    H235771   6.258   1.446   3.412
11944TIP3   OH235772   8.252   1.182   1.792
11944TIP3    H135773   8.243   1.270   1.754
11944TIP3    H235774   8.257   1.199   1.887
11945TIP3   OH235775   2.222   0.041   0.883
11945TIP3    H135776   2.201   0.033   0.976
11945TIP3    H235777   2.237   0.135   0.870
11946TIP3   OH235778   6.283   6.681   5.203
11946TIP3    H135779   6.268   6.614   5.136
11946TIP3    H235780   6.197   6.694   5.244
11947TIP3   OH235781   7.926   0.335   2.811
11947TIP3    H135782   7.933   0.405   2.876
11947TIP3    H235783   7.998   0.350   2.751
11948TIP3   OH235784   4.526   7.400   2.718
11948TIP3    H135785   4.433   7.423   2.717
11948TIP3    H235786   4.565   7.460   2.781
11949TIP3   OH235787   1.634   4.410   3.096
11949TIP3    H135788   1.579   4.342   3.059
11949TIP3    H235789   1.647   4.472   3.024
11950TIP3   OH235790   1.325   2.248   2.071
11950TIP3    H135791   1.344   2.327   2.123
11950TIP3    H235792   1.247   2.271   2.021
11951TIP3   OH235793   1.866   7.749   0.148
11951TIP3    H135794   1.865   7.714   0.237
11951TIP3    H235795   1.844   7.675   0.093
11952TIP3   OH235796   3.525   1.221   0.036
11952TIP3    H135797   3.556   1.168   0.109
11952TIP3    H235798   3.599   1.278   0.014
11953TIP3   OH235799   0.275   2.264   5.204
11953TIP3    H135800   0.254   2.346   5.159
11953TIP3    H235801   0.229   2.271   5.288
11954TIP3   OH235802   2.190   3.907   5.050
11954TIP3    H135803   2.231   3.985   5.012
11954TIP3    H235804   2.164   3.934   5.138
11955TIP3   OH235805   8.278   3.030   0.463
11955TIP3    H135806   8.339   3.103   0.470
11955TIP3    H235807   8.219   3.055   0.392
11956TIP3   OH235808   0.629   3.703   1.692
11956TIP3    H135809   0.582   3.621   1.710
11956TIP3    H235810   0.717   3.675   1.667
11957TIP3   OH235811   1.097   0.908   0.665
11957TIP3    H135812   1.005   0.882   0.670
11957TIP3    H235813   1.122   0.926   0.756
11958TIP3   OH235814   1.767   1.834   1.497
11958TIP3    H135815   1.788   1.753   1.451
11958TIP3    H235816   1.773   1.902   1.430
11959TIP3   OH235817   2.381   7.808   4.570
11959TIP3    H135818   2.369   7.715   4.588
11959TIP3    H235819   2.295   7.838   4.539
11960TIP3   OH235820   1.178   5.592   1.053
11960TIP3    H135821   1.216   5.523   1.107
11960TIP3    H235822   1.085   5.591   1.075
11961TIP3   OH235823   1.172   0.959   3.105
11961TIP3    H135824   1.114   1.009   3.047
11961TIP3    H235825   1.141   0.869   3.099
11962TIP3   OH235826   6.345   6.327   5.597
11962TIP3    H135827   6.341   6.327   5.501
11962TIP3    H235828   6.401   6.253   5.619
11963TIP3   OH235829   5.224   0.896   4.371
11963TIP3    H135830   5.281   0.845   4.429
11963TIP3    H235831   5.265   0.982   4.367
11964TIP3   OH235832   0.758   1.573   2.329
11964TIP3    H135833   0.719   1.582   2.242
11964TIP3    H235834   0.718   1.494   2.366
11965TIP3   OH235835   6.721   6.081   3.475
11965TIP3    H135836   6.647   6.047   3.525
11965TIP3    H235837   6.781   6.116   3.541
11966TIP3   OH235838   1.863   5.295   3.140
11966TIP3    H135839   1.783   5.310   3.189
11966TIP3    H235840   1.896   5.211   3.173
11967TIP3   OH235841   0.133   1.767   3.974
11967TIP3    H135842   0.045   1.737   3.952
11967TIP3    H235843   0.121   1.821   4.053
11968TIP3   OH235844   5.807   2.415   3.087
11968TIP3    H135845   5.785   2.500   3.124
11968TIP3    H235846   5.765   2.352   3.145
11969TIP3   OH235847   4.005   4.686   3.294
11969TIP3    H135848   3.971   4.617   3.350
11969TIP3    H235849   4.050   4.746   3.353
11970TIP3   OH235850   1.221   4.379   2.464
11970TIP3    H135851   1.265   4.463   2.450
11970TIP3    H235852   1.134   4.390   2.424
11971TIP3   OH235853   1.871   0.834   5.650
11971TIP3    H135854   1.824   0.872   5.577
11971TIP3    H235855   1.815   0.762   5.681
11972TIP3   OH235856   3.553   7.197   1.901
11972TIP3    H135857   3.484   7.153   1.850
11972TIP3    H235858   3.542   7.162   1.990
11973TIP3   OH235859   1.147   6.817   4.326
11973TIP3    H135860   1.146   6.769   4.409
11973TIP3    H235861   1.063   6.864   4.325
11974TIP3   OH235862   3.674   2.445   4.980
11974TIP3    H135863   3.730   2.369   4.964
11974TIP3    H235864   3.662   2.484   4.893
11975TIP3   OH235865   1.790   5.457   4.033
11975TIP3    H135866   1.804   5.512   4.110
11975TIP3    H235867   1.806   5.515   3.958
11976TIP3   OH235868   0.178   2.727   4.223
11976TIP3    H135869   0.213   2.798   4.170
11976TIP3    H235870   0.203   2.749   4.313
11977TIP3   OH235871   3.407   1.416   3.138
11977TIP3    H135872   3.430   1.338   3.088
11977TIP3    H235873   3.318   1.437   3.109
11978TIP3   OH235874   2.971   3.923   3.230
11978TIP3    H135875   2.933   3.851   3.282
11978TIP3    H235876   2.934   3.910   3.142
11979TIP3   OH235877   5.808   7.371   2.801
11979TIP3    H135878   5.770   7.457   2.820
11979TIP3    H235879   5.736   7.310   2.815
11980TIP3   OH235880   5.813   6.027   6.431
11980TIP3    H135881   5.889   6.049   6.485
11980TIP3    H235882   5.756   6.103   6.436
11981TIP3   OH235883   3.610   7.156   3.635
11981TIP3    H135884   3.689   7.113   3.669
11981TIP3    H235885   3.546   7.085   3.626
11982TIP3   OH235886   0.332   0.921   2.422
11982TIP3    H135887   0.283   0.872   2.355
11982TIP3    H235888   0.264   0.967   2.472
11983TIP3   OH235889   8.094   6.606   3.790
11983TIP3    H135890   8.045   6.533   3.828
11983TIP3    H235891   8.117   6.576   3.702
11984TIP3   OH235892   2.898   1.432   5.470
11984TIP3    H135893   2.903   1.410   5.563
11984TIP3    H235894   2.983   1.471   5.450
11985TIP3   OH235895   3.773   1.215   1.592
11985TIP3    H135896   3.711   1.281   1.621
11985TIP3    H235897   3.783   1.230   1.498
11986TIP3   OH235898   7.406   4.683   1.317
11986TIP3    H135899   7.479   4.659   1.374
11986TIP3    H235900   7.448   4.720   1.239
11987TIP3   OH235901   7.805   5.971   3.610
11987TIP3    H135902   7.879   5.991   3.667
11987TIP3    H235903   7.827   5.887   3.570
11988TIP3   OH235904   7.298   5.031   6.576
11988TIP3    H135905   7.221   5.001   6.623
11988TIP3    H235906   7.339   5.095   6.634
11989TIP3   OH235907   2.059   6.263   1.530
11989TIP3    H135908   2.006   6.335   1.496
11989TIP3    H235909   2.000   6.213   1.586
11990TIP3   OH235910   1.418   3.651   5.041
11990TIP3    H135911   1.347   3.710   5.065
11990TIP3    H235912   1.471   3.643   5.121
11991TIP3   OH235913   8.205   0.140   5.601
11991TIP3    H135914   8.164   0.196   5.667
11991TIP3    H235915   8.155   0.059   5.604
11992TIP3   OH235916   4.056   5.468   4.671
11992TIP3    H135917   4.144   5.470   4.709
11992TIP3    H235918   4.005   5.414   4.731
11993TIP3   OH235919   6.949   5.022   1.921
11993TIP3    H135920   6.858   4.999   1.939
11993TIP3    H235921   6.996   4.999   2.000
11994TIP3   OH235922   6.764   4.630   1.998
11994TIP3    H135923   6.703   4.576   1.948
11994TIP3    H235924   6.810   4.567   2.054
11995TIP3   OH235925   2.993   4.563   1.025
11995TIP3    H135926   2.927   4.600   0.966
11995TIP3    H235927   3.075   4.571   0.978
11996TIP3   OH235928   1.625   6.075   5.866
11996TIP3    H135929   1.643   5.995   5.916
11996TIP3    H235930   1.532   6.069   5.844
11997TIP3   OH235931   7.426   0.690   2.723
11997TIP3    H135932   7.359   0.707   2.788
11997TIP3    H235933   7.410   0.755   2.654
11998TIP3   OH235934   2.510   0.199   4.827
11998TIP3    H135935   2.532   0.118   4.875
11998TIP3    H235936   2.416   0.195   4.814
11999TIP3   OH235937   2.916   7.842   2.013
11999TIP3    H135938   2.937   7.878   1.927
11999TIP3    H235939   2.978   7.770   2.026
12000TIP3   OH235940   4.150   1.713   3.625
12000TIP3    H135941   4.086   1.757   3.569
12000TIP3    H235942   4.230   1.764   3.615
12001TIP3   OH235943   4.010   2.515   3.951
12001TIP3    H135944   3.967   2.432   3.971
12001TIP3    H235945   4.054   2.500   3.868
12002TIP3   OH235946   5.352   6.233   5.706
12002TIP3    H135947   5.258   6.249   5.696
12002TIP3    H235948   5.359   6.194   5.794
12003TIP3   OH235949   7.354   1.132   5.166
12003TIP3    H135950   7.313   1.202   5.217
12003TIP3    H235951   7.290   1.061   5.166
12004TIP3   OH235952   6.460   7.884   0.795
12004TIP3    H135953   6.505   7.800   0.801
12004TIP3    H235954   6.444   7.909   0.886
12005TIP3   OH235955   8.068   6.302   4.450
12005TIP3    H135956   8.063   6.397   4.459
12005TIP3    H235957   7.978   6.272   4.455
12006TIP3   OH235958   3.259   4.143   6.854
12006TIP3    H135959   3.252   4.220   6.797
12006TIP3    H235960   3.354   4.130   6.863
12007TIP3   OH235961   6.900   7.534   4.583
12007TIP3    H135962   6.825   7.588   4.607
12007TIP3    H235963   6.913   7.551   4.489
12008TIP3   OH235964   7.955   6.592   6.698
12008TIP3    H135965   7.986   6.563   6.612
12008TIP3    H235966   7.995   6.678   6.709
12009TIP3   OH235967   1.662   1.265   0.411
12009TIP3    H135968   1.678   1.191   0.352
12009TIP3    H235969   1.747   1.280   0.453
12010TIP3   OH235970   0.994   1.439   2.322
12010TIP3    H135971   1.033   1.513   2.275
12010TIP3    H235972   0.900   1.448   2.307
12011TIP3   OH235973   6.341   2.468   5.105
12011TIP3    H135974   6.253   2.451   5.138
12011TIP3    H235975   6.337   2.445   5.012
12012TIP3   OH235976   6.338   2.845   2.954
12012TIP3    H135977   6.413   2.793   2.927
12012TIP3    H235978   6.347   2.854   3.049
12013TIP3   OH235979   6.155   0.115   1.062
12013TIP3    H135980   6.072   0.106   1.016
12013TIP3    H235981   6.168   0.030   1.105
12014TIP3   OH235982   3.176   7.801   0.736
12014TIP3    H135983   3.198   7.710   0.759
12014TIP3    H235984   3.182   7.804   0.641
12015TIP3   OH235985   4.373   3.904   2.715
12015TIP3    H135986   4.285   3.867   2.725
12015TIP3    H235987   4.416   3.887   2.799
12016TIP3   OH235988   6.940   0.570   3.899
12016TIP3    H135989   6.980   0.505   3.958
12016TIP3    H235990   6.937   0.526   3.814
12017TIP3   OH235991   5.988   2.421   3.422
12017TIP3    H135992   5.905   2.436   3.375
12017TIP3    H235993   6.037   2.360   3.367
12018TIP3   OH235994   4.383   2.034   3.075
12018TIP3    H135995   4.398   1.953   3.027
12018TIP3    H235996   4.296   2.024   3.112
12019TIP3   OH235997   1.699   4.810   1.854
12019TIP3    H135998   1.655   4.755   1.790
12019TIP3    H235999   1.780   4.839   1.811
12020TIP3   OH236000   1.559   4.753   6.020
12020TIP3    H136001   1.616   4.706   6.082
12020TIP3    H236002   1.615   4.770   5.944
12021TIP3   OH236003   6.611   7.824   6.243
12021TIP3    H136004   6.672   7.772   6.296
12021TIP3    H236005   6.657   7.839   6.160
12022TIP3   OH236006   0.220   2.687   6.820
12022TIP3    H136007   0.286   2.651   6.761
12022TIP3    H236008   0.268   2.711   6.899
12023TIP3   OH236009   6.740   1.174   3.307
12023TIP3    H136010   6.817   1.228   3.326
12023TIP3    H236011   6.682   1.187   3.382
12024TIP3   OH236012   5.417   1.571   0.707
12024TIP3    H136013   5.333   1.576   0.753
12024TIP3    H236014   5.447   1.662   0.703
12025TIP3   OH236015   8.210   0.833   6.209
12025TIP3    H136016   8.186   0.756   6.157
12025TIP3    H236017   8.142   0.898   6.188
12026TIP3   OH236018   3.096   4.740   4.835
12026TIP3    H136019   3.096   4.666   4.774
12026TIP3    H236020   3.113   4.817   4.780
12027TIP3   OH236021   3.226   4.866   0.374
12027TIP3    H136022   3.279   4.787   0.382
12027TIP3    H236023   3.141   4.842   0.408
12028TIP3   OH236024   4.899   1.890   2.551
12028TIP3    H136025   4.828   1.877   2.488
12028TIP3    H236026   4.936   1.803   2.564
12029TIP3   OH236027   4.956   5.773   1.324
12029TIP3    H136028   4.977   5.787   1.232
12029TIP3    H236029   4.876   5.721   1.323
12030TIP3   OH236030   4.928   5.464   0.685
12030TIP3    H136031   4.867   5.535   0.707
12030TIP3    H236032   4.961   5.434   0.769
12031TIP3   OH236033   3.425   2.212   4.907
12031TIP3    H136034   3.462   2.180   4.825
12031TIP3    H236035   3.476   2.290   4.928
12032TIP3   OH236036   3.310   3.425   6.435
12032TIP3    H136037   3.319   3.349   6.377
12032TIP3    H236038   3.392   3.473   6.425
12033TIP3   OH236039   5.104   3.223   3.571
12033TIP3    H136040   5.097   3.271   3.654
12033TIP3    H236041   5.014   3.215   3.540
12034TIP3   OH236042   7.421   2.338   3.367
12034TIP3    H136043   7.364   2.415   3.378
12034TIP3    H236044   7.413   2.316   3.274
12035TIP3   OH236045   6.611   7.743   2.359
12035TIP3    H136046   6.693   7.731   2.405
12035TIP3    H236047   6.558   7.798   2.417
12036TIP3   OH236048   3.091   3.461   5.059
12036TIP3    H136049   3.127   3.372   5.051
12036TIP3    H236050   3.142   3.513   4.998
12037TIP3   OH236051   4.740   6.136   1.114
12037TIP3    H136052   4.831   6.109   1.118
12037TIP3    H236053   4.744   6.231   1.105
12038TIP3   OH236054   5.771   6.171   3.263
12038TIP3    H136055   5.858   6.182   3.225
12038TIP3    H236056   5.786   6.174   3.357
12039TIP3   OH236057   2.903   5.393   0.112
12039TIP3    H136058   2.889   5.416   0.204
12039TIP3    H236059   2.983   5.440   0.088
12040TIP3   OH236060   6.142   7.691   0.445
12040TIP3    H136061   6.126   7.610   0.395
12040TIP3    H236062   6.222   7.673   0.495
12041TIP3   OH236063   2.974   3.153   6.798
12041TIP3    H136064   2.978   3.230   6.856
12041TIP3    H236065   2.932   3.085   6.851
12042TIP3   OH236066   6.886   0.136   6.039
12042TIP3    H136067   6.976   0.120   6.068
12042TIP3    H236068   6.843   0.174   6.115
12043TIP3   OH236069   2.033   2.925   5.599
12043TIP3    H136070   2.036   2.838   5.639
12043TIP3    H236071   1.982   2.978   5.660
12044TIP3   OH236072   5.755   0.902   2.234
12044TIP3    H136073   5.763   0.991   2.267
12044TIP3    H236074   5.756   0.847   2.313
12045TIP3   OH236075   4.477   5.701   3.596
12045TIP3    H136076   4.545   5.759   3.630
12045TIP3    H236077   4.396   5.737   3.631
12046TIP3   OH236078   0.999   4.212   2.071
12046TIP3    H136079   0.970   4.121   2.081
12046TIP3    H236080   1.028   4.218   1.980
12047TIP3   OH236081   7.054   7.779   2.065
12047TIP3    H136082   7.027   7.720   2.135
12047TIP3    H236083   7.149   7.775   2.065
12048TIP3   OH236084   3.210   6.826   0.919
12048TIP3    H136085   3.118   6.847   0.905
12048TIP3    H236086   3.208   6.740   0.962
12049TIP3   OH236087   0.117   2.500   2.970
12049TIP3    H136088   0.069   2.425   3.006
12049TIP3    H236089   0.191   2.461   2.924
12050TIP3   OH236090   5.627   1.851   3.094
12050TIP3    H136091   5.645   1.842   3.001
12050TIP3    H236092   5.676   1.779   3.135
12051TIP3   OH236093   7.021   5.854   0.819
12051TIP3    H136094   6.942   5.885   0.777
12051TIP3    H236095   6.990   5.816   0.902
12052TIP3   OH236096   5.966   0.871   1.132
12052TIP3    H136097   6.012   0.837   1.056
12052TIP3    H236098   5.890   0.917   1.097
12053TIP3   OH236099   6.932   2.066   0.503
12053TIP3    H136100   6.960   2.109   0.584
12053TIP3    H236101   6.931   1.973   0.525
12054TIP3   OH236102   1.628   2.415   2.812
12054TIP3    H136103   1.673   2.344   2.766
12054TIP3    H236104   1.691   2.487   2.814
12055TIP3   OH236105   5.741   7.702   1.856
12055TIP3    H136106   5.681   7.646   1.905
12055TIP3    H236107   5.823   7.651   1.853
12056TIP3   OH236108   1.546   7.832   4.968
12056TIP3    H136109   1.571   7.746   4.935
12056TIP3    H236110   1.623   7.865   5.013
12057TIP3   OH236111   4.283   7.344   6.682
12057TIP3    H136112   4.375   7.324   6.701
12057TIP3    H236113   4.281   7.439   6.671
12058TIP3   OH236114   1.673   1.602   2.273
12058TIP3    H136115   1.629   1.644   2.347
12058TIP3    H236116   1.629   1.517   2.265
12059TIP3   OH236117   2.284   7.234   4.534
12059TIP3    H136118   2.273   7.325   4.506
12059TIP3    H236119   2.251   7.233   4.624
12060TIP3   OH236120   3.152   2.275   6.305
12060TIP3    H136121   3.158   2.186   6.270
12060TIP3    H236122   3.060   2.299   6.294
12061TIP3   OH236123   0.795   3.513   0.785
12061TIP3    H136124   0.740   3.435   0.778
12061TIP3    H236125   0.810   3.522   0.879
12062TIP3   OH236126   0.888   3.474   5.420
12062TIP3    H136127   0.953   3.403   5.423
12062TIP3    H236128   0.804   3.428   5.425
12063TIP3   OH236129   2.768   6.111   0.520
12063TIP3    H136130   2.812   6.196   0.518
12063TIP3    H236131   2.765   6.084   0.428
12064TIP3   OH236132   7.647   3.508   5.272
12064TIP3    H136133   7.672   3.595   5.243
12064TIP3    H236134   7.634   3.517   5.367
12065TIP3   OH236135   2.205   0.126   3.944
12065TIP3    H136136   2.298   0.100   3.949
12065TIP3    H236137   2.205   0.205   3.890
12066TIP3   OH236138   5.179   0.033   3.602
12066TIP3    H136139   5.130   0.087   3.664
12066TIP3    H236140   5.271   0.050   3.623
12067TIP3   OH236141   2.591   0.062   2.024
12067TIP3    H136142   2.640  -0.019   2.010
12067TIP3    H236143   2.631   0.102   2.101
12068TIP3   OH236144   7.342   2.036   5.724
12068TIP3    H136145   7.302   2.111   5.680
12068TIP3    H236146   7.267   1.983   5.752
12069TIP3   OH236147   5.022   0.723   3.824
12069TIP3    H136148   5.104   0.674   3.819
12069TIP3    H236149   5.033   0.793   3.760
12070TIP3   OH236150   2.295   2.032   4.936
12070TIP3    H136151   2.220   1.974   4.922
12070TIP3    H236152   2.371   1.976   4.926
12071TIP3   OH236153   3.105   2.192   3.518
12071TIP3    H136154   3.048   2.256   3.476
12071TIP3    H236155   3.129   2.232   3.601
12072TIP3   OH236156   1.980   0.747   2.437
12072TIP3    H136157   2.064   0.749   2.393
12072TIP3    H236158   1.919   0.790   2.377
12073TIP3   OH236159   7.491   3.286   5.474
12073TIP3    H136160   7.519   3.221   5.539
12073TIP3    H236161   7.524   3.369   5.509
12074TIP3   OH236162   2.052   5.759   5.578
12074TIP3    H136163   2.028   5.677   5.621
12074TIP3    H236164   2.023   5.828   5.639
12075TIP3   OH236165   4.016   0.290   3.294
12075TIP3    H136166   3.935   0.244   3.314
12075TIP3    H236167   4.037   0.339   3.373
12076TIP3   OH236168   2.856   5.303   3.499
12076TIP3    H136169   2.926   5.333   3.557
12076TIP3    H236170   2.889   5.317   3.411
12077TIP3   OH236171   3.523   7.384   3.736
12077TIP3    H136172   3.548   7.301   3.696
12077TIP3    H236173   3.604   7.435   3.739
12078TIP3   OH236174   4.255   5.270   0.943
12078TIP3    H136175   4.191   5.302   0.880
12078TIP3    H236176   4.203   5.232   1.014
12079TIP3   OH236177   4.117   6.471   2.261
12079TIP3    H136178   4.119   6.567   2.257
12079TIP3    H236179   4.081   6.445   2.176
12080TIP3   OH236180   2.226   1.904   5.657
12080TIP3    H136181   2.310   1.892   5.614
12080TIP3    H236182   2.246   1.950   5.738
12081TIP3   OH236183   3.925   3.629   4.035
12081TIP3    H136184   4.005   3.623   4.087
12081TIP3    H236185   3.861   3.576   4.082
12082TIP3   OH236186   4.108   0.650   4.823
12082TIP3    H136187   4.187   0.703   4.813
12082TIP3    H236188   4.135   0.561   4.798
12083TIP3   OH236189   8.274   1.408   2.946
12083TIP3    H136190   8.247   1.445   3.030
12083TIP3    H236191   8.270   1.481   2.884
12084TIP3   OH236192   5.884   6.733   0.919
12084TIP3    H136193   5.854   6.674   0.989
12084TIP3    H236194   5.979   6.736   0.929
12085TIP3   OH236195   0.911   2.242   1.716
12085TIP3    H136196   0.979   2.224   1.781
12085TIP3    H236197   0.909   2.164   1.660
12086TIP3   OH236198   1.238   6.016   6.146
12086TIP3    H136199   1.224   6.025   6.240
12086TIP3    H236200   1.223   6.103   6.110
12087TIP3   OH236201   1.872   7.720   0.469
12087TIP3    H136202   1.881   7.809   0.503
12087TIP3    H236203   1.962   7.689   0.458
12088TIP3   OH236204   7.965   0.405   6.706
12088TIP3    H136205   7.909   0.372   6.775
12088TIP3    H236206   7.908   0.463   6.655
12089TIP3   OH236207   3.612   4.355   6.471
12089TIP3    H136208   3.563   4.273   6.469
12089TIP3    H236209   3.669   4.347   6.548
12090TIP3   OH236210   0.698   6.787   2.080
12090TIP3    H136211   0.755   6.814   2.008
12090TIP3    H236212   0.658   6.868   2.110
12091TIP3   OH236213   3.382   1.529   1.831
12091TIP3    H136214   3.388   1.438   1.861
12091TIP3    H236215   3.323   1.571   1.894
12092TIP3   OH236216   8.284   4.267   6.375
12092TIP3    H136217   8.368   4.249   6.418
12092TIP3    H236218   8.225   4.290   6.446
12093TIP3   OH236219   2.697   3.008   3.456
12093TIP3    H136220   2.790   2.994   3.471
12093TIP3    H236221   2.689   3.016   3.361
12094TIP3   OH236222   3.635   5.810   1.684
12094TIP3    H136223   3.584   5.795   1.764
12094TIP3    H236224   3.570   5.835   1.619
12095TIP3   OH236225   1.313   2.543   3.711
12095TIP3    H136226   1.325   2.625   3.758
12095TIP3    H236227   1.237   2.558   3.655
12096TIP3   OH236228   1.077   0.700   3.121
12096TIP3    H136229   1.035   0.617   3.097
12096TIP3    H236230   1.019   0.737   3.188
12097TIP3   OH236231   8.336   1.884   6.528
12097TIP3    H136232   8.241   1.877   6.530
12097TIP3    H236233   8.355   1.914   6.439
12098TIP3   OH236234   1.285   7.495   0.802
12098TIP3    H136235   1.210   7.446   0.767
12098TIP3    H236236   1.350   7.492   0.731
12099TIP3   OH236237   0.086   7.172   2.246
12099TIP3    H136238   0.180   7.160   2.262
12099TIP3    H236239   0.051   7.196   2.332
12100TIP3   OH236240   2.631   4.576   3.722
12100TIP3    H136241   2.695   4.545   3.658
12100TIP3    H236242   2.597   4.657   3.685
12101TIP3   OH236243   4.521   4.187   4.315
12101TIP3    H136244   4.585   4.245   4.274
12101TIP3    H236245   4.492   4.130   4.244
12102TIP3   OH236246   2.651   4.621   5.641
12102TIP3    H136247   2.719   4.622   5.708
12102TIP3    H236248   2.572   4.594   5.687
12103TIP3   OH236249   7.033   4.668   1.933
12103TIP3    H136250   6.956   4.612   1.919
12103TIP3    H236251   7.007   4.727   2.004
12104TIP3   OH236252   1.941   6.448   0.645
12104TIP3    H136253   2.001   6.481   0.578
12104TIP3    H236254   1.989   6.457   0.727
12105TIP3   OH236255   6.529   0.723   2.096
12105TIP3    H136256   6.577   0.795   2.055
12105TIP3    H236257   6.598   0.666   2.131
12106TIP3   OH236258   0.541   7.322   6.519
12106TIP3    H136259   0.593   7.260   6.468
12106TIP3    H236260   0.590   7.331   6.601
12107TIP3   OH236261   7.510   2.681   4.756
12107TIP3    H136262   7.527   2.616   4.823
12107TIP3    H236263   7.597   2.710   4.728
12108TIP3   OH236264   0.556   4.581   6.193
12108TIP3    H136265   0.491   4.608   6.259
12108TIP3    H236266   0.543   4.487   6.185
12109TIP3   OH236267   7.188   0.413   2.989
12109TIP3    H136268   7.273   0.413   2.946
12109TIP3    H236269   7.206   0.442   3.078
12110TIP3   OH236270   3.483   6.257   5.674
12110TIP3    H136271   3.393   6.241   5.702
12110TIP3    H236272   3.490   6.352   5.671
12111TIP3   OH236273   2.207   4.053   5.817
12111TIP3    H136274   2.255   4.051   5.734
12111TIP3    H236275   2.273   4.030   5.883
12112TIP3   OH236276   6.069   5.044   1.784
12112TIP3    H136277   6.040   5.064   1.872
12112TIP3    H236278   5.991   5.010   1.740
12113TIP3   OH236279   4.909   0.886   5.782
12113TIP3    H136280   4.906   0.962   5.839
12113TIP3    H236281   4.842   0.904   5.715
12114TIP3   OH236282   6.377   1.264   2.057
12114TIP3    H136283   6.374   1.292   1.965
12114TIP3    H236284   6.299   1.210   2.069
12115TIP3   OH236285   6.419   1.007   4.100
12115TIP3    H136286   6.340   1.051   4.068
12115TIP3    H236287   6.490   1.044   4.047
12116TIP3   OH236288   7.623   0.272   0.913
12116TIP3    H136289   7.577   0.288   0.830
12116TIP3    H236290   7.701   0.326   0.908
12117TIP3   OH236291   7.030   3.309   4.318
12117TIP3    H136292   7.025   3.299   4.223
12117TIP3    H236293   6.940   3.315   4.347
12118TIP3   OH236294   2.196   6.518   5.192
12118TIP3    H136295   2.214   6.612   5.186
12118TIP3    H236296   2.136   6.501   5.118
12119TIP3   OH236297   5.971   0.752   2.429
12119TIP3    H136298   5.980   0.719   2.340
12119TIP3    H236299   6.018   0.688   2.483
12120TIP3   OH236300   7.732   3.777   6.344
12120TIP3    H136301   7.765   3.762   6.256
12120TIP3    H236302   7.754   3.696   6.391
12121TIP3   OH236303   0.261   0.646   3.991
12121TIP3    H136304   0.339   0.658   3.938
12121TIP3    H236305   0.293   0.611   4.074
12122TIP3   OH236306   5.654   7.911   2.343
12122TIP3    H136307   5.634   7.895   2.435
12122TIP3    H236308   5.573   7.946   2.306
12123TIP3   OH236309   0.658   5.838   1.241
12123TIP3    H136310   0.574   5.792   1.234
12123TIP3    H236311   0.635   5.928   1.262
12124TIP3   OH236312   0.368   1.218   3.535
12124TIP3    H136313   0.350   1.246   3.625
12124TIP3    H236314   0.464   1.216   3.530
12125TIP3   OH236315   8.306   5.106   4.077
12125TIP3    H136316   8.280   5.030   4.025
12125TIP3    H236317   8.292   5.180   4.018
12126TIP3   OH236318   2.910   4.337   1.539
12126TIP3    H136319   2.925   4.348   1.445
12126TIP3    H236320   2.823   4.297   1.545
12127TIP3   OH236321   1.994   5.227   6.466
12127TIP3    H136322   2.053   5.257   6.535
12127TIP3    H236323   2.033   5.262   6.385
12128TIP3   OH236324   6.036   3.965   5.311
12128TIP3    H136325   5.994   3.953   5.226
12128TIP3    H236326   6.067   3.877   5.335
12129TIP3   OH236327   1.396   1.185   2.764
12129TIP3    H136328   1.380   1.100   2.804
12129TIP3    H236329   1.427   1.164   2.675
12130TIP3   OH236330   0.797   0.811   4.763
12130TIP3    H136331   0.767   0.775   4.846
12130TIP3    H236332   0.777   0.905   4.769
12131TIP3   OH236333   8.029   2.003   3.996
12131TIP3    H136334   8.025   2.087   3.950
12131TIP3    H236335   7.965   1.948   3.951
12132TIP3   OH236336   3.313   3.601   1.450
12132TIP3    H136337   3.359   3.585   1.532
12132TIP3    H236338   3.296   3.696   1.451
12133TIP3   OH236339   4.051   1.048   5.575
12133TIP3    H136340   4.125   1.093   5.616
12133TIP3    H236341   4.075   0.955   5.579
12134TIP3   OH236342   8.341   3.893   5.649
12134TIP3    H136343   8.269   3.835   5.672
12134TIP3    H236344   8.323   3.918   5.558
12135TIP3   OH236345   6.073   2.195   3.268
12135TIP3    H136346   6.006   2.127   3.259
12135TIP3    H236347   6.087   2.227   3.179
12136TIP3   OH236348   5.209   1.340   4.249
12136TIP3    H136349   5.184   1.251   4.223
12136TIP3    H236350   5.165   1.396   4.185
12137TIP3   OH236351   7.718   0.181   0.118
12137TIP3    H136352   7.694   0.274   0.118
12137TIP3    H236353   7.730   0.160   0.211
12138TIP3   OH236354   6.962   3.881   2.876
12138TIP3    H136355   7.047   3.854   2.912
12138TIP3    H236356   6.901   3.814   2.906
12139TIP3   OH236357   2.281   7.013   1.992
12139TIP3    H136358   2.238   7.019   1.907
12139TIP3    H236359   2.271   7.100   2.030
12140TIP3   OH236360   1.499   5.112   0.417
12140TIP3    H136361   1.561   5.122   0.489
12140TIP3    H236362   1.551   5.125   0.338
12141TIP3   OH236363   6.935   6.771   1.607
12141TIP3    H136364   6.962   6.742   1.694
12141TIP3    H236365   6.860   6.715   1.586
12142TIP3   OH236366   2.936   1.693   3.688
12142TIP3    H136367   2.844   1.679   3.707
12142TIP3    H236368   2.981   1.676   3.770
12143TIP3   OH236369   5.956   3.579   0.135
12143TIP3    H136370   5.879   3.629   0.161
12143TIP3    H236371   5.931   3.487   0.147
12144TIP3   OH236372   1.321   0.570   2.153
12144TIP3    H136373   1.333   0.481   2.121
12144TIP3    H236374   1.360   0.625   2.085
12145TIP3   OH236375   7.737   6.694   6.339
12145TIP3    H136376   7.812   6.686   6.279
12145TIP3    H236377   7.707   6.604   6.350
12146TIP3   OH236378   2.594   1.956   1.353
12146TIP3    H136379   2.682   1.922   1.345
12146TIP3    H236380   2.538   1.878   1.355
12147TIP3   OH236381   3.659   4.628   3.597
12147TIP3    H136382   3.634   4.568   3.667
12147TIP3    H236383   3.602   4.604   3.524
12148TIP3   OH236384   4.962   6.157   2.744
12148TIP3    H136385   5.048   6.172   2.705
12148TIP3    H236386   4.925   6.244   2.756
12149TIP3   OH236387   8.164   2.261   4.625
12149TIP3    H136388   8.127   2.321   4.561
12149TIP3    H236389   8.101   2.189   4.630
12150TIP3   OH236390   8.227   2.175   6.684
12150TIP3    H136391   8.166   2.185   6.612
12150TIP3    H236392   8.303   2.228   6.659
12151TIP3   OH236393   2.866   5.548   1.151
12151TIP3    H136394   2.951   5.508   1.170
12151TIP3    H236395   2.806   5.509   1.214
12152TIP3   OH236396   8.356   1.770   0.731
12152TIP3    H136397   8.340   1.743   0.640
12152TIP3    H236398   8.442   1.734   0.751
12153TIP3   OH236399   2.386   7.620   2.284
12153TIP3    H136400   2.364   7.581   2.199
12153TIP3    H236401   2.443   7.556   2.326
12154TIP3   OH236402   8.012   7.462   1.574
12154TIP3    H136403   8.022   7.367   1.578
12154TIP3    H236404   8.001   7.489   1.665
12155TIP3   OH236405   6.773   7.145   5.326
12155TIP3    H136406   6.852   7.197   5.316
12155TIP3    H236407   6.735   7.142   5.238
12156TIP3   OH236408   5.363   7.555   5.811
12156TIP3    H136409   5.412   7.550   5.893
12156TIP3    H236410   5.344   7.648   5.800
12157TIP3   OH236411   8.377   7.785   6.623
12157TIP3    H136412   8.356   7.717   6.687
12157TIP3    H236413   8.408   7.859   6.675
12158TIP3   OH236414   6.835   4.036   6.572
12158TIP3    H136415   6.902   4.074   6.628
12158TIP3    H236416   6.866   3.948   6.552
12159TIP3   OH236417   1.722   0.590   6.359
12159TIP3    H136418   1.774   0.511   6.342
12159TIP3    H236419   1.753   0.621   6.444
12160TIP3   OH236420   4.077   6.061   3.551
12160TIP3    H136421   4.018   6.054   3.476
12160TIP3    H236422   4.030   6.019   3.623
12161TIP3   OH236423   8.017   3.997   5.457
12161TIP3    H136424   7.942   3.943   5.432
12161TIP3    H236425   7.979   4.071   5.504
12162TIP3   OH236426   7.682   2.922   5.504
12162TIP3    H136427   7.742   2.861   5.461
12162TIP3    H236428   7.619   2.865   5.549
12163TIP3   OH236429   3.927   1.216   4.352
12163TIP3    H136430   4.012   1.196   4.392
12163TIP3    H236431   3.919   1.311   4.359
12164TIP3   OH236432   2.081   5.473   6.730
12164TIP3    H136433   2.016   5.512   6.788
12164TIP3    H236434   2.153   5.536   6.730
12165TIP3   OH236435   2.902   6.446   2.421
12165TIP3    H136436   2.810   6.473   2.421
12165TIP3    H236437   2.904   6.371   2.361
12166TIP3   OH236438   2.406   5.534   0.636
12166TIP3    H136439   2.359   5.451   0.646
12166TIP3    H236440   2.477   5.514   0.575
12167TIP3   OH236441   0.887   1.272   3.319
12167TIP3    H136442   0.974   1.268   3.279
12167TIP3    H236443   0.836   1.325   3.259
12168TIP3   OH236444   7.005   1.664   0.953
12168TIP3    H136445   7.069   1.659   0.882
12168TIP3    H236446   6.955   1.583   0.946
12169TIP3   OH236447   5.083   7.383   5.492
12169TIP3    H136448   5.086   7.350   5.582
12169TIP3    H236449   5.005   7.439   5.489
12170TIP3   OH236450   0.547   2.386   3.912
12170TIP3    H136451   0.640   2.387   3.890
12170TIP3    H236452   0.521   2.478   3.907
12171TIP3   OH236453   0.793   6.381   6.120
12171TIP3    H136454   0.717   6.324   6.110
12171TIP3    H236455   0.789   6.410   6.211
12172TIP3   OH236456   6.083   2.645   2.815
12172TIP3    H136457   6.012   2.682   2.867
12172TIP3    H236458   6.162   2.688   2.847
12173TIP3   OH236459   6.989   7.545   6.643
12173TIP3    H136460   7.044   7.622   6.628
12173TIP3    H236461   6.901   7.572   6.616
12174TIP3   OH236462   6.479   6.059   2.771
12174TIP3    H136463   6.446   5.970   2.761
12174TIP3    H236464   6.472   6.097   2.683
12175TIP3   OH236465   4.327   3.696   5.563
12175TIP3    H136466   4.265   3.709   5.491
12175TIP3    H236467   4.274   3.664   5.635
12176TIP3   OH236468   0.460   7.259   5.014
12176TIP3    H136469   0.526   7.201   4.974
12176TIP3    H236470   0.404   7.284   4.940
12177TIP3   OH236471   2.426   5.643   4.471
12177TIP3    H136472   2.398   5.698   4.544
12177TIP3    H236473   2.488   5.697   4.422
12178TIP3   OH236474   6.489   5.153   1.356
12178TIP3    H136475   6.405   5.109   1.344
12178TIP3    H236476   6.481   5.232   1.302
12179TIP3   OH236477   1.139   0.618   2.338
12179TIP3    H136478   1.108   0.706   2.315
12179TIP3    H236479   1.201   0.596   2.268
12180TIP3   OH236480   3.237   0.142   1.694
12180TIP3    H136481   3.204   0.124   1.606
12180TIP3    H236482   3.250   0.237   1.695
12181TIP3   OH236483   1.586   3.439   6.484
12181TIP3    H136484   1.606   3.427   6.391
12181TIP3    H236485   1.535   3.361   6.507
12182TIP3   OH236486   0.020   7.527   0.290
12182TIP3    H136487  -0.010   7.471   0.218
12182TIP3    H236488   0.115   7.515   0.291
12183TIP3   OH236489   1.686   0.575   4.433
12183TIP3    H136490   1.659   0.665   4.418
12183TIP3    H236491   1.760   0.562   4.374
12184TIP3   OH236492   1.448   4.360   1.433
12184TIP3    H136493   1.376   4.419   1.408
12184TIP3    H236494   1.409   4.272   1.428
12185TIP3   OH236495   2.111   7.916   5.350
12185TIP3    H136496   2.172   7.867   5.296
12185TIP3    H236497   2.140   7.899   5.440
12186TIP3   OH236498   8.172   1.457   1.814
12186TIP3    H136499   8.252   1.478   1.766
12186TIP3    H236500   8.107   1.440   1.746
12187TIP3   OH236501   0.966   0.344   1.348
12187TIP3    H136502   1.013   0.417   1.308
12187TIP3    H236503   0.956   0.280   1.278
12188TIP3   OH236504   6.814   5.226   2.437
12188TIP3    H136505   6.760   5.227   2.516
12188TIP3    H236506   6.777   5.295   2.382
12189TIP3   OH236507   1.525   7.703   5.664
12189TIP3    H136508   1.547   7.723   5.755
12189TIP3    H236509   1.546   7.611   5.654
12190TIP3   OH236510   1.374   0.235   0.106
12190TIP3    H136511   1.345   0.293   0.177
12190TIP3    H236512   1.299   0.179   0.088
12191TIP3   OH236513   5.984   4.332   4.759
12191TIP3    H136514   5.987   4.241   4.790
12191TIP3    H236515   6.055   4.339   4.696
12192TIP3   OH236516   4.151   2.184   6.596
12192TIP3    H136517   4.112   2.230   6.522
12192TIP3    H236518   4.195   2.108   6.558
12193TIP3   OH236519   3.111   0.877   2.186
12193TIP3    H136520   3.125   0.788   2.218
12193TIP3    H236521   3.188   0.925   2.215
12194TIP3   OH236522   4.602   5.519   4.526
12194TIP3    H136523   4.635   5.441   4.482
12194TIP3    H236524   4.653   5.591   4.488
12195TIP3   OH236525   6.134   4.349   2.190
12195TIP3    H136526   6.192   4.289   2.235
12195TIP3    H236527   6.149   4.332   2.097
12196TIP3   OH236528   8.248   3.118   5.693
12196TIP3    H136529   8.193   3.132   5.616
12196TIP3    H236530   8.283   3.030   5.682
12197TIP3   OH236531   6.353   4.535   4.939
12197TIP3    H136532   6.361   4.612   4.995
12197TIP3    H236533   6.260   4.528   4.920
12198TIP3   OH236534   6.371   0.482   4.183
12198TIP3    H136535   6.295   0.518   4.138
12198TIP3    H236536   6.393   0.403   4.134
12199TIP3   OH236537   2.824   1.502   3.408
12199TIP3    H136538   2.766   1.448   3.354
12199TIP3    H236539   2.829   1.455   3.491
12200TIP3   OH236540   6.835   2.329   0.777
12200TIP3    H136541   6.880   2.398   0.825
12200TIP3    H236542   6.821   2.260   0.842
12201TIP3   OH236543   0.559   7.640   4.890
12201TIP3    H136544   0.646   7.679   4.901
12201TIP3    H236545   0.574   7.546   4.891
12202TIP3   OH236546   5.848   4.923   3.669
12202TIP3    H136547   5.849   4.869   3.748
12202TIP3    H236548   5.782   4.882   3.612
12203TIP3   OH236549   0.349   4.232   3.843
12203TIP3    H136550   0.337   4.149   3.888
12203TIP3    H236551   0.440   4.256   3.861
12204TIP3   OH236552   3.083   5.395   1.323
12204TIP3    H136553   3.140   5.328   1.360
12204TIP3    H236554   3.007   5.397   1.382
12205TIP3   OH236555   4.871   3.907   3.205
12205TIP3    H136556   4.836   3.909   3.116
12205TIP3    H236557   4.794   3.903   3.261
12206TIP3   OH236558   2.385   5.931   5.700
12206TIP3    H136559   2.411   5.868   5.632
12206TIP3    H236560   2.292   5.947   5.683
12207TIP3   OH236561   1.290   4.255   0.617
12207TIP3    H136562   1.228   4.328   0.608
12207TIP3    H236563   1.370   4.296   0.648
12208TIP3   OH236564   7.174   4.281   3.721
12208TIP3    H136565   7.212   4.262   3.807
12208TIP3    H236566   7.226   4.229   3.659
12209TIP3   OH236567   4.150   4.058   6.606
12209TIP3    H136568   4.180   4.043   6.517
12209TIP3    H236569   4.113   4.146   6.605
12210TIP3   OH236570   1.654   2.294   3.754
12210TIP3    H136571   1.677   2.201   3.761
12210TIP3    H236572   1.663   2.315   3.661
12211TIP3   OH236573   4.660   7.664   6.007
12211TIP3    H136574   4.643   7.699   6.094
12211TIP3    H236575   4.627   7.574   6.010
12212TIP3   OH236576   2.323   2.839   4.140
12212TIP3    H136577   2.289   2.877   4.059
12212TIP3    H236578   2.408   2.881   4.152
12213TIP3   OH236579   3.312   0.345   2.275
12213TIP3    H136580   3.218   0.353   2.262
12213TIP3    H236581   3.329   0.389   2.359
12214TIP3   OH236582   5.724   1.543   4.979
12214TIP3    H136583   5.737   1.528   4.886
12214TIP3    H236584   5.787   1.485   5.022
12215TIP3   OH236585   3.124   2.681   5.507
12215TIP3    H136586   3.110   2.636   5.591
12215TIP3    H236587   3.149   2.611   5.447
12216TIP3   OH236588   6.914   7.037   3.870
12216TIP3    H136589   6.940   6.960   3.820
12216TIP3    H236590   6.830   7.013   3.909
12217TIP3   OH236591   1.691   2.746   5.356
12217TIP3    H136592   1.653   2.818   5.305
12217TIP3    H236593   1.626   2.676   5.351
12218TIP3   OH236594   7.936   1.076   2.457
12218TIP3    H136595   7.929   1.171   2.462
12218TIP3    H236596   8.030   1.060   2.446
12219TIP3   OH236597   2.112   0.589   3.456
12219TIP3    H136598   2.127   0.663   3.397
12219TIP3    H236599   2.036   0.544   3.418
12220TIP3   OH236600   7.338   6.336   1.362
12220TIP3    H136601   7.397   6.405   1.394
12220TIP3    H236602   7.251   6.366   1.388
12221TIP3   OH236603   2.613   0.685   4.397
12221TIP3    H136604   2.576   0.773   4.406
12221TIP3    H236605   2.547   0.637   4.348
12222TIP3   OH236606   1.080   3.407   0.134
12222TIP3    H136607   1.062   3.339   0.199
12222TIP3    H236608   1.145   3.368   0.076
12223TIP3   OH236609   0.430   1.886   0.073
12223TIP3    H136610   0.469   1.808   0.113
12223TIP3    H236611   0.357   1.909   0.130
12224TIP3   OH236612   5.879   5.339   3.376
12224TIP3    H136613   5.867   5.283   3.453
12224TIP3    H236614   5.790   5.361   3.349
12225TIP3   OH236615   3.917   7.807   5.197
12225TIP3    H136616   3.996   7.836   5.242
12225TIP3    H236617   3.948   7.756   5.123
12226TIP3   OH236618   3.387   0.752   3.368
12226TIP3    H136619   3.429   0.812   3.306
12226TIP3    H236620   3.389   0.667   3.324
12227TIP3   OH236621   6.174   4.398   0.507
12227TIP3    H136622   6.083   4.422   0.495
12227TIP3    H236623   6.222   4.449   0.442
12228TIP3   OH236624   4.931   3.887   5.783
12228TIP3    H136625   5.017   3.886   5.740
12228TIP3    H236626   4.937   3.818   5.849
12229TIP3   OH236627   0.041   1.931   4.702
12229TIP3    H136628   0.088   1.988   4.642
12229TIP3    H236629  -0.001   1.991   4.764
12230TIP3   OH236630   4.142   5.674   5.598
12230TIP3    H136631   4.083   5.608   5.561
12230TIP3    H236632   4.096   5.757   5.586
12231TIP3   OH236633   1.634   1.707   1.698
12231TIP3    H136634   1.706   1.744   1.649
12231TIP3    H236635   1.625   1.763   1.775
12232TIP3   OH236636   6.913   6.175   1.080
12232TIP3    H136637   6.976   6.237   1.044
12232TIP3    H236638   6.840   6.176   1.018
12233TIP3   OH236639   5.078   1.439   4.778
12233TIP3    H136640   5.113   1.517   4.735
12233TIP3    H236641   5.083   1.370   4.712
12234TIP3   OH236642   3.747   5.842   1.282
12234TIP3    H136643   3.709   5.794   1.208
12234TIP3    H236644   3.733   5.935   1.259
12235TIP3   OH236645   4.942   4.694   1.793
12235TIP3    H136646   4.889   4.615   1.807
12235TIP3    H236647   4.897   4.740   1.721
12236TIP3   OH236648   7.414   1.825   5.306
12236TIP3    H136649   7.417   1.920   5.317
12236TIP3    H236650   7.499   1.802   5.268
12237TIP3   OH236651   0.694   6.518   4.917
12237TIP3    H136652   0.784   6.515   4.883
12237TIP3    H236653   0.697   6.584   4.986
12238TIP3   OH236654   6.765   1.894   4.197
12238TIP3    H136655   6.814   1.888   4.115
12238TIP3    H236656   6.673   1.891   4.170
12239TIP3   OH236657   0.504   2.377   3.043
12239TIP3    H136658   0.482   2.466   3.068
12239TIP3    H236659   0.420   2.333   3.034
12240TIP3   OH236660   2.191   1.649   4.083
12240TIP3    H136661   2.147   1.566   4.096
12240TIP3    H236662   2.123   1.708   4.052
12241TIP3   OH236663   2.517   7.848   2.469
12241TIP3    H136664   2.554   7.822   2.553
12241TIP3    H236665   2.535   7.942   2.463
12242TIP3   OH236666   0.190   3.380   2.750
12242TIP3    H136667   0.095   3.373   2.759
12242TIP3    H236668   0.205   3.473   2.736
12243TIP3   OH236669   2.249   0.540   5.363
12243TIP3    H136670   2.288   0.461   5.326
12243TIP3    H236671   2.323   0.590   5.398
12244TIP3   OH236672   3.737   7.538   2.209
12244TIP3    H136673   3.755   7.451   2.174
12244TIP3    H236674   3.641   7.545   2.207
12245TIP3   OH236675   1.866   0.584   5.804
12245TIP3    H136676   1.934   0.651   5.803
12245TIP3    H236677   1.910   0.504   5.778
12246TIP3   OH236678   6.371   5.927   2.234
12246TIP3    H136679   6.380   5.913   2.140
12246TIP3    H236680   6.436   5.995   2.254
12247TIP3   OH236681   2.161   2.819   3.206
12247TIP3    H136682   2.144   2.913   3.211
12247TIP3    H236683   2.076   2.778   3.222
12248TIP3   OH236684   8.116   6.979   2.795
12248TIP3    H136685   8.165   6.907   2.833
12248TIP3    H236686   8.182   7.043   2.770
12249TIP3   OH236687   4.714   0.102   5.780
12249TIP3    H136688   4.695   0.125   5.689
12249TIP3    H236689   4.647   0.148   5.831
12250TIP3   OH236690   3.509   1.871   3.461
12250TIP3    H136691   3.434   1.921   3.430
12250TIP3    H236692   3.575   1.937   3.482
12251TIP3   OH236693   6.000   2.533   5.097
12251TIP3    H136694   6.052   2.454   5.108
12251TIP3    H236695   6.024   2.566   5.010
12252TIP3   OH236696   6.609   1.157   5.681
12252TIP3    H136697   6.570   1.098   5.745
12252TIP3    H236698   6.638   1.232   5.733
12253TIP3   OH236699   4.568   5.800   1.676
12253TIP3    H136700   4.528   5.722   1.716
12253TIP3    H236701   4.547   5.871   1.736
12254TIP3   OH236702   5.777   5.623   3.986
12254TIP3    H136703   5.753   5.555   3.923
12254TIP3    H236704   5.770   5.705   3.938
12255TIP3   OH236705   1.862   4.604   4.881
12255TIP3    H136706   1.922   4.568   4.946
12255TIP3    H236707   1.799   4.655   4.932
12256TIP3   OH236708   2.603   6.177   5.392
12256TIP3    H136709   2.619   6.088   5.425
12256TIP3    H236710   2.522   6.204   5.435
12257TIP3   OH236711   6.417   1.294   5.268
12257TIP3    H136712   6.440   1.386   5.261
12257TIP3    H236713   6.410   1.278   5.362
12258TIP3   OH236714   6.879   4.721   6.585
12258TIP3    H136715   6.971   4.698   6.595
12258TIP3    H236716   6.837   4.641   6.553
12259TIP3   OH236717   4.475   0.586   0.124
12259TIP3    H136718   4.534   0.522   0.083
12259TIP3    H236719   4.408   0.533   0.166
12260TIP3   OH236720   1.315   7.887   4.840
12260TIP3    H136721   1.339   7.833   4.765
12260TIP3    H236722   1.397   7.899   4.888
12261TIP3   OH236723   0.278   2.370   6.161
12261TIP3    H136724   0.203   2.420   6.192
12261TIP3    H236725   0.247   2.328   6.080
12262TIP3   OH236726   8.048   5.091   4.528
12262TIP3    H136727   8.083   5.069   4.442
12262TIP3    H236728   8.018   5.007   4.563
12263TIP3   OH236729   3.501   7.435   0.169
12263TIP3    H136730   3.499   7.514   0.115
12263TIP3    H236731   3.575   7.385   0.136
12264TIP3   OH236732   3.363   0.731   6.221
12264TIP3    H136733   3.317   0.804   6.179
12264TIP3    H236734   3.320   0.653   6.187
12265TIP3   OH236735   6.383   5.066   6.234
12265TIP3    H136736   6.323   5.004   6.275
12265TIP3    H236737   6.380   5.045   6.141
12266TIP3   OH236738   1.447   5.953   1.890
12266TIP3    H136739   1.363   5.914   1.865
12266TIP3    H236740   1.425   6.039   1.924
12267TIP3   OH236741   6.178   5.341   4.925
12267TIP3    H136742   6.254   5.309   4.877
12267TIP3    H236743   6.185   5.301   5.012
12268TIP3   OH236744   3.505   4.089   6.459
12268TIP3    H136745   3.577   4.039   6.422
12268TIP3    H236746   3.448   4.022   6.499
12269TIP3   OH236747   6.349   5.999   4.321
12269TIP3    H136748   6.303   5.919   4.293
12269TIP3    H236749   6.334   6.003   4.415
12270TIP3   OH236750   2.152   1.325   0.955
12270TIP3    H136751   2.206   1.403   0.939
12270TIP3    H236752   2.215   1.252   0.955
12271TIP3   OH236753   2.649   2.763   1.852
12271TIP3    H136754   2.559   2.793   1.838
12271TIP3    H236755   2.694   2.784   1.770
12272TIP3   OH236756   0.454   4.455   5.622
12272TIP3    H136757   0.362   4.440   5.599
12272TIP3    H236758   0.503   4.409   5.553
12273TIP3   OH236759   6.704   5.919   1.592
12273TIP3    H136760   6.788   5.896   1.632
12273TIP3    H236761   6.712   6.012   1.572
12274TIP3   OH236762   6.338   5.356   6.134
12274TIP3    H136763   6.342   5.327   6.043
12274TIP3    H236764   6.355   5.276   6.185
12275TIP3   OH236765   5.090   3.918   5.089
12275TIP3    H136766   5.149   3.983   5.127
12275TIP3    H236767   5.008   3.928   5.137
12276TIP3   OH236768   4.032   5.033   1.871
12276TIP3    H136769   3.943   5.021   1.904
12276TIP3    H236770   4.073   4.947   1.878
12277TIP3   OH236771   4.147   7.721   4.161
12277TIP3    H136772   4.117   7.661   4.092
12277TIP3    H236773   4.213   7.670   4.209
12278TIP3   OH236774   4.936   7.477   2.393
12278TIP3    H136775   4.902   7.397   2.355
12278TIP3    H236776   4.874   7.500   2.462
12279TIP3   OH236777   3.767   4.250   3.658
12279TIP3    H136778   3.853   4.210   3.649
12279TIP3    H236779   3.738   4.227   3.746
12280TIP3   OH236780   0.368   0.614   4.508
12280TIP3    H136781   0.413   0.698   4.521
12280TIP3    H236782   0.400   0.583   4.423
12281TIP3   OH236783   6.026   7.652   6.310
12281TIP3    H136784   5.954   7.714   6.317
12281TIP3    H236785   6.062   7.668   6.222
12282TIP3   OH236786   1.030   3.122   5.960
12282TIP3    H136787   1.112   3.134   5.912
12282TIP3    H236788   0.970   3.184   5.919
12283TIP3   OH236789   2.109   7.658   0.032
12283TIP3    H136790   2.085   7.682  -0.057
12283TIP3    H236791   2.127   7.564   0.029
12284TIP3   OH236792   2.596   4.788   2.389
12284TIP3    H136793   2.635   4.754   2.308
12284TIP3    H236794   2.546   4.864   2.360
12285TIP3   OH236795   6.047   7.624   3.376
12285TIP3    H136796   5.962   7.603   3.413
12285TIP3    H236797   6.082   7.540   3.346
12286TIP3   OH236798   1.684   0.134   3.582
12286TIP3    H136799   1.671   0.228   3.565
12286TIP3    H236800   1.666   0.092   3.498
12287TIP3   OH236801   4.023   5.895   1.933
12287TIP3    H136802   4.116   5.901   1.913
12287TIP3    H236803   3.994   5.815   1.888
12288TIP3   OH236804   6.043   7.702   6.031
12288TIP3    H136805   6.064   7.792   6.006
12288TIP3    H236806   6.071   7.649   5.956
12289TIP3   OH236807   2.009   3.899   4.025
12289TIP3    H136808   2.047   3.918   4.111
12289TIP3    H236809   2.026   3.978   3.973
12290TIP3   OH236810   2.185   6.825   3.001
12290TIP3    H136811   2.243   6.806   3.076
12290TIP3    H236812   2.097   6.812   3.035
12291TIP3   OH236813   3.702   2.644   2.392
12291TIP3    H136814   3.621   2.607   2.357
12291TIP3    H236815   3.674   2.697   2.467
12292TIP3   OH236816   6.699   1.159   2.182
12292TIP3    H136817   6.656   1.187   2.263
12292TIP3    H236818   6.784   1.203   2.184
12293TIP3   OH236819   4.887   4.781   0.118
12293TIP3    H136820   4.800   4.820   0.119
12293TIP3    H236821   4.880   4.708   0.056
12294TIP3   OH236822   5.913   6.132   0.272
12294TIP3    H136823   5.959   6.216   0.274
12294TIP3    H236824   5.820   6.156   0.278
12295TIP3   OH236825   7.918   5.261   2.710
12295TIP3    H136826   7.919   5.332   2.774
12295TIP3    H236827   8.008   5.228   2.709
12296TIP3   OH236828   1.627   0.955   4.173
12296TIP3    H136829   1.561   0.967   4.241
12296TIP3    H236830   1.707   0.934   4.222
12297TIP3   OH236831   5.611   6.579   5.821
12297TIP3    H136832   5.584   6.547   5.734
12297TIP3    H236833   5.623   6.500   5.873
12298TIP3   OH236834   1.923   5.957   6.867
12298TIP3    H136835   1.874   5.943   6.786
12298TIP3    H236836   1.931   5.870   6.906
12299TIP3   OH236837   5.576   2.883   0.036
12299TIP3    H136838   5.646   2.861   0.097
12299TIP3    H236839   5.607   2.850  -0.049
12300TIP3   OH236840   1.633   1.255   4.847
12300TIP3    H136841   1.686   1.214   4.916
12300TIP3    H236842   1.657   1.208   4.767
12301TIP3   OH236843   8.149   4.987   1.049
12301TIP3    H136844   8.185   5.058   1.102
12301TIP3    H236845   8.137   5.026   0.962
12302TIP3   OH236846   8.060   0.848   4.419
12302TIP3    H136847   8.104   0.831   4.502
12302TIP3    H236848   8.077   0.941   4.401
12303TIP3   OH236849   7.187   6.272   4.829
12303TIP3    H136850   7.166   6.299   4.740
12303TIP3    H236851   7.178   6.352   4.881
12304TIP3   OH236852   6.454   7.140   5.313
12304TIP3    H136853   6.481   7.190   5.235
12304TIP3    H236854   6.476   7.049   5.292
12305TIP3   OH236855   0.604   7.367   5.608
12305TIP3    H136856   0.550   7.396   5.535
12305TIP3    H236857   0.693   7.370   5.575
12306TIP3   OH236858   1.192   2.079   6.732
12306TIP3    H136859   1.174   1.996   6.689
12306TIP3    H236860   1.111   2.129   6.724
12307TIP3   OH236861   7.503   6.564   3.512
12307TIP3    H136862   7.443   6.620   3.561
12307TIP3    H236863   7.553   6.518   3.579
12308TIP3   OH236864   1.214   4.486   0.014
12308TIP3    H136865   1.185   4.566   0.059
12308TIP3    H236866   1.158   4.480  -0.063
12309TIP3   OH236867   6.128   4.761   6.672
12309TIP3    H136868   6.191   4.829   6.694
12309TIP3    H236869   6.046   4.807   6.660
12310TIP3   OH236870   3.248   1.992   2.256
12310TIP3    H136871   3.180   2.032   2.202
12310TIP3    H236872   3.244   2.039   2.339
12311TIP3   OH236873   4.373   2.545   3.485
12311TIP3    H136874   4.377   2.463   3.534
12311TIP3    H236875   4.287   2.544   3.443
12312TIP3   OH236876   6.076   0.840   2.950
12312TIP3    H136877   6.013   0.770   2.932
12312TIP3    H236878   6.080   0.889   2.868
12313TIP3   OH236879   3.754   5.112   6.326
12313TIP3    H136880   3.766   5.020   6.303
12313TIP3    H236881   3.825   5.157   6.280
12314TIP3   OH236882   8.412   1.796   1.915
12314TIP3    H136883   8.345   1.743   1.959
12314TIP3    H236884   8.390   1.791   1.822
12315TIP3   OH236885   0.490   5.727   0.055
12315TIP3    H136886   0.472   5.659   0.119
12315TIP3    H236887   0.406   5.743   0.013
12316TIP3   OH236888   2.834   7.698   2.814
12316TIP3    H136889   2.864   7.614   2.779
12316TIP3    H236890   2.915   7.748   2.828
12317TIP3   OH236891   4.135   6.667   2.754
12317TIP3    H136892   4.101   6.716   2.829
12317TIP3    H236893   4.066   6.603   2.734
12318TIP3   OH236894   6.464   7.643   4.490
12318TIP3    H136895   6.384   7.605   4.455
12318TIP3    H236896   6.504   7.688   4.415
12319TIP3   OH236897   1.504   6.908   4.676
12319TIP3    H136898   1.575   6.858   4.636
12319TIP3    H236899   1.510   6.889   4.769
12320TIP3   OH236900   5.721   3.675   1.643
12320TIP3    H136901   5.757   3.676   1.555
12320TIP3    H236902   5.727   3.583   1.671
12321TIP3   OH236903   1.466   6.521   3.966
12321TIP3    H136904   1.484   6.597   3.912
12321TIP3    H236905   1.552   6.485   3.987
12322TIP3   OH236906   0.313   1.410   0.487
12322TIP3    H136907   0.374   1.415   0.414
12322TIP3    H236908   0.368   1.388   0.562
12323TIP3   OH236909   3.814   4.410   1.930
12323TIP3    H136910   3.751   4.341   1.908
12323TIP3    H236911   3.787   4.485   1.877
12324TIP3   OH236912   5.275   6.613   6.294
12324TIP3    H136913   5.338   6.592   6.364
12324TIP3    H236914   5.290   6.706   6.277
12325TIP3   OH236915   0.728   1.038   6.061
12325TIP3    H136916   0.654   0.985   6.031
12325TIP3    H236917   0.721   1.119   6.009
12326TIP3   OH236918   4.011   4.683   2.783
12326TIP3    H136919   4.080   4.664   2.847
12326TIP3    H236920   3.986   4.597   2.749
12327TIP3   OH236921   7.970   1.754   0.919
12327TIP3    H136922   7.894   1.790   0.874
12327TIP3    H236923   7.934   1.687   0.978
12328TIP3   OH236924   5.708   1.864   6.083
12328TIP3    H136925   5.793   1.826   6.060
12328TIP3    H236926   5.670   1.801   6.144
12329TIP3   OH236927   3.139   2.906   6.175
12329TIP3    H136928   3.049   2.876   6.161
12329TIP3    H236929   3.193   2.846   6.124
12330TIP3   OH236930   0.295   7.831   5.593
12330TIP3    H136931   0.312   7.757   5.535
12330TIP3    H236932   0.322   7.801   5.679
12331TIP3   OH236933   6.441   0.929   5.725
12331TIP3    H136934   6.432   0.839   5.693
12331TIP3    H236935   6.404   0.927   5.813
12332TIP3   OH236936   2.842   2.844   2.972
12332TIP3    H136937   2.801   2.774   2.921
12332TIP3    H236938   2.850   2.807   3.060
12333TIP3   OH236939   1.568   6.183   2.623
12333TIP3    H136940   1.473   6.176   2.612
12333TIP3    H236941   1.585   6.147   2.710
12334TIP3   OH236942   1.083   6.513   2.256
12334TIP3    H136943   1.147   6.571   2.215
12334TIP3    H236944   0.998   6.548   2.227
12335TIP3   OH236945   1.090   5.639   6.257
12335TIP3    H136946   1.121   5.677   6.339
12335TIP3    H236947   1.166   5.644   6.198
12336TIP3   OH236948   3.189   4.647   3.747
12336TIP3    H136949   3.167   4.654   3.840
12336TIP3    H236950   3.123   4.701   3.703
12337TIP3   OH236951   5.340   0.827   3.090
12337TIP3    H136952   5.339   0.845   2.996
12337TIP3    H236953   5.252   0.852   3.120
12338TIP3   OH236954   6.782   5.933   5.532
12338TIP3    H136955   6.761   5.878   5.607
12338TIP3    H236956   6.723   5.902   5.462
12339TIP3   OH236957   2.418   1.551   4.967
12339TIP3    H136958   2.426   1.456   4.971
12339TIP3    H236959   2.484   1.583   5.027
12340TIP3   OH236960   6.680   0.502   4.909
12340TIP3    H136961   6.589   0.532   4.897
12340TIP3    H236962   6.731   0.583   4.911
12341TIP3   OH236963   4.694   5.910   6.774
12341TIP3    H136964   4.650   5.826   6.763
12341TIP3    H236965   4.763   5.911   6.708
12342TIP3   OH236966   2.450   5.655   0.363
12342TIP3    H136967   2.529   5.698   0.394
12342TIP3    H236968   2.461   5.650   0.268
12343TIP3   OH236969   6.048   7.379   5.569
12343TIP3    H136970   6.009   7.463   5.544
12343TIP3    H236971   6.055   7.330   5.487
12344TIP3   OH236972   2.666   7.211   6.842
12344TIP3    H136973   2.636   7.301   6.850
12344TIP3    H236974   2.700   7.205   6.752
12345TIP3   OH236975   5.645   4.672   0.076
12345TIP3    H136976   5.658   4.747   0.017
12345TIP3    H236977   5.734   4.652   0.107
12346TIP3   OH236978   4.395   0.459   2.039
12346TIP3    H136979   4.334   0.532   2.027
12346TIP3    H236980   4.401   0.419   1.952
12347TIP3   OH236981   6.963   2.776   4.547
12347TIP3    H136982   7.056   2.801   4.543
12347TIP3    H236983   6.962   2.686   4.513
12348TIP3   OH236984   0.924   1.666   1.330
12348TIP3    H136985   0.870   1.720   1.386
12348TIP3    H236986   1.007   1.657   1.378
12349TIP3   OH236987   4.307   4.536   4.125
12349TIP3    H136988   4.368   4.585   4.070
12349TIP3    H236989   4.309   4.580   4.210
12350TIP3   OH236990   6.606   4.472   0.610
12350TIP3    H136991   6.513   4.457   0.622
12350TIP3    H236992   6.617   4.567   0.622
12351TIP3   OH236993   2.631   6.668   6.084
12351TIP3    H136994   2.642   6.573   6.090
12351TIP3    H236995   2.645   6.688   5.991
12352TIP3   OH236996   6.608   2.704   1.747
12352TIP3    H136997   6.613   2.641   1.675
12352TIP3    H236998   6.550   2.773   1.715
12353TIP3   OH236999   2.574   6.149   2.383
12353TIP3    H137000   2.519   6.225   2.399
12353TIP3    H237001   2.518   6.088   2.336
12354TIP3   OH237002   2.413   0.761   2.620
12354TIP3    H137003   2.397   0.813   2.541
12354TIP3    H237004   2.505   0.778   2.641
12355TIP3   OH237005   5.653   3.706   6.150
12355TIP3    H137006   5.566   3.745   6.152
12355TIP3    H237007   5.648   3.639   6.082
12356TIP3   OH237008   0.844   2.380   3.148
12356TIP3    H137009   0.748   2.380   3.149
12356TIP3    H237010   0.867   2.420   3.064
12357TIP3   OH237011   0.422   5.347   6.835
12357TIP3    H137012   0.353   5.289   6.804
12357TIP3    H237013   0.480   5.290   6.887
12358TIP3   OH237014   1.785   5.791   1.739
12358TIP3    H137015   1.825   5.729   1.800
12358TIP3    H237016   1.856   5.816   1.680
12359TIP3   OH237017   6.511   4.997   4.140
12359TIP3    H137018   6.497   5.089   4.160
12359TIP3    H237019   6.427   4.955   4.160
12360TIP3   OH237020   8.283   1.989   5.922
12360TIP3    H137021   8.200   1.944   5.939
12360TIP3    H237022   8.265   2.045   5.847
12361TIP3   OH237023   8.147   5.113   2.852
12361TIP3    H137024   8.161   5.020   2.830
12361TIP3    H237025   8.210   5.160   2.798
12362TIP3   OH237026   6.556   3.559   3.358
12362TIP3    H137027   6.630   3.513   3.320
12362TIP3    H237028   6.561   3.539   3.452
12363TIP3   OH237029   7.469   3.186   0.550
12363TIP3    H137030   7.491   3.277   0.567
12363TIP3    H237031   7.419   3.188   0.468
12364TIP3   OH237032   0.353   2.581   2.365
12364TIP3    H137033   0.306   2.553   2.443
12364TIP3    H237034   0.360   2.676   2.375
12365TIP3   OH237035   0.012   0.264   1.623
12365TIP3    H137036  -0.050   0.314   1.676
12365TIP3    H237037   0.097   0.304   1.640
12366TIP3   OH237038   1.837   3.330   2.866
12366TIP3    H137039   1.877   3.417   2.870
12366TIP3    H237040   1.755   3.343   2.818
12367TIP3   OH237041   0.717   4.170   2.201
12367TIP3    H137042   0.666   4.090   2.211
12367TIP3    H237043   0.801   4.141   2.166
12368TIP3   OH237044   4.981   0.325   2.908
12368TIP3    H137045   4.894   0.357   2.934
12368TIP3    H237046   4.986   0.345   2.814
12369TIP3   OH237047   6.147   5.652   1.517
12369TIP3    H137048   6.069   5.691   1.557
12369TIP3    H237049   6.167   5.708   1.443
12370TIP3   OH237050   1.534   6.809   2.988
12370TIP3    H137051   1.604   6.867   2.955
12370TIP3    H237052   1.545   6.811   3.083
12371TIP3   OH237053   1.026   6.888   0.910
12371TIP3    H137054   1.001   6.980   0.921
12371TIP3    H237055   1.056   6.882   0.819
12372TIP3   OH237056   5.721   3.798   0.198
12372TIP3    H137057   5.804   3.828   0.235
12372TIP3    H237058   5.724   3.824   0.106
12373TIP3   OH237059   3.429   5.402   0.191
12373TIP3    H137060   3.520   5.376   0.206
12373TIP3    H237061   3.380   5.360   0.261
12374TIP3   OH237062   4.888   6.172   2.476
12374TIP3    H137063   4.900   6.199   2.567
12374TIP3    H237064   4.973   6.188   2.435
12375TIP3   OH237065   4.457   3.957   4.905
12375TIP3    H137066   4.476   3.959   4.998
12375TIP3    H237067   4.522   3.896   4.869
12376TIP3   OH237068   3.931   5.718   3.328
12376TIP3    H137069   3.993   5.653   3.360
12376TIP3    H237070   3.884   5.747   3.406
12377TIP3   OH237071   3.711   3.987   5.163
12377TIP3    H137072   3.665   4.069   5.183
12377TIP3    H237073   3.728   3.992   5.069
12378TIP3   OH237074   2.311   1.435   6.339
12378TIP3    H137075   2.248   1.384   6.390
12378TIP3    H237076   2.387   1.445   6.396
12379TIP3   OH237077   5.345   4.886   4.557
12379TIP3    H137078   5.379   4.858   4.642
12379TIP3    H237079   5.399   4.961   4.532
12380TIP3   OH237080   2.104   7.319   6.691
12380TIP3    H137081   2.130   7.267   6.768
12380TIP3    H237082   2.061   7.256   6.634
12381TIP3   OH237083   7.754   2.800   4.412
12381TIP3    H137084   7.824   2.776   4.352
12381TIP3    H237085   7.690   2.729   4.405
12382TIP3   OH237086   2.154   2.812   1.068
12382TIP3    H137087   2.143   2.733   1.014
12382TIP3    H237088   2.109   2.880   1.019
12383TIP3   OH237089   1.620   6.880   1.569
12383TIP3    H137090   1.546   6.898   1.511
12383TIP3    H237091   1.697   6.900   1.515
12384TIP3   OH237092   0.217   3.090   1.508
12384TIP3    H137093   0.275   3.135   1.570
12384TIP3    H237094   0.175   3.161   1.459
12385TIP3   OH237095   0.381   5.570   1.878
12385TIP3    H137096   0.309   5.632   1.872
12385TIP3    H237097   0.340   5.487   1.902
12386TIP3   OH237098   7.441   2.511   6.143
12386TIP3    H137099   7.482   2.463   6.071
12386TIP3    H237100   7.364   2.553   6.105
12387TIP3   OH237101   7.081   6.078   4.582
12387TIP3    H137102   6.986   6.088   4.579
12387TIP3    H237103   7.110   6.097   4.493
12388TIP3   OH237104   7.979   6.382   3.866
12388TIP3    H137105   7.932   6.360   3.786
12388TIP3    H237106   7.934   6.333   3.934
12389TIP3   OH237107   6.682   7.206   2.782
12389TIP3    H137108   6.672   7.120   2.823
12389TIP3    H237109   6.740   7.254   2.842
12390TIP3   OH237110   7.918   0.673   0.550
12390TIP3    H137111   7.823   0.665   0.559
12390TIP3    H237112   7.935   0.667   0.456
12391TIP3   OH237113   1.168   3.200   2.172
12391TIP3    H137114   1.184   3.169   2.261
12391TIP3    H237115   1.242   3.166   2.121
12392TIP3   OH237116   4.358   1.373   4.584
12392TIP3    H137117   4.411   1.409   4.655
12392TIP3    H237118   4.326   1.450   4.536
12393TIP3   OH237119   4.806   6.884   0.152
12393TIP3    H137120   4.766   6.807   0.113
12393TIP3    H237121   4.732   6.941   0.174
12394TIP3   OH237122   1.680   5.079   0.638
12394TIP3    H137123   1.776   5.076   0.649
12394TIP3    H237124   1.649   5.124   0.717
12395TIP3   OH237125   6.634   2.600   0.615
12395TIP3    H137126   6.579   2.530   0.577
12395TIP3    H237127   6.723   2.575   0.592
12396TIP3   OH237128   6.299   0.490   5.860
12396TIP3    H137129   6.304   0.452   5.948
12396TIP3    H237130   6.273   0.417   5.804
12397TIP3   OH237131   3.765   4.870   0.009
12397TIP3    H137132   3.801   4.804   0.068
12397TIP3    H237133   3.674   4.879   0.036
12398TIP3   OH237134   5.519   7.288   3.115
12398TIP3    H137135   5.573   7.221   3.073
12398TIP3    H237136   5.492   7.346   3.043
12399TIP3   OH237137   1.039   2.261   4.128
12399TIP3    H137138   1.007   2.186   4.077
12399TIP3    H237139   0.961   2.314   4.145
12400TIP3   OH237140   7.359   0.913   4.706
12400TIP3    H137141   7.320   0.963   4.777
12400TIP3    H237142   7.367   0.824   4.740
12401TIP3   OH237143   6.690   3.333   5.156
12401TIP3    H137144   6.757   3.266   5.168
12401TIP3    H237145   6.623   3.311   5.222
12402TIP3   OH237146   0.124   1.541   3.613
12402TIP3    H137147   0.190   1.556   3.680
12402TIP3    H237148   0.054   1.602   3.634
12403TIP3   OH237149   2.573   1.632   6.087
12403TIP3    H137150   2.519   1.553   6.081
12403TIP3    H237151   2.597   1.637   6.179
12404TIP3   OH237152   4.637   1.933   5.194
12404TIP3    H137153   4.706   1.994   5.219
12404TIP3    H237154   4.586   1.920   5.274
12405TIP3   OH237155   4.480   0.786   2.213
12405TIP3    H137156   4.405   0.756   2.264
12405TIP3    H237157   4.530   0.842   2.273
12406TIP3   OH237158   5.067   7.700   6.090
12406TIP3    H137159   5.060   7.761   6.016
12406TIP3    H237160   5.161   7.690   6.105
12407TIP3   OH237161   1.613   3.512   4.879
12407TIP3    H137162   1.677   3.577   4.848
12407TIP3    H237163   1.550   3.563   4.929
12408TIP3   OH237164   6.085   1.009   4.611
12408TIP3    H137165   6.003   1.043   4.577
12408TIP3    H237166   6.140   1.087   4.625
12409TIP3   OH237167   7.411   3.719   3.698
12409TIP3    H137168   7.327   3.756   3.727
12409TIP3    H237169   7.449   3.787   3.642
12410TIP3   OH237170   0.553   7.188   4.476
12410TIP3    H137171   0.521   7.132   4.547
12410TIP3    H237172   0.520   7.146   4.396
12411TIP3   OH237173   6.250   7.108   2.614
12411TIP3    H137174   6.197   7.084   2.538
12411TIP3    H237175   6.240   7.203   2.621
12412TIP3   OH237176   5.295   4.140   6.410
12412TIP3    H137177   5.237   4.077   6.453
12412TIP3    H237178   5.311   4.103   6.324
12413TIP3   OH237179   2.901   2.192   2.775
12413TIP3    H137180   2.828   2.131   2.789
12413TIP3    H237181   2.968   2.140   2.731
12414TIP3   OH237182   0.710   3.115   5.670
12414TIP3    H137183   0.800   3.102   5.699
12414TIP3    H237184   0.656   3.088   5.744
12415TIP3   OH237185   0.896   7.897   2.327
12415TIP3    H137186   0.894   7.849   2.410
12415TIP3    H237187   0.922   7.986   2.352
12416TIP3   OH237188   8.037   5.517   0.106
12416TIP3    H137189   8.059   5.424   0.115
12416TIP3    H237190   8.063   5.556   0.190
12417TIP3   OH237191   4.789   4.326   0.769
12417TIP3    H137192   4.806   4.403   0.714
12417TIP3    H237193   4.851   4.334   0.841
12418TIP3   OH237194   7.093   2.812   0.839
12418TIP3    H137195   7.184   2.837   0.823
12418TIP3    H237196   7.075   2.843   0.928
12419TIP3   OH237197   1.307   4.077   3.258
12419TIP3    H137198   1.377   4.082   3.193
12419TIP3    H237199   1.351   4.051   3.339
12420TIP3   OH237200   4.640   0.125   1.290
12420TIP3    H137201   4.643   0.168   1.376
12420TIP3    H237202   4.685   0.042   1.304
12421TIP3   OH237203   6.291   4.971   6.740
12421TIP3    H137204   6.325   5.009   6.659
12421TIP3    H237205   6.274   5.047   6.796
12422TIP3   OH237206   1.807   0.016   3.324
12422TIP3    H137207   1.859  -0.029   3.257
12422TIP3    H237208   1.787   0.101   3.286
12423TIP3   OH237209   4.015   6.840   4.977
12423TIP3    H137210   4.007   6.932   5.001
12423TIP3    H237211   3.927   6.815   4.948
12424TIP3   OH237212   4.047   6.919   0.161
12424TIP3    H137213   3.968   6.893   0.208
12424TIP3    H237214   4.100   6.966   0.225
12425TIP3   OH237215   1.827   6.907   0.862
12425TIP3    H137216   1.780   6.903   0.779
12425TIP3    H237217   1.894   6.839   0.855
12426TIP3   OH237218   7.295   2.307   1.066
12426TIP3    H137219   7.276   2.379   1.007
12426TIP3    H237220   7.304   2.348   1.152
12427TIP3   OH237221   2.389   3.530   2.194
12427TIP3    H137222   2.324   3.478   2.242
12427TIP3    H237223   2.340   3.606   2.162
12428TIP3   OH237224   3.433   7.819   0.318
12428TIP3    H137225   3.387   7.801   0.236
12428TIP3    H237226   3.427   7.914   0.328
12429TIP3   OH237227   7.764   3.566   0.639
12429TIP3    H137228   7.854   3.533   0.633
12429TIP3    H237229   7.755   3.590   0.732
12430TIP3   OH237230   5.153   4.604   5.647
12430TIP3    H137231   5.099   4.672   5.687
12430TIP3    H237232   5.226   4.592   5.708
12431TIP3   OH237233   2.083   1.914   1.433
12431TIP3    H137234   2.024   1.950   1.367
12431TIP3    H237235   2.142   1.986   1.454
12432TIP3   OH237236   3.687   5.192   3.740
12432TIP3    H137237   3.626   5.121   3.758
12432TIP3    H237238   3.638   5.272   3.760
12433TIP3   OH237239   4.443   0.318   5.905
12433TIP3    H137240   4.370   0.263   5.934
12433TIP3    H237241   4.499   0.326   5.982
12434TIP3   OH237242   6.112   2.627   4.854
12434TIP3    H137243   6.158   2.570   4.792
12434TIP3    H237244   6.073   2.695   4.800
12435TIP3   OH237245   2.399   5.955   2.778
12435TIP3    H137246   2.374   5.864   2.762
12435TIP3    H237247   2.462   5.951   2.850
12436TIP3   OH237248   3.124   6.832   6.729
12436TIP3    H137249   3.160   6.908   6.775
12436TIP3    H237250   3.151   6.757   6.782
12437TIP3   OH237251   0.258   5.063   6.240
12437TIP3    H137252   0.271   4.974   6.205
12437TIP3    H237253   0.297   5.120   6.174
12438TIP3   OH237254   7.862   4.611   1.054
12438TIP3    H137255   7.935   4.563   1.093
12438TIP3    H237256   7.833   4.555   0.982
12439TIP3   OH237257   4.199   4.553   5.973
12439TIP3    H137258   4.279   4.508   5.945
12439TIP3    H237259   4.231   4.628   6.024
12440TIP3   OH237260   1.128   7.045   5.978
12440TIP3    H137261   1.123   7.131   5.936
12440TIP3    H237262   1.164   6.988   5.910
12441TIP3   OH237263   3.765   3.164   4.756
12441TIP3    H137264   3.772   3.102   4.684
12441TIP3    H237265   3.679   3.204   4.747
12442TIP3   OH237266   0.543   4.110   3.337
12442TIP3    H137267   0.556   4.085   3.428
12442TIP3    H237268   0.537   4.205   3.338
12443TIP3   OH237269   6.934   3.818   2.620
12443TIP3    H137270   6.924   3.835   2.714
12443TIP3    H237271   6.897   3.895   2.578
12444TIP3   OH237272   6.816   6.909   4.373
12444TIP3    H137273   6.816   6.910   4.468
12444TIP3    H237274   6.837   6.818   4.350
12445TIP3   OH237275   4.704   2.271   3.422
12445TIP3    H137276   4.620   2.229   3.402
12445TIP3    H237277   4.728   2.314   3.341
12446TIP3   OH237278   1.976   5.961   3.294
12446TIP3    H137279   1.905   5.947   3.231
12446TIP3    H237280   2.004   6.051   3.279
12447TIP3   OH237281   0.173   5.502   6.705
12447TIP3    H137282   0.166   5.452   6.624
12447TIP3    H237283   0.245   5.462   6.753
12448TIP3   OH237284   6.534   5.844   4.515
12448TIP3    H137285   6.452   5.807   4.548
12448TIP3    H237286   6.531   5.829   4.421
12449TIP3   OH237287   2.048   3.128   4.476
12449TIP3    H137288   1.961   3.161   4.454
12449TIP3    H237289   2.108   3.190   4.433
12450TIP3   OH237290   0.278   3.966   2.265
12450TIP3    H137291   0.307   3.992   2.178
12450TIP3    H237292   0.182   3.969   2.261
12451TIP3   OH237293   7.581   7.776   5.323
12451TIP3    H137294   7.492   7.810   5.325
12451TIP3    H237295   7.603   7.771   5.230
12452TIP3   OH237296   7.045   7.183   2.841
12452TIP3    H137297   6.985   7.255   2.821
12452TIP3    H237298   7.084   7.160   2.756
12453TIP3   OH237299   4.752   5.046   4.561
12453TIP3    H137300   4.843   5.048   4.532
12453TIP3    H237301   4.708   4.988   4.498
12454TIP3   OH237302   7.428   5.299   4.125
12454TIP3    H137303   7.473   5.356   4.063
12454TIP3    H237304   7.335   5.316   4.111
12455TIP3   OH237305   6.357   7.015   2.082
12455TIP3    H137306   6.414   6.940   2.097
12455TIP3    H237307   6.414   7.079   2.039
12456TIP3   OH237308   0.085   2.580   5.775
12456TIP3    H137309   0.106   2.621   5.691
12456TIP3    H237310   0.159   2.600   5.831
12457TIP3   OH237311   4.922   3.912   1.013
12457TIP3    H137312   4.980   3.956   0.950
12457TIP3    H237313   4.917   3.972   1.087
12458TIP3   OH237314   7.210   4.994   4.090
12458TIP3    H137315   7.233   4.902   4.095
12458TIP3    H237316   7.283   5.035   4.042
12459TIP3   OH237317   0.420   4.609   3.410
12459TIP3    H137318   0.453   4.543   3.350
12459TIP3    H237319   0.354   4.656   3.360
12460TIP3   OH237320   0.562   7.408   3.928
12460TIP3    H137321   0.653   7.410   3.956
12460TIP3    H237322   0.529   7.496   3.947
12461TIP3   OH237323   0.952   0.147   6.814
12461TIP3    H137324   0.981   0.057   6.797
12461TIP3    H237325   0.897   0.169   6.739
12462TIP3   OH237326   2.796   5.720   1.410
12462TIP3    H137327   2.774   5.633   1.377
12462TIP3    H237328   2.738   5.780   1.362
12463TIP3   OH237329   1.799   0.196   0.812
12463TIP3    H137330   1.887   0.179   0.779
12463TIP3    H237331   1.777   0.118   0.863
12464TIP3   OH237332   3.587   2.382   0.310
12464TIP3    H137333   3.573   2.441   0.384
12464TIP3    H237334   3.499   2.355   0.283
12465TIP3   OH237335   0.155   7.908   4.371
12465TIP3    H137336   0.153   7.816   4.399
12465TIP3    H237337   0.246   7.934   4.380
12466TIP3   OH237338   4.996   3.500   1.830
12466TIP3    H137339   4.922   3.527   1.776
12466TIP3    H237340   5.057   3.574   1.826
12467TIP3   OH237341   6.469   3.903   0.766
12467TIP3    H137342   6.485   3.839   0.697
12467TIP3    H237343   6.373   3.908   0.772
12468TIP3   OH237344   1.811   0.927   5.367
12468TIP3    H137345   1.843   0.857   5.309
12468TIP3    H237346   1.858   1.005   5.337
12469TIP3   OH237347   0.639   7.826   2.208
12469TIP3    H137348   0.615   7.791   2.294
12469TIP3    H237349   0.732   7.847   2.216
12470TIP3   OH237350   2.341   4.666   6.163
12470TIP3    H137351   2.338   4.676   6.258
12470TIP3    H237352   2.296   4.583   6.146
12471TIP3   OH237353   8.023   0.781   1.981
12471TIP3    H137354   8.080   0.853   1.955
12471TIP3    H237355   8.083   0.712   2.010
12472TIP3   OH237356   2.076   7.063   6.550
12472TIP3    H137357   2.138   7.056   6.477
12472TIP3    H237358   2.094   6.986   6.603
12473TIP3   OH237359   2.033   2.340   4.757
12473TIP3    H137360   2.108   2.311   4.808
12473TIP3    H237361   2.068   2.353   4.668
12474TIP3   OH237362   2.329   6.346   4.465
12474TIP3    H137363   2.318   6.403   4.541
12474TIP3    H237364   2.269   6.273   4.481
12475TIP3   OH237365   4.480   6.691   0.217
12475TIP3    H137366   4.415   6.677   0.147
12475TIP3    H237367   4.558   6.645   0.187
12476TIP3   OH237368   7.749   4.815   2.253
12476TIP3    H137369   7.682   4.882   2.266
12476TIP3    H237370   7.716   4.762   2.180
12477TIP3   OH237371   5.992   0.236   5.078
12477TIP3    H137372   5.957   0.236   4.988
12477TIP3    H237373   6.060   0.169   5.077
12478TIP3   OH237374   7.262   7.458   2.533
12478TIP3    H137375   7.354   7.454   2.560
12478TIP3    H237376   7.251   7.382   2.476
12479TIP3   OH237377   1.805   0.258   1.165
12479TIP3    H137378   1.786   0.189   1.102
12479TIP3    H237379   1.884   0.300   1.131
12480TIP3   OH237380   5.053   2.848   6.588
12480TIP3    H137381   5.042   2.942   6.602
12480TIP3    H237382   4.966   2.811   6.600
12481TIP3   OH237383   1.413   1.970   1.392
12481TIP3    H137384   1.432   2.060   1.367
12481TIP3    H237385   1.427   1.967   1.487
12482TIP3   OH237386   0.191   7.045   6.628
12482TIP3    H137387   0.215   6.964   6.583
12482TIP3    H237388   0.103   7.065   6.595
12483TIP3   OH237389   8.426   0.686   2.986
12483TIP3    H137390   8.332   0.692   2.970
12483TIP3    H237391   8.455   0.777   2.996
12484TIP3   OH237392   4.198   7.260   6.323
12484TIP3    H137393   4.285   7.298   6.338
12484TIP3    H237394   4.174   7.289   6.235
12485TIP3   OH237395   7.795   5.028   2.637
12485TIP3    H137396   7.824   5.112   2.674
12485TIP3    H237397   7.710   5.012   2.677
12486TIP3   OH237398   2.682   4.651   6.358
12486TIP3    H137399   2.630   4.731   6.350
12486TIP3    H237400   2.698   4.642   6.452
12487TIP3   OH237401   3.888   3.912   3.585
12487TIP3    H137402   3.856   3.830   3.547
12487TIP3    H237403   3.885   3.898   3.679
12488TIP3   OH237404   4.928   2.064   3.331
12488TIP3    H137405   4.942   2.078   3.237
12488TIP3    H237406   4.836   2.089   3.345
12489TIP3   OH237407   3.767   7.332   6.203
12489TIP3    H137408   3.691   7.373   6.162
12489TIP3    H237409   3.828   7.317   6.131
12490TIP3   OH237410   7.705   4.135   1.275
12490TIP3    H137411   7.701   4.155   1.369
12490TIP3    H237412   7.788   4.089   1.264
12491TIP3   OH237413   0.616   4.246   6.304
12491TIP3    H137414   0.672   4.274   6.231
12491TIP3    H237415   0.616   4.321   6.364
12492TIP3   OH237416   1.726   2.461   2.323
12492TIP3    H137417   1.743   2.550   2.292
12492TIP3    H237418   1.737   2.406   2.245
12493TIP3   OH237419   7.080   1.207   5.364
12493TIP3    H137420   7.098   1.300   5.354
12493TIP3    H237421   6.990   1.203   5.395
12494TIP3   OH237422   3.819   4.410   0.953
12494TIP3    H137423   3.904   4.366   0.950
12494TIP3    H237424   3.759   4.345   0.989
12495TIP3   OH237425   7.712   5.243   5.671
12495TIP3    H137426   7.724   5.250   5.577
12495TIP3    H237427   7.621   5.214   5.682
12496TIP3   OH237428   7.798   4.630   3.751
12496TIP3    H137429   7.830   4.576   3.823
12496TIP3    H237430   7.709   4.656   3.777
12497TIP3   OH237431   8.064   5.535   5.513
12497TIP3    H137432   8.082   5.452   5.470
12497TIP3    H237433   8.151   5.574   5.528
12498TIP3   OH237434   4.237   3.471   0.687
12498TIP3    H137435   4.299   3.544   0.681
12498TIP3    H237436   4.227   3.440   0.597
12499TIP3   OH237437   8.314   6.391   4.575
12499TIP3    H137438   8.331   6.351   4.660
12499TIP3    H237439   8.385   6.453   4.562
12500TIP3   OH237440   5.444   3.395   2.857
12500TIP3    H137441   5.422   3.317   2.807
12500TIP3    H237442   5.425   3.372   2.948
12501TIP3   OH237443   6.539   5.253   6.421
12501TIP3    H137444   6.630   5.278   6.438
12501TIP3    H237445   6.545   5.185   6.354
12502TIP3   OH237446   6.422   5.637   2.953
12502TIP3    H137447   6.449   5.642   3.045
12502TIP3    H237448   6.469   5.708   2.910
12503TIP3   OH237449   5.854   1.060   4.830
12503TIP3    H137450   5.794   1.135   4.823
12503TIP3    H237451   5.835   1.007   4.752
12504TIP3   OH237452   7.019   4.984   1.203
12504TIP3    H137453   6.961   4.972   1.128
12504TIP3    H237454   6.992   5.067   1.242
12505TIP3   OH237455   3.009   0.565   1.543
12505TIP3    H137456   2.937   0.538   1.600
12505TIP3    H237457   2.971   0.631   1.485
12506TIP3   OH237458   2.715   3.000   6.049
12506TIP3    H137459   2.732   2.958   5.965
12506TIP3    H237460   2.761   2.945   6.113
12507TIP3   OH237461   6.498   3.715   0.525
12507TIP3    H137462   6.473   3.654   0.456
12507TIP3    H237463   6.438   3.788   0.515
12508TIP3   OH237464   0.897   2.439   2.644
12508TIP3    H137465   0.805   2.466   2.637
12508TIP3    H237466   0.894   2.345   2.661
12509TIP3   OH237467   1.501   2.492   0.485
12509TIP3    H137468   1.584   2.496   0.436
12509TIP3    H237469   1.439   2.454   0.424
12510TIP3   OH237470   4.551   4.096   2.637
12510TIP3    H137471   4.578   4.141   2.717
12510TIP3    H237472   4.484   4.035   2.665
12511TIP3   OH237473   7.710   5.285   0.598
12511TIP3    H137474   7.624   5.256   0.630
12511TIP3    H237475   7.690   5.344   0.525
12512TIP3   OH237476   4.096   1.910   0.365
12512TIP3    H137477   4.156   1.936   0.434
12512TIP3    H237478   4.012   1.951   0.389
12513TIP3   OH237479   7.197   1.565   6.714
12513TIP3    H137480   7.236   1.639   6.761
12513TIP3    H237481   7.176   1.502   6.784
12514TIP3   OH237482   1.584   5.643   1.158
12514TIP3    H137483   1.673   5.609   1.144
12514TIP3    H237484   1.588   5.686   1.243
12515TIP3   OH237485   1.551   7.702   5.947
12515TIP3    H137486   1.474   7.645   5.949
12515TIP3    H237487   1.618   7.652   5.994
12516TIP3   OH237488   6.339   4.610   1.132
12516TIP3    H137489   6.343   4.629   1.038
12516TIP3    H237490   6.345   4.695   1.174
12517TIP3   OH237491   6.754   3.930   6.186
12517TIP3    H137492   6.772   3.928   6.280
12517TIP3    H237493   6.797   4.009   6.155
12518TIP3   OH237494   7.726   2.352   0.393
12518TIP3    H137495   7.692   2.389   0.311
12518TIP3    H237496   7.650   2.351   0.451
12519TIP3   OH237497   7.524   1.366   0.577
12519TIP3    H137498   7.603   1.315   0.559
12519TIP3    H237499   7.453   1.312   0.543
12520TIP3   OH237500   1.444   0.128   4.973
12520TIP3    H137501   1.404   0.070   4.909
12520TIP3    H237502   1.371   0.157   5.028
12521TIP3   OH237503   0.595   5.642   3.114
12521TIP3    H137504   0.655   5.568   3.121
12521TIP3    H237505   0.650   5.719   3.128
12522TIP3   OH237506   6.404   2.074   4.533
12522TIP3    H137507   6.479   2.112   4.487
12522TIP3    H237508   6.423   2.086   4.626
12523TIP3   OH237509   1.214   2.816   4.901
12523TIP3    H137510   1.285   2.855   4.951
12523TIP3    H237511   1.148   2.885   4.894
12524TIP3   OH237512   3.702   0.328   5.869
12524TIP3    H137513   3.675   0.418   5.888
12524TIP3    H237514   3.644   0.300   5.798
12525TIP3   OH237515   3.091   6.609   1.649
12525TIP3    H137516   3.175   6.574   1.617
12525TIP3    H237517   3.112   6.697   1.680
12526TIP3   OH237518   2.686   1.753   4.727
12526TIP3    H137519   2.726   1.839   4.712
12526TIP3    H237520   2.667   1.720   4.639
12527TIP3   OH237521   3.358   5.177  -0.031
12527TIP3    H137522   3.316   5.180   0.055
12527TIP3    H237523   3.428   5.113  -0.021
12528TIP3   OH237524   2.029   5.397   2.934
12528TIP3    H137525   2.121   5.390   2.961
12528TIP3    H237526   1.979   5.376   3.012
12529TIP3   OH237527   5.346   4.091   6.812
12529TIP3    H137528   5.282   4.080   6.741
12529TIP3    H237529   5.392   4.008   6.817
12530TIP3   OH237530   6.571   6.248   5.310
12530TIP3    H137531   6.598   6.229   5.221
12530TIP3    H237532   6.575   6.344   5.316
12531TIP3   OH237533   3.510   4.079   0.292
12531TIP3    H137534   3.464   4.030   0.223
12531TIP3    H237535   3.581   4.124   0.246
12532TIP3   OH237536   0.337   0.496   4.251
12532TIP3    H137537   0.250   0.533   4.267
12532TIP3    H237538   0.333   0.409   4.290
12533TIP3   OH237539   1.875   6.476   5.024
12533TIP3    H137540   1.822   6.518   5.092
12533TIP3    H237541   1.902   6.548   4.967
12534TIP3   OH237542   3.675   2.161   3.210
12534TIP3    H137543   3.595   2.169   3.157
12534TIP3    H237544   3.645   2.172   3.300
12535TIP3   OH237545   0.570   2.238   4.402
12535TIP3    H137546   0.554   2.294   4.326
12535TIP3    H237547   0.640   2.179   4.373
12536TIP3   OH237548   1.117   0.598   1.292
12536TIP3    H137549   1.135   0.587   1.199
12536TIP3    H237550   1.202   0.586   1.335
12537TIP3   OH237551   0.484   5.054   0.073
12537TIP3    H137552   0.460   5.145   0.086
12537TIP3    H237553   0.525   5.052  -0.014
12538TIP3   OH237554   5.216   2.132   5.453
12538TIP3    H137555   5.165   2.097   5.526
12538TIP3    H237556   5.194   2.076   5.379
12539TIP3   OH237557   5.316   1.018   2.882
12539TIP3    H137558   5.308   1.058   2.969
12539TIP3    H237559   5.236   1.044   2.836
12540TIP3   OH237560   5.559   1.776   2.805
12540TIP3    H137561   5.464   1.769   2.800
12540TIP3    H237562   5.579   1.863   2.772
12541TIP3   OH237563   1.469   3.308   3.721
12541TIP3    H137564   1.400   3.302   3.787
12541TIP3    H237565   1.495   3.217   3.706
12542TIP3   OH237566   8.258   7.331   1.775
12542TIP3    H137567   8.221   7.419   1.770
12542TIP3    H237568   8.247   7.305   1.866
12543TIP3   OH237569   2.600   0.472   0.383
12543TIP3    H137570   2.535   0.415   0.343
12543TIP3    H237571   2.617   0.539   0.317
12544TIP3   OH237572   1.091   0.087   0.312
12544TIP3    H137573   1.074   0.038   0.231
12544TIP3    H237574   1.122   0.172   0.282
12545TIP3   OH237575   5.548   6.445   1.256
12545TIP3    H137576   5.474   6.440   1.195
12545TIP3    H237577   5.573   6.537   1.256
12546TIP3   OH237578   1.515   4.009   6.751
12546TIP3    H137579   1.573   4.085   6.746
12546TIP3    H237580   1.448   4.025   6.684
12547TIP3   OH237581   4.471   4.970   4.970
12547TIP3    H137582   4.521   4.981   4.889
12547TIP3    H237583   4.380   4.984   4.943
12548TIP3   OH237584   2.177   3.348   1.476
12548TIP3    H137585   2.116   3.302   1.418
12548TIP3    H237586   2.245   3.283   1.494
12549TIP3   OH237587   4.037   3.351   2.612
12549TIP3    H137588   4.042   3.337   2.518
12549TIP3    H237589   4.097   3.423   2.629
12550TIP3   OH237590   1.802   4.964   5.900
12550TIP3    H137591   1.852   4.903   5.954
12550TIP3    H237592   1.796   5.044   5.952
12551TIP3   OH237593   5.134   4.488   6.072
12551TIP3    H137594   5.110   4.400   6.102
12551TIP3    H237595   5.063   4.513   6.013
12552TIP3   OH237596   3.437   6.993   4.175
12552TIP3    H137597   3.415   7.015   4.085
12552TIP3    H237598   3.360   7.017   4.226
12553TIP3   OH237599   2.262   4.819   1.618
12553TIP3    H137600   2.194   4.751   1.623
12553TIP3    H237601   2.310   4.809   1.700
12554TIP3   OH237602   3.548   7.874   0.751
12554TIP3    H137603   3.533   7.942   0.686
12554TIP3    H237604   3.505   7.905   0.830
12555TIP3   OH237605   3.475   5.775   6.649
12555TIP3    H137606   3.451   5.852   6.701
12555TIP3    H237607   3.568   5.790   6.628
12556TIP3   OH237608   6.992   7.306   5.294
12556TIP3    H137609   6.975   7.390   5.338
12556TIP3    H237610   6.976   7.324   5.202
12557TIP3   OH237611   0.968   5.202   4.307
12557TIP3    H137612   0.999   5.284   4.345
12557TIP3    H237613   0.875   5.198   4.330
12558TIP3   OH237614   3.761   0.567   0.701
12558TIP3    H137615   3.688   0.593   0.757
12558TIP3    H237616   3.825   0.637   0.711
12559TIP3   OH237617   5.411   3.246   6.488
12559TIP3    H137618   5.321   3.275   6.474
12559TIP3    H237619   5.407   3.188   6.564
12560TIP3   OH237620   7.103   2.010   0.038
12560TIP3    H137621   7.137   1.925   0.012
12560TIP3    H237622   7.142   2.028   0.123
12561TIP3   OH237623   6.209   4.555   1.489
12561TIP3    H137624   6.291   4.513   1.464
12561TIP3    H237625   6.141   4.492   1.465
12562TIP3   OH237626   0.649   5.558   6.142
12562TIP3    H137627   0.573   5.568   6.200
12562TIP3    H237628   0.658   5.644   6.100
12563TIP3   OH237629   2.222   5.928   2.520
12563TIP3    H137630   2.278   5.889   2.452
12563TIP3    H237631   2.281   5.940   2.595
12564TIP3   OH237632   4.112   5.526   6.096
12564TIP3    H137633   4.119   5.534   6.191
12564TIP3    H237634   4.171   5.592   6.061
12565TIP3   OH237635   6.790   6.442   6.823
12565TIP3    H137636   6.827   6.378   6.883
12565TIP3    H237637   6.696   6.439   6.840
12566TIP3   OH237638   5.172   3.059   0.872
12566TIP3    H137639   5.097   3.103   0.913
12566TIP3    H237640   5.247   3.112   0.895
12567TIP3   OH237641   6.943   0.175   0.858
12567TIP3    H137642   6.900   0.122   0.924
12567TIP3    H237643   6.970   0.113   0.791
12568TIP3   OH237644   1.272   1.288   5.387
12568TIP3    H137645   1.305   1.284   5.297
12568TIP3    H237646   1.299   1.205   5.426
12569TIP3   OH237647   5.768   4.338   5.890
12569TIP3    H137648   5.678   4.314   5.868
12569TIP3    H237649   5.816   4.256   5.888
12570TIP3   OH237650   6.835   0.725   6.205
12570TIP3    H137651   6.897   0.798   6.205
12570TIP3    H237652   6.818   0.708   6.298
12571TIP3   OH237653   0.836   2.606   1.606
12571TIP3    H137654   0.849   2.660   1.528
12571TIP3    H237655   0.823   2.518   1.571
12572TIP3   OH237656   1.608   7.764   2.446
12572TIP3    H137657   1.568   7.680   2.423
12572TIP3    H237658   1.690   7.741   2.488
12573TIP3   OH237659   3.841   5.376   2.049
12573TIP3    H137660   3.882   5.362   1.963
12573TIP3    H237661   3.858   5.294   2.097
12574TIP3   OH237662   7.395   1.611   6.502
12574TIP3    H137663   7.322   1.603   6.563
12574TIP3    H237664   7.360   1.663   6.429
12575TIP3   OH237665   6.187   1.194   3.235
12575TIP3    H137666   6.263   1.196   3.176
12575TIP3    H237667   6.209   1.125   3.298
12576TIP3   OH237668   8.288   5.878   6.115
12576TIP3    H137669   8.362   5.818   6.103
12576TIP3    H237670   8.301   5.915   6.202
12577TIP3   OH237671   1.819   4.523   2.579
12577TIP3    H137672   1.733   4.533   2.621
12577TIP3    H237673   1.881   4.541   2.649
12578TIP3   OH237674   3.865   3.624   4.855
12578TIP3    H137675   3.889   3.685   4.785
12578TIP3    H237676   3.905   3.541   4.830
12579TIP3   OH237677   1.019   5.115   3.253
12579TIP3    H137678   0.955   5.144   3.188
12579TIP3    H237679   1.069   5.046   3.209
12580TIP3   OH237680   7.953   2.750   0.877
12580TIP3    H137681   7.977   2.740   0.969
12580TIP3    H237682   7.868   2.793   0.879
12581TIP3   OH237683   4.811   6.865   4.856
12581TIP3    H137684   4.740   6.904   4.906
12581TIP3    H237685   4.844   6.794   4.911
12582TIP3   OH237686   3.101   3.026   1.833
12582TIP3    H137687   3.014   3.047   1.868
12582TIP3    H237688   3.149   3.109   1.835
12583TIP3   OH237689   7.643   2.610   0.712
12583TIP3    H137690   7.673   2.573   0.795
12583TIP3    H237691   7.723   2.643   0.671
12584TIP3   OH237692   4.965   7.028   0.443
12584TIP3    H137693   4.933   6.938   0.449
12584TIP3    H237694   4.920   7.065   0.367
12585TIP3   OH237695   2.403   7.115   4.240
12585TIP3    H137696   2.450   7.195   4.265
12585TIP3    H237697   2.318   7.146   4.209
12586TIP3   OH237698   2.471   0.619   3.708
12586TIP3    H137699   2.414   0.695   3.700
12586TIP3    H237700   2.452   0.566   3.631
12587TIP3   OH237701   8.301   0.174   3.858
12587TIP3    H137702   8.348   0.171   3.774
12587TIP3    H237703   8.313   0.087   3.895
12588TIP3   OH237704   1.538   7.416   4.976
12588TIP3    H137705   1.599   7.391   5.046
12588TIP3    H237706   1.454   7.428   5.020
12589TIP3   OH237707   5.109   1.884   1.792
12589TIP3    H137708   5.042   1.858   1.856
12589TIP3    H237709   5.192   1.868   1.837
12590TIP3   OH237710   4.989   1.210   5.190
12590TIP3    H137711   4.911   1.156   5.177
12590TIP3    H237712   4.981   1.279   5.125
12591TIP3   OH237713   2.679   1.116   4.695
12591TIP3    H137714   2.592   1.099   4.731
12591TIP3    H237715   2.690   1.211   4.703
12592TIP3   OH237716   5.721   3.680   5.048
12592TIP3    H137717   5.664   3.752   5.021
12592TIP3    H237718   5.665   3.624   5.102
12593TIP3   OH237719   6.922   3.489   1.126
12593TIP3    H137720   6.930   3.400   1.092
12593TIP3    H237721   6.980   3.542   1.071
12594TIP3   OH237722   3.228   7.682   3.942
12594TIP3    H137723   3.158   7.728   3.896
12594TIP3    H237724   3.230   7.595   3.902
12595TIP3   OH237725   4.002   6.385   2.988
12595TIP3    H137726   3.975   6.429   2.907
12595TIP3    H237727   3.935   6.320   3.005
12596TIP3   OH237728   7.571   5.036   4.839
12596TIP3    H137729   7.591   5.125   4.809
12596TIP3    H237730   7.544   5.047   4.930
12597TIP3   OH237731   3.936   1.729   6.065
12597TIP3    H137732   3.943   1.745   5.971
12597TIP3    H237733   3.882   1.801   6.098
12598TIP3   OH237734   3.625   6.095   5.859
12598TIP3    H137735   3.579   6.148   5.794
12598TIP3    H237736   3.684   6.157   5.903
12599TIP3   OH237737   7.714   2.091   2.804
12599TIP3    H137738   7.719   2.025   2.874
12599TIP3    H237739   7.667   2.047   2.733
12600TIP3   OH237740   3.603   0.792   5.817
12600TIP3    H137741   3.569   0.859   5.876
12600TIP3    H237742   3.600   0.832   5.730
12601TIP3   OH237743   0.311   6.620   5.206
12601TIP3    H137744   0.235   6.663   5.245
12601TIP3    H237745   0.315   6.535   5.249
12602TIP3   OH237746   4.866   5.145   3.351
12602TIP3    H137747   4.843   5.135   3.259
12602TIP3    H237748   4.788   5.116   3.399
12603TIP3   OH237749   2.335   3.098   2.536
12603TIP3    H137750   2.373   3.156   2.470
12603TIP3    H237751   2.250   3.137   2.557
12604TIP3   OH237752   1.499   4.255   1.684
12604TIP3    H137753   1.502   4.160   1.677
12604TIP3    H237754   1.485   4.286   1.594
12605TIP3   OH237755   7.782   7.684   5.949
12605TIP3    H137756   7.771   7.763   5.895
12605TIP3    H237757   7.784   7.612   5.885
12606TIP3   OH237758   6.911   4.950   4.672
12606TIP3    H137759   7.004   4.929   4.673
12606TIP3    H237760   6.892   4.980   4.761
12607TIP3   OH237761   2.818   2.072   4.264
12607TIP3    H137762   2.724   2.089   4.266
12607TIP3    H237763   2.833   2.012   4.338
12608TIP3   OH237764   1.212   2.135   3.127
12608TIP3    H137765   1.186   2.165   3.214
12608TIP3    H237766   1.138   2.081   3.097
12609TIP3   OH237767   6.950   6.991   0.496
12609TIP3    H137768   6.903   7.066   0.533
12609TIP3    H237769   6.961   6.931   0.570
12610TIP3   OH237770   3.350   5.203   0.406
12610TIP3    H137771   3.438   5.167   0.408
12610TIP3    H237772   3.305   5.155   0.336
12611TIP3   OH237773   2.965   5.339   4.712
12611TIP3    H137774   3.056   5.341   4.743
12611TIP3    H237775   2.912   5.342   4.792
12612TIP3   OH237776   6.090   4.776   2.840
12612TIP3    H137777   6.150   4.808   2.773
12612TIP3    H237778   6.051   4.856   2.877
12613TIP3   OH237779   1.934   4.158   3.299
12613TIP3    H137780   1.853   4.201   3.328
12613TIP3    H237781   2.004   4.219   3.323
12614TIP3   OH237782   4.820   7.322   3.749
12614TIP3    H137783   4.885   7.314   3.679
12614TIP3    H237784   4.872   7.348   3.826
12615TIP3   OH237785   7.576   1.308   5.106
12615TIP3    H137786   7.620   1.363   5.171
12615TIP3    H237787   7.494   1.282   5.148
12616TIP3   OH237788   7.344   7.624   6.528
12616TIP3    H137789   7.302   7.698   6.485
12616TIP3    H237790   7.431   7.619   6.487
12617TIP3   OH237791   7.192   0.193   6.577
12617TIP3    H137792   7.118   0.134   6.588
12617TIP3    H237793   7.189   0.250   6.653
12618TIP3   OH237794   0.559   4.922   4.654
12618TIP3    H137795   0.558   4.826   4.656
12618TIP3    H237796   0.616   4.944   4.580
12619TIP3   OH237797   6.664   3.835   1.356
12619TIP3    H137798   6.730   3.903   1.355
12619TIP3    H237799   6.713   3.753   1.364
12620TIP3   OH237800   3.489   5.548   1.599
12620TIP3    H137801   3.527   5.518   1.517
12620TIP3    H237802   3.562   5.589   1.645
12621TIP3   OH237803   6.471   2.049   2.120
12621TIP3    H137804   6.470   2.019   2.211
12621TIP3    H237805   6.490   2.143   2.125
12622TIP3   OH237806   8.201   0.591   1.381
12622TIP3    H137807   8.210   0.653   1.309
12622TIP3    H237808   8.156   0.515   1.342
12623TIP3   OH237809   0.169   5.840   6.111
12623TIP3    H137810   0.142   5.860   6.022
12623TIP3    H237811   0.250   5.890   6.123
12624TIP3   OH237812   4.125   0.481   0.575
12624TIP3    H137813   4.163   0.398   0.603
12624TIP3    H237814   4.032   0.461   0.560
12625TIP3   OH237815   2.021   7.208   1.408
12625TIP3    H137816   2.033   7.303   1.403
12625TIP3    H237817   2.108   7.172   1.391
12626TIP3   OH237818   2.026   6.187   6.476
12626TIP3    H137819   2.078   6.127   6.531
12626TIP3    H237820   1.938   6.180   6.511
12627TIP3   OH237821   6.916   3.867   3.853
12627TIP3    H137822   6.935   3.945   3.905
12627TIP3    H237823   6.896   3.901   3.765
12628TIP3   OH237824   7.656   0.969   0.782
12628TIP3    H137825   7.706   0.950   0.861
12628TIP3    H237826   7.680   1.059   0.759
12629TIP3   OH237827   4.778   7.402   0.841
12629TIP3    H137828   4.718   7.465   0.800
12629TIP3    H237829   4.859   7.452   0.854
12630TIP3   OH237830   0.465   6.752   5.421
12630TIP3    H137831   0.407   6.827   5.434
12630TIP3    H237832   0.408   6.683   5.386
12631TIP3   OH237833   0.870   2.655   1.216
12631TIP3    H137834   0.824   2.575   1.244
12631TIP3    H237835   0.838   2.723   1.275
12632TIP3   OH237836   0.407   0.733   2.695
12632TIP3    H137837   0.413   0.825   2.668
12632TIP3    H237838   0.478   0.690   2.648
12633TIP3   OH237839   0.111   0.965   0.733
12633TIP3    H137840   0.118   1.041   0.675
12633TIP3    H237841   0.126   0.890   0.676
12634TIP3   OH237842   6.242   3.339   1.610
12634TIP3    H137843   6.240   3.284   1.688
12634TIP3    H237844   6.289   3.287   1.545
12635TIP3   OH237845   4.453   2.363   5.003
12635TIP3    H137846   4.478   2.440   5.054
12635TIP3    H237847   4.534   2.312   4.996
12636TIP3   OH237848   0.416   1.459   2.903
12636TIP3    H137849   0.334   1.417   2.877
12636TIP3    H237850   0.389   1.541   2.945
12637TIP3   OH237851   3.559   3.587   0.824
12637TIP3    H137852   3.496   3.574   0.753
12637TIP3    H237853   3.644   3.593   0.780
12638TIP3   OH237854   0.506   5.396   2.565
12638TIP3    H137855   0.460   5.350   2.636
12638TIP3    H237856   0.595   5.362   2.568
12639TIP3   OH237857   3.217   7.360   2.422
12639TIP3    H137858   3.201   7.439   2.474
12639TIP3    H237859   3.130   7.327   2.401
12640TIP3   OH237860   1.535   4.847   4.001
12640TIP3    H137861   1.541   4.811   4.090
12640TIP3    H237862   1.510   4.938   4.014
12641TIP3   OH237863   1.566   1.901   0.235
12641TIP3    H137864   1.541   1.872   0.323
12641TIP3    H237865   1.649   1.946   0.247
12642TIP3   OH237866   1.508   7.212   1.379
12642TIP3    H137867   1.431   7.159   1.398
12642TIP3    H237868   1.537   7.244   1.464
12643TIP3   OH237869   7.750   6.405   6.713
12643TIP3    H137870   7.812   6.466   6.673
12643TIP3    H237871   7.675   6.459   6.738
12644TIP3   OH237872   1.376   0.546   3.304
12644TIP3    H137873   1.300   0.494   3.328
12644TIP3    H237874   1.356   0.634   3.339
12645TIP3   OH237875   3.966   3.385   4.735
12645TIP3    H137876   3.924   3.299   4.742
12645TIP3    H237877   4.058   3.365   4.716
12646TIP3   OH237878   2.573   5.139   5.899
12646TIP3    H137879   2.553   5.166   5.809
12646TIP3    H237880   2.491   5.100   5.931
12647TIP3   OH237881   5.399   3.122   3.670
12647TIP3    H137882   5.408   3.126   3.575
12647TIP3    H237883   5.382   3.212   3.697
12648TIP3   OH237884   5.767   7.189   3.824
12648TIP3    H137885   5.846   7.218   3.779
12648TIP3    H237886   5.791   7.188   3.917
12649TIP3   OH237887   0.597   1.301   2.749
12649TIP3    H137888   0.562   1.377   2.795
12649TIP3    H237889   0.548   1.298   2.666
12650TIP3   OH237890   7.017   7.618   1.466
12650TIP3    H137891   7.047   7.694   1.416
12650TIP3    H237892   7.021   7.545   1.404
12651TIP3   OH237893   6.643   4.589   2.342
12651TIP3    H137894   6.586   4.529   2.390
12651TIP3    H237895   6.621   4.574   2.250
12652TIP3   OH237896   8.292   6.532   5.539
12652TIP3    H137897   8.322   6.580   5.617
12652TIP3    H237898   8.372   6.493   5.503
12653TIP3   OH237899   0.384   5.755   2.941
12653TIP3    H137900   0.462   5.799   2.906
12653TIP3    H237901   0.415   5.711   3.020
12654TIP3   OH237902   0.109   0.697   4.775
12654TIP3    H137903   0.065   0.695   4.860
12654TIP3    H237904   0.114   0.605   4.749
12655TIP3   OH237905   3.720   5.650   0.051
12655TIP3    H137906   3.796   5.669  -0.005
12655TIP3    H237907   3.687   5.737   0.076
12656TIP3   OH237908   2.167   1.294   2.452
12656TIP3    H137909   2.201   1.239   2.523
12656TIP3    H237910   2.080   1.321   2.482
12657TIP3   OH237911   6.707   0.364   0.329
12657TIP3    H137912   6.744   0.305   0.394
12657TIP3    H237913   6.735   0.328   0.245
12658TIP3   OH237914   1.391   2.272   1.340
12658TIP3    H137915   1.463   2.323   1.377
12658TIP3    H237916   1.316   2.293   1.395
12659TIP3   OH237917   1.416   6.578   6.335
12659TIP3    H137918   1.487   6.579   6.271
12659TIP3    H237919   1.415   6.667   6.370
12660TIP3   OH237920   1.103   7.079   1.983
12660TIP3    H137921   1.115   6.984   1.979
12660TIP3    H237922   1.126   7.102   2.073
12661TIP3   OH237923   2.633   3.238   6.385
12661TIP3    H137924   2.714   3.265   6.341
12661TIP3    H237925   2.651   3.251   6.478
12662TIP3   OH237926   4.939   3.092   0.332
12662TIP3    H137927   5.028   3.078   0.301
12662TIP3    H237928   4.911   3.174   0.292
12663TIP3   OH237929   0.164   6.659   0.148
12663TIP3    H137930   0.195   6.748   0.158
12663TIP3    H237931   0.194   6.633   0.061
12664TIP3   OH237932   5.735   4.614   3.233
12664TIP3    H137933   5.725   4.571   3.318
12664TIP3    H237934   5.786   4.693   3.253
12665TIP3   OH237935   1.972   7.817   1.358
12665TIP3    H137936   1.973   7.786   1.268
12665TIP3    H237937   1.920   7.751   1.405
12666TIP3   OH237938   1.121   6.866   0.663
12666TIP3    H137939   1.155   6.950   0.634
12666TIP3    H237940   1.066   6.836   0.591
12667TIP3   OH237941   3.369   7.024   0.809
12667TIP3    H137942   3.448   7.024   0.864
12667TIP3    H237943   3.324   6.943   0.832
12668TIP3   OH237944   3.717   6.574   5.408
12668TIP3    H137945   3.649   6.640   5.423
12668TIP3    H237946   3.670   6.500   5.368
12669TIP3   OH237947   5.801   7.122   0.319
12669TIP3    H137948   5.811   7.213   0.347
12669TIP3    H237949   5.891   7.092   0.302
12670TIP3   OH237950   6.161   5.017   4.892
12670TIP3    H137951   6.086   5.060   4.853
12670TIP3    H237952   6.149   5.029   4.987
12671TIP3   OH237953   1.009   4.378   2.264
12671TIP3    H137954   1.004   4.320   2.188
12671TIP3    H237955   1.005   4.466   2.226
12672TIP3   OH237956   5.313   3.313   5.188
12672TIP3    H137957   5.239   3.328   5.129
12672TIP3    H237958   5.334   3.220   5.177
12673TIP3   OH237959   8.335   7.172   4.933
12673TIP3    H137960   8.245   7.157   4.905
12673TIP3    H237961   8.380   7.204   4.855
12674TIP3   OH237962   1.520   4.001   3.054
12674TIP3    H137963   1.611   3.976   3.065
12674TIP3    H237964   1.488   3.943   2.984
12675TIP3   OH237965   3.262   0.421   5.974
12675TIP3    H137966   3.232   0.508   6.000
12675TIP3    H237967   3.182   0.372   5.956
12676TIP3   OH237968   2.737   5.969   5.135
12676TIP3    H137969   2.656   5.945   5.180
12676TIP3    H237970   2.788   5.888   5.133
12677TIP3   OH237971   2.051   6.269   4.225
12677TIP3    H137972   1.975   6.241   4.174
12677TIP3    H237973   2.119   6.285   4.160
12678TIP3   OH237974   4.633   1.923   3.981
12678TIP3    H137975   4.713   1.945   3.933
12678TIP3    H237976   4.565   1.973   3.937
12679TIP3   OH237977   0.003   7.482   2.850
12679TIP3    H137978  -0.021   7.542   2.779
12679TIP3    H237979   0.098   7.471   2.841
12680TIP3   OH237980   1.867   1.832   5.600
12680TIP3    H137981   1.909   1.762   5.549
12680TIP3    H237982   1.939   1.889   5.627
12681TIP3   OH237983   1.788   2.557   1.316
12681TIP3    H137984   1.768   2.649   1.304
12681TIP3    H237985   1.770   2.541   1.409
12682TIP3   OH237986   0.057   1.990   2.111
12682TIP3    H137987   0.016   1.934   2.045
12682TIP3    H237988   0.142   1.950   2.128
12683TIP3   OH237989   4.433   3.593   1.978
12683TIP3    H137990   4.527   3.607   1.988
12683TIP3    H237991   4.394   3.675   2.007
12684TIP3   OH237992   6.483   5.626   3.593
12684TIP3    H137993   6.484   5.591   3.504
12684TIP3    H237994   6.395   5.606   3.626
12685TIP3   OH237995   0.057   0.376   6.102
12685TIP3    H137996   0.061   0.449   6.040
12685TIP3    H237997   0.079   0.415   6.187
12686TIP3   OH237998   4.650   6.143   3.290
12686TIP3    H137999   4.745   6.152   3.287
12686TIP3    H238000   4.620   6.226   3.327
12687TIP3   OH238001   5.537   1.009   3.457
12687TIP3    H138002   5.623   0.975   3.481
12687TIP3    H238003   5.535   1.003   3.361
12688TIP3   OH238004   4.160   5.723   1.531
12688TIP3    H138005   4.139   5.805   1.577
12688TIP3    H238006   4.251   5.734   1.504
12689TIP3   OH238007   5.690   7.532   3.432
12689TIP3    H138008   5.714   7.513   3.341
12689TIP3    H238009   5.668   7.447   3.470
12690TIP3   OH238010   0.296   0.680   0.695
12690TIP3    H138011   0.236   0.716   0.630
12690TIP3    H238012   0.242   0.623   0.749
12691TIP3   OH238013   1.001   2.925   3.119
12691TIP3    H138014   1.091   2.921   3.149
12691TIP3    H238015   1.007   2.949   3.026
12692TIP3   OH238016   6.442   7.146   4.180
12692TIP3    H138017   6.358   7.169   4.220
12692TIP3    H238018   6.442   7.191   4.096
12693TIP3   OH238019   1.209   2.094   4.833
12693TIP3    H138020   1.176   2.004   4.830
12693TIP3    H238021   1.213   2.114   4.927
12694TIP3   OH238022   0.526   2.312   5.061
12694TIP3    H138023   0.574   2.229   5.064
12694TIP3    H238024   0.448   2.297   5.114
12695TIP3   OH238025   7.255   1.322   5.986
12695TIP3    H138026   7.224   1.352   5.900
12695TIP3    H238027   7.177   1.323   6.042
12696TIP3   OH238028   6.917   4.313   4.257
12696TIP3    H138029   6.982   4.359   4.310
12696TIP3    H238030   6.907   4.228   4.301
12697TIP3   OH238031   1.267   0.224   6.112
12697TIP3    H138032   1.206   0.218   6.039
12697TIP3    H238033   1.309   0.309   6.102
12698TIP3   OH238034   8.309   5.830   4.547
12698TIP3    H138035   8.242   5.764   4.566
12698TIP3    H238036   8.385   5.802   4.597
12699TIP3   OH238037   6.890   2.632   0.306
12699TIP3    H138038   6.900   2.547   0.348
12699TIP3    H238039   6.979   2.658   0.284
12700TIP3   OH238040   8.271   4.855   0.513
12700TIP3    H138041   8.288   4.854   0.607
12700TIP3    H238042   8.279   4.947   0.488
12701TIP3   OH238043   1.905   4.979   0.329
12701TIP3    H138044   1.846   4.905   0.346
12701TIP3    H238045   1.905   5.028   0.411
12702TIP3   OH238046   3.626   3.151   5.359
12702TIP3    H138047   3.697   3.148   5.423
12702TIP3    H238048   3.631   3.066   5.314
12703TIP3   OH238049   1.850   4.616   1.983
12703TIP3    H138050   1.878   4.658   1.902
12703TIP3    H238051   1.921   4.634   2.045
12704TIP3   OH238052   8.340   0.098   3.022
12704TIP3    H138053   8.272   0.134   3.080
12704TIP3    H238054   8.421   0.104   3.073
12705TIP3   OH238055   2.116   2.853   1.377
12705TIP3    H138056   2.142   2.764   1.400
12705TIP3    H238057   2.126   2.857   1.282
12706TIP3   OH238058   4.527   2.531   5.198
12706TIP3    H138059   4.606   2.501   5.243
12706TIP3    H238060   4.455   2.505   5.255
12707TIP3   OH238061   0.581   5.211   1.443
12707TIP3    H138062   0.632   5.265   1.504
12707TIP3    H238063   0.506   5.265   1.421
12708TIP3   OH238064   7.666   6.762   5.711
12708TIP3    H138065   7.741   6.813   5.681
12708TIP3    H238066   7.634   6.809   5.788
12709TIP3   OH238067   3.653   0.263   2.410
12709TIP3    H138068   3.570   0.269   2.362
12709TIP3    H238069   3.629   0.227   2.495
12710TIP3   OH238070   8.082   2.239   0.876
12710TIP3    H138071   8.129   2.178   0.819
12710TIP3    H238072   8.109   2.215   0.964
12711TIP3   OH238073   3.146   4.363   1.868
12711TIP3    H138074   3.235   4.396   1.858
12711TIP3    H238075   3.105   4.426   1.928
12712TIP3   OH238076   2.979   1.170   3.173
12712TIP3    H138077   2.909   1.224   3.138
12712TIP3    H238078   3.003   1.212   3.256
12713TIP3   OH238079   8.382   3.815   2.019
12713TIP3    H138080   8.378   3.863   2.102
12713TIP3    H238081   8.407   3.882   1.954
12714TIP3   OH238082   1.159   1.020   2.758
12714TIP3    H138083   1.212   0.966   2.816
12714TIP3    H238084   1.095   1.062   2.815
12715TIP3   OH238085   2.404   7.258   6.402
12715TIP3    H138086   2.370   7.176   6.367
12715TIP3    H238087   2.399   7.248   6.497
12716TIP3   OH238088   5.382   2.556   1.087
12716TIP3    H138089   5.436   2.477   1.079
12716TIP3    H238090   5.365   2.564   1.181
12717TIP3   OH238091   5.543   3.967   0.325
12717TIP3    H138092   5.596   4.031   0.372
12717TIP3    H238093   5.606   3.920   0.270
12718TIP3   OH238094   8.206   0.957   1.924
12718TIP3    H138095   8.236   1.029   1.870
12718TIP3    H238096   8.270   0.887   1.909
12719TIP3   OH238097   0.860   2.097   6.108
12719TIP3    H138098   0.805   2.031   6.151
12719TIP3    H238099   0.915   2.132   6.177
12720TIP3   OH238100   4.297   6.844   0.351
12720TIP3    H138101   4.331   6.901   0.421
12720TIP3    H238102   4.375   6.813   0.305
12721TIP3   OH238103   7.961   4.299   5.139
12721TIP3    H138104   7.911   4.285   5.059
12721TIP3    H238105   7.941   4.389   5.165
12722TIP3   OH238106   2.010   5.328   4.254
12722TIP3    H138107   2.078   5.341   4.188
12722TIP3    H238108   1.943   5.393   4.233
12723TIP3   OH238109   6.337   1.334   0.618
12723TIP3    H138110   6.322   1.325   0.524
12723TIP3    H238111   6.300   1.255   0.657
12724TIP3   OH238112   4.781   0.372   4.420
12724TIP3    H138113   4.831   0.327   4.488
12724TIP3    H238114   4.690   0.356   4.442
12725TIP3   OH238115   5.224   6.225   5.276
12725TIP3    H138116   5.253   6.252   5.189
12725TIP3    H238117   5.135   6.261   5.284
12726TIP3   OH238118   2.516   1.870   4.904
12726TIP3    H138119   2.543   1.813   4.977
12726TIP3    H238120   2.566   1.837   4.830
12727TIP3   OH238121   3.161   3.149   5.644
12727TIP3    H138122   3.107   3.105   5.710
12727TIP3    H238123   3.173   3.084   5.575
12728TIP3   OH238124   5.129   3.298   1.660
12728TIP3    H138125   5.101   3.369   1.602
12728TIP3    H238126   5.125   3.336   1.748
12729TIP3   OH238127   4.891   7.327   4.644
12729TIP3    H138128   4.840   7.256   4.605
12729TIP3    H238129   4.909   7.387   4.571
12730TIP3   OH238130   7.475   3.057   0.790
12730TIP3    H138131   7.504   3.117   0.720
12730TIP3    H238132   7.382   3.078   0.802
12731TIP3   OH238133   1.696   4.808   2.169
12731TIP3    H138134   1.718   4.780   2.080
12731TIP3    H238135   1.614   4.763   2.188
12732TIP3   OH238136   3.209   3.190   4.695
12732TIP3    H138137   3.254   3.149   4.621
12732TIP3    H238138   3.116   3.174   4.678
12733TIP3   OH238139   8.155   5.072   2.264
12733TIP3    H138140   8.215   5.130   2.311
12733TIP3    H238141   8.070   5.085   2.306
12734TIP3   OH238142   1.396   5.312   3.169
12734TIP3    H138143   1.443   5.390   3.143
12734TIP3    H238144   1.351   5.282   3.090
12735TIP3   OH238145   5.420   3.311   5.617
12735TIP3    H138146   5.505   3.272   5.595
12735TIP3    H238147   5.431   3.344   5.706
12736TIP3   OH238148   3.200   2.937   5.488
12736TIP3    H138149   3.265   2.965   5.423
12736TIP3    H238150   3.207   2.841   5.488
12737TIP3   OH238151   1.515   7.864   1.267
12737TIP3    H138152   1.467   7.939   1.234
12737TIP3    H238153   1.581   7.901   1.325
12738TIP3   OH238154   7.180   6.923   1.471
12738TIP3    H138155   7.107   6.876   1.511
12738TIP3    H238156   7.188   7.003   1.523
12739TIP3   OH238157   0.731   7.659   2.452
12739TIP3    H138158   0.684   7.583   2.484
12739TIP3    H238159   0.801   7.622   2.398
12740TIP3   OH238160   2.982   2.258   4.159
12740TIP3    H138161   2.973   2.334   4.217
12740TIP3    H238162   2.941   2.186   4.208
12741TIP3   OH238163   0.076   4.603   6.475
12741TIP3    H138164   0.111   4.581   6.389
12741TIP3    H238165  -0.016   4.623   6.460
12742TIP3   OH238166   2.794   2.183   0.895
12742TIP3    H138167   2.883   2.177   0.858
12742TIP3    H238168   2.781   2.098   0.938
12743TIP3   OH238169   4.588   4.240   0.909
12743TIP3    H138170   4.659   4.272   0.853
12743TIP3    H238171   4.545   4.171   0.857
12744TIP3   OH238172   6.035   0.974   1.616
12744TIP3    H138173   6.090   0.926   1.677
12744TIP3    H238174   6.026   0.915   1.541
12745TIP3   OH238175   3.984   7.621   1.032
12745TIP3    H138176   4.028   7.633   1.116
12745TIP3    H238177   3.961   7.528   1.030
12746TIP3   OH238178   3.537   1.884   1.074
12746TIP3    H138179   3.548   1.789   1.074
12746TIP3    H238180   3.609   1.917   1.020
12747TIP3   OH238181   3.129   0.045   0.975
12747TIP3    H138182   3.171   0.086   1.050
12747TIP3    H238183   3.158   0.097   0.900
12748TIP3   OH238184   3.736   6.132   0.972
12748TIP3    H138185   3.755   6.226   0.976
12748TIP3    H238186   3.687   6.115   1.053
12749TIP3   OH238187   4.358   2.782   2.945
12749TIP3    H138188   4.362   2.843   2.872
12749TIP3    H238189   4.284   2.813   2.998
12750TIP3   OH238190   7.870   5.402   1.660
12750TIP3    H138191   7.826   5.388   1.576
12750TIP3    H238192   7.825   5.345   1.721
12751TIP3   OH238193   3.911   6.727   5.564
12751TIP3    H138194   3.872   6.686   5.487
12751TIP3    H238195   3.837   6.762   5.613
12752TIP3   OH238196   5.356   0.532   4.713
12752TIP3    H138197   5.358   0.602   4.647
12752TIP3    H238198   5.336   0.577   4.795
12753TIP3   OH238199   5.771   1.373   6.443
12753TIP3    H138200   5.768   1.323   6.524
12753TIP3    H238201   5.725   1.454   6.463
12754TIP3   OH238202   6.414   2.691   0.907
12754TIP3    H138203   6.474   2.766   0.906
12754TIP3    H238204   6.462   2.623   0.953
12755TIP3   OH238205   7.611   6.537   3.078
12755TIP3    H138206   7.530   6.582   3.055
12755TIP3    H238207   7.640   6.577   3.160
12756TIP3   OH238208   8.184   5.013   1.624
12756TIP3    H138209   8.144   5.053   1.702
12756TIP3    H238210   8.135   5.050   1.551
12757TIP3   OH238211   7.457   7.325   5.278
12757TIP3    H138212   7.394   7.385   5.318
12757TIP3    H238213   7.496   7.278   5.352
12758TIP3   OH238214   5.082   1.263   4.548
12758TIP3    H138215   5.027   1.279   4.472
12758TIP3    H238216   5.159   1.217   4.514
12759TIP3   OH238217   6.109   4.043   1.961
12759TIP3    H138218   6.156   3.974   1.915
12759TIP3    H238219   6.168   4.072   2.030
12760TIP3   OH238220   4.518   3.896   5.453
12760TIP3    H138221   4.475   3.851   5.525
12760TIP3    H238222   4.476   3.983   5.451
12761TIP3   OH238223   7.064   4.169   2.121
12761TIP3    H138224   7.148   4.148   2.080
12761TIP3    H238225   7.081   4.165   2.215
12762TIP3   OH238226   6.777   4.731   2.719
12762TIP3    H138227   6.834   4.800   2.754
12762TIP3    H238228   6.797   4.729   2.625
12763TIP3   OH238229   7.426   3.156   6.164
12763TIP3    H138230   7.342   3.155   6.210
12763TIP3    H238231   7.488   3.190   6.229
12764TIP3   OH238232   2.965   4.206   4.066
12764TIP3    H138233   3.012   4.175   4.144
12764TIP3    H238234   2.926   4.289   4.094
12765TIP3   OH238235   1.679   3.821   5.494
12765TIP3    H138236   1.660   3.913   5.510
12765TIP3    H238237   1.611   3.774   5.543
12766TIP3   OH238238   3.082   1.635   4.479
12766TIP3    H138239   3.102   1.654   4.570
12766TIP3    H238240   3.058   1.543   4.477
12767TIP3   OH238241   2.537   6.441   5.674
12767TIP3    H138242   2.605   6.373   5.672
12767TIP3    H238243   2.493   6.433   5.589
12768TIP3   OH238244   0.685   5.407   2.067
12768TIP3    H138245   0.771   5.448   2.078
12768TIP3    H238246   0.647   5.406   2.155
12769TIP3   OH238247   8.070   5.106   4.964
12769TIP3    H138248   8.081   5.199   4.944
12769TIP3    H238249   8.115   5.060   4.893
12770TIP3   OH238250   0.610   5.470   2.318
12770TIP3    H138251   0.676   5.531   2.353
12770TIP3    H238252   0.556   5.448   2.394
12771TIP3   OH238253   3.850   2.859   5.839
12771TIP3    H138254   3.763   2.870   5.800
12771TIP3    H238255   3.865   2.765   5.839
12772TIP3   OH238256   1.047   4.679   1.879
12772TIP3    H138257   1.060   4.683   1.974
12772TIP3    H238258   1.032   4.770   1.853
12773TIP3   OH238259   2.297   6.852   0.685
12773TIP3    H138260   2.362   6.922   0.689
12773TIP3    H238261   2.314   6.807   0.603
12774TIP3   OH238262   5.980   1.827   0.749
12774TIP3    H138263   6.061   1.790   0.785
12774TIP3    H238264   6.010   1.891   0.684
12775TIP3   OH238265   4.269   6.417   4.118
12775TIP3    H138266   4.284   6.391   4.027
12775TIP3    H238267   4.297   6.508   4.122
12776TIP3   OH238268   4.343   3.815   1.710
12776TIP3    H138269   4.404   3.802   1.637
12776TIP3    H238270   4.347   3.733   1.759
12777TIP3   OH238271   8.336   0.394   2.510
12777TIP3    H138272   8.339   0.422   2.418
12777TIP3    H238273   8.391   0.316   2.514
12778TIP3   OH238274   6.467   3.449   3.781
12778TIP3    H138275   6.485   3.542   3.770
12778TIP3    H238276   6.401   3.429   3.714
12779TIP3   OH238277   1.885   3.963   0.854
12779TIP3    H138278   1.920   3.891   0.906
12779TIP3    H238279   1.922   3.951   0.767
12780TIP3   OH238280   3.375   6.935   2.293
12780TIP3    H138281   3.420   6.880   2.356
12780TIP3    H238282   3.310   6.982   2.345
12781TIP3   OH238283   5.570   0.289   6.629
12781TIP3    H138284   5.588   0.270   6.537
12781TIP3    H238285   5.478   0.315   6.630
12782TIP3   OH238286   5.460   1.979   2.436
12782TIP3    H138287   5.556   1.989   2.436
12782TIP3    H238288   5.436   1.985   2.344
12783TIP3   OH238289   4.804   4.193   3.154
12783TIP3    H138290   4.858   4.117   3.178
12783TIP3    H238291   4.866   4.266   3.152
12784TIP3   OH238292   3.989   4.667   6.467
12784TIP3    H138293   3.915   4.612   6.441
12784TIP3    H238294   4.066   4.613   6.451
12785TIP3   OH238295   1.295   1.399   6.464
12785TIP3    H138296   1.280   1.428   6.374
12785TIP3    H238297   1.349   1.321   6.455
12786TIP3   OH238298   2.520   4.622   0.791
12786TIP3    H138299   2.609   4.596   0.768
12786TIP3    H238300   2.518   4.616   0.887
12787TIP3   OH238301   1.007   5.847   0.130
12787TIP3    H138302   0.929   5.794   0.148
12787TIP3    H238303   0.973   5.925   0.087
12788TIP3   OH238304   5.839   2.008   2.165
12788TIP3    H138305   5.845   2.102   2.148
12788TIP3    H238306   5.909   1.970   2.114
12789TIP3   OH238307   0.743   1.150   1.317
12789TIP3    H138308   0.838   1.156   1.313
12789TIP3    H238309   0.726   1.059   1.341
12790TIP3   OH238310   1.470   3.676   6.537
12790TIP3    H138311   1.428   3.657   6.621
12790TIP3    H238312   1.501   3.591   6.506
12791TIP3   OH238313   3.140   6.957   6.257
12791TIP3    H138314   3.048   6.933   6.242
12791TIP3    H238315   3.183   6.876   6.281
12792TIP3   OH238316   7.145   5.496   0.216
12792TIP3    H138317   7.112   5.576   0.175
12792TIP3    H238318   7.240   5.507   0.217
12793TIP3   OH238319   1.816   1.784   2.109
12793TIP3    H138320   1.903   1.749   2.090
12793TIP3    H238321   1.770   1.713   2.153
12794TIP3   OH238322   3.134   6.723   4.828
12794TIP3    H138323   3.077   6.669   4.883
12794TIP3    H238324   3.196   6.662   4.789
12795TIP3   OH238325   4.480   1.570   1.336
12795TIP3    H138326   4.504   1.658   1.364
12795TIP3    H238327   4.395   1.580   1.294
12796TIP3   OH238328   2.160   6.998   4.413
12796TIP3    H138329   2.203   6.992   4.328
12796TIP3    H238330   2.192   7.079   4.451
12797TIP3   OH238331   6.142   6.185   1.440
12797TIP3    H138332   6.049   6.199   1.460
12797TIP3    H238333   6.184   6.268   1.464
12798TIP3   OH238334   6.550   2.563   6.109
12798TIP3    H138335   6.573   2.654   6.094
12798TIP3    H238336   6.457   2.557   6.086
12799TIP3   OH238337   7.280   0.842   1.325
12799TIP3    H138338   7.291   0.835   1.231
12799TIP3    H238339   7.253   0.933   1.339
12800TIP3   OH238340   3.307   4.186   0.683
12800TIP3    H138341   3.243   4.205   0.615
12800TIP3    H238342   3.341   4.099   0.660
12801TIP3   OH238343   1.019   2.038   4.291
12801TIP3    H138344   1.042   2.114   4.238
12801TIP3    H238345   1.041   1.963   4.236
12802TIP3   OH238346   4.854   0.934   2.106
12802TIP3    H138347   4.786   1.000   2.092
12802TIP3    H238348   4.863   0.928   2.201
12803TIP3   OH238349   1.691   0.044   5.072
12803TIP3    H138350   1.724   0.133   5.058
12803TIP3    H238351   1.606   0.043   5.030
12804TIP3   OH238352   0.398   3.095   5.629
12804TIP3    H138353   0.484   3.059   5.609
12804TIP3    H238354   0.409   3.139   5.714
12805TIP3   OH238355   3.229   4.408   4.674
12805TIP3    H138356   3.136   4.387   4.665
12805TIP3    H238357   3.232   4.503   4.663
12806TIP3   OH238358   7.738   6.912   6.530
12806TIP3    H138359   7.738   6.985   6.468
12806TIP3    H238360   7.760   6.835   6.477
12807TIP3   OH238361   3.330   4.947   1.035
12807TIP3    H138362   3.356   4.967   0.945
12807TIP3    H238363   3.356   4.856   1.048
12808TIP3   OH238364   4.893   2.776   0.554
12808TIP3    H138365   4.869   2.790   0.463
12808TIP3    H238366   4.953   2.702   0.552
12809TIP3   OH238367   5.383   7.642   3.096
12809TIP3    H138368   5.329   7.575   3.139
12809TIP3    H238369   5.411   7.601   3.014
12810TIP3   OH238370   4.576   4.851   4.251
12810TIP3    H138371   4.605   4.766   4.218
12810TIP3    H238372   4.556   4.835   4.343
12811TIP3   OH238373   3.989   7.435   1.457
12811TIP3    H138374   3.929   7.387   1.401
12811TIP3    H238375   3.934   7.494   1.508
12812TIP3   OH238376   0.519   3.237   4.098
12812TIP3    H138377   0.570   3.211   4.021
12812TIP3    H238378   0.442   3.280   4.062
12813TIP3   OH238379   0.270   1.181   2.202
12813TIP3    H138380   0.193   1.127   2.218
12813TIP3    H238381   0.340   1.138   2.252
12814TIP3   OH238382   6.422   4.809   0.218
12814TIP3    H138383   6.481   4.817   0.142
12814TIP3    H238384   6.458   4.870   0.282
12815TIP3   OH238385   8.128   4.257   3.207
12815TIP3    H138386   8.047   4.280   3.251
12815TIP3    H238387   8.148   4.168   3.236
12816TIP3   OH238388   5.010   2.663   6.842
12816TIP3    H138389   5.084   2.603   6.848
12816TIP3    H238390   4.973   2.646   6.755
12817TIP3   OH238391   4.986   5.045   0.329
12817TIP3    H138392   4.964   5.076   0.417
12817TIP3    H238393   4.901   5.023   0.290
12818TIP3   OH238394   7.059   6.947   1.205
12818TIP3    H138395   7.083   6.884   1.138
12818TIP3    H238396   7.113   6.923   1.281
12819TIP3   OH238397   2.770   2.666   1.216
12819TIP3    H138398   2.772   2.579   1.176
12819TIP3    H238399   2.838   2.715   1.170
12820TIP3   OH238400   7.451   3.493   3.577
12820TIP3    H138401   7.459   3.575   3.626
12820TIP3    H238402   7.382   3.444   3.621
12821TIP3   OH238403   1.976   5.771   2.833
12821TIP3    H138404   1.929   5.742   2.912
12821TIP3    H238405   1.994   5.863   2.849
12822TIP3   OH238406   3.681   0.451   5.287
12822TIP3    H138407   3.763   0.490   5.256
12822TIP3    H238408   3.633   0.430   5.207
12823TIP3   OH238409   7.619   4.463   5.668
12823TIP3    H138410   7.707   4.500   5.662
12823TIP3    H238411   7.589   4.460   5.577
12824TIP3   OH238412   1.884   5.679   0.405
12824TIP3    H138413   1.965   5.700   0.358
12824TIP3    H238414   1.817   5.677   0.337
12825TIP3   OH238415   4.315   1.256   3.303
12825TIP3    H138416   4.343   1.187   3.363
12825TIP3    H238417   4.306   1.333   3.359
12826TIP3   OH238418   7.160   5.385   4.549
12826TIP3    H138419   7.178   5.448   4.479
12826TIP3    H238420   7.069   5.403   4.574
12827TIP3   OH238421   4.103   5.065   1.412
12827TIP3    H138422   4.179   5.039   1.464
12827TIP3    H238423   4.076   5.149   1.449
12828TIP3   OH238424   2.999   3.000   3.989
12828TIP3    H138425   2.938   2.945   4.039
12828TIP3    H238426   2.957   3.011   3.904
12829TIP3   OH238427   8.095   6.996   4.586
12829TIP3    H138428   8.084   6.971   4.494
12829TIP3    H238429   8.089   6.913   4.634
12830TIP3   OH238430   4.645   3.209   6.666
12830TIP3    H138431   4.647   3.115   6.651
12830TIP3    H238432   4.736   3.232   6.686
12831TIP3   OH238433   0.274   2.575   5.309
12831TIP3    H138434   0.369   2.571   5.317
12831TIP3    H238435   0.255   2.666   5.285
12832TIP3   OH238436   3.220   3.990   6.013
12832TIP3    H138437   3.255   3.961   5.928
12832TIP3    H238438   3.129   4.012   5.996
12833TIP3   OH238439   5.517   1.108   1.851
12833TIP3    H138440   5.551   1.175   1.793
12833TIP3    H238441   5.588   1.044   1.860
12834TIP3   OH238442   3.393   0.855   2.861
12834TIP3    H138443   3.301   0.827   2.860
12834TIP3    H238444   3.419   0.849   2.953
12835TIP3   OH238445   7.289   5.015   5.335
12835TIP3    H138446   7.337   5.072   5.394
12835TIP3    H238447   7.232   4.964   5.392
12836TIP3   OH238448   2.506   6.359   6.724
12836TIP3    H138449   2.574   6.311   6.678
12836TIP3    H238450   2.486   6.305   6.801
12837TIP3   OH238451   5.070   4.237   2.649
12837TIP3    H138452   5.082   4.176   2.576
12837TIP3    H238453   5.117   4.197   2.722
12838TIP3   OH238454   5.042   5.548   2.720
12838TIP3    H138455   5.078   5.587   2.641
12838TIP3    H238456   5.001   5.467   2.691
12839TIP3   OH238457   2.368   0.901   6.455
12839TIP3    H138458   2.450   0.903   6.406
12839TIP3    H238459   2.312   0.841   6.405
12840TIP3   OH238460   3.855   6.391   1.084
12840TIP3    H138461   3.914   6.316   1.093
12840TIP3    H238462   3.890   6.457   1.144
12841TIP3   OH238463   7.783   0.494   6.510
12841TIP3    H138464   7.757   0.583   6.534
12841TIP3    H238465   7.714   0.439   6.546
12842TIP3   OH238466   4.242   7.207   4.439
12842TIP3    H138467   4.277   7.208   4.350
12842TIP3    H238468   4.153   7.241   4.430
12843TIP3   OH238469   2.446   2.292   5.433
12843TIP3    H138470   2.439   2.327   5.345
12843TIP3    H238471   2.503   2.216   5.424
12844TIP3   OH238472   6.172   7.352   2.399
12844TIP3    H138473   6.088   7.394   2.417
12844TIP3    H238474   6.234   7.400   2.453
12845TIP3   OH238475   1.610   1.147   5.522
12845TIP3    H138476   1.583   1.206   5.592
12845TIP3    H238477   1.631   1.206   5.449
12846TIP3   OH238478   1.974   4.150   0.627
12846TIP3    H138479   2.068   4.145   0.645
12846TIP3    H238480   1.964   4.108   0.542
12847TIP3   OH238481   3.786   2.473   5.506
12847TIP3    H138482   3.754   2.563   5.506
12847TIP3    H238483   3.746   2.433   5.584
12848TIP3   OH238484   5.799   7.359   5.372
12848TIP3    H138485   5.706   7.377   5.362
12848TIP3    H238486   5.812   7.356   5.467
12849TIP3   OH238487   3.569   7.781   1.809
12849TIP3    H138488   3.624   7.855   1.781
12849TIP3    H238489   3.632   7.716   1.841
12850TIP3   OH238490   6.577   6.214   4.995
12850TIP3    H138491   6.523   6.281   5.037
12850TIP3    H238492   6.612   6.256   4.917
12851TIP3   OH238493   2.391   5.276   6.130
12851TIP3    H138494   2.475   5.320   6.120
12851TIP3    H238495   2.405   5.187   6.097
12852TIP3   OH238496   0.366   6.197   5.143
12852TIP3    H138497   0.447   6.213   5.094
12852TIP3    H238498   0.359   6.101   5.146
12853TIP3   OH238499   2.115   7.095   3.566
12853TIP3    H138500   2.024   7.121   3.557
12853TIP3    H238501   2.154   7.112   3.480
12854TIP3   OH238502   3.348   2.227   0.294
12854TIP3    H138503   3.356   2.135   0.270
12854TIP3    H238504   3.253   2.241   0.306
12855TIP3   OH238505   4.905   7.324   1.113
12855TIP3    H138506   4.821   7.370   1.116
12855TIP3    H238507   4.948   7.346   1.196
12856TIP3   OH238508   6.875   6.364   1.302
12856TIP3    H138509   6.888   6.278   1.262
12856TIP3    H238510   6.960   6.386   1.340
12857TIP3   OH238511   2.747   5.709   0.916
12857TIP3    H138512   2.685   5.779   0.938
12857TIP3    H238513   2.754   5.657   0.995
12858TIP3   OH238514   4.101   1.912   4.365
12858TIP3    H138515   4.097   1.877   4.454
12858TIP3    H238516   4.027   1.871   4.320
12859TIP3   OH238517   1.628   4.322   3.915
12859TIP3    H138518   1.581   4.346   3.835
12859TIP3    H238519   1.657   4.232   3.898
12860TIP3   OH238520   7.024   1.613   3.867
12860TIP3    H138521   6.970   1.613   3.945
12860TIP3    H238522   6.964   1.634   3.795
12861TIP3   OH238523   1.688   2.319   0.663
12861TIP3    H138524   1.615   2.345   0.606
12861TIP3    H238525   1.646   2.291   0.744
12862TIP3   OH238526   1.035   2.434   5.818
12862TIP3    H138527   1.087   2.431   5.898
12862TIP3    H238528   0.944   2.435   5.848
12863TIP3   OH238529   1.454   1.267   1.699
12863TIP3    H138530   1.426   1.347   1.654
12863TIP3    H238531   1.515   1.225   1.639
12864TIP3   OH238532   0.973   6.738   6.085
12864TIP3    H138533   0.881   6.732   6.109
12864TIP3    H238534   0.988   6.832   6.072
12865TIP3   OH238535   4.064   0.352   4.831
12865TIP3    H138536   4.045   0.375   4.922
12865TIP3    H238537   4.147   0.303   4.836
12866TIP3   OH238538   8.070   7.595   3.994
12866TIP3    H138539   8.099   7.583   3.903
12866TIP3    H238540   8.130   7.541   4.045
12867TIP3   OH238541   2.866   1.680   1.430
12867TIP3    H138542   2.930   1.613   1.409
12867TIP3    H238543   2.847   1.723   1.347
12868TIP3   OH238544   2.229   7.232   0.316
12868TIP3    H138545   2.314   7.194   0.337
12868TIP3    H238546   2.192   7.171   0.252
12869TIP3   OH238547   0.455   3.077   0.289
12869TIP3    H138548   0.411   2.999   0.254
12869TIP3    H238549   0.423   3.084   0.379
12870TIP3   OH238550   5.669   2.759   5.886
12870TIP3    H138551   5.575   2.774   5.900
12870TIP3    H238552   5.699   2.837   5.839
12871TIP3   OH238553   4.423   6.213   6.350
12871TIP3    H138554   4.458   6.219   6.439
12871TIP3    H238555   4.500   6.210   6.294
12872TIP3   OH238556   1.502   1.853   0.508
12872TIP3    H138557   1.432   1.917   0.526
12872TIP3    H238558   1.567   1.869   0.577
12873TIP3   OH238559   7.032   2.031   3.231
12873TIP3    H138560   6.950   2.042   3.278
12873TIP3    H238561   7.092   1.992   3.294
12874TIP3   OH238562   2.059   0.673   2.969
12874TIP3    H138563   2.030   0.745   2.913
12874TIP3    H238564   2.005   0.599   2.942
12875TIP3   OH238565   7.260   3.004   4.012
12875TIP3    H138566   7.181   3.027   4.062
12875TIP3    H238567   7.299   2.931   4.061
12876TIP3   OH238568   7.062   2.378   5.001
12876TIP3    H138569   7.143   2.362   5.048
12876TIP3    H238570   7.075   2.464   4.960
12877TIP3   OH238571   7.939   1.610   0.088
12877TIP3    H138572   7.908   1.650   0.006
12877TIP3    H238573   8.021   1.568   0.064
12878TIP3   OH238574   7.955   4.788   1.487
12878TIP3    H138575   7.948   4.803   1.393
12878TIP3    H238576   8.045   4.757   1.500
12879TIP3   OH238577   5.613   2.458   5.157
12879TIP3    H138578   5.645   2.376   5.195
12879TIP3    H238579   5.569   2.432   5.076
12880TIP3   OH238580   4.634   3.881   5.719
12880TIP3    H138581   4.619   3.968   5.680
12880TIP3    H238582   4.723   3.887   5.755
12881TIP3   OH238583   0.876   6.020   5.081
12881TIP3    H138584   0.888   6.092   5.143
12881TIP3    H238585   0.848   6.063   5.000
12882TIP3   OH238586   4.077   1.738   1.950
12882TIP3    H138587   4.087   1.696   1.865
12882TIP3    H238588   4.147   1.700   2.004
12883TIP3   OH238589   0.737   0.480   3.845
12883TIP3    H138590   0.814   0.505   3.897
12883TIP3    H238591   0.665   0.480   3.907
12884TIP3   OH238592   2.990   2.445   4.826
12884TIP3    H138593   3.066   2.442   4.884
12884TIP3    H238594   2.916   2.424   4.883
12885TIP3   OH238595   0.805   7.397   1.015
12885TIP3    H138596   0.777   7.410   1.105
12885TIP3    H238597   0.878   7.457   1.003
12886TIP3   OH238598   7.816   2.412   1.648
12886TIP3    H138599   7.836   2.502   1.675
12886TIP3    H238600   7.888   2.360   1.685
12887TIP3   OH238601   7.922   7.446   1.307
12887TIP3    H138602   7.924   7.519   1.246
12887TIP3    H238603   7.950   7.484   1.391
12888TIP3   OH238604   0.404   2.667   3.893
12888TIP3    H138605   0.332   2.730   3.891
12888TIP3    H238606   0.463   2.700   3.960
12889TIP3   OH238607   8.302   5.662   3.490
12889TIP3    H138608   8.293   5.629   3.400
12889TIP3    H238609   8.277   5.754   3.484
12890TIP3   OH238610   4.402   1.732   0.117
12890TIP3    H138611   4.325   1.786   0.096
12890TIP3    H238612   4.406   1.733   0.212
12891TIP3   OH238613   8.163   7.441   4.736
12891TIP3    H138614   8.203   7.528   4.741
12891TIP3    H238615   8.158   7.423   4.642
12892TIP3   OH238616   8.256   2.717   6.536
12892TIP3    H138617   8.301   2.786   6.584
12892TIP3    H238618   8.186   2.762   6.490
12893TIP3   OH238619   0.461   0.520   4.985
12893TIP3    H138620   0.456   0.516   4.889
12893TIP3    H238621   0.440   0.431   5.014
12894TIP3   OH238622   3.166   1.936   3.664
12894TIP3    H138623   3.189   2.028   3.653
12894TIP3    H238624   3.239   1.898   3.714
12895TIP3   OH238625   1.768   3.449   3.301
12895TIP3    H138626   1.733   3.504   3.231
12895TIP3    H238627   1.714   3.471   3.377
12896TIP3   OH238628   0.051   1.778   6.737
12896TIP3    H138629  -0.004   1.728   6.799
12896TIP3    H238630  -0.008   1.803   6.667
12897TIP3   OH238631   2.879   5.458   2.871
12897TIP3    H138632   2.924   5.511   2.804
12897TIP3    H238633   2.823   5.520   2.917
12898TIP3   OH238634   0.897   4.000   5.719
12898TIP3    H138635   0.929   3.950   5.645
12898TIP3    H238636   0.835   4.063   5.682
12899TIP3   OH238637   8.172   2.253   2.432
12899TIP3    H138638   8.161   2.314   2.505
12899TIP3    H238639   8.119   2.177   2.456
12900TIP3   OH238640   2.054   7.503   1.417
12900TIP3    H138641   2.093   7.537   1.498
12900TIP3    H238642   1.965   7.538   1.416
12901TIP3   OH238643   7.876   6.752   2.838
12901TIP3    H138644   7.792   6.752   2.883
12901TIP3    H238645   7.917   6.669   2.862
12902TIP3   OH238646   3.699   3.743   5.442
12902TIP3    H138647   3.775   3.791   5.410
12902TIP3    H238648   3.640   3.811   5.475
12903TIP3   OH238649   3.300   6.499   2.225
12903TIP3    H138650   3.329   6.514   2.315
12903TIP3    H238651   3.271   6.408   2.224
12904TIP3   OH238652   1.619   7.347   2.491
12904TIP3    H138653   1.575   7.263   2.476
12904TIP3    H238654   1.548   7.409   2.507
12905TIP3   OH238655   8.252   4.156   1.666
12905TIP3    H138656   8.285   4.106   1.592
12905TIP3    H238657   8.206   4.092   1.720
12906TIP3   OH238658   8.211   7.315   5.417
12906TIP3    H138659   8.132   7.331   5.469
12906TIP3    H238660   8.179   7.309   5.327
12907TIP3   OH238661   1.184   1.632   1.390
12907TIP3    H138662   1.265   1.645   1.439
12907TIP3    H238663   1.202   1.557   1.333
12908TIP3   OH238664   6.195   7.157   3.978
12908TIP3    H138665   6.217   7.243   3.943
12908TIP3    H238666   6.171   7.174   4.069
12909TIP3   OH238667   4.621   5.735   4.007
12909TIP3    H138668   4.645   5.819   3.969
12909TIP3    H238669   4.623   5.674   3.934
12910TIP3   OH238670   3.427   0.669   2.191
12910TIP3    H138671   3.370   0.745   2.207
12910TIP3    H238672   3.468   0.652   2.276
12911TIP3   OH238673   3.952   5.004   0.413
12911TIP3    H138674   3.951   4.962   0.327
12911TIP3    H238675   3.907   4.942   0.470
12912TIP3   OH238676   1.260   3.765   2.644
12912TIP3    H138677   1.182   3.819   2.628
12912TIP3    H238678   1.232   3.704   2.712
12913TIP3   OH238679   6.315   5.535   3.341
12913TIP3    H138680   6.314   5.442   3.315
12913TIP3    H238681   6.381   5.575   3.286
12914TIP3   OH238682   1.061   3.128   1.561
12914TIP3    H138683   1.077   3.121   1.655
12914TIP3    H238684   1.097   3.213   1.536
12915TIP3   OH238685   6.977   4.868   2.849
12915TIP3    H138686   7.064   4.841   2.821
12915TIP3    H238687   6.986   4.962   2.867
12916TIP3   OH238688   1.612   2.002   3.087
12916TIP3    H138689   1.549   1.930   3.077
12916TIP3    H238690   1.559   2.081   3.082
12917TIP3   OH238691   4.957   1.783   4.579
12917TIP3    H138692   4.961   1.867   4.533
12917TIP3    H238693   4.930   1.806   4.668
12918TIP3   OH238694   2.107   7.679   0.313
12918TIP3    H138695   2.195   7.651   0.340
12918TIP3    H238696   2.105   7.662   0.218
12919TIP3   OH238697   7.504   7.720   3.117
12919TIP3    H138698   7.478   7.764   3.037
12919TIP3    H238699   7.460   7.635   3.113
12920TIP3   OH238700   5.787   5.201   0.321
12920TIP3    H138701   5.829   5.229   0.239
12920TIP3    H238702   5.853   5.146   0.363
12921TIP3   OH238703   0.425   5.914   5.114
12921TIP3    H138704   0.441   5.925   5.208
12921TIP3    H238705   0.512   5.919   5.074
12922TIP3   OH238706   4.820   3.963   4.690
12922TIP3    H138707   4.903   4.009   4.699
12922TIP3    H238708   4.773   4.011   4.622
12923TIP3   OH238709   1.694   6.845   4.504
12923TIP3    H138710   1.668   6.922   4.454
12923TIP3    H238711   1.790   6.851   4.509
12924TIP3   OH238712   6.845   2.638   5.760
12924TIP3    H138713   6.911   2.697   5.797
12924TIP3    H238714   6.829   2.574   5.829
12925TIP3   OH238715   7.748   1.911   0.474
12925TIP3    H138716   7.671   1.967   0.470
12925TIP3    H238717   7.788   1.918   0.388
12926TIP3   OH238718   1.654   3.168   3.329
12926TIP3    H138719   1.702   3.096   3.370
12926TIP3    H238720   1.664   3.153   3.235
12927TIP3   OH238721   5.252   5.998   4.679
12927TIP3    H138722   5.295   6.023   4.597
12927TIP3    H238723   5.305   6.040   4.747
12928TIP3   OH238724   5.411   3.875   1.868
12928TIP3    H138725   5.477   3.938   1.896
12928TIP3    H238726   5.424   3.800   1.927
12929TIP3   OH238727   2.956   2.184   0.525
12929TIP3    H138728   3.011   2.116   0.487
12929TIP3    H238729   2.925   2.147   0.608
12930TIP3   OH238730   4.893   6.354   3.012
12930TIP3    H138731   4.920   6.386   2.926
12930TIP3    H238732   4.815   6.302   2.995
12931TIP3   OH238733   1.009   6.974   1.660
12931TIP3    H138734   0.986   7.066   1.673
12931TIP3    H238735   1.104   6.974   1.651
12932TIP3   OH238736   8.226   3.049   2.845
12932TIP3    H138737   8.188   2.966   2.872
12932TIP3    H238738   8.184   3.114   2.901
12933TIP3   OH238739   1.993   4.510   0.869
12933TIP3    H138740   2.017   4.456   0.944
12933TIP3    H238741   2.076   4.537   0.831
12934TIP3   OH238742   6.304   2.913   6.134
12934TIP3    H138743   6.260   2.917   6.049
12934TIP3    H238744   6.281   2.995   6.178
12935TIP3   OH238745   2.064   5.681   3.216
12935TIP3    H138746   1.979   5.708   3.180
12935TIP3    H238747   2.128   5.732   3.166
12936TIP3   OH238748   3.651   3.453   3.491
12936TIP3    H138749   3.567   3.409   3.502
12936TIP3    H238750   3.716   3.389   3.522
12937TIP3   OH238751   4.606   4.899   4.729
12937TIP3    H138752   4.668   4.826   4.722
12937TIP3    H238753   4.647   4.970   4.681
12938TIP3   OH238754   6.639   6.215   3.254
12938TIP3    H138755   6.683   6.172   3.327
12938TIP3    H238756   6.589   6.286   3.296
12939TIP3   OH238757   0.872   5.748   6.076
12939TIP3    H138758   0.889   5.830   6.122
12939TIP3    H238759   0.925   5.682   6.121
12940TIP3   OH238760   1.149   7.600   4.177
12940TIP3    H138761   1.160   7.668   4.110
12940TIP3    H238762   1.062   7.616   4.214
12941TIP3   OH238763   6.044   2.048   1.597
12941TIP3    H138764   6.013   2.093   1.676
12941TIP3    H238765   6.138   2.064   1.596
12942TIP3   OH238766   1.792   5.229   6.716
12942TIP3    H138767   1.863   5.243   6.655
12942TIP3    H238768   1.715   5.267   6.674
12943TIP3   OH238769   5.080   7.679   4.808
12943TIP3    H138770   5.072   7.754   4.867
12943TIP3    H238771   5.017   7.615   4.842
12944TIP3   OH238772   3.856   4.042   0.849
12944TIP3    H138773   3.870   4.017   0.941
12944TIP3    H238774   3.935   4.012   0.804
12945TIP3   OH238775   0.910   3.346   4.396
12945TIP3    H138776   0.975   3.317   4.459
12945TIP3    H238777   0.961   3.392   4.329
12946TIP3   OH238778   8.163   3.507   6.494
12946TIP3    H138779   8.127   3.562   6.424
12946TIP3    H238780   8.228   3.452   6.450
12947TIP3   OH238781   7.294   2.897   0.359
12947TIP3    H138782   7.329   2.812   0.387
12947TIP3    H238783   7.364   2.937   0.309
12948TIP3   OH238784   6.953   3.377   1.602
12948TIP3    H138785   6.952   3.333   1.687
12948TIP3    H238786   7.025   3.440   1.608
12949TIP3   OH238787   7.111   7.136   3.490
12949TIP3    H138788   7.130   7.095   3.575
12949TIP3    H238789   7.019   7.162   3.497
12950TIP3   OH238790   1.563   6.658   2.463
12950TIP3    H138791   1.612   6.577   2.475
12950TIP3    H238792   1.492   6.653   2.527
12951TIP3   OH238793   5.745   6.314   1.912
12951TIP3    H138794   5.763   6.259   1.989
12951TIP3    H238795   5.651   6.328   1.915
12952TIP3   OH238796   2.691   7.947   1.429
12952TIP3    H138797   2.612   7.894   1.434
12952TIP3    H238798   2.747   7.900   1.367
12953TIP3   OH238799   0.450   7.415   1.107
12953TIP3    H138800   0.443   7.320   1.109
12953TIP3    H238801   0.512   7.436   1.177
12954TIP3   OH238802   2.763   7.662   0.987
12954TIP3    H138803   2.796   7.705   0.908
12954TIP3    H238804   2.793   7.718   1.059
12955TIP3   OH238805   0.922   5.570   2.079
12955TIP3    H138806   1.008   5.599   2.110
12955TIP3    H238807   0.864   5.645   2.093
12956TIP3   OH238808   2.273   1.539   1.189
12956TIP3    H138809   2.203   1.483   1.223
12956TIP3    H238810   2.350   1.483   1.191
12957TIP3   OH238811   1.917   7.283   2.552
12957TIP3    H138812   1.833   7.329   2.558
12957TIP3    H238813   1.958   7.298   2.637
12958TIP3   OH238814   8.314   3.420   4.509
12958TIP3    H138815   8.373   3.496   4.502
12958TIP3    H238816   8.373   3.345   4.512
12959TIP3   OH238817   0.319   0.204   4.916
12959TIP3    H138818   0.302   0.110   4.922
12959TIP3    H238819   0.258   0.236   4.849
12960TIP3   OH238820   0.468   6.801   3.778
12960TIP3    H138821   0.422   6.786   3.861
12960TIP3    H238822   0.528   6.873   3.797
12961TIP3   OH238823   0.903   7.895   3.555
12961TIP3    H138824   0.927   7.858   3.640
12961TIP3    H238825   0.808   7.885   3.550
12962TIP3   OH238826   5.918   2.900   4.984
12962TIP3    H138827   5.838   2.850   5.003
12962TIP3    H238828   5.892   2.991   4.995
12963TIP3   OH238829   3.678   6.031   3.206
12963TIP3    H138830   3.657   6.066   3.293
12963TIP3    H238831   3.594   6.017   3.164
12964TIP3   OH238832   2.292   2.834   2.955
12964TIP3    H138833   2.243   2.902   2.908
12964TIP3    H238834   2.278   2.854   3.047
12965TIP3   OH238835   2.755   5.264   1.176
12965TIP3    H138836   2.751   5.315   1.256
12965TIP3    H238837   2.670   5.278   1.134
12966TIP3   OH238838   5.556   0.103   5.005
12966TIP3    H138839   5.612   0.052   4.947
12966TIP3    H238840   5.530   0.180   4.953
12967TIP3   OH238841   1.707   0.483   1.297
12967TIP3    H138842   1.680   0.533   1.220
12967TIP3    H238843   1.755   0.408   1.262
12968TIP3   OH238844   7.475   3.457   0.818
12968TIP3    H138845   7.384   3.463   0.847
12968TIP3    H238846   7.475   3.490   0.728
12969TIP3   OH238847   2.501   0.632   6.003
12969TIP3    H138848   2.475   0.563   5.942
12969TIP3    H238849   2.514   0.709   5.948
12970TIP3   OH238850   2.993   0.429   3.279
12970TIP3    H138851   2.928   0.434   3.350
12970TIP3    H238852   2.950   0.378   3.211
12971TIP3   OH238853   0.059   3.904   4.268
12971TIP3    H138854  -0.022   3.897   4.218
12971TIP3    H238855   0.031   3.926   4.356
12972TIP3   OH238856   2.288   5.691   2.759
12972TIP3    H138857   2.199   5.722   2.769
12972TIP3    H238858   2.299   5.625   2.828
12973TIP3   OH238859   8.259   2.011   6.883
12973TIP3    H138860   8.171   1.975   6.867
12973TIP3    H238861   8.270   2.077   6.815
12974TIP3   OH238862   6.444   4.259   5.624
12974TIP3    H138863   6.381   4.271   5.553
12974TIP3    H238864   6.518   4.214   5.583
12975TIP3   OH238865   7.354   1.403   3.964
12975TIP3    H138866   7.312   1.420   3.879
12975TIP3    H238867   7.349   1.487   4.010
12976TIP3   OH238868   7.848   7.073   2.873
12976TIP3    H138869   7.912   7.002   2.877
12976TIP3    H238870   7.764   7.029   2.861
12977TIP3   OH238871   8.004   6.513   4.193
12977TIP3    H138872   7.975   6.576   4.258
12977TIP3    H238873   7.939   6.443   4.197
12978TIP3   OH238874   5.209   6.108   2.588
12978TIP3    H138875   5.266   6.109   2.665
12978TIP3    H238876   5.267   6.120   2.514
12979TIP3   OH238877   3.575   2.867   3.668
12979TIP3    H138878   3.564   2.869   3.763
12979TIP3    H238879   3.524   2.941   3.636
12980TIP3   OH238880   4.584   0.581   6.347
12980TIP3    H138881   4.556   0.623   6.266
12980TIP3    H238882   4.651   0.640   6.384
12981TIP3   OH238883   6.236   5.515   4.656
12981TIP3    H138884   6.222   5.571   4.580
12981TIP3    H238885   6.259   5.576   4.727
12982TIP3   OH238886   0.200   0.991   5.458
12982TIP3    H138887   0.253   0.911   5.453
12982TIP3    H238888   0.141   0.987   5.383
12983TIP3   OH238889   5.257   7.621   3.977
12983TIP3    H138890   5.235   7.633   4.070
12983TIP3    H238891   5.227   7.701   3.935
12984TIP3   OH238892   6.909   7.361   1.653
12984TIP3    H138893   6.891   7.415   1.576
12984TIP3    H238894   6.824   7.325   1.677
12985TIP3   OH238895   0.823   7.209   3.847
12985TIP3    H138896   0.850   7.230   3.757
12985TIP3    H238897   0.903   7.180   3.890
12986TIP3   OH238898   3.556   2.408   1.536
12986TIP3    H138899   3.638   2.445   1.566
12986TIP3    H238900   3.569   2.313   1.543
12987TIP3   OH238901   5.149   5.036   4.890
12987TIP3    H138902   5.193   4.976   4.951
12987TIP3    H238903   5.217   5.099   4.866
12988TIP3   OH238904   2.457   6.561   0.246
12988TIP3    H138905   2.389   6.628   0.243
12988TIP3    H238906   2.498   6.565   0.160
12989TIP3   OH238907   7.898   3.898   0.242
12989TIP3    H138908   7.841   3.832   0.282
12989TIP3    H238909   7.877   3.894   0.149
12990TIP3   OH238910   5.040   4.800   4.759
12990TIP3    H138911   5.083   4.758   4.685
12990TIP3    H238912   5.070   4.891   4.756
12991TIP3   OH238913   1.666   1.036   2.080
12991TIP3    H138914   1.615   1.080   2.012
12991TIP3    H238915   1.751   1.019   2.039
12992TIP3   OH238916   1.260   1.832   5.109
12992TIP3    H138917   1.254   1.770   5.036
12992TIP3    H238918   1.169   1.856   5.127
12993TIP3   OH238919   5.437   2.020   2.733
12993TIP3    H138920   5.437   2.003   2.639
12993TIP3    H238921   5.445   2.115   2.740
12994TIP3   OH238922   7.211   0.716   3.613
12994TIP3    H138923   7.234   0.806   3.636
12994TIP3    H238924   7.179   0.678   3.694
12995TIP3   OH238925   7.560   7.152   3.844
12995TIP3    H138926   7.602   7.233   3.813
12995TIP3    H238927   7.622   7.115   3.907
12996TIP3   OH238928   5.563   0.368   6.274
12996TIP3    H138929   5.563   0.458   6.241
12996TIP3    H238930   5.656   0.348   6.289
12997TIP3   OH238931   4.640   6.805   2.685
12997TIP3    H138932   4.601   6.862   2.620
12997TIP3    H238933   4.733   6.802   2.662
12998TIP3   OH238934   5.086   6.938   0.149
12998TIP3    H138935   4.997   6.910   0.171
12998TIP3    H238936   5.118   6.871   0.089
12999TIP3   OH238937   6.518   5.310   6.763
12999TIP3    H138938   6.480   5.282   6.679
12999TIP3    H238939   6.598   5.258   6.771
13000TIP3   OH238940   0.820   3.936   4.235
13000TIP3    H138941   0.820   3.869   4.167
13000TIP3    H238942   0.768   3.899   4.306
13001TIP3   OH238943   5.579   1.042   4.204
13001TIP3    H138944   5.571   1.129   4.164
13001TIP3    H238945   5.506   0.992   4.167
13002TIP3   OH238946   2.238   3.967   3.207
13002TIP3    H138947   2.152   3.973   3.165
13002TIP3    H238948   2.224   3.913   3.284
13003TIP3   OH238949   4.502   3.076   6.371
13003TIP3    H138950   4.466   3.112   6.452
13003TIP3    H238951   4.479   2.983   6.373
13004TIP3   OH238952   8.329   7.257   2.450
13004TIP3    H138953   8.245   7.212   2.441
13004TIP3    H238954   8.367   7.221   2.530
13005TIP3   OH238955   7.810   2.775   2.475
13005TIP3    H138956   7.901   2.796   2.495
13005TIP3    H238957   7.815   2.698   2.418
13006TIP3   OH238958   5.127   0.922   1.660
13006TIP3    H138959   5.188   0.994   1.646
13006TIP3    H238960   5.101   0.894   1.572
13007TIP3   OH238961   6.714   4.894   2.034
13007TIP3    H138962   6.746   4.804   2.024
13007TIP3    H238963   6.704   4.906   2.128
13008TIP3   OH238964   1.998   7.677   2.596
13008TIP3    H138965   1.983   7.703   2.505
13008TIP3    H238966   1.917   7.633   2.621
13009TIP3   OH238967   0.340   0.978   4.483
13009TIP3    H138968   0.420   0.926   4.477
13009TIP3    H238969   0.314   0.971   4.575
13010TIP3   OH238970   7.572   7.716   0.759
13010TIP3    H138971   7.538   7.778   0.694
13010TIP3    H238972   7.507   7.646   0.762
13011TIP3   OH238973   0.931   4.935   6.036
13011TIP3    H138974   1.015   4.943   5.991
13011TIP3    H238975   0.896   5.023   6.037
13012TIP3   OH238976   0.674   7.748   4.363
13012TIP3    H138977   0.648   7.742   4.455
13012TIP3    H238978   0.689   7.842   4.348
13013TIP3   OH238979   0.909   0.157   5.733
13013TIP3    H138980   0.916   0.079   5.678
13013TIP3    H238981   0.987   0.208   5.711
13014TIP3   OH238982   1.984   6.042   1.147
13014TIP3    H138983   2.042   6.083   1.083
13014TIP3    H238984   1.896   6.069   1.121
13015TIP3   OH238985   8.259   4.160   3.980
13015TIP3    H138986   8.348   4.136   4.003
13015TIP3    H238987   8.227   4.087   3.928
13016TIP3   OH238988   0.981   2.883   1.991
13016TIP3    H138989   0.987   2.882   2.087
13016TIP3    H238990   1.056   2.936   1.963
13017TIP3   OH238991   6.313   0.050   1.371
13017TIP3    H138992   6.337   0.104   1.446
13017TIP3    H238993   6.227   0.015   1.392
13018TIP3   OH238994   8.276   3.572   1.858
13018TIP3    H138995   8.234   3.652   1.889
13018TIP3    H238996   8.281   3.516   1.936
13019TIP3   OH238997   1.863   4.026   6.095
13019TIP3    H138998   1.784   4.068   6.060
13019TIP3    H238999   1.870   3.944   6.047
13020TIP3   OH239000   2.790   5.855   4.028
13020TIP3    H139001   2.875   5.897   4.035
13020TIP3    H239002   2.727   5.923   4.052
13021TIP3   OH239003   6.867   1.217   6.714
13021TIP3    H139004   6.867   1.173   6.800
13021TIP3    H239005   6.869   1.145   6.651
13022TIP3   OH239006   3.683   1.694   2.045
13022TIP3    H139007   3.623   1.663   2.113
13022TIP3    H239008   3.766   1.650   2.065
13023TIP3   OH239009   0.686   3.089   6.655
13023TIP3    H139010   0.778   3.113   6.661
13023TIP3    H239011   0.667   3.087   6.561
13024TIP3   OH239012   3.628   6.089   1.251
13024TIP3    H139013   3.673   6.156   1.303
13024TIP3    H239014   3.539   6.089   1.284
13025TIP3   OH239015   0.402   2.683   0.041
13025TIP3    H139016   0.487   2.647   0.066
13025TIP3    H239017   0.374   2.735   0.116
13026TIP3   OH239018   1.451   3.385   5.669
13026TIP3    H139019   1.374   3.384   5.725
13026TIP3    H239020   1.415   3.382   5.580
13027TIP3   OH239021   2.184   0.767   2.273
13027TIP3    H139022   2.214   0.856   2.289
13027TIP3    H239023   2.250   0.729   2.214
13028TIP3   OH239024   4.709   4.825   5.636
13028TIP3    H139025   4.700   4.779   5.719
13028TIP3    H239026   4.643   4.895   5.640
13029TIP3   OH239027   6.004   7.574   0.135
13029TIP3    H139028   6.091   7.567   0.176
13029TIP3    H239029   6.005   7.658   0.091
13030TIP3   OH239030   2.648   6.258   4.414
13030TIP3    H139031   2.679   6.329   4.470
13030TIP3    H239032   2.552   6.266   4.415
13031TIP3   OH239033   5.050   0.909   6.287
13031TIP3    H139034   5.069   1.001   6.302
13031TIP3    H239035   4.961   0.897   6.320
13032TIP3   OH239036   5.354   7.490   4.704
13032TIP3    H139037   5.329   7.551   4.635
13032TIP3    H239038   5.276   7.437   4.719
13033TIP3   OH239039   3.480   0.272   1.518
13033TIP3    H139040   3.414   0.299   1.454
13033TIP3    H239041   3.562   0.307   1.485
13034TIP3   OH239042   3.350   2.036   5.787
13034TIP3    H139043   3.389   2.019   5.872
13034TIP3    H239044   3.418   2.083   5.738
13035TIP3   OH239045   5.202   1.410   1.282
13035TIP3    H139046   5.217   1.334   1.226
13035TIP3    H239047   5.169   1.374   1.364
13036TIP3   OH239048   1.212   3.593   6.158
13036TIP3    H139049   1.210   3.633   6.246
13036TIP3    H239050   1.217   3.667   6.098
13037TIP3   OH239051   3.733   7.031   1.312
13037TIP3    H139052   3.728   7.101   1.377
13037TIP3    H239053   3.687   6.957   1.353
13038TIP3   OH239054   1.188   0.509   6.544
13038TIP3    H139055   1.133   0.432   6.559
13038TIP3    H239056   1.253   0.506   6.614
13039TIP3   OH239057   5.750   3.188   1.561
13039TIP3    H139058   5.730   3.114   1.504
13039TIP3    H239059   5.799   3.150   1.634
13040TIP3   OH239060   1.450   0.806   6.212
13040TIP3    H139061   1.403   0.807   6.295
13040TIP3    H239062   1.411   0.877   6.162
13041TIP3   OH239063   5.948   3.332   3.648
13041TIP3    H139064   5.896   3.410   3.668
13041TIP3    H239065   5.982   3.348   3.560
13042TIP3   OH239066   7.746   4.379   3.541
13042TIP3    H139067   7.775   4.458   3.587
13042TIP3    H239068   7.660   4.402   3.506
13043TIP3   OH239069   5.114   1.460   0.551
13043TIP3    H139070   5.122   1.469   0.646
13043TIP3    H239071   5.045   1.395   0.539
13044TIP3   OH239072   6.863   1.380   4.311
13044TIP3    H139073   6.834   1.442   4.245
13044TIP3    H239074   6.919   1.319   4.264
13045TIP3   OH239075   4.628   2.217   5.328
13045TIP3    H139076   4.720   2.190   5.336
13045TIP3    H239077   4.631   2.312   5.322
13046TIP3   OH239078   6.505   4.518   2.122
13046TIP3    H139079   6.497   4.551   2.032
13046TIP3    H239080   6.429   4.555   2.168
13047TIP3   OH239081   5.325   0.124   2.802
13047TIP3    H139082   5.349   0.033   2.785
13047TIP3    H239083   5.376   0.148   2.880
13048TIP3   OH239084   3.377   0.995   5.331
13048TIP3    H139085   3.436   1.070   5.333
13048TIP3    H239086   3.405   0.944   5.255
13049TIP3   OH239087   0.489   7.122   0.450
13049TIP3    H139088   0.515   7.071   0.373
13049TIP3    H239089   0.548   7.197   0.450
13050TIP3   OH239090   1.766   2.966   3.472
13050TIP3    H139091   1.851   2.961   3.515
13050TIP3    H239092   1.753   2.879   3.435
13051TIP3   OH239093   2.623   5.372   1.936
13051TIP3    H139094   2.690   5.327   1.988
13051TIP3    H239095   2.561   5.304   1.912
13052TIP3   OH239096   1.250   5.085   3.864
13052TIP3    H139097   1.321   5.070   3.926
13052TIP3    H239098   1.185   5.019   3.886
13053TIP3   OH239099   1.822   2.994   4.920
13053TIP3    H139100   1.893   2.940   4.887
13053TIP3    H239101   1.847   3.015   5.010
13054TIP3   OH239102   1.602   5.884   0.952
13054TIP3    H139103   1.623   5.962   1.003
13054TIP3    H239104   1.664   5.818   0.983
13055TIP3   OH239105   7.106   6.432   5.585
13055TIP3    H139106   7.104   6.343   5.620
13055TIP3    H239107   7.108   6.488   5.662
13056TIP3   OH239108   4.852   4.653   0.776
13056TIP3    H139109   4.788   4.649   0.847
13056TIP3    H239110   4.816   4.719   0.716
13057TIP3   OH239111   0.637   0.073   0.633
13057TIP3    H139112   0.625   0.131   0.708
13057TIP3    H239113   0.706   0.013   0.659
13058TIP3   OH239114   3.412   2.291   6.001
13058TIP3    H139115   3.378   2.344   6.074
13058TIP3    H239116   3.451   2.214   6.043
13059TIP3   OH239117   2.316   4.318   0.771
13059TIP3    H139118   2.256   4.380   0.731
13059TIP3    H239119   2.339   4.357   0.855
13060TIP3   OH239120   7.021   1.789   2.930
13060TIP3    H139121   6.981   1.701   2.929
13060TIP3    H239122   7.105   1.776   2.974
13061TIP3   OH239123   3.243   3.242   4.963
13061TIP3    H139124   3.338   3.252   4.968
13061TIP3    H239125   3.225   3.225   4.871
13062TIP3   OH239126   0.716   3.712   4.075
13062TIP3    H139127   0.642   3.749   4.123
13062TIP3    H239128   0.718   3.620   4.102
13063TIP3   OH239129   5.318   2.056   3.356
13063TIP3    H139130   5.314   2.111   3.434
13063TIP3    H239131   5.249   1.990   3.370
13064TIP3   OH239132   7.092   0.819   2.425
13064TIP3    H139133   7.063   0.845   2.513
13064TIP3    H239134   7.187   0.831   2.427
13065TIP3   OH239135   3.837   0.186   6.602
13065TIP3    H139136   3.816   0.098   6.571
13065TIP3    H239137   3.800   0.244   6.536
13066TIP3   OH239138   3.465   1.222   5.960
13066TIP3    H139139   3.553   1.224   5.920
13066TIP3    H239140   3.452   1.310   5.993
13067TIP3   OH239141   7.388   4.090   1.756
13067TIP3    H139142   7.478   4.111   1.730
13067TIP3    H239143   7.351   4.045   1.680
13068TIP3   OH239144   6.084   5.347   3.148
13068TIP3    H139145   6.107   5.254   3.148
13068TIP3    H239146   6.033   5.359   3.228
13069TIP3   OH239147   4.841   4.093   5.463
13069TIP3    H139148   4.930   4.114   5.491
13069TIP3    H239149   4.837   3.998   5.461
13070TIP3   OH239150   7.913   0.789   0.814
13070TIP3    H139151   7.909   0.768   0.721
13070TIP3    H239152   7.823   0.778   0.846
13071TIP3   OH239153   2.040   4.582   2.428
13071TIP3    H139154   2.081   4.533   2.499
13071TIP3    H239155   1.952   4.601   2.460
13072TIP3   OH239156   1.915   2.437   5.408
13072TIP3    H139157   1.860   2.468   5.336
13072TIP3    H239158   1.898   2.498   5.480
13073TIP3   OH239159   1.919   3.282   5.500
13073TIP3    H139160   1.906   3.308   5.591
13073TIP3    H239161   1.893   3.189   5.498
13074TIP3   OH239162   6.508   5.373   0.804
13074TIP3    H139163   6.428   5.426   0.807
13074TIP3    H239164   6.555   5.406   0.728
13075TIP3   OH239165   7.716   4.493   0.523
13075TIP3    H139166   7.666   4.543   0.458
13075TIP3    H239167   7.731   4.408   0.482
13076TIP3   OH239168   7.726   7.907   3.319
13076TIP3    H139169   7.707   7.818   3.289
13076TIP3    H239170   7.678   7.915   3.402
13077TIP3   OH239171   1.551   5.553   0.453
13077TIP3    H139172   1.544   5.496   0.530
13077TIP3    H239173   1.548   5.642   0.489
13078TIP3   OH239174   1.685   5.500   5.459
13078TIP3    H139175   1.674   5.584   5.415
13078TIP3    H239176   1.597   5.474   5.485
13079TIP3   OH239177   5.682   3.124   4.285
13079TIP3    H139178   5.738   3.187   4.240
13079TIP3    H239179   5.660   3.167   4.368
13080TIP3   OH239180   3.820   5.105   5.770
13080TIP3    H139181   3.788   5.189   5.739
13080TIP3    H239182   3.772   5.040   5.719
13081TIP3   OH239183   3.574   6.623   6.009
13081TIP3    H139184   3.582   6.629   6.104
13081TIP3    H239185   3.537   6.536   5.994
13082TIP3   OH239186   0.422   2.942   2.873
13082TIP3    H139187   0.370   3.003   2.925
13082TIP3    H239188   0.510   2.978   2.875
13083TIP3   OH239189   6.337   1.239   1.799
13083TIP3    H139190   6.258   1.252   1.747
13083TIP3    H239191   6.403   1.211   1.736
13084TIP3   OH239192   6.828   3.005   4.565
13084TIP3    H139193   6.848   2.918   4.530
13084TIP3    H239194   6.913   3.048   4.569
13085TIP3   OH239195   1.022   2.000   1.595
13085TIP3    H139196   1.032   1.919   1.645
13085TIP3    H239197   1.050   1.977   1.506
13086TIP3   OH239198   5.957   6.721   4.030
13086TIP3    H139199   6.025   6.670   4.075
13086TIP3    H239200   5.946   6.799   4.084
13087TIP3   OH239201   3.514   4.679   2.991
13087TIP3    H139202   3.591   4.623   3.001
13087TIP3    H239203   3.451   4.625   2.943
13088TIP3   OH239204   3.765   5.828   0.881
13088TIP3    H139205   3.754   5.920   0.903
13088TIP3    H239206   3.706   5.813   0.808
13089TIP3   OH239207   3.281   5.318   0.854
13089TIP3    H139208   3.235   5.256   0.798
13089TIP3    H239209   3.217   5.343   0.920
13090TIP3   OH239210   3.019   1.300   1.380
13090TIP3    H139211   3.037   1.394   1.384
13090TIP3    H239212   3.071   1.263   1.451
13091TIP3   OH239213   8.095   6.475   2.651
13091TIP3    H139214   8.030   6.481   2.581
13091TIP3    H239215   8.045   6.490   2.732
13092TIP3   OH239216   0.502   2.203   6.077
13092TIP3    H139217   0.444   2.273   6.106
13092TIP3    H239218   0.534   2.164   6.158
13093TIP3   OH239219   6.314   5.163   5.912
13093TIP3    H139220   6.334   5.075   5.880
13093TIP3    H239221   6.233   5.188   5.866
13094TIP3   OH239222   3.229   1.946   1.383
13094TIP3    H139223   3.217   1.879   1.451
13094TIP3    H239224   3.322   1.939   1.359
13095TIP3   OH239225   4.920   3.274   6.733
13095TIP3    H139226   4.992   3.221   6.699
13095TIP3    H239227   4.904   3.241   6.821
13096TIP3   OH239228   8.277   4.387   5.563
13096TIP3    H139229   8.286   4.307   5.616
13096TIP3    H239230   8.194   4.425   5.591
13097TIP3   OH239231   1.854   7.702   5.265
13097TIP3    H139232   1.933   7.697   5.319
13097TIP3    H239233   1.786   7.660   5.318
13098TIP3   OH239234   1.712   7.298   5.156
13098TIP3    H139235   1.642   7.272   5.216
13098TIP3    H239236   1.777   7.341   5.212
13099TIP3   OH239237   7.688   4.908   4.557
13099TIP3    H139238   7.783   4.903   4.564
13099TIP3    H239239   7.673   4.957   4.476
13100TIP3   OH239240   5.869   3.904   5.098
13100TIP3    H139241   5.860   3.809   5.090
13100TIP3    H239242   5.834   3.938   5.016
13101TIP3   OH239243   5.757   7.752   0.320
13101TIP3    H139244   5.817   7.827   0.319
13101TIP3    H239245   5.744   7.730   0.228
13102TIP3   OH239246   1.797   5.055   2.229
13102TIP3    H139247   1.837   5.073   2.143
13102TIP3    H239248   1.757   4.969   2.220
13103TIP3   OH239249   8.360   2.041   1.438
13103TIP3    H139250   8.337   1.953   1.469
13103TIP3    H239251   8.427   2.026   1.371
13104TIP3   OH239252   1.766   7.918   5.126
13104TIP3    H139253   1.794   7.849   5.187
13104TIP3    H239254   1.844   7.971   5.113
13105TIP3   OH239255   2.702   2.725   1.591
13105TIP3    H139256   2.731   2.638   1.563
13105TIP3    H239257   2.674   2.768   1.510
13106TIP3   OH239258   7.156   5.651   0.634
13106TIP3    H139259   7.088   5.693   0.687
13106TIP3    H239260   7.109   5.590   0.577
13107TIP3   OH239261   7.895   6.115   3.989
13107TIP3    H139262   7.813   6.074   4.017
13107TIP3    H239263   7.915   6.177   4.059
13108TIP3   OH239264   2.159   6.106   4.443
13108TIP3    H139265   2.151   6.014   4.419
13108TIP3    H239266   2.109   6.153   4.376
13109TIP3   OH239267   0.395   2.859   1.317
13109TIP3    H139268   0.315   2.810   1.339
13109TIP3    H239269   0.387   2.876   1.223
13110TIP3   OH239270   7.139   2.022   6.375
13110TIP3    H139271   7.086   1.944   6.392
13110TIP3    H239272   7.103   2.089   6.434
13111TIP3   OH239273   3.389   5.459   0.626
13111TIP3    H139274   3.361   5.549   0.643
13111TIP3    H239275   3.381   5.415   0.711
13112TIP3   OH239276   7.694   6.734   4.713
13112TIP3    H139277   7.787   6.710   4.706
13112TIP3    H239278   7.647   6.661   4.672
13113TIP3   OH239279   4.857   7.203   2.374
13113TIP3    H139280   4.777   7.234   2.417
13113TIP3    H239281   4.910   7.166   2.445
13114TIP3   OH239282   0.602   1.413   5.282
13114TIP3    H139283   0.539   1.416   5.354
13114TIP3    H239284   0.555   1.368   5.212
13115TIP3   OH239285   3.236   0.025   4.410
13115TIP3    H139286   3.279   0.104   4.377
13115TIP3    H239287   3.268   0.015   4.499
13116TIP3   OH239288   6.827   4.761   1.533
13116TIP3    H139289   6.903   4.818   1.544
13116TIP3    H239290   6.864   4.678   1.503
13117TIP3   OH239291   1.021   2.867   0.502
13117TIP3    H139292   1.087   2.797   0.503
13117TIP3    H239293   1.010   2.889   0.410
13118TIP3   OH239294   1.498   7.545   0.619
13118TIP3    H139295   1.532   7.460   0.645
13118TIP3    H239296   1.553   7.608   0.666
13119TIP3   OH239297   0.048   0.189   3.617
13119TIP3    H139298  -0.025   0.166   3.560
13119TIP3    H239299   0.081   0.272   3.582
13120TIP3   OH239300   2.990   1.134   1.729
13120TIP3    H139301   3.068   1.138   1.673
13120TIP3    H239302   2.917   1.128   1.667
13121TIP3   OH239303   3.217   3.759   1.132
13121TIP3    H139304   3.287   3.792   1.188
13121TIP3    H239305   3.154   3.719   1.192
13122TIP3   OH239306   7.172   5.343   2.441
13122TIP3    H139307   7.115   5.305   2.508
13122TIP3    H239308   7.144   5.435   2.436
13123TIP3   OH239309   0.204   7.821   2.088
13123TIP3    H139310   0.148   7.762   2.038
13123TIP3    H239311   0.145   7.886   2.125
13124TIP3   OH239312   7.451   0.184   6.427
13124TIP3    H139313   7.463   0.118   6.357
13124TIP3    H239314   7.360   0.174   6.454
13125TIP3   OH239315   7.677   1.135   6.323
13125TIP3    H139316   7.712   1.065   6.269
13125TIP3    H239317   7.620   1.091   6.387
13126TIP3   OH239318   1.054   0.250   0.022
13126TIP3    H139319   1.023   0.192  -0.047
13126TIP3    H239320   0.976   0.272   0.072
13127TIP3   OH239321   1.615   3.742   6.294
13127TIP3    H139322   1.657   3.658   6.278
13127TIP3    H239323   1.572   3.732   6.379
13128TIP3   OH239324   5.768   2.243   2.615
13128TIP3    H139325   5.750   2.179   2.546
13128TIP3    H239326   5.741   2.327   2.578
13129TIP3   OH239327   0.391   0.255   0.244
13129TIP3    H139328   0.336   0.190   0.287
13129TIP3    H239329   0.397   0.226   0.153
13130TIP3   OH239330   7.656   1.335   1.894
13130TIP3    H139331   7.648   1.297   1.806
13130TIP3    H239332   7.746   1.315   1.921
13131TIP3   OH239333   2.974   5.115   3.698
13131TIP3    H139334   2.892   5.134   3.652
13131TIP3    H239335   2.964   5.157   3.783
13132TIP3   OH239336   5.580   2.934   1.668
13132TIP3    H139337   5.623   2.929   1.583
13132TIP3    H239338   5.519   3.007   1.659
13133TIP3   OH239339   3.139   2.452   3.341
13133TIP3    H139340   3.150   2.406   3.257
13133TIP3    H239341   3.065   2.510   3.326
13134TIP3   OH239342   1.430   6.902   2.638
13134TIP3    H139343   1.505   6.935   2.688
13134TIP3    H239344   1.365   6.972   2.642
13135TIP3   OH239345   7.062   2.649   5.559
13135TIP3    H139346   6.973   2.621   5.578
13135TIP3    H239347   7.117   2.597   5.618
13136TIP3   OH239348   6.240   0.959   3.391
13136TIP3    H139349   6.322   0.955   3.439
13136TIP3    H239350   6.204   0.871   3.396
13137TIP3   OH239351   2.750   1.881   0.950
13137TIP3    H139352   2.765   1.793   0.985
13137TIP3    H239353   2.669   1.873   0.899
13138TIP3   OH239354   6.295   1.301   6.778
13138TIP3    H139355   6.278   1.302   6.872
13138TIP3    H239356   6.378   1.253   6.769
13139TIP3   OH239357   5.542   1.589   4.388
13139TIP3    H139358   5.620   1.581   4.334
13139TIP3    H239359   5.480   1.527   4.350
13140TIP3   OH239360   3.998   7.784   3.060
13140TIP3    H139361   3.963   7.695   3.065
13140TIP3    H239362   4.083   7.779   3.103
13141TIP3   OH239363   1.115   6.460   1.215
13141TIP3    H139364   1.115   6.529   1.149
13141TIP3    H239365   1.207   6.435   1.223
13142TIP3   OH239366   5.352   5.120   6.075
13142TIP3    H139367   5.270   5.103   6.029
13142TIP3    H239368   5.363   5.044   6.132
13143TIP3   OH239369   5.132   7.096   6.156
13143TIP3    H139370   5.193   7.031   6.121
13143TIP3    H239371   5.172   7.180   6.135
13144TIP3   OH239372   3.424   5.298   5.533
13144TIP3    H139373   3.490   5.230   5.516
13144TIP3    H239374   3.351   5.252   5.573
13145TIP3   OH239375   7.412   4.301   6.851
13145TIP3    H139376   7.395   4.227   6.794
13145TIP3    H239377   7.447   4.262   6.932
13146TIP3   OH239378   2.955   0.296   4.727
13146TIP3    H139379   2.915   0.350   4.796
13146TIP3    H239380   2.969   0.356   4.654
13147TIP3   OH239381   4.365   1.188   0.563
13147TIP3    H139382   4.274   1.184   0.536
13147TIP3    H239383   4.410   1.229   0.489
13148TIP3   OH239384   5.451   3.586   3.896
13148TIP3    H139385   5.487   3.673   3.911
13148TIP3    H239386   5.438   3.550   3.984
13149TIP3   OH239387   4.093   3.262   3.023
13149TIP3    H139388   4.061   3.350   3.008
13149TIP3    H239389   4.026   3.220   3.077
13150TIP3   OH239390   5.037   0.793   2.910
13150TIP3    H139391   4.944   0.790   2.888
13150TIP3    H239392   5.055   0.886   2.922
13151TIP3   OH239393   7.769   2.031   6.559
13151TIP3    H139394   7.816   1.997   6.635
13151TIP3    H239395   7.757   1.955   6.502
13152TIP3   OH239396   3.576   0.205   0.750
13152TIP3    H139397   3.522   0.266   0.700
13152TIP3    H239398   3.520   0.129   0.763
13153TIP3   OH239399   7.386   4.905   3.548
13153TIP3    H139400   7.346   4.986   3.517
13153TIP3    H239401   7.476   4.929   3.570
13154TIP3   OH239402   0.805   4.075   6.412
13154TIP3    H139403   0.859   4.015   6.360
13154TIP3    H239404   0.746   4.115   6.348
13155TIP3   OH239405   3.295   2.312   5.750
13155TIP3    H139406   3.321   2.302   5.841
13155TIP3    H239407   3.272   2.224   5.722
13156TIP3   OH239408   0.927   6.222   5.248
13156TIP3    H139409   0.893   6.236   5.336
13156TIP3    H239410   0.975   6.303   5.228
13157TIP3   OH239411   2.535   7.061   3.650
13157TIP3    H139412   2.515   7.019   3.733
13157TIP3    H239413   2.464   7.123   3.636
13158TIP3   OH239414   6.335   1.436   4.044
13158TIP3    H139415   6.244   1.457   4.062
13158TIP3    H239416   6.356   1.364   4.105
13159TIP3   OH239417   7.592   4.864   0.381
13159TIP3    H139418   7.584   4.825   0.468
13159TIP3    H239419   7.501   4.867   0.348
13160TIP3   OH239420   6.336   5.141   3.042
13160TIP3    H139421   6.432   5.145   3.041
13160TIP3    H239422   6.309   5.209   2.980
13161TIP3   OH239423   6.795   1.106   6.245
13161TIP3    H139424   6.857   1.089   6.175
13161TIP3    H239425   6.822   1.191   6.280
13162TIP3   OH239426   5.586   6.083   6.711
13162TIP3    H139427   5.618   6.157   6.660
13162TIP3    H239428   5.562   6.018   6.645
13163TIP3   OH239429   0.604   6.270   6.569
13163TIP3    H139430   0.606   6.180   6.603
13163TIP3    H239431   0.532   6.312   6.616
13164TIP3   OH239432   1.834   3.144   3.791
13164TIP3    H139433   1.892   3.078   3.754
13164TIP3    H239434   1.789   3.182   3.715
13165TIP3   OH239435   1.143   1.940   1.378
13165TIP3    H139436   1.133   1.845   1.375
13165TIP3    H239437   1.234   1.954   1.352
13166TIP3   OH239438   8.398   5.599   4.069
13166TIP3    H139439   8.381   5.538   4.140
13166TIP3    H239440   8.423   5.681   4.113
13167TIP3   OH239441   4.992   6.495   6.725
13167TIP3    H139442   4.940   6.418   6.749
13167TIP3    H239443   4.938   6.542   6.663
13168TIP3   OH239444   2.304   2.295   4.862
13168TIP3    H139445   2.271   2.353   4.931
13168TIP3    H239446   2.311   2.209   4.904
13169TIP3   OH239447   2.370   0.454   0.153
13169TIP3    H139448   2.438   0.438   0.087
13169TIP3    H239449   2.369   0.549   0.163
13170TIP3   OH239450   7.030   1.760   0.630
13170TIP3    H139451   7.114   1.746   0.675
13170TIP3    H239452   6.977   1.808   0.694
13171TIP3   OH239453   5.614   0.792   2.439
13171TIP3    H139454   5.583   0.702   2.447
13171TIP3    H239455   5.545   0.836   2.388
13172TIP3   OH239456   6.007   7.479   6.510
13172TIP3    H139457   6.003   7.541   6.437
13172TIP3    H239458   5.997   7.533   6.588
13173TIP3   OH239459   4.866   7.648   5.304
13173TIP3    H139460   4.800   7.709   5.338
13173TIP3    H239461   4.847   7.566   5.348
13174TIP3   OH239462   1.568   5.377   1.642
13174TIP3    H139463   1.584   5.434   1.718
13174TIP3    H239464   1.511   5.309   1.675
13175TIP3   OH239465   0.529   4.683   4.492
13175TIP3    H139466   0.600   4.732   4.450
13175TIP3    H239467   0.453   4.741   4.486
13176TIP3   OH239468   5.179   0.635   0.290
13176TIP3    H139469   5.167   0.630   0.195
13176TIP3    H239470   5.118   0.570   0.325
13177TIP3   OH239471   3.155   0.695   6.000
13177TIP3    H139472   3.103   0.773   6.017
13177TIP3    H239473   3.189   0.707   5.911
13178TIP3   OH239474   1.901   6.587   6.344
13178TIP3    H139475   1.953   6.560   6.269
13178TIP3    H239476   1.867   6.673   6.321
13179TIP3   OH239477   5.101   5.905   0.314
13179TIP3    H139478   5.043   5.981   0.315
13179TIP3    H239479   5.063   5.844   0.376
13180TIP3   OH239480   5.030   1.057   5.530
13180TIP3    H139481   5.026   0.997   5.604
13180TIP3    H239482   5.015   1.002   5.453
13181TIP3   OH239483   5.498   0.488   6.020
13181TIP3    H139484   5.565   0.524   5.961
13181TIP3    H239485   5.434   0.559   6.029
13182TIP3   OH239486   7.703   2.147   5.842
13182TIP3    H139487   7.665   2.060   5.824
13182TIP3    H239488   7.682   2.199   5.764
13183TIP3   OH239489   1.207   3.320   3.125
13183TIP3    H139490   1.169   3.333   3.212
13183TIP3    H239491   1.172   3.393   3.073
13184TIP3   OH239492   3.947   7.059   4.110
13184TIP3    H139493   3.985   7.137   4.151
13184TIP3    H239494   3.853   7.072   4.114
13185TIP3   OH239495   5.674   5.243   0.733
13185TIP3    H139496   5.751   5.189   0.749
13185TIP3    H239497   5.652   5.279   0.819
13186TIP3   OH239498   2.087   1.897   4.880
13186TIP3    H139499   2.003   1.891   4.926
13186TIP3    H239500   2.090   1.819   4.824
13187TIP3   OH239501   4.442   7.538   0.776
13187TIP3    H139502   4.409   7.472   0.837
13187TIP3    H239503   4.367   7.595   0.761
13188TIP3   OH239504   1.783   7.274   2.278
13188TIP3    H139505   1.725   7.296   2.351
13188TIP3    H239506   1.860   7.328   2.291
13189TIP3   OH239507   2.568   6.056   3.696
13189TIP3    H139508   2.529   5.968   3.693
13189TIP3    H239509   2.557   6.090   3.607
13190TIP3   OH239510   7.865   6.170   5.292
13190TIP3    H139511   7.843   6.136   5.379
13190TIP3    H239512   7.875   6.093   5.237
13191TIP3   OH239513   3.244   5.065   0.186
13191TIP3    H139514   3.167   5.036   0.136
13191TIP3    H239515   3.246   5.008   0.263
13192TIP3   OH239516   8.415   2.379   6.033
13192TIP3    H139517   8.322   2.398   6.022
13192TIP3    H239518   8.459   2.433   5.968
13193TIP3   OH239519   7.976   4.670   3.303
13193TIP3    H139520   8.001   4.753   3.261
13193TIP3    H239521   7.999   4.683   3.395
13194TIP3   OH239522   4.595   3.989   3.736
13194TIP3    H139523   4.552   3.966   3.653
13194TIP3    H239524   4.526   3.983   3.802
13195TIP3   OH239525   3.041   5.172   5.938
13195TIP3    H139526   3.071   5.111   6.006
13195TIP3    H239527   3.006   5.116   5.869
13196TIP3   OH239528   2.327   5.363   1.264
13196TIP3    H139529   2.370   5.332   1.185
13196TIP3    H239530   2.235   5.374   1.240
13197TIP3   OH239531   8.231   2.301   4.168
13197TIP3    H139532   8.226   2.392   4.140
13197TIP3    H239533   8.164   2.293   4.236
13198TIP3   OH239534   7.253   4.553   0.290
13198TIP3    H139535   7.303   4.515   0.218
13198TIP3    H239536   7.164   4.520   0.278
13199TIP3   OH239537   6.403   6.584   2.184
13199TIP3    H139538   6.447   6.525   2.245
13199TIP3    H239539   6.340   6.633   2.238
13200TIP3   OH239540   4.441   5.702   5.577
13200TIP3    H139541   4.472   5.656   5.499
13200TIP3    H239542   4.346   5.688   5.576
13201TIP3   OH239543   0.478   1.996   4.814
13201TIP3    H139544   0.396   1.948   4.823
13201TIP3    H239545   0.465   2.052   4.737
13202TIP3   OH239546   0.501   3.585   2.977
13202TIP3    H139547   0.548   3.578   3.060
13202TIP3    H239548   0.561   3.634   2.920
13203TIP3   OH239549   0.944   2.693   4.643
13203TIP3    H139550   0.980   2.630   4.706
13203TIP3    H239551   0.940   2.775   4.692
13204TIP3   OH239552   3.307   7.570   6.114
13204TIP3    H139553   3.286   7.655   6.152
13204TIP3    H239554   3.403   7.565   6.119
13205TIP3   OH239555   2.033   0.408   0.274
13205TIP3    H139556   2.023   0.418   0.179
13205TIP3    H239557   1.978   0.478   0.311
13206TIP3   OH239558   3.359   6.476   6.353
13206TIP3    H139559   3.406   6.412   6.406
13206TIP3    H239560   3.300   6.424   6.300
13207TIP3   OH239561   5.325   0.328   5.863
13207TIP3    H139562   5.401   0.368   5.904
13207TIP3    H239563   5.251   0.379   5.896
13208TIP3   OH239564   8.102   3.514   5.799
13208TIP3    H139565   8.133   3.604   5.813
13208TIP3    H239566   8.114   3.499   5.706
13209TIP3   OH239567   6.623   2.261   2.549
13209TIP3    H139568   6.565   2.306   2.610
13209TIP3    H239569   6.689   2.326   2.526
13210TIP3   OH239570   5.508   4.813   5.794
13210TIP3    H139571   5.567   4.749   5.831
13210TIP3    H239572   5.560   4.859   5.728
13211TIP3   OH239573   5.421   6.771   5.815
13211TIP3    H139574   5.498   6.727   5.851
13211TIP3    H239575   5.431   6.763   5.721
13212TIP3   OH239576   3.448   5.745   3.317
13212TIP3    H139577   3.510   5.672   3.313
13212TIP3    H239578   3.389   5.723   3.389
13213TIP3   OH239579   3.835   6.678   6.306
13213TIP3    H139580   3.776   6.603   6.310
13213TIP3    H239581   3.891   6.667   6.383
13214TIP3   OH239582   2.780   7.632   5.454
13214TIP3    H139583   2.806   7.723   5.436
13214TIP3    H239584   2.859   7.581   5.437
13215TIP3   OH239585   0.126   3.269   6.695
13215TIP3    H139586   0.185   3.304   6.761
13215TIP3    H239587   0.039   3.302   6.719
13216TIP3   OH239588   5.213   0.592   6.820
13216TIP3    H139589   5.127   0.595   6.778
13216TIP3    H239590   5.204   0.526   6.889
13217TIP3   OH239591   3.612   1.665   6.727
13217TIP3    H139592   3.593   1.624   6.642
13217TIP3    H239593   3.652   1.749   6.705
13218TIP3   OH239594   0.588   7.621   3.589
13218TIP3    H139595   0.622   7.686   3.650
13218TIP3    H239596   0.500   7.653   3.567
13219TIP3   OH239597   1.471   3.658   5.668
13219TIP3    H139598   1.476   3.563   5.666
13219TIP3    H239599   1.421   3.678   5.748
13220TIP3   OH239600   6.676   2.762   3.633
13220TIP3    H139601   6.619   2.690   3.606
13220TIP3    H239602   6.732   2.724   3.701
13221TIP3   OH239603   6.979   0.512   6.112
13221TIP3    H139604   6.923   0.455   6.059
13221TIP3    H239605   6.921   0.582   6.142
13222TIP3   OH239606   7.109   6.585   2.205
13222TIP3    H139607   7.073   6.505   2.243
13222TIP3    H239608   7.133   6.638   2.281
13223TIP3   OH239609   6.269   3.009   1.439
13223TIP3    H139610   6.212   3.067   1.390
13223TIP3    H239611   6.310   2.953   1.373
13224TIP3   OH239612   3.327   0.360   5.318
13224TIP3    H139613   3.244   0.340   5.273
13224TIP3    H239614   3.338   0.454   5.304
13225TIP3   OH239615   2.935   4.023   5.995
13225TIP3    H139616   2.905   3.989   6.079
13225TIP3    H239617   2.898   4.111   5.989
13226TIP3   OH239618   7.807   4.041   5.978
13226TIP3    H139619   7.901   4.051   5.990
13226TIP3    H239620   7.778   4.126   5.944
13227TIP3   OH239621   7.006   5.659   4.241
13227TIP3    H139622   6.967   5.739   4.205
13227TIP3    H239623   6.934   5.616   4.287
13228TIP3   OH239624   2.265   6.934   2.360
13228TIP3    H139625   2.305   6.857   2.319
13228TIP3    H239626   2.247   6.907   2.450
13229TIP3   OH239627   5.422   5.669   6.218
13229TIP3    H139628   5.467   5.585   6.215
13229TIP3    H239629   5.359   5.666   6.145
13230TIP3   OH239630   3.016   4.072   5.280
13230TIP3    H139631   3.089   4.048   5.338
13230TIP3    H239632   3.023   4.167   5.271
13231TIP3   OH239633   8.046   2.991   3.518
13231TIP3    H139634   7.968   2.940   3.539
13231TIP3    H239635   8.117   2.926   3.517
13232TIP3   OH239636   5.448   5.999   3.261
13232TIP3    H139637   5.472   6.062   3.329
13232TIP3    H239638   5.516   5.931   3.268
13233TIP3   OH239639   2.707   4.188   4.332
13233TIP3    H139640   2.725   4.095   4.331
13233TIP3    H239641   2.616   4.194   4.363
13234TIP3   OH239642   3.916   3.743   4.322
13234TIP3    H139643   4.009   3.745   4.344
13234TIP3    H239644   3.901   3.655   4.288
13235TIP3   OH239645   3.587   7.567   4.356
13235TIP3    H139646   3.639   7.616   4.419
13235TIP3    H239647   3.554   7.633   4.295
13236TIP3   OH239648   1.025   4.934   4.730
13236TIP3    H139649   1.028   4.857   4.787
13236TIP3    H239650   0.938   4.971   4.745
13237TIP3   OH239651   1.614   0.172   6.801
13237TIP3    H139652   1.582   0.261   6.789
13237TIP3    H239653   1.619   0.160   6.895
13238TIP3   OH239654   1.089   2.565   4.840
13238TIP3    H139655   1.151   2.638   4.849
13238TIP3    H239656   1.067   2.542   4.931
13239TIP3   OH239657   8.326   2.840   3.230
13239TIP3    H139658   8.393   2.866   3.294
13239TIP3    H239659   8.273   2.919   3.218
13240TIP3   OH239660   6.328   2.575   3.603
13240TIP3    H139661   6.284   2.636   3.663
13240TIP3    H239662   6.284   2.588   3.519
13241TIP3   OH239663   0.751   0.387   4.255
13241TIP3    H139664   0.842   0.411   4.276
13241TIP3    H239665   0.736   0.306   4.305
13242TIP3   OH239666   2.018   0.942   1.465
13242TIP3    H139667   2.063   0.949   1.380
13242TIP3    H239668   2.066   1.001   1.522
13243TIP3   OH239669   4.609   4.627   0.591
13243TIP3    H139670   4.614   4.546   0.541
13243TIP3    H239671   4.621   4.696   0.526
13244TIP3   OH239672   4.389   4.325   0.672
13244TIP3    H139673   4.473   4.370   0.664
13244TIP3    H239674   4.339   4.377   0.735
13245TIP3   OH239675   0.878   6.598   3.472
13245TIP3    H139676   0.885   6.652   3.393
13245TIP3    H239677   0.803   6.632   3.519
13246TIP3   OH239678   5.620   0.557   5.521
13246TIP3    H139679   5.527   0.545   5.539
13246TIP3    H239680   5.624   0.566   5.425
13247TIP3   OH239681   4.912   5.805   6.591
13247TIP3    H139682   4.943   5.722   6.554
13247TIP3    H239683   4.992   5.852   6.612
13248TIP3   OH239684   3.315   1.265   0.531
13248TIP3    H139685   3.240   1.272   0.590
13248TIP3    H239686   3.311   1.343   0.476
13249TIP3   OH239687   6.137   3.309   1.073
13249TIP3    H139688   6.163   3.220   1.049
13249TIP3    H239689   6.214   3.362   1.054
13250TIP3   OH239690   8.330   0.517   2.264
13250TIP3    H139691   8.415   0.490   2.230
13250TIP3    H239692   8.267   0.488   2.198
13251TIP3   OH239693   1.152   2.620   0.768
13251TIP3    H139694   1.241   2.606   0.735
13251TIP3    H239695   1.157   2.598   0.861
13252TIP3   OH239696   7.509   2.017   1.488
13252TIP3    H139697   7.425   1.973   1.499
13252TIP3    H239698   7.487   2.110   1.482
13253TIP3   OH239699   4.240   6.308   3.056
13253TIP3    H139700   4.158   6.337   3.016
13253TIP3    H239701   4.306   6.369   3.023
13254TIP3   OH239702   2.281   6.037   0.689
13254TIP3    H139703   2.321   6.124   0.689
13254TIP3    H239704   2.232   6.034   0.606
13255TIP3   OH239705   4.400   1.896   4.567
13255TIP3    H139706   4.355   1.898   4.652
13255TIP3    H239707   4.382   1.981   4.528
13256TIP3   OH239708   5.285   7.396   5.197
13256TIP3    H139709   5.191   7.408   5.184
13256TIP3    H239710   5.292   7.325   5.260
13257TIP3   OH239711   6.092   1.785   3.969
13257TIP3    H139712   6.057   1.846   4.034
13257TIP3    H239713   6.105   1.839   3.891
13258TIP3   OH239714   5.131   5.866   5.764
13258TIP3    H139715   5.084   5.938   5.721
13258TIP3    H239716   5.132   5.891   5.856
13259TIP3   OH239717   1.147   7.725   1.790
13259TIP3    H139718   1.135   7.651   1.850
13259TIP3    H239719   1.241   7.730   1.776
13260TIP3   OH239720   2.903   5.986   2.237
13260TIP3    H139721   2.945   5.932   2.304
13260TIP3    H239722   2.887   6.070   2.280
13261TIP3   OH239723   4.523   0.248   2.217
13261TIP3    H139724   4.531   0.311   2.289
13261TIP3    H239725   4.433   0.217   2.222
13262TIP3   OH239726   5.602   6.719   5.038
13262TIP3    H139727   5.571   6.809   5.038
13262TIP3    H239728   5.576   6.685   5.124
13263TIP3   OH239729   4.650   4.552   2.765
13263TIP3    H139730   4.698   4.634   2.780
13263TIP3    H239731   4.717   4.490   2.736
13264TIP3   OH239732   7.833   6.210   3.192
13264TIP3    H139733   7.855   6.222   3.099
13264TIP3    H239734   7.744   6.243   3.200
13265TIP3   OH239735   6.104   0.360   0.838
13265TIP3    H139736   6.061   0.276   0.820
13265TIP3    H239737   6.092   0.411   0.758
13266TIP3   OH239738   2.791   2.016   0.139
13266TIP3    H139739   2.768   2.102   0.172
13266TIP3    H239740   2.793   2.026   0.044
13267TIP3   OH239741   3.352   3.694   6.709
13267TIP3    H139742   3.277   3.653   6.665
13267TIP3    H239743   3.422   3.628   6.703
13268TIP3   OH239744   1.120   4.717   1.198
13268TIP3    H139745   1.098   4.770   1.275
13268TIP3    H239746   1.137   4.782   1.129
13269TIP3   OH239747   7.099   0.598   4.775
13269TIP3    H139748   7.095   0.693   4.782
13269TIP3    H239749   7.007   0.570   4.783
13270TIP3   OH239750   4.497   0.068   3.369
13270TIP3    H139751   4.536   0.151   3.344
13270TIP3    H239752   4.468   0.081   3.460
13271TIP3   OH239753   5.668   6.415   3.507
13271TIP3    H139754   5.658   6.478   3.578
13271TIP3    H239755   5.606   6.446   3.440
13272TIP3   OH239756   6.079   7.550   1.684
13272TIP3    H139757   6.045   7.605   1.614
13272TIP3    H239758   6.171   7.573   1.690
13273TIP3   OH239759   4.808   5.841   0.169
13273TIP3    H139760   4.774   5.860   0.256
13273TIP3    H239761   4.785   5.919   0.117
13274TIP3   OH239762   5.674   2.791   4.930
13274TIP3    H139763   5.619   2.745   4.866
13274TIP3    H239764   5.662   2.744   5.012
13275TIP3   OH239765   0.072   1.258   4.734
13275TIP3    H139766   0.029   1.324   4.680
13275TIP3    H239767   0.087   1.185   4.674
13276TIP3   OH239768   5.004   7.684   3.060
13276TIP3    H139769   4.926   7.723   3.020
13276TIP3    H239770   5.013   7.729   3.144
13277TIP3   OH239771   6.660   7.823   0.109
13277TIP3    H139772   6.570   7.856   0.103
13277TIP3    H239773   6.694   7.830   0.020
13278TIP3   OH239774   3.285   0.623   0.691
13278TIP3    H139775   3.194   0.610   0.717
13278TIP3    H239776   3.289   0.713   0.659
13279TIP3   OH239777   2.522   0.973   5.472
13279TIP3    H139778   2.501   0.899   5.529
13279TIP3    H239779   2.553   0.932   5.391
13280TIP3   OH239780   3.526   6.415   1.456
13280TIP3    H139781   3.498   6.427   1.547
13280TIP3    H239782   3.576   6.494   1.437
13281TIP3   OH239783   3.699   5.071   3.354
13281TIP3    H139784   3.680   4.979   3.335
13281TIP3    H239785   3.698   5.114   3.269
13282TIP3   OH239786   7.247   3.452   3.770
13282TIP3    H139787   7.187   3.526   3.762
13282TIP3    H239788   7.314   3.483   3.831
13283TIP3   OH239789   0.764   5.565   0.650
13283TIP3    H139790   0.819   5.578   0.573
13283TIP3    H239791   0.704   5.495   0.624
13284TIP3   OH239792   6.743   6.889   2.741
13284TIP3    H139793   6.659   6.849   2.765
13284TIP3    H239794   6.782   6.915   2.824
13285TIP3   OH239795   2.483   1.989   0.167
13285TIP3    H139796   2.575   1.960   0.171
13285TIP3    H239797   2.437   1.933   0.229
13286TIP3   OH239798   4.007   4.240   4.959
13286TIP3    H139799   3.989   4.255   4.866
13286TIP3    H239800   4.088   4.287   4.975
13287TIP3   OH239801   3.826   3.331   0.718
13287TIP3    H139802   3.753   3.294   0.668
13287TIP3    H239803   3.816   3.425   0.710
13288TIP3   OH239804   0.738   3.230   4.916
13288TIP3    H139805   0.753   3.292   4.845
13288TIP3    H239806   0.643   3.219   4.919
13289TIP3   OH239807   4.562   5.083   4.096
13289TIP3    H139808   4.563   5.000   4.143
13289TIP3    H239809   4.477   5.086   4.053
13290TIP3   OH239810   0.262   0.485   2.265
13290TIP3    H139811   0.270   0.557   2.327
13290TIP3    H239812   0.249   0.528   2.180
13291TIP3   OH239813   3.773   1.918   4.657
13291TIP3    H139814   3.748   2.006   4.628
13291TIP3    H239815   3.702   1.861   4.627
13292TIP3   OH239816   2.045   4.145   3.852
13292TIP3    H139817   2.068   4.199   3.776
13292TIP3    H239818   2.119   4.155   3.912
13293TIP3   OH239819   4.715   5.442   5.290
13293TIP3    H139820   4.667   5.391   5.225
13293TIP3    H239821   4.681   5.411   5.374
13294TIP3   OH239822   0.676   7.088   3.212
13294TIP3    H139823   0.771   7.093   3.203
13294TIP3    H239824   0.654   7.155   3.277
13295TIP3   OH239825   5.021   4.838   5.750
13295TIP3    H139826   5.103   4.884   5.730
13295TIP3    H239827   4.959   4.908   5.769
13296TIP3   OH239828   0.895   0.697   0.841
13296TIP3    H139829   0.811   0.715   0.799
13296TIP3    H239830   0.942   0.642   0.778
13297TIP3   OH239831   2.279   4.314   1.505
13297TIP3    H139832   2.342   4.251   1.471
13297TIP3    H239833   2.205   4.261   1.535
13298TIP3   OH239834   6.012   2.331   4.783
13298TIP3    H139835   6.042   2.250   4.741
13298TIP3    H239836   5.917   2.329   4.775
13299TIP3   OH239837   6.711   4.464   4.418
13299TIP3    H139838   6.761   4.420   4.349
13299TIP3    H239839   6.757   4.546   4.432
13300TIP3   OH239840   0.358   4.086   2.008
13300TIP3    H139841   0.293   4.143   1.967
13300TIP3    H239842   0.443   4.124   1.983
13301TIP3   OH239843   2.936   5.045   1.112
13301TIP3    H139844   2.883   4.969   1.091
13301TIP3    H239845   2.873   5.115   1.131
13302TIP3   OH239846   0.394   0.520   3.657
13302TIP3    H139847   0.335   0.582   3.614
13302TIP3    H239848   0.339   0.475   3.722
13303TIP3   OH239849   3.993   7.772   4.497
13303TIP3    H139850   3.903   7.739   4.492
13303TIP3    H239851   3.982   7.867   4.506
13304TIP3   OH239852   4.197   7.305   0.484
13304TIP3    H139853   4.232   7.384   0.444
13304TIP3    H239854   4.131   7.337   0.546
13305TIP3   OH239855   4.676   4.518   5.523
13305TIP3    H139856   4.717   4.562   5.449
13305TIP3    H239857   4.733   4.537   5.597
13306TIP3   OH239858   3.289   1.790   5.595
13306TIP3    H139859   3.262   1.851   5.527
13306TIP3    H239860   3.274   1.837   5.677
13307TIP3   OH239861   3.064   4.798   4.502
13307TIP3    H139862   3.060   4.882   4.548
13307TIP3    H239863   2.973   4.770   4.496
13308TIP3   OH239864   5.819   7.248   6.435
13308TIP3    H139865   5.781   7.241   6.523
13308TIP3    H239866   5.824   7.342   6.418
13309TIP3   OH239867   7.817   3.775   5.587
13309TIP3    H139868   7.776   3.823   5.659
13309TIP3    H239869   7.763   3.698   5.574
13310TIP3   OH239870   7.817   1.256   4.040
13310TIP3    H139871   7.804   1.162   4.047
13310TIP3    H239872   7.785   1.291   4.124
13311TIP3   OH239873   4.261   4.863   2.024
13311TIP3    H139874   4.183   4.818   2.054
13311TIP3    H239875   4.324   4.852   2.095
13312TIP3   OH239876   0.813   3.094   5.136
13312TIP3    H139877   0.798   3.145   5.057
13312TIP3    H239878   0.733   3.106   5.188
13313TIP3   OH239879   7.051   2.379   3.170
13313TIP3    H139880   7.038   2.284   3.164
13313TIP3    H239881   7.079   2.394   3.261
13314TIP3   OH239882   3.880   6.544   5.122
13314TIP3    H139883   3.955   6.534   5.063
13314TIP3    H239884   3.858   6.455   5.148
13315TIP3   OH239885   6.708   6.372   3.767
13315TIP3    H139886   6.715   6.303   3.833
13315TIP3    H239887   6.617   6.368   3.738
13316TIP3   OH239888   0.873   7.682   4.880
13316TIP3    H139889   0.904   7.759   4.927
13316TIP3    H239890   0.939   7.615   4.897
13317TIP3   OH239891   1.093   2.011   6.437
13317TIP3    H139892   1.092   1.922   6.472
13317TIP3    H239893   1.002   2.030   6.417
13318TIP3   OH239894   3.622   0.190   0.082
13318TIP3    H139895   3.617   0.103   0.122
13318TIP3    H239896   3.612   0.173  -0.012
13319TIP3   OH239897   2.960   3.120   5.841
13319TIP3    H139898   2.963   3.029   5.814
13319TIP3    H239899   3.029   3.129   5.906
13320TIP3   OH239900   5.084   2.971   2.749
13320TIP3    H139901   5.081   2.882   2.714
13320TIP3    H239902   5.150   2.968   2.818
13321TIP3   OH239903   8.058   7.238   5.191
13321TIP3    H139904   8.032   7.297   5.120
13321TIP3    H239905   8.052   7.150   5.153
13322TIP3   OH239906   2.215   2.591   0.891
13322TIP3    H139907   2.309   2.609   0.889
13322TIP3    H239908   2.209   2.496   0.899
13323TIP3   OH239909   1.360   2.497   2.213
13323TIP3    H139910   1.443   2.522   2.171
13323TIP3    H239911   1.382   2.486   2.305
13324TIP3   OH239912   5.026   3.065   1.562
13324TIP3    H139913   5.054   3.145   1.607
13324TIP3    H239914   5.060   2.995   1.616
13325TIP3   OH239915   3.061   3.922   0.794
13325TIP3    H139916   3.148   3.892   0.767
13325TIP3    H239917   3.002   3.887   0.727
13326TIP3   OH239918   4.630   7.167   5.781
13326TIP3    H139919   4.668   7.168   5.693
13326TIP3    H239920   4.664   7.246   5.823
13327TIP3   OH239921   3.224   6.468   5.666
13327TIP3    H139922   3.238   6.556   5.699
13327TIP3    H239923   3.265   6.467   5.580
13328TIP3   OH239924   7.959   7.793   5.562
13328TIP3    H139925   8.038   7.739   5.560
13328TIP3    H239926   7.969   7.848   5.639
13329TIP3   OH239927   0.940   7.531   5.327
13329TIP3    H139928   0.960   7.440   5.307
13329TIP3    H239929   0.912   7.531   5.418
13330TIP3   OH239930   1.532   7.326   4.275
13330TIP3    H139931   1.438   7.334   4.265
13330TIP3    H239932   1.568   7.393   4.216
13331TIP3   OH239933   7.951   4.726   1.874
13331TIP3    H139934   7.900   4.767   1.804
13331TIP3    H239935   8.006   4.796   1.909
13332TIP3   OH239936   0.371   4.290   0.391
13332TIP3    H139937   0.394   4.200   0.415
13332TIP3    H239938   0.440   4.318   0.331
13333TIP3   OH239939   4.254   1.287   3.996
13333TIP3    H139940   4.302   1.278   3.913
13333TIP3    H239941   4.301   1.356   4.043
13334TIP3   OH239942   2.318   6.830   1.023
13334TIP3    H139943   2.262   6.891   0.976
13334TIP3    H239944   2.258   6.762   1.055
13335TIP3   OH239945   8.262   6.493   1.030
13335TIP3    H139946   8.341   6.444   1.011
13335TIP3    H239947   8.293   6.576   1.066
13336TIP3   OH239948   1.493   0.160   5.817
13336TIP3    H139949   1.587   0.153   5.835
13336TIP3    H239950   1.465   0.238   5.865
13337TIP3   OH239951   5.051   1.087   1.975
13337TIP3    H139952   5.013   1.087   1.887
13337TIP3    H239953   4.988   1.040   2.029
13338TIP3   OH239954   5.090   0.497   5.407
13338TIP3    H139955   5.090   0.588   5.437
13338TIP3    H239956   5.155   0.495   5.337
13339TIP3   OH239957   7.889   3.214   6.087
13339TIP3    H139958   7.844   3.141   6.129
13339TIP3    H239959   7.865   3.207   5.994
13340TIP3   OH239960   7.102   0.802   6.400
13340TIP3    H139961   7.111   0.710   6.426
13340TIP3    H239962   7.046   0.840   6.467
13341TIP3   OH239963   7.535   2.422   4.190
13341TIP3    H139964   7.477   2.448   4.261
13341TIP3    H239965   7.495   2.343   4.153
13342TIP3   OH239966   7.724   3.099   2.772
13342TIP3    H139967   7.764   3.054   2.846
13342TIP3    H239968   7.644   3.139   2.809
13343TIP3   OH239969   7.379   7.632   1.846
13343TIP3    H139970   7.434   7.608   1.771
13343TIP3    H239971   7.289   7.625   1.814
13344TIP3   OH239972   4.675   2.229   4.129
13344TIP3    H139973   4.658   2.157   4.068
13344TIP3    H239974   4.637   2.200   4.212
13345TIP3   OH239975   3.241   7.443   1.837
13345TIP3    H139976   3.313   7.414   1.780
13345TIP3    H239977   3.236   7.537   1.822
13346TIP3   OH239978   6.038   3.420   3.370
13346TIP3    H139979   5.966   3.412   3.308
13346TIP3    H239980   6.039   3.513   3.394
13347TIP3   OH239981   7.860   7.652   5.113
13347TIP3    H139982   7.810   7.582   5.154
13347TIP3    H239983   7.924   7.606   5.058
13348TIP3   OH239984   0.507   7.422   2.739
13348TIP3    H139985   0.536   7.369   2.813
13348TIP3    H239986   0.581   7.421   2.678
13349TIP3   OH239987   7.547   7.565   4.287
13349TIP3    H139988   7.479   7.498   4.287
13349TIP3    H239989   7.620   7.525   4.335
13350TIP3   OH239990   8.222   5.053   6.456
13350TIP3    H139991   8.149   5.028   6.398
13350TIP3    H239992   8.293   5.077   6.396
13351TIP3   OH239993   1.311   6.785   6.520
13351TIP3    H139994   1.331   6.764   6.611
13351TIP3    H239995   1.337   6.876   6.509
13352TIP3   OH239996   1.855   5.988   0.775
13352TIP3    H139997   1.836   5.918   0.713
13352TIP3    H239998   1.884   6.061   0.720
13353TIP3   OH239999   7.383   1.744   4.007
13353TIP3    H140000   7.325   1.732   4.082
13353TIP3    H240001   7.469   1.716   4.039
13354TIP3   OH240002   4.517   2.737   5.507
13354TIP3    H140003   4.548   2.808   5.451
13354TIP3    H240004   4.494   2.779   5.589
13355TIP3   OH240005   2.189   0.686   5.040
13355TIP3    H140006   2.196   0.703   4.946
13355TIP3    H240007   2.208   0.593   5.049
13356TIP3   OH240008   7.069   5.800   1.107
13356TIP3    H140009   7.130   5.850   1.053
13356TIP3    H240010   7.063   5.715   1.064
13357TIP3   OH240011   3.069   4.355   0.046
13357TIP3    H140012   3.146   4.361   0.102
13357TIP3    H240013   3.076   4.430  -0.012
13358TIP3   OH240014   0.204   1.638   0.623
13358TIP3    H140015   0.201   1.614   0.716
13358TIP3    H240016   0.270   1.579   0.585
13359TIP3   OH240017   5.868   7.863   6.307
13359TIP3    H140018   5.925   7.928   6.265
13359TIP3    H240019   5.830   7.911   6.381
13360TIP3   OH240020   0.121   6.031   3.792
13360TIP3    H140021   0.034   5.998   3.815
13360TIP3    H240022   0.177   6.002   3.864
13361TIP3   OH240023   5.528   2.508   6.142
13361TIP3    H140024   5.441   2.468   6.148
13361TIP3    H240025   5.529   2.575   6.209
13362TIP3   OH240026   4.394   3.024   6.808
13362TIP3    H140027   4.462   3.062   6.864
13362TIP3    H240028   4.440   2.956   6.758
13363TIP3   OH240029   1.565   0.235   5.324
13363TIP3    H140030   1.569   0.270   5.235
13363TIP3    H240031   1.477   0.200   5.332
13364TIP3   OH240032   6.387   0.532   1.575
13364TIP3    H140033   6.432   0.494   1.500
13364TIP3    H240034   6.453   0.532   1.645
13365TIP3   OH240035   8.128   4.563   0.723
13365TIP3    H140036   8.221   4.571   0.699
13365TIP3    H240037   8.117   4.624   0.796
13366TIP3   OH240038   4.710   5.929   2.340
13366TIP3    H140039   4.679   5.841   2.360
13366TIP3    H240040   4.792   5.916   2.294
13367TIP3   OH240041   1.410   3.829   4.666
13367TIP3    H140042   1.380   3.739   4.676
13367TIP3    H240043   1.498   3.821   4.628
13368TIP3   OH240044   1.922   5.951   5.101
13368TIP3    H140045   1.893   6.022   5.158
13368TIP3    H240046   1.893   5.977   5.014
13369TIP3   OH240047   2.219   0.196   1.626
13369TIP3    H140048   2.182   0.282   1.605
13369TIP3    H240049   2.222   0.151   1.542
13370TIP3   OH240050   7.630   2.669   2.051
13370TIP3    H140051   7.565   2.648   1.984
13370TIP3    H240052   7.612   2.608   2.122
13371TIP3   OH240053   0.065   1.196   6.814
13371TIP3    H140054   0.091   1.253   6.886
13371TIP3    H240055   0.140   1.199   6.754
13372TIP3   OH240056   1.286   3.911   1.145
13372TIP3    H140057   1.318   3.824   1.167
13372TIP3    H240058   1.231   3.936   1.220
13373TIP3   OH240059   5.535   4.983   3.110
13373TIP3    H140060   5.617   5.000   3.156
13373TIP3    H240061   5.546   4.895   3.072
13374TIP3   OH240062   2.928   0.606   5.643
13374TIP3    H140063   2.882   0.522   5.638
13374TIP3    H240064   2.994   0.602   5.575
13375TIP3   OH240065   4.546   3.507   3.101
13375TIP3    H140066   4.620   3.555   3.065
13375TIP3    H240067   4.586   3.433   3.147
13376TIP3   OH240068   3.589   0.034   4.677
13376TIP3    H140069   3.599  -0.045   4.624
13376TIP3    H240070   3.679   0.063   4.693
13377TIP3   OH240071   2.293   4.840   4.026
13377TIP3    H140072   2.261   4.931   4.022
13377TIP3    H240073   2.230   4.791   3.973
13378TIP3   OH240074   0.925   0.619   4.017
13378TIP3    H140075   0.937   0.696   4.072
13378TIP3    H240076   0.991   0.557   4.047
13379TIP3   OH240077   7.737   7.313   2.979
13379TIP3    H140078   7.779   7.360   3.051
13379TIP3    H240079   7.790   7.234   2.967
13380TIP3   OH240080   4.890   6.097   5.453
13380TIP3    H140081   4.794   6.092   5.461
13380TIP3    H240082   4.906   6.182   5.411
13381TIP3   OH240083   1.590   5.246   2.242
13381TIP3    H140084   1.587   5.297   2.324
13381TIP3    H240085   1.660   5.182   2.257
13382TIP3   OH240086   7.296   3.544   1.995
13382TIP3    H140087   7.252   3.628   2.008
13382TIP3    H240088   7.227   3.478   2.007
13383TIP3   OH240089   4.961   3.570   5.848
13383TIP3    H140090   5.006   3.499   5.803
13383TIP3    H240091   4.923   3.623   5.778
13384TIP3   OH240092   4.221   5.097   5.708
13384TIP3    H140093   4.248   5.006   5.699
13384TIP3    H240094   4.140   5.093   5.759
13385TIP3   OH240095   5.285   7.879   0.613
13385TIP3    H140096   5.240   7.817   0.555
13385TIP3    H240097   5.357   7.913   0.560
13386TIP3   OH240098   7.474   2.836   2.717
13386TIP3    H140099   7.433   2.758   2.679
13386TIP3    H240100   7.542   2.860   2.654
13387TIP3   OH240101   7.149   2.136   1.346
13387TIP3    H140102   7.228   2.119   1.295
13387TIP3    H240103   7.179   2.192   1.418
13388TIP3   OH240104   0.076   3.118   3.956
13388TIP3    H140105   0.072   3.211   3.937
13388TIP3    H240106   0.011   3.105   4.025
13389TIP3   OH240107   5.531   0.405   2.227
13389TIP3    H140108   5.623   0.412   2.255
13389TIP3    H240109   5.527   0.456   2.147
13390TIP3   OH240110   7.992   2.149   5.859
13390TIP3    H140111   7.977   2.173   5.768
13390TIP3    H240112   7.905   2.125   5.892
13391TIP3   OH240113   5.437   2.268   3.641
13391TIP3    H140114   5.452   2.192   3.696
13391TIP3    H240115   5.375   2.322   3.690
13392TIP3   OH240116   4.237   3.718   6.398
13392TIP3    H140117   4.214   3.632   6.364
13392TIP3    H240118   4.169   3.776   6.366
13393TIP3   OH240119   0.940   6.646   4.197
13393TIP3    H140120   0.872   6.667   4.260
13393TIP3    H240121   1.007   6.600   4.248
13394TIP3   OH240122   6.913   0.948   1.170
13394TIP3    H140123   6.987   0.915   1.221
13394TIP3    H240124   6.844   0.964   1.234
13395TIP3   OH240125   3.055   4.608   4.024
13395TIP3    H140126   3.067   4.522   4.066
13395TIP3    H240127   3.046   4.669   4.097
13396TIP3   OH240128   0.588   0.957   3.065
13396TIP3    H140129   0.624   0.973   3.153
13396TIP3    H240130   0.501   0.997   3.068
13397TIP3   OH240131   2.542   2.337   2.615
13397TIP3    H140132   2.508   2.266   2.669
13397TIP3    H240133   2.483   2.411   2.632
13398TIP3   OH240134   0.334   3.145   1.230
13398TIP3    H140135   0.258   3.102   1.189
13398TIP3    H240136   0.353   3.093   1.308
13399TIP3   OH240137   7.897   3.321   2.159
13399TIP3    H140138   7.833   3.378   2.201
13399TIP3    H240139   7.981   3.351   2.192
13400TIP3   OH240140   5.948   7.605   4.039
13400TIP3    H140141   5.904   7.521   4.038
13400TIP3    H240142   5.965   7.623   4.131
13401TIP3   OH240143   2.858   4.324   3.592
13401TIP3    H140144   2.827   4.313   3.681
13401TIP3    H240145   2.892   4.238   3.567
13402TIP3   OH240146   2.085   1.755   5.403
13402TIP3    H140147   2.118   1.841   5.428
13402TIP3    H240148   2.118   1.742   5.314
13403TIP3   OH240149   5.159   4.728   4.427
13403TIP3    H140150   5.239   4.774   4.454
13403TIP3    H240151   5.170   4.715   4.333
13404TIP3   OH240152   3.736   3.522   1.631
13404TIP3    H140153   3.667   3.569   1.585
13404TIP3    H240154   3.803   3.506   1.564
13405TIP3   OH240155   7.485   2.230   1.335
13405TIP3    H140156   7.497   2.301   1.399
13405TIP3    H240157   7.516   2.267   1.252
13406TIP3   OH240158   5.321   7.865   0.200
13406TIP3    H140159   5.366   7.786   0.173
13406TIP3    H240160   5.272   7.893   0.122
13407TIP3   OH240161   0.481   6.877   6.219
13407TIP3    H140162   0.392   6.909   6.234
13407TIP3    H240163   0.509   6.919   6.137
13408TIP3   OH240164  -0.012   6.308   4.320
13408TIP3    H140165   0.082   6.326   4.309
13408TIP3    H240166  -0.034   6.255   4.243
13409TIP3   OH240167   3.111   6.693   0.229
13409TIP3    H140168   3.196   6.721   0.262
13409TIP3    H240169   3.051   6.763   0.257
13410TIP3   OH240170   0.624   5.304   4.076
13410TIP3    H140171   0.551   5.357   4.106
13410TIP3    H240172   0.591   5.258   3.999
13411TIP3   OH240173   0.026   0.787   3.906
13411TIP3    H140174   0.070   0.799   3.822
13411TIP3    H240175   0.091   0.744   3.961
13412TIP3   OH240176   4.143   6.762   3.280
13412TIP3    H140177   4.084   6.718   3.219
13412TIP3    H240178   4.230   6.726   3.260
13413TIP3   OH240179   3.518   2.564   5.952
13413TIP3    H140180   3.603   2.576   5.993
13413TIP3    H240181   3.492   2.475   5.976
13414TIP3   OH240182   3.863   6.714   1.722
13414TIP3    H140183   3.785   6.760   1.753
13414TIP3    H240184   3.935   6.756   1.767
13415TIP3   OH240185   6.064   1.596   1.927
13415TIP3    H140186   6.034   1.505   1.927
13415TIP3    H240187   5.988   1.646   1.897
13416TIP3   OH240188   2.263   0.595   2.026
13416TIP3    H140189   2.297   0.507   2.009
13416TIP3    H240190   2.310   0.651   1.964
13417TIP3   OH240191   6.789   1.909   3.477
13417TIP3    H140192   6.744   1.874   3.401
13417TIP3    H240193   6.786   2.004   3.465
13418TIP3   OH240194   5.021   7.299   0.451
13418TIP3    H140195   5.022   7.210   0.486
13418TIP3    H240196   5.113   7.318   0.432
13419TIP3   OH240197   4.857   0.965   2.656
13419TIP3    H140198   4.858   0.906   2.732
13419TIP3    H240199   4.923   1.031   2.675
13420TIP3   OH240200   5.314   2.740   0.557
13420TIP3    H140201   5.251   2.774   0.621
13420TIP3    H240202   5.265   2.735   0.475
13421TIP3   OH240203   5.011   2.028   3.005
13421TIP3    H140204   4.963   2.106   2.978
13421TIP3    H240205   4.984   1.961   2.942
13422TIP3   OH240206   4.894   0.920   3.982
13422TIP3    H140207   4.946   0.845   4.010
13422TIP3    H240208   4.956   0.992   3.975
13423TIP3   OH240209   3.912   4.652   5.544
13423TIP3    H140210   3.978   4.609   5.598
13423TIP3    H240211   3.961   4.709   5.485
13424TIP3   OH240212   3.968   5.471   4.989
13424TIP3    H140213   3.879   5.459   4.955
13424TIP3    H240214   3.975   5.566   5.004
13425TIP3   OH240215   4.002   4.453   2.951
13425TIP3    H140216   4.083   4.421   2.992
13425TIP3    H240217   4.019   4.445   2.857
13426TIP3   OH240218   6.765   4.682   5.525
13426TIP3    H140219   6.701   4.703   5.592
13426TIP3    H240220   6.835   4.637   5.571
13427TIP3   OH240221   5.963   0.822   4.924
13427TIP3    H140222   5.927   0.906   4.893
13427TIP3    H240223   6.054   0.823   4.895
13428TIP3   OH240224   8.404   6.207   0.646
13428TIP3    H140225   8.434   6.255   0.569
13428TIP3    H240226   8.339   6.264   0.686
13429TIP3   OH240227   6.382   3.866   2.832
13429TIP3    H140228   6.336   3.783   2.847
13429TIP3    H240229   6.421   3.887   2.917
13430TIP3   OH240230   4.684   3.392   1.921
13430TIP3    H140231   4.698   3.298   1.909
13430TIP3    H240232   4.634   3.419   1.843
13431TIP3   OH240233   6.586   4.844   2.481
13431TIP3    H140234   6.618   4.766   2.435
13431TIP3    H240235   6.623   4.837   2.569
13432TIP3   OH240236   1.361   6.522   2.634
13432TIP3    H140237   1.418   6.528   2.710
13432TIP3    H240238   1.323   6.609   2.625
13433TIP3   OH240239   7.987   5.901   2.930
13433TIP3    H140240   7.980   5.833   2.998
13433TIP3    H240241   8.074   5.888   2.893
13434TIP3   OH240242   3.492   5.152   6.188
13434TIP3    H140243   3.434   5.214   6.233
13434TIP3    H240244   3.572   5.151   6.240
13435TIP3   OH240245   3.601   2.756   0.336
13435TIP3    H140246   3.621   2.838   0.382
13435TIP3    H240247   3.635   2.770   0.247
13436TIP3   OH240248   3.723   3.761   2.860
13436TIP3    H140249   3.675   3.746   2.941
13436TIP3    H240250   3.728   3.675   2.818
13437TIP3   OH240251   3.082   3.819   2.729
13437TIP3    H140252   3.158   3.777   2.770
13437TIP3    H240253   3.107   3.829   2.637
13438TIP3   OH240254   1.770   2.939   0.915
13438TIP3    H140255   1.755   2.918   1.007
13438TIP3    H240256   1.711   3.012   0.897
13439TIP3   OH240257   6.215   4.834   2.578
13439TIP3    H140258   6.132   4.796   2.548
13439TIP3    H240259   6.220   4.919   2.535
13440TIP3   OH240260   0.257   2.226   3.095
13440TIP3    H140261   0.260   2.140   3.135
13440TIP3    H240262   0.261   2.287   3.169
13441TIP3   OH240263   7.294   7.229   3.758
13441TIP3    H140264   7.389   7.231   3.772
13441TIP3    H240265   7.257   7.212   3.844
13442TIP3   OH240266   3.248   7.038   4.354
13442TIP3    H140267   3.269   6.977   4.425
13442TIP3    H240268   3.181   7.095   4.392
13443TIP3   OH240269   4.671   6.010   2.650
13443TIP3    H140270   4.607   5.941   2.634
13443TIP3    H240271   4.628   6.090   2.621
13444TIP3   OH240272   7.982   5.688   3.097
13444TIP3    H140273   7.899   5.678   3.144
13444TIP3    H240274   8.043   5.632   3.145
13445TIP3   OH240275   7.170   7.170   1.577
13445TIP3    H140276   7.240   7.217   1.622
13445TIP3    H240277   7.093   7.227   1.585
13446TIP3   OH240278   7.717   1.482   5.363
13446TIP3    H140279   7.727   1.392   5.396
13446TIP3    H240280   7.622   1.495   5.360
13447TIP3   OH240281   4.092   3.965   5.573
13447TIP3    H140282   4.005   4.003   5.567
13447TIP3    H240283   4.086   3.882   5.525
13448TIP3   OH240284   3.221   0.268   5.719
13448TIP3    H140285   3.288   0.336   5.724
13448TIP3    H240286   3.230   0.219   5.801
13449TIP3   OH240287   1.075   3.423   2.371
13449TIP3    H140288   1.078   3.367   2.294
13449TIP3    H240289   1.028   3.372   2.437
13450TIP3   OH240290   4.356   4.543   5.699
13450TIP3    H140291   4.426   4.597   5.662
13450TIP3    H240292   4.381   4.453   5.677
13451TIP3   OH240293   3.351   1.434   5.613
13451TIP3    H140294   3.299   1.432   5.693
13451TIP3    H240295   3.288   1.456   5.544
13452TIP3   OH240296   5.090   2.686   4.225
13452TIP3    H140297   5.172   2.734   4.241
13452TIP3    H240298   5.067   2.706   4.134
13453TIP3   OH240299   4.775   4.475   6.874
13453TIP3    H140300   4.828   4.423   6.813
13453TIP3    H240301   4.692   4.428   6.880
13454TIP3   OH240302   2.718   7.078   3.302
13454TIP3    H140303   2.702   7.013   3.233
13454TIP3    H240304   2.669   7.046   3.377
13455TIP3   OH240305   2.592   1.480   0.477
13455TIP3    H140306   2.564   1.394   0.444
13455TIP3    H240307   2.529   1.500   0.547
13456TIP3   OH240308   0.269   4.626   0.319
13456TIP3    H140309   0.228   4.712   0.314
13456TIP3    H240310   0.198   4.564   0.302
13457TIP3   OH240311   6.725   0.379   4.512
13457TIP3    H140312   6.641   0.410   4.548
13457TIP3    H240313   6.790   0.402   4.578
13458TIP3   OH240314   7.420   3.900   0.279
13458TIP3    H140315   7.325   3.888   0.282
13458TIP3    H240316   7.440   3.910   0.186
13459TIP3   OH240317   4.583   1.998   4.946
13459TIP3    H140318   4.609   1.963   5.032
13459TIP3    H240319   4.607   2.091   4.950
13460TIP3   OH240320   6.445   7.160   0.020
13460TIP3    H140321   6.360   7.184   0.058
13460TIP3    H240322   6.434   7.069  -0.007
13461TIP3   OH240323   2.327   4.224   5.370
13461TIP3    H140324   2.350   4.229   5.462
13461TIP3    H240325   2.261   4.292   5.358
13462TIP3   OH240326   4.770   2.690   2.019
13462TIP3    H140327   4.786   2.772   1.973
13462TIP3    H240328   4.855   2.645   2.018
13463TIP3   OH240329   8.360   3.641   1.605
13463TIP3    H140330   8.360   3.620   1.698
13463TIP3    H240331   8.276   3.685   1.591
13464TIP3   OH240332   2.076   3.055   4.736
13464TIP3    H140333   2.062   2.962   4.757
13464TIP3    H240334   2.032   3.067   4.652
13465TIP3   OH240335   2.281   7.767   6.845
13465TIP3    H140336   2.262   7.674   6.835
13465TIP3    H240337   2.362   7.780   6.795
13466TIP3   OH240338   4.888   5.592   3.404
13466TIP3    H140339   4.973   5.558   3.377
13466TIP3    H240340   4.842   5.515   3.440
13467TIP3   OH240341   2.314   2.584   3.227
13467TIP3    H140342   2.275   2.671   3.214
13467TIP3    H240343   2.338   2.555   3.140
13468TIP3   OH240344   2.903   1.322   2.235
13468TIP3    H140345   2.918   1.232   2.206
13468TIP3    H240346   2.968   1.374   2.187
13469TIP3   OH240347   4.611   1.390   1.486
13469TIP3    H140348   4.541   1.325   1.480
13469TIP3    H240349   4.576   1.466   1.440
13470TIP3   OH240350   8.112   6.500   3.541
13470TIP3    H140351   8.038   6.440   3.547
13470TIP3    H240352   8.189   6.443   3.544
13471TIP3   OH240353   5.530   7.502   1.919
13471TIP3    H140354   5.442   7.484   1.952
13471TIP3    H240355   5.531   7.465   1.831
13472TIP3   OH240356   1.255   0.301   2.065
13472TIP3    H140357   1.245   0.215   2.023
13472TIP3    H240358   1.276   0.281   2.156
13473TIP3   OH240359   1.627   1.838   4.304
13473TIP3    H140360   1.719   1.858   4.318
13473TIP3    H240361   1.606   1.878   4.220
13474TIP3   OH240362   2.042   2.076   2.729
13474TIP3    H140363   1.968   2.066   2.789
13474TIP3    H240364   2.008   2.044   2.645
13475TIP3   OH240365   0.657   3.741   2.819
13475TIP3    H140366   0.699   3.819   2.852
13475TIP3    H240367   0.729   3.685   2.790
13476TIP3   OH240368   7.067   4.814   0.895
13476TIP3    H140369   6.974   4.808   0.876
13476TIP3    H240370   7.088   4.731   0.938
13477TIP3   OH240371   2.224   7.479   4.345
13477TIP3    H140372   2.291   7.531   4.300
13477TIP3    H240373   2.226   7.509   4.435
13478TIP3   OH240374   7.904   4.889   1.199
13478TIP3    H140375   7.881   4.809   1.152
13478TIP3    H240376   7.992   4.909   1.170
13479TIP3   OH240377   8.353   7.339   1.520
13479TIP3    H140378   8.292   7.354   1.592
13479TIP3    H240379   8.394   7.424   1.506
13480TIP3   OH240380   7.281   2.302   0.453
13480TIP3    H140381   7.358   2.346   0.490
13480TIP3    H240382   7.242   2.256   0.527
13481TIP3   OH240383   4.681   3.430   0.307
13481TIP3    H140384   4.739   3.432   0.383
13481TIP3    H240385   4.594   3.445   0.342
13482TIP3   OH240386   3.271   3.818   6.208
13482TIP3    H140387   3.270   3.886   6.140
13482TIP3    H240388   3.280   3.866   6.290
13483TIP3   OH240389   5.437   2.248   2.881
13483TIP3    H140390   5.386   2.217   2.956
13483TIP3    H240391   5.525   2.213   2.895
13484TIP3   OH240392   7.144   6.219   4.339
13484TIP3    H140393   7.151   6.195   4.247
13484TIP3    H240394   7.235   6.221   4.370
13485TIP3   OH240395   6.542   4.222   2.074
13485TIP3    H140396   6.560   4.316   2.075
13485TIP3    H240397   6.572   4.192   1.988
13486TIP3   OH240398   5.083   6.798   3.308
13486TIP3    H140399   5.077   6.717   3.359
13486TIP3    H240400   5.017   6.855   3.349
13487TIP3   OH240401   1.738   0.577   2.277
13487TIP3    H140402   1.692   0.498   2.248
13487TIP3    H240403   1.826   0.568   2.239
13488TIP3   OH240404   8.069   3.291   1.373
13488TIP3    H140405   8.006   3.235   1.328
13488TIP3    H240406   8.086   3.245   1.456
13489TIP3   OH240407   6.244   0.063   4.356
13489TIP3    H140408   6.236   0.022   4.442
13489TIP3    H240409   6.271  -0.008   4.298
13490TIP3   OH240410   1.870   0.315   5.781
13490TIP3    H140411   1.836   0.307   5.870
13490TIP3    H240412   1.933   0.243   5.773
13491TIP3   OH240413   4.245   2.527   2.551
13491TIP3    H140414   4.285   2.549   2.467
13491TIP3    H240415   4.272   2.437   2.568
13492TIP3   OH240416   5.859   4.745   0.337
13492TIP3    H140417   5.836   4.797   0.260
13492TIP3    H240418   5.950   4.768   0.355
13493TIP3   OH240419   5.957   5.672   0.523
13493TIP3    H140420   5.956   5.581   0.493
13493TIP3    H240421   5.958   5.724   0.442
13494TIP3   OH240422   7.384   5.355   3.851
13494TIP3    H140423   7.315   5.415   3.880
13494TIP3    H240424   7.452   5.413   3.814
13495TIP3   OH240425   7.349   4.731   1.812
13495TIP3    H140426   7.348   4.827   1.818
13495TIP3    H240427   7.306   4.711   1.729
13496TIP3   OH240428   2.733   6.222   5.676
13496TIP3    H140429   2.735   6.164   5.600
13496TIP3    H240430   2.825   6.241   5.694
13497TIP3   OH240431   4.302   0.082   5.914
13497TIP3    H140432   4.309  -0.010   5.941
13497TIP3    H240433   4.275   0.128   5.993
13498TIP3   OH240434   4.473   1.442   1.897
13498TIP3    H140435   4.499   1.351   1.894
13498TIP3    H240436   4.555   1.491   1.893
13499TIP3   OH240437   2.800   1.709   2.237
13499TIP3    H140438   2.783   1.780   2.299
13499TIP3    H240439   2.865   1.745   2.176
13500TIP3   OH240440   3.683   2.596   4.412
13500TIP3    H140441   3.728   2.515   4.387
13500TIP3    H240442   3.602   2.596   4.362
13501TIP3   OH240443   7.017   2.604   4.272
13501TIP3    H140444   7.061   2.519   4.263
13501TIP3    H240445   6.924   2.582   4.280
13502TIP3   OH240446   6.109   3.164   3.793
13502TIP3    H140447   6.054   3.232   3.752
13502TIP3    H240448   6.079   3.161   3.884
13503TIP3   OH240449   6.751   2.677   6.749
13503TIP3    H140450   6.770   2.634   6.666
13503TIP3    H240451   6.700   2.612   6.798
13504TIP3   OH240452   3.067   1.901   5.810
13504TIP3    H140453   2.982   1.919   5.769
13504TIP3    H240454   3.099   1.986   5.839
13505TIP3   OH240455   5.393   5.415   2.561
13505TIP3    H140456   5.393   5.508   2.581
13505TIP3    H240457   5.484   5.393   2.544
13506TIP3   OH240458   0.135   2.222   1.552
13506TIP3    H140459   0.072   2.192   1.486
13506TIP3    H240460   0.123   2.317   1.554
13507TIP3   OH240461   4.060   2.497   6.532
13507TIP3    H140462   4.072   2.568   6.469
13507TIP3    H240463   4.036   2.541   6.614
13508TIP3   OH240464   5.399   4.222   5.570
13508TIP3    H140465   5.457   4.148   5.554
13508TIP3    H240466   5.362   4.241   5.484
13509TIP3   OH240467   7.983   2.345   3.379
13509TIP3    H140468   7.926   2.298   3.439
13509TIP3    H240469   8.072   2.326   3.409
13510TIP3   OH240470   1.777   5.377   5.689
13510TIP3    H140471   1.697   5.329   5.712
13510TIP3    H240472   1.757   5.416   5.604
13511TIP3   OH240473   6.818   7.313   5.977
13511TIP3    H140474   6.799   7.270   6.060
13511TIP3    H240475   6.765   7.265   5.912
13512TIP3   OH240476   6.155   5.468   2.690
13512TIP3    H140477   6.103   5.401   2.735
13512TIP3    H240478   6.242   5.428   2.681
13513TIP3   OH240479   7.509   5.080   6.320
13513TIP3    H140480   7.521   5.109   6.410
13513TIP3    H240481   7.559   5.144   6.268
13514TIP3   OH240482   1.168   1.226   4.005
13514TIP3    H140483   1.074   1.215   3.998
13514TIP3    H240484   1.193   1.275   3.926
13515TIP3   OH240485   4.925   3.035   5.499
13515TIP3    H140486   4.870   2.975   5.449
13515TIP3    H240487   5.014   3.002   5.487
13516TIP3   OH240488   5.119   0.855   1.364
13516TIP3    H140489   5.190   0.883   1.307
13516TIP3    H240490   5.109   0.761   1.347
13517TIP3   OH240491   2.396   4.629   6.773
13517TIP3    H140492   2.427   4.576   6.846
13517TIP3    H240493   2.438   4.714   6.785
13518TIP3   OH240494   4.205   4.861   6.331
13518TIP3    H140495   4.168   4.871   6.243
13518TIP3    H240496   4.230   4.950   6.357
13519TIP3   OH240497   0.224   3.689   3.028
13519TIP3    H140498   0.206   3.739   3.108
13519TIP3    H240499   0.305   3.643   3.047
13520TIP3   OH240500   7.590   4.441   4.573
13520TIP3    H140501   7.577   4.531   4.601
13520TIP3    H240502   7.655   4.406   4.634
13521TIP3   OH240503   5.225   4.743   2.187
13521TIP3    H140504   5.137   4.732   2.222
13521TIP3    H240505   5.214   4.797   2.108
13522TIP3   OH240506   5.998   5.312   2.364
13522TIP3    H140507   5.918   5.364   2.365
13522TIP3    H240508   5.979   5.240   2.303
13523TIP3   OH240509   0.477   4.370   6.683
13523TIP3    H140510   0.397   4.351   6.634
13523TIP3    H240511   0.534   4.414   6.619
13524TIP3   OH240512   7.161   2.742   0.164
13524TIP3    H140513   7.202   2.805   0.222
13524TIP3    H240514   7.232   2.710   0.108
13525TIP3   OH240515   5.105   3.451   5.406
13525TIP3    H140516   5.176   3.427   5.346
13525TIP3    H240517   5.076   3.368   5.443
13526TIP3   OH240518   4.283   7.897   1.882
13526TIP3    H140519   4.242   7.982   1.867
13526TIP3    H240520   4.221   7.834   1.847
13527TIP3   OH240521   3.078   2.849   5.782
13527TIP3    H140522   2.987   2.823   5.795
13527TIP3    H240523   3.125   2.767   5.768
13528TIP3   OH240524   4.144   2.726   6.383
13528TIP3    H140525   4.086   2.793   6.347
13528TIP3    H240526   4.211   2.776   6.431
13529TIP3   OH240527   1.150   6.556   3.877
13529TIP3    H140528   1.134   6.645   3.845
13529TIP3    H240529   1.095   6.500   3.822
13530TIP3   OH240530   4.164   6.176   4.159
13530TIP3    H140531   4.131   6.196   4.071
13530TIP3    H240532   4.201   6.259   4.190
13531TIP3   OH240533   7.010   3.399   6.106
13531TIP3    H140534   6.973   3.313   6.086
13531TIP3    H240535   7.064   3.385   6.184
13532TIP3   OH240536   8.267   2.828   5.204
13532TIP3    H140537   8.238   2.754   5.151
13532TIP3    H240538   8.194   2.890   5.201
13533TIP3   OH240539   7.742   1.733   2.374
13533TIP3    H140540   7.716   1.664   2.313
13533TIP3    H240541   7.690   1.717   2.452
13534TIP3   OH240542   1.551   5.264   2.711
13534TIP3    H140543   1.532   5.269   2.617
13534TIP3    H240544   1.632   5.214   2.716
13535TIP3   OH240545   5.686   7.136   0.983
13535TIP3    H140546   5.665   7.075   1.054
13535TIP3    H240547   5.667   7.222   1.020
13536TIP3   OH240548   7.427   4.010   2.313
13536TIP3    H140549   7.431   4.063   2.393
13536TIP3    H240550   7.514   3.971   2.305
13537TIP3   OH240551   0.285   2.371   3.328
13537TIP3    H140552   0.379   2.376   3.316
13537TIP3    H240553   0.274   2.338   3.418
13538TIP3   OH240554   1.050   5.290   6.721
13538TIP3    H140555   0.955   5.281   6.723
13538TIP3    H240556   1.075   5.297   6.813
13539TIP3   OH240557   1.054   5.425   4.901
13539TIP3    H140558   1.054   5.340   4.947
13539TIP3    H240559   1.138   5.464   4.925
13540TIP3   OH240560   7.321   2.452   4.576
13540TIP3    H140561   7.281   2.478   4.660
13540TIP3    H240562   7.292   2.519   4.514
13541TIP3   OH240563   5.574   7.104   1.306
13541TIP3    H140564   5.641   7.172   1.307
13541TIP3    H240565   5.500   7.142   1.353
13542TIP3   OH240566   5.488   3.042   5.816
13542TIP3    H140567   5.483   3.064   5.723
13542TIP3    H240568   5.407   3.078   5.853
13543TIP3   OH240569   3.567   7.162   0.337
13543TIP3    H140570   3.532   7.236   0.387
13543TIP3    H240571   3.630   7.202   0.276
13544TIP3   OH240572   3.414   1.468   3.441
13544TIP3    H140573   3.485   1.532   3.431
13544TIP3    H240574   3.378   1.459   3.353
13545TIP3   OH240575   3.686   6.931   1.746
13545TIP3    H140576   3.659   6.934   1.654
13545TIP3    H240577   3.684   7.022   1.775
13546TIP3   OH240578   0.832   0.512   1.523
13546TIP3    H140579   0.773   0.437   1.522
13546TIP3    H240580   0.902   0.489   1.463
13547TIP3   OH240581   7.677   1.763   3.594
13547TIP3    H140582   7.605   1.704   3.571
13547TIP3    H240583   7.706   1.732   3.680
13548TIP3   OH240584   3.942   3.942   1.095
13548TIP3    H140585   3.910   3.964   1.182
13548TIP3    H240586   4.024   3.895   1.110
13549TIP3   OH240587   6.673   6.170   0.966
13549TIP3    H140588   6.586   6.192   0.932
13549TIP3    H240589   6.723   6.145   0.889
13550TIP3   OH240590   1.542   4.334   5.813
13550TIP3    H140591   1.533   4.244   5.842
13550TIP3    H240592   1.453   4.362   5.792
13551TIP3   OH240593   4.986   5.429   4.178
13551TIP3    H140594   4.917   5.417   4.112
13551TIP3    H240595   4.989   5.345   4.224
13552TIP3   OH240596   1.023   3.245   0.347
13552TIP3    H140597   1.096   3.192   0.315
13552TIP3    H240598   0.945   3.201   0.313
13553TIP3   OH240599   2.450   2.150   0.613
13553TIP3    H140600   2.365   2.192   0.597
13553TIP3    H240601   2.452   2.136   0.707
13554TIP3   OH240602   4.642   1.164   2.180
13554TIP3    H140603   4.551   1.146   2.156
13554TIP3    H240604   4.640   1.177   2.275
13555TIP3   OH240605   1.418   7.659   1.710
13555TIP3    H140606   1.439   7.581   1.760
13555TIP3    H240607   1.426   7.632   1.618
13556TIP3   OH240608   0.272   7.824   1.672
13556TIP3    H140609   0.330   7.898   1.663
13556TIP3    H240610   0.216   7.846   1.747
13557TIP3   OH240611   6.716   3.291   4.479
13557TIP3    H140612   6.628   3.296   4.518
13557TIP3    H240613   6.710   3.346   4.401
13558TIP3   OH240614   2.646   2.912   2.234
13558TIP3    H140615   2.697   2.981   2.277
13558TIP3    H240616   2.583   2.884   2.301
13559TIP3   OH240617   6.774   2.599   1.074
13559TIP3    H140618   6.848   2.558   1.030
13559TIP3    H240619   6.720   2.526   1.105
13560TIP3   OH240620   3.956   6.648   2.026
13560TIP3    H140621   3.997   6.563   2.017
13560TIP3    H240622   4.027   6.707   2.053
13561TIP3   OH240623   5.959   2.020   1.886
13561TIP3    H140624   5.907   1.951   1.844
13561TIP3    H240625   5.923   2.102   1.852
13562TIP3   OH240626   3.028   4.180   0.876
13562TIP3    H140627   3.051   4.154   0.965
13562TIP3    H240628   3.036   4.099   0.825
13563TIP3   OH240629   0.705   0.460   6.157
13563TIP3    H140630   0.763   0.491   6.227
13563TIP3    H240631   0.692   0.367   6.177
13564TIP3   OH240632   7.319   3.391   2.623
13564TIP3    H140633   7.250   3.424   2.679
13564TIP3    H240634   7.306   3.296   2.622
13565TIP3   OH240635   3.605   3.507   4.876
13565TIP3    H140636   3.695   3.540   4.875
13565TIP3    H240637   3.551   3.584   4.857
13566TIP3   OH240638   2.134   1.195   1.573
13566TIP3    H140639   2.076   1.210   1.498
13566TIP3    H240640   2.197   1.266   1.569
13567TIP3   OH240641   4.483   4.517   6.073
13567TIP3    H140642   4.573   4.515   6.105
13567TIP3    H240643   4.459   4.424   6.065
13568TIP3   OH240644   4.758   6.880   3.078
13568TIP3    H140645   4.744   6.872   3.173
13568TIP3    H240646   4.693   6.944   3.050
13569TIP3   OH240647   7.609   4.671   4.134
13569TIP3    H140648   7.516   4.678   4.110
13569TIP3    H240649   7.641   4.597   4.083
13570TIP3   OH240650   6.497   5.406   1.229
13570TIP3    H140651   6.513   5.470   1.298
13570TIP3    H240652   6.585   5.384   1.196
13571TIP3   OH240653   1.566   0.503   2.852
13571TIP3    H140654   1.652   0.536   2.880
13571TIP3    H240655   1.506   0.531   2.922
13572TIP3   OH240656   8.325   5.669   5.004
13572TIP3    H140657   8.338   5.749   4.953
13572TIP3    H240658   8.231   5.666   5.020
13573TIP3   OH240659   3.783   5.420   4.790
13573TIP3    H140660   3.799   5.462   4.706
13573TIP3    H240661   3.688   5.408   4.794
13574TIP3   OH240662   6.279   0.596   4.428
13574TIP3    H140663   6.284   0.568   4.336
13574TIP3    H240664   6.185   0.593   4.449
13575TIP3   OH240665   2.703   4.155   6.291
13575TIP3    H140666   2.776   4.098   6.268
13575TIP3    H240667   2.700   4.219   6.219
13576TIP3   OH240668   0.913   0.477   4.495
13576TIP3    H140669   0.911   0.423   4.574
13576TIP3    H240670   1.002   0.467   4.461
13577TIP3   OH240671   7.174   4.985   0.696
13577TIP3    H140672   7.245   4.952   0.751
13577TIP3    H240673   7.095   4.946   0.734
13578TIP3   OH240674   6.818   6.364   2.147
13578TIP3    H140675   6.813   6.355   2.242
13578TIP3    H240676   6.769   6.290   2.113
13579TIP3   OH240677   1.321   4.812   5.745
13579TIP3    H140678   1.415   4.802   5.759
13579TIP3    H240679   1.312   4.825   5.651
13580TIP3   OH240680   4.074   3.507   0.908
13580TIP3    H140681   4.020   3.586   0.900
13580TIP3    H240682   4.116   3.498   0.822
13581TIP3   OH240683   3.116   2.869   4.235
13581TIP3    H140684   3.080   2.942   4.185
13581TIP3    H240685   3.114   2.794   4.175
13582TIP3   OH240686   0.646   2.011   0.402
13582TIP3    H140687   0.659   2.084   0.462
13582TIP3    H240688   0.734   1.985   0.376
13583TIP3   OH240689   5.664   1.250   4.852
13583TIP3    H140690   5.599   1.268   4.920
13583TIP3    H240691   5.695   1.336   4.825
13584TIP3   OH240692   5.490   3.762   1.546
13584TIP3    H140693   5.546   3.690   1.574
13584TIP3    H240694   5.542   3.841   1.564
13585TIP3   OH240695   0.972   3.674   5.221
13585TIP3    H140696   0.965   3.618   5.144
13585TIP3    H240697   0.945   3.618   5.294
13586TIP3   OH240698   1.045   2.337   2.182
13586TIP3    H140699   1.025   2.431   2.190
13586TIP3    H240700   1.066   2.325   2.089
13587TIP3   OH240701   1.094   0.831   0.126
13587TIP3    H140702   1.189   0.838   0.137
13587TIP3    H240703   1.079   0.840   0.032
13588TIP3   OH240704   2.536   0.288   2.329
13588TIP3    H140705   2.508   0.317   2.242
13588TIP3    H240706   2.467   0.318   2.388
13589TIP3   OH240707   4.816   0.785   1.595
13589TIP3    H140708   4.773   0.715   1.644
13589TIP3    H240709   4.909   0.773   1.613
13590TIP3   OH240710   2.270   1.018   0.396
13590TIP3    H140711   2.284   1.097   0.447
13590TIP3    H240712   2.344   0.961   0.418
13591TIP3   OH240713   7.561   3.542   5.600
13591TIP3    H140714   7.607   3.553   5.683
13591TIP3    H240715   7.485   3.600   5.606
13592TIP3   OH240716   8.174   5.372   4.946
13592TIP3    H140717   8.257   5.419   4.941
13592TIP3    H240718   8.108   5.436   4.920
13593TIP3   OH240719   0.642   1.818   4.565
13593TIP3    H140720   0.737   1.813   4.564
13593TIP3    H240721   0.622   1.912   4.563
13594TIP3   OH240722   3.601   7.261   5.891
13594TIP3    H140723   3.584   7.193   5.957
13594TIP3    H240724   3.525   7.319   5.896
13595TIP3   OH240725   0.279   4.854   2.773
13595TIP3    H140726   0.242   4.942   2.770
13595TIP3    H240727   0.303   4.835   2.682
13596TIP3   OH240728   1.458   7.668   3.859
13596TIP3    H140729   1.452   7.730   3.786
13596TIP3    H240730   1.544   7.686   3.898
13597TIP3   OH240731   3.290   3.594   4.850
13597TIP3    H140732   3.229   3.665   4.869
13597TIP3    H240733   3.357   3.634   4.795
13598TIP3   OH240734   7.853   1.544   1.060
13598TIP3    H140735   7.886   1.538   1.150
13598TIP3    H240736   7.783   1.609   1.064
13599TIP3   OH240737   2.226   6.870   1.393
13599TIP3    H140738   2.292   6.901   1.456
13599TIP3    H240739   2.207   6.946   1.339
13600TIP3   OH240740   3.938   5.425   5.773
13600TIP3    H140741   3.960   5.463   5.687
13600TIP3    H240742   3.855   5.381   5.758
13601TIP3   OH240743   2.722   3.464   5.430
13601TIP3    H140744   2.779   3.394   5.463
13601TIP3    H240745   2.763   3.491   5.348
13602TIP3   OH240746   7.460   0.102   0.008
13602TIP3    H140747   7.545   0.086   0.049
13602TIP3    H240748   7.450   0.030  -0.055
13603TIP3   OH240749   3.771   6.943   4.827
13603TIP3    H140750   3.684   6.961   4.861
13603TIP3    H240751   3.817   7.027   4.830
13604TIP3   OH240752   5.165   7.801   4.217
13604TIP3    H140753   5.100   7.866   4.191
13604TIP3    H240754   5.214   7.842   4.289
13605TIP3   OH240755   7.879   1.424   1.353
13605TIP3    H140756   7.828   1.504   1.341
13605TIP3    H240757   7.918   1.434   1.441
13606TIP3   OH240758   4.978   6.139   6.699
13606TIP3    H140759   5.058   6.137   6.751
13606TIP3    H240760   5.004   6.180   6.616
13607TIP3   OH240761   0.718   6.966   6.036
13607TIP3    H140762   0.746   6.994   5.949
13607TIP3    H240763   0.711   7.048   6.086
13608TIP3   OH240764   0.453   3.682   6.005
13608TIP3    H140765   0.451   3.611   6.069
13608TIP3    H240766   0.364   3.686   5.970
13609TIP3   OH240767   1.237   3.984   3.643
13609TIP3    H140768   1.333   3.987   3.652
13609TIP3    H240769   1.204   4.026   3.722
13610TIP3   OH240770   4.195   3.049  -0.004
13610TIP3    H140771   4.222   3.139  -0.023
13610TIP3    H240772   4.159   3.053   0.085
13611TIP3   OH240773   3.511   4.796   6.283
13611TIP3    H140774   3.502   4.738   6.207
13611TIP3    H240775   3.582   4.757   6.334
13612TIP3   OH240776   1.471   4.797   0.633
13612TIP3    H140777   1.530   4.742   0.583
13612TIP3    H240778   1.511   4.803   0.720
13613TIP3   OH240779   2.400   4.326   2.786
13613TIP3    H140780   2.388   4.413   2.824
13613TIP3    H240781   2.462   4.339   2.715
13614TIP3   OH240782   2.346   1.549   5.307
13614TIP3    H140783   2.261   1.529   5.267
13614TIP3    H240784   2.389   1.464   5.318
13615TIP3   OH240785   5.321   6.776   2.778
13615TIP3    H140786   5.350   6.689   2.807
13615TIP3    H240787   5.266   6.807   2.850
13616TIP3   OH240788   7.241   2.866   1.460
13616TIP3    H140789   7.255   2.800   1.527
13616TIP3    H240790   7.201   2.940   1.507
13617TIP3   OH240791   7.591   2.329   6.704
13617TIP3    H140792   7.526   2.317   6.636
13617TIP3    H240793   7.587   2.248   6.756
13618TIP3   OH240794   2.139   2.073   4.554
13618TIP3    H140795   2.047   2.048   4.567
13618TIP3    H240796   2.135   2.164   4.526
13619TIP3   OH240797   4.988   6.156   0.929
13619TIP3    H140798   4.962   6.075   0.886
13619TIP3    H240799   5.084   6.152   0.933
13620TIP3   OH240800   4.489   1.613   5.168
13620TIP3    H140801   4.432   1.669   5.115
13620TIP3    H240802   4.545   1.674   5.215
13621TIP3   OH240803   3.487   5.052   2.001
13621TIP3    H140804   3.493   4.977   2.059
13621TIP3    H240805   3.394   5.067   1.989
13622TIP3   OH240806   0.460   4.353   6.052
13622TIP3    H140807   0.434   4.271   6.009
13622TIP3    H240808   0.425   4.422   5.995
13623TIP3   OH240809   7.946   5.668   1.576
13623TIP3    H140810   7.987   5.652   1.491
13623TIP3    H240811   7.912   5.582   1.602
13624TIP3   OH240812   4.762   4.501   6.174
13624TIP3    H140813   4.808   4.576   6.211
13624TIP3    H240814   4.819   4.426   6.190
13625TIP3   OH240815   5.136   1.515   0.821
13625TIP3    H140816   5.052   1.544   0.856
13625TIP3    H240817   5.197   1.522   0.894
13626TIP3   OH240818   1.131   3.907   6.430
13626TIP3    H140819   1.074   3.917   6.354
13626TIP3    H240820   1.149   3.813   6.434
13627TIP3   OH240821   6.472   6.482   4.871
13627TIP3    H140822   6.544   6.439   4.825
13627TIP3    H240823   6.393   6.456   4.823
13628TIP3   OH240824   1.798   7.752   3.125
13628TIP3    H140825   1.712   7.747   3.166
13628TIP3    H240826   1.858   7.772   3.196
13629TIP3   OH240827   2.591   5.384   4.104
13629TIP3    H140828   2.575   5.343   4.019
13629TIP3    H240829   2.536   5.335   4.165
13630TIP3   OH240830   6.836   2.264   1.969
13630TIP3    H140831   6.820   2.190   2.028
13630TIP3    H240832   6.913   2.308   2.005
13631TIP3   OH240833   8.415   6.664   1.287
13631TIP3    H140834   8.381   6.615   1.362
13631TIP3    H240835   8.337   6.692   1.239
13632TIP3   OH240836   0.868   7.251   3.542
13632TIP3    H140837   0.778   7.249   3.509
13632TIP3    H240838   0.921   7.271   3.465
13633TIP3   OH240839   0.243   6.785   3.631
13633TIP3    H140840   0.336   6.794   3.650
13633TIP3    H240841   0.201   6.852   3.685
13634TIP3   OH240842   6.153   7.802   0.978
13634TIP3    H140843   6.228   7.750   1.010
13634TIP3    H240844   6.119   7.751   0.904
13635TIP3   OH240845   0.263   5.848   5.578
13635TIP3    H140846   0.202   5.919   5.558
13635TIP3    H240847   0.349   5.889   5.575
13636TIP3   OH240848   7.369   3.038   5.874
13636TIP3    H140849   7.397   3.077   5.957
13636TIP3    H240850   7.280   3.071   5.861
13637TIP3   OH240851   1.000   0.222   6.328
13637TIP3    H140852   1.054   0.226   6.407
13637TIP3    H240853   1.049   0.164   6.269
13638TIP3   OH240854   1.641   0.654   3.390
13638TIP3    H140855   1.631   0.743   3.425
13638TIP3    H240856   1.592   0.655   3.308
13639TIP3   OH240857  -0.005   4.566   0.658
13639TIP3    H140858   0.037   4.651   0.648
13639TIP3    H240859   0.062   4.503   0.630
13640TIP3   OH240860   8.207   5.585   4.628
13640TIP3    H140861   8.207   5.621   4.716
13640TIP3    H240862   8.159   5.502   4.636
13641TIP3   OH240863   5.574   7.165   4.760
13641TIP3    H140864   5.496   7.196   4.808
13641TIP3    H240865   5.542   7.090   4.710
13642TIP3   OH240866   3.939   0.800   1.828
13642TIP3    H140867   3.932   0.705   1.828
13642TIP3    H240868   3.849   0.831   1.819
13643TIP3   OH240869   4.915   1.252   0.588
13643TIP3    H140870   4.842   1.295   0.543
13643TIP3    H240871   4.872   1.189   0.646
13644TIP3   OH240872   0.126   3.018   5.917
13644TIP3    H140873   0.169   3.104   5.910
13644TIP3    H240874   0.035   3.038   5.939
13645TIP3   OH240875   7.234   2.655   3.657
13645TIP3    H140876   7.294   2.591   3.694
13645TIP3    H240877   7.272   2.740   3.680
13646TIP3   OH240878   4.461   4.294   6.423
13646TIP3    H140879   4.506   4.378   6.430
13646TIP3    H240880   4.427   4.291   6.334
13647TIP3   OH240881   1.314   1.275   6.182
13647TIP3    H140882   1.287   1.229   6.103
13647TIP3    H240883   1.232   1.303   6.223
13648TIP3   OH240884   7.534   6.353   2.884
13648TIP3    H140885   7.546   6.387   2.972
13648TIP3    H240886   7.442   6.373   2.863
13649TIP3   OH240887   4.213   1.718   0.725
13649TIP3    H140888   4.274   1.713   0.799
13649TIP3    H240889   4.225   1.806   0.690
13650TIP3   OH240890   4.628   5.094   1.697
13650TIP3    H140891   4.669   5.154   1.634
13650TIP3    H240892   4.538   5.084   1.666
13651TIP3   OH240893   7.090   7.847   1.344
13651TIP3    H140894   7.095   7.938   1.374
13651TIP3    H240895   7.009   7.844   1.294
13652TIP3   OH240896   4.608   3.609   5.355
13652TIP3    H140897   4.671   3.592   5.426
13652TIP3    H240898   4.536   3.655   5.397
13653TIP3   OH240899   4.335   5.594   6.688
13653TIP3    H140900   4.423   5.598   6.650
13653TIP3    H240901   4.281   5.554   6.620
13654TIP3   OH240902   0.197   7.280   1.952
13654TIP3    H140903   0.194   7.307   2.044
13654TIP3    H240904   0.105   7.265   1.929
13655TIP3   OH240905   8.090   1.690   5.603
13655TIP3    H140906   8.041   1.625   5.552
13655TIP3    H240907   8.167   1.641   5.635
13656TIP3   OH240908   6.727   1.766   5.006
13656TIP3    H140909   6.790   1.838   4.998
13656TIP3    H240910   6.780   1.690   5.031
13657TIP3   OH240911   5.450   0.916   1.407
13657TIP3    H140912   5.374   0.869   1.440
13657TIP3    H240913   5.464   0.987   1.469
13658TIP3   OH240914   5.464   2.721   1.787
13658TIP3    H140915   5.520   2.786   1.745
13658TIP3    H240916   5.433   2.764   1.866
13659TIP3   OH240917   7.098   6.540   4.353
13659TIP3    H140918   7.128   6.628   4.374
13659TIP3    H240919   7.122   6.488   4.429
13660TIP3   OH240920   0.427   0.318   2.445
13660TIP3    H140921   0.387   0.383   2.387
13660TIP3    H240922   0.513   0.300   2.406
13661TIP3   OH240923   7.777   2.086   4.338
13661TIP3    H140924   7.748   2.084   4.429
13661TIP3    H240925   7.778   2.179   4.315
13662TIP3   OH240926   0.678   3.845   4.480
13662TIP3    H140927   0.582   3.854   4.477
13662TIP3    H240928   0.693   3.750   4.480
13663TIP3   OH240929   1.200   0.654   2.827
13663TIP3    H140930   1.247   0.618   2.752
13663TIP3    H240931   1.257   0.636   2.902
13664TIP3   OH240932   6.202   1.706   0.373
13664TIP3    H140933   6.161   1.634   0.324
13664TIP3    H240934   6.244   1.663   0.447
13665TIP3   OH240935   5.185   3.389   6.473
13665TIP3    H140936   5.112   3.339   6.436
13665TIP3    H240937   5.151   3.423   6.555
13666TIP3   OH240938   2.198   7.584   3.409
13666TIP3    H140939   2.191   7.627   3.324
13666TIP3    H240940   2.287   7.549   3.412
13667TIP3   OH240941   7.090   4.456  -0.019
13667TIP3    H140942   7.135   4.440   0.064
13667TIP3    H240943   7.000   4.428  -0.003
13668TIP3   OH240944   3.058   4.741   1.578
13668TIP3    H140945   3.081   4.683   1.505
13668TIP3    H240946   2.991   4.693   1.626
13669TIP3   OH240947   3.633   3.106   2.619
13669TIP3    H140948   3.711   3.146   2.657
13669TIP3    H240949   3.562   3.132   2.678
13670TIP3   OH240950   1.779   7.582   1.414
13670TIP3    H140951   1.718   7.631   1.469
13670TIP3    H240952   1.729   7.559   1.336
13671TIP3   OH240953   1.025   4.264   0.967
13671TIP3    H140954   1.108   4.217   0.955
13671TIP3    H240955   1.045   4.332   1.031
13672TIP3   OH240956   4.260   2.841   1.692
13672TIP3    H140957   4.279   2.789   1.613
13672TIP3    H240958   4.249   2.777   1.761
13673TIP3   OH240959   6.831   2.459   5.179
13673TIP3    H140960   6.796   2.451   5.090
13673TIP3    H240961   6.922   2.429   5.172
13674TIP3   OH240962   3.922   2.880   6.762
13674TIP3    H140963   3.982   2.864   6.835
13674TIP3    H240964   3.917   2.975   6.756
13675TIP3   OH240965   6.224   7.360   2.128
13675TIP3    H140966   6.210   7.367   2.222
13675TIP3    H240967   6.318   7.372   2.116
13676TIP3   OH240968   0.577   1.218   4.106
13676TIP3    H140969   0.614   1.243   4.191
13676TIP3    H240970   0.621   1.276   4.043
13677TIP3   OH240971   4.318   0.442   5.394
13677TIP3    H140972   4.340   0.433   5.301
13677TIP3    H240973   4.401   0.468   5.435
13678TIP3   OH240974   3.247   2.865   0.294
13678TIP3    H140975   3.266   2.774   0.319
13678TIP3    H240976   3.317   2.888   0.233
13679TIP3   OH240977   6.015   0.727   2.112
13679TIP3    H140978   6.010   0.746   2.019
13679TIP3    H240979   6.108   0.710   2.129
13680TIP3   OH240980   0.865   2.825   3.343
13680TIP3    H140981   0.782   2.823   3.294
13680TIP3    H240982   0.931   2.848   3.277
13681TIP3   OH240983   3.533   6.691   0.165
13681TIP3    H140984   3.571   6.778   0.181
13681TIP3    H240985   3.589   6.631   0.214
13682TIP3   OH240986   4.553   7.006   0.248
13682TIP3    H140987   4.521   7.036   0.333
13682TIP3    H240988   4.536   7.079   0.188
13683TIP3   OH240989   1.271   6.379   0.018
13683TIP3    H140990   1.268   6.332   0.101
13683TIP3    H240991   1.357   6.421   0.017
13684TIP3   OH240992   1.210   4.999   5.190
13684TIP3    H140993   1.249   5.046   5.116
13684TIP3    H240994   1.117   4.995   5.170
13685TIP3   OH240995   1.682   6.208   0.792
13685TIP3    H140996   1.713   6.118   0.802
13685TIP3    H240997   1.619   6.205   0.720
13686TIP3   OH240998   3.952   0.146   6.845
13686TIP3    H140999   3.886   0.093   6.891
13686TIP3    H241000   3.920   0.152   6.755
13687TIP3   OH241001   7.736   3.594   4.862
13687TIP3    H141002   7.797   3.620   4.792
13687TIP3    H241003   7.711   3.677   4.903
13688TIP3   OH241004   3.502   7.782   5.333
13688TIP3    H141005   3.426   7.807   5.280
13688TIP3    H241006   3.576   7.820   5.286
13689TIP3   OH241007   2.321   0.185   0.114
13689TIP3    H141008   2.335   0.274   0.146
13689TIP3    H241009   2.405   0.160   0.075
13690TIP3   OH241010   2.422   0.272   2.061
13690TIP3    H141011   2.328   0.265   2.074
13690TIP3    H241012   2.452   0.182   2.053
13691TIP3   OH241013   5.385   1.950   0.271
13691TIP3    H141014   5.456   1.895   0.304
13691TIP3    H241015   5.328   1.889   0.224
13692TIP3   OH241016   0.990   2.442   3.390
13692TIP3    H141017   0.907   2.459   3.345
13692TIP3    H241018   1.036   2.381   3.333
13693TIP3   OH241019   2.599   5.682   4.002
13693TIP3    H141020   2.632   5.596   4.028
13693TIP3    H241021   2.677   5.739   4.003
13694TIP3   OH241022   5.893   4.355   3.657
13694TIP3    H141023   5.868   4.366   3.749
13694TIP3    H241024   5.972   4.407   3.648
13695TIP3   OH241025   4.265   5.185   0.456
13695TIP3    H141026   4.246   5.278   0.440
13695TIP3    H241027   4.226   5.140   0.382
13696TIP3   OH241028   8.391   3.720   6.154
13696TIP3    H141029   8.387   3.784   6.225
13696TIP3    H241030   8.376   3.636   6.198
13697TIP3   OH241031   1.768   4.084   3.836
13697TIP3    H141032   1.863   4.089   3.833
13697TIP3    H241033   1.748   3.993   3.812
13698TIP3   OH241034   6.616   1.361   6.621
13698TIP3    H141035   6.592   1.407   6.701
13698TIP3    H241036   6.676   1.292   6.649
13699TIP3   OH241037   5.333   0.579   2.751
13699TIP3    H141038   5.239   0.564   2.738
13699TIP3    H241039   5.348   0.666   2.713
13700TIP3   OH241040   1.973   4.322   6.212
13700TIP3    H141041   1.906   4.285   6.155
13700TIP3    H241042   2.010   4.246   6.257
13701TIP3   OH241043   7.277   5.791   3.071
13701TIP3    H141044   7.305   5.802   3.162
13701TIP3    H241045   7.181   5.792   3.076
13702TIP3   OH241046   7.755   2.159   6.192
13702TIP3    H141047   7.691   2.104   6.146
13702TIP3    H241048   7.766   2.235   6.134
13703TIP3   OH241049   2.994   3.962   6.280
13703TIP3    H141050   3.068   3.947   6.221
13703TIP3    H241051   3.032   4.009   6.354
13704TIP3   OH241052   7.031   0.226   5.036
13704TIP3    H141053   6.993   0.140   5.017
13704TIP3    H241054   7.091   0.241   4.963
13705TIP3   OH241055   0.169   5.317   6.447
13705TIP3    H141056   0.123   5.233   6.445
13705TIP3    H241057   0.246   5.302   6.502
13706TIP3   OH241058   2.751   0.599   3.875
13706TIP3    H141059   2.762   0.693   3.860
13706TIP3    H241060   2.665   0.592   3.917
13707TIP3   OH241061   3.188   1.265   3.473
13707TIP3    H141062   3.277   1.300   3.470
13707TIP3    H241063   3.200   1.170   3.465
13708TIP3   OH241064   7.134   2.092   4.523
13708TIP3    H141065   7.098   2.169   4.480
13708TIP3    H241066   7.085   2.018   4.487
13709TIP3   OH241067   5.717   0.319   0.704
13709TIP3    H141068   5.673   0.295   0.785
13709TIP3    H241069   5.786   0.253   0.694
13710TIP3   OH241070   7.233   4.866   4.879
13710TIP3    H141071   7.290   4.878   4.954
13710TIP3    H241072   7.210   4.955   4.851
13711TIP3   OH241073   6.907   3.337   6.853
13711TIP3    H141074   6.891   3.429   6.832
13711TIP3    H241075   6.821   3.302   6.878
13712TIP3   OH241076   8.408   2.765   0.084
13712TIP3    H141077   8.332   2.708   0.094
13712TIP3    H241078   8.468   2.737   0.152
13713TIP3   OH241079   5.255   5.774   4.165
13713TIP3    H141080   5.272   5.794   4.073
13713TIP3    H241081   5.331   5.807   4.212
13714TIP3   OH241082   0.787   5.131   6.763
13714TIP3    H141083   0.709   5.081   6.738
13714TIP3    H241084   0.767   5.164   6.850
13715TIP3   OH241085   8.375   7.329   0.078
13715TIP3    H141086   8.327   7.261   0.124
13715TIP3    H241087   8.455   7.285   0.047
13716TIP3   OH241088   4.787   4.109   0.579
13716TIP3    H141089   4.796   4.177   0.646
13716TIP3    H241090   4.851   4.133   0.512
13717TIP3   OH241091   5.615   1.978   5.506
13717TIP3    H141092   5.532   1.958   5.548
13717TIP3    H241093   5.615   1.926   5.425
13718TIP3   OH241094   5.852   5.307   4.233
13718TIP3    H141095   5.814   5.228   4.272
13718TIP3    H241096   5.831   5.300   4.140
13719TIP3   OH241097   6.373   7.580   1.332
13719TIP3    H141098   6.294   7.528   1.323
13719TIP3    H241099   6.386   7.588   1.427
13720TIP3   OH241100   7.291   5.529   1.800
13720TIP3    H141101   7.321   5.586   1.871
13720TIP3    H241102   7.371   5.491   1.765
13721TIP3   OH241103   6.836   3.095   3.740
13721TIP3    H141104   6.831   3.171   3.681
13721TIP3    H241105   6.747   3.061   3.743
13722TIP3   OH241106   3.619   1.921   6.285
13722TIP3    H141107   3.572   1.874   6.353
13722TIP3    H241108   3.694   1.960   6.330
13723TIP3   OH241109   0.236   1.804   6.527
13723TIP3    H141110   0.171   1.800   6.597
13723TIP3    H241111   0.211   1.880   6.474
13724TIP3   OH241112   4.106   7.650   0.529
13724TIP3    H141113   4.165   7.671   0.456
13724TIP3    H241114   4.019   7.650   0.489
13725TIP3   OH241115   1.244   0.181   3.806
13725TIP3    H141116   1.302   0.105   3.805
13725TIP3    H241117   1.246   0.212   3.896
13726TIP3   OH241118   1.381   7.658   3.001
13726TIP3    H141119   1.449   7.594   3.022
13726TIP3    H241120   1.354   7.693   3.086
13727TIP3   OH241121   4.680   2.552   0.553
13727TIP3    H141122   4.596   2.587   0.581
13727TIP3    H241123   4.739   2.628   0.554
13728TIP3   OH241124   2.492   5.644   3.280
13728TIP3    H141125   2.409   5.653   3.328
13728TIP3    H241126   2.542   5.722   3.303
13729TIP3   OH241127   4.758   0.313   1.463
13729TIP3    H141128   4.813   0.383   1.500
13729TIP3    H241129   4.761   0.329   1.368
13730TIP3   OH241130   5.770   7.806   0.962
13730TIP3    H141131   5.803   7.851   0.884
13730TIP3    H241132   5.777   7.870   1.032
13731TIP3   OH241133   2.158   7.478   6.441
13731TIP3    H141134   2.177   7.398   6.491
13731TIP3    H241135   2.234   7.489   6.383
13732TIP3   OH241136   7.051   6.033   5.064
13732TIP3    H141137   7.065   6.039   5.159
13732TIP3    H241138   7.140   6.028   5.028
13733TIP3   OH241139   1.044   4.902   1.652
13733TIP3    H141140   1.058   4.835   1.586
13733TIP3    H241141   0.955   4.887   1.684
13734TIP3   OH241142   1.882   6.108   4.623
13734TIP3    H141143   1.970   6.070   4.625
13734TIP3    H241144   1.882   6.165   4.546
13735TIP3   OH241145   6.259   6.368   0.618
13735TIP3    H141146   6.241   6.276   0.636
13735TIP3    H241147   6.301   6.368   0.532
13736TIP3   OH241148   6.539   5.519   4.620
13736TIP3    H141149   6.589   5.580   4.674
13736TIP3    H241150   6.471   5.572   4.579
13737TIP3   OH241151   7.243   7.297   4.743
13737TIP3    H141152   7.223   7.285   4.650
13737TIP3    H241153   7.279   7.213   4.771
13738TIP3   OH241154   0.966   1.761   2.369
13738TIP3    H141155   1.026   1.728   2.302
13738TIP3    H241156   0.887   1.708   2.359
13739TIP3   OH241157   2.780   5.764   4.762
13739TIP3    H141158   2.727   5.823   4.708
13739TIP3    H241159   2.719   5.727   4.825
13740TIP3   OH241160   2.846   3.705   4.695
13740TIP3    H141161   2.812   3.635   4.639
13740TIP3    H241162   2.769   3.759   4.716
13741TIP3   OH241163   0.667   3.816   1.987
13741TIP3    H141164   0.706   3.877   1.924
13741TIP3    H241165   0.612   3.758   1.934
13742TIP3   OH241166   1.632   7.057   0.590
13742TIP3    H141167   1.552   7.097   0.557
13742TIP3    H241168   1.623   7.059   0.685
13743TIP3   OH241169   0.095   2.717   5.053
13743TIP3    H141170   0.017   2.714   4.997
13743TIP3    H241171   0.065   2.689   5.139
13744TIP3   OH241172   1.490   7.157   0.158
13744TIP3    H141173   1.424   7.196   0.101
13744TIP3    H241174   1.460   7.178   0.247
13745TIP3   OH241175   0.691   4.715   3.523
13745TIP3    H141176   0.710   4.770   3.447
13745TIP3    H241177   0.654   4.776   3.588
13746TIP3   OH241178   4.384   4.513   2.682
13746TIP3    H141179   4.344   4.572   2.745
13746TIP3    H241180   4.478   4.525   2.693
13747TIP3   OH241181   1.835   4.606   3.007
13747TIP3    H141182   1.807   4.533   2.952
13747TIP3    H241183   1.922   4.581   3.037
13748TIP3   OH241184   2.517   6.500   1.532
13748TIP3    H141185   2.547   6.535   1.616
13748TIP3    H241186   2.598   6.482   1.483
13749TIP3   OH241187   5.890   5.053   1.109
13749TIP3    H141188   5.900   4.960   1.089
13749TIP3    H241189   5.974   5.092   1.083
13750TIP3   OH241190   0.427   5.319   2.854
13750TIP3    H141191   0.333   5.304   2.861
13750TIP3    H241192   0.447   5.381   2.924
13751TIP3   OH241193   6.909   5.366   3.046
13751TIP3    H141194   6.847   5.433   3.017
13751TIP3    H241195   6.995   5.406   3.033
13752TIP3   OH241196   2.106   6.266   6.212
13752TIP3    H141197   2.195   6.239   6.234
13752TIP3    H241198   2.055   6.246   6.290
13753TIP3   OH241199   5.640   7.654   4.425
13753TIP3    H141200   5.652   7.559   4.420
13753TIP3    H241201   5.545   7.665   4.433
13754TIP3   OH241202   5.349   2.977   2.824
13754TIP3    H141203   5.338   2.890   2.786
13754TIP3    H241204   5.419   3.017   2.773
13755TIP3   OH241205   7.094   3.820   5.030
13755TIP3    H141206   7.026   3.784   5.087
13755TIP3    H241207   7.091   3.915   5.046
13756TIP3   OH241208   2.136   1.665   0.974
13756TIP3    H141209   2.149   1.636   1.064
13756TIP3    H241210   2.047   1.636   0.952
13757TIP3   OH241211   6.524   5.576   5.953
13757TIP3    H141212   6.531   5.493   5.905
13757TIP3    H241213   6.513   5.549   6.044
13758TIP3   OH241214   8.082   7.504   5.000
13758TIP3    H141215   8.162   7.549   5.026
13758TIP3    H241216   8.101   7.468   4.914
13759TIP3   OH241217   3.552   0.085   4.364
13759TIP3    H141218   3.613   0.109   4.433
13759TIP3    H241219   3.598   0.105   4.283
13760TIP3   OH241220   3.785   5.524   4.215
13760TIP3    H141221   3.875   5.551   4.231
13760TIP3    H241222   3.735   5.605   4.211
13761TIP3   OH241223   5.435   1.520   2.983
13761TIP3    H141224   5.348   1.532   3.021
13761TIP3    H241225   5.490   1.491   3.056
13762TIP3   OH241226   4.644   3.623   6.331
13762TIP3    H141227   4.598   3.541   6.315
13762TIP3    H241228   4.575   3.687   6.348
13763TIP3   OH241229   6.117   2.264   3.015
13763TIP3    H141230   6.046   2.292   2.958
13763TIP3    H241231   6.195   2.265   2.959
13764TIP3   OH241232   3.361   3.989   4.371
13764TIP3    H141233   3.329   3.898   4.365
13764TIP3    H241234   3.294   4.040   4.324
13765TIP3   OH241235   8.262   6.504   0.751
13765TIP3    H141236   8.357   6.508   0.742
13765TIP3    H241237   8.248   6.489   0.845
13766TIP3   OH241238   6.105   1.714   2.182
13766TIP3    H141239   6.093   1.668   2.099
13766TIP3    H241240   6.200   1.717   2.195
13767TIP3   OH241241   4.804   7.153   5.316
13767TIP3    H141242   4.780   7.073   5.362
13767TIP3    H241243   4.900   7.147   5.307
13768TIP3   OH241244   4.971   1.086   0.847
13768TIP3    H141245   4.877   1.098   0.835
13768TIP3    H241246   4.997   1.023   0.780
13769TIP3   OH241247   4.328   4.899   5.977
13769TIP3    H141248   4.396   4.893   6.043
13769TIP3    H241249   4.374   4.892   5.893
13770TIP3   OH241250   1.622   3.002   5.227
13770TIP3    H141251   1.605   3.096   5.226
13770TIP3    H241252   1.717   2.995   5.233
13771TIP3   OH241253   6.370   0.359   0.878
13771TIP3    H141254   6.389   0.453   0.880
13771TIP3    H241255   6.275   0.355   0.869
13772TIP3   OH241256   4.118   3.865   2.115
13772TIP3    H141257   4.067   3.825   2.044
13772TIP3    H241258   4.064   3.940   2.142
13773TIP3   OH241259   7.876   7.235   0.429
13773TIP3    H141260   7.947   7.236   0.493
13773TIP3    H241261   7.876   7.322   0.391
13774TIP3   OH241262   2.577   1.094   2.140
13774TIP3    H141263   2.618   1.155   2.079
13774TIP3    H241264   2.553   1.148   2.215
13775TIP3   OH241265   7.899   4.932   0.387
13775TIP3    H141266   7.876   4.840   0.395
13775TIP3    H241267   7.993   4.932   0.369
13776TIP3   OH241268   6.634   3.453   6.591
13776TIP3    H141269   6.645   3.502   6.672
13776TIP3    H241270   6.553   3.403   6.603
13777TIP3   OH241271   8.158   0.881   5.304
13777TIP3    H141272   8.156   0.908   5.212
13777TIP3    H241273   8.217   0.805   5.305
13778TIP3   OH241274   6.045   6.127   6.636
13778TIP3    H141275   6.029   6.190   6.706
13778TIP3    H241276   6.126   6.083   6.662
13779TIP3   OH241277   6.457   7.879   2.544
13779TIP3    H141278   6.412   7.960   2.567
13779TIP3    H241279   6.488   7.844   2.628
13780TIP3   OH241280   5.745   0.546   2.099
13780TIP3    H141281   5.823   0.590   2.067
13780TIP3    H241282   5.762   0.530   2.191
13781TIP3   OH241283   2.698   0.825   2.428
13781TIP3    H141284   2.751   0.748   2.411
13781TIP3    H241285   2.726   0.889   2.363
13782TIP3   OH241286   4.127   0.993   1.674
13782TIP3    H141287   4.074   1.063   1.711
13782TIP3    H241288   4.080   0.913   1.697
13783TIP3   OH241289   6.223   3.749   1.133
13783TIP3    H141290   6.168   3.812   1.086
13783TIP3    H241291   6.165   3.710   1.198
13784TIP3   OH241292   5.499   4.298   1.503
13784TIP3    H141293   5.423   4.343   1.538
13784TIP3    H241294   5.522   4.347   1.424
13785TIP3   OH241295   1.753   4.050   1.592
13785TIP3    H141296   1.721   3.962   1.571
13785TIP3    H241297   1.717   4.069   1.678
13786TIP3   OH241298   4.511   6.764   3.679
13786TIP3    H141299   4.548   6.689   3.633
13786TIP3    H241300   4.453   6.726   3.744
13787TIP3   OH241301   6.554   1.974   2.520
13787TIP3    H141302   6.570   2.067   2.538
13787TIP3    H241303   6.633   1.930   2.551
13788TIP3   OH241304   2.539   5.363   5.359
13788TIP3    H141305   2.557   5.301   5.430
13788TIP3    H241306   2.465   5.324   5.312
13789TIP3   OH241307   1.293   0.938   2.133
13789TIP3    H141308   1.352   0.864   2.143
13789TIP3    H241309   1.206   0.903   2.151
13790TIP3   OH241310   6.991   2.658   6.137
13790TIP3    H141311   6.990   2.682   6.044
13790TIP3    H241312   7.002   2.563   6.137
13791TIP3   OH241313   2.969   6.559   0.428
13791TIP3    H141314   3.011   6.603   0.354
13791TIP3    H241315   3.034   6.564   0.499
13792TIP3   OH241316   7.156   7.110   5.153
13792TIP3    H141317   7.120   7.191   5.189
13792TIP3    H241318   7.230   7.139   5.100
13793TIP3   OH241319   2.511   0.575   6.489
13793TIP3    H141320   2.527   0.647   6.427
13793TIP3    H241321   2.552   0.604   6.570
13794TIP3   OH241322   6.046   6.401   3.047
13794TIP3    H141323   5.971   6.459   3.037
13794TIP3    H241324   6.018   6.318   3.009
13795TIP3   OH241325   1.774   1.371   3.979
13795TIP3    H141326   1.793   1.303   4.044
13795TIP3    H241327   1.844   1.434   3.990
13796TIP3   OH241328   2.250   5.827   5.413
13796TIP3    H141329   2.226   5.877   5.336
13796TIP3    H241330   2.167   5.809   5.457
13797TIP3   OH241331   0.915   1.403   6.059
13797TIP3    H141332   0.973   1.396   5.983
13797TIP3    H241333   0.830   1.372   6.027
13798TIP3   OH241334   4.146   4.462   2.395
13798TIP3    H141335   4.147   4.538   2.453
13798TIP3    H241336   4.066   4.473   2.343
13799TIP3   OH241337   4.610   7.829   3.028
13799TIP3    H141338   4.545   7.895   3.051
13799TIP3    H241339   4.603   7.763   3.097
13800TIP3   OH241340   7.234   5.501   4.312
13800TIP3    H141341   7.169   5.568   4.288
13800TIP3    H241342   7.305   5.514   4.250
13801TIP3   OH241343   1.637   3.098   3.060
13801TIP3    H141344   1.588   3.181   3.055
13801TIP3    H241345   1.637   3.065   2.971
13802TIP3   OH241346   4.769   5.801   5.346
13802TIP3    H141347   4.816   5.826   5.267
13802TIP3    H241348   4.742   5.710   5.330
13803TIP3   OH241349   4.378   0.448   0.897
13803TIP3    H141350   4.435   0.442   0.974
13803TIP3    H241351   4.291   0.424   0.928
13804TIP3   OH241352   2.766   3.173   2.787
13804TIP3    H141353   2.743   3.234   2.858
13804TIP3    H241354   2.860   3.188   2.773
13805TIP3   OH241355   4.106   4.695   0.640
13805TIP3    H141356   4.053   4.738   0.707
13805TIP3    H241357   4.094   4.601   0.657
13806TIP3   OH241358   5.755   2.793   1.838
13806TIP3    H141359   5.695   2.746   1.896
13806TIP3    H241360   5.699   2.854   1.790
13807TIP3   OH241361   4.365   2.775   5.208
13807TIP3    H141362   4.424   2.701   5.217
13807TIP3    H241363   4.281   2.743   5.241
13808TIP3   OH241364   1.089   6.504   2.530
13808TIP3    H141365   1.154   6.574   2.538
13808TIP3    H241366   1.080   6.491   2.435
13809TIP3   OH241367   3.760   4.625   2.208
13809TIP3    H141368   3.805   4.545   2.232
13809TIP3    H241369   3.667   4.606   2.223
13810TIP3   OH241370   2.256   0.877   2.826
13810TIP3    H141371   2.315   0.844   2.758
13810TIP3    H241372   2.227   0.798   2.872
13811TIP3   OH241373   3.042   6.883   3.232
13811TIP3    H141374   3.038   6.814   3.167
13811TIP3    H241375   2.985   6.853   3.303
13812TIP3   OH241376   8.201   0.069   2.309
13812TIP3    H141377   8.188   0.082   2.403
13812TIP3    H241378   8.115   0.039   2.278
13813TIP3   OH241379   6.966   2.849   2.062
13813TIP3    H141380   6.954   2.759   2.093
13813TIP3    H241381   7.044   2.880   2.109
13814TIP3   OH241382   4.822   4.912   3.636
13814TIP3    H141383   4.849   4.821   3.651
13814TIP3    H241384   4.841   4.956   3.719
13815TIP3   OH241385   4.274   4.609   1.023
13815TIP3    H141386   4.269   4.687   1.077
13815TIP3    H241387   4.330   4.635   0.949
13816TIP3   OH241388   0.141   6.612   5.655
13816TIP3    H141389   0.200   6.686   5.671
13816TIP3    H241390   0.183   6.563   5.584
13817TIP3   OH241391   1.717   1.506   0.608
13817TIP3    H141392   1.675   1.573   0.663
13817TIP3    H241393   1.680   1.424   0.639
13818TIP3   OH241394   6.017   2.511   5.497
13818TIP3    H141395   6.080   2.496   5.567
13818TIP3    H241396   6.064   2.562   5.432
13819TIP3   OH241397   7.417   5.526   5.251
13819TIP3    H141398   7.337   5.497   5.208
13819TIP3    H241399   7.487   5.477   5.207
13820TIP3   OH241400   6.820   2.403   0.452
13820TIP3    H141401   6.781   2.317   0.437
13820TIP3    H241402   6.841   2.404   0.546
13821TIP3   OH241403   4.555   6.620   2.853
13821TIP3    H141404   4.584   6.703   2.816
13821TIP3    H241405   4.577   6.555   2.785
13822TIP3   OH241406   7.246   6.654   1.587
13822TIP3    H141407   7.318   6.610   1.632
13822TIP3    H241408   7.215   6.719   1.649
13823TIP3   OH241409   2.028   3.500   1.978
13823TIP3    H141410   1.971   3.540   1.913
13823TIP3    H241411   2.098   3.564   1.992
13824TIP3   OH241412   7.564   2.509   2.607
13824TIP3    H141413   7.625   2.436   2.601
13824TIP3    H241414   7.578   2.544   2.695
13825TIP3   OH241415   6.358   1.105   3.777
13825TIP3    H141416   6.391   1.194   3.776
13825TIP3    H241417   6.278   1.108   3.725
13826TIP3   OH241418   6.028   5.800   2.078
13826TIP3    H141419   6.055   5.891   2.088
13826TIP3    H241420   6.003   5.773   2.167
13827TIP3   OH241421   0.019   6.355   3.110
13827TIP3    H141422   0.025   6.276   3.164
13827TIP3    H241423   0.088   6.343   3.044
13828TIP3   OH241424   0.875   4.011   1.480
13828TIP3    H141425   0.875   4.057   1.564
13828TIP3    H241426   0.888   4.080   1.415
13829TIP3   OH241427   2.578   2.808   5.188
13829TIP3    H141428   2.568   2.717   5.216
13829TIP3    H241429   2.494   2.830   5.149
13830TIP3   OH241430   8.015   2.200   5.347
13830TIP3    H141431   8.063   2.118   5.335
13830TIP3    H241432   7.923   2.176   5.339
13831TIP3   OH241433   5.103   2.761   4.751
13831TIP3    H141434   5.138   2.707   4.680
13831TIP3    H241435   5.181   2.793   4.797
13832TIP3   OH241436   7.767   1.694   5.705
13832TIP3    H141437   7.834   1.749   5.665
13832TIP3    H241438   7.686   1.742   5.692
13833TIP3   OH241439   6.937   4.100   4.436
13833TIP3    H141440   6.961   4.023   4.385
13833TIP3    H241441   6.995   4.098   4.512
13834TIP3   OH241442   2.793   1.791   3.199
13834TIP3    H141443   2.709   1.768   3.240
13834TIP3    H241444   2.770   1.852   3.129
13835TIP3   OH241445   4.287   1.863   5.190
13835TIP3    H141446   4.239   1.937   5.151
13835TIP3    H241447   4.337   1.903   5.261
13836TIP3   OH241448   5.769   0.693   0.800
13836TIP3    H141449   5.814   0.652   0.874
13836TIP3    H241450   5.802   0.783   0.798
13837TIP3   OH241451   2.845   1.009   2.270
13837TIP3    H141452   2.913   0.975   2.212
13837TIP3    H241453   2.788   1.060   2.212
13838TIP3   OH241454   2.283   4.070  -0.010
13838TIP3    H141455   2.210   4.132  -0.011
13838TIP3    H241456   2.320   4.079   0.077
13839TIP3   OH241457   5.503   7.660   4.138
13839TIP3    H141458   5.458   7.644   4.220
13839TIP3    H241459   5.437   7.640   4.070
13840TIP3   OH241460   3.892   0.169   0.645
13840TIP3    H141461   3.829   0.214   0.590
13840TIP3    H241462   3.888   0.215   0.729
13841TIP3   OH241463   5.785   1.500   0.550
13841TIP3    H141464   5.867   1.475   0.591
13841TIP3    H241465   5.783   1.595   0.555
13842TIP3   OH241466   7.806   4.711   5.603
13842TIP3    H141467   7.828   4.792   5.648
13842TIP3    H241468   7.736   4.735   5.542
13843TIP3   OH241469   7.499   5.194   1.657
13843TIP3    H141470   7.523   5.165   1.569
13843TIP3    H241471   7.499   5.290   1.652
13844TIP3   OH241472   5.430   1.542   2.269
13844TIP3    H141473   5.514   1.583   2.247
13844TIP3    H241474   5.454   1.464   2.319
13845TIP3   OH241475   7.292   5.264   0.481
13845TIP3    H141476   7.352   5.218   0.422
13845TIP3    H241477   7.330   5.252   0.568
13846TIP3   OH241478   1.472   7.660   1.108
13846TIP3    H141479   1.459   7.710   1.027
13846TIP3    H241480   1.486   7.725   1.176
13847TIP3   OH241481   4.182   3.485   6.259
13847TIP3    H141482   4.105   3.457   6.210
13847TIP3    H241483   4.242   3.411   6.256
13848TIP3   OH241484   4.683   6.890   3.332
13848TIP3    H141485   4.689   6.974   3.377
13848TIP3    H241486   4.721   6.827   3.393
13849TIP3   OH241487   2.093   0.996   2.068
13849TIP3    H141488   2.185   0.974   2.081
13849TIP3    H241489   2.094   1.061   1.998
13850TIP3   OH241490   8.266   1.637   5.867
13850TIP3    H141491   8.349   1.683   5.868
13850TIP3    H241492   8.281   1.559   5.920
13851TIP3   OH241493   6.296   2.387   4.806
13851TIP3    H141494   6.200   2.386   4.806
13851TIP3    H241495   6.320   2.392   4.714
13852TIP3   OH241496   3.748   1.910   6.749
13852TIP3    H141497   3.678   1.953   6.798
13852TIP3    H241498   3.811   1.884   6.817
13853TIP3   OH241499   2.267   1.049   5.684
13853TIP3    H141500   2.187   1.088   5.720
13853TIP3    H241501   2.335   1.112   5.706
13854TIP3   OH241502   4.209   5.289   5.110
13854TIP3    H141503   4.157   5.328   5.040
13854TIP3    H241504   4.150   5.288   5.186
13855TIP3   OH241505   5.670   2.154   3.009
13855TIP3    H141506   5.703   2.069   3.037
13855TIP3    H241507   5.664   2.205   3.090
13856TIP3   OH241508   4.261   6.546   1.332
13856TIP3    H141509   4.278   6.452   1.328
13856TIP3    H241510   4.280   6.570   1.423
13857TIP3   OH241511   0.721   3.906   6.651
13857TIP3    H141512   0.726   3.952   6.567
13857TIP3    H241513   0.776   3.957   6.710
13858TIP3   OH241514   4.302   4.198   0.191
13858TIP3    H141515   4.259   4.238   0.267
13858TIP3    H241516   4.391   4.179   0.222
13859TIP3   OH241517   7.543   1.942   6.160
13859TIP3    H141518   7.458   1.920   6.122
13859TIP3    H241519   7.594   1.861   6.155
13860TIP3   OH241520   1.472   4.657   1.392
13860TIP3    H141521   1.525   4.603   1.333
13860TIP3    H241522   1.507   4.638   1.479
13861TIP3   OH241523   4.413   6.044   3.580
13861TIP3    H141524   4.341   6.028   3.641
13861TIP3    H241525   4.386   6.001   3.499
13862TIP3   OH241526   5.900   6.605   2.030
13862TIP3    H141527   5.929   6.696   2.018
13862TIP3    H241528   5.930   6.560   1.951
13863TIP3   OH241529   7.830   0.483   4.685
13863TIP3    H141530   7.861   0.514   4.600
13863TIP3    H241531   7.794   0.396   4.667
13864TIP3   OH241532   6.068   7.445   0.955
13864TIP3    H141533   6.016   7.366   0.941
13864TIP3    H241534   6.048   7.500   0.879
13865TIP3   OH241535   2.346   2.590   6.362
13865TIP3    H141536   2.334   2.587   6.267
13865TIP3    H241537   2.277   2.648   6.393
13866TIP3   OH241538   2.007   4.132   4.355
13866TIP3    H141539   2.014   4.212   4.407
13866TIP3    H241540   1.917   4.134   4.321
13867TIP3   OH241541   6.230   6.920   6.667
13867TIP3    H141542   6.244   6.840   6.616
13867TIP3    H241543   6.317   6.944   6.698
13868TIP3   OH241544   6.416   6.139   3.021
13868TIP3    H141545   6.412   6.162   2.928
13868TIP3    H241546   6.509   6.138   3.043
13869TIP3   OH241547   2.109   6.226   2.682
13869TIP3    H141548   2.037   6.289   2.687
13869TIP3    H241549   2.143   6.236   2.594
13870TIP3   OH241550   0.399   5.458   3.091
13870TIP3    H141551   0.480   5.508   3.080
13870TIP3    H241552   0.364   5.487   3.176
13871TIP3   OH241553   4.948   3.995   2.141
13871TIP3    H141554   5.033   3.953   2.153
13871TIP3    H241555   4.965   4.066   2.079
13872TIP3   OH241556   1.131   4.204   1.809
13872TIP3    H141557   1.209   4.225   1.862
13872TIP3    H241558   1.134   4.269   1.738
13873TIP3   OH241559   6.065   5.826   3.220
13873TIP3    H141560   6.057   5.755   3.156
13873TIP3    H241561   6.103   5.899   3.170
13874TIP3   OH241562   6.025   5.078   2.188
13874TIP3    H141563   6.108   5.036   2.212
13874TIP3    H241564   5.969   5.005   2.161
13875TIP3   OH241565   5.509   0.925   6.682
13875TIP3    H141566   5.552   0.948   6.600
13875TIP3    H241567   5.450   0.854   6.658
13876TIP3   OH241568   7.293   2.335   6.593
13876TIP3    H141569   7.285   2.344   6.498
13876TIP3    H241570   7.214   2.289   6.620
13877TIP3   OH241571   6.852   3.332   6.459
13877TIP3    H141572   6.835   3.252   6.410
13877TIP3    H241573   6.766   3.360   6.490
13878TIP3   OH241574   4.264   5.574   5.187
13878TIP3    H141575   4.191   5.635   5.199
13878TIP3    H241576   4.225   5.499   5.142
13879TIP3   OH241577   3.544   1.218   5.596
13879TIP3    H141578   3.619   1.258   5.639
13879TIP3    H241579   3.480   1.289   5.589
13880TIP3   OH241580   1.924   2.485   4.287
13880TIP3    H141581   1.889   2.474   4.198
13880TIP3    H241582   1.974   2.566   4.283
13881TIP3   OH241583   2.081   3.775   0.130
13881TIP3    H141584   2.144   3.741   0.067
13881TIP3    H241585   2.043   3.852   0.088
13882TIP3   OH241586   1.746   6.412   1.887
13882TIP3    H141587   1.728   6.470   1.961
13882TIP3    H241588   1.667   6.357   1.880
13883TIP3   OH241589   2.288   6.021   1.191
13883TIP3    H141590   2.383   6.032   1.179
13883TIP3    H241591   2.249   6.074   1.123
13884TIP3   OH241592   4.152   5.526   1.714
13884TIP3    H141593   4.141   5.561   1.626
13884TIP3    H241594   4.118   5.595   1.771
13885TIP3   OH241595   3.072   0.664   4.527
13885TIP3    H141596   3.000   0.684   4.588
13885TIP3    H241597   3.036   0.687   4.441
13886TIP3   OH241598   8.131   5.467   1.705
13886TIP3    H141599   8.194   5.404   1.670
13886TIP3    H241600   8.046   5.424   1.696
13887TIP3   OH241601   3.838   3.307   1.023
13887TIP3    H141602   3.878   3.393   1.008
13887TIP3    H241603   3.768   3.302   0.959
13888TIP3   OH241604   4.429   6.834   6.561
13888TIP3    H141605   4.489   6.902   6.529
13888TIP3    H241606   4.404   6.785   6.483
13889TIP3   OH241607   6.343   4.938   1.852
13889TIP3    H141608   6.349   4.883   1.774
13889TIP3    H241609   6.258   4.983   1.843
13890TIP3   OH241610   5.805   7.446   3.193
13890TIP3    H141611   5.879   7.401   3.151
13890TIP3    H241612   5.792   7.525   3.141
13891TIP3   OH241613   7.071   3.034   2.597
13891TIP3    H141614   7.148   3.082   2.628
13891TIP3    H241615   7.007   3.042   2.668
13892TIP3   OH241616   3.982   5.942   0.535
13892TIP3    H141617   4.072   5.912   0.523
13892TIP3    H241618   3.988   6.011   0.600
13893TIP3   OH241619   5.449   4.493   2.431
13893TIP3    H141620   5.448   4.439   2.353
13893TIP3    H241621   5.367   4.543   2.427
13894TIP3   OH241622   6.875   1.342   6.374
13894TIP3    H141623   6.792   1.359   6.418
13894TIP3    H241624   6.939   1.396   6.422
13895TIP3   OH241625   0.938   6.884   3.012
13895TIP3    H141626   1.023   6.870   2.971
13895TIP3    H241627   0.875   6.844   2.951
13896TIP3   OH241628   6.038   2.332   6.075
13896TIP3    H141629   6.030   2.377   6.159
13896TIP3    H241630   6.131   2.339   6.052
13897TIP3   OH241631   3.687   2.705   6.378
13897TIP3    H141632   3.686   2.719   6.283
13897TIP3    H241633   3.741   2.776   6.413
13898TIP3   OH241634   1.107   4.071   0.732
13898TIP3    H141635   1.181   4.131   0.719
13898TIP3    H241636   1.033   4.115   0.691
13899TIP3   OH241637   3.833   1.233   1.259
13899TIP3    H141638   3.813   1.277   1.176
13899TIP3    H241639   3.864   1.146   1.232
13900TIP3   OH241640   5.025   6.838   1.232
13900TIP3    H141641   5.025   6.763   1.172
13900TIP3    H241642   5.086   6.814   1.301
13901TIP3   OH241643   7.786   0.375   0.515
13901TIP3    H141644   7.826   0.409   0.435
13901TIP3    H241645   7.859   0.341   0.566
13902TIP3   OH241646   1.332   2.081   2.380
13902TIP3    H141647   1.244   2.111   2.402
13902TIP3    H241648   1.329   2.061   2.287
13903TIP3   OH241649   8.289   3.192   1.212
13903TIP3    H141650   8.308   3.262   1.150
13903TIP3    H241651   8.231   3.231   1.277
13904TIP3   OH241652   3.400   5.154   5.886
13904TIP3    H141653   3.414   5.175   5.979
13904TIP3    H241654   3.405   5.238   5.842
13905TIP3   OH241655   4.864   7.864   3.505
13905TIP3    H141656   4.868   7.928   3.576
13905TIP3    H241657   4.776   7.825   3.514
13906TIP3   OH241658   4.932   7.357   2.832
13906TIP3    H141659   5.019   7.381   2.801
13906TIP3    H241660   4.886   7.440   2.844
13907TIP3   OH241661   6.606   5.074   3.008
13907TIP3    H141662   6.693   5.085   2.970
13907TIP3    H241663   6.609   4.988   3.050
13908TIP3   OH241664   0.595   7.035   3.904
13908TIP3    H141665   0.681   7.078   3.899
13908TIP3    H241666   0.545   7.072   3.832
13909TIP3   OH241667   3.999   1.458   1.952
13909TIP3    H141668   3.945   1.499   1.884
13909TIP3    H241669   3.982   1.511   2.030
13910TIP3   OH241670   2.322   0.841   5.234
13910TIP3    H141671   2.411   0.808   5.248
13910TIP3    H241672   2.283   0.780   5.171
13911TIP3   OH241673   3.900   7.347   0.947
13911TIP3    H141674   3.869   7.258   0.936
13911TIP3    H241675   3.901   7.384   0.859
13912TIP3   OH241676   6.281   4.388   6.396
13912TIP3    H141677   6.303   4.415   6.306
13912TIP3    H241678   6.357   4.416   6.448
13913TIP3   OH241679   7.352   5.378   2.174
13913TIP3    H141680   7.303   5.375   2.256
13913TIP3    H241681   7.381   5.469   2.167
13914TIP3   OH241682   5.197   4.165   3.648
13914TIP3    H141683   5.232   4.249   3.675
13914TIP3    H241684   5.156   4.182   3.563
13915TIP3   OH241685   0.629   0.404   3.337
13915TIP3    H141686   0.624   0.423   3.430
13915TIP3    H241687   0.539   0.408   3.306
13916TIP3   OH241688   3.824   6.686   4.661
13916TIP3    H141689   3.816   6.768   4.710
13916TIP3    H241690   3.879   6.708   4.586
13917TIP3   OH241691   3.252   1.927   4.894
13917TIP3    H141692   3.230   1.975   4.814
13917TIP3    H241693   3.296   1.992   4.949
13918TIP3   OH241694   6.774   6.934   4.079
13918TIP3    H141695   6.793   6.973   4.164
13918TIP3    H241696   6.775   6.840   4.095
13919TIP3   OH241697   3.864   2.581   0.998
13919TIP3    H141698   3.774   2.584   0.967
13919TIP3    H241699   3.904   2.661   0.964
13920TIP3   OH241700   0.534   3.601   6.590
13920TIP3    H141701   0.489   3.533   6.540
13920TIP3    H241702   0.609   3.557   6.629
13921TIP3   OH241703   6.336   5.782   4.681
13921TIP3    H141704   6.353   5.793   4.774
13921TIP3    H241705   6.298   5.865   4.654
13922TIP3   OH241706   2.422   1.206   2.339
13922TIP3    H141707   2.496   1.247   2.384
13922TIP3    H241708   2.346   1.254   2.371
13923TIP3   OH241709   1.993   5.196   5.612
13923TIP3    H141710   1.958   5.221   5.697
13923TIP3    H241711   2.020   5.278   5.571
13924TIP3   OH241712   4.409   2.041   5.394
13924TIP3    H141713   4.471   2.106   5.359
13924TIP3    H241714   4.403   2.062   5.487
13925TIP3   OH241715   5.403   1.979   6.213
13925TIP3    H141716   5.496   1.999   6.220
13925TIP3    H241717   5.362   2.031   6.282
13926TIP3   OH241718   4.841   2.358   5.675
13926TIP3    H141719   4.766   2.356   5.734
13926TIP3    H241720   4.917   2.344   5.732
13927TIP3   OH241721   3.841   6.914   3.128
13927TIP3    H141722   3.825   6.919   3.223
13927TIP3    H241723   3.778   6.976   3.090
13928TIP3   OH241724   6.304   1.157   2.984
13928TIP3    H141725   6.317   1.062   2.978
13928TIP3    H241726   6.323   1.189   2.896
13929TIP3   OH241727   3.172   0.566   2.052
13929TIP3    H141728   3.254   0.567   2.101
13929TIP3    H241729   3.119   0.635   2.091
13930TIP3   OH241730   0.233   6.680   4.306
13930TIP3    H141731   0.221   6.593   4.344
13930TIP3    H241732   0.151   6.698   4.260
13931TIP3   OH241733   6.644   1.471   1.743
13931TIP3    H141734   6.670   1.384   1.774
13931TIP3    H241735   6.549   1.465   1.731
13932TIP3   OH241736   5.302   7.592   5.490
13932TIP3    H141737   5.383   7.554   5.523
13932TIP3    H241738   5.234   7.528   5.514
13933TIP3   OH241739   4.262   5.429   2.264
13933TIP3    H141740   4.351   5.406   2.292
13933TIP3    H241741   4.216   5.345   2.261
13934TIP3   OH241742   1.575   7.870   4.399
13934TIP3    H141743   1.668   7.874   4.378
13934TIP3    H241744   1.546   7.785   4.366
13935TIP3   OH241745   3.871   5.885   4.540
13935TIP3    H141746   3.876   5.789   4.534
13935TIP3    H241747   3.914   5.916   4.460
13936TIP3   OH241748   1.848   5.413   0.912
13936TIP3    H141749   1.911   5.437   0.845
13936TIP3    H241750   1.847   5.487   0.973
13937TIP3   OH241751   6.608   4.247   6.617
13937TIP3    H141752   6.687   4.198   6.593
13937TIP3    H241753   6.548   4.181   6.651
13938TIP3   OH241754   1.349   1.980   0.908
13938TIP3    H141755   1.412   1.924   0.953
13938TIP3    H241756   1.402   2.046   0.864
13939TIP3   OH241757   2.619   5.908   6.685
13939TIP3    H141758   2.536   5.937   6.722
13939TIP3    H241759   2.595   5.836   6.627
13940TIP3   OH241760   7.895   1.134   4.999
13940TIP3    H141761   7.835   1.064   5.024
13940TIP3    H241762   7.899   1.129   4.903
13941TIP3   OH241763   4.876   4.728   3.092
13941TIP3    H141764   4.879   4.732   2.997
13941TIP3    H241765   4.851   4.638   3.112
13942TIP3   OH241766   5.787   6.651   1.622
13942TIP3    H141767   5.796   6.700   1.540
13942TIP3    H241768   5.762   6.563   1.594
13943TIP3   OH241769   1.019   1.793   1.784
13943TIP3    H141770   1.057   1.823   1.867
13943TIP3    H241771   1.019   1.698   1.791
13944TIP3   OH241772   1.243   5.592   1.505
13944TIP3    H141773   1.337   5.596   1.489
13944TIP3    H241774   1.204   5.644   1.434
13945TIP3   OH241775   6.829   5.615   0.649
13945TIP3    H141776   6.745   5.573   0.627
13945TIP3    H241777   6.892   5.577   0.588
13946TIP3   OH241778   4.763   1.859   3.617
13946TIP3    H141779   4.734   1.938   3.663
13946TIP3    H241780   4.760   1.790   3.683
13947TIP3   OH241781   7.224   0.593   0.917
13947TIP3    H141782   7.188   0.642   0.991
13947TIP3    H241783   7.150   0.542   0.885
13948TIP3   OH241784   5.901   6.514   6.069
13948TIP3    H141785   5.977   6.539   6.122
13948TIP3    H241786   5.881   6.424   6.096
13949TIP3   OH241787   1.929   2.671   3.280
13949TIP3    H141788   1.952   2.588   3.322
13949TIP3    H241789   1.851   2.651   3.228
13950TIP3   OH241790   6.280   5.925   6.168
13950TIP3    H141791   6.330   5.966   6.098
13950TIP3    H241792   6.259   5.838   6.134
13951TIP3   OH241793   7.359   0.864   1.052
13951TIP3    H141794   7.398   0.949   1.029
13951TIP3    H241795   7.269   0.869   1.019
13952TIP3   OH241796   2.804   2.290   3.050
13952TIP3    H141797   2.732   2.271   2.990
13952TIP3    H241798   2.883   2.283   2.995
13953TIP3   OH241799   7.936   0.868   4.808
13953TIP3    H141800   7.941   0.822   4.891
13953TIP3    H241801   7.848   0.906   4.807
13954TIP3   OH241802   4.468   0.988   0.710
13954TIP3    H141803   4.453   0.906   0.662
13954TIP3    H241804   4.426   1.055   0.657
13955TIP3   OH241805   7.952   4.022   3.380
13955TIP3    H141806   8.047   4.026   3.375
13955TIP3    H241807   7.930   3.932   3.354
13956TIP3   OH241808   7.885   1.756   6.339
13956TIP3    H141809   7.825   1.787   6.271
13956TIP3    H241810   7.829   1.711   6.402
13957TIP3   OH241811   0.131   2.876   3.837
13957TIP3    H141812   0.092   2.958   3.867
13957TIP3    H241813   0.079   2.808   3.881
13958TIP3   OH241814   6.750   7.691   1.516
13958TIP3    H141815   6.843   7.667   1.509
13958TIP3    H241816   6.750   7.766   1.576
13959TIP3   OH241817   7.235   2.517   5.706
13959TIP3    H141818   7.217   2.476   5.790
13959TIP3    H241819   7.316   2.566   5.719
13960TIP3   OH241820   1.073   3.353   5.616
13960TIP3    H141821   1.144   3.314   5.667
13960TIP3    H241822   0.995   3.336   5.668
13961TIP3   OH241823   1.003   1.859   5.202
13961TIP3    H141824   0.943   1.812   5.143
13961TIP3    H241825   0.956   1.939   5.225
13962TIP3   OH241826   7.867   5.089   2.383
13962TIP3    H141827   7.856   5.042   2.465
13962TIP3    H241828   7.781   5.084   2.340
13963TIP3   OH241829   4.889   0.753   3.182
13963TIP3    H141830   4.818   0.768   3.120
13963TIP3    H241831   4.948   0.827   3.169
13964TIP3   OH241832   4.048   7.222   3.081
13964TIP3    H141833   4.028   7.219   3.174
13964TIP3    H241834   4.095   7.140   3.064
13965TIP3   OH241835   1.351   1.489   0.780
13965TIP3    H141836   1.379   1.579   0.763
13965TIP3    H241837   1.301   1.465   0.703
13966TIP3   OH241838   2.557   0.550   2.156
13966TIP3    H141839   2.518   0.568   2.071
13966TIP3    H241840   2.489   0.573   2.219
13967TIP3   OH241841   3.160   5.755   6.677
13967TIP3    H141842   3.065   5.755   6.665
13967TIP3    H241843   3.174   5.794   6.763
13968TIP3   OH241844   0.887   3.907   1.188
13968TIP3    H141845   0.847   3.954   1.261
13968TIP3    H241846   0.821   3.842   1.163
13969TIP3   OH241847   0.928   5.878   1.655
13969TIP3    H141848   0.997   5.908   1.596
13969TIP3    H241849   0.916   5.950   1.717
13970TIP3   OH241850   7.230   0.428   4.334
13970TIP3    H141851   7.224   0.341   4.374
13970TIP3    H241852   7.321   0.454   4.345
13971TIP3   OH241853   7.317   1.015   1.600
13971TIP3    H141854   7.282   0.927   1.606
13971TIP3    H241855   7.268   1.055   1.528
13972TIP3   OH241856   1.272   3.121   5.119
13972TIP3    H141857   1.284   3.069   5.199
13972TIP3    H241858   1.250   3.208   5.151
13973TIP3   OH241859   2.836   6.080   2.727
13973TIP3    H141860   2.791   6.068   2.811
13973TIP3    H241861   2.929   6.079   2.750
13974TIP3   OH241862   5.779   5.546   0.104
13974TIP3    H141863   5.684   5.547   0.094
13974TIP3    H241864   5.793   5.547   0.199
13975TIP3   OH241865   4.444   3.043   2.565
13975TIP3    H141866   4.444   3.124   2.515
13975TIP3    H241867   4.354   3.011   2.561
13976TIP3   OH241868   7.636   0.274   5.682
13976TIP3    H141869   7.560   0.332   5.686
13976TIP3    H241870   7.656   0.254   5.773
13977TIP3   OH241871   3.015   2.560   3.711
13977TIP3    H141872   3.070   2.579   3.787
13977TIP3    H241873   2.966   2.481   3.737
13978TIP3   OH241874   6.301   3.140   5.812
13978TIP3    H141875   6.260   3.054   5.815
13978TIP3    H241876   6.320   3.155   5.720
13979TIP3   OH241877   6.359   2.098   5.256
13979TIP3    H141878   6.417   2.169   5.282
13979TIP3    H241879   6.412   2.044   5.197
13980TIP3   OH241880   5.260   6.593   5.129
13980TIP3    H141881   5.243   6.500   5.114
13980TIP3    H241882   5.259   6.632   5.041
13981TIP3   OH241883   6.942  -0.006   2.226
13981TIP3    H141884   6.941   0.075   2.176
13981TIP3    H241885   7.032  -0.039   2.216
13982TIP3   OH241886   7.551   0.020   2.193
13982TIP3    H141887   7.616  -0.039   2.155
13982TIP3    H241888   7.588   0.047   2.276
13983TIP3   OH241889   3.869   5.609   5.306
13983TIP3    H141890   3.840   5.687   5.352
13983TIP3    H241891   3.796   5.587   5.248
13984TIP3   OH241892   3.581   3.755   3.707
13984TIP3    H141893   3.653   3.692   3.707
13984TIP3    H241894   3.585   3.796   3.620
13985TIP3   OH241895   3.834   3.240   2.751
13985TIP3    H141896   3.912   3.278   2.710
13985TIP3    H241897   3.827   3.284   2.835
13986TIP3   OH241898   3.022   4.166   2.882
13986TIP3    H141899   3.066   4.155   2.966
13986TIP3    H241900   3.024   4.079   2.843
13987TIP3   OH241901   5.827   5.622   5.405
13987TIP3    H141902   5.785   5.687   5.462
13987TIP3    H241903   5.853   5.671   5.327
13988TIP3   OH241904   1.729   7.571   6.091
13988TIP3    H141905   1.824   7.566   6.080
13988TIP3    H241906   1.716   7.585   6.185
13989TIP3   OH241907   1.075   2.490   0.079
13989TIP3    H141908   1.071   2.520  -0.012
13989TIP3    H241909   1.090   2.395   0.072
13990TIP3   OH241910   7.465   0.520   4.044
13990TIP3    H141911   7.536   0.574   4.011
13990TIP3    H241912   7.469   0.439   3.993
13991TIP3   OH241913   5.665   7.289   5.933
13991TIP3    H141914   5.690   7.200   5.955
13991TIP3    H241915   5.625   7.324   6.013
13992TIP3   OH241916   7.546   7.650   0.399
13992TIP3    H141917   7.639   7.650   0.422
13992TIP3    H241918   7.502   7.613   0.476
13993TIP3   OH241919   6.962   0.990   0.342
13993TIP3    H141920   7.041   0.935   0.340
13993TIP3    H241921   6.906   0.948   0.407
13994TIP3   OH241922   7.164   0.163   3.558
13994TIP3    H141923   7.082   0.200   3.590
13994TIP3    H241924   7.144   0.136   3.468
13995TIP3   OH241925   4.207   6.836   2.504
13995TIP3    H141926   4.138   6.773   2.482
13995TIP3    H241927   4.210   6.836   2.599
13996TIP3   OH241928   6.546   6.211   6.174
13996TIP3    H141929   6.519   6.295   6.212
13996TIP3    H241930   6.569   6.158   6.250
13997TIP3   OH241931   7.053   7.134   5.636
13997TIP3    H141932   7.073   7.076   5.562
13997TIP3    H241933   7.028   7.074   5.707
13998TIP3   OH241934   4.054   4.499   3.986
13998TIP3    H141935   3.985   4.532   4.042
13998TIP3    H241936   4.135   4.513   4.035
13999TIP3   OH241937   4.099   1.205   4.766
13999TIP3    H141938   4.021   1.230   4.816
13999TIP3    H241939   4.070   1.129   4.715
14000TIP3   OH241940   7.541   5.526   0.992
14000TIP3    H141941   7.514   5.579   0.917
14000TIP3    H241942   7.480   5.550   1.062
14001TIP3   OH241943   3.240   7.669   0.463
14001TIP3    H141944   3.297   7.687   0.388
14001TIP3    H241945   3.218   7.577   0.454
14002TIP3   OH241946   0.055   4.418   1.185
14002TIP3    H141947  -0.004   4.443   1.115
14002TIP3    H241948   0.005   4.433   1.265
14003TIP3   OH241949   1.432   2.609   0.701
14003TIP3    H141950   1.482   2.591   0.621
14003TIP3    H241951   1.494   2.594   0.772
14004TIP3   OH241952   5.382   0.217   4.127
14004TIP3    H141953   5.428   0.155   4.070
14004TIP3    H241954   5.449   0.281   4.151
14005TIP3   OH241955   0.941   5.448   0.022
14005TIP3    H141956   0.872   5.382   0.034
14005TIP3    H241957   0.977   5.461   0.110
14006TIP3   OH241958   0.560   7.504   4.237
14006TIP3    H141959   0.592   7.576   4.291
14006TIP3    H241960   0.551   7.541   4.149
14007TIP3   OH241961   7.586   7.397   0.274
14007TIP3    H141962   7.577   7.354   0.359
14007TIP3    H241963   7.582   7.490   0.294
14008TIP3   OH241964   4.203   0.602   3.904
14008TIP3    H141965   4.266   0.660   3.947
14008TIP3    H241966   4.119   0.623   3.945
14009TIP3   OH241967   0.573   5.607   3.743
14009TIP3    H141968   0.651   5.564   3.778
14009TIP3    H241969   0.598   5.631   3.653
14010TIP3   OH241970   4.436   5.409   3.587
14010TIP3    H141971   4.470   5.491   3.623
14010TIP3    H241972   4.366   5.383   3.648
14011TIP3   OH241973   0.139   1.294   3.828
14011TIP3    H141974   0.204   1.361   3.808
14011TIP3    H241975   0.170   1.253   3.909
14012TIP3   OH241976   7.939   6.443   5.203
14012TIP3    H141977   7.890   6.493   5.267
14012TIP3    H241978   7.945   6.355   5.241
14013TIP3   OH241979   2.647   5.953   5.524
14013TIP3    H141980   2.599   5.872   5.508
14013TIP3    H241981   2.712   5.930   5.590
14014TIP3   OH241982   0.600   0.926   4.031
14014TIP3    H141983   0.681   0.901   4.075
14014TIP3    H241984   0.590   1.019   4.050
14015TIP3   OH241985   0.520   7.458   6.246
14015TIP3    H141986   0.574   7.537   6.246
14015TIP3    H241987   0.536   7.419   6.332
14016TIP3   OH241988   3.567   3.225   6.377
14016TIP3    H141989   3.603   3.298   6.428
14016TIP3    H241990   3.572   3.150   6.435
14017TIP3   OH241991   0.387   6.391   3.780
14017TIP3    H141992   0.423   6.316   3.732
14017TIP3    H241993   0.461   6.428   3.827
14018TIP3   OH241994   5.486   7.938   0.426
14018TIP3    H141995   5.557   7.874   0.417
14018TIP3    H241996   5.439   7.935   0.343
14019TIP3   OH241997   2.849   4.143   0.520
14019TIP3    H141998   2.822   4.054   0.543
14019TIP3    H241999   2.776   4.178   0.469
14020TIP3   OH242000   5.708   7.620   2.847
14020TIP3    H142001   5.706   7.644   2.939
14020TIP3    H242002   5.618   7.633   2.817
14021TIP3   OH242003   1.096   7.886   1.167
14021TIP3    H142004   1.145   7.838   1.100
14021TIP3    H242005   1.038   7.820   1.205
14022TIP3   OH242006   7.357   5.507   6.592
14022TIP3    H142007   7.353   5.484   6.685
14022TIP3    H242008   7.425   5.574   6.587
14023TIP3   OH242009   6.276   0.772   5.903
14023TIP3    H142010   6.239   0.766   5.815
14023TIP3    H242011   6.333   0.696   5.911
14024TIP3   OH242012   6.173   4.922   6.388
14024TIP3    H142013   6.118   4.924   6.466
14024TIP3    H242014   6.145   4.843   6.341
14025TIP3   OH242015   2.116   6.003   0.478
14025TIP3    H142016   2.166   6.081   0.455
14025TIP3    H242017   2.034   6.012   0.429
14026TIP3   OH242018   0.022   1.159   4.281
14026TIP3    H142019   0.070   1.082   4.251
14026TIP3    H242020  -0.054   1.165   4.223
14027TIP3   OH242021   7.134   6.293   0.907
14027TIP3    H142022   7.206   6.309   0.968
14027TIP3    H242023   7.139   6.199   0.889
14028TIP3   OH242024   8.190   4.433   2.379
14028TIP3    H142025   8.236   4.349   2.374
14028TIP3    H242026   8.202   4.473   2.293
14029TIP3   OH242027   3.295   2.579   5.799
14029TIP3    H142028   3.357   2.575   5.872
14029TIP3    H242029   3.293   2.489   5.765
14030TIP3   OH242030   1.293   0.548   2.568
14030TIP3    H142031   1.355   0.620   2.574
14030TIP3    H242032   1.240   0.568   2.491
14031TIP3   OH242033   6.423   6.372   1.631
14031TIP3    H142034   6.330   6.384   1.610
14031TIP3    H242035   6.469   6.389   1.549
14032TIP3   OH242036  -0.015   5.113   6.263
14032TIP3    H142037  -0.043   5.103   6.172
14032TIP3    H242038   0.079   5.097   6.261
14033TIP3   OH242039   3.172   1.340   4.237
14033TIP3    H142040   3.219   1.257   4.231
14033TIP3    H242041   3.128   1.337   4.322
14034TIP3   OH242042   1.801   6.233   6.036
14034TIP3    H142043   1.761   6.245   6.122
14034TIP3    H242044   1.736   6.184   5.986
14035TIP3   OH242045   4.562   4.986   2.467
14035TIP3    H142046   4.645   5.015   2.430
14035TIP3    H242047   4.496   5.021   2.407
14036TIP3   OH242048   7.699   6.751   2.132
14036TIP3    H142049   7.779   6.732   2.181
14036TIP3    H242050   7.635   6.775   2.199
14037TIP3   OH242051   6.453   5.874   5.193
14037TIP3    H142052   6.442   5.914   5.280
14037TIP3    H242053   6.536   5.911   5.161
14038TIP3   OH242054   8.284   1.597   0.939
14038TIP3    H142055   8.284   1.673   0.880
14038TIP3    H242056   8.285   1.521   0.881
14039TIP3   OH242057   5.122   3.967   0.846
14039TIP3    H142058   5.091   3.914   0.772
14039TIP3    H242059   5.194   3.917   0.883
14040TIP3   OH242060   5.367   2.430   3.199
14040TIP3    H142061   5.301   2.362   3.191
14040TIP3    H242062   5.433   2.393   3.259
14041TIP3   OH242063   5.307   5.369   2.927
14041TIP3    H142064   5.289   5.309   2.854
14041TIP3    H242065   5.220   5.398   2.956
14042TIP3   OH242066   1.972   6.888   4.565
14042TIP3    H142067   2.045   6.939   4.531
14042TIP3    H242068   1.965   6.915   4.657
14043TIP3   OH242069   7.564   5.240   2.100
14043TIP3    H142070   7.572   5.167   2.161
14043TIP3    H242071   7.479   5.279   2.119
14044TIP3   OH242072   0.411   3.626   5.693
14044TIP3    H142073   0.321   3.647   5.672
14044TIP3    H242074   0.418   3.641   5.788
14045TIP3   OH242075   4.046   6.446   4.450
14045TIP3    H142076   4.141   6.440   4.435
14045TIP3    H242077   4.032   6.533   4.487
14046TIP3   OH242078   0.800   3.556   1.364
14046TIP3    H142079   0.746   3.488   1.404
14046TIP3    H242080   0.755   3.578   1.282
14047TIP3   OH242081   3.396   7.921   6.089
14047TIP3    H142082   3.395   7.888   5.999
14047TIP3    H242083   3.313   7.892   6.126
14048TIP3   OH242084   3.159   6.108   1.702
14048TIP3    H142085   3.073   6.124   1.664
14048TIP3    H242086   3.205   6.053   1.638
14049TIP3   OH242087   5.109   0.945   3.196
14049TIP3    H142088   5.153   1.028   3.179
14049TIP3    H242089   5.045   0.966   3.265
14050TIP3   OH242090   0.558   0.838   5.673
14050TIP3    H142091   0.481   0.780   5.679
14050TIP3    H242092   0.555   0.873   5.585
14051TIP3   OH242093   7.095   6.346   2.378
14051TIP3    H142094   7.016   6.292   2.374
14051TIP3    H242095   7.146   6.308   2.449
14052TIP3   OH242096   7.411   3.254   5.187
14052TIP3    H142097   7.395   3.302   5.105
14052TIP3    H242098   7.422   3.163   5.159
14053TIP3   OH242099   7.416   6.484   1.728
14053TIP3    H142100   7.346   6.464   1.791
14053TIP3    H242101   7.487   6.424   1.753
14054TIP3   OH242102   0.201   5.932   2.824
14054TIP3    H142103   0.123   5.895   2.783
14054TIP3    H242104   0.254   5.855   2.847
14055TIP3   OH242105   5.421   4.454   0.842
14055TIP3    H142106   5.340   4.476   0.796
14055TIP3    H242107   5.485   4.517   0.808
14056TIP3   OH242108   0.381   0.183   3.656
14056TIP3    H142109   0.315   0.115   3.648
14056TIP3    H242110   0.345   0.245   3.719
14057TIP3   OH242111   2.970   1.335   4.878
14057TIP3    H142112   2.906   1.287   4.930
14057TIP3    H242113   2.919   1.401   4.832
14058TIP3   OH242114   6.080   5.890   3.822
14058TIP3    H142115   6.084   5.891   3.918
14058TIP3    H242116   6.028   5.813   3.801
14059TIP3   OH242117   6.493   0.933   4.707
14059TIP3    H142118   6.479   0.906   4.617
14059TIP3    H242119   6.559   1.003   4.701
14060TIP3   OH242120   0.290   1.220   5.930
14060TIP3    H142121   0.344   1.178   5.996
14060TIP3    H242122   0.296   1.163   5.854
14061TIP3   OH242123   7.735   3.390   4.638
14061TIP3    H142124   7.734   3.384   4.734
14061TIP3    H242125   7.652   3.433   4.617
14062TIP3   OH242126   6.004   7.270   1.750
14062TIP3    H142127   6.024   7.230   1.666
14062TIP3    H242128   6.002   7.364   1.733
14063TIP3   OH242129   2.663   7.649   1.624
14063TIP3    H142130   2.645   7.658   1.530
14063TIP3    H242131   2.701   7.733   1.649
14064TIP3   OH242132   6.279   6.036   4.603
14064TIP3    H142133   6.242   6.120   4.578
14064TIP3    H242134   6.370   6.055   4.623
14065TIP3   OH242135   7.414   0.566   0.260
14065TIP3    H142136   7.490   0.579   0.318
14065TIP3    H242137   7.414   0.644   0.204
14066TIP3   OH242138   2.137   2.944   3.915
14066TIP3    H142139   2.103   2.998   3.986
14066TIP3    H242140   2.059   2.909   3.872
14067TIP3   OH242141   7.009   1.032   4.194
14067TIP3    H142142   7.102   1.033   4.217
14067TIP3    H242143   6.996   1.113   4.144
14068TIP3   OH242144   5.579   4.671   2.135
14068TIP3    H142145   5.546   4.680   2.045
14068TIP3    H242146   5.541   4.588   2.166
14069TIP3   OH242147   3.727   5.699   2.502
14069TIP3    H142148   3.741   5.794   2.499
14069TIP3    H242149   3.657   5.684   2.438
14070TIP3   OH242150   5.195   2.773   5.784
14070TIP3    H142151   5.138   2.779   5.861
14070TIP3    H242152   5.264   2.713   5.810
14071TIP3   OH242153   4.485   5.130   0.706
14071TIP3    H142154   4.449   5.211   0.670
14071TIP3    H242155   4.409   5.072   0.712
14072TIP3   OH242156   4.392   2.648   1.511
14072TIP3    H142157   4.394   2.580   1.578
14072TIP3    H242158   4.484   2.665   1.492
14073TIP3   OH242159   7.320   0.287   5.296
14073TIP3    H142160   7.276   0.205   5.275
14073TIP3    H242161   7.380   0.302   5.223
14074TIP3   OH242162   5.007   7.080   4.866
14074TIP3    H142163   4.964   7.007   4.821
14074TIP3    H242164   4.939   7.117   4.922
14075TIP3   OH242165   6.790   2.092   5.172
14075TIP3    H142166   6.729   2.152   5.127
14075TIP3    H242167   6.756   2.086   5.261
14076TIP3   OH242168   1.412   7.787   0.236
14076TIP3    H142169   1.445   7.863   0.189
14076TIP3    H242170   1.490   7.735   0.255
14077TIP3   OH242171   2.780   0.742   2.902
14077TIP3    H142172   2.818   0.688   2.832
14077TIP3    H242173   2.741   0.817   2.856
14078TIP3   OH242174   7.096   3.629   0.954
14078TIP3    H142175   7.066   3.585   0.874
14078TIP3    H242176   7.176   3.582   0.979
14079TIP3   OH242177   3.975   4.789   0.212
14079TIP3    H142178   4.054   4.744   0.243
14079TIP3    H242179   3.905   4.756   0.268
14080TIP3   OH242180   7.098   5.730   5.343
14080TIP3    H142181   7.193   5.736   5.333
14080TIP3    H242182   7.070   5.821   5.353
14081TIP3   OH242183   2.290   7.543   4.612
14081TIP3    H142184   2.325   7.497   4.688
14081TIP3    H242185   2.201   7.567   4.637
14082TIP3   OH242186   2.236   1.462   5.909
14082TIP3    H142187   2.149   1.465   5.869
14082TIP3    H242188   2.234   1.531   5.976
14083TIP3   OH242189   1.379   5.149   4.500
14083TIP3    H142190   1.365   5.172   4.408
14083TIP3    H242191   1.420   5.063   4.497
14084TIP3   OH242192   0.554   4.703   5.676
14084TIP3    H142193   0.640   4.695   5.635
14084TIP3    H242194   0.504   4.628   5.643
14085TIP3   OH242195   0.754   4.470   3.442
14085TIP3    H142196   0.802   4.441   3.520
14085TIP3    H242197   0.757   4.565   3.446
14086TIP3   OH242198   6.630   0.524   0.782
14086TIP3    H142199   6.646   0.431   0.796
14086TIP3    H242200   6.599   0.557   0.866
14087TIP3   OH242201   3.906   1.074   5.344
14087TIP3    H142202   3.951   1.040   5.422
14087TIP3    H242203   3.963   1.146   5.314
14088TIP3   OH242204   4.312   0.136   5.182
14088TIP3    H142205   4.401   0.102   5.197
14088TIP3    H242206   4.257   0.082   5.238
14089TIP3   OH242207   3.675   2.361   6.804
14089TIP3    H142208   3.590   2.381   6.766
14089TIP3    H242209   3.737   2.378   6.733
14090TIP3   OH242210   6.639   1.211   4.027
14090TIP3    H142211   6.670   1.121   4.023
14090TIP3    H242212   6.718   1.264   4.013
14091TIP3   OH242213   2.848   5.681   0.157
14091TIP3    H142214   2.886   5.665   0.243
14091TIP3    H242215   2.914   5.650   0.095
14092TIP3   OH242216   0.942   0.098   0.573
14092TIP3    H142217   0.930   0.043   0.650
14092TIP3    H242218   0.939   0.038   0.499
14093TIP3   OH242219   7.659   4.301   0.289
14093TIP3    H142220   7.577   4.266   0.323
14093TIP3    H242221   7.642   4.395   0.280
14094TIP3   OH242222   6.524   1.332   5.874
14094TIP3    H142223   6.450   1.343   5.934
14094TIP3    H242224   6.599   1.367   5.922
14095TIP3   OH242225   7.180   6.875   2.874
14095TIP3    H142226   7.145   6.804   2.820
14095TIP3    H242227   7.132   6.868   2.956
14096TIP3   OH242228   2.627   4.394   6.162
14096TIP3    H142229   2.708   4.422   6.117
14096TIP3    H242230   2.588   4.476   6.193
14097TIP3   OH242231   7.503   6.852   1.065
14097TIP3    H142232   7.526   6.929   1.116
14097TIP3    H242233   7.447   6.800   1.123
14098TIP3   OH242234   6.146   6.713   2.808
14098TIP3    H142235   6.208   6.720   2.735
14098TIP3    H242236   6.117   6.804   2.823
14099TIP3   OH242237   6.910   1.532   5.009
14099TIP3    H142238   6.896   1.491   5.094
14099TIP3    H242239   6.969   1.605   5.026
14100TIP3   OH242240   0.622   3.033   6.399
14100TIP3    H142241   0.553   2.968   6.412
14100TIP3    H242242   0.703   2.982   6.398
14101TIP3   OH242243   1.363   7.652   2.069
14101TIP3    H142244   1.430   7.595   2.107
14101TIP3    H242245   1.307   7.594   2.017
14102TIP3   OH242246   1.725   2.423   0.355
14102TIP3    H142247   1.797   2.486   0.365
14102TIP3    H242248   1.709   2.421   0.261
14103TIP3   OH242249   1.260   5.546   3.016
14103TIP3    H142250   1.301   5.632   3.009
14103TIP3    H242251   1.279   5.502   2.933
14104TIP3   OH242252   5.710   6.703   3.933
14104TIP3    H142253   5.670   6.674   4.015
14104TIP3    H242254   5.804   6.707   3.952
14105TIP3   OH242255   3.704   1.279   2.469
14105TIP3    H142256   3.717   1.233   2.386
14105TIP3    H242257   3.638   1.228   2.515
14106TIP3   OH242258   2.958   6.373   5.965
14106TIP3    H142259   2.985   6.307   6.029
14106TIP3    H242260   2.863   6.376   5.974
14107TIP3   OH242261   4.999   3.621   0.843
14107TIP3    H142262   5.015   3.687   0.776
14107TIP3    H242263   4.906   3.600   0.834
14108TIP3   OH242264   2.416   6.112   3.980
14108TIP3    H142265   2.510   6.118   3.967
14108TIP3    H242266   2.379   6.110   3.891
14109TIP3   OH242267   1.263   7.097   5.630
14109TIP3    H142268   1.326   7.085   5.559
14109TIP3    H242269   1.206   7.020   5.624
14110TIP3   OH242270   7.196   7.774   4.635
14110TIP3    H142271   7.146   7.758   4.555
14110TIP3    H242272   7.213   7.687   4.671
14111TIP3   OH242273   7.830   2.476   5.056
14111TIP3    H142274   7.822   2.487   4.961
14111TIP3    H242275   7.919   2.504   5.075
14112TIP3   OH242276   7.097   1.196   2.683
14112TIP3    H142277   7.149   1.192   2.603
14112TIP3    H242278   7.071   1.288   2.691
14113TIP3   OH242279   7.625   2.571   4.469
14113TIP3    H142280   7.708   2.534   4.501
14113TIP3    H242281   7.561   2.548   4.537
14114TIP3   OH242282   3.579   4.488   0.744
14114TIP3    H142283   3.519   4.483   0.818
14114TIP3    H242284   3.590   4.398   0.715
14115TIP3   OH242285   7.175   1.383   5.155
14115TIP3    H142286   7.189   1.433   5.074
14115TIP3    H242287   7.103   1.323   5.134
14116TIP3   OH242288   4.045   0.395   6.204
14116TIP3    H142289   4.138   0.402   6.224
14116TIP3    H242290   4.006   0.474   6.240
14117TIP3   OH242291   5.275   4.966   5.753
14117TIP3    H142292   5.309   5.007   5.674
14117TIP3    H242293   5.351   4.922   5.791
14118TIP3   OH242294   4.239   2.016   3.670
14118TIP3    H142295   4.298   1.945   3.698
14118TIP3    H242296   4.221   1.995   3.578
14119TIP3   OH242297   2.549   5.015   3.921
14119TIP3    H142298   2.642   4.992   3.923
14119TIP3    H242299   2.506   4.944   3.968
14120TIP3   OH242300   5.420   0.916   0.880
14120TIP3    H142301   5.340   0.865   0.893
14120TIP3    H242302   5.453   0.931   0.969
14121TIP3   OH242303   1.817   5.738   2.609
14121TIP3    H142304   1.879   5.795   2.563
14121TIP3    H242305   1.858   5.722   2.695
14122TIP3   OH242306   0.061   0.654   1.750
14122TIP3    H142307  -0.033   0.672   1.746
14122TIP3    H242308   0.099   0.713   1.685
14123TIP3   OH242309   6.354   4.481   0.710
14123TIP3    H142310   6.269   4.465   0.668
14123TIP3    H242311   6.332   4.497   0.802
14124TIP3   OH242312   6.201   2.539   2.562
14124TIP3    H142313   6.158   2.577   2.639
14124TIP3    H242314   6.179   2.446   2.565
14125TIP3   OH242315   1.830   3.004   2.121
14125TIP3    H142316   1.886   2.956   2.182
14125TIP3    H242317   1.884   3.077   2.091
14126TIP3   OH242318   1.240   1.475   1.665
14126TIP3    H142319   1.164   1.534   1.659
14126TIP3    H242320   1.310   1.530   1.702
14127TIP3   OH242321   6.218   3.080   0.966
14127TIP3    H142322   6.302   3.079   0.921
14127TIP3    H242323   6.189   2.989   0.964
14128TIP3   OH242324   3.497   4.844   2.172
14128TIP3    H142325   3.560   4.844   2.244
14128TIP3    H242326   3.417   4.810   2.211
14129TIP3   OH242327   6.036   6.353   0.836
14129TIP3    H142328   6.112   6.401   0.871
14129TIP3    H242329   6.074   6.289   0.777
14130TIP3   OH242330   1.956   1.573   5.217
14130TIP3    H142331   2.024   1.519   5.177
14130TIP3    H242332   1.996   1.607   5.297
14131TIP3   OH242333   0.116   5.037   3.358
14131TIP3    H142334   0.139   5.007   3.270
14131TIP3    H242335   0.034   4.992   3.378
14132TIP3   OH242336   2.727   3.267   4.738
14132TIP3    H142337   2.773   3.338   4.783
14132TIP3    H242338   2.692   3.213   4.809
14133TIP3   OH242339   2.870   7.638   0.042
14133TIP3    H142340   2.792   7.634  -0.014
14133TIP3    H242341   2.937   7.677  -0.014
14134TIP3   OH242342   2.814   0.364   3.505
14134TIP3    H142343   2.835   0.272   3.491
14134TIP3    H242344   2.757   0.364   3.583
14135TIP3   OH242345   7.673   4.263   5.875
14135TIP3    H142346   7.662   4.337   5.816
14135TIP3    H242347   7.593   4.212   5.865
14136TIP3   OH242348   1.115   1.982   0.250
14136TIP3    H142349   1.089   2.060   0.201
14136TIP3    H242350   1.099   1.909   0.191
14137TIP3   OH242351   0.750   1.793   1.497
14137TIP3    H142352   0.751   1.859   1.567
14137TIP3    H242353   0.659   1.765   1.490
14138TIP3   OH242354   3.654   2.704   1.232
14138TIP3    H142355   3.716   2.668   1.296
14138TIP3    H242356   3.579   2.645   1.236
14139TIP3   OH242357   6.603   3.741   2.345
14139TIP3    H142358   6.513   3.769   2.330
14139TIP3    H242359   6.648   3.819   2.375
14140TIP3   OH242360   1.671   3.859   2.718
14140TIP3    H142361   1.601   3.870   2.655
14140TIP3    H242362   1.627   3.846   2.802
14141TIP3   OH242363   6.512   1.484   2.199
14141TIP3    H142364   6.449   1.487   2.272
14141TIP3    H242365   6.468   1.432   2.132
14142TIP3   OH242366   6.921   0.463   3.429
14142TIP3    H142367   6.980   0.528   3.392
14142TIP3    H242368   6.873   0.429   3.353
14143TIP3   OH242369   0.901   5.580   2.660
14143TIP3    H142370   0.855   5.605   2.580
14143TIP3    H242371   0.989   5.616   2.650
14144TIP3   OH242372   7.855   6.397   4.758
14144TIP3    H142373   7.898   6.482   4.753
14144TIP3    H242374   7.778   6.406   4.703
14145TIP3   OH242375   3.127   0.965   6.071
14145TIP3    H142376   3.149   1.015   6.149
14145TIP3    H242377   3.187   0.998   6.004
14146TIP3   OH242378   2.143   0.256   2.046
14146TIP3    H142379   2.076   0.266   2.114
14146TIP3    H242380   2.147   0.342   2.004
14147TIP3   OH242381   4.669   5.774   4.975
14147TIP3    H142382   4.728   5.700   4.989
14147TIP3    H242383   4.723   5.851   4.993
14148TIP3   OH242384   7.017   7.901   4.399
14148TIP3    H142385   6.973   7.846   4.334
14148TIP3    H242386   7.109   7.901   4.372
14149TIP3   OH242387   4.085   1.108   3.266
14149TIP3    H142388   4.112   1.017   3.283
14149TIP3    H242389   4.164   1.160   3.281
14150TIP3   OH242390   5.390   2.117   4.674
14150TIP3    H142391   5.439   2.193   4.641
14150TIP3    H242392   5.306   2.153   4.701
14151TIP3   OH242393   5.467   7.942   4.127
14151TIP3    H142394   5.494   7.850   4.119
14151TIP3    H242395   5.375   7.938   4.152
14152TIP3   OH242396   3.789   7.932   3.218
14152TIP3    H142397   3.859   7.962   3.276
14152TIP3    H242398   3.834   7.880   3.152
14153TIP3   OH242399   4.638   4.692   5.911
14153TIP3    H142400   4.638   4.780   5.947
14153TIP3    H242401   4.564   4.649   5.954
14154TIP3   OH242402   2.927   4.695   3.453
14154TIP3    H142403   3.017   4.708   3.423
14154TIP3    H242404   2.921   4.749   3.532
14155TIP3   OH242405   3.850   3.658   3.420
14155TIP3    H142406   3.857   3.659   3.324
14155TIP3    H242407   3.817   3.571   3.441
14156TIP3   OH242408   3.430   4.871   5.679
14156TIP3    H142409   3.433   4.850   5.772
14156TIP3    H242410   3.372   4.948   5.674
14157TIP3   OH242411   7.739   0.578   5.357
14157TIP3    H142412   7.831   0.594   5.333
14157TIP3    H242413   7.723   0.635   5.432
14158TIP3   OH242414   4.686   2.236   0.795
14158TIP3    H142415   4.610   2.232   0.853
14158TIP3    H242416   4.710   2.328   0.792
14159TIP3   OH242417   1.209   0.689   3.476
14159TIP3    H142418   1.116   0.668   3.469
14159TIP3    H242419   1.233   0.662   3.564
14160TIP3   OH242420   3.430   6.566   4.301
14160TIP3    H142421   3.353   6.616   4.328
14160TIP3    H242422   3.500   6.596   4.359
14161TIP3   OH242423   6.303   7.132   1.223
14161TIP3    H142424   6.290   7.096   1.135
14161TIP3    H242425   6.385   7.181   1.218
14162TIP3   OH242426   2.822   4.090   1.916
14162TIP3    H142427   2.766   4.160   1.883
14162TIP3    H242428   2.910   4.113   1.886
14163TIP3   OH242429   5.629   2.699   2.076
14163TIP3    H142430   5.583   2.772   2.118
14163TIP3    H242431   5.587   2.621   2.111
14164TIP3   OH242432   7.257   5.751   4.510
14164TIP3    H142433   7.298   5.675   4.467
14164TIP3    H242434   7.314   5.824   4.488
14165TIP3   OH242435   0.817   4.851   5.286
14165TIP3    H142436   0.822   4.907   5.209
14165TIP3    H242437   0.789   4.909   5.357
14166TIP3   OH242438   2.070   4.555   1.411
14166TIP3    H142439   2.142   4.492   1.417
14166TIP3    H242440   2.085   4.615   1.483
14167TIP3   OH242441   7.841   3.940   1.579
14167TIP3    H142442   7.802   3.987   1.653
14167TIP3    H242443   7.806   3.851   1.587
14168TIP3   OH242444   3.117   4.438   3.561
14168TIP3    H142445   3.144   4.484   3.641
14168TIP3    H242446   3.024   4.421   3.573
14169TIP3   OH242447   1.566   5.579   1.826
14169TIP3    H142448   1.615   5.655   1.792
14169TIP3    H242449   1.477   5.613   1.840
14170TIP3   OH242450   0.844   4.231   1.653
14170TIP3    H142451   0.893   4.313   1.664
14170TIP3    H242452   0.757   4.258   1.623
14171TIP3   OH242453   4.557   1.505   6.638
14171TIP3    H142454   4.568   1.595   6.669
14171TIP3    H242455   4.638   1.485   6.591
14172TIP3   OH242456   7.661   0.216   5.963
14172TIP3    H142457   7.685   0.262   6.043
14172TIP3    H242458   7.585   0.163   5.988
14173TIP3   OH242459   3.782   4.776   0.440
14173TIP3    H142460   3.763   4.686   0.413
14173TIP3    H242461   3.787   4.772   0.535
14174TIP3   OH242462   7.604   6.911   6.211
14174TIP3    H142463   7.642   6.834   6.253
14174TIP3    H242464   7.571   6.964   6.283
14175TIP3   OH242465   5.726   6.856   2.082
14175TIP3    H142466   5.817   6.883   2.073
14175TIP3    H242467   5.694   6.849   1.993
14176TIP3   OH242468   0.553   1.506   4.737
14176TIP3    H142469   0.556   1.590   4.782
14176TIP3    H242470   0.482   1.514   4.674
14177TIP3   OH242471   3.587   6.386   6.809
14177TIP3    H142472   3.539   6.469   6.812
14177TIP3    H242473   3.623   6.383   6.721
14178TIP3   OH242474   1.439   3.798   0.518
14178TIP3    H142475   1.520   3.782   0.470
14178TIP3    H242476   1.469   3.830   0.604
14179TIP3   OH242477   4.936   5.227   4.935
14179TIP3    H142478   4.999   5.166   4.896
14179TIP3    H242479   4.985   5.309   4.944
14180TIP3   OH242480   4.727   5.632   1.413
14180TIP3    H142481   4.655   5.589   1.366
14180TIP3    H242482   4.685   5.675   1.487
14181TIP3   OH242483   3.083   1.178   0.137
14181TIP3    H142484   3.124   1.233   0.069
14181TIP3    H242485   3.019   1.125   0.089
14182TIP3   OH242486   8.241   2.783   3.562
14182TIP3    H142487   8.270   2.701   3.522
14182TIP3    H242488   8.318   2.815   3.610
14183TIP3   OH242489   8.305   7.085   3.161
14183TIP3    H142490   8.304   7.179   3.179
14183TIP3    H242491   8.215   7.057   3.178
14184TIP3   OH242492   2.131   1.410   2.219
14184TIP3    H142493   2.163   1.362   2.296
14184TIP3    H242494   2.207   1.461   2.191
14185TIP3   OH242495   2.140   1.189   1.859
14185TIP3    H142496   2.159   1.202   1.766
14185TIP3    H242497   2.219   1.219   1.903
14186TIP3   OH242498   3.785   2.508   0.662
14186TIP3    H142499   3.769   2.463   0.745
14186TIP3    H242500   3.698   2.531   0.631
14187TIP3   OH242501   6.177   5.731   2.631
14187TIP3    H142502   6.229   5.730   2.550
14187TIP3    H242503   6.182   5.642   2.664
14188TIP3   OH242504   7.241   2.676   4.406
14188TIP3    H142505   7.301   2.707   4.338
14188TIP3    H242506   7.162   2.651   4.358
14189TIP3   OH242507   2.872   2.002   3.657
14189TIP3    H142508   2.814   2.078   3.647
14189TIP3    H242509   2.901   2.006   3.748
14190TIP3   OH242510   3.720   7.300   6.684
14190TIP3    H142511   3.734   7.207   6.665
14190TIP3    H242512   3.750   7.345   6.604
14191TIP3   OH242513   5.401   1.324   6.799
14191TIP3    H142514   5.473   1.348   6.857
14191TIP3    H242515   5.344   1.269   6.853
14192TIP3   OH242516   0.235   6.653   2.966
14192TIP3    H142517   0.192   6.696   3.039
14192TIP3    H242518   0.233   6.718   2.895
14193TIP3   OH242519   4.389   0.741   3.314
14193TIP3    H142520   4.395   0.688   3.235
14193TIP3    H242521   4.475   0.733   3.355
14194TIP3   OH242522   7.339   0.194   0.990
14194TIP3    H142523   7.372   0.108   1.017
14194TIP3    H242524   7.410   0.255   1.012
14195TIP3   OH242525   2.602   0.832   5.256
14195TIP3    H142526   2.666   0.863   5.193
14195TIP3    H242527   2.635   0.747   5.285
14196TIP3   OH242528   0.117   7.598   3.285
14196TIP3    H142529   0.182   7.652   3.331
14196TIP3    H242530   0.069   7.660   3.231
14197TIP3   OH242531   1.880   7.368   5.353
14197TIP3    H142532   1.869   7.351   5.446
14197TIP3    H242533   1.957   7.424   5.348
14198TIP3   OH242534   7.618   1.671   4.793
14198TIP3    H142535   7.636   1.665   4.700
14198TIP3    H242536   7.645   1.587   4.829
14199TIP3   OH242537   0.337   7.162   2.753
14199TIP3    H142538   0.382   7.201   2.828
14199TIP3    H242539   0.400   7.169   2.682
14200TIP3   OH242540   0.078   5.249   5.416
14200TIP3    H142541   0.104   5.340   5.432
14200TIP3    H242542   0.109   5.201   5.493
14201TIP3   OH242543   1.425   0.607   1.650
14201TIP3    H142544   1.381   0.691   1.640
14201TIP3    H242545   1.398   0.575   1.736
14202TIP3   OH242546   5.386   3.699   0.393
14202TIP3    H142547   5.357   3.779   0.349
14202TIP3    H242548   5.471   3.723   0.431
14203TIP3   OH242549   7.658   5.351   5.405
14203TIP3    H142550   7.666   5.336   5.311
14203TIP3    H242551   7.673   5.445   5.415
14204TIP3   OH242552   2.047   0.130   0.705
14204TIP3    H142553   2.101   0.177   0.641
14204TIP3    H242554   2.109   0.083   0.760
14205TIP3   OH242555   1.336   1.521   2.523
14205TIP3    H142556   1.304   1.601   2.481
14205TIP3    H242557   1.258   1.467   2.533
14206TIP3   OH242558   0.331   0.717   3.436
14206TIP3    H142559   0.315   0.631   3.399
14206TIP3    H242560   0.425   0.720   3.451
14207TIP3   OH242561   4.187   5.502   3.195
14207TIP3    H142562   4.240   5.579   3.216
14207TIP3    H242563   4.130   5.491   3.271
14208TIP3   OH242564   2.795   3.052   1.625
14208TIP3    H142565   2.845   3.008   1.556
14208TIP3    H242566   2.705   3.024   1.610
14209TIP3   OH242567   3.441   0.672   2.661
14209TIP3    H142568   3.428   0.721   2.742
14209TIP3    H242569   3.536   0.666   2.651
14210TIP3   OH242570   4.178   4.739   2.438
14210TIP3    H142571   4.213   4.819   2.477
14210TIP3    H242572   4.102   4.767   2.388
14211TIP3   OH242573   8.180   4.798   2.962
14211TIP3    H142574   8.137   4.823   2.881
14211TIP3    H242575   8.201   4.705   2.951
14212TIP3   OH242576   0.674   7.943   2.508
14212TIP3    H142577   0.588   7.956   2.547
14212TIP3    H242578   0.678   7.850   2.487
14213TIP3   OH242579   4.903   0.265   4.664
14213TIP3    H142580   4.957   0.344   4.672
14213TIP3    H242581   4.917   0.218   4.746
14214TIP3   OH242582   0.830   1.548   0.936
14214TIP3    H142583   0.754   1.572   0.884
14214TIP3    H242584   0.886   1.499   0.875
14215TIP3   OH242585   1.177   0.595   4.778
14215TIP3    H142586   1.133   0.680   4.774
14215TIP3    H242587   1.130   0.541   4.714
14216TIP3   OH242588   4.695   5.222   1.477
14216TIP3    H142589   4.753   5.281   1.430
14216TIP3    H242590   4.653   5.169   1.409
14217TIP3   OH242591   7.615   0.012   2.500
14217TIP3    H142592   7.654   0.033   2.585
14217TIP3    H242593   7.522  -0.002   2.519
14218TIP3   OH242594   5.048   2.090   3.608
14218TIP3    H142595   4.983   2.068   3.542
14218TIP3    H242596   5.012   2.165   3.654
14219TIP3   OH242597   0.847   0.265   2.146
14219TIP3    H142598   0.891   0.191   2.105
14219TIP3    H242599   0.783   0.225   2.205
14220TIP3   OH242600   4.221   0.555   5.959
14220TIP3    H142601   4.133   0.539   5.991
14220TIP3    H242602   4.222   0.518   5.870
14221TIP3   OH242603   2.623   7.503   6.157
14221TIP3    H142604   2.668   7.544   6.083
14221TIP3    H242605   2.685   7.511   6.229
14222TIP3   OH242606   5.302   0.483   0.846
14222TIP3    H142607   5.283   0.435   0.927
14222TIP3    H242608   5.246   0.441   0.780
14223TIP3   OH242609   6.727   7.442   1.410
14223TIP3    H142610   6.747   7.425   1.318
14223TIP3    H242611   6.718   7.537   1.415
14224TIP3   OH242612   3.868   1.812   6.528
14224TIP3    H142613   3.812   1.828   6.605
14224TIP3    H242614   3.887   1.719   6.532
14225TIP3   OH242615   1.458   3.891   4.281
14225TIP3    H142616   1.420   3.946   4.212
14225TIP3    H242617   1.461   3.948   4.358
14226TIP3   OH242618   2.301   7.878   0.008
14226TIP3    H142619   2.319   7.803   0.064
14226TIP3    H242620   2.207   7.874  -0.009
14227TIP3   OH242621   8.141   4.418   2.979
14227TIP3    H142622   8.057   4.462   2.969
14227TIP3    H242623   8.135   4.373   3.063
14228TIP3   OH242624   7.077   3.650   3.859
14228TIP3    H142625   7.030   3.733   3.846
14228TIP3    H242626   7.137   3.668   3.932
14229TIP3   OH242627   6.151   0.270   4.708
14229TIP3    H142628   6.163   0.359   4.742
14229TIP3    H242629   6.082   0.280   4.642
14230TIP3   OH242630   7.579   6.569   0.147
14230TIP3    H142631   7.558   6.482   0.113
14230TIP3    H242632   7.643   6.604   0.085
14231TIP3   OH242633   0.979   1.567   0.533
14231TIP3    H142634   0.925   1.647   0.536
14231TIP3    H242635   1.054   1.587   0.589
14232TIP3   OH242636   5.529   6.964   1.598
14232TIP3    H142637   5.513   7.057   1.615
14232TIP3    H242638   5.617   6.961   1.560
14233TIP3   OH242639   2.552   3.472   4.114
14233TIP3    H142640   2.526   3.402   4.173
14233TIP3    H242641   2.568   3.428   4.030
14234TIP3   OH242642   0.312   1.803   5.480
14234TIP3    H142643   0.313   1.747   5.557
14234TIP3    H242644   0.226   1.846   5.483
14235TIP3   OH242645   0.369   1.352   6.287
14235TIP3    H142646   0.431   1.422   6.303
14235TIP3    H242647   0.407   1.275   6.330
14236TIP3   OH242648   2.167   6.853   3.693
14236TIP3    H142649   2.235   6.854   3.760
14236TIP3    H242650   2.167   6.941   3.656
14237TIP3   OH242651   4.769   4.425   1.801
14237TIP3    H142652   4.796   4.336   1.820
14237TIP3    H242653   4.685   4.436   1.847
14238TIP3   OH242654   7.394   0.982   3.887
14238TIP3    H142655   7.311   0.995   3.841
14238TIP3    H242656   7.461   0.994   3.820
14239TIP3   OH242657   4.274   0.440   4.325
14239TIP3    H142658   4.353   0.447   4.271
14239TIP3    H242659   4.303   0.395   4.404
14240TIP3   OH242660   2.492   7.802   2.059
14240TIP3    H142661   2.551   7.763   2.123
14240TIP3    H242662   2.533   7.885   2.035
14241TIP3   OH242663   6.443   2.745   4.528
14241TIP3    H142664   6.366   2.766   4.474
14241TIP3    H242665   6.428   2.792   4.610
14242TIP3   OH242666   5.741   5.695   6.035
14242TIP3    H142667   5.676   5.629   6.060
14242TIP3    H242668   5.810   5.645   5.992
14243TIP3   OH242669   4.472   0.110   3.723
14243TIP3    H142670   4.462   0.199   3.755
14243TIP3    H242671   4.416   0.057   3.781
14244TIP3   OH242672   4.593   7.648   2.007
14244TIP3    H142673   4.646   7.640   1.927
14244TIP3    H242674   4.523   7.583   1.995
14245TIP3   OH242675   2.693   3.893   2.817
14245TIP3    H142676   2.697   3.859   2.727
14245TIP3    H242677   2.779   3.875   2.853
14246TIP3   OH242678   7.943   3.382   6.293
14246TIP3    H142679   8.006   3.431   6.241
14246TIP3    H242680   7.901   3.323   6.230
14247TIP3   OH242681   6.756   2.157   3.365
14247TIP3    H142682   6.661   2.169   3.359
14247TIP3    H242683   6.778   2.195   3.450
14248TIP3   OH242684   4.956   1.751   0.897
14248TIP3    H142685   4.896   1.694   0.945
14248TIP3    H242686   4.904   1.830   0.879
14249TIP3   OH242687   1.359   5.356   5.197
14249TIP3    H142688   1.360   5.393   5.286
14249TIP3    H242689   1.441   5.307   5.191
14250TIP3   OH242690   1.530   6.314   3.188
14250TIP3    H142691   1.442   6.277   3.197
14250TIP3    H242692   1.544   6.362   3.270
14251TIP3   OH242693   3.793   0.341   0.842
14251TIP3    H142694   3.707   0.300   0.849
14251TIP3    H242695   3.782   0.409   0.775
14252TIP3   OH242696   2.959   6.868   2.673
14252TIP3    H142697   2.967   6.954   2.713
14252TIP3    H242698   2.866   6.845   2.682
14253TIP3   OH242699   1.130   7.049   4.650
14253TIP3    H142700   1.160   6.973   4.700
14253TIP3    H242701   1.208   7.081   4.605
14254TIP3   OH242702   2.150   4.040   2.670
14254TIP3    H142703   2.099   3.993   2.604
14254TIP3    H242704   2.233   4.059   2.627
14255TIP3   OH242705   3.072   0.790   5.222
14255TIP3    H142706   3.148   0.734   5.205
14255TIP3    H242707   3.077   0.810   5.315
14256TIP3   OH242708   0.936   0.939   3.747
14256TIP3    H142709   0.870   0.883   3.787
14256TIP3    H242710   0.936   0.915   3.654
14257TIP3   OH242711   2.211   2.232   6.107
14257TIP3    H142712   2.275   2.183   6.158
14257TIP3    H242713   2.126   2.203   6.139
14258TIP3   OH242714   4.149   7.546   4.419
14258TIP3    H142715   4.234   7.571   4.457
14258TIP3    H242716   4.091   7.619   4.440
14259TIP3   OH242717   5.775   6.791   5.754
14259TIP3    H142718   5.712   6.721   5.769
14259TIP3    H242719   5.857   6.757   5.790
14260TIP3   OH242720   3.201   5.713   4.089
14260TIP3    H142721   3.254   5.662   4.150
14260TIP3    H242722   3.187   5.654   4.014
14261TIP3   OH242723   6.173   1.628   1.062
14261TIP3    H142724   6.213   1.668   0.985
14261TIP3    H242725   6.150   1.539   1.034
14262TIP3   OH242726   5.602   7.817   3.901
14262TIP3    H142727   5.691   7.844   3.881
14262TIP3    H242728   5.612   7.731   3.943
14263TIP3   OH242729   6.490   3.203   1.115
14263TIP3    H142730   6.513   3.159   1.034
14263TIP3    H242731   6.553   3.275   1.122
14264TIP3   OH242732   6.393   7.195   2.853
14264TIP3    H142733   6.429   7.281   2.877
14264TIP3    H242734   6.349   7.210   2.770
14265TIP3   OH242735   5.019   6.156   2.028
14265TIP3    H142736   5.032   6.083   1.967
14265TIP3    H242737   5.103   6.202   2.029
14266TIP3   OH242738   1.467   1.644   5.201
14266TIP3    H142739   1.475   1.642   5.296
14266TIP3    H242740   1.409   1.718   5.183
14267TIP3   OH242741   3.015   0.258   0.584
14267TIP3    H142742   3.025   0.282   0.492
14267TIP3    H242743   2.976   0.170   0.582
14268TIP3   OH242744   6.551   2.122   5.649
14268TIP3    H142745   6.514   2.075   5.724
14268TIP3    H242746   6.509   2.082   5.572
14269TIP3   OH242747   7.650   0.317   3.233
14269TIP3    H142748   7.686   0.258   3.167
14269TIP3    H242749   7.685   0.285   3.316
14270TIP3   OH242750   4.521   3.301   3.435
14270TIP3    H142751   4.504   3.224   3.489
14270TIP3    H242752   4.450   3.300   3.370
14271TIP3   OH242753   8.282   7.299   5.831
14271TIP3    H142754   8.360   7.316   5.778
14271TIP3    H242755   8.210   7.336   5.780
14272TIP3   OH242756   4.893   5.389   1.388
14272TIP3    H142757   4.850   5.466   1.425
14272TIP3    H242758   4.878   5.397   1.294
14273TIP3   OH242759   7.788   7.131   5.837
14273TIP3    H142760   7.878   7.099   5.831
14273TIP3    H242761   7.765   7.122   5.929
14274TIP3   OH242762   3.815   3.758   4.558
14274TIP3    H142763   3.895   3.779   4.605
14274TIP3    H242764   3.839   3.762   4.465
14275TIP3   OH242765   3.152   5.543   2.500
14275TIP3    H142766   3.193   5.606   2.560
14275TIP3    H242767   3.179   5.457   2.533
14276TIP3   OH242768   2.732   7.460   2.145
14276TIP3    H142769   2.729   7.550   2.112
14276TIP3    H242770   2.674   7.461   2.221
14277TIP3   OH242771   6.093   0.894   6.062
14277TIP3    H142772   6.170   0.853   6.022
14277TIP3    H242773   6.044   0.822   6.101
14278TIP3   OH242774   1.124   5.029   0.134
14278TIP3    H142775   1.120   5.090   0.208
14278TIP3    H242776   1.071   4.954   0.162
14279TIP3   OH242777   1.529   2.945   0.733
14279TIP3    H142778   1.571   2.859   0.742
14279TIP3    H242779   1.435   2.926   0.737
14280TIP3   OH242780   1.953   6.738   3.157
14280TIP3    H142781   1.971   6.779   3.241
14280TIP3    H242782   1.944   6.645   3.177
14281TIP3   OH242783   0.305   3.996   3.612
14281TIP3    H142784   0.353   3.928   3.565
14281TIP3    H242785   0.213   3.972   3.603
14282TIP3   OH242786   7.503   3.069   3.147
14282TIP3    H142787   7.490   3.098   3.238
14282TIP3    H242788   7.578   3.010   3.151
14283TIP3   OH242789   5.704   4.284   6.762
14283TIP3    H142790   5.652   4.330   6.696
14283TIP3    H242791   5.745   4.212   6.714
14284TIP3   OH242792   5.335   7.142   1.878
14284TIP3    H142793   5.411   7.132   1.935
14284TIP3    H242794   5.371   7.161   1.792
14285TIP3   OH242795   5.424   5.369   0.110
14285TIP3    H142796   5.458   5.441   0.057
14285TIP3    H242797   5.405   5.409   0.195
14286TIP3   OH242798   4.022   0.393   4.240
14286TIP3    H142799   3.980   0.479   4.229
14286TIP3    H242800   4.104   0.413   4.285
14287TIP3   OH242801   4.289   2.428   1.306
14287TIP3    H142802   4.311   2.369   1.378
14287TIP3    H242803   4.253   2.371   1.238
14288TIP3   OH242804   0.821   1.565   2.619
14288TIP3    H142805   0.768   1.637   2.652
14288TIP3    H242806   0.891   1.607   2.569
14289TIP3   OH242807   3.069   6.019   4.540
14289TIP3    H142808   3.136   5.995   4.604
14289TIP3    H242809   3.069   5.946   4.478
14290TIP3   OH242810   4.807   0.688   4.169
14290TIP3    H142811   4.898   0.714   4.181
14290TIP3    H242812   4.808   0.630   4.092
14291TIP3   OH242813   6.342   5.580   5.205
14291TIP3    H142814   6.306   5.539   5.283
14291TIP3    H242815   6.431   5.605   5.230
14292TIP3   OH242816   1.308   5.862   2.677
14292TIP3    H142817   1.252   5.892   2.605
14292TIP3    H242818   1.248   5.831   2.744
14293TIP3   OH242819   6.353   0.611   1.919
14293TIP3    H142820   6.425   0.656   1.964
14293TIP3    H242821   6.313   0.678   1.863
14294TIP3   OH242822   4.355   6.659   6.303
14294TIP3    H142823   4.271   6.704   6.302
14294TIP3    H242824   4.406   6.702   6.234
14295TIP3   OH242825   5.347   7.852   3.293
14295TIP3    H142826   5.253   7.834   3.297
14295TIP3    H242827   5.385   7.772   3.256
14296TIP3   OH242828   7.322   4.142   6.641
14296TIP3    H142829   7.365   4.059   6.662
14296TIP3    H242830   7.230   4.118   6.629
14297TIP3   OH242831   1.148   0.826   4.261
14297TIP3    H142832   1.166   0.906   4.211
14297TIP3    H242833   1.203   0.759   4.221
14298TIP3   OH242834   7.789   6.990   0.368
14298TIP3    H142835   7.838   7.062   0.406
14298TIP3    H242836   7.700   7.000   0.402
14299TIP3   OH242837   1.401   2.503   6.262
14299TIP3    H142838   1.356   2.578   6.300
14299TIP3    H242839   1.493   2.515   6.288
14300TIP3   OH242840   1.175   0.414   5.010
14300TIP3    H142841   1.142   0.482   5.068
14300TIP3    H242842   1.190   0.459   4.927
14301TIP3   OH242843   1.855   2.648   2.840
14301TIP3    H142844   1.882   2.739   2.837
14301TIP3    H242845   1.864   2.623   2.932
14302TIP3   OH242846   1.440   3.025   6.777
14302TIP3    H142847   1.466   2.939   6.744
14302TIP3    H242848   1.387   3.006   6.854
14303TIP3   OH242849   4.305   4.194   4.537
14303TIP3    H142850   4.238   4.126   4.533
14303TIP3    H242851   4.362   4.176   4.462
14304TIP3   OH242852   4.941   3.797   6.102
14304TIP3    H142853   4.966   3.752   6.182
14304TIP3    H242854   4.874   3.860   6.129
14305TIP3   OH242855   0.449   6.644   1.004
14305TIP3    H142856   0.383   6.654   1.073
14305TIP3    H242857   0.533   6.660   1.048
14306TIP3   OH242858   5.729   7.690   2.179
14306TIP3    H142859   5.709   7.774   2.220
14306TIP3    H242860   5.825   7.688   2.174
14307TIP3   OH242861   4.736   2.958   3.860
14307TIP3    H142862   4.791   2.887   3.826
14307TIP3    H242863   4.798   3.021   3.895
14308TIP3   OH242864   1.372   6.919   1.923
14308TIP3    H142865   1.421   6.846   1.961
14308TIP3    H242866   1.370   6.985   1.993
14309TIP3   OH242867   6.974   1.226   5.079
14309TIP3    H142868   7.011   1.140   5.059
14309TIP3    H242869   6.910   1.209   5.148
14310TIP3   OH242870   7.955   0.777   5.441
14310TIP3    H142871   7.884   0.840   5.435
14310TIP3    H242872   8.028   0.817   5.394
14311TIP3   OH242873   2.903   0.930   4.822
14311TIP3    H142874   2.925   1.009   4.774
14311TIP3    H242875   2.839   0.885   4.767
14312TIP3   OH242876   0.396   6.651   0.743
14312TIP3    H142877   0.431   6.625   0.829
14312TIP3    H242878   0.463   6.710   0.707
14313TIP3   OH242879   2.197   1.225   4.081
14313TIP3    H142880   2.292   1.211   4.084
14313TIP3    H242881   2.162   1.140   4.053
14314TIP3   OH242882   4.767   6.049   6.490
14314TIP3    H142883   4.842   6.074   6.543
14314TIP3    H242884   4.691   6.070   6.545
14315TIP3   OH242885   2.663   2.563   5.309
14315TIP3    H142886   2.599   2.508   5.264
14315TIP3    H242887   2.702   2.506   5.375
14316TIP3   OH242888   3.331   6.253   3.498
14316TIP3    H142889   3.239   6.279   3.508
14316TIP3    H242890   3.380   6.335   3.506
14317TIP3   OH242891   5.882   3.676   1.405
14317TIP3    H142892   5.818   3.705   1.340
14317TIP3    H242893   5.955   3.641   1.354
14318TIP3   OH242894   8.227   2.630   4.417
14318TIP3    H142895   8.304   2.590   4.457
14318TIP3    H242896   8.261   2.675   4.339
14319TIP3   OH242897   3.025   5.512   2.265
14319TIP3    H142898   3.085   5.549   2.201
14319TIP3    H242899   3.077   5.506   2.346
14320TIP3   OH242900   2.072   6.584   5.836
14320TIP3    H142901   2.098   6.511   5.780
14320TIP3    H242902   1.983   6.563   5.864
14321TIP3   OH242903   5.989   5.983   4.604
14321TIP3    H142904   5.896   5.960   4.603
14321TIP3    H242905   6.003   6.028   4.521
14322TIP3   OH242906   2.674   5.116   0.518
14322TIP3    H142907   2.646   5.033   0.557
14322TIP3    H242908   2.634   5.117   0.431
14323TIP3   OH242909   8.194   1.519   0.031
14323TIP3    H142910   8.243   1.469  -0.034
14323TIP3    H242911   8.242   1.602   0.037
14324TIP3   OH242912   6.183   4.859   2.202
14324TIP3    H142913   6.211   4.768   2.214
14324TIP3    H242914   6.255   4.900   2.154
14325TIP3   OH242915   0.552   4.463   0.994
14325TIP3    H142916   0.502   4.537   0.958
14325TIP3    H242917   0.641   4.497   1.001
14326TIP3   OH242918   6.539   0.551   0.422
14326TIP3    H142919   6.592   0.479   0.388
14326TIP3    H242920   6.553   0.623   0.360
14327TIP3   OH242921   7.693   6.415   2.133
14327TIP3    H142922   7.784   6.387   2.125
14327TIP3    H242923   7.680   6.476   2.061
14328TIP3   OH242924   3.720   3.581   1.104
14328TIP3    H142925   3.632   3.565   1.068
14328TIP3    H242926   3.712   3.560   1.197
14329TIP3   OH242927   6.679   0.610   5.737
14329TIP3    H142928   6.708   0.662   5.812
14329TIP3    H242929   6.707   0.521   5.758
14330TIP3   OH242930   5.642   5.881   2.405
14330TIP3    H142931   5.610   5.959   2.450
14330TIP3    H242932   5.716   5.852   2.458
14331TIP3   OH242933   3.241   2.495   5.342
14331TIP3    H142934   3.332   2.524   5.336
14331TIP3    H242935   3.246   2.403   5.368
14332TIP3   OH242936   4.900   2.226   2.850
14332TIP3    H142937   4.935   2.295   2.794
14332TIP3    H242938   4.825   2.266   2.893
14333TIP3   OH242939   1.306   1.570   0.234
14333TIP3    H142940   1.352   1.535   0.158
14333TIP3    H242941   1.375   1.583   0.300
14334TIP3   OH242942   4.192   2.241   0.464
14334TIP3    H142943   4.234   2.251   0.378
14334TIP3    H242944   4.106   2.281   0.453
14335TIP3   OH242945   1.259   7.124   0.679
14335TIP3    H142946   1.274   7.141   0.771
14335TIP3    H242947   1.175   7.166   0.660
14336TIP3   OH242948   0.951   1.124   2.240
14336TIP3    H142949   0.856   1.135   2.242
14336TIP3    H242950   0.977   1.121   2.333
14337TIP3   OH242951   6.729   5.477   0.273
14337TIP3    H142952   6.667   5.463   0.201
14337TIP3    H242953   6.743   5.572   0.275
14338TIP3   OH242954   0.372   7.778   0.311
14338TIP3    H142955   0.405   7.729   0.235
14338TIP3    H242956   0.277   7.782   0.297
14339TIP3   OH242957   4.510   6.948   6.805
14339TIP3    H142958   4.474   6.925   6.719
14339TIP3    H242959   4.435   6.941   6.865
14340TIP3   OH242960   2.933   2.914   1.416
14340TIP3    H142961   2.909   2.832   1.370
14340TIP3    H242962   3.010   2.945   1.370
14341TIP3   OH242963   3.321   5.599   3.805
14341TIP3    H142964   3.252   5.535   3.819
14341TIP3    H242965   3.302   5.636   3.719
14342TIP3   OH242966   1.129   0.262   6.634
14342TIP3    H142967   1.216   0.222   6.624
14342TIP3    H242968   1.107   0.248   6.726
14343TIP3   OH242969   2.747   3.862   6.386
14343TIP3    H142970   2.833   3.892   6.356
14343TIP3    H242971   2.762   3.832   6.476
14344TIP3   OH242972   3.970   6.426   6.439
14344TIP3    H142973   3.975   6.360   6.369
14344TIP3    H242974   3.992   6.378   6.519
14345TIP3   OH242975   5.626   0.156   2.549
14345TIP3    H142976   5.701   0.155   2.608
14345TIP3    H242977   5.566   0.219   2.588
14346TIP3   OH242978   3.854   6.690   3.339
14346TIP3    H142979   3.760   6.691   3.358
14346TIP3    H242980   3.861   6.647   3.254
14347TIP3   OH242981   0.258   7.526   2.828
14347TIP3    H142982   0.271   7.620   2.829
14347TIP3    H242983   0.346   7.490   2.819
14348TIP3   OH242984   1.917   3.638   3.024
14348TIP3    H142985   1.832   3.660   3.064
14348TIP3    H242986   1.921   3.693   2.946
14349TIP3   OH242987   2.824   7.892   0.318
14349TIP3    H142988   2.757   7.869   0.253
14349TIP3    H242989   2.881   7.816   0.323
14350TIP3   OH242990   2.535   5.964   0.585
14350TIP3    H142991   2.612   6.020   0.598
14350TIP3    H242992   2.561   5.904   0.515
14351TIP3   OH242993   6.748   7.734   2.619
14351TIP3    H142994   6.805   7.783   2.678
14351TIP3    H242995   6.729   7.652   2.665
14352TIP3   OH242996   3.793   2.932   4.906
14352TIP3    H142997   3.775   2.952   4.997
14352TIP3    H242998   3.801   3.017   4.863
14353TIP3   OH242999   5.580  -0.026   5.374
14353TIP3    H143000   5.551   0.010   5.457
14353TIP3    H243001   5.642   0.039   5.340
14354TIP3   OH243002   3.389   2.595   4.855
14354TIP3    H143003   3.369   2.676   4.901
14354TIP3    H243004   3.396   2.529   4.924
14355TIP3   OH243005   1.878   6.501   3.254
14355TIP3    H143006   1.812   6.565   3.283
14355TIP3    H243007   1.858   6.422   3.305
14356TIP3   OH243008   1.054   1.308   6.274
14356TIP3    H143009   0.994   1.328   6.202
14356TIP3    H243010   1.003   1.325   6.353
14357TIP3   OH243011   7.782   4.452   4.362
14357TIP3    H143012   7.732   4.449   4.444
14357TIP3    H243013   7.716   4.469   4.295
14358TIP3   OH243014   6.240   2.485   2.281
14358TIP3    H143015   6.244   2.567   2.331
14358TIP3    H243016   6.172   2.433   2.325
14359TIP3   OH243017   7.869   3.039   2.239
14359TIP3    H143018   7.928   3.032   2.314
14359TIP3    H243019   7.865   3.132   2.220
14360TIP3   OH243020   5.210   6.260   0.289
14360TIP3    H143021   5.210   6.354   0.272
14360TIP3    H243022   5.283   6.247   0.350
14361TIP3   OH243023   7.648   3.552   2.706
14361TIP3    H143024   7.654   3.643   2.680
14361TIP3    H243025   7.699   3.547   2.787
14362TIP3   OH243026   2.269   2.329   2.973
14362TIP3    H143027   2.227   2.314   3.058
14362TIP3    H243028   2.207   2.383   2.925
14363TIP3   OH243029   6.369   5.981   5.738
14363TIP3    H143030   6.275   5.998   5.730
14363TIP3    H243031   6.393   6.020   5.822
14364TIP3   OH243032   4.930   3.364   5.167
14364TIP3    H143033   4.914   3.455   5.191
14364TIP3    H243034   4.994   3.369   5.096
14365TIP3   OH243035   4.291   0.406   5.131
14365TIP3    H143036   4.268   0.313   5.129
14365TIP3    H243037   4.374   0.411   5.085
14366TIP3   OH243038   0.387   5.801   3.610
14366TIP3    H143039   0.426   5.761   3.687
14366TIP3    H243040   0.436   5.766   3.536
14367TIP3   OH243041   0.943   2.736   6.751
14367TIP3    H143042   0.989   2.755   6.833
14367TIP3    H243043   0.927   2.642   6.754
14368TIP3   OH243044   7.607   6.318   1.233
14368TIP3    H143045   7.530   6.298   1.286
14368TIP3    H243046   7.660   6.374   1.288
14369TIP3   OH243047   6.722   1.619   4.538
14369TIP3    H143048   6.738   1.707   4.570
14369TIP3    H243049   6.805   1.573   4.548
14370TIP3   OH243050   1.464   0.156   1.087
14370TIP3    H143051   1.421   0.230   1.043
14370TIP3    H243052   1.435   0.163   1.178
14371TIP3   OH243053   0.858   0.311   0.197
14371TIP3    H143054   0.793   0.288   0.262
14371TIP3    H243055   0.828   0.395   0.162
14372TIP3   OH243056   5.908   5.756   2.892
14372TIP3    H143057   5.978   5.796   2.943
14372TIP3    H243058   5.931   5.663   2.890
14373TIP3   OH243059   3.562   5.924   2.173
14373TIP3    H143060   3.575   5.872   2.093
14373TIP3    H243061   3.602   5.872   2.242
14374TIP3   OH243062   6.733   6.204   1.540
14374TIP3    H143063   6.756   6.292   1.570
14374TIP3    H243064   6.813   6.172   1.498
14375TIP3   OH243065   4.230   3.984   5.821
14375TIP3    H143066   4.183   3.981   5.738
14375TIP3    H243067   4.259   3.894   5.835
14376TIP3   OH243068   6.508   1.577   2.686
14376TIP3    H143069   6.584   1.519   2.693
14376TIP3    H243070   6.499   1.615   2.774
14377TIP3   OH243071   8.363   4.755   3.654
14377TIP3    H143072   8.448   4.735   3.693
14377TIP3    H243073   8.323   4.669   3.639
14378TIP3   OH243074   0.037   6.646   2.464
14378TIP3    H143075   0.127   6.621   2.445
14378TIP3    H243076   0.008   6.583   2.529
14379TIP3   OH243077   3.412   7.592   3.125
14379TIP3    H143078   3.505   7.612   3.124
14379TIP3    H243079   3.371   7.669   3.084
14380TIP3   OH243080   7.437   7.005   4.399
14380TIP3    H143081   7.435   7.080   4.459
14380TIP3    H243082   7.517   6.958   4.423
14381TIP3   OH243083   1.403   1.126   0.068
14381TIP3    H143084   1.321   1.173   0.082
14381TIP3    H243085   1.385   1.037   0.101
14382TIP3   OH243086   1.074   0.715   6.082
14382TIP3    H143087   1.163   0.696   6.051
14382TIP3    H243088   1.076   0.690   6.175
14383TIP3   OH243089   2.308   0.924   6.042
14383TIP3    H143090   2.275   0.977   5.969
14383TIP3    H243091   2.394   0.895   6.014
14384TIP3   OH243092   5.575   6.476   0.483
14384TIP3    H143093   5.508   6.444   0.423
14384TIP3    H243094   5.650   6.418   0.469
14385TIP3   OH243095   0.930   5.689   0.843
14385TIP3    H143096   0.853   5.686   0.786
14385TIP3    H243097   0.981   5.763   0.812
14386TIP3   OH243098   6.866   6.555   6.309
14386TIP3    H143099   6.781   6.596   6.292
14386TIP3    H243100   6.891   6.516   6.225
14387TIP3   OH243101   3.750   2.742   2.135
14387TIP3    H143102   3.757   2.654   2.099
14387TIP3    H243103   3.783   2.734   2.225
14388TIP3   OH243104   2.786   1.258   4.208
14388TIP3    H143105   2.849   1.206   4.159
14388TIP3    H243106   2.797   1.230   4.299
14389TIP3   OH243107   7.245   3.007   1.853
14389TIP3    H143108   7.183   2.945   1.894
14389TIP3    H243109   7.217   3.012   1.762
14390TIP3   OH243110   5.277   4.830   5.101
14390TIP3    H143111   5.310   4.776   5.030
14390TIP3    H243112   5.299   4.782   5.181
14391TIP3   OH243113   1.298   5.387   5.865
14391TIP3    H143114   1.263   5.474   5.844
14391TIP3    H243115   1.222   5.338   5.897
14392TIP3   OH243116   1.060   4.312   3.601
14392TIP3    H143117   1.054   4.233   3.547
14392TIP3    H243118   1.042   4.384   3.541
14393TIP3   OH243119   3.754   5.753   3.532
14393TIP3    H143120   3.685   5.797   3.581
14393TIP3    H243121   3.710   5.682   3.485
14394TIP3   OH243122   5.187   1.229   0.769
14394TIP3    H143123   5.167   1.320   0.788
14394TIP3    H243124   5.109   1.180   0.794
14395TIP3   OH243125   2.167   6.122   0.966
14395TIP3    H143126   2.209   6.074   0.895
14395TIP3    H243127   2.218   6.203   0.974
14396TIP3   OH243128   7.102   7.659   3.278
14396TIP3    H143129   7.034   7.604   3.318
14396TIP3    H243130   7.172   7.598   3.255
14397TIP3   OH243131   3.281   7.634   5.509
14397TIP3    H143132   3.292   7.646   5.414
14397TIP3    H243133   3.309   7.718   5.546
14398TIP3   OH243134   2.380   4.684   4.240
14398TIP3    H143135   2.304   4.634   4.209
14398TIP3    H243136   2.403   4.741   4.167
14399TIP3   OH243137   2.520   5.831   1.741
14399TIP3    H143138   2.610   5.811   1.718
14399TIP3    H243139   2.504   5.783   1.822
14400TIP3   OH243140   1.833   6.331   1.377
14400TIP3    H143141   1.827   6.395   1.306
14400TIP3    H243142   1.809   6.381   1.455
14401TIP3   OH243143   1.937   5.985   1.965
14401TIP3    H143144   2.020   5.939   1.957
14401TIP3    H243145   1.900   5.982   1.877
14402TIP3   OH243146   6.940   4.180   3.164
14402TIP3    H143147   6.898   4.128   3.232
14402TIP3    H243148   6.890   4.261   3.160
14403TIP3   OH243149   2.908   6.420   3.795
14403TIP3    H143150   2.859   6.338   3.788
14403TIP3    H243151   2.889   6.466   3.713
14404TIP3   OH243152   1.296   1.993   2.120
14404TIP3    H143153   1.364   1.939   2.082
14404TIP3    H243154   1.320   2.083   2.098
14405TIP3   OH243155   5.688   3.208   0.458
14405TIP3    H143156   5.721   3.130   0.413
14405TIP3    H243157   5.710   3.194   0.550
14406TIP3   OH243158   1.500   2.398   5.513
14406TIP3    H143159   1.415   2.394   5.557
14406TIP3    H243160   1.498   2.324   5.452
14407TIP3   OH243161   0.051   5.170   4.319
14407TIP3    H143162   0.118   5.101   4.317
14407TIP3    H243163   0.008   5.164   4.234
14408TIP3   OH243164   3.249   4.764   6.727
14408TIP3    H143165   3.283   4.783   6.640
14408TIP3    H243166   3.171   4.819   6.735
14409TIP3   OH243167   4.431   2.324   2.256
14409TIP3    H143168   4.410   2.417   2.242
14409TIP3    H243169   4.509   2.325   2.312
14410TIP3   OH243170   2.236   4.990   0.987
14410TIP3    H143171   2.223   5.029   1.074
14410TIP3    H243172   2.233   4.895   1.003
14411TIP3   OH243173   7.346   3.825   2.797
14411TIP3    H143174   7.332   3.920   2.801
14411TIP3    H243175   7.300   3.791   2.874
14412TIP3   OH243176   4.578   6.438   1.502
14412TIP3    H143177   4.505   6.446   1.440
14412TIP3    H243178   4.655   6.464   1.451
14413TIP3   OH243179   1.407   5.017   1.027
14413TIP3    H143180   1.320   5.055   1.011
14413TIP3    H243181   1.407   4.998   1.121
14414TIP3   OH243182   6.040   4.791   4.549
14414TIP3    H143183   6.022   4.884   4.541
14414TIP3    H243184   5.965   4.756   4.596
14415TIP3   OH243185   7.035   1.631   5.794
14415TIP3    H143186   7.017   1.724   5.786
14415TIP3    H243187   7.042   1.616   5.888
14416TIP3   OH243188   4.877   6.400   0.961
14416TIP3    H143189   4.927   6.318   0.960
14416TIP3    H243190   4.901   6.444   0.880
14417TIP3   OH243191   6.282   4.244   5.384
14417TIP3    H143192   6.333   4.173   5.344
14417TIP3    H243193   6.264   4.305   5.312
14418TIP3   OH243194   1.757   5.522   4.705
14418TIP3    H143195   1.822   5.574   4.753
14418TIP3    H243196   1.801   5.499   4.623
14419TIP3   OH243197   5.678   1.053   0.815
14419TIP3    H143198   5.687   1.106   0.895
14419TIP3    H243199   5.755   1.075   0.763
14420TIP3   OH243200   3.865   0.645   4.916
14420TIP3    H143201   3.951   0.647   4.874
14420TIP3    H243202   3.806   0.610   4.849
14421TIP3   OH243203   5.821   3.690   4.068
14421TIP3    H143204   5.747   3.669   4.125
14421TIP3    H243205   5.898   3.675   4.123
14422TIP3   OH243206   7.916   5.764   3.463
14422TIP3    H143207   7.905   5.806   3.378
14422TIP3    H243208   7.914   5.670   3.443
14423TIP3   OH243209   8.026   2.581   3.566
14423TIP3    H143210   8.014   2.512   3.501
14423TIP3    H243211   8.088   2.641   3.526
14424TIP3   OH243212   1.951   1.184   6.159
14424TIP3    H143213   1.975   1.264   6.112
14424TIP3    H243214   1.956   1.115   6.093
14425TIP3   OH243215   6.098   3.926   4.203
14425TIP3    H143216   6.181   3.901   4.245
14425TIP3    H243217   6.057   3.844   4.179
14426TIP3   OH243218   7.853   5.430   1.390
14426TIP3    H143219   7.879   5.488   1.319
14426TIP3    H243220   7.825   5.350   1.347
14427TIP3   OH243221   0.444   2.252   2.593
14427TIP3    H143222   0.389   2.262   2.516
14427TIP3    H243223   0.488   2.168   2.580
14428TIP3   OH243224   5.094   6.354   4.312
14428TIP3    H143225   5.085   6.278   4.255
14428TIP3    H243226   5.022   6.347   4.375
14429TIP3   OH243227   4.528   1.128   4.493
14429TIP3    H143228   4.489   1.147   4.407
14429TIP3    H243229   4.511   1.207   4.544
14430TIP3   OH243230   6.068   4.626   1.003
14430TIP3    H143231   6.089   4.692   1.069
14430TIP3    H243232   6.027   4.675   0.932
14431TIP3   OH243233   0.737   6.517   2.567
14431TIP3    H143234   0.665   6.524   2.630
14431TIP3    H243235   0.754   6.423   2.562
14432TIP3   OH243236   2.684   5.108   2.552
14432TIP3    H143237   2.659   5.046   2.484
14432TIP3    H243238   2.636   5.188   2.531
14433TIP3   OH243239   0.325   3.566   4.835
14433TIP3    H143240   0.362   3.504   4.898
14433TIP3    H243241   0.399   3.590   4.779
14434TIP3   OH243242   7.259   1.707   2.459
14434TIP3    H143243   7.213   1.781   2.419
14434TIP3    H243244   7.195   1.666   2.517
14435TIP3   OH243245   3.974   5.645   0.831
14435TIP3    H143246   3.925   5.715   0.874
14435TIP3    H243247   4.066   5.672   0.837
14436TIP3   OH243248   5.165   6.441   3.888
14436TIP3    H143249   5.110   6.515   3.911
14436TIP3    H243250   5.216   6.423   3.967
14437TIP3   OH243251   7.461   0.510   1.359
14437TIP3    H143252   7.553   0.532   1.340
14437TIP3    H243253   7.455   0.416   1.344
14438TIP3   OH243254   8.248   6.456   1.387
14438TIP3    H143255   8.174   6.506   1.422
14438TIP3    H243256   8.316   6.463   1.453
14439TIP3   OH243257   2.410   5.964   6.175
14439TIP3    H143258   2.419   6.048   6.128
14439TIP3    H243259   2.448   5.900   6.115
14440TIP3   OH243260   2.925   7.352   2.353
14440TIP3    H143261   2.898   7.443   2.347
14440TIP3    H243262   2.936   7.323   2.262
14441TIP3   OH243263   5.102   2.092   0.766
14441TIP3    H143264   5.169   2.065   0.829
14441TIP3    H243265   5.130   2.179   0.737
14442TIP3   OH243266   4.226   6.274   0.239
14442TIP3    H143267   4.273   6.289   0.157
14442TIP3    H243268   4.216   6.361   0.276
14443TIP3   OH243269   3.425   3.859   1.309
14443TIP3    H143270   3.350   3.868   1.367
14443TIP3    H243271   3.500   3.854   1.368
14444TIP3   OH243272   4.940   3.910   2.750
14444TIP3    H143273   4.974   3.829   2.712
14444TIP3    H243274   5.017   3.955   2.785
14445TIP3   OH243275   7.290   1.768   6.311
14445TIP3    H143276   7.313   1.835   6.247
14445TIP3    H243277   7.206   1.798   6.346
14446TIP3   OH243278   2.592   6.892   6.653
14446TIP3    H143279   2.616   6.984   6.647
14446TIP3    H243280   2.674   6.846   6.668
14447TIP3   OH243281   7.038   2.411   2.555
14447TIP3    H143282   7.087   2.377   2.630
14447TIP3    H243283   7.061   2.504   2.551
14448TIP3   OH243284   5.013   2.227   4.937
14448TIP3    H143285   5.089   2.283   4.919
14448TIP3    H243286   4.956   2.239   4.861
14449TIP3   OH243287   1.677   1.724   3.292
14449TIP3    H143288   1.646   1.634   3.282
14449TIP3    H243289   1.605   1.778   3.260
14450TIP3   OH243290   5.563   2.897   5.277
14450TIP3    H143291   5.488   2.956   5.276
14450TIP3    H243292   5.524   2.809   5.280
14451TIP3   OH243293   0.269   4.360   1.909
14451TIP3    H143294   0.174   4.366   1.914
14451TIP3    H243295   0.301   4.444   1.943
14452TIP3   OH243296   8.218   2.085   5.648
14452TIP3    H143297   8.123   2.074   5.643
14452TIP3    H243298   8.245   2.099   5.557
14453TIP3   OH243299   7.728   2.793   0.412
14453TIP3    H143300   7.788   2.769   0.482
14453TIP3    H243301   7.781   2.786   0.332
14454TIP3   OH243302   7.876   2.754   0.191
14454TIP3    H143303   7.930   2.675   0.196
14454TIP3    H243304   7.929   2.815   0.139
14455TIP3   OH243305   0.874   6.055   0.020
14455TIP3    H143306   0.781   6.032   0.017
14455TIP3    H243307   0.882   6.111   0.097
14456TIP3   OH243308   3.549   1.611   5.827
14456TIP3    H143309   3.553   1.699   5.790
14456TIP3    H243310   3.527   1.555   5.753
14457TIP3   OH243311   4.663   2.012   5.726
14457TIP3    H143312   4.706   1.987   5.808
14457TIP3    H243313   4.626   1.930   5.692
14458TIP3   OH243314   1.699   1.318   3.334
14458TIP3    H143315   1.763   1.376   3.292
14458TIP3    H243316   1.614   1.351   3.306
14459TIP3   OH243317   6.506   6.059   0.722
14459TIP3    H143318   6.501   5.972   0.684
14459TIP3    H243319   6.571   6.105   0.669
14460TIP3   OH243320   6.364   7.849   3.795
14460TIP3    H143321   6.352   7.935   3.835
14460TIP3    H243322   6.454   7.849   3.763
14461TIP3   OH243323   0.171   3.197   2.963
14461TIP3    H143324   0.124   3.256   3.023
14461TIP3    H243325   0.212   3.256   2.900
14462TIP3   OH243326   7.878   3.494   0.938
14462TIP3    H143327   7.968   3.510   0.967
14462TIP3    H243328   7.823   3.532   1.007
14463TIP3   OH243329   4.269   0.794   4.608
14463TIP3    H143330   4.276   0.889   4.603
14463TIP3    H243331   4.355   0.765   4.640
14464TIP3   OH243332   4.449   3.100   0.257
14464TIP3    H143333   4.371   3.155   0.249
14464TIP3    H243334   4.481   3.116   0.346
14465TIP3   OH243335   4.961   0.500   1.555
14465TIP3    H143336   5.028   0.490   1.488
14465TIP3    H243337   5.002   0.555   1.622
14466TIP3   OH243338   7.156   4.420   1.709
14466TIP3    H143339   7.188   4.508   1.690
14466TIP3    H243340   7.200   4.364   1.645
14467TIP3   OH243341   1.938   2.067   5.103
14467TIP3    H143342   1.985   2.096   5.025
14467TIP3    H243343   1.923   1.973   5.089
14468TIP3   OH243344   5.250   1.393   3.571
14468TIP3    H143345   5.324   1.353   3.525
14468TIP3    H243346   5.281   1.406   3.660
14469TIP3   OH243347   6.356   0.830   6.194
14469TIP3    H143348   6.404   0.787   6.264
14469TIP3    H243349   6.417   0.896   6.161
14470TIP3   OH243350   1.973   1.977   2.471
14470TIP3    H143351   2.015   2.034   2.407
14470TIP3    H243352   1.886   1.959   2.435
14471TIP3   OH243353   2.703   4.076   2.506
14471TIP3    H143354   2.794   4.060   2.530
14471TIP3    H243355   2.688   4.020   2.429
14472TIP3   OH243356   0.683   6.261   0.701
14472TIP3    H143357   0.772   6.292   0.684
14472TIP3    H243358   0.696   6.180   0.751
14473TIP3   OH243359   5.129   3.913   3.732
14473TIP3    H143360   5.152   4.004   3.713
14473TIP3    H243361   5.037   3.916   3.756
14474TIP3   OH243362   7.370   5.956   6.819
14474TIP3    H143363   7.461   5.934   6.840
14474TIP3    H243364   7.327   5.965   6.904
14475TIP3   OH243365   1.433   2.718   6.631
14475TIP3    H143366   1.525   2.736   6.614
14475TIP3    H243367   1.392   2.717   6.544
14476TIP3   OH243368   4.655   5.371   2.153
14476TIP3    H143369   4.613   5.360   2.068
14476TIP3    H243370   4.738   5.415   2.133
14477TIP3   OH243371   3.389   7.104   0.144
14477TIP3    H143372   3.434   7.069   0.068
14477TIP3    H243373   3.458   7.147   0.195
14478TIP3   OH243374   0.213   1.668   3.384
14478TIP3    H143375   0.189   1.634   3.470
14478TIP3    H243376   0.149   1.628   3.325
14479TIP3   OH243377   0.545   7.692   4.599
14479TIP3    H143378   0.531   7.598   4.597
14479TIP3    H243379   0.550   7.714   4.692
14480TIP3   OH243380   0.518   7.122   2.016
14480TIP3    H143381   0.485   7.193   1.961
14480TIP3    H243382   0.507   7.153   2.106
14481TIP3   OH243383   5.087   7.621   6.832
14481TIP3    H143384   5.117   7.622   6.741
14481TIP3    H243385   5.133   7.548   6.872
14482TIP3   OH243386   5.973   3.300   4.524
14482TIP3    H143387   5.988   3.338   4.611
14482TIP3    H243388   5.924   3.368   4.477
14483TIP3   OH243389   3.965   3.275   5.268
14483TIP3    H143390   3.901   3.265   5.197
14483TIP3    H243391   3.920   3.331   5.332
14484TIP3   OH243392   4.914   3.131   1.060
14484TIP3    H143393   4.875   3.168   1.139
14484TIP3    H243394   4.917   3.037   1.077
14485TIP3   OH243395   7.489   0.947   3.618
14485TIP3    H143396   7.483   0.877   3.553
14485TIP3    H243397   7.479   1.027   3.568
14486TIP3   OH243398   3.837   3.294   6.331
14486TIP3    H143399   3.897   3.238   6.380
14486TIP3    H243400   3.759   3.240   6.320
14487TIP3   OH243401   1.969   5.149   0.551
14487TIP3    H143402   2.000   5.106   0.631
14487TIP3    H243403   1.984   5.242   0.567
14488TIP3   OH243404   6.693   0.078   2.892
14488TIP3    H143405   6.748   0.073   2.814
14488TIP3    H243406   6.744   0.036   2.961
14489TIP3   OH243407   3.772   1.858   3.825
14489TIP3    H143408   3.699   1.889   3.879
14489TIP3    H243409   3.773   1.763   3.838
14490TIP3   OH243410   4.737   6.609   3.052
14490TIP3    H143411   4.664   6.610   2.990
14490TIP3    H243412   4.773   6.697   3.049
14491TIP3   OH243413   0.260   7.525   6.676
14491TIP3    H143414   0.173   7.539   6.713
14491TIP3    H243415   0.320   7.545   6.747
14492TIP3   OH243416   5.383   4.719   0.145
14492TIP3    H143417   5.325   4.714   0.068
14492TIP3    H243418   5.471   4.712   0.109
14493TIP3   OH243419   3.134   1.906   1.136
14493TIP3    H143420   3.123   1.991   1.094
14493TIP3    H243421   3.161   1.925   1.225
14494TIP3   OH243422   6.730   4.851   4.021
14494TIP3    H143423   6.647   4.896   4.039
14494TIP3    H243424   6.796   4.907   4.062
14495TIP3   OH243425   7.604   4.447   0.884
14495TIP3    H143426   7.699   4.453   0.874
14495TIP3    H243427   7.590   4.365   0.931
14496TIP3   OH243428   2.446   0.075   5.723
14496TIP3    H143429   2.479   0.067   5.812
14496TIP3    H243430   2.525   0.082   5.669
14497TIP3   OH243431   0.229   0.818   0.459
14497TIP3    H143432   0.313   0.848   0.494
14497TIP3    H243433   0.194   0.893   0.412
14498TIP3   OH243434   7.587   1.358   3.087
14498TIP3    H143435   7.521   1.294   3.061
14498TIP3    H243436   7.642   1.311   3.149
14499TIP3   OH243437   6.942   2.723   1.559
14499TIP3    H143438   6.894   2.742   1.640
14499TIP3    H243439   6.916   2.792   1.498
14500TIP3   OH243440   2.508   0.714   0.770
14500TIP3    H143441   2.556   0.639   0.805
14500TIP3    H243442   2.452   0.677   0.701
14501TIP3   OH243443   2.479   7.121   5.851
14501TIP3    H143444   2.510   7.079   5.771
14501TIP3    H243445   2.489   7.214   5.835
14502TIP3   OH243446   2.290   7.880   2.789
14502TIP3    H143447   2.310   7.807   2.848
14502TIP3    H243448   2.315   7.958   2.837
14503TIP3   OH243449   6.090   7.623   0.765
14503TIP3    H143450   6.004   7.623   0.723
14503TIP3    H243451   6.151   7.644   0.694
14504TIP3   OH243452   0.689   2.858   4.939
14504TIP3    H143453   0.655   2.840   5.026
14504TIP3    H243454   0.781   2.883   4.954
14505TIP3   OH243455   1.692   0.180   2.022
14505TIP3    H143456   1.738   0.241   1.965
14505TIP3    H243457   1.722   0.094   1.993
14506TIP3   OH243458   4.429   7.550   6.515
14506TIP3    H143459   4.421   7.635   6.472
14506TIP3    H243460   4.456   7.572   6.605
14507TIP3   OH243461   5.523   3.763   5.741
14507TIP3    H143462   5.442   3.713   5.746
14507TIP3    H243463   5.574   3.720   5.673
14508TIP3   OH243464   1.939   6.644   4.710
14508TIP3    H143465   1.849   6.659   4.682
14508TIP3    H243466   1.987   6.721   4.678
14509TIP3   OH243467   5.825   4.185   2.590
14509TIP3    H143468   5.845   4.092   2.589
14509TIP3    H243469   5.853   4.216   2.503
14510TIP3   OH243470   5.498   5.885   4.251
14510TIP3    H143471   5.472   5.829   4.324
14510TIP3    H243472   5.586   5.855   4.227
14511TIP3   OH243473   4.019   0.338   2.006
14511TIP3    H143474   3.959   0.317   2.078
14511TIP3    H243475   3.966   0.387   1.944
14512TIP3   OH243476   5.726   6.924   1.432
14512TIP3    H143477   5.670   6.993   1.394
14512TIP3    H243478   5.815   6.960   1.427
14513TIP3   OH243479   0.769   3.392   2.664
14513TIP3    H143480   0.731   3.307   2.641
14513TIP3    H243481   0.847   3.371   2.715
14514TIP3   OH243482   6.664   7.120   5.023
14514TIP3    H143483   6.707   7.204   5.009
14514TIP3    H243484   6.572   7.142   5.038
14515TIP3   OH243485   0.764   6.222   1.053
14515TIP3    H143486   0.776   6.209   1.147
14515TIP3    H243487   0.804   6.144   1.013
14516TIP3   OH243488   3.523   5.112   6.505
14516TIP3    H143489   3.587   5.050   6.540
14516TIP3    H243490   3.572   5.163   6.441
14517TIP3   OH243491   3.595   6.532   5.713
14517TIP3    H143492   3.600   6.595   5.784
14517TIP3    H243493   3.552   6.580   5.641
14518TIP3   OH243494   0.107   5.704   6.329
14518TIP3    H143495   0.110   5.753   6.247
14518TIP3    H243496   0.188   5.727   6.375
14519TIP3   OH243497   6.738   3.501   3.635
14519TIP3    H143498   6.832   3.482   3.634
14519TIP3    H243499   6.722   3.538   3.722
14520TIP3   OH243500   4.261   6.980   2.817
14520TIP3    H143501   4.324   7.051   2.824
14520TIP3    H243502   4.240   6.958   2.908
14521TIP3   OH243503   5.008   4.366   3.558
14521TIP3    H143504   4.914   4.346   3.562
14521TIP3    H243505   5.036   4.372   3.649
14522TIP3   OH243506   0.272   5.436   4.581
14522TIP3    H143507   0.241   5.460   4.669
14522TIP3    H243508   0.285   5.342   4.585
14523TIP3   OH243509   3.658   1.100   4.580
14523TIP3    H143510   3.679   1.193   4.580
14523TIP3    H243511   3.739   1.056   4.554
14524TIP3   OH243512   2.967   0.930   2.734
14524TIP3    H143513   2.875   0.930   2.760
14524TIP3    H243514   2.975   1.001   2.671
14525TIP3   OH243515   6.694   2.745   0.847
14525TIP3    H143516   6.678   2.677   0.781
14525TIP3    H243517   6.764   2.708   0.902
14526TIP3   OH243518   3.054   4.840   2.489
14526TIP3    H143519   2.975   4.869   2.444
14526TIP3    H243520   3.123   4.844   2.422
14527TIP3   OH243521   0.496   6.820   4.382
14527TIP3    H143522   0.469   6.803   4.292
14527TIP3    H243523   0.451   6.901   4.406
14528TIP3   OH243524   8.076   6.898   4.319
14528TIP3    H143525   8.131   6.952   4.262
14528TIP3    H243526   8.017   6.853   4.258
14529TIP3   OH243527   3.175   5.042   1.242
14529TIP3    H143528   3.085   5.035   1.209
14529TIP3    H243529   3.230   5.025   1.166
14530TIP3   OH243530   7.784   3.732   4.602
14530TIP3    H143531   7.750   3.780   4.677
14530TIP3    H243532   7.762   3.786   4.527
14531TIP3   OH243533   3.663   4.969   5.996
14531TIP3    H143534   3.725   5.018   5.942
14531TIP3    H243535   3.588   5.027   6.005
14532TIP3   OH243536   4.463   5.913   6.076
14532TIP3    H143537   4.463   5.987   6.015
14532TIP3    H243538   4.555   5.900   6.099
14533TIP3   OH243539   5.047   0.682   1.755
14533TIP3    H143540   5.101   0.762   1.751
14533TIP3    H243541   5.054   0.654   1.846
14534TIP3   OH243542   4.649   4.193   4.838
14534TIP3    H143543   4.656   4.127   4.769
14534TIP3    H243544   4.558   4.189   4.867
14535TIP3   OH243545   5.928   7.853   4.903
14535TIP3    H143546   5.956   7.826   4.815
14535TIP3    H243547   5.898   7.772   4.945
14536TIP3   OH243548   4.715   0.474   5.986
14536TIP3    H143549   4.665   0.407   6.032
14536TIP3    H243550   4.654   0.546   5.975
14537TIP3   OH243551   3.787   0.182   3.399
14537TIP3    H143552   3.730   0.253   3.430
14537TIP3    H243553   3.747   0.103   3.433
14538TIP3   OH243554   5.763   5.913   1.539
14538TIP3    H143555   5.827   5.927   1.470
14538TIP3    H243556   5.788   5.973   1.609
14539TIP3   OH243557   0.330   2.277   6.413
14539TIP3    H143558   0.299   2.290   6.323
14539TIP3    H243559   0.313   2.184   6.431
14540TIP3   OH243560   5.054   0.146   1.147
14540TIP3    H143561   4.974   0.093   1.139
14540TIP3    H243562   5.124   0.082   1.156
14541TIP3   OH243563   3.198   0.296   4.939
14541TIP3    H143564   3.181   0.230   4.871
14541TIP3    H243565   3.112   0.310   4.980
14542TIP3   OH243566   0.818   6.863   4.783
14542TIP3    H143567   0.831   6.923   4.711
14542TIP3    H243568   0.723   6.858   4.794
14543TIP3   OH243569   2.195   5.020   1.269
14543TIP3    H143570   2.127   5.081   1.296
14543TIP3    H243571   2.182   4.943   1.323
14544TIP3   OH243572   5.340   1.255   1.071
14544TIP3    H143573   5.298   1.194   1.010
14544TIP3    H243574   5.324   1.342   1.034
14545TIP3   OH243575   7.524   1.671   2.525
14545TIP3    H143576   7.442   1.693   2.482
14545TIP3    H243577   7.530   1.576   2.519
14546TIP3   OH243578   6.523   1.378   1.406
14546TIP3    H143579   6.494   1.291   1.434
14546TIP3    H243580   6.485   1.388   1.319
14547TIP3   OH243581   1.732   3.362   0.153
14547TIP3    H143582   1.818   3.391   0.182
14547TIP3    H243583   1.670   3.413   0.206
14548TIP3   OH243584   0.742   2.453   1.835
14548TIP3    H143585   0.658   2.409   1.850
14548TIP3    H243586   0.790   2.394   1.777
14549TIP3   OH243587   4.548   2.810   4.269
14549TIP3    H143588   4.630   2.836   4.226
14549TIP3    H243589   4.488   2.792   4.197
14550TIP3   OH243590   2.579   7.189   1.861
14550TIP3    H143591   2.582   7.185   1.957
14550TIP3    H243592   2.624   7.271   1.839
14551TIP3   OH243593   2.300   4.395   3.853
14551TIP3    H143594   2.384   4.437   3.873
14551TIP3    H243595   2.267   4.442   3.777
14552TIP3   OH243596   5.185   4.240   0.364
14552TIP3    H143597   5.240   4.191   0.424
14552TIP3    H243598   5.241   4.312   0.334
14553TIP3   OH243599   2.627   4.928   1.155
14553TIP3    H143600   2.655   5.017   1.132
14553TIP3    H243601   2.558   4.941   1.221
14554TIP3   OH243602   7.250   3.460   3.078
14554TIP3    H143603   7.184   3.405   3.120
14554TIP3    H243604   7.333   3.428   3.113
14555TIP3   OH243605   7.115   7.081   4.259
14555TIP3    H143606   7.084   6.990   4.253
14555TIP3    H243607   7.139   7.092   4.351
14556TIP3   OH243608   6.177   4.322   3.371
14556TIP3    H143609   6.157   4.415   3.357
14556TIP3    H243610   6.130   4.277   3.300
14557TIP3   OH243611   8.211   7.629   6.293
14557TIP3    H143612   8.166   7.602   6.374
14557TIP3    H243613   8.300   7.648   6.321
14558TIP3   OH243614   2.504   2.783   0.318
14558TIP3    H143615   2.563   2.713   0.291
14558TIP3    H243616   2.417   2.743   0.315
14559TIP3   OH243617   3.071   1.108   5.254
14559TIP3    H143618   3.138   1.166   5.217
14559TIP3    H243619   3.099   1.020   5.228
14560TIP3   OH243620   5.518   7.028   4.366
14560TIP3    H143621   5.609   7.017   4.393
14560TIP3    H243622   5.512   6.981   4.283
14561TIP3   OH243623   3.552   6.884   1.484
14561TIP3    H143624   3.463   6.914   1.502
14561TIP3    H243625   3.553   6.794   1.518
14562TIP3   OH243626   7.281   1.560   4.706
14562TIP3    H143627   7.276   1.655   4.699
14562TIP3    H243628   7.339   1.534   4.635
14563TIP3   OH243629   8.105   5.086   0.798
14563TIP3    H143630   8.191   5.125   0.781
14563TIP3    H243631   8.070   5.066   0.711
14564TIP3   OH243632   6.400   7.379   5.434
14564TIP3    H143633   6.316   7.424   5.423
14564TIP3    H243634   6.384   7.290   5.402
14565TIP3   OH243635   2.188   4.422   4.799
14565TIP3    H143636   2.154   4.333   4.811
14565TIP3    H243637   2.143   4.474   4.866
14566TIP3   OH243638   2.509   7.787   3.782
14566TIP3    H143639   2.487   7.749   3.697
14566TIP3    H243640   2.554   7.869   3.761
14567TIP3   OH243641   5.591   2.780   0.868
14567TIP3    H143642   5.610   2.696   0.911
14567TIP3    H243643   5.505   2.805   0.903
14568TIP3   OH243644   5.636   5.533   5.675
14568TIP3    H143645   5.598   5.502   5.758
14568TIP3    H243646   5.676   5.617   5.697
14569TIP3   OH243647   8.342   7.181   4.035
14569TIP3    H143648   8.400   7.256   4.046
14569TIP3    H243649   8.284   7.205   3.962
14570TIP3   OH243650   7.581   2.193   3.928
14570TIP3    H143651   7.487   2.196   3.943
14570TIP3    H243652   7.606   2.102   3.945
14571TIP3   OH243653   7.829   5.942   1.709
14571TIP3    H143654   7.767   6.002   1.668
14571TIP3    H243655   7.784   5.911   1.788
14572TIP3   OH243656   7.637   6.907   2.811
14572TIP3    H143657   7.668   6.821   2.783
14572TIP3    H243658   7.565   6.888   2.871
14573TIP3   OH243659   8.180   5.921   3.533
14573TIP3    H143660   8.136   5.987   3.586
14573TIP3    H243661   8.112   5.888   3.474
14574TIP3   OH243662   6.011   7.496   1.955
14574TIP3    H143663   6.090   7.461   1.997
14574TIP3    H243664   6.034   7.502   1.862
14575TIP3   OH243665   1.774   6.061   1.346
14575TIP3    H143666   1.864   6.053   1.315
14575TIP3    H243667   1.762   6.155   1.360
14576TIP3   OH243668   4.871   3.259   4.759
14576TIP3    H143669   4.877   3.197   4.687
14576TIP3    H243670   4.909   3.340   4.724
14577TIP3   OH243671   3.670   4.570   5.936
14577TIP3    H143672   3.661   4.504   5.867
14577TIP3    H243673   3.764   4.572   5.955
14578TIP3   OH243674   1.694   2.369   3.467
14578TIP3    H143675   1.750   2.296   3.440
14578TIP3    H243676   1.605   2.341   3.443
14579TIP3   OH243677   8.108   2.453   3.819
14579TIP3    H143678   8.093   2.502   3.739
14579TIP3    H243679   8.150   2.372   3.791
14580TIP3   OH243680   7.911   0.185   4.851
14580TIP3    H143681   7.861   0.184   4.933
14580TIP3    H243682   7.845   0.175   4.783
14581TIP3   OH243683   7.765   3.068   3.346
14581TIP3    H143684   7.736   2.997   3.290
14581TIP3    H243685   7.726   3.050   3.431
14582TIP3   OH243686   6.995   6.967   5.844
14582TIP3    H143687   6.971   6.877   5.819
14582TIP3    H243688   7.000   6.964   5.940
14583TIP3   OH243689   7.897   5.361   0.819
14583TIP3    H143690   7.886   5.342   0.912
14583TIP3    H243691   7.830   5.309   0.775
14584TIP3   OH243692   6.890   1.330   2.335
14584TIP3    H143693   6.905   1.420   2.303
14584TIP3    H243694   6.939   1.275   2.274
14585TIP3   OH243695   0.954   2.751   4.304
14585TIP3    H143696   0.954   2.846   4.286
14585TIP3    H243697   0.962   2.711   4.217
14586TIP3   OH243698   2.030   5.171   2.319
14586TIP3    H143699   1.976   5.225   2.377
14586TIP3    H243700   1.966   5.119   2.269
14587TIP3   OH243701   7.847   6.063   1.974
14587TIP3    H143702   7.778   6.117   2.012
14587TIP3    H243703   7.866   6.104   1.890
14588TIP3   OH243704   6.770   7.348   0.624
14588TIP3    H143705   6.738   7.267   0.584
14588TIP3    H243706   6.864   7.346   0.611
14589TIP3   OH243707   1.152   4.561   5.574
14589TIP3    H143708   1.108   4.625   5.518
14589TIP3    H243709   1.244   4.565   5.546
14590TIP3   OH243710   1.792   4.789   1.004
14590TIP3    H143711   1.828   4.876   1.015
14590TIP3    H243712   1.788   4.752   1.092
14591TIP3   OH243713   0.717   1.050   2.352
14591TIP3    H143714   0.704   0.973   2.298
14591TIP3    H243715   0.742   1.015   2.438
14592TIP3   OH243716   5.389   2.027   2.181
14592TIP3    H143717   5.451   2.077   2.128
14592TIP3    H243718   5.386   1.940   2.140
14593TIP3   OH243719   5.314   1.507   2.538
14593TIP3    H143720   5.393   1.555   2.513
14593TIP3    H243721   5.345   1.435   2.593
14594TIP3   OH243722   1.308   4.709   5.195
14594TIP3    H143723   1.335   4.671   5.111
14594TIP3    H243724   1.309   4.804   5.179
14595TIP3   OH243725   2.240   2.239   5.616
14595TIP3    H143726   2.313   2.266   5.560
14595TIP3    H243727   2.281   2.227   5.703
14596TIP3   OH243728   1.968   1.059   2.312
14596TIP3    H143729   2.040   1.068   2.250
14596TIP3    H243730   1.935   0.970   2.298
14597TIP3   OH243731   5.671   6.072   4.793
14597TIP3    H143732   5.681   6.101   4.884
14597TIP3    H243733   5.699   5.981   4.794
14598TIP3   OH243734   2.104   7.576   5.298
14598TIP3    H143735   2.162   7.564   5.374
14598TIP3    H243736   2.154   7.631   5.238
14599TIP3   OH243737   4.642   0.559   2.115
14599TIP3    H143738   4.602   0.617   2.179
14599TIP3    H243739   4.570   0.502   2.087
14600TIP3   OH243740   6.816   4.437   6.817
14600TIP3    H143741   6.745   4.402   6.763
14600TIP3    H243742   6.778   4.513   6.860
14601TIP3   OH243743   5.309   0.383   1.790
14601TIP3    H143744   5.263   0.301   1.770
14601TIP3    H243745   5.267   0.415   1.870
14602TIP3   OH243746   1.495   6.887   4.958
14602TIP3    H143747   1.445   6.814   4.993
14602TIP3    H243748   1.495   6.952   5.028
14603TIP3   OH243749   8.216   2.644   0.793
14603TIP3    H143750   8.127   2.658   0.826
14603TIP3    H243751   8.229   2.713   0.728
14604TIP3   OH243752   1.190   6.945   5.161
14604TIP3    H143753   1.111   6.955   5.109
14604TIP3    H243754   1.216   6.854   5.148
14605TIP3   OH243755   5.227   3.636   0.118
14605TIP3    H143756   5.283   3.698   0.164
14605TIP3    H243757   5.217   3.674   0.030
14606TIP3   OH243758   4.589   2.921   3.292
14606TIP3    H143759   4.499   2.935   3.320
14606TIP3    H243760   4.589   2.945   3.199
14607TIP3   OH243761   4.622   1.618   2.648
14607TIP3    H143762   4.702   1.624   2.700
14607TIP3    H243763   4.645   1.560   2.575
14608TIP3   OH243764   1.967   1.450   1.867
14608TIP3    H143765   1.888   1.451   1.921
14608TIP3    H243766   2.006   1.364   1.883
14609TIP3   OH243767   1.909   7.719   5.852
14609TIP3    H143768   1.847   7.735   5.923
14609TIP3    H243769   1.905   7.797   5.798
14610TIP3   OH243770   7.048   6.842   5.573
14610TIP3    H143771   6.982   6.792   5.620
14610TIP3    H243772   7.060   6.794   5.491
14611TIP3   OH243773   3.814   2.700   3.860
14611TIP3    H143774   3.870   2.639   3.908
14611TIP3    H243775   3.820   2.782   3.910
14612TIP3   OH243776   5.858   2.618   2.647
14612TIP3    H143777   5.924   2.596   2.712
14612TIP3    H243778   5.889   2.700   2.608
14613TIP3   OH243779   3.612   5.974   4.479
14613TIP3    H143780   3.564   5.998   4.558
14613TIP3    H243781   3.687   5.924   4.511
14614TIP3   OH243782   7.589   7.783   1.008
14614TIP3    H143783   7.594   7.739   0.923
14614TIP3    H243784   7.515   7.842   1.000
14615TIP3   OH243785   6.415   3.827   6.027
14615TIP3    H143786   6.455   3.754   5.980
14615TIP3    H243787   6.329   3.794   6.054
14616TIP3   OH243788   2.879   7.151   4.170
14616TIP3    H143789   2.875   7.203   4.250
14616TIP3    H243790   2.868   7.215   4.100
14617TIP3   OH243791   0.416   4.622   2.925
14617TIP3    H143792   0.385   4.549   2.872
14617TIP3    H243793   0.337   4.659   2.964
14618TIP3   OH243794   1.939   4.620   5.488
14618TIP3    H143795   1.983   4.608   5.404
14618TIP3    H243796   2.004   4.595   5.553
14619TIP3   OH243797   2.006   6.261   2.086
14619TIP3    H143798   2.020   6.171   2.055
14619TIP3    H243799   1.922   6.257   2.132
14620TIP3   OH243800   2.094   7.699   1.105
14620TIP3    H143801   2.057   7.612   1.096
14620TIP3    H243802   2.171   7.699   1.048
14621TIP3   OH243803   7.776   1.268   2.149
14621TIP3    H143804   7.777   1.186   2.099
14621TIP3    H243805   7.814   1.244   2.234
14622TIP3   OH243806   6.301   2.277   1.462
14622TIP3    H143807   6.283   2.193   1.503
14622TIP3    H243808   6.301   2.258   1.368
14623TIP3   OH243809   7.559   2.711   2.990
14623TIP3    H143810   7.520   2.722   2.903
14623TIP3    H243811   7.486   2.682   3.046
14624TIP3   OH243812   2.728   1.162   3.820
14624TIP3    H143813   2.760   1.072   3.814
14624TIP3    H243814   2.653   1.157   3.878
14625TIP3   OH243815   8.155   2.365   5.939
14625TIP3    H143816   8.130   2.283   5.896
14625TIP3    H243817   8.089   2.428   5.912
14626TIP3   OH243818   0.953   4.896   0.553
14626TIP3    H143819   0.958   4.986   0.585
14626TIP3    H243820   1.037   4.857   0.578
14627TIP3   OH243821   5.378   2.718   2.721
14627TIP3    H143822   5.343   2.689   2.636
14627TIP3    H243823   5.398   2.637   2.768
14628TIP3   OH243824   0.008   0.549   5.737
14628TIP3    H143825   0.075   0.538   5.804
14628TIP3    H243826   0.056   0.548   5.654
14629TIP3   OH243827   4.756   3.282   6.003
14629TIP3    H143828   4.730   3.309   5.915
14629TIP3    H243829   4.787   3.362   6.045
14630TIP3   OH243830   6.064   0.706   0.700
14630TIP3    H143831   5.993   0.642   0.703
14630TIP3    H243832   6.143   0.654   0.685
14631TIP3   OH243833   6.971   4.737   0.086
14631TIP3    H143834   6.929   4.652   0.102
14631TIP3    H243835   6.941   4.793   0.158
14632TIP3   OH243836   5.999   6.378   4.588
14632TIP3    H143837   6.025   6.467   4.611
14632TIP3    H243838   5.912   6.367   4.627
14633TIP3   OH243839   5.040   0.463   6.441
14633TIP3    H143840   5.062   0.384   6.491
14633TIP3    H243841   5.112   0.472   6.379
14634TIP3   OH243842   6.041   7.948   1.613
14634TIP3    H143843   6.021   7.856   1.596
14634TIP3    H243844   6.020   7.960   1.706
14635TIP3   OH243845   0.613   2.122   6.324
14635TIP3    H143846   0.699   2.160   6.341
14635TIP3    H243847   0.574   2.110   6.410
14636TIP3   OH243848   3.072   3.887   4.253
14636TIP3    H143849   2.988   3.846   4.232
14636TIP3    H243850   3.067   3.906   4.347
14637TIP3   OH243851   4.181   3.748   4.422
14637TIP3    H143852   4.193   3.691   4.498
14637TIP3    H243853   4.207   3.694   4.348
14638TIP3   OH243854   0.310   2.663   4.879
14638TIP3    H143855   0.340   2.578   4.846
14638TIP3    H243856   0.237   2.642   4.938
14639TIP3   OH243857   0.771   5.017   4.815
14639TIP3    H143858   0.748   5.102   4.780
14639TIP3    H243859   0.693   4.963   4.804
14640TIP3   OH243860   5.803   5.899   3.876
14640TIP3    H143861   5.891   5.918   3.909
14640TIP3    H243862   5.767   5.985   3.852
14641TIP3   OH243863   2.843   2.378   5.469
14641TIP3    H143864   2.766   2.353   5.520
14641TIP3    H243865   2.899   2.425   5.531
14642TIP3   OH243866   4.092   1.902   6.813
14642TIP3    H143867   4.025   1.834   6.826
14642TIP3    H243868   4.139   1.874   6.734
14643TIP3   OH243869   6.733   4.251   1.428
14643TIP3    H143870   6.784   4.330   1.446
14643TIP3    H243871   6.710   4.217   1.515
14644TIP3   OH243872   8.288   7.135   0.422
14644TIP3    H143873   8.364   7.081   0.446
14644TIP3    H243874   8.271   7.188   0.500
14645TIP3   OH243875   4.379   5.140   2.929
14645TIP3    H143876   4.300   5.092   2.955
14645TIP3    H243877   4.372   5.149   2.834
14646TIP3   OH243878   7.718   1.158   5.814
14646TIP3    H143879   7.774   1.206   5.875
14646TIP3    H243880   7.628   1.180   5.840
14647TIP3   OH243881   4.982   1.645   1.413
14647TIP3    H143882   4.943   1.696   1.484
14647TIP3    H243883   4.939   1.560   1.418
14648TIP3   OH243884   8.010   7.243   6.158
14648TIP3    H143885   8.010   7.304   6.084
14648TIP3    H243886   7.943   7.178   6.136
14649TIP3   OH243887   3.511   7.780   2.348
14649TIP3    H143888   3.539   7.755   2.437
14649TIP3    H243889   3.475   7.700   2.311
14650TIP3   OH243890   8.263   4.174   2.470
14650TIP3    H143891   8.293   4.230   2.541
14650TIP3    H243892   8.290   4.086   2.495
14651TIP3   OH243893   3.648   5.492   1.379
14651TIP3    H143894   3.678   5.553   1.312
14651TIP3    H243895   3.728   5.464   1.424
14652TIP3   OH243896   2.579   3.705   1.682
14652TIP3    H143897   2.552   3.651   1.757
14652TIP3    H243898   2.498   3.727   1.637
14653TIP3   OH243899   5.431   1.721   5.838
14653TIP3    H143900   5.492   1.648   5.854
14653TIP3    H243901   5.366   1.713   5.908
14654TIP3   OH243902   0.587   0.267   6.453
14654TIP3    H143903   0.608   0.360   6.444
14654TIP3    H243904   0.513   0.254   6.393
14655TIP3   OH243905   6.447   3.584   5.864
14655TIP3    H143906   6.405   3.563   5.780
14655TIP3    H243907   6.416   3.517   5.924
14656TIP3   OH243908   3.466   6.781   2.507
14656TIP3    H143909   3.450   6.687   2.501
14656TIP3    H243910   3.557   6.788   2.535
14657TIP3   OH243911   1.714   0.620   3.791
14657TIP3    H143912   1.680   0.566   3.720
14657TIP3    H243913   1.659   0.699   3.790
14658TIP3   OH243914   4.244   4.060   1.717
14658TIP3    H143915   4.219   4.077   1.808
14658TIP3    H243916   4.266   3.967   1.716
14659TIP3   OH243917   5.890   2.528   2.358
14659TIP3    H143918   5.897   2.506   2.451
14659TIP3    H243919   5.926   2.617   2.352
14660TIP3   OH243920   0.056   2.112   3.492
14660TIP3    H143921   0.149   2.101   3.514
14660TIP3    H243922   0.011   2.044   3.542
14661TIP3   OH243923   4.134   2.098   3.173
14661TIP3    H143924   4.062   2.041   3.201
14661TIP3    H243925   4.095   2.186   3.172
14662TIP3   OH243926   3.268   1.690   5.169
14662TIP3    H143927   3.299   1.648   5.089
14662TIP3    H243928   3.348   1.715   5.216
14663TIP3   OH243929   6.838   4.824   3.761
14663TIP3    H143930   6.910   4.761   3.771
14663TIP3    H243931   6.799   4.830   3.848
14664TIP3   OH243932   5.881   2.123   3.852
14664TIP3    H143933   5.944   2.180   3.896
14664TIP3    H243934   5.880   2.154   3.762
14665TIP3   OH243935   3.282   1.685   1.185
14665TIP3    H143936   3.336   1.653   1.113
14665TIP3    H243937   3.234   1.759   1.149
14666TIP3   OH243938   6.002   0.927   3.842
14666TIP3    H143939   6.093   0.952   3.857
14666TIP3    H243940   5.951   0.996   3.886
14667TIP3   OH243941   2.786   5.427   2.349
14667TIP3    H143942   2.710   5.400   2.400
14667TIP3    H243943   2.808   5.514   2.382
14668TIP3   OH243944   0.384   0.175   3.371
14668TIP3    H143945   0.408   0.175   3.464
14668TIP3    H243946   0.374   0.268   3.349
14669TIP3   OH243947   6.149   6.430   1.603
14669TIP3    H143948   6.110   6.377   1.672
14669TIP3    H243949   6.154   6.518   1.640
14670TIP3   OH243950   1.170   6.283   6.879
14670TIP3    H143951   1.168   6.321   6.791
14670TIP3    H243952   1.151   6.191   6.866
14671TIP3   OH243953   0.311   6.517   4.066
14671TIP3    H143954   0.335   6.579   4.134
14671TIP3    H243955   0.390   6.507   4.013
14672TIP3   OH243956   0.196   3.888   6.361
14672TIP3    H143957   0.197   3.801   6.400
14672TIP3    H243958   0.270   3.888   6.300
14673TIP3   OH243959   6.695   2.651   4.358
14673TIP3    H143960   6.680   2.688   4.270
14673TIP3    H243961   6.632   2.698   4.414
14674TIP3   OH243962   4.721   6.877   2.235
14674TIP3    H143963   4.802   6.878   2.286
14674TIP3    H243964   4.719   6.962   2.191
14675TIP3   OH243965   0.619   0.748   1.625
14675TIP3    H143966   0.593   0.720   1.713
14675TIP3    H243967   0.545   0.800   1.593
14676TIP3   OH243968   7.139   7.001   6.514
14676TIP3    H143969   7.231   6.992   6.491
14676TIP3    H243970   7.119   6.923   6.565
14677TIP3   OH243971   6.894   3.580   5.447
14677TIP3    H143972   6.875   3.487   5.455
14677TIP3    H243973   6.850   3.621   5.522
14678TIP3   OH243974   2.426   1.540   6.697
14678TIP3    H143975   2.359   1.533   6.764
14678TIP3    H243976   2.450   1.633   6.696
14679TIP3   OH243977   4.309   7.838   5.304
14679TIP3    H143978   4.292   7.814   5.395
14679TIP3    H243979   4.286   7.930   5.299
14680TIP3   OH243980   7.528   5.816   0.374
14680TIP3    H143981   7.458   5.788   0.433
14680TIP3    H243982   7.606   5.823   0.429
14681TIP3   OH243983   7.009   2.465   0.965
14681TIP3    H143984   7.094   2.459   0.923
14681TIP3    H243985   7.015   2.407   1.041
14682TIP3   OH243986   4.940   7.795   4.017
14682TIP3    H143987   5.013   7.805   3.956
14682TIP3    H243988   4.884   7.871   4.000
14683TIP3   OH243989   8.033   5.600   4.868
14683TIP3    H143990   8.005   5.573   4.780
14683TIP3    H243991   7.958   5.646   4.905
14684TIP3   OH243992   8.277   4.207   0.916
14684TIP3    H143993   8.364   4.170   0.897
14684TIP3    H243994   8.226   4.132   0.947
14685TIP3   OH243995   1.098   6.604   3.209
14685TIP3    H143996   1.004   6.612   3.195
14685TIP3    H243997   1.124   6.688   3.247
14686TIP3   OH243998   2.902   5.189   2.873
14686TIP3    H143999   2.886   5.282   2.891
14686TIP3    H244000   2.816   5.148   2.883
14687TIP3   OH244001   6.234   2.771   5.560
14687TIP3    H144002   6.177   2.841   5.589
14687TIP3    H244003   6.185   2.726   5.492
14688TIP3   OH244004   4.833   3.030   3.183
14688TIP3    H144005   4.898   2.962   3.169
14688TIP3    H244006   4.757   3.002   3.131
14689TIP3   OH244007   5.451   6.560   6.485
14689TIP3    H144008   5.455   6.465   6.470
14689TIP3    H244009   5.536   6.592   6.454
14690TIP3   OH244010   0.084   6.203   5.765
14690TIP3    H144011   0.051   6.243   5.845
14690TIP3    H244012   0.143   6.269   5.728
14691TIP3   OH244013   7.567   3.835   4.405
14691TIP3    H144014   7.636   3.898   4.426
14691TIP3    H244015   7.600   3.787   4.329
14692TIP3   OH244016   8.362   5.117   0.723
14692TIP3    H144017   8.426   5.068   0.773
14692TIP3    H244018   8.414   5.160   0.654
14693TIP3   OH244019   2.479   3.278   2.348
14693TIP3    H144020   2.558   3.332   2.347
14693TIP3    H244021   2.409   3.340   2.372
14694TIP3   OH244022   5.480   1.530   5.582
14694TIP3    H144023   5.561   1.481   5.566
14694TIP3    H244024   5.499   1.581   5.661
14695TIP3   OH244025   4.441   0.155   1.494
14695TIP3    H144026   4.467   0.210   1.568
14695TIP3    H244027   4.432   0.216   1.421
14696TIP3   OH244028   1.427   5.219   6.455
14696TIP3    H144029   1.476   5.140   6.473
14696TIP3    H244030   1.416   5.260   6.541
14697TIP3   OH244031   4.211   7.229   0.799
14697TIP3    H144032   4.282   7.247   0.860
14697TIP3    H244033   4.148   7.300   0.813
14698TIP3   OH244034   0.346   5.300   0.092
14698TIP3    H144035   0.333   5.305  -0.003
14698TIP3    H244036   0.262   5.270   0.127
14699TIP3   OH244037   6.946   6.825   6.078
14699TIP3    H144038   6.936   6.863   6.165
14699TIP3    H244039   6.857   6.810   6.047
14700TIP3   OH244040   4.970   7.203   6.353
14700TIP3    H144041   5.047   7.174   6.305
14700TIP3    H244042   5.004   7.265   6.419
14701TIP3   OH244043   2.756   2.880   4.098
14701TIP3    H144044   2.686   2.895   4.162
14701TIP3    H244045   2.750   2.787   4.077
14702TIP3   OH244046   6.011   4.618   1.676
14702TIP3    H144047   6.037   4.616   1.583
14702TIP3    H244048   5.962   4.537   1.689
14703TIP3   OH244049   1.121   1.644   2.166
14703TIP3    H144050   1.161   1.716   2.117
14703TIP3    H244051   1.166   1.566   2.134
14704TIP3   OH244052   2.536   7.123   2.384
14704TIP3    H144053   2.559   7.143   2.474
14704TIP3    H244054   2.451   7.078   2.390
14705TIP3   OH244055   1.307   4.174   1.060
14705TIP3    H144056   1.342   4.097   1.105
14705TIP3    H244057   1.380   4.208   1.009
14706TIP3   OH244058   7.615   3.857   1.021
14706TIP3    H144059   7.524   3.876   0.999
14706TIP3    H244060   7.616   3.762   1.038
14707TIP3   OH244061   1.588   5.152   0.891
14707TIP3    H144062   1.525   5.094   0.935
14707TIP3    H244063   1.559   5.240   0.913
14708TIP3   OH244064   6.692   2.506   5.573
14708TIP3    H144065   6.689   2.561   5.494
14708TIP3    H244066   6.738   2.558   5.638
14709TIP3   OH244067   6.320   7.464   6.083
14709TIP3    H144068   6.296   7.422   6.165
14709TIP3    H244069   6.325   7.557   6.104
14710TIP3   OH244070   4.737   4.836   1.649
14710TIP3    H144071   4.698   4.923   1.644
14710TIP3    H244072   4.715   4.804   1.736
14711TIP3   OH244073   7.867   0.461   0.267
14711TIP3    H144074   7.924   0.530   0.235
14711TIP3    H244075   7.827   0.425   0.188
14712TIP3   OH244076   3.376   7.287   1.335
14712TIP3    H144077   3.428   7.295   1.255
14712TIP3    H244078   3.331   7.203   1.326
14713TIP3   OH244079   8.217   6.169   2.954
14713TIP3    H144080   8.156   6.132   3.018
14713TIP3    H244081   8.259   6.242   3.001
14714TIP3   OH244082   2.064   3.258   5.147
14714TIP3    H144083   2.123   3.310   5.202
14714TIP3    H244084   2.018   3.323   5.093
14715TIP3   OH244085   1.073   6.307   0.459
14715TIP3    H144086   1.045   6.252   0.532
14715TIP3    H244087   1.060   6.253   0.382
14716TIP3   OH244088   1.517   6.761   5.810
14716TIP3    H144089   1.498   6.672   5.837
14716TIP3    H244090   1.589   6.753   5.748
14717TIP3   OH244091   4.594   5.666   2.438
14717TIP3    H144092   4.547   5.588   2.467
14717TIP3    H244093   4.583   5.729   2.509
14718TIP3   OH244094   0.460   6.189   4.052
14718TIP3    H144095   0.538   6.141   4.080
14718TIP3    H244096   0.492   6.247   3.982
14719TIP3   OH244097   4.943   7.885   6.258
14719TIP3    H144098   5.023   7.832   6.257
14719TIP3    H244099   4.973   7.974   6.275
14720TIP3   OH244100   4.791   4.037   2.537
14720TIP3    H144101   4.839   4.011   2.615
14720TIP3    H244102   4.703   4.059   2.568
14721TIP3   OH244103   4.626   6.015   4.141
14721TIP3    H144104   4.619   6.016   4.236
14721TIP3    H244105   4.716   5.988   4.123
14722TIP3   OH244106   5.565   0.681   1.743
14722TIP3    H144107   5.531   0.668   1.831
14722TIP3    H244108   5.576   0.775   1.735
14723TIP3   OH244109   7.193   5.418   5.110
14723TIP3    H144110   7.233   5.332   5.104
14723TIP3    H244111   7.114   5.404   5.162
14724TIP3   OH244112   2.293   7.458   0.948
14724TIP3    H144113   2.319   7.540   0.990
14724TIP3    H244114   2.248   7.409   1.016
14725TIP3   OH244115   6.410   2.094   3.993
14725TIP3    H144116   6.444   2.180   4.019
14725TIP3    H244117   6.316   2.100   4.013
14726TIP3   OH244118   2.768   7.545   3.161
14726TIP3    H144119   2.725   7.545   3.247
14726TIP3    H244120   2.786   7.453   3.143
14727TIP3   OH244121   4.772   2.941   0.746
14727TIP3    H144122   4.790   2.880   0.675
14727TIP3    H244123   4.738   3.019   0.702
14728TIP3   OH244124   3.324   1.685   2.559
14728TIP3    H144125   3.418   1.675   2.578
14728TIP3    H244126   3.294   1.751   2.621
14729TIP3   OH244127   3.725   2.316   5.756
14729TIP3    H144128   3.753   2.319   5.847
14729TIP3    H244129   3.784   2.252   5.715
14730TIP3   OH244130   1.288   4.264   4.288
14730TIP3    H144131   1.258   4.353   4.269
14730TIP3    H244132   1.232   4.236   4.361
14731TIP3   OH244133   4.864   5.829   1.710
14731TIP3    H144134   4.840   5.877   1.631
14731TIP3    H244135   4.780   5.808   1.751
14732TIP3   OH244136   2.453   3.385   1.172
14732TIP3    H144137   2.414   3.448   1.112
14732TIP3    H244138   2.538   3.363   1.132
14733TIP3   OH244139   4.236   5.410   6.864
14733TIP3    H144140   4.170   5.374   6.804
14733TIP3    H244141   4.278   5.480   6.814
14734TIP3   OH244142   1.179   4.471   1.085
14734TIP3    H144143   1.242   4.479   1.014
14734TIP3    H244144   1.176   4.558   1.125
14735TIP3   OH244145   5.354   3.751   0.972
14735TIP3    H144146   5.400   3.815   1.027
14735TIP3    H244147   5.295   3.706   1.033
14736TIP3   OH244148   6.674   4.604   4.131
14736TIP3    H144149   6.673   4.685   4.081
14736TIP3    H244150   6.592   4.604   4.180
14737TIP3   OH244151   5.764   4.042   4.887
14737TIP3    H144152   5.758   4.137   4.878
14737TIP3    H244153   5.779   4.011   4.798
14738TIP3   OH244154   4.219   4.809   4.258
14738TIP3    H144155   4.205   4.832   4.167
14738TIP3    H244156   4.259   4.887   4.297
14739TIP3   OH244157   4.962   3.849   6.681
14739TIP3    H144158   4.869   3.854   6.703
14739TIP3    H244159   4.994   3.775   6.733
14740TIP3   OH244160   4.329   5.925   0.908
14740TIP3    H144161   4.418   5.954   0.931
14740TIP3    H244162   4.277   5.943   0.987
14741TIP3   OH244163   2.203   2.003   5.273
14741TIP3    H144164   2.212   2.095   5.250
14741TIP3    H244165   2.185   1.959   5.190
14742TIP3   OH244166   4.619   0.872   4.236
14742TIP3    H144167   4.676   0.810   4.191
14742TIP3    H244168   4.679   0.928   4.285
14743TIP3   OH244169   0.579   5.649   4.746
14743TIP3    H144170   0.525   5.582   4.788
14743TIP3    H244171   0.667   5.634   4.779
14744TIP3   OH244172   0.304   3.596   2.153
14744TIP3    H144173   0.275   3.663   2.091
14744TIP3    H244174   0.392   3.571   2.123
14745TIP3   OH244175   0.017   5.454   4.318
14745TIP3    H144176   0.075   5.468   4.393
14745TIP3    H244177   0.017   5.359   4.305
14746TIP3   OH244178   6.991   4.248   6.727
14746TIP3    H144179   6.944   4.317   6.774
14746TIP3    H244180   7.041   4.296   6.660
14747TIP3   OH244181   6.415   4.512   5.701
14747TIP3    H144182   6.438   4.421   5.686
14747TIP3    H244183   6.384   4.543   5.616
14748TIP3   OH244184   7.308   4.166   4.763
14748TIP3    H144185   7.315   4.260   4.747
14748TIP3    H244186   7.299   4.158   4.858
14749TIP3   OH244187   4.891   5.765   5.894
14749TIP3    H144188   4.935   5.793   5.815
14749TIP3    H244189   4.836   5.839   5.919
14750TIP3   OH244190   2.833   5.250   1.764
14750TIP3    H144191   2.766   5.318   1.775
14750TIP3    H244192   2.910   5.284   1.809
14751TIP3   OH244193   4.129   4.797   5.407
14751TIP3    H144194   4.107   4.872   5.352
14751TIP3    H244195   4.219   4.777   5.384
14752TIP3   OH244196   6.032   0.390   2.431
14752TIP3    H144197   6.100   0.395   2.364
14752TIP3    H244198   6.074   0.423   2.510
14753TIP3   OH244199   2.404   4.560   1.474
14753TIP3    H144200   2.370   4.490   1.530
14753TIP3    H244201   2.496   4.567   1.499
14754TIP3   OH244202   3.761   1.092   2.214
14754TIP3    H144203   3.811   1.043   2.149
14754TIP3    H244204   3.676   1.048   2.218
14755TIP3   OH244205   7.003   2.753   3.146
14755TIP3    H144206   7.038   2.810   3.215
14755TIP3    H244207   6.950   2.689   3.193
14756TIP3   OH244208   5.745   5.071   4.342
14756TIP3    H144209   5.670   5.078   4.400
14756TIP3    H244210   5.715   5.014   4.271
14757TIP3   OH244211   2.733   3.672   4.112
14757TIP3    H144212   2.666   3.606   4.131
14757TIP3    H244213   2.756   3.657   4.020
14758TIP3   OH244214   5.872   1.586   3.896
14758TIP3    H144215   5.799   1.563   3.953
14758TIP3    H244216   5.927   1.643   3.950
14759TIP3   OH244217   5.220   1.231   5.646
14759TIP3    H144218   5.149   1.186   5.600
14759TIP3    H244219   5.299   1.202   5.601
14760TIP3   OH244220   1.097   7.104   2.473
14760TIP3    H144221   1.158   7.104   2.546
14760TIP3    H244222   1.151   7.079   2.397
14761TIP3   OH244223   6.643   0.065   2.374
14761TIP3    H144224   6.622  -0.010   2.430
14761TIP3    H244225   6.601   0.046   2.291
14762TIP3   OH244226   2.489   0.244   6.263
14762TIP3    H144227   2.424   0.225   6.195
14762TIP3    H244228   2.553   0.173   6.256
14763TIP3   OH244229   6.578   4.562   1.288
14763TIP3    H144230   6.514   4.584   1.221
14763TIP3    H244231   6.528   4.515   1.355
14764TIP3   OH244232   0.861   3.223   3.070
14764TIP3    H144233   0.931   3.165   3.101
14764TIP3    H244234   0.852   3.289   3.139
14765TIP3   OH244235   3.855   6.515   6.678
14765TIP3    H144236   3.901   6.499   6.596
14765TIP3    H244237   3.790   6.582   6.655
14766TIP3   OH244238   1.673   2.139   1.125
14766TIP3    H144239   1.764   2.155   1.101
14766TIP3    H244240   1.626   2.217   1.094
14767TIP3   OH244241   2.028   2.445   3.509
14767TIP3    H144242   2.034   2.425   3.603
14767TIP3    H244243   1.968   2.378   3.475
14768TIP3   OH244244   2.190   4.220   3.420
14768TIP3    H144245   2.228   4.133   3.427
14768TIP3    H244246   2.216   4.251   3.333
14769TIP3   OH244247   5.314   0.358   6.628
14769TIP3    H144248   5.270   0.321   6.551
14769TIP3    H244249   5.266   0.321   6.702
14770TIP3   OH244250   2.144   2.353   4.110
14770TIP3    H144251   2.126   2.437   4.067
14770TIP3    H244252   2.230   2.365   4.150
14771TIP3   OH244253   1.440   5.876   5.532
14771TIP3    H144254   1.476   5.955   5.490
14771TIP3    H244255   1.517   5.825   5.555
14772TIP3   OH244256   5.995   4.078   2.348
14772TIP3    H144257   5.971   4.031   2.428
14772TIP3    H244258   5.964   4.022   2.277
14773TIP3   OH244259   1.564   3.399   2.791
14773TIP3    H144260   1.477   3.378   2.758
14773TIP3    H244261   1.563   3.371   2.882
14774TIP3   OH244262   5.724   0.278   1.486
14774TIP3    H144263   5.656   0.286   1.553
14774TIP3    H244264   5.720   0.361   1.438
14775TIP3   OH244265   8.289   5.087   2.636
14775TIP3    H144266   8.300   5.132   2.552
14775TIP3    H244267   8.256   5.001   2.612
14776TIP3   OH244268   4.967   1.084   1.352
14776TIP3    H144269   5.016   1.004   1.370
14776TIP3    H244270   4.875   1.057   1.354
14777TIP3   OH244271   6.965   2.342   5.478
14777TIP3    H144272   6.986   2.273   5.415
14777TIP3    H244273   6.880   2.316   5.514
14778TIP3   OH244274   6.120   4.876   1.186
14778TIP3    H144275   6.128   4.948   1.124
14778TIP3    H244276   6.179   4.898   1.258
14779TIP3   OH244277   1.127   3.835   1.990
14779TIP3    H144278   1.205   3.889   1.972
14779TIP3    H244279   1.161   3.746   1.996
14780TIP3   OH244280   5.906   3.198   4.911
14780TIP3    H144281   5.937   3.208   4.821
14780TIP3    H244282   5.810   3.201   4.904
14781TIP3   OH244283   5.405   4.283   2.042
14781TIP3    H144284   5.443   4.318   1.961
14781TIP3    H244285   5.426   4.348   2.109
14782TIP3   OH244286   3.383   7.767   5.837
14782TIP3    H144287   3.470   7.798   5.814
14782TIP3    H244288   3.326   7.801   5.768
14783TIP3   OH244289   2.586   2.130   4.020
14783TIP3    H144290   2.600   2.041   3.988
14783TIP3    H244291   2.494   2.149   4.001
14784TIP3   OH244292   8.086   4.809   0.055
14784TIP3    H144293   8.166   4.806   0.107
14784TIP3    H244294   8.064   4.717   0.040
14785TIP3   OH244295   2.566   6.802   0.933
14785TIP3    H144296   2.477   6.823   0.963
14785TIP3    H244297   2.613   6.885   0.938
14786TIP3   OH244298   5.331   6.671   0.054
14786TIP3    H144299   5.412   6.632   0.020
14786TIP3    H244300   5.361   6.741   0.112
14787TIP3   OH244301   6.400   6.683   0.421
14787TIP3    H144302   6.400   6.748   0.350
14787TIP3    H244303   6.447   6.726   0.492
14788TIP3   OH244304   7.253   4.363   2.429
14788TIP3    H144305   7.334   4.386   2.384
14788TIP3    H244306   7.246   4.268   2.421
14789TIP3   OH244307   0.976   3.321   6.301
14789TIP3    H144308   1.025   3.377   6.360
14789TIP3    H244309   1.030   3.242   6.292
14790TIP3   OH244310   3.238   1.599   3.721
14790TIP3    H144311   3.276   1.532   3.778
14790TIP3    H244312   3.144   1.581   3.721
14791TIP3   OH244313   5.557   1.715   1.829
14791TIP3    H144314   5.548   1.622   1.849
14791TIP3    H244315   5.577   1.756   1.914
14792TIP3   OH244316   1.899   3.542   0.429
14792TIP3    H144317   1.818   3.507   0.465
14792TIP3    H244318   1.955   3.558   0.505
14793TIP3   OH244319   8.157   7.499   2.989
14793TIP3    H144320   8.227   7.525   2.929
14793TIP3    H244321   8.138   7.408   2.965
14794TIP3   OH244322   3.897   1.710   0.288
14794TIP3    H144323   3.965   1.731   0.224
14794TIP3    H244324   3.945   1.686   0.367
14795TIP3   OH244325   5.207   7.050   5.068
14795TIP3    H144326   5.131   7.074   5.015
14795TIP3    H244327   5.196   7.100   5.149
14796TIP3   OH244328   0.523   4.529   0.247
14796TIP3    H144329   0.442   4.545   0.294
14796TIP3    H244330   0.495   4.509   0.157
14797TIP3   OH244331   2.605   1.630   4.463
14797TIP3    H144332   2.691   1.631   4.420
14797TIP3    H244333   2.545   1.598   4.395
14798TIP3   OH244334   4.001   6.731   6.042
14798TIP3    H144335   3.965   6.704   6.126
14798TIP3    H244336   3.927   6.767   5.993
14799TIP3   OH244337   7.749   3.727   0.389
14799TIP3    H144338   7.684   3.788   0.424
14799TIP3    H244339   7.780   3.678   0.466
14800TIP3   OH244340   3.409   2.764   5.132
14800TIP3    H144341   3.487   2.729   5.176
14800TIP3    H244342   3.442   2.837   5.080
14801TIP3   OH244343   5.908   6.667   2.964
14801TIP3    H144344   5.926   6.706   3.050
14801TIP3    H244345   5.980   6.696   2.909
14802TIP3   OH244346   2.088   5.483   5.042
14802TIP3    H144347   2.150   5.414   5.019
14802TIP3    H244348   2.017   5.437   5.086
14803TIP3   OH244349   3.508   5.993   4.727
14803TIP3    H144350   3.420   6.013   4.758
14803TIP3    H244351   3.563   6.060   4.768
14804TIP3   OH244352   6.034   1.295   2.734
14804TIP3    H144353   6.073   1.376   2.767
14804TIP3    H244354   5.949   1.290   2.778
14805TIP3   OH244355   1.941   1.788   0.721
14805TIP3    H144356   1.924   1.767   0.629
14805TIP3    H244357   1.879   1.735   0.770
14806TIP3   OH244358   1.301   7.933   0.481
14806TIP3    H144359   1.387   7.897   0.500
14806TIP3    H244360   1.275   7.893   0.398
14807TIP3   OH244361   4.490   2.269   6.779
14807TIP3    H144362   4.498   2.245   6.687
14807TIP3    H244363   4.561   2.221   6.823
14808TIP3   OH244364   2.728   4.727   1.541
14808TIP3    H144365   2.670   4.802   1.527
14808TIP3    H244366   2.690   4.681   1.615
14809TIP3   OH244367   2.816   6.064   1.590
14809TIP3    H144368   2.741   6.064   1.530
14809TIP3    H244369   2.798   6.135   1.651
14810TIP3   OH244370   0.859   4.600   6.827
14810TIP3    H144371   0.769   4.630   6.814
14810TIP3    H244372   0.890   4.581   6.739
14811TIP3   OH244373   5.650   1.324   4.393
14811TIP3    H144374   5.655   1.360   4.305
14811TIP3    H244375   5.709   1.248   4.391
14812TIP3   OH244376   4.375   5.081   1.903
14812TIP3    H144377   4.367   5.019   1.830
14812TIP3    H244378   4.332   5.038   1.976
14813TIP3   OH244379   6.793   0.966   4.023
14813TIP3    H144380   6.876   0.939   4.062
14813TIP3    H244381   6.735   0.890   4.033
14814TIP3   OH244382   5.083   3.111   4.408
14814TIP3    H144383   5.141   3.184   4.388
14814TIP3    H244384   5.016   3.114   4.340
14815TIP3   OH244385   0.283   6.648   1.217
14815TIP3    H144386   0.317   6.643   1.306
14815TIP3    H244387   0.188   6.643   1.227
14816TIP3   OH244388   4.830   4.656   3.759
14816TIP3    H144389   4.793   4.583   3.809
14816TIP3    H244390   4.825   4.627   3.668
14817TIP3   OH244391   4.589   2.213   1.726
14817TIP3    H144392   4.633   2.297   1.739
14817TIP3    H244393   4.578   2.177   1.814
14818TIP3   OH244394   2.621   2.919   4.720
14818TIP3    H144395   2.560   2.855   4.758
14818TIP3    H244396   2.696   2.919   4.779
14819TIP3   OH244397   1.396   6.427   1.249
14819TIP3    H144398   1.463   6.494   1.265
14819TIP3    H244399   1.439   6.344   1.269
14820TIP3   OH244400   4.044   6.383   2.027
14820TIP3    H144401   3.978   6.326   1.988
14820TIP3    H244402   4.126   6.358   1.984
14821TIP3   OH244403   4.672   1.297   5.047
14821TIP3    H144404   4.637   1.268   5.131
14821TIP3    H244405   4.732   1.227   5.020
14822TIP3   OH244406   5.332   2.813   6.575
14822TIP3    H144407   5.337   2.758   6.653
14822TIP3    H244408   5.238   2.832   6.564
14823TIP3   OH244409  -0.019   7.888   1.671
14823TIP3    H144410   0.066   7.932   1.681
14823TIP3    H244411  -0.025   7.869   1.577
14824TIP3   OH244412   6.287   0.720   2.207
14824TIP3    H144413   6.366   0.725   2.154
14824TIP3    H244414   6.276   0.808   2.243
14825TIP3   OH244415   5.875   5.300   0.038
14825TIP3    H144416   5.970   5.311   0.033
14825TIP3    H244417   5.841   5.387   0.057
14826TIP3   OH244418   7.591   5.836   5.800
14826TIP3    H144419   7.561   5.859   5.888
14826TIP3    H244420   7.593   5.740   5.800
14827TIP3   OH244421   4.627   1.283   6.837
14827TIP3    H144422   4.601   1.341   6.765
14827TIP3    H244423   4.635   1.197   6.798
14828TIP3   OH244424   5.639   1.566   2.554
14828TIP3    H144425   5.711   1.506   2.574
14828TIP3    H244426   5.656   1.642   2.609
14829TIP3   OH244427   4.410   2.020   6.204
14829TIP3    H144428   4.381   2.027   6.113
14829TIP3    H244429   4.398   2.108   6.240
14830TIP3   OH244430   1.735   0.588   1.029
14830TIP3    H144431   1.745   0.534   0.951
14830TIP3    H244432   1.649   0.628   1.021
14831TIP3   OH244433   5.419   0.077   5.586
14831TIP3    H144434   5.485   0.121   5.640
14831TIP3    H244435   5.360   0.148   5.558
14832TIP3   OH244436   5.542   3.841   3.903
14832TIP3    H144437   5.509   3.867   3.989
14832TIP3    H244438   5.633   3.870   3.902
14833TIP3   OH244439   1.892   0.569   0.782
14833TIP3    H144440   1.834   0.636   0.745
14833TIP3    H244441   1.974   0.578   0.733
14834TIP3   OH244442   5.299   0.209   2.380
14834TIP3    H144443   5.389   0.217   2.349
14834TIP3    H244444   5.246   0.218   2.301
14835TIP3   OH244445   5.326   6.528   5.923
14835TIP3    H144446   5.314   6.573   5.839
14835TIP3    H244447   5.407   6.565   5.958
14836TIP3   OH244448   3.985   6.967   6.869
14836TIP3    H144449   3.915   6.944   6.808
14836TIP3    H244450   4.033   7.037   6.825
14837TIP3   OH244451   4.184   1.848   5.856
14837TIP3    H144452   4.091   1.864   5.843
14837TIP3    H244453   4.188   1.762   5.897
14838TIP3   OH244454   7.851   0.283   5.116
14838TIP3    H144455   7.907   0.227   5.170
14838TIP3    H244456   7.767   0.284   5.163
14839TIP3   OH244457   2.247   5.066   5.569
14839TIP3    H144458   2.271   4.998   5.632
14839TIP3    H244459   2.163   5.100   5.601
14840TIP3   OH244460   7.459   3.052   0.161
14840TIP3    H144461   7.523   2.987   0.130
14840TIP3    H244462   7.453   3.116   0.091
14841TIP3   OH244463   3.428   4.511   6.181
14841TIP3    H144464   3.521   4.515   6.161
14841TIP3    H244465   3.400   4.425   6.149
14842TIP3   OH244466   8.081   5.785   3.955
14842TIP3    H144467   8.078   5.689   3.955
14842TIP3    H244468   7.989   5.812   3.951
14843TIP3   OH244469   2.088   3.224   3.612
14843TIP3    H144470   2.108   3.297   3.671
14843TIP3    H244471   1.994   3.208   3.624
14844TIP3   OH244472   6.226   5.971   3.607
14844TIP3    H144473   6.229   5.905   3.537
14844TIP3    H244474   6.172   5.931   3.675
14845TIP3   OH244475   0.144   4.864   0.302
14845TIP3    H144476   0.143   4.944   0.355
14845TIP3    H244477   0.076   4.879   0.236
14846TIP3   OH244478   3.189   4.978   1.935
14846TIP3    H144479   3.170   5.031   1.857
14846TIP3    H244480   3.111   4.926   1.948
14847TIP3   OH244481   6.864   4.167   0.930
14847TIP3    H144482   6.863   4.223   0.853
14847TIP3    H244483   6.772   4.165   0.959
14848TIP3   OH244484   4.571   7.277   6.714
14848TIP3    H144485   4.617   7.251   6.794
14848TIP3    H244486   4.619   7.353   6.683
14849TIP3   OH244487   0.096   6.936   0.148
14849TIP3    H144488   0.129   6.984   0.223
14849TIP3    H244489   0.018   6.891   0.180
14850TIP3   OH244490   6.182   0.438   0.585
14850TIP3    H144491   6.191   0.501   0.513
14850TIP3    H244492   6.265   0.390   0.585
14851TIP3   OH244493   4.445   1.761   0.854
14851TIP3    H144494   4.528   1.728   0.822
14851TIP3    H244495   4.469   1.826   0.920
14852TIP3   OH244496   2.856   0.605   0.201
14852TIP3    H144497   2.940   0.644   0.225
14852TIP3    H244498   2.876   0.513   0.184
14853TIP3   OH244499   8.198   0.623   1.668
14853TIP3    H144500   8.200   0.645   1.575
14853TIP3    H244501   8.214   0.529   1.671
14854TIP3   OH244502   4.901   2.709   5.759
14854TIP3    H144503   4.973   2.654   5.730
14854TIP3    H244504   4.922   2.730   5.850
14855TIP3   OH244505   7.623   3.222   1.742
14855TIP3    H144506   7.541   3.246   1.786
14855TIP3    H244507   7.691   3.236   1.809
14856TIP3   OH244508   5.285   0.489   5.210
14856TIP3    H144509   5.236   0.458   5.133
14856TIP3    H244510   5.358   0.427   5.218
14857TIP3   OH244511   2.298   7.203   2.905
14857TIP3    H144512   2.356   7.127   2.918
14857TIP3    H244513   2.266   7.194   2.815
14858TIP3   OH244514   0.330   1.072   5.011
14858TIP3    H144515   0.357   1.034   4.928
14858TIP3    H244516   0.237   1.051   5.018
14859TIP3   OH244517   7.304   2.516   2.157
14859TIP3    H144518   7.347   2.431   2.145
14859TIP3    H244519   7.276   2.517   2.248
14860TIP3   OH244520   4.357   2.590   6.841
14860TIP3    H144521   4.410   2.513   6.822
14860TIP3    H244522   4.416   2.648   6.890
14861TIP3   OH244523   1.079   1.856   4.102
14861TIP3    H144524   1.130   1.778   4.080
14861TIP3    H244525   0.995   1.842   4.060
14862TIP3   OH244526   5.436   5.865   3.585
14862TIP3    H144527   5.525   5.838   3.610
14862TIP3    H244528   5.445   5.957   3.562
14863TIP3   OH244529   0.068   0.555   3.672
14863TIP3    H144530   0.060   0.524   3.763
14863TIP3    H244531   0.073   0.650   3.680
14864TIP3   OH244532   2.503   6.807   5.891
14864TIP3    H144533   2.443   6.836   5.822
14864TIP3    H244534   2.536   6.889   5.928
14865TIP3   OH244535   3.561   7.184   4.930
14865TIP3    H144536   3.544   7.251   4.864
14865TIP3    H244537   3.577   7.234   5.011
14866TIP3   OH244538   4.322   4.485   4.535
14866TIP3    H144539   4.281   4.484   4.622
14866TIP3    H244540   4.357   4.396   4.524
14867TIP3   OH244541   5.113   1.601   5.352
14867TIP3    H144542   5.133   1.588   5.259
14867TIP3    H244543   5.066   1.522   5.377
14868TIP3   OH244544   3.317   6.892   5.977
14868TIP3    H144545   3.294   6.837   6.052
14868TIP3    H244546   3.258   6.863   5.908
14869TIP3   OH244547   8.311   7.609   0.523
14869TIP3    H144548   8.321   7.590   0.429
14869TIP3    H244549   8.386   7.567   0.564
14870TIP3   OH244550   0.002   3.377   1.478
14870TIP3    H144551  -0.024   3.462   1.513
14870TIP3    H244552   0.055   3.398   1.401
14871TIP3   OH244553   7.346   3.058   3.770
14871TIP3    H144554   7.337   3.055   3.865
14871TIP3    H244555   7.370   2.969   3.745
14872TIP3   OH244556   2.873   1.241   1.126
14872TIP3    H144557   2.784   1.209   1.139
14872TIP3    H244558   2.872   1.328   1.166
14873TIP3   OH244559   1.040   5.513   4.052
14873TIP3    H144560   1.103   5.584   4.068
14873TIP3    H244561   1.093   5.442   4.015
14874TIP3   OH244562   0.724   3.001   4.013
14874TIP3    H144563   0.793   2.949   3.971
14874TIP3    H244564   0.698   3.064   3.945
14875TIP3   OH244565   3.641   6.424   0.708
14875TIP3    H144566   3.717   6.443   0.653
14875TIP3    H244567   3.566   6.450   0.655
14876TIP3   OH244568   4.221   2.834   5.506
14876TIP3    H144569   4.151   2.840   5.441
14876TIP3    H244570   4.270   2.915   5.495
14877TIP3   OH244571   2.063   2.136   2.070
14877TIP3    H144572   2.088   2.219   2.030
14877TIP3    H244573   2.114   2.133   2.152
14878TIP3   OH244574   7.819   3.776   2.314
14878TIP3    H144575   7.769   3.840   2.263
14878TIP3    H244576   7.781   3.691   2.290
14879TIP3   OH244577   5.172   7.740   0.389
14879TIP3    H144578   5.099   7.697   0.343
14879TIP3    H244579   5.215   7.793   0.321
14880TIP3   OH244580   5.286   3.643   5.685
14880TIP3    H144581   5.226   3.713   5.657
14880TIP3    H244582   5.231   3.565   5.689
14881TIP3   OH244583   3.059   7.151   5.194
14881TIP3    H144584   3.066   7.173   5.286
14881TIP3    H244585   2.973   7.110   5.185
14882TIP3   OH244586   0.012   5.305   5.137
14882TIP3    H144587   0.039   5.396   5.125
14882TIP3    H244588   0.017   5.291   5.232
14883TIP3   OH244589   6.611   3.767   4.435
14883TIP3    H144590   6.614   3.784   4.529
14883TIP3    H244591   6.703   3.759   4.409
14884TIP3   OH244592   5.468   0.567   1.434
14884TIP3    H144593   5.399   0.578   1.499
14884TIP3    H244594   5.546   0.605   1.475
14885TIP3   OH244595   2.513   0.293   6.655
14885TIP3    H144596   2.536   0.374   6.609
14885TIP3    H244597   2.418   0.294   6.661
14886TIP3   OH244598   6.995   0.554   2.384
14886TIP3    H144599   7.008   0.646   2.407
14886TIP3    H244600   6.987   0.509   2.468
14887TIP3   OH244601   1.207   4.609   4.657
14887TIP3    H144602   1.167   4.672   4.598
14887TIP3    H244603   1.144   4.537   4.661
14888TIP3   OH244604   3.706   2.141   4.057
14888TIP3    H144605   3.638   2.196   4.020
14888TIP3    H244606   3.665   2.055   4.069
14889TIP3   OH244607   4.669   4.658   6.623
14889TIP3    H144608   4.635   4.634   6.709
14889TIP3    H244609   4.757   4.691   6.640
14890TIP3   OH244610   7.495   5.024   4.130
14890TIP3    H144611   7.535   4.990   4.050
14890TIP3    H244612   7.466   5.112   4.107
14891TIP3   OH244613   1.506   1.979   2.605
14891TIP3    H144614   1.448   2.025   2.665
14891TIP3    H244615   1.469   1.995   2.518
14892TIP3   OH244616   6.550   5.003   3.580
14892TIP3    H144617   6.537   5.039   3.668
14892TIP3    H244618   6.603   4.924   3.594
14893TIP3   OH244619   6.742   5.143   2.698
14893TIP3    H144620   6.729   5.210   2.765
14893TIP3    H244621   6.661   5.092   2.700
14894TIP3   OH244622   8.253   6.065   4.407
14894TIP3    H144623   8.188   6.037   4.343
14894TIP3    H244624   8.274   5.986   4.457
14895TIP3   OH244625   5.090   4.143   5.585
14895TIP3    H144626   5.067   4.186   5.667
14895TIP3    H244627   5.175   4.180   5.561
14896TIP3   OH244628   0.152   6.018   2.240
14896TIP3    H144629   0.091   5.945   2.231
14896TIP3    H244630   0.101   6.095   2.213
14897TIP3   OH244631   6.375   6.078   0.062
14897TIP3    H144632   6.420   6.156   0.028
14897TIP3    H244633   6.282   6.101   0.059
14898TIP3   OH244634   4.673   6.528   6.800
14898TIP3    H144635   4.672   6.532   6.705
14898TIP3    H244636   4.710   6.442   6.820
14899TIP3   OH244637   1.505   7.236   2.774
14899TIP3    H144638   1.575   7.199   2.721
14899TIP3    H244639   1.501   7.328   2.748
14900TIP3   OH244640   4.568   0.577   0.484
14900TIP3    H144641   4.518   0.641   0.435
14900TIP3    H244642   4.512   0.499   0.487
14901TIP3   OH244643   4.454   7.361   6.308
14901TIP3    H144644   4.441   7.422   6.381
14901TIP3    H244645   4.546   7.337   6.313
14902TIP3   OH244646   3.352   5.933   2.704
14902TIP3    H144647   3.324   5.943   2.614
14902TIP3    H244648   3.408   5.855   2.704
14903TIP3   OH244649   6.745   7.425   1.012
14903TIP3    H144650   6.794   7.358   1.060
14903TIP3    H244651   6.809   7.464   0.953
14904TIP3   OH244652   5.876   2.254   1.743
14904TIP3    H144653   5.782   2.244   1.725
14904TIP3    H244654   5.883   2.341   1.782
14905TIP3   OH244655   2.181   5.070   3.997
14905TIP3    H144656   2.243   5.130   4.038
14905TIP3    H244657   2.098   5.119   3.995
14906TIP3   OH244658   1.959   3.715   0.971
14906TIP3    H144659   1.988   3.645   0.913
14906TIP3    H244660   1.944   3.672   1.055
14907TIP3   OH244661   6.244   5.417   1.127
14907TIP3    H144662   6.164   5.420   1.181
14907TIP3    H244663   6.315   5.410   1.191
14908TIP3   OH244664   3.755   1.576   0.849
14908TIP3    H144665   3.745   1.630   0.771
14908TIP3    H244666   3.844   1.541   0.843
14909TIP3   OH244667   0.032   3.228   0.556
14909TIP3    H144668   0.049   3.311   0.512
14909TIP3    H244669  -0.036   3.249   0.620
14910TIP3   OH244670   5.474   3.618   2.006
14910TIP3    H144671   5.429   3.544   2.048
14910TIP3    H244672   5.565   3.590   1.999
14911TIP3   OH244673   5.588   0.923   5.996
14911TIP3    H144674   5.498   0.889   6.003
14911TIP3    H244675   5.630   0.897   6.078
14912TIP3   OH244676   7.274   4.604   3.812
14912TIP3    H144677   7.180   4.585   3.820
14912TIP3    H244678   7.292   4.594   3.718
14913TIP3   OH244679   5.352   6.731   3.323
14913TIP3    H144680   5.271   6.778   3.346
14913TIP3    H244681   5.411   6.749   3.396
14914TIP3   OH244682   4.495   7.020   0.868
14914TIP3    H144683   4.497   7.066   0.951
14914TIP3    H244684   4.525   7.084   0.804
14915TIP3   OH244685   3.963   3.769   5.995
14915TIP3    H144686   3.915   3.708   5.939
14915TIP3    H244687   3.908   3.847   5.997
14916TIP3   OH244688   3.407   5.184   4.951
14916TIP3    H144689   3.444   5.153   5.034
14916TIP3    H244690   3.410   5.108   4.894
14917TIP3   OH244691   5.143   2.394   0.711
14917TIP3    H144692   5.165   2.471   0.764
14917TIP3    H244693   5.206   2.397   0.639
14918TIP3   OH244694   6.501   6.535   0.770
14918TIP3    H144695   6.593   6.558   0.756
14918TIP3    H244696   6.481   6.471   0.702
14919TIP3   OH244697   0.905   2.482   4.413
14919TIP3    H144698   0.933   2.412   4.472
14919TIP3    H244699   0.865   2.436   4.340
14920TIP3   OH244700   3.633   1.829   1.552
14920TIP3    H144701   3.655   1.768   1.623
14920TIP3    H244702   3.670   1.788   1.474
14921TIP3   OH244703   3.644   5.250   2.640
14921TIP3    H144704   3.598   5.320   2.686
14921TIP3    H244705   3.736   5.261   2.665
14922TIP3   OH244706   5.341   4.826   5.424
14922TIP3    H144707   5.293   4.906   5.445
14922TIP3    H244708   5.420   4.856   5.380
14923TIP3   OH244709   8.371   3.731   4.797
14923TIP3    H144710   8.407   3.643   4.785
14923TIP3    H244711   8.433   3.788   4.752
14924TIP3   OH244712   2.260   3.800   6.082
14924TIP3    H144713   2.203   3.754   6.143
14924TIP3    H244714   2.252   3.752   6.000
14925TIP3   OH244715   1.204   2.234   1.624
14925TIP3    H144716   1.156   2.154   1.601
14925TIP3    H244717   1.174   2.299   1.560
14926TIP3   OH244718   4.274   4.132   3.068
14926TIP3    H144719   4.207   4.070   3.095
14926TIP3    H244720   4.248   4.215   3.109
14927TIP3   OH244721   8.113   2.575   1.796
14927TIP3    H144722   8.089   2.610   1.711
14927TIP3    H244723   8.158   2.493   1.776
14928TIP3   OH244724   5.073   2.343   1.038
14928TIP3    H144725   5.136   2.277   1.010
14928TIP3    H244726   5.093   2.420   0.985
14929TIP3   OH244727   0.454   1.097   5.246
14929TIP3    H144728   0.433   1.092   5.153
14929TIP3    H244729   0.390   1.158   5.282
14930TIP3   OH244730   0.578   3.033   5.879
14930TIP3    H144731   0.489   3.054   5.908
14930TIP3    H244732   0.632   3.046   5.958
14931TIP3   OH244733   3.501   1.050   4.078
14931TIP3    H144734   3.471   0.964   4.050
14931TIP3    H244735   3.572   1.032   4.140
14932TIP3   OH244736   1.598   4.595   1.649
14932TIP3    H144737   1.616   4.502   1.643
14932TIP3    H244738   1.507   4.600   1.678
14933TIP3   OH244739   2.113   4.207   6.491
14933TIP3    H144740   2.113   4.298   6.519
14933TIP3    H244741   2.180   4.166   6.546
14934TIP3   OH244742   0.630   4.642   4.799
14934TIP3    H144743   0.561   4.620   4.736
14934TIP3    H244744   0.586   4.638   4.884
14935TIP3   OH244745   2.757   7.804   6.200
14935TIP3    H144746   2.789   7.736   6.260
14935TIP3    H244747   2.823   7.807   6.131
14936TIP3   OH244748   7.604   4.643   1.819
14936TIP3    H144749   7.519   4.687   1.827
14936TIP3    H244750   7.643   4.652   1.906
14937TIP3   OH244751   7.595   4.119   5.493
14937TIP3    H144752   7.532   4.086   5.428
14937TIP3    H244753   7.583   4.062   5.569
14938TIP3   OH244754   5.559   7.557   0.352
14938TIP3    H144755   5.631   7.607   0.391
14938TIP3    H244756   5.567   7.574   0.258
14939TIP3   OH244757   2.646   5.124   2.828
14939TIP3    H144758   2.627   5.037   2.862
14939TIP3    H244759   2.641   5.114   2.733
14940TIP3   OH244760   7.972   1.223   2.994
14940TIP3    H144761   7.912   1.195   3.064
14940TIP3    H244762   8.035   1.281   3.037
14941TIP3   OH244763   4.076   1.849   1.565
14941TIP3    H144764   4.080   1.809   1.478
14941TIP3    H244765   4.111   1.781   1.624
14942TIP3   OH244766   8.200   7.309   6.353
14942TIP3    H144767   8.140   7.277   6.285
14942TIP3    H244768   8.229   7.394   6.321
14943TIP3   OH244769   6.974   1.049   4.648
14943TIP3    H144770   7.045   1.073   4.589
14943TIP3    H244771   6.959   1.127   4.701
14944TIP3   OH244772   6.819   7.718   3.898
14944TIP3    H144773   6.762   7.686   3.828
14944TIP3    H244774   6.855   7.800   3.864
14945TIP3   OH244775   3.288   6.005   5.413
14945TIP3    H144776   3.223   6.058   5.459
14945TIP3    H244777   3.266   5.915   5.438
14946TIP3   OH244778   0.804   2.414   4.996
14946TIP3    H144779   0.768   2.380   5.078
14946TIP3    H244780   0.878   2.468   5.023
14947TIP3   OH244781   1.030   6.238   4.261
14947TIP3    H144782   1.069   6.254   4.347
14947TIP3    H244783   0.953   6.184   4.280
14948TIP3   OH244784   0.340   3.791   1.954
14948TIP3    H144785   0.363   3.884   1.959
14948TIP3    H244786   0.308   3.779   1.865
14949TIP3   OH244787   0.856   2.305   0.796
14949TIP3    H144788   0.939   2.290   0.841
14949TIP3    H244789   0.809   2.367   0.852
14950TIP3   OH244790   4.793   5.968   4.376
14950TIP3    H144791   4.884   5.991   4.393
14950TIP3    H244792   4.788   5.874   4.394
14951TIP3   OH244793   7.881   1.280   5.991
14951TIP3    H144794   7.807   1.313   6.042
14951TIP3    H244795   7.958   1.320   6.032
14952TIP3   OH244796   0.194   4.456   4.572
14952TIP3    H144797   0.277   4.411   4.591
14952TIP3    H244798   0.156   4.474   4.658
14953TIP3   OH244799   5.239   6.939   1.502
14953TIP3    H144800   5.273   6.927   1.591
14953TIP3    H244801   5.262   6.857   1.457
14954TIP3   OH244802   4.414   3.033   1.224
14954TIP3    H144803   4.485   2.969   1.209
14954TIP3    H244804   4.392   3.063   1.136
14955TIP3   OH244805   2.608   6.349   3.623
14955TIP3    H144806   2.580   6.406   3.552
14955TIP3    H244807   2.608   6.405   3.700
14956TIP3   OH244808   2.189   4.993   6.878
14956TIP3    H144809   2.177   4.944   6.796
14956TIP3    H244810   2.100   5.006   6.911
14957TIP3   OH244811   0.254   7.283   0.632
14957TIP3    H144812   0.292   7.229   0.700
14957TIP3    H244813   0.329   7.321   0.587
14958TIP3   OH244814   8.291   2.103   5.387
14958TIP3    H144815   8.247   2.058   5.314
14958TIP3    H244816   8.313   2.189   5.352
14959TIP3   OH244817   5.790   1.273   2.001
14959TIP3    H144818   5.862   1.306   1.947
14959TIP3    H244819   5.756   1.198   1.953
14960TIP3   OH244820   0.766   5.065   6.318
14960TIP3    H144821   0.795   5.101   6.235
14960TIP3    H244822   0.693   5.121   6.345
14961TIP3   OH244823   5.976   5.340   2.887
14961TIP3    H144824   5.920   5.416   2.899
14961TIP3    H244825   6.016   5.325   2.973
14962TIP3   OH244826   6.280   4.427   5.180
14962TIP3    H144827   6.289   4.416   5.086
14962TIP3    H244828   6.251   4.517   5.192
14963TIP3   OH244829   0.462   5.961   0.302
14963TIP3    H144830   0.439   5.881   0.349
14963TIP3    H244831   0.378   6.007   0.291
14964TIP3   OH244832   5.995   0.732   0.289
14964TIP3    H144833   6.075   0.689   0.318
14964TIP3    H244834   5.944   0.663   0.247
14965TIP3   OH244835   0.758   2.772   2.891
14965TIP3    H144836   0.694   2.732   2.832
14965TIP3    H244837   0.744   2.866   2.883
14966TIP3   OH244838   4.009   2.865   3.464
14966TIP3    H144839   3.974   2.790   3.512
14966TIP3    H244840   3.952   2.938   3.489
14967TIP3   OH244841   5.029   6.049   4.454
14967TIP3    H144842   5.110   6.083   4.417
14967TIP3    H244843   5.057   5.991   4.525
14968TIP3   OH244844   7.632   0.583   2.919
14968TIP3    H144845   7.716   0.623   2.896
14968TIP3    H244846   7.568   0.628   2.865
14969TIP3   OH244847   5.953   0.281   4.514
14969TIP3    H144848   5.954   0.275   4.418
14969TIP3    H244849   5.870   0.323   4.534
14970TIP3   OH244850   0.128   4.588   4.806
14970TIP3    H144851   0.079   4.576   4.887
14970TIP3    H244852   0.060   4.602   4.740
14971TIP3   OH244853   6.135   2.130   3.562
14971TIP3    H144854   6.041   2.146   3.566
14971TIP3    H244855   6.157   2.138   3.470
14972TIP3   OH244856   0.835   3.099   4.529
14972TIP3    H144857   0.849   3.073   4.438
14972TIP3    H244858   0.851   3.194   4.530
14973TIP3   OH244859   7.574   0.080   4.013
14973TIP3    H144860   7.483   0.069   4.043
14973TIP3    H244861   7.569   0.151   3.949
14974TIP3   OH244862   1.726   0.031   1.020
14974TIP3    H144863   1.645   0.072   1.049
14974TIP3    H244864   1.703  -0.061   1.006
14975TIP3   OH244865   3.451   0.401   0.605
14975TIP3    H144866   3.515   0.440   0.546
14975TIP3    H244867   3.408   0.475   0.647
14976TIP3   OH244868   3.758   7.673   2.809
14976TIP3    H144869   3.718   7.614   2.745
14976TIP3    H244870   3.799   7.742   2.757
14977TIP3   OH244871   3.203   2.795   3.864
14977TIP3    H144872   3.222   2.882   3.899
14977TIP3    H244873   3.129   2.763   3.916
14978TIP3   OH244874   0.790   7.852   2.870
14978TIP3    H144875   0.881   7.829   2.890
14978TIP3    H244876   0.797   7.928   2.813
14979TIP3   OH244877   8.068   4.916   5.497
14979TIP3    H144878   8.110   4.965   5.426
14979TIP3    H244879   8.084   4.968   5.575
14980TIP3   OH244880   7.064   3.173   4.560
14980TIP3    H144881   7.064   3.235   4.487
14980TIP3    H244882   7.105   3.094   4.525
14981TIP3   OH244883   8.278   2.433   6.425
14981TIP3    H144884   8.244   2.510   6.470
14981TIP3    H244885   8.220   2.422   6.349
14982TIP3   OH244886   6.794   6.668   4.202
14982TIP3    H144887   6.813   6.576   4.219
14982TIP3    H244888   6.707   6.668   4.163
14983TIP3   OH244889   7.266   4.447   4.655
14983TIP3    H144890   7.311   4.491   4.583
14983TIP3    H244891   7.322   4.462   4.731
14984TIP3   OH244892   8.230   3.463   1.192
14984TIP3    H144893   8.188   3.403   1.253
14984TIP3    H244894   8.267   3.532   1.247
14985TIP3   OH244895   4.120   1.633   5.081
14985TIP3    H144896   4.162   1.704   5.031
14985TIP3    H244897   4.173   1.556   5.063
14986TIP3   OH244898   1.891   5.594   1.359
14986TIP3    H144899   1.861   5.505   1.379
14986TIP3    H244900   1.967   5.606   1.416
14987TIP3   OH244901   1.236   2.749   2.133
14987TIP3    H144902   1.185   2.785   2.206
14987TIP3    H244903   1.254   2.659   2.159
14988TIP3   OH244904   3.359   5.250   4.047
14988TIP3    H144905   3.318   5.179   3.998
14988TIP3    H244906   3.422   5.288   3.986
14989TIP3   OH244907   4.185   7.877   1.462
14989TIP3    H144908   4.215   7.944   1.523
14989TIP3    H244909   4.234   7.893   1.381
14990TIP3   OH244910   4.293   7.830   0.988
14990TIP3    H144911   4.351   7.845   0.913
14990TIP3    H244912   4.214   7.790   0.950
14991TIP3   OH244913   6.376   6.473   6.327
14991TIP3    H144914   6.466   6.499   6.307
14991TIP3    H244915   6.340   6.446   6.242
14992TIP3   OH244916   1.207   5.832   4.113
14992TIP3    H144917   1.277   5.771   4.090
14992TIP3    H244918   1.251   5.903   4.159
14993TIP3   OH244919   7.102   3.269   0.538
14993TIP3    H144920   7.049   3.208   0.486
14993TIP3    H244921   7.184   3.277   0.490
14994TIP3   OH244922   7.826   3.161   1.279
14994TIP3    H144923   7.737   3.139   1.306
14994TIP3    H244924   7.835   3.123   1.192
14995TIP3   OH244925   2.340   4.110   2.485
14995TIP3    H144926   2.334   4.165   2.407
14995TIP3    H244927   2.433   4.111   2.508
14996TIP3   OH244928   5.589   0.508   2.873
14996TIP3    H144929   5.623   0.463   2.796
14996TIP3    H244930   5.507   0.546   2.844
14997TIP3   OH244931   7.681   3.264   4.093
14997TIP3    H144932   7.622   3.282   4.020
14997TIP3    H244933   7.714   3.350   4.119
14998TIP3   OH244934   1.769   0.296   3.800
14998TIP3    H144935   1.707   0.342   3.744
14998TIP3    H244936   1.744   0.204   3.795
14999TIP3   OH244937   5.693   0.227   3.317
14999TIP3    H144938   5.687   0.252   3.225
14999TIP3    H244939   5.707   0.132   3.315
15000TIP3   OH244940   8.127   1.949   2.632
15000TIP3    H144941   8.094   1.914   2.550
15000TIP3    H244942   8.196   1.888   2.658
15001TIP3   OH244943   4.331   2.292   3.559
15001TIP3    H144944   4.314   2.211   3.606
15001TIP3    H244945   4.381   2.265   3.481
15002TIP3   OH244946   0.364   2.691   0.549
15002TIP3    H144947   0.357   2.630   0.475
15002TIP3    H244948   0.442   2.742   0.531
15003TIP3   OH244949   6.302   5.709   6.893
15003TIP3    H144950   6.257   5.780   6.847
15003TIP3    H244951   6.377   5.689   6.837
15004TIP3   OH244952   3.746   4.065   6.247
15004TIP3    H144953   3.778   4.155   6.248
15004TIP3    H244954   3.758   4.035   6.157
15005TIP3   OH244955   3.613   2.141   0.447
15005TIP3    H144956   3.601   2.217   0.390
15005TIP3    H244957   3.582   2.171   0.533
15006TIP3   OH244958   6.378   4.933   3.845
15006TIP3    H144959   6.420   5.019   3.850
15006TIP3    H244960   6.292   4.950   3.808
15007TIP3   OH244961   0.285   3.064   0.510
15007TIP3    H144962   0.259   2.980   0.548
15007TIP3    H244963   0.218   3.125   0.540
15008TIP3   OH244964   2.435   3.827   6.450
15008TIP3    H144965   2.455   3.746   6.497
15008TIP3    H244966   2.482   3.818   6.367
15009TIP3   OH244967   0.541   2.861   5.375
15009TIP3    H144968   0.554   2.952   5.348
15009TIP3    H244969   0.455   2.861   5.417
15010TIP3   OH244970   1.443   6.664   4.379
15010TIP3    H144971   1.492   6.734   4.336
15010TIP3    H244972   1.410   6.704   4.459
15011TIP3   OH244973   6.607   5.810   2.849
15011TIP3    H144974   6.605   5.905   2.840
15011TIP3    H244975   6.692   5.785   2.813
15012TIP3   OH244976   4.087   4.485   1.905
15012TIP3    H144977   4.140   4.426   1.959
15012TIP3    H244978   4.005   4.438   1.893
15013TIP3   OH244979   2.510   0.686   1.575
15013TIP3    H144980   2.473   0.652   1.493
15013TIP3    H244981   2.590   0.635   1.588
15014TIP3   OH244982   2.771   7.595   6.687
15014TIP3    H144983   2.860   7.572   6.659
15014TIP3    H244984   2.783   7.654   6.761
15015TIP3   OH244985   8.091   2.418   6.241
15015TIP3    H144986   8.125   2.407   6.152
15015TIP3    H244987   8.014   2.474   6.230
15016TIP3   OH244988   1.866   2.119   4.780
15016TIP3    H144989   1.859   2.089   4.689
15016TIP3    H244990   1.939   2.180   4.780
15017TIP3   OH244991   6.394   7.190   0.394
15017TIP3    H144992   6.347   7.203   0.476
15017TIP3    H244993   6.381   7.271   0.345
15018TIP3   OH244994   1.476   0.723   2.665
15018TIP3    H144995   1.512   0.772   2.591
15018TIP3    H244996   1.549   0.672   2.699
15019TIP3   OH244997   4.668   6.465   2.573
15019TIP3    H144998   4.621   6.390   2.607
15019TIP3    H244999   4.603   6.536   2.571
15020TIP3   OH245000   7.223   0.390   0.330
15020TIP3    H145001   7.295   0.451   0.315
15020TIP3    H245002   7.245   0.313   0.276
15021TIP3   OH245003   2.913   3.820   3.692
15021TIP3    H145004   2.989   3.764   3.709
15021TIP3    H245005   2.838   3.765   3.714
15022TIP3   OH245006   6.507   3.710   6.331
15022TIP3    H145007   6.449   3.639   6.361
15022TIP3    H245008   6.501   3.707   6.236
15023TIP3   OH245009   6.552   5.631   3.233
15023TIP3    H145010   6.584   5.721   3.238
15023TIP3    H245011   6.632   5.578   3.226
15024TIP3   OH245012   5.386   1.325   0.301
15024TIP3    H145013   5.406   1.387   0.370
15024TIP3    H245014   5.388   1.377   0.220
15025TIP3   OH245015   7.567   5.331   4.767
15025TIP3    H145016   7.615   5.332   4.684
15025TIP3    H245017   7.510   5.408   4.763
15026TIP3   OH245018   4.795   2.848   5.359
15026TIP3    H145019   4.791   2.815   5.269
15026TIP3    H245020   4.730   2.797   5.406
15027TIP3   OH245021   0.643   0.182   3.632
15027TIP3    H145022   0.548   0.192   3.627
15027TIP3    H245023   0.665   0.202   3.723
15028TIP3   OH245024   7.511   3.107   3.444
15028TIP3    H145025   7.422   3.140   3.436
15028TIP3    H245026   7.561   3.181   3.478
15029TIP3   OH245027   2.364   4.761   0.599
15029TIP3    H145028   2.431   4.733   0.661
15029TIP3    H245029   2.400   4.739   0.513
15030TIP3   OH245030   1.943   5.069   1.988
15030TIP3    H145031   2.025   5.019   1.980
15030TIP3    H245032   1.895   5.047   1.909
15031TIP3   OH245033   0.384   3.196   0.972
15031TIP3    H145034   0.372   3.192   1.067
15031TIP3    H245035   0.337   3.120   0.939
15032TIP3   OH245036   5.592   3.626   4.693
15032TIP3    H145037   5.514   3.678   4.714
15032TIP3    H245038   5.575   3.592   4.605
15033TIP3   OH245039   5.167   5.587   1.137
15033TIP3    H145040   5.168   5.584   1.233
15033TIP3    H245041   5.247   5.634   1.114
15034TIP3   OH245042   6.706   1.145   0.279
15034TIP3    H145043   6.662   1.167   0.361
15034TIP3    H245044   6.770   1.078   0.303
15035TIP3   OH245045   8.380   4.154   6.013
15035TIP3    H145046   8.449   4.109   5.963
15035TIP3    H245047   8.359   4.094   6.084
15036TIP3   OH245048   0.572   1.964   2.308
15036TIP3    H145049   0.544   2.034   2.250
15036TIP3    H245050   0.497   1.904   2.313
15037TIP3   OH245051   8.408   6.196   2.703
15037TIP3    H145052   8.427   6.122   2.645
15037TIP3    H245053   8.381   6.155   2.786
15038TIP3   OH245054   7.007   5.171   5.127
15038TIP3    H145055   6.988   5.261   5.156
15038TIP3    H245056   7.011   5.120   5.208
15039TIP3   OH245057   6.513   4.495   6.511
15039TIP3    H145058   6.536   4.433   6.580
15039TIP3    H245059   6.596   4.514   6.467
15040TIP3   OH245060   4.526   7.841   4.077
15040TIP3    H145061   4.599   7.784   4.055
15040TIP3    H245062   4.461   7.783   4.117
15041TIP3   OH245063   3.797   7.211   4.705
15041TIP3    H145064   3.845   7.243   4.629
15041TIP3    H245065   3.706   7.232   4.686
15042TIP3   OH245066   3.731   0.948   6.263
15042TIP3    H145067   3.781   0.905   6.193
15042TIP3    H245068   3.762   0.905   6.343
15043TIP3   OH245069   4.112   2.662   5.207
15043TIP3    H145070   4.044   2.596   5.220
15043TIP3    H245071   4.070   2.731   5.156
15044TIP3   OH245072   5.489   0.123   2.040
15044TIP3    H145073   5.567   0.171   2.013
15044TIP3    H245074   5.495   0.119   2.136
15045TIP3   OH245075   1.518   5.033   5.433
15045TIP3    H145076   1.599   5.082   5.427
15045TIP3    H245077   1.527   4.980   5.512
15046TIP3   OH245078   2.030   2.033   6.267
15046TIP3    H145079   2.094   1.972   6.232
15046TIP3    H245080   2.063   2.057   6.354
15047TIP3   OH245081   3.807   6.728   4.313
15047TIP3    H145082   3.768   6.648   4.350
15047TIP3    H245083   3.733   6.775   4.275
15048TIP3   OH245084   6.142   6.895   3.051
15048TIP3    H145085   6.224   6.860   3.087
15048TIP3    H245086   6.076   6.877   3.119
15049TIP3   OH245087   3.943   2.329   1.412
15049TIP3    H145088   3.966   2.239   1.388
15049TIP3    H245089   4.009   2.354   1.476
15050TIP3   OH245090   6.750   1.908   1.672
15050TIP3    H145091   6.708   1.973   1.616
15050TIP3    H245092   6.745   1.946   1.760
15051TIP3   OH245093   3.122   4.601   0.580
15051TIP3    H145094   3.103   4.536   0.647
15051TIP3    H245095   3.181   4.558   0.519
15052TIP3   OH245096   4.390   7.928   4.883
15052TIP3    H145097   4.321   7.968   4.830
15052TIP3    H245098   4.417   7.851   4.833
15053TIP3   OH245099   5.342   6.190   1.701
15053TIP3    H145100   5.257   6.203   1.659
15053TIP3    H245101   5.401   6.171   1.628
15054TIP3   OH245102   6.844   0.246   2.413
15054TIP3    H145103   6.817   0.320   2.359
15054TIP3    H245104   6.789   0.173   2.383
15055TIP3   OH245105   7.694   3.265   0.855
15055TIP3    H145106   7.762   3.330   0.873
15055TIP3    H245107   7.615   3.317   0.839
15056TIP3   OH245108   7.734   6.003   4.481
15056TIP3    H145109   7.796   5.932   4.465
15056TIP3    H245110   7.742   6.021   4.575
15057TIP3   OH245111   1.958   2.262   0.651
15057TIP3    H145112   1.962   2.240   0.744
15057TIP3    H245113   1.866   2.283   0.635
15058TIP3   OH245114   2.367   4.571   2.880
15058TIP3    H145115   2.309   4.581   2.956
15058TIP3    H245116   2.322   4.619   2.810
15059TIP3   OH245117   0.708   1.192   6.610
15059TIP3    H145118   0.657   1.130   6.663
15059TIP3    H245119   0.772   1.136   6.564
15060TIP3   OH245120   5.716   2.030   6.312
15060TIP3    H145121   5.709   2.124   6.294
15060TIP3    H245122   5.734   1.991   6.227
15061TIP3   OH245123   4.736   4.338   4.228
15061TIP3    H145124   4.697   4.384   4.153
15061TIP3    H245125   4.783   4.405   4.276
15062TIP3   OH245126   7.913   4.484   3.122
15062TIP3    H145127   7.905   4.421   3.193
15062TIP3    H245128   7.947   4.563   3.164
15063TIP3   OH245129   2.836   0.847   5.997
15063TIP3    H145130   2.869   0.899   5.924
15063TIP3    H245131   2.811   0.911   6.063
15064TIP3   OH245132   7.378   7.480   2.912
15064TIP3    H145133   7.350   7.467   2.821
15064TIP3    H245134   7.297   7.505   2.957
15065TIP3   OH245135   0.053   7.775   5.023
15065TIP3    H145136   0.058   7.858   5.071
15065TIP3    H245137   0.107   7.789   4.945
15066TIP3   OH245138   0.308   7.386   2.561
15066TIP3    H145139   0.359   7.420   2.634
15066TIP3    H245140   0.290   7.295   2.584
15067TIP3   OH245141   0.463   2.131   3.841
15067TIP3    H145142   0.487   2.223   3.848
15067TIP3    H245143   0.480   2.095   3.928
15068TIP3   OH245144   3.717   0.595   3.755
15068TIP3    H145145   3.629   0.593   3.715
15068TIP3    H245146   3.735   0.688   3.768
15069TIP3   OH245147   3.596   0.615   6.284
15069TIP3    H145148   3.547   0.696   6.295
15069TIP3    H245149   3.559   0.575   6.205
15070TIP3   OH245150   5.597   5.873   6.536
15070TIP3    H145151   5.520   5.821   6.558
15070TIP3    H245152   5.651   5.814   6.483
15071TIP3   OH245153   4.404   7.461   1.942
15071TIP3    H145154   4.331   7.406   1.973
15071TIP3    H245155   4.376   7.491   1.856
15072TIP3   OH245156   5.446   1.233   2.276
15072TIP3    H145157   5.541   1.246   2.269
15072TIP3    H245158   5.421   1.199   2.190
15073TIP3   OH245159   7.820   7.397   6.794
15073TIP3    H145160   7.754   7.431   6.854
15073TIP3    H245161   7.870   7.475   6.767
15074TIP3   OH245162   3.755   3.997   2.285
15074TIP3    H145163   3.750   3.944   2.205
15074TIP3    H245164   3.685   3.963   2.340
15075TIP3   OH245165   3.915   1.514   4.311
15075TIP3    H145166   3.943   1.518   4.220
15075TIP3    H245167   3.984   1.559   4.360
15076TIP3   OH245168   3.967   3.907   6.740
15076TIP3    H145169   3.954   3.849   6.665
15076TIP3    H245170   4.016   3.982   6.705
15077TIP3   OH245171   6.036   7.848   6.718
15077TIP3    H145172   6.106   7.817   6.660
15077TIP3    H245173   5.979   7.900   6.661
15078TIP3   OH245174   1.139   0.335   2.669
15078TIP3    H145175   1.214   0.390   2.649
15078TIP3    H245176   1.146   0.261   2.609
15079TIP3   OH245177   4.563   7.415   6.054
15079TIP3    H145178   4.538   7.433   6.145
15079TIP3    H245179   4.524   7.330   6.035
15080TIP3   OH245180   4.220   6.411   3.816
15080TIP3    H145181   4.214   6.373   3.728
15080TIP3    H245182   4.253   6.499   3.802
15081TIP3   OH245183   0.829   4.047   3.883
15081TIP3    H145184   0.885   4.117   3.917
15081TIP3    H245185   0.842   4.050   3.788
15082TIP3   OH245186   6.410   2.950   5.141
15082TIP3    H145187   6.319   2.928   5.157
15082TIP3    H245188   6.456   2.866   5.145
15083TIP3   OH245189   3.532   6.814   5.819
15083TIP3    H145190   3.467   6.871   5.861
15083TIP3    H245191   3.561   6.755   5.888
15084TIP3   OH245192   7.498   5.900   4.815
15084TIP3    H145193   7.518   5.984   4.772
15084TIP3    H245194   7.416   5.872   4.775
15085TIP3   OH245195   6.617   4.793   1.708
15085TIP3    H145196   6.709   4.780   1.684
15085TIP3    H245197   6.598   4.723   1.771
15086TIP3   OH245198   0.475   3.693   5.311
15086TIP3    H145199   0.554   3.742   5.289
15086TIP3    H245200   0.411   3.759   5.336
15087TIP3   OH245201   8.284   0.901   0.471
15087TIP3    H145202   8.349   0.946   0.416
15087TIP3    H245203   8.244   0.971   0.522
15088TIP3   OH245204   2.593   2.365   2.345
15088TIP3    H145205   2.558   2.297   2.287
15088TIP3    H245206   2.576   2.332   2.433
15089TIP3   OH245207   2.582   0.987   0.962
15089TIP3    H145208   2.502   1.034   0.936
15089TIP3    H245209   2.560   0.895   0.948
15090TIP3   OH245210   6.253   3.451   3.581
15090TIP3    H145211   6.279   3.521   3.521
15090TIP3    H245212   6.236   3.376   3.524
15091TIP3   OH245213   7.816   2.222   3.053
15091TIP3    H145214   7.850   2.300   3.096
15091TIP3    H245215   7.802   2.248   2.962
15092TIP3   OH245216   5.470   4.451   4.720
15092TIP3    H145217   5.445   4.362   4.746
15092TIP3    H245218   5.467   4.449   4.624
15093TIP3   OH245219   5.940   7.037   0.945
15093TIP3    H145220   5.925   6.950   0.908
15093TIP3    H245221   5.856   7.082   0.934
15094TIP3   OH245222   3.661   6.864   6.202
15094TIP3    H145223   3.693   6.853   6.113
15094TIP3    H245224   3.709   6.799   6.253
15095TIP3   OH245225   0.799   5.646   4.440
15095TIP3    H145226   0.727   5.600   4.485
15095TIP3    H245227   0.820   5.590   4.365
15096TIP3   OH245228   3.963   4.707   1.468
15096TIP3    H145229   4.003   4.682   1.551
15096TIP3    H245230   3.888   4.761   1.493
15097TIP3   OH245231   5.398   4.353   2.802
15097TIP3    H145232   5.464   4.353   2.871
15097TIP3    H245233   5.435   4.297   2.733
15098TIP3   OH245234   6.126   4.720   5.586
15098TIP3    H145235   6.120   4.629   5.557
15098TIP3    H245236   6.100   4.719   5.678
15099TIP3   OH245237   3.523   0.579   6.573
15099TIP3    H145238   3.586   0.517   6.534
15099TIP3    H245239   3.440   0.558   6.531
15100TIP3   OH245240   2.810   2.436   1.021
15100TIP3    H145241   2.826   2.367   0.957
15100TIP3    H245242   2.880   2.428   1.085
15101TIP3   OH245243   1.886   3.782   5.992
15101TIP3    H145244   1.923   3.705   5.949
15101TIP3    H245245   1.799   3.755   6.021
15102TIP3   OH245246   1.593   7.070   5.833
15102TIP3    H145247   1.603   7.129   5.759
15102TIP3    H245248   1.546   6.994   5.798
15103TIP3   OH245249   7.390   2.807   4.164
15103TIP3    H145250   7.422   2.756   4.090
15103TIP3    H245251   7.461   2.867   4.186
15104TIP3   OH245252   2.071   2.557   1.751
15104TIP3    H145253   2.059   2.639   1.799
15104TIP3    H245254   1.992   2.506   1.770
15105TIP3   OH245255   3.325   4.903   6.459
15105TIP3    H145256   3.380   4.854   6.398
15105TIP3    H245257   3.376   4.982   6.480
15106TIP3   OH245258   5.274   0.623   4.443
15106TIP3    H145259   5.290   0.614   4.349
15106TIP3    H245260   5.179   0.615   4.452
15107TIP3   OH245261   4.367   0.810   6.783
15107TIP3    H145262   4.373   0.747   6.711
15107TIP3    H245263   4.295   0.778   6.837
15108TIP3   OH245264   0.584   7.679   4.020
15108TIP3    H145265   0.526   7.745   4.057
15108TIP3    H245266   0.672   7.713   4.038
15109TIP3   OH245267   3.320   5.771   5.760
15109TIP3    H145268   3.264   5.768   5.837
15109TIP3    H245269   3.395   5.824   5.787
15110TIP3   OH245270   6.041   3.592   0.884
15110TIP3    H145271   6.081   3.678   0.896
15110TIP3    H245272   6.057   3.570   0.792
15111TIP3   OH245273   6.602   2.052   4.741
15111TIP3    H145274   6.653   2.103   4.677
15111TIP3    H245275   6.641   1.965   4.738
15112TIP3   OH245276   4.771   1.528   6.442
15112TIP3    H145277   4.834   1.471   6.398
15112TIP3    H245278   4.758   1.601   6.382
15113TIP3   OH245279   3.377   5.389   6.315
15113TIP3    H145280   3.357   5.438   6.394
15113TIP3    H245281   3.438   5.445   6.266
15114TIP3   OH245282   7.402   3.809   1.251
15114TIP3    H145283   7.495   3.787   1.258
15114TIP3    H245284   7.399   3.878   1.185
15115TIP3   OH245285   4.618   3.039   2.139
15115TIP3    H145286   4.583   3.127   2.151
15115TIP3    H245287   4.646   3.037   2.047
15116TIP3   OH245288   1.965   5.725   6.336
15116TIP3    H145289   1.991   5.640   6.299
15116TIP3    H245290   1.952   5.781   6.259
15117TIP3   OH245291   4.491   3.753   1.489
15117TIP3    H145292   4.554   3.817   1.455
15117TIP3    H245293   4.446   3.720   1.412
15118TIP3   OH245294   5.545   4.701   0.457
15118TIP3    H145295   5.526   4.767   0.524
15118TIP3    H245296   5.621   4.737   0.410
15119TIP3   OH245297   4.675   4.793   0.378
15119TIP3    H145298   4.587   4.819   0.351
15119TIP3    H245299   4.733   4.852   0.330
15120TIP3   OH245300   5.298   7.055   2.623
15120TIP3    H145301   5.230   7.032   2.687
15120TIP3    H245302   5.350   6.975   2.614
15121TIP3   OH245303   0.422   0.583   1.114
15121TIP3    H145304   0.467   0.538   1.185
15121TIP3    H245305   0.341   0.616   1.153
15122TIP3   OH245306   0.669   5.182   0.498
15122TIP3    H145307   0.622   5.107   0.462
15122TIP3    H245308   0.750   5.146   0.534
15123TIP3   OH245309   1.066   7.751   2.162
15123TIP3    H145310   1.144   7.795   2.128
15123TIP3    H245311   1.024   7.815   2.219
15124TIP3   OH245312   8.191   7.219   4.289
15124TIP3    H145313   8.260   7.154   4.301
15124TIP3    H245314   8.190   7.235   4.195
15125TIP3   OH245315   8.278   3.276   5.069
15125TIP3    H145316   8.340   3.233   5.010
15125TIP3    H245317   8.195   3.273   5.021
15126TIP3   OH245318   4.233   7.399   0.057
15126TIP3    H145319   4.285   7.321   0.038
15126TIP3    H245320   4.144   7.366   0.071
15127TIP3   OH245321   5.878   0.753   1.854
15127TIP3    H145322   5.862   0.672   1.806
15127TIP3    H245323   5.972   0.769   1.842
15128TIP3   OH245324   2.694   4.090   5.313
15128TIP3    H145325   2.789   4.079   5.321
15128TIP3    H245326   2.658   4.007   5.345
15129TIP3   OH245327   3.067   7.479   5.594
15129TIP3    H145328   3.130   7.549   5.575
15129TIP3    H245329   3.027   7.460   5.510
15130TIP3   OH245330   6.812   3.712   2.058
15130TIP3    H145331   6.764   3.634   2.030
15130TIP3    H245332   6.861   3.683   2.135
15131TIP3   OH245333   3.703   4.286   3.418
15131TIP3    H145334   3.622   4.239   3.442
15131TIP3    H245335   3.751   4.293   3.501
15132TIP3   OH245336   6.808   3.270   2.517
15132TIP3    H145337   6.723   3.232   2.542
15132TIP3    H245338   6.844   3.304   2.598
15133TIP3   OH245339   1.530   6.262   2.084
15133TIP3    H145340   1.565   6.347   2.112
15133TIP3    H245341   1.490   6.279   1.999
15134TIP3   OH245342   5.479   7.846   6.580
15134TIP3    H145343   5.563   7.887   6.560
15134TIP3    H245344   5.444   7.895   6.654
15135TIP3   OH245345   7.573   6.030   5.052
15135TIP3    H145346   7.555   5.971   5.125
15135TIP3    H245347   7.530   5.988   4.977
15136TIP3   OH245348   2.200   6.385   4.027
15136TIP3    H145349   2.272   6.321   4.028
15136TIP3    H245350   2.230   6.453   3.967
15137TIP3   OH245351   6.023   3.964   3.865
15137TIP3    H145352   6.078   4.040   3.880
15137TIP3    H245353   6.084   3.894   3.843
15138TIP3   OH245354   7.879   7.688   1.940
15138TIP3    H145355   7.873   7.763   1.881
15138TIP3    H245356   7.931   7.719   2.014
15139TIP3   OH245357   6.968   6.227   6.520
15139TIP3    H145358   6.890   6.220   6.576
15139TIP3    H245359   6.939   6.198   6.434
15140TIP3   OH245360   7.437   0.237   1.366
15140TIP3    H145361   7.487   0.164   1.328
15140TIP3    H245362   7.391   0.198   1.440
15141TIP3   OH245363   5.505   4.523   3.838
15141TIP3    H145364   5.547   4.448   3.879
15141TIP3    H245365   5.502   4.590   3.906
15142TIP3   OH245366   8.275   6.473   4.075
15142TIP3    H145367   8.180   6.479   4.064
15142TIP3    H245368   8.290   6.385   4.110
15143TIP3   OH245369   4.777   0.787   6.152
15143TIP3    H145370   4.834   0.738   6.092
15143TIP3    H245371   4.801   0.755   6.239
15144TIP3   OH245372   3.866   3.072   1.867
15144TIP3    H145373   3.945   3.114   1.900
15144TIP3    H245374   3.824   3.138   1.813
15145TIP3   OH245375   7.601   4.052   2.683
15145TIP3    H145376   7.510   4.023   2.677
15145TIP3    H245377   7.652   3.979   2.647
15146TIP3   OH245378   0.611   5.168   0.881
15146TIP3    H145379   0.567   5.249   0.908
15146TIP3    H245380   0.641   5.129   0.963
15147TIP3   OH245381   3.466   2.677   6.541
15147TIP3    H145382   3.516   2.715   6.469
15147TIP3    H245383   3.454   2.750   6.602
15148TIP3   OH245384   8.304   2.820   5.730
15148TIP3    H145385   8.231   2.784   5.680
15148TIP3    H245386   8.347   2.743   5.768
15149TIP3   OH245387   5.520   4.928   1.649
15149TIP3    H145388   5.604   4.972   1.638
15149TIP3    H245389   5.462   4.994   1.686
15150TIP3   OH245390   6.680   2.141   4.273
15150TIP3    H145391   6.744   2.198   4.232
15150TIP3    H245392   6.718   2.053   4.266
15151TIP3   OH245393   3.877   2.300   2.575
15151TIP3    H145394   3.957   2.275   2.529
15151TIP3    H245395   3.807   2.284   2.511
15152TIP3   OH245396   4.069   4.988   5.229
15152TIP3    H145397   3.980   5.001   5.195
15152TIP3    H245398   4.122   4.975   5.151
15153TIP3   OH245399   3.101   2.863   3.344
15153TIP3    H145400   3.168   2.820   3.398
15153TIP3    H245401   3.092   2.806   3.268
15154TIP3   OH245402   3.800   0.900   0.919
15154TIP3    H145403   3.866   0.853   0.867
15154TIP3    H245404   3.721   0.846   0.913
15155TIP3   OH245405   1.423   4.812   6.635
15155TIP3    H145406   1.511   4.843   6.660
15155TIP3    H245407   1.435   4.719   6.617
15156TIP3   OH245408   3.197   5.616   2.076
15156TIP3    H145409   3.284   5.588   2.047
15156TIP3    H245410   3.145   5.622   1.996
15157TIP3   OH245411   8.362   1.682   5.407
15157TIP3    H145412   8.406   1.740   5.470
15157TIP3    H245413   8.399   1.596   5.424
15158TIP3   OH245414   4.533   4.386   1.355
15158TIP3    H145415   4.569   4.456   1.410
15158TIP3    H245416   4.449   4.365   1.396
15159TIP3   OH245417   0.131   2.027   2.864
15159TIP3    H145418   0.217   2.003   2.829
15159TIP3    H245419   0.137   2.007   2.957
15160TIP3   OH245420   6.697   3.636   1.665
15160TIP3    H145421   6.601   3.636   1.659
15160TIP3    H245422   6.723   3.551   1.631
15161TIP3   OH245423   0.859   2.100   3.997
15161TIP3    H145424   0.891   2.113   3.908
15161TIP3    H245425   0.771   2.064   3.986
15162TIP3   OH245426   2.071   6.206   5.919
15162TIP3    H145427   2.004   6.232   5.983
15162TIP3    H245428   2.151   6.200   5.970
15163TIP3   OH245429   8.075   5.823   1.770
15163TIP3    H145430   7.993   5.871   1.770
15163TIP3    H245431   8.057   5.745   1.718
15164TIP3   OH245432   5.836   4.725   3.846
15164TIP3    H145433   5.801   4.701   3.932
15164TIP3    H245434   5.930   4.708   3.852
15165TIP3   OH245435   6.430   5.633   4.033
15165TIP3    H145436   6.376   5.561   4.001
15165TIP3    H245437   6.370   5.707   4.039
15166TIP3   OH245438   6.607   5.351   4.313
15166TIP3    H145439   6.644   5.405   4.382
15166TIP3    H245440   6.516   5.339   4.338
15167TIP3   OH245441   4.204   5.565   2.920
15167TIP3    H145442   4.217   5.548   3.013
15167TIP3    H245443   4.110   5.558   2.907
15168TIP3   OH245444   2.730   2.623   4.005
15168TIP3    H145445   2.697   2.597   3.919
15168TIP3    H245446   2.730   2.542   4.057
15169TIP3   OH245447   1.404   3.635   3.066
15169TIP3    H145448   1.379   3.676   3.148
15169TIP3    H245449   1.323   3.596   3.033
15170TIP3   OH245450   1.069   6.222   6.034
15170TIP3    H145451   0.988   6.272   6.025
15170TIP3    H245452   1.122   6.273   6.096
15171TIP3   OH245453   5.147   2.418   3.996
15171TIP3    H145454   5.098   2.376   4.066
15171TIP3    H245455   5.216   2.356   3.974
15172TIP3   OH245456   0.219   6.920   4.740
15172TIP3    H145457   0.216   6.831   4.706
15172TIP3    H245458   0.155   6.969   4.688
15173TIP3   OH245459   2.697   6.966   1.743
15173TIP3    H145460   2.654   7.022   1.807
15173TIP3    H245461   2.740   7.027   1.683
15174TIP3   OH245462   7.214   6.002   4.809
15174TIP3    H145463   7.144   6.017   4.747
15174TIP3    H245464   7.261   6.086   4.814
15175TIP3   OH245465   8.329   3.264   3.630
15175TIP3    H145466   8.411   3.308   3.651
15175TIP3    H245467   8.286   3.321   3.567
15176TIP3   OH245468   2.505   7.583   3.954
15176TIP3    H145469   2.491   7.646   3.883
15176TIP3    H245470   2.478   7.630   4.033
15177TIP3   OH245471   7.226   4.590   5.057
15177TIP3    H145472   7.158   4.654   5.037
15177TIP3    H245473   7.281   4.634   5.122
15178TIP3   OH245474   0.225   4.065   3.294
15178TIP3    H145475   0.314   4.098   3.305
15178TIP3    H245476   0.173   4.117   3.355
15179TIP3   OH245477   6.970   4.802   2.181
15179TIP3    H145478   6.999   4.894   2.186
15179TIP3    H245479   6.910   4.793   2.255
15180TIP3   OH245480   2.398   7.871   4.039
15180TIP3    H145481   2.443   7.856   3.956
15180TIP3    H245482   2.400   7.966   4.050
15181TIP3   OH245483   3.332   3.197   1.793
15181TIP3    H145484   3.272   3.246   1.737
15181TIP3    H245485   3.411   3.185   1.741
15182TIP3   OH245486   1.741   5.132   1.799
15182TIP3    H145487   1.798   5.188   1.747
15182TIP3    H245488   1.689   5.193   1.851
15183TIP3   OH245489   4.433   7.651   3.739
15183TIP3    H145490   4.508   7.592   3.734
15183TIP3    H245491   4.391   7.643   3.653
15184TIP3   OH245492   5.129   0.465   1.994
15184TIP3    H145493   5.035   0.448   2.002
15184TIP3    H245494   5.150   0.520   2.070
15185TIP3   OH245495   0.141   1.258   6.147
15185TIP3    H145496   0.179   1.246   6.060
15185TIP3    H245497   0.207   1.306   6.196
15186TIP3   OH245498   4.803   5.143   1.130
15186TIP3    H145499   4.838   5.122   1.044
15186TIP3    H245500   4.824   5.236   1.142
15187TIP3   OH245501   5.125   3.208   2.619
15187TIP3    H145502   5.216   3.208   2.592
15187TIP3    H245503   5.116   3.131   2.676
15188TIP3   OH245504   5.017   1.170   6.698
15188TIP3    H145505   5.085   1.237   6.703
15188TIP3    H245506   4.948   1.211   6.645
15189TIP3   OH245507   2.364   1.234   4.629
15189TIP3    H145508   2.272   1.220   4.653
15189TIP3    H245509   2.386   1.320   4.665
15190TIP3   OH245510   1.968   1.449   2.739
15190TIP3    H145511   1.947   1.481   2.651
15190TIP3    H245512   1.915   1.371   2.749
15191TIP3   OH245513   5.088   5.255   3.288
15191TIP3    H145514   5.140   5.184   3.249
15191TIP3    H245515   5.001   5.217   3.301
15192TIP3   OH245516   2.866   2.859   6.274
15192TIP3    H145517   2.804   2.797   6.313
15192TIP3    H245518   2.874   2.928   6.340
15193TIP3   OH245519   0.415   1.031   0.535
15193TIP3    H145520   0.336   1.078   0.506
15193TIP3    H245521   0.431   1.065   0.623
15194TIP3   OH245522   6.011   2.799   4.104
15194TIP3    H145523   6.049   2.724   4.058
15194TIP3    H245524   6.073   2.818   4.174
15195TIP3   OH245525   0.064   1.050   1.659
15195TIP3    H145526   0.123   1.070   1.733
15195TIP3    H245527  -0.016   1.097   1.680
15196TIP3   OH245528   6.867   3.080   1.742
15196TIP3    H145529   6.852   3.124   1.825
15196TIP3    H245530   6.892   2.991   1.766
15197TIP3   OH245531   4.622   7.435   0.354
15197TIP3    H145532   4.662   7.444   0.440
15197TIP3    H245533   4.670   7.363   0.312
15198TIP3   OH245534   7.602   3.141   6.364
15198TIP3    H145535   7.659   3.064   6.355
15198TIP3    H245536   7.587   3.149   6.458
15199TIP3   OH245537   6.722   5.692   1.145
15199TIP3    H145538   6.671   5.760   1.101
15199TIP3    H245539   6.782   5.660   1.077
15200TIP3   OH245540   4.064   0.270   0.310
15200TIP3    H145541   3.986   0.316   0.341
15200TIP3    H245542   4.062   0.187   0.358
15201TIP3   OH245543   0.639   5.949   2.504
15201TIP3    H145544   0.672   6.038   2.494
15201TIP3    H245545   0.559   5.946   2.451
15202TIP3   OH245546   6.287   7.095   3.687
15202TIP3    H145547   6.373   7.054   3.683
15202TIP3    H245548   6.236   7.040   3.747
15203TIP3   OH245549   5.680   6.277   6.564
15203TIP3    H145550   5.715   6.357   6.605
15203TIP3    H245551   5.658   6.304   6.475
15204TIP3   OH245552   7.623   2.228   6.409
15204TIP3    H145553   7.655   2.162   6.471
15204TIP3    H245554   7.666   2.207   6.326
15205TIP3   OH245555   5.504   0.774   4.439
15205TIP3    H145556   5.502   0.831   4.516
15205TIP3    H245557   5.438   0.707   4.458
15206TIP3   OH245558   7.328   2.904   2.360
15206TIP3    H145559   7.320   2.974   2.425
15206TIP3    H245560   7.403   2.851   2.390
15207TIP3   OH245561   0.984   2.992   5.374
15207TIP3    H145562   0.960   2.904   5.405
15207TIP3    H245563   0.954   2.993   5.282
15208TIP3   OH245564   2.069   0.420   0.930
15208TIP3    H145565   1.984   0.460   0.909
15208TIP3    H245566   2.119   0.491   0.969
15209TIP3   OH245567   3.436   4.935   2.886
15209TIP3    H145568   3.443   4.853   2.935
15209TIP3    H245569   3.523   4.974   2.892
15210TIP3   OH245570   4.579   0.289   6.133
15210TIP3    H145571   4.649   0.228   6.157
15210TIP3    H245572   4.513   0.279   6.201
15211TIP3   OH245573   0.932   1.430   1.171
15211TIP3    H145574   0.907   1.473   1.089
15211TIP3    H245575   0.932   1.500   1.236
15212TIP3   OH245576   2.806   7.074   1.489
15212TIP3    H145577   2.892   7.071   1.447
15212TIP3    H245578   2.746   7.043   1.421
15213TIP3   OH245579   4.796   1.744   0.466
15213TIP3    H145580   4.786   1.798   0.387
15213TIP3    H245581   4.882   1.702   0.455
15214TIP3   OH245582   6.629   5.390   3.737
15214TIP3    H145583   6.661   5.414   3.824
15214TIP3    H245584   6.584   5.468   3.705
15215TIP3   OH245585   2.215   0.138   4.827
15215TIP3    H145586   2.239   0.046   4.825
15215TIP3    H245587   2.168   0.154   4.745
15216TIP3   OH245588   0.110   2.247   6.859
15216TIP3    H145589   0.098   2.268   6.766
15216TIP3    H245590   0.139   2.156   6.860
15217TIP3   OH245591   8.135   1.998   5.027
15217TIP3    H145592   8.056   2.047   5.006
15217TIP3    H245593   8.202   2.035   4.969
15218TIP3   OH245594   7.484   0.245   4.866
15218TIP3    H145595   7.398   0.287   4.864
15218TIP3    H245596   7.465   0.152   4.879
15219TIP3   OH245597   4.841   5.078   3.852
15219TIP3    H145598   4.882   5.146   3.799
15219TIP3    H245599   4.838   5.115   3.940
15220TIP3   OH245600   7.224   2.297   1.815
15220TIP3    H145601   7.191   2.264   1.898
15220TIP3    H245602   7.216   2.392   1.823
15221TIP3   OH245603   7.160   0.359   6.241
15221TIP3    H145604   7.148   0.374   6.335
15221TIP3    H245605   7.089   0.408   6.199
15222TIP3   OH245606   4.248   3.597   4.646
15222TIP3    H145607   4.219   3.518   4.692
15222TIP3    H245608   4.344   3.589   4.644
15223TIP3   OH245609   4.217   3.421   2.138
15223TIP3    H145610   4.308   3.449   2.138
15223TIP3    H245611   4.170   3.491   2.182
15224TIP3   OH245612   0.405   3.255   2.199
15224TIP3    H145613   0.456   3.293   2.127
15224TIP3    H245614   0.315   3.254   2.166
15225TIP3   OH245615   6.653   0.433   6.668
15225TIP3    H145616   6.607   0.380   6.733
15225TIP3    H245617   6.730   0.380   6.644
15226TIP3   OH245618   4.075   7.707   1.747
15226TIP3    H145619   4.145   7.662   1.700
15226TIP3    H245620   4.011   7.730   1.679
15227TIP3   OH245621   6.051   3.577   4.169
15227TIP3    H145622   6.136   3.584   4.124
15227TIP3    H245623   6.074   3.556   4.259
15228TIP3   OH245624   3.842   5.138   1.619
15228TIP3    H145625   3.842   5.212   1.558
15228TIP3    H245626   3.842   5.178   1.706
15229TIP3   OH245627   6.424   3.969   1.461
15229TIP3    H145628   6.510   3.955   1.422
15229TIP3    H245629   6.388   3.881   1.472
15230TIP3   OH245630   6.740   7.264   6.465
15230TIP3    H145631   6.700   7.286   6.549
15230TIP3    H245632   6.831   7.243   6.485
15231TIP3   OH245633   4.930   2.391   1.571
15231TIP3    H145634   4.953   2.408   1.480
15231TIP3    H245635   4.951   2.472   1.618
15232TIP3   OH245636   7.443   7.307   3.107
15232TIP3    H145637   7.490   7.227   3.085
15232TIP3    H245638   7.440   7.357   3.025
15233TIP3   OH245639   7.970   3.369   5.293
15233TIP3    H145640   7.912   3.304   5.331
15233TIP3    H245641   7.922   3.403   5.217
15234TIP3   OH245642   1.831   1.606   1.329
15234TIP3    H145643   1.884   1.583   1.252
15234TIP3    H245644   1.869   1.554   1.400
15235TIP3   OH245645   6.517   2.675   5.148
15235TIP3    H145646   6.541   2.682   5.055
15235TIP3    H245647   6.450   2.607   5.150
15236TIP3   OH245648   2.762   6.285   1.751
15236TIP3    H145649   2.832   6.290   1.817
15236TIP3    H245650   2.790   6.347   1.683
15237TIP3   OH245651   1.723   2.863   4.259
15237TIP3    H145652   1.677   2.848   4.177
15237TIP3    H245653   1.815   2.873   4.234
15238TIP3   OH245654   6.706   1.299   2.517
15238TIP3    H145655   6.674   1.215   2.484
15238TIP3    H245656   6.778   1.322   2.458
15239TIP3   OH245657   4.239   0.760   2.385
15239TIP3    H145658   4.193   0.715   2.314
15239TIP3    H245659   4.189   0.840   2.399
15240TIP3   OH245660   7.684   3.515   0.228
15240TIP3    H145661   7.708   3.594   0.275
15240TIP3    H245662   7.749   3.450   0.254
15241TIP3   OH245663   7.356   0.589   5.366
15241TIP3    H145664   7.422   0.579   5.297
15241TIP3    H245665   7.398   0.649   5.429
15242TIP3   OH245666   4.230   1.586   5.387
15242TIP3    H145667   4.255   1.497   5.363
15242TIP3    H245668   4.279   1.642   5.326
15243TIP3   OH245669   1.216   6.793   2.244
15243TIP3    H145670   1.294   6.752   2.206
15243TIP3    H245671   1.219   6.884   2.214
15244TIP3   OH245672   5.317   2.212   0.211
15244TIP3    H145673   5.331   2.220   0.117
15244TIP3    H245674   5.351   2.125   0.234
15245TIP3   OH245675   7.267   5.947   5.914
15245TIP3    H145676   7.174   5.959   5.935
15245TIP3    H245677   7.267   5.885   5.841
15246TIP3   OH245678   7.155   5.398   1.995
15246TIP3    H145679   7.226   5.399   2.059
15246TIP3    H245680   7.181   5.462   1.928
15247TIP3   OH245681   0.341   7.686   3.473
15247TIP3    H145682   0.413   7.712   3.415
15247TIP3    H245683   0.292   7.767   3.488
15248TIP3   OH245684   0.922   0.810   1.536
15248TIP3    H145685   0.944   0.849   1.620
15248TIP3    H245686   1.004   0.810   1.486
15249TIP3   OH245687   1.569   6.562   2.831
15249TIP3    H145688   1.538   6.642   2.873
15249TIP3    H245689   1.626   6.522   2.896
15250TIP3   OH245690   1.470   1.009   1.488
15250TIP3    H145691   1.556   1.049   1.502
15250TIP3    H245692   1.436   1.052   1.409
15251TIP3   OH245693   0.857   1.843   0.319
15251TIP3    H145694   0.936   1.897   0.305
15251TIP3    H245695   0.837   1.807   0.232
15252TIP3   OH245696   7.631   3.894   3.265
15252TIP3    H145697   7.724   3.915   3.272
15252TIP3    H245698   7.630   3.801   3.241
15253TIP3   OH245699   6.170   5.996   5.199
15253TIP3    H145700   6.203   5.935   5.134
15253TIP3    H245701   6.236   5.996   5.268
15254TIP3   OH245702   4.549   6.329   0.966
15254TIP3    H145703   4.595   6.312   0.884
15254TIP3    H245704   4.458   6.346   0.939
15255TIP3   OH245705   5.863   3.158   2.848
15255TIP3    H145706   5.854   3.137   2.755
15255TIP3    H245707   5.956   3.146   2.866
15256TIP3   OH245708   3.978   1.445   6.276
15256TIP3    H145709   4.060   1.441   6.228
15256TIP3    H245710   3.923   1.378   6.236
15257TIP3   OH245711   8.337   6.872   3.803
15257TIP3    H145712   8.333   6.794   3.747
15257TIP3    H245713   8.418   6.915   3.778
15258TIP3   OH245714   7.683   7.099   1.114
15258TIP3    H145715   7.733   7.048   1.178
15258TIP3    H245716   7.663   7.181   1.159
15259TIP3   OH245717   6.762   1.005   3.095
15259TIP3    H145718   6.770   1.071   3.164
15259TIP3    H245719   6.722   0.930   3.137
15260TIP3   OH245720   4.699   2.718   2.664
15260TIP3    H145721   4.752   2.643   2.637
15260TIP3    H245722   4.751   2.794   2.639
15261TIP3   OH245723   4.204   5.854   3.978
15261TIP3    H145724   4.257   5.927   3.948
15261TIP3    H245725   4.115   5.890   3.984
15262TIP3   OH245726   1.257   6.836   5.836
15262TIP3    H145727   1.342   6.868   5.804
15262TIP3    H245728   1.280   6.781   5.911
15263TIP3   OH245729   6.158   5.768   1.262
15263TIP3    H145730   6.145   5.741   1.171
15263TIP3    H245731   6.208   5.849   1.256
15264TIP3   OH245732   0.887   3.615   3.106
15264TIP3    H145733   0.962   3.592   3.050
15264TIP3    H245734   0.879   3.710   3.096
15265TIP3   OH245735   2.787   7.080   5.401
15265TIP3    H145736   2.798   6.986   5.413
15265TIP3    H245737   2.820   7.119   5.482
15266TIP3   OH245738   0.846   0.182   6.566
15266TIP3    H145739   0.762   0.220   6.541
15266TIP3    H245740   0.905   0.207   6.495
15267TIP3   OH245741   3.507   4.072   4.632
15267TIP3    H145742   3.451   4.038   4.701
15267TIP3    H245743   3.460   4.054   4.551
15268TIP3   OH245744   5.102   7.434   5.999
15268TIP3    H145745   5.073   7.525   6.008
15268TIP3    H245746   5.023   7.383   6.017
15269TIP3   OH245747   5.164   4.627   6.735
15269TIP3    H145748   5.146   4.549   6.681
15269TIP3    H245749   5.233   4.673   6.687
15270TIP3   OH245750   7.303   7.212   1.123
15270TIP3    H145751   7.301   7.297   1.166
15270TIP3    H245752   7.317   7.231   1.031
15271TIP3   OH245753   4.096   0.156   4.652
15271TIP3    H145754   4.108   0.084   4.714
15271TIP3    H245755   4.083   0.233   4.706
15272TIP3   OH245756   5.764   6.770   6.092
15272TIP3    H145757   5.814   6.690   6.075
15272TIP3    H245758   5.830   6.838   6.103
15273TIP3   OH245759   7.215   7.518   5.087
15273TIP3    H145760   7.226   7.513   5.182
15273TIP3    H245761   7.304   7.521   5.053
15274TIP3   OH245762   0.109   1.781   4.256
15274TIP3    H145763   0.202   1.786   4.278
15274TIP3    H245764   0.081   1.872   4.244
15275TIP3   OH245765   8.363   7.139   6.037
15275TIP3    H145766   8.328   7.181   5.959
15275TIP3    H245767   8.386   7.051   6.008
15276TIP3   OH245768   6.404   2.770   2.244
15276TIP3    H145769   6.479   2.830   2.240
15276TIP3    H245770   6.418   2.719   2.323
15277TIP3   OH245771   7.491   1.954   2.107
15277TIP3    H145772   7.507   2.031   2.053
15277TIP3    H245773   7.453   1.890   2.047
15278TIP3   OH245774   4.355   1.697   3.067
15278TIP3    H145775   4.304   1.617   3.079
15278TIP3    H245776   4.415   1.677   2.995
15279TIP3   OH245777   5.487   4.563   6.403
15279TIP3    H145778   5.575   4.581   6.371
15279TIP3    H245779   5.451   4.649   6.425
15280TIP3   OH245780   6.234   0.130   2.630
15280TIP3    H145781   6.321   0.163   2.607
15280TIP3    H245782   6.191   0.116   2.546
15281TIP3   OH245783   2.375   2.405   6.562
15281TIP3    H145784   2.379   2.482   6.506
15281TIP3    H245785   2.458   2.359   6.548
15282TIP3   OH245786   0.086   6.655   6.725
15282TIP3    H145787   0.072   6.582   6.786
15282TIP3    H245788   0.181   6.658   6.712
15283TIP3   OH245789   4.382   2.295   2.657
15283TIP3    H145790   4.399   2.270   2.748
15283TIP3    H245791   4.464   2.274   2.611
15284TIP3   OH245792   7.421   1.507   1.273
15284TIP3    H145793   7.411   1.492   1.367
15284TIP3    H245794   7.485   1.441   1.245
15285TIP3   OH245795   4.798   0.066   6.180
15285TIP3    H145796   4.865   0.088   6.115
15285TIP3    H245797   4.817   0.125   6.254
15286TIP3   OH245798   4.300   5.957   6.310
15286TIP3    H145799   4.334   6.046   6.319
15286TIP3    H245800   4.333   5.927   6.225
15287TIP3   OH245801   2.497   7.147   3.939
15287TIP3    H145802   2.515   7.126   4.030
15287TIP3    H245803   2.568   7.207   3.914
15288TIP3   OH245804   3.734   7.315   0.080
15288TIP3    H145805   3.827   7.326   0.099
15288TIP3    H245806   3.730   7.312  -0.016
15289TIP3   OH245807   6.077   6.622   4.708
15289TIP3    H145808   6.078   6.686   4.779
15289TIP3    H245809   6.127   6.548   4.741
15290TIP3   OH245810   6.846   2.212   5.747
15290TIP3    H145811   6.755   2.199   5.719
15290TIP3    H245812   6.883   2.124   5.751
15291TIP3   OH245813   1.464   4.967   1.885
15291TIP3    H145814   1.549   4.925   1.882
15291TIP3    H245815   1.459   5.005   1.973
15292TIP3   OH245816   4.555   3.770   3.210
15292TIP3    H145817   4.509   3.689   3.191
15292TIP3    H245818   4.529   3.830   3.140
15293TIP3   OH245819   7.365   4.133   2.533
15293TIP3    H145820   7.394   4.179   2.612
15293TIP3    H245821   7.281   4.095   2.558
15294TIP3   OH245822   4.882   4.983   2.632
15294TIP3    H145823   4.911   4.961   2.544
15294TIP3    H245824   4.815   5.051   2.619
15295TIP3   OH245825   3.548   5.434   3.745
15295TIP3    H145826   3.627   5.467   3.787
15295TIP3    H245827   3.477   5.485   3.785
15296TIP3   OH245828   8.374   7.552   3.529
15296TIP3    H145829   8.396   7.573   3.438
15296TIP3    H245830   8.447   7.499   3.560
15297TIP3   OH245831   3.394   4.026   2.180
15297TIP3    H145832   3.426   3.975   2.254
15297TIP3    H245833   3.299   4.023   2.188
15298TIP3   OH245834   7.658   4.104   1.705
15298TIP3    H145835   7.683   4.128   1.615
15298TIP3    H245836   7.674   4.184   1.756
15299TIP3   OH245837   5.566   6.293   5.151
15299TIP3    H145838   5.483   6.333   5.122
15299TIP3    H245839   5.586   6.337   5.233
15300TIP3   OH245840   1.872   1.588   0.889
15300TIP3    H145841   1.901   1.502   0.860
15300TIP3    H245842   1.795   1.571   0.943
15301TIP3   OH245843   1.134   3.544   3.503
15301TIP3    H145844   1.100   3.498   3.580
15301TIP3    H245845   1.082   3.624   3.498
15302TIP3   OH245846   6.973   4.148   0.290
15302TIP3    H145847   6.945   4.162   0.381
15302TIP3    H245848   6.955   4.056   0.273
15303TIP3   OH245849   7.863   6.201   6.870
15303TIP3    H145850   7.815   6.282   6.848
15303TIP3    H245851   7.955   6.225   6.861
15304TIP3   OH245852   2.822   2.115   6.440
15304TIP3    H145853   2.851   2.183   6.379
15304TIP3    H245854   2.739   2.147   6.475
15305TIP3   OH245855   3.804   0.296   3.751
15305TIP3    H145856   3.820   0.373   3.805
15305TIP3    H245857   3.710   0.281   3.758
15306TIP3   OH245858   6.093   2.889   1.164
15306TIP3    H145859   6.090   2.980   1.194
15306TIP3    H245860   6.179   2.881   1.121
15307TIP3   OH245861   6.649   0.704   1.754
15307TIP3    H145862   6.720   0.734   1.812
15307TIP3    H245863   6.662   0.610   1.747
15308TIP3   OH245864   3.731   4.074   3.096
15308TIP3    H145865   3.721   4.011   3.167
15308TIP3    H245866   3.773   4.150   3.136
15309TIP3   OH245867   8.141   2.634   6.839
15309TIP3    H145868   8.077   2.579   6.795
15309TIP3    H245869   8.225   2.594   6.818
15310TIP3   OH245870   1.490   1.455   6.029
15310TIP3    H145871   1.468   1.527   5.971
15310TIP3    H245872   1.412   1.443   6.083
15311TIP3   OH245873   1.915   3.984   2.491
15311TIP3    H145874   1.917   4.080   2.490
15311TIP3    H245875   1.832   3.961   2.448
15312TIP3   OH245876   4.854   6.216   3.947
15312TIP3    H145877   4.788   6.283   3.963
15312TIP3    H245878   4.877   6.228   3.854
15313TIP3   OH245879   8.164   3.570   2.134
15313TIP3    H145880   8.177   3.490   2.185
15313TIP3    H245881   8.125   3.632   2.196
15314TIP3   OH245882   6.725   7.554   6.534
15314TIP3    H145883   6.680   7.565   6.450
15314TIP3    H245884   6.686   7.475   6.571
15315TIP3   OH245885   1.755   5.417   6.333
15315TIP3    H145886   1.712   5.398   6.417
15315TIP3    H245887   1.737   5.339   6.280
15316TIP3   OH245888   0.020   3.367   2.097
15316TIP3    H145889   0.067   3.326   2.169
15316TIP3    H245890   0.031   3.461   2.111
15317TIP3   OH245891   5.143   6.484   0.175
15317TIP3    H145892   5.126   6.571   0.140
15317TIP3    H245893   5.136   6.426   0.099
15318TIP3   OH245894   3.477   4.679   0.403
15318TIP3    H145895   3.524   4.644   0.328
15318TIP3    H245896   3.514   4.633   0.478
15319TIP3   OH245897   1.448   5.950   6.484
15319TIP3    H145898   1.402   6.018   6.435
15319TIP3    H245899   1.541   5.971   6.473
15320TIP3   OH245900   3.426   3.163   4.455
15320TIP3    H145901   3.443   3.211   4.374
15320TIP3    H245902   3.478   3.208   4.521
15321TIP3   OH245903   3.590   6.166   3.426
15321TIP3    H145904   3.621   6.256   3.422
15321TIP3    H245905   3.502   6.173   3.463
15322TIP3   OH245906   6.529   1.861   5.909
15322TIP3    H145907   6.546   1.800   5.981
15322TIP3    H245908   6.614   1.873   5.866
15323TIP3   OH245909   3.123   0.068   6.394
15323TIP3    H145910   3.164   0.115   6.321
15323TIP3    H245911   3.038   0.040   6.359
15324TIP3   OH245912   5.762   4.303   3.199
15324TIP3    H145913   5.763   4.303   3.295
15324TIP3    H245914   5.741   4.393   3.175
15325TIP3   OH245915   2.492   3.888   5.323
15325TIP3    H145916   2.399   3.912   5.330
15325TIP3    H245917   2.501   3.813   5.383
15326TIP3   OH245918   2.031   1.371   4.780
15326TIP3    H145919   2.038   1.312   4.855
15326TIP3    H245920   2.050   1.315   4.705
15327TIP3   OH245921   0.259   1.190   6.576
15327TIP3    H145922   0.207   1.191   6.496
15327TIP3    H245923   0.333   1.132   6.555
15328TIP3   OH245924   5.446   4.934   2.234
15328TIP3    H145925   5.363   4.934   2.282
15328TIP3    H245926   5.426   4.890   2.151
15329TIP3   OH245927   7.118   4.002   5.405
15329TIP3    H145928   7.073   3.930   5.360
15329TIP3    H245929   7.067   4.016   5.485
15330TIP3   OH245930   7.430   5.147   6.015
15330TIP3    H145931   7.523   5.149   6.039
15330TIP3    H245932   7.391   5.217   6.067
15331TIP3   OH245933   1.666   7.396   5.838
15331TIP3    H145934   1.759   7.399   5.815
15331TIP3    H245935   1.666   7.385   5.934
15332TIP3   OH245936   0.656   0.516   5.893
15332TIP3    H145937   0.668   0.501   5.987
15332TIP3    H245938   0.697   0.601   5.877
15333TIP3   OH245939   5.578   6.977   6.012
15333TIP3    H145940   5.566   7.026   6.094
15333TIP3    H245941   5.635   6.904   6.037
15334TIP3   OH245942   4.656   3.842   0.329
15334TIP3    H145943   4.625   3.860   0.418
15334TIP3    H245944   4.736   3.790   0.341
15335TIP3   OH245945   0.766   5.695   0.128
15335TIP3    H145946   0.670   5.694   0.124
15335TIP3    H245947   0.793   5.623   0.071
15336TIP3   OH245948   5.503   6.500   3.300
15336TIP3    H145949   5.548   6.489   3.216
15336TIP3    H245950   5.465   6.588   3.296
15337TIP3   OH245951   1.349   1.335   4.746
15337TIP3    H145952   1.321   1.414   4.699
15337TIP3    H245953   1.400   1.367   4.820
15338TIP3   OH245954   4.420   1.629   4.492
15338TIP3    H145955   4.512   1.605   4.503
15338TIP3    H245956   4.420   1.725   4.493
15339TIP3   OH245957   2.440   7.413   4.804
15339TIP3    H145958   2.490   7.445   4.879
15339TIP3    H245959   2.501   7.418   4.730
15340TIP3   OH245960   7.447   4.360   5.243
15340TIP3    H145961   7.424   4.271   5.271
15340TIP3    H245962   7.512   4.347   5.173
15341TIP3   OH245963   6.195   1.962   4.352
15341TIP3    H145964   6.212   1.870   4.375
15341TIP3    H245965   6.266   2.010   4.393
15342TIP3   OH245966   0.458   4.014   6.351
15342TIP3    H145967   0.442   3.971   6.435
15342TIP3    H245968   0.499   4.097   6.374
15343TIP3   OH245969   1.896   0.317   4.556
15343TIP3    H145970   1.803   0.317   4.535
15343TIP3    H245971   1.900   0.316   4.651
15344TIP3   OH245972   1.571   2.736   4.457
15344TIP3    H145973   1.603   2.649   4.430
15344TIP3    H245974   1.617   2.797   4.399
15345TIP3   OH245975   3.867   2.966   5.488
15345TIP3    H145976   3.928   2.996   5.421
15345TIP3    H245977   3.922   2.946   5.564
15346TIP3   OH245978   4.574   6.216   2.407
15346TIP3    H145979   4.504   6.263   2.362
15346TIP3    H245980   4.562   6.236   2.500
15347TIP3   OH245981   5.850   1.797   1.186
15347TIP3    H145982   5.930   1.838   1.218
15347TIP3    H245983   5.861   1.793   1.091
15348TIP3   OH245984   7.115   4.988   4.375
15348TIP3    H145985   7.123   5.042   4.296
15348TIP3    H245986   7.021   4.990   4.395
15349TIP3   OH245987   8.330   6.461   0.181
15349TIP3    H145988   8.246   6.503   0.198
15349TIP3    H245989   8.393   6.533   0.183
15350TIP3   OH245990   4.428   6.730   3.258
15350TIP3    H145991   4.518   6.759   3.272
15350TIP3    H245992   4.434   6.666   3.186
15351TIP3   OH245993   3.632   1.940   3.031
15351TIP3    H145994   3.581   2.014   3.062
15351TIP3    H245995   3.568   1.878   2.996
15352TIP3   OH245996   1.397   2.117   0.278
15352TIP3    H145997   1.327   2.085   0.335
15352TIP3    H245998   1.456   2.043   0.267
15353TIP3   OH245999   7.946   6.661   1.779
15353TIP3    H146000   7.983   6.746   1.804
15353TIP3    H246001   7.874   6.683   1.720
15354TIP3   OH246002   3.476   2.021   1.284
15354TIP3    H146003   3.536   2.094   1.267
15354TIP3    H246004   3.500   1.955   1.219
15355TIP3   OH246005   5.931   1.694   2.807
15355TIP3    H146006   5.868   1.638   2.852
15355TIP3    H246007   6.000   1.635   2.778
15356TIP3   OH246008   0.810   4.660   0.675
15356TIP3    H146009   0.851   4.583   0.714
15356TIP3    H246010   0.874   4.691   0.611
15357TIP3   OH246011   6.684   3.806   3.194
15357TIP3    H146012   6.724   3.748   3.260
15357TIP3    H246013   6.598   3.768   3.178
15358TIP3   OH246014   0.330   7.722   6.082
15358TIP3    H146015   0.392   7.683   6.143
15358TIP3    H246016   0.246   7.717   6.127
15359TIP3   OH246017   6.284   3.651   0.362
15359TIP3    H146018   6.210   3.675   0.418
15359TIP3    H246019   6.278   3.711   0.287
15360TIP3   OH246020   2.983   0.996   3.575
15360TIP3    H146021   2.909   0.965   3.522
15360TIP3    H246022   3.052   1.015   3.511
15361TIP3   OH246023   6.234   4.612   3.039
15361TIP3    H146024   6.285   4.573   2.969
15361TIP3    H246025   6.174   4.673   2.995
15362TIP3   OH246026   2.331   5.622   2.454
15362TIP3    H146027   2.367   5.678   2.385
15362TIP3    H246028   2.365   5.659   2.535
15363TIP3   OH246029   3.991   5.332   1.840
15363TIP3    H146030   4.052   5.378   1.783
15363TIP3    H246031   4.013   5.239   1.829
15364TIP3   OH246032   2.068   0.131   2.710
15364TIP3    H146033   2.030   0.061   2.658
15364TIP3    H246034   2.044   0.110   2.800
15365TIP3   OH246035   7.430   6.571   4.348
15365TIP3    H146036   7.368   6.643   4.363
15365TIP3    H246037   7.475   6.561   4.432
15366TIP3   OH246038   0.292   2.855   1.667
15366TIP3    H146039   0.315   2.907   1.590
15366TIP3    H246040   0.243   2.916   1.723
15367TIP3   OH246041   3.941   3.635   0.152
15367TIP3    H146042   3.892   3.686   0.218
15367TIP3    H246043   4.010   3.694   0.123
15368TIP3   OH246044   0.246   1.339   4.929
15368TIP3    H146045   0.277   1.258   4.970
15368TIP3    H246046   0.168   1.313   4.880
15369TIP3   OH246047   5.399   0.695   3.339
15369TIP3    H146048   5.443   0.734   3.263
15369TIP3    H246049   5.396   0.602   3.320
15370TIP3   OH246050   3.413   3.912   3.086
15370TIP3    H146051   3.388   4.002   3.063
15370TIP3    H246052   3.357   3.891   3.161
15371TIP3   OH246053   3.673   3.301   6.072
15371TIP3    H146054   3.632   3.216   6.091
15371TIP3    H246055   3.603   3.352   6.031
   8.40566   7.92493   6.86319   0.00000   0.00000  -2.80189   0.00000  -2.80189  -3.96247
