Title
29212
    1ASP      N    1   5.189   3.875   3.220
    1ASP    HT1    2   5.262   3.871   3.295
    1ASP    HT2    3   5.209   3.953   3.153
    1ASP    HT3    4   5.187   3.787   3.165
    1ASP     CA    5   5.052   3.909   3.270
    1ASP     HA    6   5.059   4.004   3.322
    1ASP     CB    7   4.955   3.924   3.149
    1ASP    HB1    8   4.856   3.964   3.182
    1ASP    HB2    9   4.937   3.825   3.101
    1ASP     CG   10   5.009   4.018   3.042
    1ASP    OD1   11   5.116   4.077   3.068
    1ASP    OD2   12   4.948   4.024   2.932
    1ASP      C   13   4.998   3.806   3.368
    1ASP      O   14   5.027   3.686   3.356
    2GLY      N   15   4.922   3.849   3.471
    2GLY     HN   16   4.910   3.947   3.487
    2GLY     CA   17   4.846   3.759   3.558
    2GLY    HA1   18   4.824   3.813   3.648
    2GLY    HA2   19   4.902   3.669   3.576
    2GLY      C   20   4.714   3.719   3.498
    2GLY      O   21   4.670   3.773   3.397
    3ASP      N   22   4.643   3.624   3.565
    3ASP     HN   23   4.683   3.572   3.640
    3ASP     CA   24   4.503   3.597   3.541
    3ASP     HA   25   4.490   3.572   3.437
    3ASP     CB   26   4.454   3.478   3.629
    3ASP    HB1   27   4.344   3.464   3.615
    3ASP    HB2   28   4.473   3.498   3.737
    3ASP     CG   29   4.520   3.346   3.591
    3ASP    OD1   30   4.552   3.328   3.471
    3ASP    OD2   31   4.530   3.257   3.679
    3ASP      C   32   4.419   3.722   3.569
    3ASP      O   33   4.447   3.797   3.663
    4GLY      N   34   4.315   3.749   3.487
    4GLY     HN   35   4.292   3.689   3.411
    4GLY     CA   36   4.225   3.863   3.507
    4GLY    HA1   37   4.158   3.863   3.422
    4GLY    HA2   38   4.285   3.952   3.513
    4GLY      C   39   4.141   3.855   3.634
    4GLY      O   40   4.154   3.762   3.714
    5PRO      N   41   4.053   3.952   3.659
    5PRO     CD   42   4.021   4.061   3.567
    5PRO    HD1   43   4.009   4.025   3.462
    5PRO    HD2   44   4.101   4.138   3.571
    5PRO     CA   45   3.950   3.935   3.761
    5PRO     HA   46   3.999   3.914   3.855
    5PRO     CB   47   3.877   4.070   3.761
    5PRO    HB1   48   3.932   4.140   3.827
    5PRO    HB2   49   3.772   4.062   3.797
    5PRO     CG   50   3.887   4.118   3.616
    5PRO    HG1   51   3.804   4.075   3.556
    5PRO    HG2   52   3.884   4.229   3.609
    5PRO      C   53   3.858   3.817   3.734
    5PRO      O   54   3.832   3.785   3.617
    6GLY      N   55   3.809   3.749   3.838
    6GLY     HN   56   3.836   3.774   3.931
    6GLY     CA   57   3.709   3.644   3.825
    6GLY    HA1   58   3.680   3.614   3.925
    6GLY    HA2   59   3.754   3.563   3.768
    6GLY      C   60   3.582   3.685   3.754
    6GLY      O   61   3.548   3.802   3.743
    7ASP      N   62   3.504   3.586   3.708
    7ASP     HN   63   3.535   3.491   3.709
    7ASP     CA   64   3.369   3.607   3.662
    7ASP     HA   65   3.375   3.679   3.582
    7ASP     CB   66   3.308   3.475   3.611
    7ASP    HB1   67   3.203   3.491   3.578
    7ASP    HB2   68   3.307   3.398   3.691
    7ASP     CG   69   3.384   3.425   3.490
    7ASP    OD1   70   3.407   3.504   3.395
    7ASP    OD2   71   3.410   3.302   3.488
    7ASP      C   72   3.280   3.662   3.774
    7ASP      O   73   3.304   3.630   3.891
    8PRO      N   74   3.179   3.746   3.748
    8PRO     CD   75   3.140   3.786   3.612
    8PRO    HD1   76   3.094   3.698   3.561
    8PRO    HD2   77   3.226   3.823   3.553
    8PRO     CA   78   3.072   3.772   3.844
    8PRO     HA   79   3.115   3.827   3.926
    8PRO     CB   80   2.967   3.854   3.765
    8PRO    HB1   81   2.932   3.942   3.823
    8PRO    HB2   82   2.879   3.791   3.739
    8PRO     CG   83   3.037   3.896   3.635
    8PRO    HG1   84   2.966   3.904   3.549
    8PRO    HG2   85   3.088   3.993   3.649
    8PRO      C   86   3.010   3.646   3.903
    8PRO      O   87   2.981   3.553   3.828
    9GLY      N   88   2.987   3.639   4.036
    9GLY     HN   89   3.009   3.716   4.096
    9GLY     CA   90   2.911   3.532   4.098
    9GLY    HA1   91   2.905   3.555   4.204
    9GLY    HA2   92   2.961   3.439   4.078
    9GLY      C   93   2.769   3.521   4.049
    9GLY      O   94   2.711   3.617   3.997
   10ASP      N   95   2.706   3.404   4.068
   10ASP     HN   96   2.756   3.326   4.106
   10ASP     CA   97   2.565   3.384   4.041
   10ASP     HA   98   2.546   3.414   3.939
   10ASP     CB   99   2.526   3.235   4.060
   10ASP    HB1  100   2.416   3.222   4.048
   10ASP    HB2  101   2.554   3.204   4.163
   10ASP     CG  102   2.590   3.136   3.963
   10ASP    OD1  103   2.628   3.170   3.848
   10ASP    OD2  104   2.588   3.016   4.002
   10ASP      C  105   2.478   3.471   4.133
   10ASP      O  106   2.491   3.465   4.256
   11GLY      N  107   2.389   3.555   4.076
   11GLY     HN  108   2.378   3.553   3.977
   11GLY     CA  109   2.313   3.657   4.149
   11GLY    HA1  110   2.298   3.739   4.080
   11GLY    HA2  111   2.371   3.687   4.235
   11GLY      C  112   2.174   3.616   4.199
   11GLY    OT1  113   2.113   3.519   4.146
   11GLY    OT2  114   2.121   3.688   4.289
   12LIT    LIT  115   1.172   4.926   2.130
   13LIT    LIT  116   1.164   2.222   2.302
   14LIT    LIT  117   0.443   6.696   3.447
   15LIT    LIT  118   5.487   1.621   5.654
   16LIT    LIT  119   0.458   0.055   2.365
   17LIT    LIT  120   0.340   4.596   1.846
   18LIT    LIT  121   7.371   4.667   5.221
   19LIT    LIT  122   2.442   6.801   2.166
   20LIT    LIT  123   4.411   0.325   5.625
   21LIT    LIT  124   7.366   3.371   3.423
   22LIT    LIT  125   0.053   3.897   2.476
   23LIT    LIT  126   6.718   0.062   4.791
   24LIT    LIT  127   5.737   6.055   2.229
   25LIT    LIT  128   3.282   4.994   0.443
   26LIT    LIT  129   4.445   3.538   2.550
   27LIT    LIT  130   6.234   2.473   0.054
   28LIT    LIT  131   1.350   3.750   0.141
   29LIT    LIT  132   5.027   0.318   1.784
   30LIT    LIT  133   1.958   1.335   0.154
   31LIT    LIT  134   0.164   5.612   6.018
   32LIT    LIT  135   0.329   4.916   4.465
   33LIT    LIT  136   2.076   2.754   1.207
   34LIT    LIT  137   4.347   2.451   4.929
   35LIT    LIT  138   1.861   4.025   4.058
   36LIT    LIT  139   6.410   4.979   4.688
   37LIT    LIT  140   2.265   1.800   4.270
   38LIT    LIT  141   1.933   5.592   0.123
   39LIT    LIT  142   5.331   1.628   4.001
   40LIT    LIT  143   3.809   2.940   3.871
   41LIT    LIT  144   3.650   0.881   1.977
   42LIT    LIT  145   1.325   4.509   5.953
   43CLA    CLA  146   1.328   3.541   0.226
   44CLA    CLA  147   3.254   4.513   0.150
   45CLA    CLA  148   1.649   0.925   2.412
   46CLA    CLA  149   0.492   5.292   1.759
   47CLA    CLA  150   4.804   6.766   2.767
   48CLA    CLA  151   1.989   1.876   2.698
   49CLA    CLA  152   6.717   3.160   5.645
   50CLA    CLA  153   0.281   5.195   3.880
   51CLA    CLA  154   6.401   3.687   1.610
   52CLA    CLA  155   0.720   4.369   1.912
   53CLA    CLA  156   1.253   3.475   5.863
   54CLA    CLA  157   1.104   6.100   6.017
   55CLA    CLA  158   5.991   6.446   2.121
   56CLA    CLA  159   3.758   5.690   2.422
   57CLA    CLA  160   1.283   2.812   4.938
   58CLA    CLA  161   0.753   3.706   2.780
   59CLA    CLA  162   3.735   2.883   4.743
   60CLA    CLA  163   1.694   6.587   1.777
   61CLA    CLA  164   7.258   3.529   2.679
   62CLA    CLA  165   6.247   0.010   5.051
   63CLA    CLA  166   1.602   5.031   2.301
   64CLA    CLA  167   2.236   3.889   1.644
   65CLA    CLA  168   1.649   6.454   3.468
   66CLA    CLA  169   6.216   5.041   4.775
   67CLA    CLA  170   5.350   3.147   1.941
   68CLA    CLA  171   1.887   4.340   5.781
   69CLA    CLA  172   4.126   1.183   0.814
   70TIP3   OH2  173   0.982   6.654   1.900
   70TIP3    H1  174   0.894   6.617   1.907
   70TIP3    H2  175   1.014   6.657   1.990
   71TIP3   OH2  176   2.873   0.381   1.595
   71TIP3    H1  177   2.796   0.376   1.652
   71TIP3    H2  178   2.868   0.469   1.558
   72TIP3   OH2  179   3.104   0.278   1.952
   72TIP3    H1  180   3.074   0.206   1.897
   72TIP3    H2  181   3.086   0.357   1.901
   73TIP3   OH2  182   0.802   6.910   1.818
   73TIP3    H1  183   0.721   6.960   1.806
   73TIP3    H2  184   0.820   6.874   1.731
   74TIP3   OH2  185   0.463   6.820   2.043
   74TIP3    H1  186   0.466   6.903   2.092
   74TIP3    H2  187   0.388   6.830   1.984
   75TIP3   OH2  188   2.667   0.404   1.769
   75TIP3    H1  189   2.629   0.491   1.759
   75TIP3    H2  190   2.664   0.387   1.863
   76TIP3   OH2  191   2.175   0.326   2.380
   76TIP3    H1  192   2.209   0.404   2.424
   76TIP3    H2  193   2.103   0.296   2.436
   77TIP3   OH2  194   1.952   0.493   2.313
   77TIP3    H1  195   2.017   0.427   2.287
   77TIP3    H2  196   2.000   0.553   2.371
   78TIP3   OH2  197   3.329   0.678   1.992
   78TIP3    H1  198   3.346   0.584   1.998
   78TIP3    H2  199   3.245   0.689   2.036
   79TIP3   OH2  200   2.432   0.407   2.162
   79TIP3    H1  201   2.427   0.502   2.171
   79TIP3    H2  202   2.343   0.376   2.178
   80TIP3   OH2  203   0.745   6.798   2.309
   80TIP3    H1  204   0.657   6.828   2.285
   80TIP3    H2  205   0.748   6.707   2.279
   81TIP3   OH2  206   0.535   6.602   2.203
   81TIP3    H1  207   0.540   6.520   2.155
   81TIP3    H2  208   0.515   6.668   2.136
   82TIP3   OH2  209   0.248   6.797   2.423
   82TIP3    H1  210   0.228   6.707   2.396
   82TIP3    H2  211   0.342   6.795   2.443
   83TIP3   OH2  212   3.033   0.994   2.093
   83TIP3    H1  213   3.019   1.012   2.000
   83TIP3    H2  214   3.088   1.066   2.123
   84TIP3   OH2  215   3.036   0.079   1.773
   84TIP3    H1  216   3.075   0.137   1.707
   84TIP3    H2  217   2.950   0.057   1.736
   85TIP3   OH2  218   2.620   0.203   2.202
   85TIP3    H1  219   2.624   0.196   2.298
   85TIP3    H2  220   2.552   0.268   2.186
   86TIP3   OH2  221   0.006   6.912   2.461
   86TIP3    H1  222  -0.046   6.866   2.396
   86TIP3    H2  223   0.094   6.876   2.453
   87TIP3   OH2  224   2.686   0.466   2.045
   87TIP3    H1  225   2.596   0.441   2.065
   87TIP3    H2  226   2.722   0.493   2.129
   88TIP3   OH2  227   3.345   0.403   2.026
   88TIP3    H1  228   3.255   0.376   2.045
   88TIP3    H2  229   3.367   0.356   1.945
   89TIP3   OH2  230   4.117   1.197   0.227
   89TIP3    H1  231   4.175   1.138   0.180
   89TIP3    H2  232   4.149   1.284   0.207
   90TIP3   OH2  233   2.851   0.668   1.939
   90TIP3    H1  234   2.780   0.605   1.949
   90TIP3    H2  235   2.824   0.723   1.866
   91TIP3   OH2  236   0.788   6.507   2.262
   91TIP3    H1  237   0.694   6.519   2.255
   91TIP3    H2  238   0.805   6.418   2.231
   92TIP3   OH2  239   2.869   0.649   1.520
   92TIP3    H1  240   2.817   0.674   1.443
   92TIP3    H2  241   2.960   0.669   1.494
   93TIP3   OH2  242   1.652   0.665   2.600
   93TIP3    H1  243   1.677   0.741   2.549
   93TIP3    H2  244   1.649   0.593   2.536
   94TIP3   OH2  245   2.127   0.613   2.496
   94TIP3    H1  246   2.216   0.602   2.528
   94TIP3    H2  247   2.105   0.704   2.516
   95TIP3   OH2  248   2.761   0.553   2.295
   95TIP3    H1  249   2.766   0.483   2.361
   95TIP3    H2  250   2.835   0.610   2.316
   96TIP3   OH2  251   2.410   0.200   2.482
   96TIP3    H1  252   2.341   0.207   2.415
   96TIP3    H2  253   2.440   0.109   2.475
   97TIP3   OH2  254   2.856   0.142   2.078
   97TIP3    H1  255   2.891   0.223   2.040
   97TIP3    H2  256   2.768   0.166   2.107
   98TIP3   OH2  257   2.760   0.109   2.470
   98TIP3    H1  258   2.808   0.057   2.405
   98TIP3    H2  259   2.734   0.047   2.537
   99TIP3   OH2  260   0.503   6.778   2.514
   99TIP3    H1  261   0.524   6.711   2.578
   99TIP3    H2  262   0.586   6.823   2.498
  100TIP3   OH2  263   3.009   0.035   2.271
  100TIP3    H1  264   2.945   0.079   2.216
  100TIP3    H2  265   3.094   0.060   2.235
  101TIP3   OH2  266   0.034   6.597   2.578
  101TIP3    H1  267   0.112   6.578   2.630
  101TIP3    H2  268  -0.032   6.535   2.610
  102TIP3   OH2  269   0.517   6.350   2.450
  102TIP3    H1  270   0.466   6.430   2.461
  102TIP3    H2  271   0.580   6.351   2.522
  103TIP3   OH2  272   3.139   0.716   1.509
  103TIP3    H1  273   3.147   0.745   1.600
  103TIP3    H2  274   3.194   0.778   1.460
  104TIP3   OH2  275   3.157   0.755   1.781
  104TIP3    H1  276   3.109   0.672   1.780
  104TIP3    H2  277   3.235   0.737   1.834
  105TIP3   OH2  278   3.206   0.444   2.344
  105TIP3    H1  279   3.134   0.450   2.407
  105TIP3    H2  280   3.249   0.529   2.348
  106TIP3   OH2  281   3.196   0.234   1.620
  106TIP3    H1  282   3.250   0.165   1.584
  106TIP3    H2  283   3.190   0.299   1.550
  107TIP3   OH2  284   3.033   0.505   1.800
  107TIP3    H1  285   2.961   0.547   1.846
  107TIP3    H2  286   2.992   0.461   1.725
  108TIP3   OH2  287   3.240   0.110   2.145
  108TIP3    H1  288   3.309   0.051   2.115
  108TIP3    H2  289   3.211   0.157   2.066
  109TIP3   OH2  290   0.965   6.885   2.164
  109TIP3    H1  291   0.891   6.865   2.222
  109TIP3    H2  292   1.017   6.805   2.162
  110TIP3   OH2  293   0.706   6.706   1.976
  110TIP3    H1  294   0.621   6.747   1.990
  110TIP3    H2  295   0.758   6.771   1.929
  111TIP3   OH2  296   1.927   0.331   2.559
  111TIP3    H1  297   1.873   0.375   2.493
  111TIP3    H2  298   1.954   0.400   2.618
  112TIP3   OH2  299   2.434   0.679   2.201
  112TIP3    H1  300   2.466   0.682   2.292
  112TIP3    H2  301   2.503   0.723   2.151
  113TIP3   OH2  302   2.641   0.822   2.089
  113TIP3    H1  303   2.713   0.772   2.051
  113TIP3    H2  304   2.685   0.888   2.143
  114TIP3   OH2  305   2.377   0.774   1.655
  114TIP3    H1  306   2.324   0.696   1.641
  114TIP3    H2  307   2.318   0.834   1.701
  115TIP3   OH2  308   2.598   0.670   1.778
  115TIP3    H1  309   2.512   0.697   1.745
  115TIP3    H2  310   2.657   0.741   1.754
  116TIP3   OH2  311   2.809   0.838   1.714
  116TIP3    H1  312   2.789   0.920   1.669
  116TIP3    H2  313   2.829   0.777   1.643
  117TIP3   OH2  314   3.079   0.722   2.096
  117TIP3    H1  315   3.004   0.687   2.047
  117TIP3    H2  316   3.061   0.815   2.105
  118TIP3   OH2  317   3.675   0.012   1.614
  118TIP3    H1  318   3.693  -0.071   1.658
  118TIP3    H2  319   3.709   0.079   1.674
  119TIP3   OH2  320   3.638   0.382   1.385
  119TIP3    H1  321   3.635   0.286   1.384
  119TIP3    H2  322   3.730   0.403   1.376
  120TIP3   OH2  323   4.234   0.798   0.985
  120TIP3    H1  324   4.305   0.762   0.931
  120TIP3    H2  325   4.238   0.892   0.971
  121TIP3   OH2  326   4.137   0.306   1.290
  121TIP3    H1  327   4.135   0.293   1.195
  121TIP3    H2  328   4.227   0.333   1.308
  122TIP3   OH2  329   3.992   0.240   1.514
  122TIP3    H1  330   3.932   0.308   1.543
  122TIP3    H2  331   4.041   0.280   1.442
  123TIP3   OH2  332   1.220   6.619   1.467
  123TIP3    H1  333   1.290   6.675   1.500
  123TIP3    H2  334   1.254   6.530   1.476
  124TIP3   OH2  335   3.825   0.443   1.608
  124TIP3    H1  336   3.811   0.531   1.574
  124TIP3    H2  337   3.745   0.422   1.656
  125TIP3   OH2  338   4.679   0.666   1.086
  125TIP3    H1  339   4.595   0.637   1.122
  125TIP3    H2  340   4.658   0.744   1.034
  126TIP3   OH2  341   4.384   0.693   0.780
  126TIP3    H1  342   4.391   0.603   0.748
  126TIP3    H2  343   4.381   0.746   0.700
  127TIP3   OH2  344   4.891   0.538   1.433
  127TIP3    H1  345   4.877   0.467   1.372
  127TIP3    H2  346   4.870   0.617   1.384
  128TIP3   OH2  347   4.736   0.079   1.579
  128TIP3    H1  348   4.697   0.163   1.602
  128TIP3    H2  349   4.674   0.040   1.517
  129TIP3   OH2  350   1.195   6.914   1.137
  129TIP3    H1  351   1.164   6.854   1.069
  129TIP3    H2  352   1.278   6.947   1.104
  130TIP3   OH2  353   3.888   0.420   1.270
  130TIP3    H1  354   3.897   0.475   1.192
  130TIP3    H2  355   3.975   0.383   1.283
  131TIP3   OH2  356   3.928   0.005   1.388
  131TIP3    H1  357   3.993   0.008   1.317
  131TIP3    H2  358   3.938   0.089   1.433
  132TIP3   OH2  359   4.447   0.621   1.220
  132TIP3    H1  360   4.407   0.704   1.243
  132TIP3    H2  361   4.403   0.557   1.277
  133TIP3   OH2  362   4.035   0.545   1.749
  133TIP3    H1  363   3.979   0.604   1.800
  133TIP3    H2  364   3.973   0.494   1.696
  134TIP3   OH2  365   3.748   0.149   1.843
  134TIP3    H1  366   3.763   0.224   1.900
  134TIP3    H2  367   3.668   0.108   1.878
  135TIP3   OH2  368   4.074   0.646   0.825
  135TIP3    H1  369   4.130   0.697   0.884
  135TIP3    H2  370   4.028   0.712   0.773
  136TIP3   OH2  371   3.413   0.263   1.803
  136TIP3    H1  372   3.342   0.249   1.740
  136TIP3    H2  373   3.443   0.175   1.825
  137TIP3   OH2  374   3.263   0.444   1.445
  137TIP3    H1  375   3.359   0.438   1.450
  137TIP3    H2  376   3.242   0.524   1.492
  138TIP3   OH2  377   5.110   0.904   1.488
  138TIP3    H1  378   5.113   0.808   1.494
  138TIP3    H2  379   5.026   0.928   1.526
  139TIP3   OH2  380   4.224   0.686   1.611
  139TIP3    H1  381   4.215   0.777   1.640
  139TIP3    H2  382   4.155   0.639   1.657
  140TIP3   OH2  383   4.013   0.826   0.604
  140TIP3    H1  384   4.080   0.786   0.549
  140TIP3    H2  385   4.039   0.917   0.610
  141TIP3   OH2  386   3.374   0.613   1.039
  141TIP3    H1  387   3.444   0.588   1.100
  141TIP3    H2  388   3.347   0.531   0.998
  142TIP3   OH2  389   5.083   0.140   1.745
  142TIP3    H1  390   5.009   0.082   1.731
  142TIP3    H2  391   5.157   0.082   1.761
  143TIP3   OH2  392   3.606   0.458   1.789
  143TIP3    H1  393   3.666   0.430   1.858
  143TIP3    H2  394   3.538   0.391   1.787
  144TIP3   OH2  395   2.409   6.947   1.784
  144TIP3    H1  396   2.380   6.858   1.807
  144TIP3    H2  397   2.360   6.967   1.704
  145TIP3   OH2  398   1.426   6.770   1.554
  145TIP3    H1  399   1.408   6.792   1.646
  145TIP3    H2  400   1.426   6.855   1.509
  146TIP3   OH2  401   4.507   0.075   1.896
  146TIP3    H1  402   4.478   0.017   1.966
  146TIP3    H2  403   4.601   0.087   1.912
  147TIP3   OH2  404   1.306   6.813   1.800
  147TIP3    H1  405   1.296   6.858   1.883
  147TIP3    H2  406   1.282   6.722   1.818
  148TIP3   OH2  407   2.054   6.970   1.435
  148TIP3    H1  408   1.994   6.942   1.367
  148TIP3    H2  409   2.013   6.943   1.517
  149TIP3   OH2  410   4.820   1.244   1.579
  149TIP3    H1  411   4.815   1.264   1.485
  149TIP3    H2  412   4.899   1.290   1.609
  150TIP3   OH2  413   3.768   0.375   2.005
  150TIP3    H1  414   3.851   0.379   2.051
  150TIP3    H2  415   3.703   0.357   2.073
  151TIP3   OH2  416   1.701   6.751   1.514
  151TIP3    H1  417   1.611   6.760   1.482
  151TIP3    H2  418   1.692   6.704   1.597
  152TIP3   OH2  419   4.846   0.317   1.282
  152TIP3    H1  420   4.899   0.296   1.205
  152TIP3    H2  421   4.762   0.274   1.266
  153TIP3   OH2  422   4.336   0.424   1.649
  153TIP3    H1  423   4.359   0.412   1.740
  153TIP3    H2  424   4.302   0.514   1.644
  154TIP3   OH2  425   3.647   0.108   1.358
  154TIP3    H1  426   3.666   0.051   1.283
  154TIP3    H2  427   3.681   0.060   1.433
  155TIP3   OH2  428   3.513   0.028   1.925
  155TIP3    H1  429   3.517   0.003   2.017
  155TIP3    H2  430   3.445  -0.027   1.888
  156TIP3   OH2  431   4.244   0.172   1.946
  156TIP3    H1  432   4.170   0.124   1.908
  156TIP3    H2  433   4.321   0.135   1.902
  157TIP3   OH2  434   4.496   0.680   1.548
  157TIP3    H1  435   4.401   0.682   1.548
  157TIP3    H2  436   4.521   0.732   1.624
  158TIP3   OH2  437   5.149   0.623   1.497
  158TIP3    H1  438   5.063   0.587   1.477
  158TIP3    H2  439   5.196   0.622   1.414
  159TIP3   OH2  440   3.680   0.431   0.915
  159TIP3    H1  441   3.758   0.422   0.861
  159TIP3    H2  442   3.610   0.392   0.863
  160TIP3   OH2  443   4.019   0.276   1.030
  160TIP3    H1  444   3.981   0.331   0.961
  160TIP3    H2  445   3.960   0.201   1.037
  161TIP3   OH2  446   4.037   0.770   1.412
  161TIP3    H1  447   4.068   0.840   1.356
  161TIP3    H2  448   4.116   0.736   1.454
  162TIP3   OH2  449   3.798   0.707   0.779
  162TIP3    H1  450   3.745   0.722   0.858
  162TIP3    H2  451   3.831   0.794   0.756
  163TIP3   OH2  452   4.385   0.388   1.381
  163TIP3    H1  453   4.363   0.393   1.474
  163TIP3    H2  454   4.480   0.373   1.380
  164TIP3   OH2  455   4.631   0.927   1.415
  164TIP3    H1  456   4.556   0.868   1.410
  164TIP3    H2  457   4.618   0.989   1.344
  165TIP3   OH2  458   1.235   6.561   1.861
  165TIP3    H1  459   1.141   6.571   1.846
  165TIP3    H2  460   1.262   6.492   1.799
  166TIP3   OH2  461   3.451   0.633   1.585
  166TIP3    H1  462   3.507   0.572   1.633
  166TIP3    H2  463   3.479   0.720   1.614
  167TIP3   OH2  464   1.951   6.888   1.672
  167TIP3    H1  465   1.950   6.936   1.755
  167TIP3    H2  466   1.895   6.812   1.688
  168TIP3   OH2  467   3.730   0.494   0.622
  168TIP3    H1  468   3.688   0.509   0.537
  168TIP3    H2  469   3.765   0.580   0.646
  169TIP3   OH2  470   4.651   0.928   0.984
  169TIP3    H1  471   4.603   0.973   0.914
  169TIP3    H2  472   4.743   0.950   0.968
  170TIP3   OH2  473   3.463   0.915   2.025
  170TIP3    H1  474   3.439   0.931   2.117
  170TIP3    H2  475   3.412   0.839   1.999
  171TIP3   OH2  476   4.547   0.812   1.784
  171TIP3    H1  477   4.552   0.741   1.848
  171TIP3    H2  478   4.624   0.866   1.802
  172TIP3   OH2  479   3.563   0.348   2.188
  172TIP3    H1  480   3.577   0.254   2.194
  172TIP3    H2  481   3.478   0.357   2.145
  173TIP3   OH2  482   4.178   0.434   1.957
  173TIP3    H1  483   4.136   0.452   1.873
  173TIP3    H2  484   4.206   0.343   1.951
  174TIP3   OH2  485   4.651   0.450   1.555
  174TIP3    H1  486   4.725   0.494   1.513
  174TIP3    H2  487   4.583   0.517   1.558
  175TIP3   OH2  488   3.721   0.108   2.173
  175TIP3    H1  489   3.806   0.069   2.153
  175TIP3    H2  490   3.729   0.137   2.264
  176TIP3   OH2  491   4.001   0.039   1.858
  176TIP3    H1  492   3.911   0.070   1.846
  176TIP3    H2  493   4.043   0.053   1.774
  177TIP3   OH2  494   4.544   0.353   1.959
  177TIP3    H1  495   4.523   0.279   1.902
  177TIP3    H2  496   4.541   0.317   2.048
  178TIP3   OH2  497   1.735   6.848   1.923
  178TIP3    H1  498   1.727   6.768   1.871
  178TIP3    H2  499   1.657   6.900   1.900
  179TIP3   OH2  500   4.172   0.087   1.657
  179TIP3    H1  501   4.229   0.036   1.600
  179TIP3    H2  502   4.124   0.145   1.598
  180TIP3   OH2  503   4.769   0.101   2.003
  180TIP3    H1  504   4.780   0.027   2.063
  180TIP3    H2  505   4.820   0.078   1.926
  181TIP3   OH2  506   4.870   0.340   1.677
  181TIP3    H1  507   4.787   0.388   1.683
  181TIP3    H2  508   4.877   0.316   1.585
  182TIP3   OH2  509   1.511   6.960   2.187
  182TIP3    H1  510   1.463   6.877   2.189
  182TIP3    H2  511   1.580   6.946   2.122
  183TIP3   OH2  512   1.962   6.872   2.079
  183TIP3    H1  513   1.936   6.843   2.166
  183TIP3    H2  514   1.890   6.844   2.022
  184TIP3   OH2  515   2.322   6.785   2.014
  184TIP3    H1  516   2.236   6.826   2.001
  184TIP3    H2  517   2.312   6.696   1.982
  185TIP3   OH2  518   1.342   6.747   2.208
  185TIP3    H1  519   1.398   6.671   2.225
  185TIP3    H2  520   1.282   6.749   2.282
  186TIP3   OH2  521   3.673   0.710   0.175
  186TIP3    H1  522   3.749   0.703   0.232
  186TIP3    H2  523   3.651   0.803   0.175
  187TIP3   OH2  524   3.048   0.734   1.084
  187TIP3    H1  525   2.954   0.748   1.096
  187TIP3    H2  526   3.067   0.654   1.132
  188TIP3   OH2  527   3.163   0.513   1.199
  188TIP3    H1  528   3.195   0.486   1.285
  188TIP3    H2  529   3.237   0.560   1.160
  189TIP3   OH2  530   4.911   1.010   0.964
  189TIP3    H1  531   4.938   1.022   1.055
  189TIP3    H2  532   4.993   1.013   0.915
  190TIP3   OH2  533   4.949   1.011   1.250
  190TIP3    H1  534   4.908   0.925   1.259
  190TIP3    H2  535   5.037   0.999   1.286
  191TIP3   OH2  536   5.019   0.645   1.869
  191TIP3    H1  537   4.940   0.677   1.913
  191TIP3    H2  538   5.066   0.724   1.843
  192TIP3   OH2  539   4.823   0.764   1.293
  192TIP3    H1  540   4.752   0.809   1.338
  192TIP3    H2  541   4.783   0.727   1.215
  193TIP3   OH2  542   3.405   0.058   1.579
  193TIP3    H1  543   3.373  -0.030   1.557
  193TIP3    H2  544   3.500   0.047   1.590
  194TIP3   OH2  545   1.087   6.637   2.153
  194TIP3    H1  546   1.181   6.659   2.154
  194TIP3    H2  547   1.081   6.556   2.203
  195TIP3   OH2  548   4.474   0.893   0.606
  195TIP3    H1  549   4.558   0.847   0.605
  195TIP3    H2  550   4.480   0.952   0.681
  196TIP3   OH2  551   3.648   0.697   2.030
  196TIP3    H1  552   3.597   0.629   1.984
  196TIP3    H2  553   3.667   0.659   2.115
  197TIP3   OH2  554   3.808   0.712   1.556
  197TIP3    H1  555   3.754   0.785   1.524
  197TIP3    H2  556   3.894   0.726   1.516
  198TIP3   OH2  557   4.204   0.952   1.695
  198TIP3    H1  558   4.245   0.944   1.781
  198TIP3    H2  559   4.266   1.003   1.643
  199TIP3   OH2  560   4.395   1.100   1.561
  199TIP3    H1  561   4.459   1.049   1.511
  199TIP3    H2  562   4.448   1.157   1.616
  200TIP3   OH2  563   3.465   0.952   1.618
  200TIP3    H1  564   3.374   0.962   1.589
  200TIP3    H2  565   3.484   1.033   1.665
  201TIP3   OH2  566   3.692   0.943   1.459
  201TIP3    H1  567   3.605   0.947   1.498
  201TIP3    H2  568   3.679   0.977   1.370
  202TIP3   OH2  569   4.114   0.970   1.237
  202TIP3    H1  570   4.047   0.974   1.168
  202TIP3    H2  571   4.124   1.061   1.266
  203TIP3   OH2  572   4.376   0.891   1.284
  203TIP3    H1  573   4.284   0.905   1.262
  203TIP3    H2  574   4.424   0.960   1.238
  204TIP3   OH2  575   4.580   1.087   1.196
  204TIP3    H1  576   4.569   1.174   1.157
  204TIP3    H2  577   4.607   1.031   1.123
  205TIP3   OH2  578   3.371   0.729   1.339
  205TIP3    H1  579   3.384   0.697   1.429
  205TIP3    H2  580   3.444   0.691   1.290
  206TIP3   OH2  581   3.584   0.603   1.237
  206TIP3    H1  582   3.589   0.520   1.283
  206TIP3    H2  583   3.665   0.648   1.260
  207TIP3   OH2  584   3.823   0.733   1.244
  207TIP3    H1  585   3.864   0.679   1.177
  207TIP3    H2  586   3.890   0.745   1.310
  208TIP3   OH2  587   4.855   0.970   1.582
  208TIP3    H1  588   4.780   0.942   1.530
  208TIP3    H2  589   4.847   1.065   1.586
  209TIP3   OH2  590   5.820   0.806   1.327
  209TIP3    H1  591   5.748   0.866   1.349
  209TIP3    H2  592   5.835   0.819   1.233
  210TIP3   OH2  593   5.602   0.976   1.362
  210TIP3    H1  594   5.569   0.989   1.274
  210TIP3    H2  595   5.525   0.953   1.414
  211TIP3   OH2  596   5.346   0.662   1.290
  211TIP3    H1  597   5.412   0.666   1.359
  211TIP3    H2  598   5.394   0.633   1.213
  212TIP3   OH2  599   5.542   0.627   1.485
  212TIP3    H1  600   5.632   0.649   1.511
  212TIP3    H2  601   5.491   0.636   1.566
  213TIP3   OH2  602   5.242   0.912   1.096
  213TIP3    H1  603   5.254   0.835   1.153
  213TIP3    H2  604   5.323   0.962   1.107
  214TIP3   OH2  605   5.244   1.206   1.474
  214TIP3    H1  606   5.326   1.209   1.522
  214TIP3    H2  607   5.226   1.112   1.463
  215TIP3   OH2  608   5.717   1.149   1.539
  215TIP3    H1  609   5.810   1.125   1.544
  215TIP3    H2  610   5.682   1.094   1.469
  216TIP3   OH2  611   5.345   0.600   1.689
  216TIP3    H1  612   5.363   0.506   1.687
  216TIP3    H2  613   5.273   0.612   1.627
  217TIP3   OH2  614   5.418   0.333   1.694
  217TIP3    H1  615   5.483   0.307   1.628
  217TIP3    H2  616   5.470   0.357   1.770
  218TIP3   OH2  617   5.383   0.925   1.520
  218TIP3    H1  618   5.291   0.907   1.500
  218TIP3    H2  619   5.387   0.924   1.616
  219TIP3   OH2  620   5.514   0.987   1.103
  219TIP3    H1  621   5.514   1.061   1.042
  219TIP3    H2  622   5.576   0.925   1.065
  220TIP3   OH2  623   5.993   1.258   1.242
  220TIP3    H1  624   6.060   1.223   1.301
  220TIP3    H2  625   6.030   1.247   1.154
  221TIP3   OH2  626   6.178   1.364   1.045
  221TIP3    H1  627   6.269   1.352   1.017
  221TIP3    H2  628   6.184   1.419   1.123
  222TIP3   OH2  629   5.249   1.236   1.079
  222TIP3    H1  630   5.156   1.252   1.063
  222TIP3    H2  631   5.271   1.293   1.152
  223TIP3   OH2  632   5.482   1.226   0.942
  223TIP3    H1  633   5.395   1.228   0.982
  223TIP3    H2  634   5.464   1.223   0.848
  224TIP3   OH2  635   5.172   1.014   0.847
  224TIP3    H1  636   5.189   0.995   0.939
  224TIP3    H2  637   5.241   0.967   0.799
  225TIP3   OH2  638   0.997   1.846   2.093
  225TIP3    H1  639   1.047   1.818   2.016
  225TIP3    H2  640   0.950   1.924   2.063
  226TIP3   OH2  641   1.066   1.325   2.452
  226TIP3    H1  642   0.984   1.324   2.402
  226TIP3    H2  643   1.090   1.233   2.460
  227TIP3   OH2  644   0.886   2.526   2.250
  227TIP3    H1  645   0.868   2.548   2.159
  227TIP3    H2  646   0.955   2.587   2.276
  228TIP3   OH2  647   0.578   2.026   2.163
  228TIP3    H1  648   0.514   1.954   2.163
  228TIP3    H2  649   0.591   2.046   2.255
  229TIP3   OH2  650   0.704   2.254   2.085
  229TIP3    H1  651   0.642   2.183   2.100
  229TIP3    H2  652   0.674   2.295   2.004
  230TIP3   OH2  653   7.376   2.187   2.728
  230TIP3    H1  654   7.464   2.148   2.727
  230TIP3    H2  655   7.341   2.170   2.640
  231TIP3   OH2  656   0.607   2.088   2.428
  231TIP3    H1  657   0.592   2.025   2.499
  231TIP3    H2  658   0.674   2.147   2.461
  232TIP3   OH2  659   0.607   1.671   2.628
  232TIP3    H1  660   0.691   1.651   2.585
  232TIP3    H2  661   0.599   1.606   2.697
  233TIP3   OH2  662   0.859   1.348   2.680
  233TIP3    H1  663   0.890   1.258   2.672
  233TIP3    H2  664   0.929   1.401   2.642
  234TIP3   OH2  665   0.850   1.625   2.436
  234TIP3    H1  666   0.784   1.631   2.367
  234TIP3    H2  667   0.934   1.637   2.390
  235TIP3   OH2  668   0.923   2.310   1.645
  235TIP3    H1  669   0.950   2.338   1.733
  235TIP3    H2  670   1.003   2.318   1.592
  236TIP3   OH2  671   1.011   2.317   1.909
  236TIP3    H1  672   0.970   2.232   1.927
  236TIP3    H2  673   1.099   2.295   1.879
  237TIP3   OH2  674   0.876   2.072   1.964
  237TIP3    H1  675   0.809   2.121   2.011
  237TIP3    H2  676   0.833   2.043   1.883
  238TIP3   OH2  677   1.088   1.676   2.303
  238TIP3    H1  678   1.155   1.612   2.277
  238TIP3    H2  679   1.072   1.727   2.224
  239TIP3   OH2  680   1.261   1.453   2.299
  239TIP3    H1  681   1.194   1.413   2.354
  239TIP3    H2  682   1.340   1.404   2.318
  240TIP3   OH2  683   1.470   0.874   2.651
  240TIP3    H1  684   1.475   0.779   2.650
  240TIP3    H2  685   1.531   0.902   2.583
  241TIP3   OH2  686   1.343   1.040   2.434
  241TIP3    H1  687   1.306   1.005   2.516
  241TIP3    H2  688   1.419   0.985   2.417
  242TIP3   OH2  689   0.255   2.287   2.348
  242TIP3    H1  690   0.294   2.259   2.431
  242TIP3    H2  691   0.329   2.319   2.296
  243TIP3   OH2  692   0.470   2.406   2.221
  243TIP3    H1  693   0.543   2.357   2.184
  243TIP3    H2  694   0.510   2.466   2.283
  244TIP3   OH2  695   0.669   2.380   1.838
  244TIP3    H1  696   0.636   2.467   1.817
  244TIP3    H2  697   0.711   2.350   1.757
  245TIP3   OH2  698   0.980   2.266   2.258
  245TIP3    H1  699   0.910   2.222   2.210
  245TIP3    H2  700   0.951   2.358   2.263
  246TIP3   OH2  701   2.150   1.603   1.028
  246TIP3    H1  702   2.171   1.670   1.093
  246TIP3    H2  703   2.055   1.595   1.031
  247TIP3   OH2  704   2.177   1.646   1.428
  247TIP3    H1  705   2.236   1.642   1.503
  247TIP3    H2  706   2.121   1.568   1.438
  248TIP3   OH2  707   1.463   1.589   1.742
  248TIP3    H1  708   1.454   1.499   1.773
  248TIP3    H2  709   1.551   1.615   1.769
  249TIP3   OH2  710   2.380   2.010   1.103
  249TIP3    H1  711   2.326   1.958   1.163
  249TIP3    H2  712   2.422   2.075   1.160
  250TIP3   OH2  713   1.461   1.949   1.549
  250TIP3    H1  714   1.430   1.858   1.554
  250TIP3    H2  715   1.556   1.942   1.552
  251TIP3   OH2  716   2.116   2.423   1.149
  251TIP3    H1  717   2.138   2.367   1.075
  251TIP3    H2  718   2.061   2.368   1.206
  252TIP3   OH2  719   1.992   1.875   1.468
  252TIP3    H1  720   1.998   1.790   1.424
  252TIP3    H2  721   2.083   1.904   1.476
  253TIP3   OH2  722   3.027   1.187   1.440
  253TIP3    H1  723   3.039   1.271   1.485
  253TIP3    H2  724   3.075   1.195   1.358
  254TIP3   OH2  725   2.402   1.356   1.499
  254TIP3    H1  726   2.435   1.274   1.536
  254TIP3    H2  727   2.337   1.328   1.435
  255TIP3   OH2  728   3.074   1.410   1.602
  255TIP3    H1  729   2.986   1.447   1.595
  255TIP3    H2  730   3.110   1.447   1.682
  256TIP3   OH2  731   1.973   1.773   0.851
  256TIP3    H1  732   2.017   1.762   0.766
  256TIP3    H2  733   2.019   1.845   0.893
  257TIP3   OH2  734   1.839   1.808   1.686
  257TIP3    H1  735   1.776   1.875   1.713
  257TIP3    H2  736   1.888   1.849   1.615
  258TIP3   OH2  737   2.629   1.105   1.312
  258TIP3    H1  738   2.570   1.082   1.384
  258TIP3    H2  739   2.682   1.177   1.347
  259TIP3   OH2  740   1.656   1.992   1.776
  259TIP3    H1  741   1.632   2.076   1.736
  259TIP3    H2  742   1.582   1.971   1.833
  260TIP3   OH2  743   2.492   2.217   1.246
  260TIP3    H1  744   2.406   2.216   1.288
  260TIP3    H2  745   2.492   2.297   1.194
  261TIP3   OH2  746   2.801   1.106   1.616
  261TIP3    H1  747   2.710   1.120   1.593
  261TIP3    H2  748   2.851   1.140   1.542
  262TIP3   OH2  749   2.166   2.271   0.929
  262TIP3    H1  750   2.257   2.263   0.958
  262TIP3    H2  751   2.167   2.343   0.866
  263TIP3   OH2  752   2.372   2.061   0.839
  263TIP3    H1  753   2.373   1.981   0.787
  263TIP3    H2  754   2.374   2.031   0.930
  264TIP3   OH2  755   2.721   2.107   1.582
  264TIP3    H1  756   2.714   2.032   1.524
  264TIP3    H2  757   2.706   2.183   1.526
  265TIP3   OH2  758   2.916   1.744   1.424
  265TIP3    H1  759   2.836   1.796   1.434
  265TIP3    H2  760   2.951   1.770   1.339
  266TIP3   OH2  761   2.199   1.589   0.757
  266TIP3    H1  762   2.183   1.600   0.851
  266TIP3    H2  763   2.287   1.550   0.753
  267TIP3   OH2  764   2.598   1.626   1.739
  267TIP3    H1  765   2.600   1.707   1.790
  267TIP3    H2  766   2.513   1.626   1.695
  268TIP3   OH2  767   1.745   1.976   1.451
  268TIP3    H1  768   1.743   2.016   1.364
  268TIP3    H2  769   1.836   1.948   1.463
  269TIP3   OH2  770   1.767   1.555   1.616
  269TIP3    H1  771   1.857   1.525   1.626
  269TIP3    H2  772   1.768   1.645   1.646
  270TIP3   OH2  773   2.252   2.195   1.367
  270TIP3    H1  774   2.230   2.272   1.420
  270TIP3    H2  775   2.240   2.121   1.426
  271TIP3   OH2  776   1.877   2.105   1.901
  271TIP3    H1  777   1.822   2.162   1.954
  271TIP3    H2  778   1.815   2.048   1.855
  272TIP3   OH2  779   1.640   1.684   1.972
  272TIP3    H1  780   1.643   1.757   2.034
  272TIP3    H2  781   1.559   1.637   1.995
  273TIP3   OH2  782   1.905   2.162   0.993
  273TIP3    H1  783   1.996   2.184   0.973
  273TIP3    H2  784   1.854   2.234   0.957
  274TIP3   OH2  785   1.651   2.248   1.987
  274TIP3    H1  786   1.642   2.271   1.894
  274TIP3    H2  787   1.587   2.179   2.001
  275TIP3   OH2  788   2.549   2.059   0.292
  275TIP3    H1  789   2.505   2.126   0.240
  275TIP3    H2  790   2.643   2.077   0.279
  276TIP3   OH2  791   1.274   1.815   1.942
  276TIP3    H1  792   1.259   1.774   1.857
  276TIP3    H2  793   1.311   1.745   1.995
  277TIP3   OH2  794   1.162   2.004   1.565
  277TIP3    H1  795   1.240   2.012   1.511
  277TIP3    H2  796   1.103   2.072   1.533
  278TIP3   OH2  797   2.957   2.459   1.635
  278TIP3    H1  798   2.961   2.364   1.647
  278TIP3    H2  799   2.876   2.485   1.679
  279TIP3   OH2  800   2.066   2.240   1.757
  279TIP3    H1  801   2.062   2.330   1.788
  279TIP3    H2  802   2.000   2.194   1.810
  280TIP3   OH2  803   1.781   2.291   0.784
  280TIP3    H1  804   1.748   2.235   0.714
  280TIP3    H2  805   1.873   2.305   0.761
  281TIP3   OH2  806   1.996   2.114   0.678
  281TIP3    H1  807   1.956   2.182   0.623
  281TIP3    H2  808   2.088   2.113   0.652
  282TIP3   OH2  809   2.844   1.571   1.909
  282TIP3    H1  810   2.761   1.584   1.863
  282TIP3    H2  811   2.862   1.478   1.899
  283TIP3   OH2  812   1.452   2.028   1.994
  283TIP3    H1  813   1.506   1.980   2.056
  283TIP3    H2  814   1.383   1.967   1.970
  284TIP3   OH2  815   2.428   0.968   1.983
  284TIP3    H1  816   2.501   0.910   2.006
  284TIP3    H2  817   2.364   0.954   2.053
  285TIP3   OH2  818   2.607   1.365   1.835
  285TIP3    H1  819   2.561   1.360   1.919
  285TIP3    H2  820   2.585   1.451   1.800
  286TIP3   OH2  821   1.782   1.316   1.764
  286TIP3    H1  822   1.731   1.337   1.842
  286TIP3    H2  823   1.746   1.374   1.696
  287TIP3   OH2  824   2.322   1.575   2.068
  287TIP3    H1  825   2.292   1.512   2.133
  287TIP3    H2  826   2.415   1.587   2.087
  288TIP3   OH2  827   2.230   1.292   1.288
  288TIP3    H1  828   2.204   1.343   1.212
  288TIP3    H2  829   2.277   1.217   1.252
  289TIP3   OH2  830   1.635   1.368   1.987
  289TIP3    H1  831   1.669   1.411   2.065
  289TIP3    H2  832   1.608   1.281   2.017
  290TIP3   OH2  833   2.332   1.573   1.650
  290TIP3    H1  834   2.359   1.500   1.593
  290TIP3    H2  835   2.299   1.530   1.729
  291TIP3   OH2  836   2.473   1.071   1.533
  291TIP3    H1  837   2.454   1.095   1.623
  291TIP3    H2  838   2.430   0.987   1.520
  292TIP3   OH2  839   2.665   2.804   1.735
  292TIP3    H1  840   2.663   2.824   1.641
  292TIP3    H2  841   2.743   2.849   1.767
  293TIP3   OH2  842   1.602   1.889   2.171
  293TIP3    H1  843   1.675   1.927   2.220
  293TIP3    H2  844   1.578   1.811   2.222
  294TIP3   OH2  845   2.048   1.402   1.463
  294TIP3    H1  846   2.102   1.350   1.403
  294TIP3    H2  847   2.047   1.352   1.544
  295TIP3   OH2  848   2.054   1.285   1.717
  295TIP3    H1  849   1.965   1.315   1.738
  295TIP3    H2  850   2.112   1.345   1.763
  296TIP3   OH2  851   2.694   1.902   1.406
  296TIP3    H1  852   2.723   1.949   1.328
  296TIP3    H2  853   2.603   1.880   1.387
  297TIP3   OH2  854   2.187   1.965   1.794
  297TIP3    H1  855   2.228   1.948   1.879
  297TIP3    H2  856   2.147   2.051   1.803
  298TIP3   OH2  857   1.382   1.609   2.091
  298TIP3    H1  858   1.440   1.624   2.166
  298TIP3    H2  859   1.332   1.531   2.115
  299TIP3   OH2  860   2.088   1.730   2.087
  299TIP3    H1  861   2.022   1.667   2.059
  299TIP3    H2  862   2.171   1.687   2.070
  300TIP3   OH2  863   2.333   2.256   1.677
  300TIP3    H1  864   2.239   2.241   1.687
  300TIP3    H2  865   2.361   2.294   1.760
  301TIP3   OH2  866   2.972   2.173   1.664
  301TIP3    H1  867   2.876   2.165   1.662
  301TIP3    H2  868   3.000   2.143   1.578
  302TIP3   OH2  869   2.445   2.045   0.537
  302TIP3    H1  870   2.390   1.968   0.524
  302TIP3    H2  871   2.496   2.053   0.456
  303TIP3   OH2  872   2.440   1.815   1.361
  303TIP3    H1  873   2.358   1.814   1.311
  303TIP3    H2  874   2.469   1.724   1.361
  304TIP3   OH2  875   1.855   2.311   1.576
  304TIP3    H1  876   1.876   2.405   1.574
  304TIP3    H2  877   1.936   2.270   1.608
  305TIP3   OH2  878   2.247   1.963   1.524
  305TIP3    H1  879   2.237   1.958   1.619
  305TIP3    H2  880   2.332   1.921   1.506
  306TIP3   OH2  881   2.479   2.482   1.569
  306TIP3    H1  882   2.410   2.416   1.581
  306TIP3    H2  883   2.448   2.538   1.498
  307TIP3   OH2  884   2.605   2.337   0.194
  307TIP3    H1  885   2.650   2.408   0.148
  307TIP3    H2  886   2.568   2.379   0.272
  308TIP3   OH2  887   1.579   1.123   2.100
  308TIP3    H1  888   1.499   1.129   2.152
  308TIP3    H2  889   1.631   1.056   2.144
  309TIP3   OH2  890   2.366   1.812   0.732
  309TIP3    H1  891   2.342   1.723   0.708
  309TIP3    H2  892   2.454   1.824   0.695
  310TIP3   OH2  893   1.275   2.220   1.779
  310TIP3    H1  894   1.289   2.126   1.765
  310TIP3    H2  895   1.363   2.257   1.785
  311TIP3   OH2  896   2.428   1.154   1.784
  311TIP3    H1  897   2.499   1.207   1.819
  311TIP3    H2  898   2.417   1.084   1.849
  312TIP3   OH2  899   2.259   1.410   1.855
  312TIP3    H1  900   2.278   1.460   1.935
  312TIP3    H2  901   2.307   1.328   1.867
  313TIP3   OH2  902   2.866   1.298   1.817
  313TIP3    H1  903   2.773   1.314   1.830
  313TIP3    H2  904   2.870   1.236   1.744
  314TIP3   OH2  905   2.519   1.555   1.354
  314TIP3    H1  906   2.475   1.489   1.409
  314TIP3    H2  907   2.597   1.510   1.321
  315TIP3   OH2  908   2.518   2.481   1.165
  315TIP3    H1  909   2.471   2.511   1.088
  315TIP3    H2  910   2.610   2.493   1.143
  316TIP3   OH2  911   1.296   2.522   2.145
  316TIP3    H1  912   1.375   2.533   2.198
  316TIP3    H2  913   1.296   2.429   2.122
  317TIP3   OH2  914   1.748   2.448   2.163
  317TIP3    H1  915   1.839   2.429   2.183
  317TIP3    H2  916   1.720   2.377   2.105
  318TIP3   OH2  917   2.392   2.361   1.922
  318TIP3    H1  918   2.395   2.295   1.991
  318TIP3    H2  919   2.465   2.419   1.942
  319TIP3   OH2  920   2.011   1.995   2.118
  319TIP3    H1  921   1.975   2.015   2.032
  319TIP3    H2  922   2.049   1.908   2.110
  320TIP3   OH2  923   2.497   2.024   1.718
  320TIP3    H1  924   2.576   2.058   1.676
  320TIP3    H2  925   2.431   2.091   1.702
  321TIP3   OH2  926   1.569   1.643   2.290
  321TIP3    H1  927   1.636   1.576   2.279
  321TIP3    H2  928   1.571   1.665   2.383
  322TIP3   OH2  929   1.895   1.554   1.978
  322TIP3    H1  930   1.807   1.592   1.974
  322TIP3    H2  931   1.931   1.568   1.891
  323TIP3   OH2  932   2.377   1.922   2.088
  323TIP3    H1  933   2.450   1.883   2.039
  323TIP3    H2  934   2.370   1.868   2.167
  324TIP3   OH2  935   1.990   1.330   2.109
  324TIP3    H1  936   1.977   1.250   2.059
  324TIP3    H2  937   1.959   1.400   2.052
  325TIP3   OH2  938   1.965   1.110   1.915
  325TIP3    H1  939   2.017   1.157   1.850
  325TIP3    H2  940   1.874   1.121   1.886
  326TIP3   OH2  941   2.021   1.614   1.742
  326TIP3    H1  942   2.112   1.642   1.729
  326TIP3    H2  943   1.969   1.693   1.728
  327TIP3   OH2  944   2.591   1.593   2.155
  327TIP3    H1  945   2.627   1.505   2.164
  327TIP3    H2  946   2.666   1.648   2.132
  328TIP3   OH2  947   2.628   1.859   1.890
  328TIP3    H1  948   2.571   1.917   1.840
  328TIP3    H2  949   2.716   1.878   1.858
  329TIP3   OH2  950   1.753   1.438   2.243
  329TIP3    H1  951   1.742   1.362   2.300
  329TIP3    H2  952   1.843   1.432   2.212
  330TIP3   OH2  953   2.055   0.840   2.015
  330TIP3    H1  954   2.002   0.919   2.006
  330TIP3    H2  955   1.992   0.769   2.023
  331TIP3   OH2  956   2.248   1.349   2.208
  331TIP3    H1  957   2.243   1.357   2.303
  331TIP3    H2  958   2.158   1.334   2.180
  332TIP3   OH2  959   2.481   1.311   2.065
  332TIP3    H1  960   2.402   1.310   2.119
  332TIP3    H2  961   2.549   1.274   2.122
  333TIP3   OH2  962   2.725   1.268   2.212
  333TIP3    H1  963   2.735   1.173   2.222
  333TIP3    H2  964   2.714   1.300   2.302
  334TIP3   OH2  965   1.729   1.219   2.403
  334TIP3    H1  966   1.722   1.124   2.396
  334TIP3    H2  967   1.757   1.234   2.494
  335TIP3   OH2  968   2.256   0.891   2.195
  335TIP3    H1  969   2.304   0.808   2.204
  335TIP3    H2  970   2.182   0.869   2.139
  336TIP3   OH2  971   2.272   1.074   2.404
  336TIP3    H1  972   2.260   1.018   2.327
  336TIP3    H2  973   2.197   1.133   2.402
  337TIP3   OH2  974   2.780   2.546   1.128
  337TIP3    H1  975   2.803   2.576   1.216
  337TIP3    H2  976   2.844   2.588   1.070
  338TIP3   OH2  977   2.802   2.568   1.412
  338TIP3    H1  978   2.754   2.485   1.405
  338TIP3    H2  979   2.872   2.550   1.474
  339TIP3   OH2  980   2.841   2.254   1.981
  339TIP3    H1  981   2.769   2.261   2.044
  339TIP3    H2  982   2.885   2.338   1.984
  340TIP3   OH2  983   2.622   1.843   0.667
  340TIP3    H1  984   2.634   1.885   0.752
  340TIP3    H2  985   2.663   1.757   0.677
  341TIP3   OH2  986   2.796   1.673   0.972
  341TIP3    H1  987   2.795   1.579   0.954
  341TIP3    H2  988   2.888   1.699   0.965
  342TIP3   OH2  989   2.845   2.029   1.217
  342TIP3    H1  990   2.895   1.960   1.173
  342TIP3    H2  991   2.849   2.103   1.157
  343TIP3   OH2  992   2.665   2.327   1.430
  343TIP3    H1  993   2.598   2.372   1.481
  343TIP3    H2  994   2.616   2.286   1.358
  344TIP3   OH2  995   2.622   1.460   0.915
  344TIP3    H1  996   2.596   1.378   0.957
  344TIP3    H2  997   2.607   1.527   0.981
  345TIP3   OH2  998   2.881   1.913   1.794
  345TIP3    H1  999   2.947   1.846   1.778
  345TIP3    H2 1000   2.904   1.984   1.733
  346TIP3   OH2 1001   3.052   1.701   1.788
  346TIP3    H1 1002   2.979   1.658   1.832
  346TIP3    H2 1003   3.127   1.644   1.806
  347TIP3   OH2 1004   2.763   1.321   1.410
  347TIP3    H1 1005   2.804   1.363   1.335
  347TIP3    H2 1006   2.772   1.384   1.482
  348TIP3   OH2 1007   2.818   1.532   1.576
  348TIP3    H1 1008   2.743   1.566   1.626
  348TIP3    H2 1009   2.851   1.608   1.528
  349TIP3   OH2 1010   1.462   1.280   2.373
  349TIP3    H1 1011   1.554   1.256   2.373
  349TIP3    H2 1012   1.415   1.200   2.396
  350TIP3   OH2 1013   3.303   1.150   2.090
  350TIP3    H1 1014   3.317   1.063   2.052
  350TIP3    H2 1015   3.247   1.195   2.026
  351TIP3   OH2 1016   3.126   1.251   1.918
  351TIP3    H1 1017   3.053   1.294   1.961
  351TIP3    H2 1018   3.085   1.189   1.857
  352TIP3   OH2 1019   2.255   2.484   0.787
  352TIP3    H1 1020   2.318   2.469   0.716
  352TIP3    H2 1021   2.307   2.523   0.857
  353TIP3   OH2 1022   1.336   2.209   2.215
  353TIP3    H1 1023   1.368   2.160   2.139
  353TIP3    H2 1024   1.415   2.227   2.267
  354TIP3   OH2 1025   1.623   2.258   1.713
  354TIP3    H1 1026   1.578   2.334   1.678
  354TIP3    H2 1027   1.710   2.260   1.673
  355TIP3   OH2 1028   2.050   2.507   1.837
  355TIP3    H1 1029   2.086   2.498   1.926
  355TIP3    H2 1030   2.114   2.560   1.791
  356TIP3   OH2 1031   2.242   2.663   1.714
  356TIP3    H1 1032   2.307   2.607   1.673
  356TIP3    H2 1033   2.292   2.721   1.771
  357TIP3   OH2 1034   3.034   1.006   1.805
  357TIP3    H1 1035   2.945   0.997   1.770
  357TIP3    H2 1036   3.072   0.918   1.797
  358TIP3   OH2 1037   1.300   2.549   1.745
  358TIP3    H1 1038   1.206   2.561   1.731
  358TIP3    H2 1039   1.322   2.612   1.814
  359TIP3   OH2 1040   1.528   2.487   1.615
  359TIP3    H1 1041   1.446   2.510   1.659
  359TIP3    H2 1042   1.524   2.532   1.531
  360TIP3   OH2 1043   1.979   2.633   1.318
  360TIP3    H1 1044   1.895   2.588   1.306
  360TIP3    H2 1045   1.981   2.657   1.410
  361TIP3   OH2 1046   2.209   2.472   1.434
  361TIP3    H1 1047   2.140   2.475   1.368
  361TIP3    H2 1048   2.274   2.536   1.403
  362TIP3   OH2 1049   2.409   2.646   1.348
  362TIP3    H1 1050   2.408   2.731   1.303
  362TIP3    H2 1051   2.448   2.586   1.284
  363TIP3   OH2 1052   1.184   2.308   1.530
  363TIP3    H1 1053   1.210   2.292   1.621
  363TIP3    H2 1054   1.253   2.267   1.478
  364TIP3   OH2 1055   1.389   2.171   1.416
  364TIP3    H1 1056   1.414   2.088   1.457
  364TIP3    H2 1057   1.472   2.219   1.408
  365TIP3   OH2 1058   1.645   2.252   1.395
  365TIP3    H1 1059   1.683   2.193   1.331
  365TIP3    H2 1060   1.713   2.264   1.461
  366TIP3   OH2 1061   2.680   0.825   1.372
  366TIP3    H1 1062   2.763   0.864   1.398
  366TIP3    H2 1063   2.646   0.884   1.304
  367TIP3   OH2 1064   2.903   0.989   1.130
  367TIP3    H1 1065   2.982   0.960   1.085
  367TIP3    H2 1066   2.891   1.080   1.102
  368TIP3   OH2 1067   2.479   2.436   0.626
  368TIP3    H1 1068   2.534   2.364   0.595
  368TIP3    H2 1069   2.441   2.473   0.546
  369TIP3   OH2 1070   2.794   0.999   2.240
  369TIP3    H1 1071   2.807   0.969   2.330
  369TIP3    H2 1072   2.880   0.990   2.199
  370TIP3   OH2 1073   2.707   2.530   1.730
  370TIP3    H1 1074   2.630   2.501   1.682
  370TIP3    H2 1075   2.693   2.624   1.743
  371TIP3   OH2 1076   3.987   1.923   0.480
  371TIP3    H1 1077   3.956   2.009   0.455
  371TIP3    H2 1078   3.911   1.866   0.471
  372TIP3   OH2 1079   3.976   1.901   0.894
  372TIP3    H1 1080   4.025   1.888   0.975
  372TIP3    H2 1081   3.938   1.816   0.874
  373TIP3   OH2 1082   3.283   1.789   1.252
  373TIP3    H1 1083   3.315   1.727   1.318
  373TIP3    H2 1084   3.360   1.813   1.201
  374TIP3   OH2 1085   4.239   2.218   0.562
  374TIP3    H1 1086   4.225   2.150   0.628
  374TIP3    H2 1087   4.262   2.296   0.612
  375TIP3   OH2 1088   3.264   2.212   0.951
  375TIP3    H1 1089   3.250   2.118   0.954
  375TIP3    H2 1090   3.359   2.222   0.941
  376TIP3   OH2 1091   2.942   1.402   0.719
  376TIP3    H1 1092   2.889   1.479   0.698
  376TIP3    H2 1093   2.878   1.331   0.727
  377TIP3   OH2 1094   3.053   1.723   0.931
  377TIP3    H1 1095   3.131   1.667   0.939
  377TIP3    H2 1096   3.071   1.777   0.854
  378TIP3   OH2 1097   3.891   2.657   0.578
  378TIP3    H1 1098   3.925   2.585   0.524
  378TIP3    H2 1099   3.876   2.619   0.664
  379TIP3   OH2 1100   3.781   2.127   0.910
  379TIP3    H1 1101   3.822   2.046   0.880
  379TIP3    H2 1102   3.855   2.181   0.939
  380TIP3   OH2 1103   4.798   1.458   0.921
  380TIP3    H1 1104   4.822   1.537   0.970
  380TIP3    H2 1105   4.830   1.475   0.833
  381TIP3   OH2 1106   4.207   1.624   0.951
  381TIP3    H1 1107   4.248   1.540   0.974
  381TIP3    H2 1108   4.161   1.606   0.869
  382TIP3   OH2 1109   3.595   1.342   0.971
  382TIP3    H1 1110   3.572   1.380   0.886
  382TIP3    H2 1111   3.576   1.249   0.961
  383TIP3   OH2 1112   4.228   1.368   0.538
  383TIP3    H1 1113   4.284   1.345   0.612
  383TIP3    H2 1114   4.287   1.412   0.476
  384TIP3   OH2 1115   3.196   1.507   1.036
  384TIP3    H1 1116   3.268   1.479   1.093
  384TIP3    H2 1117   3.198   1.446   0.963
  385TIP3   OH2 1118   3.608   1.703   0.842
  385TIP3    H1 1119   3.701   1.682   0.852
  385TIP3    H2 1120   3.566   1.618   0.825
  386TIP3   OH2 1121   4.870   1.669   1.090
  386TIP3    H1 1122   4.782   1.706   1.085
  386TIP3    H2 1123   4.907   1.705   1.171
  387TIP3   OH2 1124   3.545   1.295   1.378
  387TIP3    H1 1125   3.500   1.329   1.300
  387TIP3    H2 1126   3.482   1.305   1.449
  388TIP3   OH2 1127   3.889   2.147   0.346
  388TIP3    H1 1128   3.823   2.095   0.301
  388TIP3    H2 1129   3.841   2.224   0.377
  389TIP3   OH2 1130   3.630   2.055   1.131
  389TIP3    H1 1131   3.572   2.125   1.163
  389TIP3    H2 1132   3.675   2.095   1.057
  390TIP3   OH2 1133   4.422   1.384   0.745
  390TIP3    H1 1134   4.371   1.368   0.824
  390TIP3    H2 1135   4.471   1.465   0.762
  391TIP3   OH2 1136   3.415   1.398   1.161
  391TIP3    H1 1137   3.458   1.479   1.189
  391TIP3    H2 1138   3.468   1.366   1.088
  392TIP3   OH2 1139   3.465   2.255   1.230
  392TIP3    H1 1140   3.448   2.343   1.198
  392TIP3    H2 1141   3.387   2.233   1.282
  393TIP3   OH2 1142   2.835   1.987   0.510
  393TIP3    H1 1143   2.816   2.007   0.419
  393TIP3    H2 1144   2.898   2.055   0.536
  394TIP3   OH2 1145   4.285   2.461   0.708
  394TIP3    H1 1146   4.200   2.451   0.751
  394TIP3    H2 1147   4.281   2.547   0.666
  395TIP3   OH2 1148   4.591   1.345   1.084
  395TIP3    H1 1149   4.503   1.364   1.052
  395TIP3    H2 1150   4.649   1.377   1.014
  396TIP3   OH2 1151   3.867   0.963   1.093
  396TIP3    H1 1152   3.842   0.879   1.131
  396TIP3    H2 1153   3.807   1.026   1.132
  397TIP3   OH2 1154   3.992   2.488   0.377
  397TIP3    H1 1155   4.043   2.408   0.365
  397TIP3    H2 1156   4.050   2.558   0.349
  398TIP3   OH2 1157   4.142   2.265   0.304
  398TIP3    H1 1158   4.064   2.209   0.305
  398TIP3    H2 1159   4.188   2.244   0.386
  399TIP3   OH2 1160   4.515   2.356   1.058
  399TIP3    H1 1161   4.499   2.280   1.002
  399TIP3    H2 1162   4.499   2.432   1.002
  400TIP3   OH2 1163   3.803   1.750   0.340
  400TIP3    H1 1164   3.746   1.825   0.322
  400TIP3    H2 1165   3.854   1.739   0.260
  401TIP3   OH2 1166   3.780   1.537   0.067
  401TIP3    H1 1167   3.840   1.608   0.091
  401TIP3    H2 1168   3.836   1.461   0.051
  402TIP3   OH2 1169   4.704   2.008   0.921
  402TIP3    H1 1170   4.620   2.053   0.924
  402TIP3    H2 1171   4.737   2.025   0.832
  403TIP3   OH2 1172   4.172   1.848   0.295
  403TIP3    H1 1173   4.116   1.878   0.367
  403TIP3    H2 1174   4.252   1.817   0.337
  404TIP3   OH2 1175   4.392   1.874   1.224
  404TIP3    H1 1176   4.391   1.956   1.272
  404TIP3    H2 1177   4.309   1.873   1.177
  405TIP3   OH2 1178   3.406   1.840   0.709
  405TIP3    H1 1179   3.376   1.787   0.636
  405TIP3    H2 1180   3.479   1.791   0.746
  406TIP3   OH2 1181   3.527   2.250   0.841
  406TIP3    H1 1182   3.504   2.225   0.752
  406TIP3    H2 1183   3.613   2.210   0.856
  407TIP3   OH2 1184   3.506   1.819   1.074
  407TIP3    H1 1185   3.544   1.786   0.992
  407TIP3    H2 1186   3.552   1.900   1.092
  408TIP3   OH2 1187   4.053   2.448   0.845
  408TIP3    H1 1188   4.036   2.528   0.895
  408TIP3    H2 1189   4.036   2.377   0.908
  409TIP3   OH2 1190   3.665   2.358   1.391
  409TIP3    H1 1191   3.606   2.417   1.438
  409TIP3    H2 1192   3.607   2.306   1.336
  410TIP3   OH2 1193   3.992   1.710   0.143
  410TIP3    H1 1194   4.052   1.759   0.200
  410TIP3    H2 1195   4.021   1.730   0.054
  411TIP3   OH2 1196   3.421   1.908   1.528
  411TIP3    H1 1197   3.426   2.001   1.549
  411TIP3    H2 1198   3.328   1.890   1.518
  412TIP3   OH2 1199   3.740   2.373   0.399
  412TIP3    H1 1200   3.818   2.428   0.399
  412TIP3    H2 1201   3.682   2.413   0.335
  413TIP3   OH2 1202   3.456   2.518   1.477
  413TIP3    H1 1203   3.428   2.525   1.385
  413TIP3    H2 1204   3.375   2.500   1.525
  414TIP3   OH2 1205   3.314   1.744   0.461
  414TIP3    H1 1206   3.236   1.799   0.448
  414TIP3    H2 1207   3.282   1.668   0.509
  415TIP3   OH2 1208   3.040   2.067   1.422
  415TIP3    H1 1209   2.975   2.050   1.354
  415TIP3    H2 1210   3.077   1.982   1.443
  416TIP3   OH2 1211   2.906   2.254   1.064
  416TIP3    H1 1212   3.001   2.252   1.049
  416TIP3    H2 1213   2.892   2.334   1.115
  417TIP3   OH2 1214   4.750   2.711   1.123
  417TIP3    H1 1215   4.755   2.617   1.140
  417TIP3    H2 1216   4.671   2.739   1.168
  418TIP3   OH2 1217   3.854   2.496   1.247
  418TIP3    H1 1218   3.851   2.587   1.276
  418TIP3    H2 1219   3.787   2.451   1.299
  419TIP3   OH2 1220   3.629   2.614   0.201
  419TIP3    H1 1221   3.579   2.595   0.121
  419TIP3    H2 1222   3.591   2.695   0.234
  420TIP3   OH2 1223   3.076   2.472   0.595
  420TIP3    H1 1224   3.123   2.469   0.679
  420TIP3    H2 1225   3.032   2.387   0.590
  421TIP3   OH2 1226   6.288   6.037   5.895
  421TIP3    H1 1227   6.335   5.972   5.844
  421TIP3    H2 1228   6.326   6.032   5.982
  422TIP3   OH2 1229   3.884   2.563   0.121
  422TIP3    H1 1230   3.795   2.574   0.154
  422TIP3    H2 1231   3.934   2.528   0.196
  423TIP3   OH2 1232   4.638   1.831   1.394
  423TIP3    H1 1233   4.556   1.841   1.345
  423TIP3    H2 1234   4.657   1.737   1.389
  424TIP3   OH2 1235   3.245   2.250   1.397
  424TIP3    H1 1236   3.293   2.241   1.479
  424TIP3    H2 1237   3.172   2.189   1.404
  425TIP3   OH2 1238   3.673   1.098   1.228
  425TIP3    H1 1239   3.596   1.054   1.192
  425TIP3    H2 1240   3.639   1.174   1.275
  426TIP3   OH2 1241   4.176   1.191   1.403
  426TIP3    H1 1242   4.247   1.160   1.460
  426TIP3    H2 1243   4.096   1.166   1.448
  427TIP3   OH2 1244   4.401   1.611   1.317
  427TIP3    H1 1245   4.359   1.609   1.403
  427TIP3    H2 1246   4.383   1.699   1.283
  428TIP3   OH2 1247   6.573   5.253   5.950
  428TIP3    H1 1248   6.531   5.211   5.875
  428TIP3    H2 1249   6.652   5.294   5.914
  429TIP3   OH2 1250   3.748   1.186   0.152
  429TIP3    H1 1251   3.693   1.163   0.227
  429TIP3    H2 1252   3.791   1.104   0.128
  430TIP3   OH2 1253   3.579   1.605   1.231
  430TIP3    H1 1254   3.532   1.620   1.313
  430TIP3    H2 1255   3.558   1.682   1.178
  431TIP3   OH2 1256   3.452   1.484   0.772
  431TIP3    H1 1257   3.382   1.424   0.797
  431TIP3    H2 1258   3.473   1.460   0.682
  432TIP3   OH2 1259   3.963   1.579   0.473
  432TIP3    H1 1260   3.904   1.644   0.435
  432TIP3    H2 1261   3.971   1.512   0.405
  433TIP3   OH2 1262   4.122   1.823   1.539
  433TIP3    H1 1263   4.096   1.753   1.598
  433TIP3    H2 1264   4.214   1.838   1.559
  434TIP3   OH2 1265   4.108   1.567   0.703
  434TIP3    H1 1266   4.055   1.595   0.628
  434TIP3    H2 1267   4.137   1.479   0.679
  435TIP3   OH2 1268   3.398   1.615   1.438
  435TIP3    H1 1269   3.416   1.678   1.508
  435TIP3    H2 1270   3.382   1.533   1.484
  436TIP3   OH2 1271   3.021   1.122   0.860
  436TIP3    H1 1272   3.035   1.115   0.954
  436TIP3    H2 1273   3.105   1.097   0.821
  437TIP3   OH2 1274   4.132   1.824   1.115
  437TIP3    H1 1275   4.163   1.757   1.053
  437TIP3    H2 1276   4.091   1.774   1.186
  438TIP3   OH2 1277   3.845   1.329   0.822
  438TIP3    H1 1278   3.793   1.309   0.900
  438TIP3    H2 1279   3.928   1.282   0.835
  439TIP3   OH2 1280   3.221   1.341   0.819
  439TIP3    H1 1281   3.134   1.348   0.779
  439TIP3    H2 1282   3.244   1.249   0.809
  440TIP3   OH2 1283   3.514   1.411   0.519
  440TIP3    H1 1284   3.607   1.426   0.505
  440TIP3    H2 1285   3.477   1.406   0.431
  441TIP3   OH2 1286   4.301   1.364   1.003
  441TIP3    H1 1287   4.260   1.377   1.088
  441TIP3    H2 1288   4.243   1.304   0.957
  442TIP3   OH2 1289   3.336   1.325   0.296
  442TIP3    H1 1290   3.258   1.276   0.271
  442TIP3    H2 1291   3.369   1.363   0.215
  443TIP3   OH2 1292   4.453   3.057   1.216
  443TIP3    H1 1293   4.450   3.078   1.123
  443TIP3    H2 1294   4.531   3.102   1.248
  444TIP3   OH2 1295   3.406   2.168   1.632
  444TIP3    H1 1296   3.486   2.193   1.678
  444TIP3    H2 1297   3.336   2.175   1.697
  445TIP3   OH2 1298   3.872   1.629   0.897
  445TIP3    H1 1299   3.922   1.568   0.843
  445TIP3    H2 1300   3.865   1.585   0.982
  446TIP3   OH2 1301   3.264   1.079   0.745
  446TIP3    H1 1302   3.300   0.993   0.763
  446TIP3    H2 1303   3.292   1.099   0.655
  447TIP3   OH2 1304   3.838   1.533   1.166
  447TIP3    H1 1305   3.749   1.562   1.187
  447TIP3    H2 1306   3.895   1.590   1.218
  448TIP3   OH2 1307   3.664   1.983   0.300
  448TIP3    H1 1308   3.591   1.931   0.266
  448TIP3    H2 1309   3.635   2.011   0.387
  449TIP3   OH2 1310   4.466   2.146   0.884
  449TIP3    H1 1311   4.497   2.196   0.809
  449TIP3    H2 1312   4.385   2.105   0.854
  450TIP3   OH2 1313   3.962   1.340   0.017
  450TIP3    H1 1314   3.951   1.253   0.055
  450TIP3    H2 1315   4.031   1.381   0.069
  451TIP3   OH2 1316   3.976   2.230   1.282
  451TIP3    H1 1317   4.023   2.221   1.366
  451TIP3    H2 1318   3.935   2.316   1.287
  452TIP3   OH2 1319   4.153   1.471   0.179
  452TIP3    H1 1320   4.217   1.487   0.248
  452TIP3    H2 1321   4.097   1.548   0.180
  453TIP3   OH2 1322   3.287   1.939   0.939
  453TIP3    H1 1323   3.314   1.912   0.851
  453TIP3    H2 1324   3.342   1.889   0.998
  454TIP3   OH2 1325   3.739   2.074   0.049
  454TIP3    H1 1326   3.700   2.161   0.059
  454TIP3    H2 1327   3.716   2.028   0.130
  455TIP3   OH2 1328   3.150   1.844   1.559
  455TIP3    H1 1329   3.159   1.826   1.652
  455TIP3    H2 1330   3.079   1.785   1.531
  456TIP3   OH2 1331   3.888   1.973   1.577
  456TIP3    H1 1332   3.822   1.919   1.534
  456TIP3    H2 1333   3.971   1.935   1.550
  457TIP3   OH2 1334   4.127   2.505   1.170
  457TIP3    H1 1335   4.032   2.495   1.178
  457TIP3    H2 1336   4.154   2.549   1.251
  458TIP3   OH2 1337   4.513   1.557   0.097
  458TIP3    H1 1338   4.476   1.493   0.036
  458TIP3    H2 1339   4.514   1.639   0.049
  459TIP3   OH2 1340   4.762   2.423   1.153
  459TIP3    H1 1341   4.667   2.416   1.147
  459TIP3    H2 1342   4.794   2.397   1.067
  460TIP3   OH2 1343   4.225   2.344   0.024
  460TIP3    H1 1344   4.217   2.323   0.117
  460TIP3    H2 1345   4.173   2.276  -0.020
  461TIP3   OH2 1346   4.233   2.012   0.784
  461TIP3    H1 1347   4.143   1.990   0.808
  461TIP3    H2 1348   4.269   1.930   0.749
  462TIP3   OH2 1349   3.372   2.248   0.585
  462TIP3    H1 1350   3.369   2.327   0.531
  462TIP3    H2 1351   3.281   2.233   0.611
  463TIP3   OH2 1352   2.811   1.513   0.328
  463TIP3    H1 1353   2.895   1.558   0.318
  463TIP3    H2 1354   2.746   1.583   0.323
  464TIP3   OH2 1355   3.507   2.021   0.520
  464TIP3    H1 1356   3.465   2.104   0.541
  464TIP3    H2 1357   3.476   1.960   0.587
  465TIP3   OH2 1358   3.664   2.574   1.045
  465TIP3    H1 1359   3.701   2.646   0.994
  465TIP3    H2 1360   3.738   2.539   1.095
  466TIP3   OH2 1361   3.297   2.478   0.435
  466TIP3    H1 1362   3.212   2.483   0.480
  466TIP3    H2 1363   3.332   2.567   0.441
  467TIP3   OH2 1364   4.024   2.223   1.012
  467TIP3    H1 1365   4.010   2.221   1.106
  467TIP3    H2 1366   4.102   2.170   0.998
  468TIP3   OH2 1367   6.481   5.629   5.959
  468TIP3    H1 1368   6.540   5.577   6.014
  468TIP3    H2 1369   6.393   5.608   5.991
  469TIP3   OH2 1370   4.275   2.736   1.054
  469TIP3    H1 1371   4.200   2.676   1.061
  469TIP3    H2 1372   4.250   2.795   0.982
  470TIP3   OH2 1373   3.354   1.366   1.568
  470TIP3    H1 1374   3.258   1.371   1.558
  470TIP3    H2 1375   3.367   1.305   1.640
  471TIP3   OH2 1376   4.202   2.022   0.075
  471TIP3    H1 1377   4.180   1.966   0.150
  471TIP3    H2 1378   4.297   2.034   0.082
  472TIP3   OH2 1379   3.089   2.456   1.208
  472TIP3    H1 1380   3.140   2.390   1.254
  472TIP3    H2 1381   3.107   2.537   1.255
  473TIP3   OH2 1382   5.919   5.632   5.993
  473TIP3    H1 1383   5.898   5.569   5.925
  473TIP3    H2 1384   5.864   5.606   6.067
  474TIP3   OH2 1385   3.352   2.115   0.247
  474TIP3    H1 1386   3.429   2.099   0.302
  474TIP3    H2 1387   3.357   2.209   0.226
  475TIP3   OH2 1388   3.091   1.889   0.439
  475TIP3    H1 1389   3.016   1.831   0.422
  475TIP3    H2 1390   3.088   1.953   0.368
  476TIP3   OH2 1391   4.201   1.425   1.258
  476TIP3    H1 1392   4.282   1.466   1.289
  476TIP3    H2 1393   4.191   1.346   1.311
  477TIP3   OH2 1394   4.078   1.116   0.492
  477TIP3    H1 1395   4.087   1.178   0.419
  477TIP3    H2 1396   4.098   1.167   0.570
  478TIP3   OH2 1397   3.623   2.319   0.115
  478TIP3    H1 1398   3.532   2.326   0.145
  478TIP3    H2 1399   3.630   2.386   0.046
  479TIP3   OH2 1400   3.789   1.384   0.566
  479TIP3    H1 1401   3.848   1.459   0.555
  479TIP3    H2 1402   3.800   1.358   0.657
  480TIP3   OH2 1403   4.041   1.658   1.314
  480TIP3    H1 1404   4.071   1.699   1.395
  480TIP3    H2 1405   4.091   1.577   1.308
  481TIP3   OH2 1406   3.358   2.379   0.189
  481TIP3    H1 1407   3.320   2.438   0.124
  481TIP3    H2 1408   3.335   2.418   0.273
  482TIP3   OH2 1409   3.342   1.152   0.497
  482TIP3    H1 1410   3.352   1.218   0.428
  482TIP3    H2 1411   3.415   1.092   0.483
  483TIP3   OH2 1412   4.666   1.558   1.306
  483TIP3    H1 1413   4.571   1.565   1.315
  483TIP3    H2 1414   4.679   1.507   1.226
  484TIP3   OH2 1415   4.322   1.756   0.695
  484TIP3    H1 1416   4.246   1.699   0.705
  484TIP3    H2 1417   4.391   1.714   0.746
  485TIP3   OH2 1418   3.084   2.073   0.233
  485TIP3    H1 1419   3.176   2.096   0.246
  485TIP3    H2 1420   3.079   2.044   0.142
  486TIP3   OH2 1421   4.302   2.730   0.627
  486TIP3    H1 1422   4.261   2.779   0.556
  486TIP3    H2 1423   4.396   2.743   0.614
  487TIP3   OH2 1424   3.438   0.970   1.205
  487TIP3    H1 1425   3.403   0.964   1.117
  487TIP3    H2 1426   3.399   0.896   1.252
  488TIP3   OH2 1427   2.938   2.238   0.561
  488TIP3    H1 1428   2.870   2.262   0.624
  488TIP3    H2 1429   2.913   2.284   0.481
  489TIP3   OH2 1430   3.086   2.766   1.622
  489TIP3    H1 1431   3.167   2.771   1.671
  489TIP3    H2 1432   3.066   2.673   1.618
  490TIP3   OH2 1433   3.552   2.691   1.669
  490TIP3    H1 1434   3.646   2.675   1.678
  490TIP3    H2 1435   3.524   2.633   1.599
  491TIP3   OH2 1436   6.034   5.798   5.819
  491TIP3    H1 1437   5.990   5.746   5.886
  491TIP3    H2 1438   6.103   5.742   5.786
  492TIP3   OH2 1439   4.184   2.622   1.412
  492TIP3    H1 1440   4.189   2.552   1.477
  492TIP3    H2 1441   4.260   2.678   1.431
  493TIP3   OH2 1442   6.454   5.843   5.787
  493TIP3    H1 1443   6.458   5.764   5.841
  493TIP3    H2 1444   6.543   5.879   5.789
  494TIP3   OH2 1445   3.200   2.161   1.820
  494TIP3    H1 1446   3.217   2.067   1.830
  494TIP3    H2 1447   3.114   2.166   1.778
  495TIP3   OH2 1448   5.684   5.222   5.968
  495TIP3    H1 1449   5.656   5.196   6.056
  495TIP3    H2 1450   5.677   5.318   5.968
  496TIP3   OH2 1451   3.816   2.249   1.595
  496TIP3    H1 1452   3.772   2.270   1.513
  496TIP3    H2 1453   3.851   2.161   1.582
  497TIP3   OH2 1454   6.162   5.537   5.815
  497TIP3    H1 1455   6.160   5.552   5.910
  497TIP3    H2 1456   6.114   5.455   5.803
  498TIP3   OH2 1457   4.294   2.279   1.208
  498TIP3    H1 1458   4.372   2.312   1.162
  498TIP3    H2 1459   4.228   2.346   1.193
  499TIP3   OH2 1460   3.315   1.901   1.820
  499TIP3    H1 1461   3.392   1.889   1.764
  499TIP3    H2 1462   3.351   1.926   1.905
  500TIP3   OH2 1463   3.461   1.823   0.242
  500TIP3    H1 1464   3.426   1.835   0.330
  500TIP3    H2 1465   3.437   1.734   0.217
  501TIP3   OH2 1466   3.665   1.781   1.481
  501TIP3    H1 1467   3.585   1.832   1.491
  501TIP3    H2 1468   3.704   1.813   1.400
  502TIP3   OH2 1469   5.986   5.008   6.005
  502TIP3    H1 1470   6.015   4.928   5.962
  502TIP3    H2 1471   6.058   5.031   6.064
  503TIP3   OH2 1472   4.175   2.170   1.582
  503TIP3    H1 1473   4.245   2.132   1.529
  503TIP3    H2 1474   4.170   2.114   1.660
  504TIP3   OH2 1475   6.786   5.373   5.814
  504TIP3    H1 1476   6.759   5.374   5.722
  504TIP3    H2 1477   6.759   5.458   5.848
  505TIP3   OH2 1478   3.784   1.563   1.594
  505TIP3    H1 1479   3.794   1.491   1.530
  505TIP3    H2 1480   3.745   1.634   1.543
  506TIP3   OH2 1481   3.806   1.364   1.396
  506TIP3    H1 1482   3.830   1.399   1.310
  506TIP3    H2 1483   3.713   1.342   1.389
  507TIP3   OH2 1484   3.799   1.894   1.276
  507TIP3    H1 1485   3.888   1.912   1.246
  507TIP3    H2 1486   3.744   1.956   1.227
  508TIP3   OH2 1487   4.389   1.856   1.639
  508TIP3    H1 1488   4.432   1.770   1.641
  508TIP3    H2 1489   4.459   1.917   1.619
  509TIP3   OH2 1490   4.422   2.111   1.378
  509TIP3    H1 1491   4.367   2.170   1.327
  509TIP3    H2 1492   4.511   2.127   1.346
  510TIP3   OH2 1493   3.658   1.658   1.827
  510TIP3    H1 1494   3.583   1.601   1.841
  510TIP3    H2 1495   3.687   1.639   1.738
  511TIP3   OH2 1496   3.914   1.125   1.490
  511TIP3    H1 1497   3.879   1.206   1.453
  511TIP3    H2 1498   3.850   1.058   1.467
  512TIP3   OH2 1499   4.042   1.607   1.689
  512TIP3    H1 1500   4.040   1.599   1.784
  512TIP3    H2 1501   3.953   1.586   1.660
  513TIP3   OH2 1502   4.287   1.568   1.556
  513TIP3    H1 1503   4.208   1.565   1.610
  513TIP3    H2 1504   4.357   1.538   1.614
  514TIP3   OH2 1505   4.517   1.517   1.707
  514TIP3    H1 1506   4.530   1.422   1.715
  514TIP3    H2 1507   4.511   1.548   1.797
  515TIP3   OH2 1508   3.490   1.437   1.886
  515TIP3    H1 1509   3.499   1.349   1.850
  515TIP3    H2 1510   3.524   1.431   1.975
  516TIP3   OH2 1511   3.966   1.088   1.755
  516TIP3    H1 1512   4.045   1.035   1.748
  516TIP3    H2 1513   3.941   1.106   1.665
  517TIP3   OH2 1514   4.060   1.325   1.886
  517TIP3    H1 1515   4.033   1.254   1.828
  517TIP3    H2 1516   3.984   1.383   1.889
  518TIP3   OH2 1517   5.762   6.057   6.037
  518TIP3    H1 1518   5.853   6.057   6.009
  518TIP3    H2 1519   5.730   6.144   6.015
  519TIP3   OH2 1520   2.817   2.083   0.252
  519TIP3    H1 1521   2.912   2.095   0.251
  519TIP3    H2 1522   2.800   2.025   0.178
  520TIP3   OH2 1523   2.717   2.570   0.645
  520TIP3    H1 1524   2.637   2.525   0.619
  520TIP3    H2 1525   2.762   2.508   0.703
  521TIP3   OH2 1526   2.836   2.391   0.811
  521TIP3    H1 1527   2.815   2.315   0.864
  521TIP3    H2 1528   2.887   2.448   0.870
  522TIP3   OH2 1529   4.573   2.783   0.618
  522TIP3    H1 1530   4.587   2.809   0.709
  522TIP3    H2 1531   4.626   2.845   0.567
  523TIP3   OH2 1532   4.589   2.816   0.897
  523TIP3    H1 1533   4.542   2.733   0.896
  523TIP3    H2 1534   4.660   2.803   0.960
  524TIP3   OH2 1535   4.642   2.516   1.470
  524TIP3    H1 1536   4.571   2.524   1.534
  524TIP3    H2 1537   4.685   2.601   1.472
  525TIP3   OH2 1538   4.483   2.026   0.082
  525TIP3    H1 1539   4.551   2.091   0.065
  525TIP3    H2 1540   4.508   1.985   0.164
  526TIP3   OH2 1541   4.582   1.886   0.292
  526TIP3    H1 1542   4.517   1.844   0.347
  526TIP3    H2 1543   4.647   1.922   0.353
  527TIP3   OH2 1544   4.636   2.288   0.713
  527TIP3    H1 1545   4.689   2.220   0.672
  527TIP3    H2 1546   4.636   2.360   0.650
  528TIP3   OH2 1547   4.449   2.575   0.905
  528TIP3    H1 1548   4.382   2.618   0.958
  528TIP3    H2 1549   4.401   2.533   0.834
  529TIP3   OH2 1550   6.981   5.274   5.985
  529TIP3    H1 1551   6.913   5.292   5.921
  529TIP3    H2 1552   6.979   5.350   6.044
  530TIP3   OH2 1553   4.391   1.744   0.429
  530TIP3    H1 1554   4.391   1.649   0.415
  530TIP3    H2 1555   4.370   1.754   0.522
  531TIP3   OH2 1556   3.023   1.815   1.184
  531TIP3    H1 1557   3.023   1.791   1.092
  531TIP3    H2 1558   3.115   1.818   1.208
  532TIP3   OH2 1559   4.678   2.167   1.284
  532TIP3    H1 1560   4.743   2.099   1.267
  532TIP3    H2 1561   4.701   2.238   1.224
  533TIP3   OH2 1562   4.852   1.955   1.277
  533TIP3    H1 1563   4.778   1.913   1.321
  533TIP3    H2 1564   4.927   1.898   1.297
  534TIP3   OH2 1565   4.391   1.479   0.333
  534TIP3    H1 1566   4.428   1.392   0.344
  534TIP3    H2 1567   4.436   1.514   0.256
  535TIP3   OH2 1568   4.537   1.629   0.822
  535TIP3    H1 1569   4.619   1.651   0.777
  535TIP3    H2 1570   4.549   1.664   0.910
  536TIP3   OH2 1571   4.613   1.780   1.052
  536TIP3    H1 1572   4.538   1.809   1.104
  536TIP3    H2 1573   4.644   1.860   1.009
  537TIP3   OH2 1574   3.225   1.494   1.833
  537TIP3    H1 1575   3.320   1.492   1.846
  537TIP3    H2 1576   3.194   1.413   1.873
  538TIP3   OH2 1577   5.071   1.378   1.597
  538TIP3    H1 1578   5.134   1.319   1.555
  538TIP3    H2 1579   5.035   1.430   1.526
  539TIP3   OH2 1580   4.484   1.225   0.359
  539TIP3    H1 1581   4.539   1.212   0.436
  539TIP3    H2 1582   4.426   1.149   0.358
  540TIP3   OH2 1583   3.276   1.196   1.300
  540TIP3    H1 1584   3.324   1.116   1.281
  540TIP3    H2 1585   3.318   1.263   1.245
  541TIP3   OH2 1586   3.031   1.499   1.269
  541TIP3    H1 1587   3.071   1.528   1.187
  541TIP3    H2 1588   3.020   1.579   1.320
  542TIP3   OH2 1589   4.926   1.500   1.401
  542TIP3    H1 1590   4.842   1.541   1.424
  542TIP3    H2 1591   4.901   1.426   1.345
  543TIP3   OH2 1592   4.146   2.676   0.266
  543TIP3    H1 1593   4.199   2.674   0.186
  543TIP3    H2 1594   4.178   2.753   0.313
  544TIP3   OH2 1595   3.210   1.031   1.580
  544TIP3    H1 1596   3.142   1.036   1.648
  544TIP3    H2 1597   3.173   1.079   1.506
  545TIP3   OH2 1598   3.234   2.480   1.642
  545TIP3    H1 1599   3.140   2.465   1.632
  545TIP3    H2 1600   3.249   2.475   1.736
  546TIP3   OH2 1601   3.434   2.528   1.192
  546TIP3    H1 1602   3.381   2.601   1.159
  546TIP3    H2 1603   3.519   2.539   1.149
  547TIP3   OH2 1604   3.849   2.762   1.326
  547TIP3    H1 1605   3.885   2.756   1.414
  547TIP3    H2 1606   3.912   2.815   1.277
  548TIP3   OH2 1607   4.037   2.918   1.198
  548TIP3    H1 1608   4.104   2.865   1.155
  548TIP3    H2 1609   4.087   2.976   1.256
  549TIP3   OH2 1610   4.830   1.258   1.289
  549TIP3    H1 1611   4.742   1.250   1.252
  549TIP3    H2 1612   4.868   1.171   1.280
  550TIP3   OH2 1613   3.097   2.778   1.234
  550TIP3    H1 1614   3.006   2.797   1.213
  550TIP3    H2 1615   3.120   2.842   1.302
  551TIP3   OH2 1616   3.327   2.758   1.083
  551TIP3    H1 1617   3.244   2.766   1.130
  551TIP3    H2 1618   3.306   2.786   0.994
  552TIP3   OH2 1619   3.749   2.779   0.874
  552TIP3    H1 1620   3.677   2.793   0.814
  552TIP3    H2 1621   3.761   2.863   0.917
  553TIP3   OH2 1622   4.014   2.713   0.925
  553TIP3    H1 1623   3.922   2.733   0.908
  553TIP3    H2 1624   4.063   2.784   0.882
  554TIP3   OH2 1625   4.215   2.895   0.832
  554TIP3    H1 1626   4.209   2.982   0.793
  554TIP3    H2 1627   4.244   2.838   0.761
  555TIP3   OH2 1628   3.011   2.560   0.963
  555TIP3    H1 1629   3.035   2.533   1.051
  555TIP3    H2 1630   3.083   2.529   0.908
  556TIP3   OH2 1631   3.216   2.448   0.826
  556TIP3    H1 1632   3.225   2.364   0.870
  556TIP3    H2 1633   3.304   2.485   0.827
  557TIP3   OH2 1634   3.483   2.528   0.836
  557TIP3    H1 1635   3.502   2.435   0.822
  557TIP3    H2 1636   3.533   2.551   0.914
  558TIP3   OH2 1637   4.514   1.084   0.798
  558TIP3    H1 1638   4.560   1.135   0.732
  558TIP3    H2 1639   4.433   1.133   0.814
  559TIP3   OH2 1640   4.652   1.178   0.577
  559TIP3    H1 1641   4.731   1.125   0.562
  559TIP3    H2 1642   4.682   1.268   0.565
  560TIP3   OH2 1643   3.350   0.861   0.907
  560TIP3    H1 1644   3.263   0.893   0.933
  560TIP3    H2 1645   3.354   0.772   0.939
  561TIP3   OH2 1646   3.828   0.985   0.819
  561TIP3    H1 1647   3.900   1.043   0.793
  561TIP3    H2 1648   3.837   0.978   0.914
  562TIP3   OH2 1649   4.330   1.003   0.408
  562TIP3    H1 1650   4.253   1.044   0.448
  562TIP3    H2 1651   4.378   0.967   0.482
  563TIP3   OH2 1652   2.862   2.366   0.325
  563TIP3    H1 1653   2.823   2.310   0.258
  563TIP3    H2 1654   2.836   2.455   0.301
  564TIP3   OH2 1655   3.780   1.137   0.443
  564TIP3    H1 1656   3.863   1.094   0.464
  564TIP3    H2 1657   3.777   1.213   0.501
  565TIP3   OH2 1658   6.026   6.027   5.969
  565TIP3    H1 1659   6.110   6.066   5.943
  565TIP3    H2 1660   6.014   5.953   5.910
  566TIP3   OH2 1661   6.754   6.106   6.061
  566TIP3    H1 1662   6.732   6.013   6.063
  566TIP3    H2 1663   6.699   6.143   5.993
  567TIP3   OH2 1664   3.511   1.163   1.812
  567TIP3    H1 1665   3.465   1.118   1.884
  567TIP3    H2 1666   3.604   1.148   1.830
  568TIP3   OH2 1667   3.763   1.034   1.940
  568TIP3    H1 1668   3.830   1.042   1.871
  568TIP3    H2 1669   3.790   1.096   2.007
  569TIP3   OH2 1670   3.003   2.346   0.048
  569TIP3    H1 1671   2.916   2.384   0.039
  569TIP3    H2 1672   3.017   2.340   0.143
  570TIP3   OH2 1673   4.578   1.244   1.719
  570TIP3    H1 1674   4.595   1.214   1.808
  570TIP3    H2 1675   4.663   1.241   1.676
  571TIP3   OH2 1676   4.500   2.784   1.216
  571TIP3    H1 1677   4.423   2.754   1.168
  571TIP3    H2 1678   4.486   2.879   1.227
  572TIP3   OH2 1679   0.628   5.706   6.024
  572TIP3    H1 1680   0.700   5.763   6.050
  572TIP3    H2 1681   0.670   5.625   5.997
  573TIP3   OH2 1682   5.729   2.210   0.357
  573TIP3    H1 1683   5.713   2.149   0.429
  573TIP3    H2 1684   5.763   2.155   0.287
  574TIP3   OH2 1685   5.074   2.061   0.735
  574TIP3    H1 1686   5.093   1.984   0.789
  574TIP3    H2 1687   5.130   2.130   0.771
  575TIP3   OH2 1688   6.099   2.331   0.072
  575TIP3    H1 1689   6.068   2.302   0.158
  575TIP3    H2 1690   6.025   2.379   0.036
  576TIP3   OH2 1691   5.053   2.444   0.420
  576TIP3    H1 1692   5.042   2.352   0.441
  576TIP3    H2 1693   5.148   2.458   0.424
  577TIP3   OH2 1694   4.739   1.665   0.221
  577TIP3    H1 1695   4.695   1.747   0.242
  577TIP3    H2 1696   4.670   1.607   0.190
  578TIP3   OH2 1697   4.820   1.969   0.419
  578TIP3    H1 1698   4.862   1.887   0.446
  578TIP3    H2 1699   4.892   2.026   0.394
  579TIP3   OH2 1700   5.567   2.422   0.400
  579TIP3    H1 1701   5.607   2.338   0.378
  579TIP3    H2 1702   5.637   2.473   0.440
  580TIP3   OH2 1703   5.893   1.766   0.386
  580TIP3    H1 1704   5.925   1.748   0.474
  580TIP3    H2 1705   5.958   1.824   0.348
  581TIP3   OH2 1706   5.287   1.530   0.405
  581TIP3    H1 1707   5.302   1.599   0.341
  581TIP3    H2 1708   5.355   1.465   0.388
  582TIP3   OH2 1709   4.954   1.748   0.507
  582TIP3    H1 1710   5.033   1.729   0.557
  582TIP3    H2 1711   4.966   1.701   0.424
  583TIP3   OH2 1712   5.410   1.943   0.291
  583TIP3    H1 1713   5.496   1.901   0.285
  583TIP3    H2 1714   5.348   1.874   0.267
  584TIP3   OH2 1715   5.298   1.525   0.837
  584TIP3    H1 1716   5.249   1.570   0.769
  584TIP3    H2 1717   5.249   1.542   0.918
  585TIP3   OH2 1718   5.413   2.319   0.604
  585TIP3    H1 1719   5.356   2.383   0.645
  585TIP3    H2 1720   5.463   2.369   0.539
  586TIP3   OH2 1721   5.181   1.651   0.624
  586TIP3    H1 1722   5.240   1.724   0.644
  586TIP3    H2 1723   5.223   1.607   0.550
  587TIP3   OH2 1724   5.253   2.511   0.715
  587TIP3    H1 1725   5.241   2.602   0.688
  587TIP3    H2 1726   5.178   2.492   0.772
  588TIP3   OH2 1727   7.153   5.685   5.997
  588TIP3    H1 1728   7.079   5.697   5.938
  588TIP3    H2 1729   7.163   5.770   6.040
  589TIP3   OH2 1730   6.036   2.805   0.215
  589TIP3    H1 1731   5.950   2.783   0.252
  589TIP3    H2 1732   6.032   2.773   0.125
  590TIP3   OH2 1733   6.295   2.652   0.573
  590TIP3    H1 1734   6.284   2.576   0.516
  590TIP3    H2 1735   6.261   2.725   0.521
  591TIP3   OH2 1736   6.494   2.256   0.370
  591TIP3    H1 1737   6.511   2.248   0.464
  591TIP3    H2 1738   6.551   2.327   0.341
  592TIP3   OH2 1739   6.119   2.104   0.698
  592TIP3    H1 1740   6.178   2.179   0.686
  592TIP3    H2 1741   6.032   2.144   0.707
  593TIP3   OH2 1742   5.315   2.499   0.330
  593TIP3    H1 1743   5.305   2.468   0.240
  593TIP3    H2 1744   5.405   2.476   0.353
  594TIP3   OH2 1745   5.327   2.069   0.524
  594TIP3    H1 1746   5.374   2.040   0.446
  594TIP3    H2 1747   5.370   2.152   0.548
  595TIP3   OH2 1748   5.806   2.726   0.353
  595TIP3    H1 1749   5.801   2.789   0.425
  595TIP3    H2 1750   5.804   2.641   0.396
  596TIP3   OH2 1751   5.461   2.613   0.873
  596TIP3    H1 1752   5.404   2.672   0.923
  596TIP3    H2 1753   5.401   2.561   0.821
  597TIP3   OH2 1754   5.205   2.184   0.975
  597TIP3    H1 1755   5.215   2.270   1.015
  597TIP3    H2 1756   5.116   2.157   0.999
  598TIP3   OH2 1757   5.253   2.771   0.964
  598TIP3    H1 1758   5.224   2.783   0.873
  598TIP3    H2 1759   5.173   2.756   1.013
  599TIP3   OH2 1760   4.837   2.322   0.911
  599TIP3    H1 1761   4.766   2.304   0.850
  599TIP3    H2 1762   4.868   2.236   0.939
  600TIP3   OH2 1763   4.685   2.523   0.550
  600TIP3    H1 1764   4.777   2.539   0.569
  600TIP3    H2 1765   4.639   2.598   0.587
  601TIP3   OH2 1766   6.528   2.958   0.607
  601TIP3    H1 1767   6.553   2.874   0.645
  601TIP3    H2 1768   6.452   2.986   0.659
  602TIP3   OH2 1769   5.647   2.757   0.731
  602TIP3    H1 1770   5.646   2.847   0.765
  602TIP3    H2 1771   5.582   2.711   0.784
  603TIP3   OH2 1772   4.830   2.759   0.095
  603TIP3    H1 1773   4.906   2.743   0.151
  603TIP3    H2 1774   4.767   2.691   0.120
  604TIP3   OH2 1775   6.402   2.168   0.876
  604TIP3    H1 1776   6.385   2.118   0.796
  604TIP3    H2 1777   6.392   2.104   0.946
  605TIP3   OH2 1778   5.038   2.507   0.883
  605TIP3    H1 1779   5.085   2.504   0.966
  605TIP3    H2 1780   4.966   2.445   0.894
  606TIP3   OH2 1781   5.396   1.320   0.679
  606TIP3    H1 1782   5.309   1.287   0.659
  606TIP3    H2 1783   5.380   1.394   0.738
  607TIP3   OH2 1784   5.961   1.446   0.903
  607TIP3    H1 1785   6.043   1.430   0.948
  607TIP3    H2 1786   5.906   1.492   0.967
  608TIP3   OH2 1787   6.218   1.836   0.729
  608TIP3    H1 1788   6.148   1.841   0.794
  608TIP3    H2 1789   6.234   1.927   0.704
  609TIP3   OH2 1790   5.344   1.856   0.698
  609TIP3    H1 1791   5.305   1.876   0.783
  609TIP3    H2 1792   5.334   1.936   0.648
  610TIP3   OH2 1793   5.250   1.728   0.208
  610TIP3    H1 1794   5.160   1.698   0.225
  610TIP3    H2 1795   5.271   1.692   0.122
  611TIP3   OH2 1796   5.911   2.115   1.058
  611TIP3    H1 1797   5.892   2.050   1.126
  611TIP3    H2 1798   5.993   2.156   1.086
  612TIP3   OH2 1799   5.176   1.869   0.921
  612TIP3    H1 1800   5.226   1.924   0.982
  612TIP3    H2 1801   5.165   1.786   0.967
  613TIP3   OH2 1802   4.800   1.391   0.500
  613TIP3    H1 1803   4.844   1.437   0.571
  613TIP3    H2 1804   4.866   1.384   0.431
  614TIP3   OH2 1805   5.846   2.141   0.703
  614TIP3    H1 1806   5.835   2.108   0.614
  614TIP3    H2 1807   5.807   2.075   0.759
  615TIP3   OH2 1808   5.002   1.618   0.262
  615TIP3    H1 1809   4.911   1.637   0.239
  615TIP3    H2 1810   5.006   1.523   0.266
  616TIP3   OH2 1811   6.260   3.323   0.730
  616TIP3    H1 1812   6.259   3.335   0.635
  616TIP3    H2 1813   6.340   3.366   0.759
  617TIP3   OH2 1814   5.204   2.425   1.117
  617TIP3    H1 1815   5.285   2.449   1.163
  617TIP3    H2 1816   5.135   2.431   1.183
  618TIP3   OH2 1817   5.627   1.750   0.315
  618TIP3    H1 1818   5.722   1.754   0.316
  618TIP3    H2 1819   5.602   1.745   0.407
  619TIP3   OH2 1820   5.585   1.768   0.604
  619TIP3    H1 1821   5.504   1.794   0.649
  619TIP3    H2 1822   5.639   1.729   0.673
  620TIP3   OH2 1823   6.234   2.449   0.396
  620TIP3    H1 1824   6.285   2.459   0.315
  620TIP3    H2 1825   6.158   2.398   0.370
  621TIP3   OH2 1826   5.774   2.486   0.783
  621TIP3    H1 1827   5.820   2.462   0.864
  621TIP3    H2 1828   5.735   2.571   0.802
  622TIP3   OH2 1829   5.065   2.150   0.462
  622TIP3    H1 1830   5.156   2.129   0.442
  622TIP3    H2 1831   5.055   2.127   0.554
  623TIP3   OH2 1832   4.948   2.104   1.050
  623TIP3    H1 1833   4.967   2.089   1.142
  623TIP3    H2 1834   4.877   2.042   1.030
  624TIP3   OH2 1835   5.666   2.239   1.069
  624TIP3    H1 1836   5.612   2.186   1.012
  624TIP3    H2 1837   5.756   2.212   1.049
  625TIP3   OH2 1838   5.915   2.752   0.650
  625TIP3    H1 1839   5.821   2.744   0.670
  625TIP3    H2 1840   5.951   2.800   0.725
  626TIP3   OH2 1841   6.554   2.686   0.653
  626TIP3    H1 1842   6.458   2.690   0.660
  626TIP3    H2 1843   6.571   2.632   0.577
  627TIP3   OH2 1844   6.033   2.254   0.324
  627TIP3    H1 1845   5.953   2.300   0.348
  627TIP3    H2 1846   6.026   2.168   0.367
  628TIP3   OH2 1847   5.174   2.465   0.077
  628TIP3    H1 1848   5.194   2.538   0.019
  628TIP3    H2 1849   5.101   2.496   0.131
  629TIP3   OH2 1850   7.226   5.327   5.842
  629TIP3    H1 1851   7.164   5.354   5.774
  629TIP3    H2 1852   7.173   5.279   5.905
  630TIP3   OH2 1853   5.256   2.206   0.033
  630TIP3    H1 1854   5.246   2.299   0.054
  630TIP3    H2 1855   5.351   2.191   0.038
  631TIP3   OH2 1856   5.457   2.826   0.533
  631TIP3    H1 1857   5.493   2.899   0.483
  631TIP3    H2 1858   5.530   2.796   0.588
  632TIP3   OH2 1859   6.270   4.782   1.119
  632TIP3    H1 1860   6.184   4.777   1.161
  632TIP3    H2 1861   6.252   4.824   1.035
  633TIP3   OH2 1862   5.804   2.493   0.512
  633TIP3    H1 1863   5.796   2.480   0.606
  633TIP3    H2 1864   5.896   2.474   0.493
  634TIP3   OH2 1865   6.052   3.022   0.557
  634TIP3    H1 1866   5.972   2.975   0.534
  634TIP3    H2 1867   6.060   3.091   0.492
  635TIP3   OH2 1868   5.149   1.615   1.052
  635TIP3    H1 1869   5.054   1.618   1.061
  635TIP3    H2 1870   5.178   1.561   1.126
  636TIP3   OH2 1871   4.892   2.704   0.691
  636TIP3    H1 1872   4.941   2.642   0.745
  636TIP3    H2 1873   4.903   2.789   0.735
  637TIP3   OH2 1874   7.401   5.583   5.926
  637TIP3    H1 1875   7.317   5.618   5.956
  637TIP3    H2 1876   7.377   5.522   5.856
  638TIP3   OH2 1877   6.048   1.610   0.693
  638TIP3    H1 1878   6.139   1.620   0.720
  638TIP3    H2 1879   6.016   1.535   0.743
  639TIP3   OH2 1880   5.754   1.943   0.875
  639TIP3    H1 1881   5.794   1.995   0.945
  639TIP3    H2 1882   5.756   1.853   0.908
  640TIP3   OH2 1883   6.468   1.754   0.742
  640TIP3    H1 1884   6.381   1.784   0.719
  640TIP3    H2 1885   6.527   1.802   0.684
  641TIP3   OH2 1886   6.136   1.994   0.167
  641TIP3    H1 1887   6.165   2.027   0.083
  641TIP3    H2 1888   6.174   1.906   0.173
  642TIP3   OH2 1889   5.127   1.231   0.677
  642TIP3    H1 1890   5.086   1.173   0.613
  642TIP3    H2 1891   5.141   1.176   0.754
  643TIP3   OH2 1892   4.687   2.451   0.050
  643TIP3    H1 1893   4.658   2.496   0.129
  643TIP3    H2 1894   4.650   2.503  -0.022
  644TIP3   OH2 1895   4.883   3.029   1.113
  644TIP3    H1 1896   4.962   3.037   1.168
  644TIP3    H2 1897   4.867   2.935   1.109
  645TIP3   OH2 1898   5.343   2.953   1.155
  645TIP3    H1 1899   5.437   2.942   1.170
  645TIP3    H2 1900   5.322   2.891   1.085
  646TIP3   OH2 1901   5.987   2.871   0.886
  646TIP3    H1 1902   5.987   2.805   0.955
  646TIP3    H2 1903   6.057   2.931   0.912
  647TIP3   OH2 1904   4.997   2.413   1.302
  647TIP3    H1 1905   5.015   2.320   1.311
  647TIP3    H2 1906   4.909   2.417   1.264
  648TIP3   OH2 1907   5.610   2.512   1.082
  648TIP3    H1 1908   5.566   2.531   0.999
  648TIP3    H2 1909   5.640   2.422   1.073
  649TIP3   OH2 1910   6.086   2.525   0.691
  649TIP3    H1 1911   6.161   2.581   0.673
  649TIP3    H2 1912   6.010   2.583   0.684
  650TIP3   OH2 1913   5.120   2.153   1.301
  650TIP3    H1 1914   5.204   2.128   1.261
  650TIP3    H2 1915   5.143   2.182   1.389
  651TIP3   OH2 1916   5.434   2.030   0.949
  651TIP3    H1 1917   5.363   2.094   0.958
  651TIP3    H2 1918   5.490   2.065   0.879
  652TIP3   OH2 1919   5.960   2.430   1.072
  652TIP3    H1 1920   6.038   2.406   1.021
  652TIP3    H2 1921   5.970   2.382   1.154
  653TIP3   OH2 1922   5.567   1.836   1.090
  653TIP3    H1 1923   5.553   1.752   1.046
  653TIP3    H2 1924   5.526   1.900   1.032
  654TIP3   OH2 1925   5.535   1.614   0.937
  654TIP3    H1 1926   5.599   1.623   0.866
  654TIP3    H2 1927   5.457   1.580   0.894
  655TIP3   OH2 1928   5.576   2.179   0.773
  655TIP3    H1 1929   5.666   2.199   0.746
  655TIP3    H2 1930   5.521   2.230   0.714
  656TIP3   OH2 1931   6.198   2.163   1.144
  656TIP3    H1 1932   6.198   2.067   1.150
  656TIP3    H2 1933   6.290   2.187   1.140
  657TIP3   OH2 1934   6.176   2.379   0.905
  657TIP3    H1 1935   6.140   2.430   0.833
  657TIP3    H2 1936   6.260   2.347   0.872
  658TIP3   OH2 1937   5.449   1.917   1.325
  658TIP3    H1 1938   5.382   1.851   1.343
  658TIP3    H2 1939   5.482   1.895   1.238
  659TIP3   OH2 1940   5.685   1.393   1.007
  659TIP3    H1 1941   5.638   1.475   0.995
  659TIP3    H2 1942   5.621   1.325   0.984
  660TIP3   OH2 1943   5.817   1.899   1.199
  660TIP3    H1 1944   5.802   1.877   1.291
  660TIP3    H2 1945   5.738   1.868   1.154
  661TIP3   OH2 1946   6.102   1.910   1.169
  661TIP3    H1 1947   6.013   1.886   1.194
  661TIP3    H2 1948   6.153   1.830   1.182
  662TIP3   OH2 1949   6.320   1.760   1.248
  662TIP3    H1 1950   6.387   1.707   1.292
  662TIP3    H2 1951   6.295   1.827   1.312
  663TIP3   OH2 1952   5.291   1.691   1.381
  663TIP3    H1 1953   5.296   1.602   1.345
  663TIP3    H2 1954   5.329   1.684   1.469
  664TIP3   OH2 1955   5.754   1.378   1.268
  664TIP3    H1 1956   5.832   1.322   1.269
  664TIP3    H2 1957   5.727   1.379   1.176
  665TIP3   OH2 1958   5.869   1.596   1.378
  665TIP3    H1 1959   5.832   1.518   1.336
  665TIP3    H2 1960   5.796   1.657   1.384
  666TIP3   OH2 1961   4.472   2.790   0.123
  666TIP3    H1 1962   4.411   2.731   0.081
  666TIP3    H2 1963   4.522   2.734   0.183
  667TIP3   OH2 1964   4.641   2.638   0.286
  667TIP3    H1 1965   4.627   2.572   0.354
  667TIP3    H2 1966   4.688   2.709   0.331
  668TIP3   OH2 1967   6.384   3.078   0.400
  668TIP3    H1 1968   6.332   3.000   0.381
  668TIP3    H2 1969   6.449   3.048   0.464
  669TIP3   OH2 1970   6.405   2.778   0.925
  669TIP3    H1 1971   6.342   2.779   0.997
  669TIP3    H2 1972   6.457   2.857   0.938
  670TIP3   OH2 1973   6.214   2.855   0.412
  670TIP3    H1 1974   6.170   2.908   0.479
  670TIP3    H2 1975   6.152   2.850   0.340
  671TIP3   OH2 1976   4.806   2.072   0.674
  671TIP3    H1 1977   4.798   2.035   0.585
  671TIP3    H2 1978   4.900   2.071   0.691
  672TIP3   OH2 1979   6.436   2.467   0.778
  672TIP3    H1 1980   6.499   2.414   0.827
  672TIP3    H2 1981   6.477   2.553   0.772
  673TIP3   OH2 1982   6.623   2.335   0.918
  673TIP3    H1 1983   6.560   2.265   0.933
  673TIP3    H2 1984   6.708   2.296   0.939
  674TIP3   OH2 1985   6.394   2.031   0.636
  674TIP3    H1 1986   6.323   2.063   0.581
  674TIP3    H2 1987   6.470   2.082   0.609
  675TIP3   OH2 1988   5.026   1.746   1.324
  675TIP3    H1 1989   5.121   1.745   1.339
  675TIP3    H2 1990   4.995   1.665   1.364
  676TIP3   OH2 1991   4.980   1.469   0.690
  676TIP3    H1 1992   5.034   1.390   0.699
  676TIP3    H2 1993   5.044   1.540   0.677
  677TIP3   OH2 1994   4.779   1.724   0.730
  677TIP3    H1 1995   4.832   1.725   0.650
  677TIP3    H2 1996   4.813   1.797   0.781
  678TIP3   OH2 1997   4.989   1.316   1.063
  678TIP3    H1 1998   4.938   1.299   1.141
  678TIP3    H2 1999   4.926   1.351   1.000
  679TIP3   OH2 2000   5.028   2.735   1.124
  679TIP3    H1 2001   4.934   2.721   1.120
  679TIP3    H2 2002   5.048   2.740   1.218
  680TIP3   OH2 2003   5.228   2.783   0.680
  680TIP3    H1 2004   5.176   2.855   0.646
  680TIP3    H2 2005   5.314   2.794   0.639
  681TIP3   OH2 2006   5.649   3.021   0.814
  681TIP3    H1 2007   5.687   3.011   0.902
  681TIP3    H2 2008   5.712   3.074   0.767
  682TIP3   OH2 2009   5.839   3.175   0.687
  682TIP3    H1 2010   5.909   3.121   0.653
  682TIP3    H2 2011   5.882   3.236   0.746
  683TIP3   OH2 2012   4.892   3.033   0.718
  683TIP3    H1 2013   4.801   3.052   0.696
  683TIP3    H2 2014   4.915   3.096   0.786
  684TIP3   OH2 2015   5.122   3.009   0.568
  684TIP3    H1 2016   5.040   3.021   0.617
  684TIP3    H2 2017   5.103   3.041   0.480
  685TIP3   OH2 2018   5.546   3.031   0.371
  685TIP3    H1 2019   5.470   3.038   0.313
  685TIP3    H2 2020   5.553   3.118   0.411
  686TIP3   OH2 2021   5.817   2.998   0.398
  686TIP3    H1 2022   5.723   3.016   0.409
  686TIP3    H2 2023   5.823   2.952   0.315
  687TIP3   OH2 2024   6.034   3.194   0.342
  687TIP3    H1 2025   5.939   3.196   0.355
  687TIP3    H2 2026   6.045   3.164   0.252
  688TIP3   OH2 2027   4.811   2.807   0.442
  688TIP3    H1 2028   4.833   2.781   0.531
  688TIP3    H2 2029   4.884   2.773   0.389
  689TIP3   OH2 2030   5.009   2.685   0.294
  689TIP3    H1 2031   5.014   2.602   0.343
  689TIP3    H2 2032   5.093   2.727   0.309
  690TIP3   OH2 2033   5.266   2.769   0.338
  690TIP3    H1 2034   5.289   2.677   0.332
  690TIP3    H2 2035   5.322   2.803   0.408
  691TIP3   OH2 2036   7.020   6.085   5.901
  691TIP3    H1 2037   6.925   6.072   5.900
  691TIP3    H2 2038   7.032   6.178   5.883
  692TIP3   OH2 2039   5.294   1.418   1.296
  692TIP3    H1 2040   5.259   1.349   1.352
  692TIP3    H2 2041   5.386   1.425   1.321
  693TIP3   OH2 2042   5.537   1.428   1.425
  693TIP3    H1 2043   5.616   1.410   1.373
  693TIP3    H2 2044   5.532   1.355   1.487
  694TIP3   OH2 2045   6.356   1.451   1.257
  694TIP3    H1 2046   6.371   1.439   1.351
  694TIP3    H2 2047   6.443   1.445   1.218
  695TIP3   OH2 2048   6.288   3.047   0.714
  695TIP3    H1 2049   6.203   3.027   0.674
  695TIP3    H2 2050   6.285   3.142   0.729
  696TIP3   OH2 2051   6.625   2.476   0.294
  696TIP3    H1 2052   6.595   2.566   0.310
  696TIP3    H2 2053   6.707   2.486   0.246
  697TIP3   OH2 2054   6.669   3.278   0.604
  697TIP3    H1 2055   6.753   3.234   0.619
  697TIP3    H2 2056   6.610   3.208   0.577
  698TIP3   OH2 2057   6.800   3.028   0.568
  698TIP3    H1 2058   6.710   2.994   0.573
  698TIP3    H2 2059   6.825   3.015   0.476
  699TIP3   OH2 2060   0.035   3.200   1.536
  699TIP3    H1 2061   0.080   3.185   1.620
  699TIP3    H2 2062   0.007   3.114   1.507
  700TIP3   OH2 2063   0.301   3.510   1.268
  700TIP3    H1 2064   0.285   3.453   1.344
  700TIP3    H2 2065   0.321   3.595   1.306
  701TIP3   OH2 2066   7.398   4.081   1.187
  701TIP3    H1 2067   7.425   3.991   1.169
  701TIP3    H2 2068   7.344   4.075   1.266
  702TIP3   OH2 2069   7.263   3.409   1.626
  702TIP3    H1 2070   7.285   3.342   1.561
  702TIP3    H2 2071   7.346   3.454   1.643
  703TIP3   OH2 2072   0.839   2.759   1.605
  703TIP3    H1 2073   0.864   2.841   1.646
  703TIP3    H2 2074   0.876   2.764   1.517
  704TIP3   OH2 2075   0.221   2.887   1.649
  704TIP3    H1 2076   0.220   2.831   1.727
  704TIP3    H2 2077   0.255   2.831   1.580
  705TIP3   OH2 2078   0.916   2.972   1.763
  705TIP3    H1 2079   0.832   3.018   1.753
  705TIP3    H2 2080   0.957   3.014   1.840
  706TIP3   OH2 2081   7.102   3.355   1.854
  706TIP3    H1 2082   7.034   3.422   1.847
  706TIP3    H2 2083   7.161   3.372   1.780
  707TIP3   OH2 2084   0.327   3.763   1.378
  707TIP3    H1 2085   0.241   3.756   1.421
  707TIP3    H2 2086   0.325   3.848   1.334
  708TIP3   OH2 2087   0.647   2.646   1.764
  708TIP3    H1 2088   0.567   2.696   1.747
  708TIP3    H2 2089   0.710   2.679   1.699
  709TIP3   OH2 2090   0.067   3.824   1.103
  709TIP3    H1 2091   0.123   3.747   1.102
  709TIP3    H2 2092   0.018   3.819   1.021
  710TIP3   OH2 2093   0.181   3.578   1.035
  710TIP3    H1 2094   0.178   3.498   0.982
  710TIP3    H2 2095   0.225   3.552   1.116
  711TIP3   OH2 2096   0.565   3.662   1.723
  711TIP3    H1 2097   0.555   3.587   1.665
  711TIP3    H2 2098   0.548   3.738   1.667
  712TIP3   OH2 2099   0.755   3.304   1.580
  712TIP3    H1 2100   0.673   3.354   1.585
  712TIP3    H2 2101   0.789   3.323   1.493
  713TIP3   OH2 2102   0.439   3.176   1.887
  713TIP3    H1 2103   0.438   3.256   1.939
  713TIP3    H2 2104   0.359   3.180   1.834
  714TIP3   OH2 2105   0.099   3.744   1.522
  714TIP3    H1 2106   0.085   3.816   1.584
  714TIP3    H2 2107   0.090   3.665   1.575
  715TIP3   OH2 2108   7.029   3.629   2.135
  715TIP3    H1 2109   6.980   3.692   2.084
  715TIP3    H2 2110   7.095   3.594   2.074
  716TIP3   OH2 2111   0.799   3.989   1.770
  716TIP3    H1 2112   0.807   3.896   1.791
  716TIP3    H2 2113   0.729   4.021   1.826
  717TIP3   OH2 2114   7.359   3.775   1.898
  717TIP3    H1 2115   7.345   3.859   1.943
  717TIP3    H2 2116   7.277   3.759   1.851
  718TIP3   OH2 2117   0.684   3.135   2.068
  718TIP3    H1 2118   0.602   3.146   2.020
  718TIP3    H2 2119   0.703   3.041   2.061
  719TIP3   OH2 2120   0.242   2.525   2.070
  719TIP3    H1 2121   0.317   2.493   2.118
  719TIP3    H2 2122   0.166   2.492   2.118
  720TIP3   OH2 2123   0.441   2.907   1.965
  720TIP3    H1 2124   0.404   2.898   2.053
  720TIP3    H2 2125   0.425   2.998   1.942
  721TIP3   OH2 2126   0.200   3.124   2.211
  721TIP3    H1 2127   0.171   3.054   2.270
  721TIP3    H2 2128   0.291   3.140   2.236
  722TIP3   OH2 2129   0.184   3.132   1.759
  722TIP3    H1 2130   0.207   3.055   1.707
  722TIP3    H2 2131   0.159   3.097   1.844
  723TIP3   OH2 2132   0.431   4.424   1.840
  723TIP3    H1 2133   0.448   4.395   1.750
  723TIP3    H2 2134   0.513   4.406   1.886
  724TIP3   OH2 2135   0.523   3.452   1.555
  724TIP3    H1 2136   0.553   3.498   1.477
  724TIP3    H2 2137   0.437   3.419   1.532
  725TIP3   OH2 2138   0.044   3.513   1.947
  725TIP3    H1 2139   0.073   3.491   2.036
  725TIP3    H2 2140   0.011   3.603   1.955
  726TIP3   OH2 2141   7.365   3.250   2.271
  726TIP3    H1 2142   7.300   3.207   2.215
  726TIP3    H2 2143   7.449   3.222   2.236
  727TIP3   OH2 2144   0.219   3.811   1.835
  727TIP3    H1 2145   0.126   3.790   1.837
  727TIP3    H2 2146   0.235   3.857   1.917
  728TIP3   OH2 2147   0.812   3.710   1.819
  728TIP3    H1 2148   0.717   3.708   1.808
  728TIP3    H2 2149   0.846   3.687   1.733
  729TIP3   OH2 2150   0.276   3.341   1.487
  729TIP3    H1 2151   0.185   3.313   1.501
  729TIP3    H2 2152   0.321   3.263   1.454
  730TIP3   OH2 2153   7.213   3.850   1.638
  730TIP3    H1 2154   7.174   3.923   1.687
  730TIP3    H2 2155   7.148   3.780   1.643
  731TIP3   OH2 2156   0.108   3.515   1.681
  731TIP3    H1 2157   0.097   3.510   1.776
  731TIP3    H2 2158   0.194   3.475   1.664
  732TIP3   OH2 2159   0.361   4.061   1.727
  732TIP3    H1 2160   0.283   4.005   1.736
  732TIP3    H2 2161   0.339   4.121   1.656
  733TIP3   OH2 2162   0.253   2.727   1.875
  733TIP3    H1 2163   0.326   2.779   1.910
  733TIP3    H2 2164   0.243   2.655   1.937
  734TIP3   OH2 2165   0.124   2.996   1.980
  734TIP3    H1 2166   0.148   3.033   2.065
  734TIP3    H2 2167   0.134   2.901   1.992
  735TIP3   OH2 2168   0.709   2.870   1.978
  735TIP3    H1 2169   0.613   2.867   1.978
  735TIP3    H2 2170   0.734   2.839   1.891
  736TIP3   OH2 2171   0.389   3.115   1.387
  736TIP3    H1 2172   0.350   3.057   1.322
  736TIP3    H2 2173   0.459   3.063   1.427
  737TIP3   OH2 2174   0.355   4.027   1.298
  737TIP3    H1 2175   0.314   4.077   1.227
  737TIP3    H2 2176   0.449   4.041   1.286
  738TIP3   OH2 2177   7.041   4.040   2.334
  738TIP3    H1 2178   7.072   3.950   2.331
  738TIP3    H2 2179   6.947   4.034   2.315
  739TIP3   OH2 2180   0.222   3.926   2.093
  739TIP3    H1 2181   0.242   3.843   2.137
  739TIP3    H2 2182   0.298   3.981   2.108
  740TIP3   OH2 2183   7.371   3.635   2.214
  740TIP3    H1 2184   7.297   3.582   2.244
  740TIP3    H2 2185   7.448   3.582   2.235
  741TIP3   OH2 2186   0.352   3.571   1.867
  741TIP3    H1 2187   0.432   3.601   1.823
  741TIP3    H2 2188   0.289   3.643   1.855
  742TIP3   OH2 2189   7.124   3.183   2.138
  742TIP3    H1 2190   7.076   3.264   2.120
  742TIP3    H2 2191   7.173   3.167   2.057
  743TIP3   OH2 2192   0.200   3.478   2.251
  743TIP3    H1 2193   0.285   3.463   2.210
  743TIP3    H2 2194   0.202   3.424   2.330
  744TIP3   OH2 2195   7.251   2.840   2.277
  744TIP3    H1 2196   7.219   2.761   2.321
  744TIP3    H2 2197   7.180   2.865   2.218
  745TIP3   OH2 2198   7.258   3.134   1.913
  745TIP3    H1 2199   7.350   3.126   1.888
  745TIP3    H2 2200   7.228   3.214   1.870
  746TIP3   OH2 2201   0.455   3.153   2.317
  746TIP3    H1 2202   0.501   3.070   2.331
  746TIP3    H2 2203   0.523   3.214   2.291
  747TIP3   OH2 2204   0.477   3.407   2.038
  747TIP3    H1 2205   0.419   3.463   1.987
  747TIP3    H2 2206   0.565   3.426   2.007
  748TIP3   OH2 2207   7.154   2.963   2.519
  748TIP3    H1 2208   7.059   2.970   2.519
  748TIP3    H2 2209   7.178   2.958   2.426
  749TIP3   OH2 2210   0.109   2.910   2.353
  749TIP3    H1 2211   0.104   2.906   2.449
  749TIP3    H2 2212   0.021   2.884   2.324
  750TIP3   OH2 2213   0.339   2.854   2.209
  750TIP3    H1 2214   0.263   2.859   2.266
  750TIP3    H2 2215   0.412   2.834   2.268
  751TIP3   OH2 2216   0.569   2.823   2.367
  751TIP3    H1 2217   0.584   2.729   2.377
  751TIP3    H2 2218   0.561   2.856   2.456
  752TIP3   OH2 2219   6.890   2.661   2.587
  752TIP3    H1 2220   6.947   2.650   2.511
  752TIP3    H2 2221   6.948   2.697   2.655
  753TIP3   OH2 2222   0.028   2.423   2.400
  753TIP3    H1 2223   0.107   2.373   2.382
  753TIP3    H2 2224  -0.033   2.396   2.331
  754TIP3   OH2 2225   0.144   2.624   2.550
  754TIP3    H1 2226   0.111   2.559   2.488
  754TIP3    H2 2227   0.074   2.689   2.555
  755TIP3   OH2 2228   0.621   4.092   1.283
  755TIP3    H1 2229   0.640   4.113   1.375
  755TIP3    H2 2230   0.667   4.160   1.233
  756TIP3   OH2 2231   0.646   4.112   1.560
  756TIP3    H1 2232   0.600   4.027   1.557
  756TIP3    H2 2233   0.717   4.099   1.622
  757TIP3   OH2 2234   0.685   3.814   2.141
  757TIP3    H1 2235   0.606   3.823   2.195
  757TIP3    H2 2236   0.722   3.902   2.138
  758TIP3   OH2 2237   0.635   3.134   1.009
  758TIP3    H1 2238   0.557   3.190   1.016
  758TIP3    H2 2239   0.708   3.195   1.015
  759TIP3   OH2 2240   0.683   3.585   1.373
  759TIP3    H1 2241   0.737   3.516   1.334
  759TIP3    H2 2242   0.687   3.657   1.311
  760TIP3   OH2 2243   0.501   3.875   1.565
  760TIP3    H1 2244   0.438   3.923   1.620
  760TIP3    H2 2245   0.447   3.835   1.497
  761TIP3   OH2 2246   0.728   3.469   1.947
  761TIP3    H1 2247   0.792   3.400   1.929
  761TIP3    H2 2248   0.757   3.543   1.893
  762TIP3   OH2 2249   0.893   3.253   1.937
  762TIP3    H1 2250   0.822   3.212   1.985
  762TIP3    H2 2251   0.971   3.202   1.959
  763TIP3   OH2 2252   0.579   2.952   1.499
  763TIP3    H1 2253   0.664   2.965   1.456
  763TIP3    H2 2254   0.592   2.983   1.588
  764TIP3   OH2 2255   0.663   3.089   1.729
  764TIP3    H1 2256   0.588   3.121   1.780
  764TIP3    H2 2257   0.694   3.166   1.681
  765TIP3   OH2 2258   1.113   2.690   2.262
  765TIP3    H1 2259   1.181   2.635   2.223
  765TIP3    H2 2260   1.078   2.741   2.189
  766TIP3   OH2 2261   0.973   2.812   2.068
  766TIP3    H1 2262   0.897   2.853   2.110
  766TIP3    H2 2263   0.935   2.740   2.017
  767TIP3   OH2 2264  -0.006   4.042   1.997
  767TIP3    H1 2265   0.067   4.007   2.049
  767TIP3    H2 2266   0.033   4.062   1.912
  768TIP3   OH2 2267   0.879   2.567   1.959
  768TIP3    H1 2268   0.792   2.566   1.919
  768TIP3    H2 2269   0.911   2.477   1.949
  769TIP3   OH2 2270   7.273   4.055   1.465
  769TIP3    H1 2271   7.246   3.975   1.510
  769TIP3    H2 2272   7.274   4.122   1.533
  770TIP3   OH2 2273   0.100   4.020   1.624
  770TIP3    H1 2274   0.025   4.008   1.565
  770TIP3    H2 2275   0.153   4.087   1.581
  771TIP3   OH2 2276   0.272   4.196   1.500
  771TIP3    H1 2277   0.258   4.282   1.461
  771TIP3    H2 2278   0.296   4.140   1.427
  772TIP3   OH2 2279   7.250   2.471   2.616
  772TIP3    H1 2280   7.323   2.444   2.562
  772TIP3    H2 2281   7.266   2.430   2.701
  773TIP3   OH2 2282   0.638   2.554   2.388
  773TIP3    H1 2283   0.650   2.526   2.479
  773TIP3    H2 2284   0.724   2.540   2.348
  774TIP3   OH2 2285   0.578   4.088   1.902
  774TIP3    H1 2286   0.507   4.087   1.838
  774TIP3    H2 2287   0.614   4.177   1.897
  775TIP3   OH2 2288   1.872   3.505   0.668
  775TIP3    H1 2289   1.847   3.597   0.661
  775TIP3    H2 2290   1.800   3.457   0.626
  776TIP3   OH2 2291   1.824   3.474   1.033
  776TIP3    H1 2292   1.857   3.460   1.122
  776TIP3    H2 2293   1.781   3.391   1.011
  777TIP3   OH2 2294   1.112   3.341   1.408
  777TIP3    H1 2295   1.147   3.287   1.478
  777TIP3    H2 2296   1.190   3.377   1.364
  778TIP3   OH2 2297   2.081   3.776   0.721
  778TIP3    H1 2298   2.073   3.707   0.787
  778TIP3    H2 2299   2.104   3.854   0.770
  779TIP3   OH2 2300   1.099   3.761   1.102
  779TIP3    H1 2301   1.081   3.669   1.121
  779TIP3    H2 2302   1.194   3.765   1.092
  780TIP3   OH2 2303   0.871   3.279   1.064
  780TIP3    H1 2304   0.903   3.197   1.102
  780TIP3    H2 2305   0.947   3.337   1.064
  781TIP3   OH2 2306   1.730   4.209   0.733
  781TIP3    H1 2307   1.768   4.137   0.682
  781TIP3    H2 2308   1.731   4.178   0.823
  782TIP3   OH2 2309   1.628   3.696   1.066
  782TIP3    H1 2310   1.663   3.618   1.025
  782TIP3    H2 2311   1.705   3.743   1.098
  783TIP3   OH2 2312   2.641   3.008   1.070
  783TIP3    H1 2313   2.661   3.087   1.120
  783TIP3    H2 2314   2.677   3.025   0.983
  784TIP3   OH2 2315   2.029   3.159   1.127
  784TIP3    H1 2316   2.106   3.106   1.148
  784TIP3    H2 2317   2.018   3.151   1.032
  785TIP3   OH2 2318   1.398   2.955   1.082
  785TIP3    H1 2319   1.353   2.961   0.997
  785TIP3    H2 2320   1.358   2.881   1.126
  786TIP3   OH2 2321   2.138   2.940   0.723
  786TIP3    H1 2322   2.206   2.940   0.790
  786TIP3    H2 2323   2.177   2.988   0.649
  787TIP3   OH2 2324   0.966   3.052   1.184
  787TIP3    H1 2325   1.053   3.089   1.197
  787TIP3    H2 2326   0.980   2.979   1.124
  788TIP3   OH2 2327   1.495   3.296   1.079
  788TIP3    H1 2328   1.584   3.264   1.066
  788TIP3    H2 2329   1.441   3.241   1.022
  789TIP3   OH2 2330   2.697   3.216   1.250
  789TIP3    H1 2331   2.624   3.275   1.232
  789TIP3    H2 2332   2.746   3.259   1.320
  790TIP3   OH2 2333   1.372   2.847   1.533
  790TIP3    H1 2334   1.314   2.900   1.479
  790TIP3    H2 2335   1.330   2.845   1.619
  791TIP3   OH2 2336   1.740   3.707   0.523
  791TIP3    H1 2337   1.703   3.663   0.447
  791TIP3    H2 2338   1.673   3.771   0.548
  792TIP3   OH2 2339   1.487   3.632   1.298
  792TIP3    H1 2340   1.426   3.701   1.324
  792TIP3    H2 2341   1.530   3.666   1.219
  793TIP3   OH2 2342   2.311   2.942   0.933
  793TIP3    H1 2343   2.394   2.897   0.949
  793TIP3    H2 2344   2.332   3.035   0.946
  794TIP3   OH2 2345   1.182   2.972   1.382
  794TIP3    H1 2346   1.199   3.066   1.369
  794TIP3    H2 2347   1.224   2.930   1.307
  795TIP3   OH2 2348   1.302   3.815   1.381
  795TIP3    H1 2349   1.287   3.904   1.349
  795TIP3    H2 2350   1.225   3.794   1.433
  796TIP3   OH2 2351   0.710   3.519   0.606
  796TIP3    H1 2352   0.699   3.552   0.517
  796TIP3    H2 2353   0.709   3.597   0.661
  797TIP3   OH2 2354   2.123   4.018   0.863
  797TIP3    H1 2355   2.038   4.008   0.906
  797TIP3    H2 2356   2.120   4.105   0.823
  798TIP3   OH2 2357   2.434   2.890   1.221
  798TIP3    H1 2358   2.381   2.968   1.234
  798TIP3    H2 2359   2.506   2.920   1.165
  799TIP3   OH2 2360   1.742   2.504   1.338
  799TIP3    H1 2361   1.678   2.433   1.329
  799TIP3    H2 2362   1.688   2.582   1.351
  800TIP3   OH2 2363   1.836   4.048   0.528
  800TIP3    H1 2364   1.890   3.969   0.516
  800TIP3    H2 2365   1.893   4.120   0.500
  801TIP3   OH2 2366   1.983   3.823   0.469
  801TIP3    H1 2367   1.904   3.769   0.478
  801TIP3    H2 2368   2.034   3.805   0.548
  802TIP3   OH2 2369   2.378   3.908   1.206
  802TIP3    H1 2370   2.344   3.832   1.157
  802TIP3    H2 2371   2.348   3.984   1.157
  803TIP3   OH2 2372   1.705   3.377   0.494
  803TIP3    H1 2373   1.623   3.426   0.493
  803TIP3    H2 2374   1.725   3.362   0.401
  804TIP3   OH2 2375   1.606   3.070   0.170
  804TIP3    H1 2376   1.602   3.161   0.196
  804TIP3    H2 2377   1.698   3.055   0.149
  805TIP3   OH2 2378   2.551   3.559   1.067
  805TIP3    H1 2379   2.467   3.606   1.072
  805TIP3    H2 2380   2.585   3.580   0.980
  806TIP3   OH2 2381   2.015   3.418   0.449
  806TIP3    H1 2382   1.968   3.452   0.525
  806TIP3    H2 2383   2.097   3.384   0.484
  807TIP3   OH2 2384   2.216   3.413   1.351
  807TIP3    H1 2385   2.234   3.486   1.410
  807TIP3    H2 2386   2.131   3.434   1.312
  808TIP3   OH2 2387   1.241   3.516   0.893
  808TIP3    H1 2388   1.179   3.519   0.820
  808TIP3    H2 2389   1.264   3.424   0.902
  809TIP3   OH2 2390   1.367   3.808   1.004
  809TIP3    H1 2391   1.342   3.779   0.916
  809TIP3    H2 2392   1.454   3.771   1.018
  810TIP3   OH2 2393   1.332   3.413   1.256
  810TIP3    H1 2394   1.385   3.376   1.185
  810TIP3    H2 2395   1.380   3.492   1.282
  811TIP3   OH2 2396   1.888   4.005   0.998
  811TIP3    H1 2397   1.878   4.086   1.047
  811TIP3    H2 2398   1.875   3.935   1.062
  812TIP3   OH2 2399   1.509   3.917   1.540
  812TIP3    H1 2400   1.453   3.976   1.591
  812TIP3    H2 2401   1.447   3.865   1.488
  813TIP3   OH2 2402   1.847   3.320   0.256
  813TIP3    H1 2403   1.905   3.357   0.323
  813TIP3    H2 2404   1.899   3.324   0.175
  814TIP3   OH2 2405   1.266   3.467   1.670
  814TIP3    H1 2406   1.273   3.559   1.695
  814TIP3    H2 2407   1.172   3.450   1.664
  815TIP3   OH2 2408   1.582   3.940   0.523
  815TIP3    H1 2409   1.669   3.977   0.538
  815TIP3    H2 2410   1.524   4.016   0.518
  816TIP3   OH2 2411   1.295   4.076   1.622
  816TIP3    H1 2412   1.269   4.082   1.531
  816TIP3    H2 2413   1.215   4.056   1.670
  817TIP3   OH2 2414   2.442   2.572   0.358
  817TIP3    H1 2415   2.361   2.557   0.407
  817TIP3    H2 2416   2.432   2.660   0.322
  818TIP3   OH2 2417   1.048   3.302   0.756
  818TIP3    H1 2418   1.016   3.333   0.672
  818TIP3    H2 2419   1.010   3.215   0.766
  819TIP3   OH2 2420   7.077   0.383   5.908
  819TIP3    H1 2421   7.086   0.477   5.890
  819TIP3    H2 2422   7.165   0.348   5.897
  820TIP3   OH2 2423   0.883   3.621   1.573
  820TIP3    H1 2424   0.814   3.603   1.509
  820TIP3    H2 2425   0.921   3.535   1.593
  821TIP3   OH2 2426   0.744   3.814   1.213
  821TIP3    H1 2427   0.839   3.822   1.221
  821TIP3    H2 2428   0.709   3.890   1.260
  822TIP3   OH2 2429   2.593   4.279   1.268
  822TIP3    H1 2430   2.600   4.184   1.281
  822TIP3    H2 2431   2.514   4.304   1.315
  823TIP3   OH2 2432   1.691   4.059   1.395
  823TIP3    H1 2433   1.687   4.148   1.430
  823TIP3    H2 2434   1.629   4.010   1.448
  824TIP3   OH2 2435   1.466   4.162   0.370
  824TIP3    H1 2436   1.433   4.164   0.280
  824TIP3    H2 2437   1.440   4.246   0.407
  825TIP3   OH2 2438   0.902   4.008   0.760
  825TIP3    H1 2439   0.971   4.002   0.826
  825TIP3    H2 2440   0.822   3.987   0.808
  826TIP3   OH2 2441   1.675   4.068   0.006
  826TIP3    H1 2442   1.741   4.013  -0.035
  826TIP3    H2 2443   1.710   4.087   0.093
  827TIP3   OH2 2444   1.722   4.138   0.269
  827TIP3    H1 2445   1.640   4.142   0.318
  827TIP3    H2 2446   1.787   4.110   0.334
  828TIP3   OH2 2447   2.502   3.401   1.564
  828TIP3    H1 2448   2.416   3.438   1.544
  828TIP3    H2 2449   2.492   3.307   1.550
  829TIP3   OH2 2450   1.080   3.811   1.541
  829TIP3    H1 2451   1.126   3.810   1.625
  829TIP3    H2 2452   1.010   3.746   1.552
  830TIP3   OH2 2453   1.532   2.661   1.410
  830TIP3    H1 2454   1.482   2.606   1.349
  830TIP3    H2 2455   1.467   2.723   1.445
  831TIP3   OH2 2456   2.023   2.747   1.558
  831TIP3    H1 2457   2.094   2.722   1.618
  831TIP3    H2 2458   1.943   2.731   1.607
  832TIP3   OH2 2459   2.218   3.137   1.414
  832TIP3    H1 2460   2.186   3.131   1.504
  832TIP3    H2 2461   2.210   3.230   1.391
  833TIP3   OH2 2462   2.036   3.323   0.048
  833TIP3    H1 2463   1.979   3.327  -0.029
  833TIP3    H2 2464   2.081   3.407   0.048
  834TIP3   OH2 2465   1.431   3.166   1.379
  834TIP3    H1 2466   1.382   3.171   1.461
  834TIP3    H2 2467   1.398   3.238   1.327
  835TIP3   OH2 2468   1.243   2.966   0.864
  835TIP3    H1 2469   1.154   2.951   0.896
  835TIP3    H2 2470   1.232   3.002   0.777
  836TIP3   OH2 2471   1.784   3.187   0.670
  836TIP3    H1 2472   1.764   3.263   0.615
  836TIP3    H2 2473   1.827   3.125   0.610
  837TIP3   OH2 2474   1.956   3.390   1.693
  837TIP3    H1 2475   1.937   3.321   1.757
  837TIP3    H2 2476   2.047   3.415   1.711
  838TIP3   OH2 2477   1.966   3.131   0.866
  838TIP3    H1 2478   1.898   3.164   0.807
  838TIP3    H2 2479   2.002   3.055   0.821
  839TIP3   OH2 2480   1.247   3.176   1.590
  839TIP3    H1 2481   1.267   3.241   1.658
  839TIP3    H2 2482   1.229   3.095   1.639
  840TIP3   OH2 2483   0.842   2.686   1.135
  840TIP3    H1 2484   0.853   2.724   1.222
  840TIP3    H2 2485   0.747   2.688   1.120
  841TIP3   OH2 2486   1.935   3.371   1.270
  841TIP3    H1 2487   1.971   3.301   1.215
  841TIP3    H2 2488   1.914   3.328   1.353
  842TIP3   OH2 2489   1.661   2.890   0.929
  842TIP3    H1 2490   1.573   2.854   0.939
  842TIP3    H2 2491   1.673   2.945   1.007
  843TIP3   OH2 2492   1.022   2.869   0.988
  843TIP3    H1 2493   0.928   2.863   0.975
  843TIP3    H2 2494   1.057   2.789   0.950
  844TIP3   OH2 2495   1.355   2.889   0.616
  844TIP3    H1 2496   1.445   2.919   0.629
  844TIP3    H2 2497   1.322   2.944   0.544
  845TIP3   OH2 2498   2.299   4.622   1.370
  845TIP3    H1 2499   2.298   4.640   1.276
  845TIP3    H2 2500   2.378   4.667   1.402
  846TIP3   OH2 2501   1.247   3.724   1.781
  846TIP3    H1 2502   1.328   3.750   1.826
  846TIP3    H2 2503   1.178   3.737   1.847
  847TIP3   OH2 2504   1.730   3.162   1.045
  847TIP3    H1 2505   1.819   3.148   1.012
  847TIP3    H2 2506   1.738   3.150   1.139
  848TIP3   OH2 2507   1.145   2.660   0.849
  848TIP3    H1 2508   1.119   2.576   0.887
  848TIP3    H2 2509   1.223   2.639   0.797
  849TIP3   OH2 2510   1.697   3.118   1.324
  849TIP3    H1 2511   1.611   3.154   1.346
  849TIP3    H2 2512   1.758   3.160   1.384
  850TIP3   OH2 2513   1.472   3.499   0.509
  850TIP3    H1 2514   1.386   3.458   0.502
  850TIP3    H2 2515   1.464   3.559   0.584
  851TIP3   OH2 2516   2.315   3.695   1.035
  851TIP3    H1 2517   2.344   3.751   0.963
  851TIP3    H2 2518   2.228   3.665   1.008
  852TIP3   OH2 2519   1.869   2.793   0.296
  852TIP3    H1 2520   1.777   2.811   0.313
  852TIP3    H2 2521   1.898   2.867   0.243
  853TIP3   OH2 2522   1.827   3.788   1.452
  853TIP3    H1 2523   1.872   3.768   1.534
  853TIP3    H2 2524   1.786   3.873   1.467
  854TIP3   OH2 2525   2.021   3.046   0.481
  854TIP3    H1 2526   2.081   3.077   0.413
  854TIP3    H2 2527   1.934   3.060   0.443
  855TIP3   OH2 2528   1.088   3.459   1.112
  855TIP3    H1 2529   1.137   3.488   1.035
  855TIP3    H2 2530   1.155   3.435   1.176
  856TIP3   OH2 2531   1.622   3.642   0.284
  856TIP3    H1 2532   1.585   3.729   0.293
  856TIP3    H2 2533   1.547   3.583   0.299
  857TIP3   OH2 2534   0.996   3.403   1.711
  857TIP3    H1 2535   1.012   3.391   1.805
  857TIP3    H2 2536   0.924   3.344   1.692
  858TIP3   OH2 2537   1.717   3.525   1.733
  858TIP3    H1 2538   1.655   3.462   1.695
  858TIP3    H2 2539   1.803   3.496   1.703
  859TIP3   OH2 2540   1.958   4.099   1.318
  859TIP3    H1 2541   1.867   4.073   1.331
  859TIP3    H2 2542   1.992   4.113   1.407
  860TIP3   OH2 2543   2.416   3.157   0.224
  860TIP3    H1 2544   2.361   3.094   0.178
  860TIP3    H2 2545   2.398   3.241   0.183
  861TIP3   OH2 2546   2.614   4.000   1.301
  861TIP3    H1 2547   2.520   3.982   1.298
  861TIP3    H2 2548   2.647   3.966   1.217
  862TIP3   OH2 2549   2.094   3.936   0.143
  862TIP3    H1 2550   2.066   3.871   0.207
  862TIP3    H2 2551   2.097   3.889   0.060
  863TIP3   OH2 2552   2.078   3.581   0.929
  863TIP3    H1 2553   1.988   3.564   0.958
  863TIP3    H2 2554   2.106   3.498   0.890
  864TIP3   OH2 2555   1.221   3.830   0.739
  864TIP3    H1 2556   1.190   3.898   0.679
  864TIP3    H2 2557   1.157   3.759   0.730
  865TIP3   OH2 2558   1.417   3.643   0.727
  865TIP3    H1 2559   1.365   3.722   0.715
  865TIP3    H2 2560   1.369   3.591   0.791
  866TIP3   OH2 2561   1.506   4.133   1.194
  866TIP3    H1 2562   1.547   4.204   1.145
  866TIP3    H2 2563   1.577   4.098   1.248
  867TIP3   OH2 2564   1.114   4.039   0.577
  867TIP3    H1 2565   1.036   4.040   0.632
  867TIP3    H2 2566   1.153   4.126   0.590
  868TIP3   OH2 2567   1.868   3.786   1.178
  868TIP3    H1 2568   1.841   3.781   1.270
  868TIP3    H2 2569   1.963   3.776   1.181
  869TIP3   OH2 2570   1.817   3.674   0.084
  869TIP3    H1 2571   1.903   3.647   0.115
  869TIP3    H2 2572   1.758   3.652   0.157
  870TIP3   OH2 2573   2.118   4.293   1.208
  870TIP3    H1 2574   2.054   4.227   1.232
  870TIP3    H2 2575   2.078   4.341   1.135
  871TIP3   OH2 2576   7.110   0.661   5.885
  871TIP3    H1 2577   7.168   0.736   5.873
  871TIP3    H2 2578   7.029   0.699   5.920
  872TIP3   OH2 2579   1.197   2.915   1.735
  872TIP3    H1 2580   1.101   2.923   1.733
  872TIP3    H2 2581   1.216   2.871   1.817
  873TIP3   OH2 2582   2.038   3.583   0.223
  873TIP3    H1 2583   2.017   3.544   0.307
  873TIP3    H2 2584   2.132   3.598   0.225
  874TIP3   OH2 2585   0.931   4.004   1.359
  874TIP3    H1 2586   0.984   3.939   1.406
  874TIP3    H2 2587   0.940   4.084   1.411
  875TIP3   OH2 2588   6.164   0.255   6.014
  875TIP3    H1 2589   6.164   0.165   5.982
  875TIP3    H2 2590   6.080   0.265   6.059
  876TIP3   OH2 2591   1.138   3.685   0.420
  876TIP3    H1 2592   1.200   3.632   0.371
  876TIP3    H2 2593   1.142   3.771   0.378
  877TIP3   OH2 2594   0.944   3.392   0.525
  877TIP3    H1 2595   0.875   3.457   0.538
  877TIP3    H2 2596   0.977   3.408   0.437
  878TIP3   OH2 2597   2.110   2.893   1.335
  878TIP3    H1 2598   2.145   2.980   1.356
  878TIP3    H2 2599   2.080   2.859   1.419
  879TIP3   OH2 2600   2.031   2.701   0.608
  879TIP3    H1 2601   2.059   2.737   0.524
  879TIP3    H2 2602   2.058   2.766   0.672
  880TIP3   OH2 2603   1.427   3.872   0.274
  880TIP3    H1 2604   1.372   3.890   0.350
  880TIP3    H2 2605   1.488   3.945   0.271
  881TIP3   OH2 2606   1.608   2.941   0.673
  881TIP3    H1 2607   1.682   2.996   0.646
  881TIP3    H2 2608   1.631   2.911   0.761
  882TIP3   OH2 2609   1.896   3.213   1.495
  882TIP3    H1 2610   1.900   3.286   1.556
  882TIP3    H2 2611   1.952   3.146   1.533
  883TIP3   OH2 2612   1.891   2.716   0.856
  883TIP3    H1 2613   1.859   2.801   0.825
  883TIP3    H2 2614   1.895   2.662   0.777
  884TIP3   OH2 2615   1.158   3.941   0.328
  884TIP3    H1 2616   1.139   4.011   0.265
  884TIP3    H2 2617   1.138   3.979   0.413
  885TIP3   OH2 2618   2.493   3.139   1.461
  885TIP3    H1 2619   2.401   3.124   1.441
  885TIP3    H2 2620   2.535   3.149   1.376
  886TIP3   OH2 2621   2.170   3.324   0.846
  886TIP3    H1 2622   2.095   3.265   0.857
  886TIP3    H2 2623   2.240   3.283   0.897
  887TIP3   OH2 2624   0.866   3.626   0.379
  887TIP3    H1 2625   0.957   3.648   0.399
  887TIP3    H2 2626   0.870   3.575   0.298
  888TIP3   OH2 2627   2.143   4.286   0.784
  888TIP3    H1 2628   2.102   4.336   0.713
  888TIP3    H2 2629   2.237   4.300   0.772
  889TIP3   OH2 2630   1.236   2.571   1.423
  889TIP3    H1 2631   1.245   2.510   1.350
  889TIP3    H2 2632   1.225   2.515   1.500
  890TIP3   OH2 2633   0.723   3.770   0.716
  890TIP3    H1 2634   0.708   3.809   0.802
  890TIP3    H2 2635   0.792   3.823   0.677
  891TIP3   OH2 2636   1.399   4.246   1.814
  891TIP3    H1 2637   1.489   4.214   1.823
  891TIP3    H2 2638   1.361   4.192   1.745
  892TIP3   OH2 2639   6.317   0.470   5.958
  892TIP3    H1 2640   6.266   0.391   5.972
  892TIP3    H2 2641   6.408   0.442   5.967
  893TIP3   OH2 2642   2.053   4.150   1.572
  893TIP3    H1 2643   2.089   4.067   1.603
  893TIP3    H2 2644   2.120   4.215   1.592
  894TIP3   OH2 2645   6.782   0.400   5.934
  894TIP3    H1 2646   6.763   0.319   5.981
  894TIP3    H2 2647   6.874   0.391   5.908
  895TIP3   OH2 2648   1.041   3.720   1.974
  895TIP3    H1 2649   1.064   3.627   1.981
  895TIP3    H2 2650   0.956   3.720   1.931
  896TIP3   OH2 2651   1.644   3.794   1.750
  896TIP3    H1 2652   1.612   3.826   1.666
  896TIP3    H2 2653   1.682   3.709   1.731
  897TIP3   OH2 2654   6.357   0.040   5.944
  897TIP3    H1 2655   6.285   0.009   6.000
  897TIP3    H2 2656   6.417  -0.034   5.939
  898TIP3   OH2 2657   2.121   3.808   1.299
  898TIP3    H1 2658   2.212   3.827   1.321
  898TIP3    H2 2659   2.070   3.863   1.357
  899TIP3   OH2 2660   1.156   3.458   1.967
  899TIP3    H1 2661   1.235   3.443   1.915
  899TIP3    H2 2662   1.188   3.482   2.054
  900TIP3   OH2 2663   1.251   3.332   0.510
  900TIP3    H1 2664   1.216   3.265   0.569
  900TIP3    H2 2665   1.230   3.300   0.422
  901TIP3   OH2 2666   1.517   3.347   1.620
  901TIP3    H1 2667   1.435   3.396   1.629
  901TIP3    H2 2668   1.554   3.377   1.538
  902TIP3   OH2 2669   1.981   3.737   1.716
  902TIP3    H1 2670   2.063   3.781   1.693
  902TIP3    H2 2671   2.003   3.684   1.792
  903TIP3   OH2 2672   7.136   0.001   5.902
  903TIP3    H1 2673   7.148  -0.044   5.819
  903TIP3    H2 2674   7.086   0.080   5.879
  904TIP3   OH2 2675   1.625   3.127   1.743
  904TIP3    H1 2676   1.630   3.054   1.681
  904TIP3    H2 2677   1.588   3.199   1.691
  905TIP3   OH2 2678   1.638   2.921   1.550
  905TIP3    H1 2679   1.663   2.955   1.464
  905TIP3    H2 2680   1.546   2.898   1.541
  906TIP3   OH2 2681   1.656   3.446   1.407
  906TIP3    H1 2682   1.744   3.474   1.383
  906TIP3    H2 2683   1.599   3.514   1.371
  907TIP3   OH2 2684   2.225   3.419   1.782
  907TIP3    H1 2685   2.286   3.349   1.804
  907TIP3    H2 2686   2.276   3.479   1.728
  908TIP3   OH2 2687   2.302   3.602   1.535
  908TIP3    H1 2688   2.253   3.676   1.571
  908TIP3    H2 2689   2.381   3.642   1.498
  909TIP3   OH2 2690   1.502   3.217   1.979
  909TIP3    H1 2691   1.431   3.154   1.998
  909TIP3    H2 2692   1.532   3.192   1.892
  910TIP3   OH2 2693   1.755   2.675   1.628
  910TIP3    H1 2694   1.716   2.757   1.598
  910TIP3    H2 2695   1.687   2.609   1.616
  911TIP3   OH2 2696   1.888   3.163   1.833
  911TIP3    H1 2697   1.885   3.154   1.928
  911TIP3    H2 2698   1.798   3.146   1.804
  912TIP3   OH2 2699   2.115   3.106   1.671
  912TIP3    H1 2700   2.044   3.118   1.733
  912TIP3    H2 2701   2.193   3.094   1.726
  913TIP3   OH2 2702   2.348   3.079   1.840
  913TIP3    H1 2703   2.362   2.985   1.854
  913TIP3    H2 2704   2.340   3.115   1.929
  914TIP3   OH2 2705   1.337   2.995   2.043
  914TIP3    H1 2706   1.347   2.907   2.009
  914TIP3    H2 2707   1.375   2.991   2.131
  915TIP3   OH2 2708   1.826   2.674   1.894
  915TIP3    H1 2709   1.896   2.609   1.891
  915TIP3    H2 2710   1.794   2.678   1.804
  916TIP3   OH2 2711   1.912   2.889   2.043
  916TIP3    H1 2712   1.884   2.819   1.984
  916TIP3    H2 2713   1.839   2.952   2.042
  917TIP3   OH2 2714   1.140   4.144   0.136
  917TIP3    H1 2715   1.234   4.159   0.126
  917TIP3    H2 2716   1.099   4.226   0.108
  918TIP3   OH2 2717   0.567   4.075   0.757
  918TIP3    H1 2718   0.487   4.033   0.725
  918TIP3    H2 2719   0.590   4.025   0.836
  919TIP3   OH2 2720   0.705   3.937   0.958
  919TIP3    H1 2721   0.691   3.868   1.023
  919TIP3    H2 2722   0.742   4.010   1.008
  920TIP3   OH2 2723   2.407   4.356   0.766
  920TIP3    H1 2724   2.430   4.379   0.856
  920TIP3    H2 2725   2.474   4.399   0.712
  921TIP3   OH2 2726   2.434   4.373   1.046
  921TIP3    H1 2727   2.384   4.291   1.042
  921TIP3    H2 2728   2.503   4.355   1.111
  922TIP3   OH2 2729   2.311   3.587   0.233
  922TIP3    H1 2730   2.372   3.656   0.206
  922TIP3    H2 2731   2.351   3.549   0.311
  923TIP3   OH2 2732   2.431   3.452   0.437
  923TIP3    H1 2733   2.365   3.413   0.494
  923TIP3    H2 2734   2.496   3.488   0.497
  924TIP3   OH2 2735   2.482   3.842   0.865
  924TIP3    H1 2736   2.535   3.773   0.826
  924TIP3    H2 2737   2.481   3.912   0.799
  925TIP3   OH2 2738   2.292   4.132   1.057
  925TIP3    H1 2739   2.224   4.173   1.112
  925TIP3    H2 2740   2.242   4.087   0.989
  926TIP3   OH2 2741   2.339   3.373   0.069
  926TIP3    H1 2742   2.291   3.404  -0.008
  926TIP3    H2 2743   2.328   3.442   0.134
  927TIP3   OH2 2744   2.299   3.004   0.025
  927TIP3    H1 2745   2.221   3.030   0.073
  927TIP3    H2 2746   2.316   2.914   0.052
  928TIP3   OH2 2747   2.236   3.319   0.579
  928TIP3    H1 2748   2.259   3.227   0.568
  928TIP3    H2 2749   2.214   3.329   0.671
  929TIP3   OH2 2750   0.852   3.371   1.331
  929TIP3    H1 2751   0.846   3.343   1.239
  929TIP3    H2 2752   0.946   3.370   1.350
  930TIP3   OH2 2753   2.527   3.720   1.430
  930TIP3    H1 2754   2.601   3.663   1.409
  930TIP3    H2 2755   2.530   3.788   1.363
  931TIP3   OH2 2756   2.704   3.509   1.417
  931TIP3    H1 2757   2.633   3.477   1.472
  931TIP3    H2 2758   2.778   3.452   1.438
  932TIP3   OH2 2759   2.126   2.816   0.121
  932TIP3    H1 2760   2.210   2.781   0.150
  932TIP3    H2 2761   2.078   2.739   0.089
  933TIP3   OH2 2762   2.308   3.064   0.509
  933TIP3    H1 2763   2.356   2.982   0.521
  933TIP3    H2 2764   2.317   3.085   0.416
  934TIP3   OH2 2765   2.381   3.201   0.981
  934TIP3    H1 2766   2.461   3.218   0.931
  934TIP3    H2 2767   2.395   3.244   1.065
  935TIP3   OH2 2768   2.450   3.343   1.208
  935TIP3    H1 2769   2.373   3.372   1.257
  935TIP3    H2 2770   2.483   3.422   1.166
  936TIP3   OH2 2771   1.074   3.054   1.988
  936TIP3    H1 2772   1.168   3.054   2.004
  936TIP3    H2 2773   1.043   2.973   2.027
  937TIP3   OH2 2774   2.915   2.941   1.747
  937TIP3    H1 2775   2.976   2.880   1.707
  937TIP3    H2 2776   2.878   2.990   1.674
  938TIP3   OH2 2777   2.394   2.806   0.524
  938TIP3    H1 2778   2.404   2.761   0.608
  938TIP3    H2 2779   2.306   2.784   0.494
  939TIP3   OH2 2780   1.003   2.760   1.387
  939TIP3    H1 2781   1.073   2.697   1.404
  939TIP3    H2 2782   1.047   2.845   1.391
  940TIP3   OH2 2783   0.827   3.030   1.420
  940TIP3    H1 2784   0.874   3.031   1.336
  940TIP3    H2 2785   0.854   3.111   1.463
  941TIP3   OH2 2786   2.763   3.065   1.558
  941TIP3    H1 2787   2.693   3.105   1.608
  941TIP3    H2 2788   2.719   2.999   1.504
  942TIP3   OH2 2789   2.397   2.787   0.173
  942TIP3    H1 2790   2.440   2.716   0.125
  942TIP3    H2 2791   2.466   2.853   0.185
  943TIP3   OH2 2792   1.973   4.249   0.410
  943TIP3    H1 2793   2.031   4.237   0.335
  943TIP3    H2 2794   2.017   4.312   0.466
  944TIP3   OH2 2795   1.035   2.600   1.725
  944TIP3    H1 2796   0.991   2.599   1.810
  944TIP3    H2 2797   0.972   2.643   1.666
  945TIP3   OH2 2798   1.072   4.033   1.778
  945TIP3    H1 2799   0.978   4.028   1.765
  945TIP3    H2 2800   1.083   4.046   1.872
  946TIP3   OH2 2801   1.274   4.086   1.338
  946TIP3    H1 2802   1.223   4.159   1.306
  946TIP3    H2 2803   1.360   4.097   1.297
  947TIP3   OH2 2804   1.691   4.324   1.481
  947TIP3    H1 2805   1.733   4.310   1.565
  947TIP3    H2 2806   1.755   4.374   1.430
  948TIP3   OH2 2807   1.881   4.473   1.345
  948TIP3    H1 2808   1.945   4.414   1.307
  948TIP3    H2 2809   1.931   4.529   1.404
  949TIP3   OH2 2810   2.674   2.814   1.444
  949TIP3    H1 2811   2.584   2.798   1.414
  949TIP3    H2 2812   2.717   2.729   1.437
  950TIP3   OH2 2813   0.939   4.341   1.382
  950TIP3    H1 2814   0.847   4.358   1.361
  950TIP3    H2 2815   0.959   4.401   1.454
  951TIP3   OH2 2816   1.169   4.317   1.233
  951TIP3    H1 2817   1.086   4.325   1.281
  951TIP3    H2 2818   1.148   4.347   1.144
  952TIP3   OH2 2819   1.590   4.341   1.023
  952TIP3    H1 2820   1.513   4.353   0.969
  952TIP3    H2 2821   1.600   4.424   1.070
  953TIP3   OH2 2822   1.857   4.276   1.061
  953TIP3    H1 2823   1.764   4.298   1.049
  953TIP3    H2 2824   1.904   4.352   1.026
  954TIP3   OH2 2825   2.056   4.460   0.982
  954TIP3    H1 2826   2.054   4.545   0.939
  954TIP3    H2 2827   2.088   4.400   0.914
  955TIP3   OH2 2828   0.860   4.119   1.109
  955TIP3    H1 2829   0.874   4.091   1.200
  955TIP3    H2 2830   0.937   4.086   1.062
  956TIP3   OH2 2831   1.065   4.002   0.976
  956TIP3    H1 2832   1.073   3.916   1.018
  956TIP3    H2 2833   1.154   4.037   0.977
  957TIP3   OH2 2834   1.330   4.086   0.984
  957TIP3    H1 2835   1.347   3.992   0.971
  957TIP3    H2 2836   1.380   4.108   1.063
  958TIP3   OH2 2837   2.385   2.635   0.977
  958TIP3    H1 2838   2.437   2.675   0.907
  958TIP3    H2 2839   2.306   2.690   0.982
  959TIP3   OH2 2840   2.520   2.731   0.764
  959TIP3    H1 2841   2.589   2.672   0.735
  959TIP3    H2 2842   2.550   2.818   0.737
  960TIP3   OH2 2843   1.599   2.523   0.903
  960TIP3    H1 2844   1.644   2.607   0.913
  960TIP3    H2 2845   1.535   2.521   0.974
  961TIP3   OH2 2846   2.098   2.674   1.036
  961TIP3    H1 2847   2.039   2.679   0.961
  961TIP3    H2 2848   2.106   2.580   1.054
  962TIP3   OH2 2849   2.219   2.527   0.505
  962TIP3    H1 2850   2.164   2.572   0.569
  962TIP3    H2 2851   2.165   2.521   0.426
  963TIP3   OH2 2852   1.584   2.683   0.569
  963TIP3    H1 2853   1.651   2.628   0.610
  963TIP3    H2 2854   1.581   2.761   0.625
  964TIP3   OH2 2855   1.419   4.151   0.098
  964TIP3    H1 2856   1.511   4.165   0.076
  964TIP3    H2 2857   1.388   4.088   0.033
  965TIP3   OH2 2858   2.125   4.205   0.180
  965TIP3    H1 2859   2.120   4.110   0.172
  965TIP3    H2 2860   2.081   4.238   0.101
  966TIP3   OH2 2861   1.350   2.725   1.960
  966TIP3    H1 2862   1.313   2.661   2.020
  966TIP3    H2 2863   1.443   2.729   1.983
  967TIP3   OH2 2864   1.602   2.715   2.076
  967TIP3    H1 2865   1.680   2.705   2.023
  967TIP3    H2 2866   1.608   2.645   2.142
  968TIP3   OH2 2867   2.420   2.809   1.870
  968TIP3    H1 2868   2.434   2.780   1.960
  968TIP3    H2 2869   2.507   2.805   1.830
  969TIP3   OH2 2870   2.344   4.350   1.364
  969TIP3    H1 2871   2.268   4.317   1.316
  969TIP3    H2 2872   2.327   4.443   1.375
  970TIP3   OH2 2873   3.615   3.736   0.129
  970TIP3    H1 2874   3.577   3.822   0.108
  970TIP3    H2 2875   3.547   3.673   0.107
  971TIP3   OH2 2876   3.617   3.716   0.529
  971TIP3    H1 2877   3.659   3.700   0.613
  971TIP3    H2 2878   3.571   3.634   0.509
  972TIP3   OH2 2879   2.911   3.595   0.886
  972TIP3    H1 2880   2.943   3.533   0.952
  972TIP3    H2 2881   2.988   3.645   0.861
  973TIP3   OH2 2882   3.852   4.021   0.228
  973TIP3    H1 2883   3.848   3.949   0.290
  973TIP3    H2 2884   3.867   4.099   0.282
  974TIP3   OH2 2885   2.890   4.006   0.584
  974TIP3    H1 2886   2.879   3.912   0.590
  974TIP3    H2 2887   2.984   4.018   0.572
  975TIP3   OH2 2888   2.612   3.235   0.391
  975TIP3    H1 2889   2.574   3.319   0.418
  975TIP3    H2 2890   2.543   3.193   0.340
  976TIP3   OH2 2891   2.668   3.522   0.566
  976TIP3    H1 2892   2.716   3.445   0.598
  976TIP3    H2 2893   2.736   3.585   0.543
  977TIP3   OH2 2894   3.566   4.476   0.238
  977TIP3    H1 2895   3.591   4.405   0.177
  977TIP3    H2 2896   3.470   4.475   0.237
  978TIP3   OH2 2897   3.414   3.940   0.544
  978TIP3    H1 2898   3.455   3.863   0.505
  978TIP3    H2 2899   3.487   3.990   0.581
  979TIP3   OH2 2900   4.444   3.269   0.564
  979TIP3    H1 2901   4.464   3.348   0.615
  979TIP3    H2 2902   4.460   3.295   0.473
  980TIP3   OH2 2903   3.835   3.437   0.585
  980TIP3    H1 2904   3.868   3.351   0.609
  980TIP3    H2 2905   3.795   3.424   0.499
  981TIP3   OH2 2906   3.181   3.095   0.542
  981TIP3    H1 2907   3.162   3.171   0.487
  981TIP3    H2 2908   3.129   3.024   0.505
  982TIP3   OH2 2909   3.865   3.183   0.200
  982TIP3    H1 2910   3.932   3.170   0.267
  982TIP3    H2 2911   3.913   3.218   0.125
  983TIP3   OH2 2912   2.804   3.305   0.670
  983TIP3    H1 2913   2.887   3.291   0.716
  983TIP3    H2 2914   2.812   3.253   0.590
  984TIP3   OH2 2915   3.240   3.509   0.470
  984TIP3    H1 2916   3.333   3.489   0.481
  984TIP3    H2 2917   3.201   3.428   0.439
  985TIP3   OH2 2918   4.506   3.480   0.732
  985TIP3    H1 2919   4.418   3.517   0.728
  985TIP3    H2 2920   4.545   3.519   0.810
  986TIP3   OH2 2921   3.165   3.092   0.991
  986TIP3    H1 2922   3.112   3.128   0.919
  986TIP3    H2 2923   3.111   3.106   1.069
  987TIP3   OH2 2924   1.007   0.453   6.039
  987TIP3    H1 2925   0.930   0.408   6.004
  987TIP3    H2 2926   0.976   0.542   6.058
  988TIP3   OH2 2927   3.264   3.869   0.766
  988TIP3    H1 2928   3.207   3.938   0.800
  988TIP3    H2 2929   3.309   3.909   0.691
  989TIP3   OH2 2930   4.056   3.198   0.397
  989TIP3    H1 2931   4.009   3.181   0.478
  989TIP3    H2 2932   4.104   3.279   0.414
  990TIP3   OH2 2933   3.049   3.201   0.764
  990TIP3    H1 2934   3.104   3.276   0.786
  990TIP3    H2 2935   3.094   3.158   0.691
  991TIP3   OH2 2936   3.101   4.066   0.867
  991TIP3    H1 2937   3.084   4.155   0.834
  991TIP3    H2 2938   3.025   4.047   0.922
  992TIP3   OH2 2939   2.487   3.769   0.119
  992TIP3    H1 2940   2.442   3.796   0.038
  992TIP3    H2 2941   2.515   3.851   0.158
  993TIP3   OH2 2942   3.931   4.270   0.369
  993TIP3    H1 2943   3.856   4.243   0.422
  993TIP3    H2 2944   3.904   4.353   0.330
  994TIP3   OH2 2945   4.238   3.154   0.723
  994TIP3    H1 2946   4.152   3.181   0.691
  994TIP3    H2 2947   4.299   3.185   0.656
  995TIP3   OH2 2948   3.507   2.790   0.714
  995TIP3    H1 2949   3.499   2.698   0.738
  995TIP3    H2 2950   3.432   2.833   0.755
  996TIP3   OH2 2951   1.184   0.830   6.067
  996TIP3    H1 2952   1.223   0.743   6.052
  996TIP3    H2 2953   1.220   0.885   5.998
  997TIP3   OH2 2954   3.741   4.063  -0.023
  997TIP3    H1 2955   3.664   4.005  -0.027
  997TIP3    H2 2956   3.784   4.039   0.059
  998TIP3   OH2 2957   4.121   4.164   0.726
  998TIP3    H1 2958   4.115   4.087   0.670
  998TIP3    H2 2959   4.132   4.237   0.666
  999TIP3   OH2 2960   1.001   0.083   5.998
  999TIP3    H1 2961   0.920   0.132   5.982
  999TIP3    H2 2962   1.064   0.121   5.937
 1000TIP3   OH2 2963   4.327   3.818   0.577
 1000TIP3    H1 2964   4.247   3.870   0.578
 1000TIP3    H2 2965   4.359   3.825   0.487
 1001TIP3   OH2 2966   1.310   0.106   5.992
 1001TIP3    H1 2967   1.266   0.163   6.054
 1001TIP3    H2 2968   1.403   0.111   6.017
 1002TIP3   OH2 2969   4.026   3.687   0.863
 1002TIP3    H1 2970   4.026   3.768   0.914
 1002TIP3    H2 2971   3.942   3.687   0.817
 1003TIP3   OH2 2972   3.028   3.640   0.342
 1003TIP3    H1 2973   2.993   3.582   0.274
 1003TIP3    H2 2974   3.104   3.593   0.377
 1004TIP3   OH2 2975   3.154   4.047   0.482
 1004TIP3    H1 2976   3.136   4.037   0.388
 1004TIP3    H2 2977   3.244   4.015   0.492
 1005TIP3   OH2 2978   3.143   3.632   0.701
 1005TIP3    H1 2979   3.181   3.600   0.619
 1005TIP3    H2 2980   3.190   3.713   0.719
 1006TIP3   OH2 2981   3.707   4.235   0.504
 1006TIP3    H1 2982   3.671   4.318   0.534
 1006TIP3    H2 2983   3.673   4.169   0.565
 1007TIP3   OH2 2984   3.300   4.173   1.029
 1007TIP3    H1 2985   3.241   4.232   1.076
 1007TIP3    H2 2986   3.242   4.120   0.974
 1008TIP3   OH2 2987   3.059   3.723   1.148
 1008TIP3    H1 2988   3.065   3.813   1.179
 1008TIP3    H2 2989   2.965   3.704   1.150
 1009TIP3   OH2 2990   3.391   4.208   0.043
 1009TIP3    H1 2991   3.476   4.251   0.036
 1009TIP3    H2 2992   3.332   4.278   0.072
 1010TIP3   OH2 2993   3.092   4.332   1.115
 1010TIP3    H1 2994   3.063   4.338   1.024
 1010TIP3    H2 2995   3.011   4.314   1.164
 1011TIP3   OH2 2996   6.608   6.227   5.866
 1011TIP3    H1 2997   6.525   6.240   5.913
 1011TIP3    H2 2998   6.618   6.306   5.813
 1012TIP3   OH2 2999   2.901   3.486   0.136
 1012TIP3    H1 3000   2.826   3.531   0.099
 1012TIP3    H2 3001   2.866   3.402   0.167
 1013TIP3   OH2 3002   2.683   3.883   1.063
 1013TIP3    H1 3003   2.608   3.866   1.005
 1013TIP3    H2 3004   2.715   3.796   1.087
 1014TIP3   OH2 3005   2.540   4.066   0.694
 1014TIP3    H1 3006   2.635   4.065   0.687
 1014TIP3    H2 3007   2.521   4.139   0.752
 1015TIP3   OH2 3008   4.381   4.502   0.809
 1015TIP3    H1 3009   4.381   4.413   0.845
 1015TIP3    H2 3010   4.301   4.542   0.843
 1016TIP3   OH2 3011   3.494   4.307   0.889
 1016TIP3    H1 3012   3.487   4.399   0.915
 1016TIP3    H2 3013   3.424   4.263   0.938
 1017TIP3   OH2 3014   2.701   4.270   0.220
 1017TIP3    H1 3015   2.744   4.263   0.305
 1017TIP3    H2 3016   2.655   4.186   0.211
 1018TIP3   OH2 3017   4.268   3.641   1.041
 1018TIP3    H1 3018   4.188   3.652   0.989
 1018TIP3    H2 3019   4.287   3.547   1.035
 1019TIP3   OH2 3020   2.885   4.065   1.036
 1019TIP3    H1 3021   2.933   4.055   1.118
 1019TIP3    H2 3022   2.812   4.004   1.043
 1020TIP3   OH2 3023   3.272   2.881   0.841
 1020TIP3    H1 3024   3.187   2.849   0.810
 1020TIP3    H2 3025   3.251   2.961   0.890
 1021TIP3   OH2 3026   3.815   2.992   1.039
 1021TIP3    H1 3027   3.884   2.970   1.101
 1021TIP3    H2 3028   3.734   2.977   1.088
 1022TIP3   OH2 3029   4.033   3.424   0.953
 1022TIP3    H1 3030   3.991   3.420   1.039
 1022TIP3    H2 3031   4.015   3.512   0.921
 1023TIP3   OH2 3032   5.855   6.427   5.835
 1023TIP3    H1 3033   5.846   6.416   5.929
 1023TIP3    H2 3034   5.768   6.405   5.800
 1024TIP3   OH2 3035   3.207   3.410   0.852
 1024TIP3    H1 3036   3.160   3.419   0.935
 1024TIP3    H2 3037   3.186   3.489   0.803
 1025TIP3   OH2 3038   3.095   3.296   0.377
 1025TIP3    H1 3039   3.008   3.268   0.403
 1025TIP3    H2 3040   3.106   3.260   0.288
 1026TIP3   OH2 3041   3.570   3.368   0.106
 1026TIP3    H1 3042   3.527   3.441   0.061
 1026TIP3    H2 3043   3.629   3.331   0.041
 1027TIP3   OH2 3044   3.757   3.636   1.176
 1027TIP3    H1 3045   3.730   3.568   1.238
 1027TIP3    H2 3046   3.849   3.652   1.197
 1028TIP3   OH2 3047   3.733   3.389   0.335
 1028TIP3    H1 3048   3.668   3.415   0.270
 1028TIP3    H2 3049   3.773   3.310   0.298
 1029TIP3   OH2 3050   3.038   3.422   1.071
 1029TIP3    H1 3051   3.055   3.489   1.138
 1029TIP3    H2 3052   3.024   3.341   1.121
 1030TIP3   OH2 3053   5.574   6.372   5.827
 1030TIP3    H1 3054   5.531   6.301   5.876
 1030TIP3    H2 3055   5.516   6.447   5.837
 1031TIP3   OH2 3056   2.633   2.953   0.664
 1031TIP3    H1 3057   2.706   2.988   0.716
 1031TIP3    H2 3058   2.672   2.931   0.580
 1032TIP3   OH2 3059   2.605   2.961   0.175
 1032TIP3    H1 3060   2.666   2.967   0.101
 1032TIP3    H2 3061   2.566   3.048   0.180
 1033TIP3   OH2 3062   3.766   3.636   0.755
 1033TIP3    H1 3063   3.795   3.569   0.693
 1033TIP3    H2 3064   3.726   3.587   0.826
 1034TIP3   OH2 3065   3.444   3.085   0.426
 1034TIP3    H1 3066   3.366   3.086   0.481
 1034TIP3    H2 3067   3.517   3.080   0.488
 1035TIP3   OH2 3068   2.867   3.163   0.443
 1035TIP3    H1 3069   2.776   3.170   0.412
 1035TIP3    H2 3070   2.893   3.074   0.419
 1036TIP3   OH2 3071   3.112   3.173   0.136
 1036TIP3    H1 3072   3.206   3.182   0.116
 1036TIP3    H2 3073   3.070   3.181   0.050
 1037TIP3   OH2 3074   3.906   3.170   0.629
 1037TIP3    H1 3075   3.888   3.186   0.722
 1037TIP3    H2 3076   3.835   3.112   0.600
 1038TIP3   OH2 3077   5.422   6.645   5.955
 1038TIP3    H1 3078   5.328   6.628   5.952
 1038TIP3    H2 3079   5.440   6.693   5.874
 1039TIP3   OH2 3080   4.114   4.855   0.928
 1039TIP3    H1 3081   4.099   4.896   0.842
 1039TIP3    H2 3082   4.189   4.903   0.964
 1040TIP3   OH2 3083   3.045   3.979   1.268
 1040TIP3    H1 3084   3.124   4.004   1.315
 1040TIP3    H2 3085   2.975   3.982   1.333
 1041TIP3   OH2 3086   3.506   3.444   0.532
 1041TIP3    H1 3087   3.575   3.398   0.484
 1041TIP3    H2 3088   3.504   3.403   0.618
 1042TIP3   OH2 3089   3.007   2.924   0.403
 1042TIP3    H1 3090   2.982   2.846   0.452
 1042TIP3    H2 3091   3.032   2.891   0.317
 1043TIP3   OH2 3092   3.476   3.350   0.803
 1043TIP3    H1 3093   3.388   3.382   0.822
 1043TIP3    H2 3094   3.534   3.405   0.856
 1044TIP3   OH2 3095   0.773   0.232   5.971
 1044TIP3    H1 3096   0.709   0.164   5.951
 1044TIP3    H2 3097   0.742   0.269   6.054
 1045TIP3   OH2 3098   4.093   3.960   0.528
 1045TIP3    H1 3099   4.123   3.987   0.441
 1045TIP3    H2 3100   4.009   3.917   0.512
 1046TIP3   OH2 3101   6.121   6.508   5.883
 1046TIP3    H1 3102   6.038   6.481   5.844
 1046TIP3    H2 3103   6.126   6.602   5.866
 1047TIP3   OH2 3104   3.608   4.041   0.934
 1047TIP3    H1 3105   3.657   4.037   1.016
 1047TIP3    H2 3106   3.571   4.130   0.933
 1048TIP3   OH2 3107   6.205   6.786   5.939
 1048TIP3    H1 3108   6.295   6.763   5.962
 1048TIP3    H2 3109   6.209   6.880   5.920
 1049TIP3   OH2 3110   2.897   3.716   0.573
 1049TIP3    H1 3111   2.938   3.703   0.487
 1049TIP3    H2 3112   2.962   3.684   0.636
 1050TIP3   OH2 3113   2.790   3.657   1.193
 1050TIP3    H1 3114   2.803   3.639   1.286
 1050TIP3    H2 3115   2.717   3.602   1.167
 1051TIP3   OH2 3116   3.520   3.785   1.215
 1051TIP3    H1 3117   3.453   3.726   1.182
 1051TIP3    H2 3118   3.603   3.748   1.186
 1052TIP3   OH2 3119   3.765   4.324   0.815
 1052TIP3    H1 3120   3.670   4.317   0.817
 1052TIP3    H2 3121   3.788   4.364   0.899
 1053TIP3   OH2 3122   4.382   4.211   0.816
 1053TIP3    H1 3123   4.290   4.207   0.790
 1053TIP3    H2 3124   4.427   4.242   0.737
 1054TIP3   OH2 3125   3.866   3.824   0.436
 1054TIP3    H1 3126   3.775   3.799   0.457
 1054TIP3    H2 3127   3.904   3.746   0.396
 1055TIP3   OH2 3128   3.020   4.057   0.223
 1055TIP3    H1 3129   3.022   4.135   0.167
 1055TIP3    H2 3130   2.927   4.041   0.237
 1056TIP3   OH2 3131   5.048   6.839   5.983
 1056TIP3    H1 3132   5.090   6.923   6.001
 1056TIP3    H2 3133   4.964   6.843   6.029
 1057TIP3   OH2 3134   3.142   3.819   0.161
 1057TIP3    H1 3135   3.109   3.907   0.179
 1057TIP3    H2 3136   3.104   3.764   0.230
 1058TIP3   OH2 3137   3.296   4.372   0.688
 1058TIP3    H1 3138   3.329   4.442   0.632
 1058TIP3    H2 3139   3.374   4.340   0.734
 1059TIP3   OH2 3140   2.928   4.283   0.064
 1059TIP3    H1 3141   2.846   4.289   0.113
 1059TIP3    H2 3142   2.968   4.369   0.074
 1060TIP3   OH2 3143   3.651   4.019   0.665
 1060TIP3    H1 3144   3.640   4.020   0.760
 1060TIP3    H2 3145   3.731   3.970   0.651
 1061TIP3   OH2 3146   3.877   4.566   0.717
 1061TIP3    H1 3147   3.823   4.489   0.732
 1061TIP3    H2 3148   3.836   4.610   0.642
 1062TIP3   OH2 3149   3.001   3.165   1.204
 1062TIP3    H1 3150   2.906   3.164   1.216
 1062TIP3    H2 3151   3.035   3.117   1.280
 1063TIP3   OH2 3152   2.724   4.263   0.844
 1063TIP3    H1 3153   2.777   4.196   0.887
 1063TIP3    H2 3154   2.739   4.342   0.896
 1064TIP3   OH2 3155   0.447   0.426   5.891
 1064TIP3    H1 3156   0.539   0.409   5.913
 1064TIP3    H2 3157   0.443   0.520   5.874
 1065TIP3   OH2 3158   2.679   3.600   0.012
 1065TIP3    H1 3159   2.619   3.650   0.067
 1065TIP3    H2 3160   2.698   3.659  -0.062
 1066TIP3   OH2 3161   3.850   3.223   0.889
 1066TIP3    H1 3162   3.922   3.272   0.927
 1066TIP3    H2 3163   3.839   3.148   0.948
 1067TIP3   OH2 3164   3.730   2.963   0.095
 1067TIP3    H1 3165   3.702   2.983   0.005
 1067TIP3    H2 3166   3.769   3.045   0.127
 1068TIP3   OH2 3167   3.391   3.167   0.164
 1068TIP3    H1 3168   3.451   3.239   0.143
 1068TIP3    H2 3169   3.406   3.150   0.257
 1069TIP3   OH2 3170   3.680   3.471   0.958
 1069TIP3    H1 3171   3.703   3.521   1.036
 1069TIP3    H2 3172   3.730   3.390   0.966
 1070TIP3   OH2 3173   3.537   2.874   0.266
 1070TIP3    H1 3174   3.513   2.952   0.316
 1070TIP3    H2 3175   3.609   2.903   0.210
 1071TIP3   OH2 3176   0.438   0.696   5.852
 1071TIP3    H1 3177   0.466   0.770   5.798
 1071TIP3    H2 3178   0.445   0.727   5.942
 1072TIP3   OH2 3179   3.069   2.900   0.119
 1072TIP3    H1 3180   3.063   2.995   0.125
 1072TIP3    H2 3181   3.158   2.883   0.091
 1073TIP3   OH2 3182   4.298   3.372   0.945
 1073TIP3    H1 3183   4.203   3.379   0.952
 1073TIP3    H2 3184   4.312   3.321   0.865
 1074TIP3   OH2 3185   3.961   3.576   0.335
 1074TIP3    H1 3186   3.881   3.523   0.343
 1074TIP3    H2 3187   4.026   3.531   0.389
 1075TIP3   OH2 3188   0.215   0.298   5.842
 1075TIP3    H1 3189   0.286   0.351   5.877
 1075TIP3    H2 3190   0.240   0.280   5.751
 1076TIP3   OH2 3191   5.146   6.587   5.959
 1076TIP3    H1 3192   5.110   6.676   5.966
 1076TIP3    H2 3193   5.087   6.541   5.900
 1077TIP3   OH2 3194   3.850   4.521   0.281
 1077TIP3    H1 3195   3.757   4.518   0.259
 1077TIP3    H2 3196   3.882   4.602   0.241
 1078TIP3   OH2 3197   3.009   2.797   0.806
 1078TIP3    H1 3198   2.985   2.766   0.718
 1078TIP3    H2 3199   2.999   2.720   0.862
 1079TIP3   OH2 3200   2.543   4.032   0.207
 1079TIP3    H1 3201   2.497   4.067   0.283
 1079TIP3    H2 3202   2.497   4.071   0.132
 1080TIP3   OH2 3203   2.720   4.580   1.261
 1080TIP3    H1 3204   2.802   4.583   1.310
 1080TIP3    H2 3205   2.696   4.488   1.259
 1081TIP3   OH2 3206   3.191   4.508   1.303
 1081TIP3    H1 3207   3.283   4.486   1.314
 1081TIP3    H2 3208   3.160   4.449   1.234
 1082TIP3   OH2 3209   3.822   4.438   1.056
 1082TIP3    H1 3210   3.827   4.366   1.120
 1082TIP3    H2 3211   3.895   4.495   1.079
 1083TIP3   OH2 3212   2.842   3.975   1.457
 1083TIP3    H1 3213   2.851   3.881   1.475
 1083TIP3    H2 3214   2.754   3.983   1.419
 1084TIP3   OH2 3215   3.454   4.063   1.231
 1084TIP3    H1 3216   3.409   4.085   1.150
 1084TIP3    H2 3217   3.486   3.974   1.218
 1085TIP3   OH2 3218   3.907   4.084   0.866
 1085TIP3    H1 3219   3.985   4.118   0.823
 1085TIP3    H2 3220   3.839   4.150   0.849
 1086TIP3   OH2 3221   2.962   3.707   1.455
 1086TIP3    H1 3222   3.044   3.688   1.409
 1086TIP3    H2 3223   2.989   3.737   1.541
 1087TIP3   OH2 3224   5.526   6.999   5.946
 1087TIP3    H1 3225   5.479   6.990   6.029
 1087TIP3    H2 3226   5.497   6.924   5.894
 1088TIP3   OH2 3227   3.308   3.602   1.111
 1088TIP3    H1 3228   3.225   3.649   1.118
 1088TIP3    H2 3229   3.346   3.632   1.028
 1089TIP3   OH2 3230   5.536   6.781   5.743
 1089TIP3    H1 3231   5.538   6.738   5.658
 1089TIP3    H2 3232   5.621   6.823   5.750
 1090TIP3   OH2 3233   3.810   3.985   1.219
 1090TIP3    H1 3234   3.881   3.947   1.166
 1090TIP3    H2 3235   3.806   3.929   1.297
 1091TIP3   OH2 3236   3.417   3.378   1.226
 1091TIP3    H1 3237   3.419   3.305   1.164
 1091TIP3    H2 3238   3.380   3.450   1.175
 1092TIP3   OH2 3239   3.425   3.172   1.027
 1092TIP3    H1 3240   3.451   3.213   0.945
 1092TIP3    H2 3241   3.333   3.148   1.014
 1093TIP3   OH2 3242   3.440   3.704   0.897
 1093TIP3    H1 3243   3.527   3.739   0.881
 1093TIP3    H2 3244   3.381   3.766   0.853
 1094TIP3   OH2 3245   4.024   3.663   1.278
 1094TIP3    H1 3246   4.068   3.578   1.291
 1094TIP3    H2 3247   4.094   3.722   1.252
 1095TIP3   OH2 3248   4.055   3.919   1.021
 1095TIP3    H1 3249   3.997   3.978   0.973
 1095TIP3    H2 3250   4.142   3.937   0.986
 1096TIP3   OH2 3251   3.298   3.471   1.465
 1096TIP3    H1 3252   3.228   3.409   1.486
 1096TIP3    H2 3253   3.327   3.445   1.377
 1097TIP3   OH2 3254   3.548   2.936   1.117
 1097TIP3    H1 3255   3.506   3.018   1.088
 1097TIP3    H2 3256   3.480   2.869   1.106
 1098TIP3   OH2 3257   3.674   3.421   1.324
 1098TIP3    H1 3258   3.664   3.410   1.419
 1098TIP3    H2 3259   3.587   3.401   1.289
 1099TIP3   OH2 3260   3.914   3.370   1.188
 1099TIP3    H1 3261   3.837   3.374   1.245
 1099TIP3    H2 3262   3.986   3.347   1.247
 1100TIP3   OH2 3263   4.150   3.334   1.339
 1100TIP3    H1 3264   4.164   3.240   1.348
 1100TIP3    H2 3265   4.146   3.367   1.429
 1101TIP3   OH2 3266   3.134   3.250   1.529
 1101TIP3    H1 3267   3.140   3.160   1.496
 1101TIP3    H2 3268   3.171   3.245   1.618
 1102TIP3   OH2 3269   3.624   2.927   1.381
 1102TIP3    H1 3270   3.694   2.862   1.376
 1102TIP3    H2 3271   3.590   2.934   1.292
 1103TIP3   OH2 3272   3.708   3.145   1.529
 1103TIP3    H1 3273   3.680   3.073   1.471
 1103TIP3    H2 3274   3.634   3.206   1.528
 1104TIP3   OH2 3275   7.338   0.277   5.879
 1104TIP3    H1 3276   7.428   0.306   5.864
 1104TIP3    H2 3277   7.343   0.181   5.874
 1105TIP3   OH2 3278   2.332   4.360   0.269
 1105TIP3    H1 3279   2.266   4.304   0.228
 1105TIP3    H2 3280   2.376   4.302   0.331
 1106TIP3   OH2 3281   2.468   4.201   0.449
 1106TIP3    H1 3282   2.457   4.132   0.515
 1106TIP3    H2 3283   2.519   4.269   0.493
 1107TIP3   OH2 3284   4.142   4.509   0.243
 1107TIP3    H1 3285   4.089   4.542   0.315
 1107TIP3    H2 3286   4.204   4.579   0.223
 1108TIP3   OH2 3287   4.211   4.684   0.632
 1108TIP3    H1 3288   4.198   4.589   0.638
 1108TIP3    H2 3289   4.300   4.695   0.600
 1109TIP3   OH2 3290   4.273   4.326   1.104
 1109TIP3    H1 3291   4.201   4.329   1.166
 1109TIP3    H2 3292   4.316   4.411   1.111
 1110TIP3   OH2 3293   4.222   4.048   0.300
 1110TIP3    H1 3294   4.294   3.987   0.284
 1110TIP3    H2 3295   4.238   4.121   0.240
 1111TIP3   OH2 3296   4.065   4.429   0.565
 1111TIP3    H1 3297   3.990   4.457   0.618
 1111TIP3    H2 3298   4.027   4.367   0.502
 1112TIP3   OH2 3299   4.029   3.548   0.066
 1112TIP3    H1 3300   4.018   3.453   0.070
 1112TIP3    H2 3301   4.014   3.577   0.156
 1113TIP3   OH2 3302   2.649   3.625   0.820
 1113TIP3    H1 3303   2.641   3.593   0.730
 1113TIP3    H2 3304   2.743   3.625   0.838
 1114TIP3   OH2 3305   4.308   3.968   0.928
 1114TIP3    H1 3306   4.376   3.902   0.914
 1114TIP3    H2 3307   4.338   4.044   0.877
 1115TIP3   OH2 3308   4.489   3.762   0.942
 1115TIP3    H1 3309   4.414   3.719   0.981
 1115TIP3    H2 3310   4.562   3.701   0.954
 1116TIP3   OH2 3311   6.474   6.760   6.019
 1116TIP3    H1 3312   6.513   6.672   6.023
 1116TIP3    H2 3313   6.529   6.808   5.957
 1117TIP3   OH2 3314   4.172   3.442   0.468
 1117TIP3    H1 3315   4.254   3.462   0.424
 1117TIP3    H2 3316   4.181   3.480   0.556
 1118TIP3   OH2 3317   4.244   3.588   0.698
 1118TIP3    H1 3318   4.170   3.616   0.752
 1118TIP3    H2 3319   4.276   3.668   0.657
 1119TIP3   OH2 3320   2.872   3.298   1.460
 1119TIP3    H1 3321   2.965   3.299   1.482
 1119TIP3    H2 3322   2.838   3.220   1.505
 1120TIP3   OH2 3323   4.694   3.192   1.233
 1120TIP3    H1 3324   4.766   3.137   1.202
 1120TIP3    H2 3325   4.669   3.244   1.157
 1121TIP3   OH2 3326   4.111   3.023  -0.001
 1121TIP3    H1 3327   4.172   3.009   0.072
 1121TIP3    H2 3328   4.055   2.945  -0.001
 1122TIP3   OH2 3329   2.842   3.018   0.834
 1122TIP3    H1 3330   2.897   2.940   0.835
 1122TIP3    H2 3331   2.901   3.090   0.814
 1123TIP3   OH2 3332   2.624   3.284   0.885
 1123TIP3    H1 3333   2.677   3.277   0.806
 1123TIP3    H2 3334   2.643   3.371   0.920
 1124TIP3   OH2 3335   4.563   3.316   1.029
 1124TIP3    H1 3336   4.483   3.356   1.063
 1124TIP3    H2 3337   4.533   3.239   0.980
 1125TIP3   OH2 3338   2.644   2.815   0.406
 1125TIP3    H1 3339   2.558   2.813   0.447
 1125TIP3    H2 3340   2.633   2.873   0.330
 1126TIP3   OH2 3341   2.834   2.856   1.209
 1126TIP3    H1 3342   2.786   2.854   1.292
 1126TIP3    H2 3343   2.774   2.898   1.148
 1127TIP3   OH2 3344   2.871   4.295   1.282
 1127TIP3    H1 3345   2.777   4.281   1.269
 1127TIP3    H2 3346   2.884   4.283   1.376
 1128TIP3   OH2 3347   3.067   4.340   0.834
 1128TIP3    H1 3348   3.015   4.411   0.797
 1128TIP3    H2 3349   3.152   4.347   0.790
 1129TIP3   OH2 3350   3.484   4.573   0.969
 1129TIP3    H1 3351   3.518   4.564   1.058
 1129TIP3    H2 3352   3.552   4.622   0.922
 1130TIP3   OH2 3353   3.679   4.722   0.851
 1130TIP3    H1 3354   3.749   4.674   0.807
 1130TIP3    H2 3355   3.725   4.787   0.904
 1131TIP3   OH2 3356   4.471   3.071   0.924
 1131TIP3    H1 3357   4.383   3.063   0.888
 1131TIP3    H2 3358   4.506   2.982   0.920
 1132TIP3   OH2 3359   2.732   4.598   0.869
 1132TIP3    H1 3360   2.640   4.618   0.849
 1132TIP3    H2 3361   2.754   4.657   0.941
 1133TIP3   OH2 3362   2.960   4.567   0.722
 1133TIP3    H1 3363   2.878   4.577   0.770
 1133TIP3    H2 3364   2.938   4.591   0.632
 1134TIP3   OH2 3365   3.378   4.576   0.527
 1134TIP3    H1 3366   3.301   4.601   0.476
 1134TIP3    H2 3367   3.403   4.656   0.573
 1135TIP3   OH2 3368   3.628   4.488   0.574
 1135TIP3    H1 3369   3.536   4.498   0.549
 1135TIP3    H2 3370   3.671   4.564   0.537
 1136TIP3   OH2 3371   3.779   4.696   0.491
 1136TIP3    H1 3372   3.820   4.781   0.475
 1136TIP3    H2 3373   3.823   4.637   0.429
 1137TIP3   OH2 3374   2.644   4.373   0.600
 1137TIP3    H1 3375   2.668   4.347   0.688
 1137TIP3    H2 3376   2.712   4.337   0.544
 1138TIP3   OH2 3377   2.834   4.244   0.457
 1138TIP3    H1 3378   2.843   4.159   0.501
 1138TIP3    H2 3379   2.920   4.284   0.464
 1139TIP3   OH2 3380   3.091   4.321   0.497
 1139TIP3    H1 3381   3.122   4.231   0.482
 1139TIP3    H2 3382   3.154   4.358   0.558
 1140TIP3   OH2 3383   3.681   2.997   0.559
 1140TIP3    H1 3384   3.641   2.925   0.608
 1140TIP3    H2 3385   3.750   2.956   0.507
 1141TIP3   OH2 3386   4.187   2.894   0.437
 1141TIP3    H1 3387   4.221   2.952   0.369
 1141TIP3    H2 3388   4.095   2.920   0.447
 1142TIP3   OH2 3389   4.296   2.990   0.201
 1142TIP3    H1 3390   4.361   2.923   0.177
 1142TIP3    H2 3391   4.338   3.073   0.178
 1143TIP3   OH2 3392   2.938   2.704   0.553
 1143TIP3    H1 3393   2.848   2.674   0.569
 1143TIP3    H2 3394   2.991   2.625   0.554
 1144TIP3   OH2 3395   2.736   2.602   0.248
 1144TIP3    H1 3396   2.779   2.664   0.189
 1144TIP3    H2 3397   2.708   2.656   0.322
 1145TIP3   OH2 3398   3.387   2.734   0.457
 1145TIP3    H1 3399   3.434   2.781   0.388
 1145TIP3    H2 3400   3.426   2.764   0.538
 1146TIP3   OH2 3401   3.898   2.884   0.428
 1146TIP3    H1 3402   3.898   2.851   0.339
 1146TIP3    H2 3403   3.899   2.805   0.483
 1147TIP3   OH2 3404   3.945   2.806   0.008
 1147TIP3    H1 3405   3.863   2.853   0.023
 1147TIP3    H2 3406   3.931   2.720   0.047
 1148TIP3   OH2 3407   7.345   0.656   6.041
 1148TIP3    H1 3408   7.264   0.620   6.004
 1148TIP3    H2 3409   7.347   0.747   6.010
 1149TIP3   OH2 3410   2.831   2.775   0.064
 1149TIP3    H1 3411   2.865   2.726  -0.011
 1149TIP3    H2 3412   2.903   2.832   0.090
 1150TIP3   OH2 3413   3.344   2.914   0.066
 1150TIP3    H1 3414   3.403   2.869   0.127
 1150TIP3    H2 3415   3.354   3.007   0.086
 1151TIP3   OH2 3416   3.140   2.976   1.442
 1151TIP3    H1 3417   3.103   2.910   1.500
 1151TIP3    H2 3418   3.232   2.982   1.468
 1152TIP3   OH2 3419   3.389   2.979   1.564
 1152TIP3    H1 3420   3.470   2.957   1.519
 1152TIP3    H2 3421   3.379   2.912   1.631
 1153TIP3   OH2 3422   4.214   3.063   1.358
 1153TIP3    H1 3423   4.231   3.034   1.448
 1153TIP3    H2 3424   4.300   3.058   1.315
 1154TIP3   OH2 3425   4.124   4.583   0.886
 1154TIP3    H1 3426   4.045   4.566   0.835
 1154TIP3    H2 3427   4.124   4.678   0.900
 1155TIP3   OH2 3428   4.661   3.849   0.463
 1155TIP3    H1 3429   4.699   3.771   0.504
 1155TIP3    H2 3430   4.734   3.893   0.420
 1156TIP3   OH2 3431   4.410   3.725   0.082
 1156TIP3    H1 3432   4.457   3.642   0.087
 1156TIP3    H2 3433   4.341   3.709   0.017
 1157TIP3   OH2 3434   4.557   3.481   0.117
 1157TIP3    H1 3435   4.589   3.411   0.174
 1157TIP3    H2 3436   4.553   3.442   0.030
 1158TIP3   OH2 3437   4.955   3.330   0.496
 1158TIP3    H1 3438   4.903   3.363   0.423
 1158TIP3    H2 3439   4.900   3.346   0.573
 1159TIP3   OH2 3440   5.147   4.125   0.347
 1159TIP3    H1 3441   5.080   4.192   0.334
 1159TIP3    H2 3442   5.214   4.146   0.282
 1160TIP3   OH2 3443   4.856   3.417   0.247
 1160TIP3    H1 3444   4.907   3.491   0.280
 1160TIP3    H2 3445   4.903   3.389   0.169
 1161TIP3   OH2 3446   4.948   4.295   0.314
 1161TIP3    H1 3447   4.947   4.384   0.278
 1161TIP3    H2 3448   4.872   4.252   0.273
 1162TIP3   OH2 3449   5.304   3.032   0.240
 1162TIP3    H1 3450   5.281   2.940   0.251
 1162TIP3    H2 3451   5.223   3.080   0.258
 1163TIP3   OH2 3452   4.962   3.785   0.183
 1163TIP3    H1 3453   4.898   3.857   0.190
 1163TIP3    H2 3454   5.047   3.829   0.183
 1164TIP3   OH2 3455   5.078   4.412   0.535
 1164TIP3    H1 3456   5.045   4.486   0.587
 1164TIP3    H2 3457   5.006   4.391   0.476
 1165TIP3   OH2 3458   4.838   3.964   0.703
 1165TIP3    H1 3459   4.863   4.054   0.726
 1165TIP3    H2 3460   4.744   3.961   0.720
 1166TIP3   OH2 3461   4.905   4.591   0.683
 1166TIP3    H1 3462   4.867   4.554   0.604
 1166TIP3    H2 3463   4.846   4.564   0.753
 1167TIP3   OH2 3464   4.490   4.081   0.529
 1167TIP3    H1 3465   4.486   4.022   0.453
 1167TIP3    H2 3466   4.514   4.024   0.602
 1168TIP3   OH2 3467   4.331   4.315   0.246
 1168TIP3    H1 3468   4.405   4.356   0.290
 1168TIP3    H2 3469   4.259   4.376   0.259
 1169TIP3   OH2 3470   5.231   4.508   0.314
 1169TIP3    H1 3471   5.308   4.562   0.326
 1169TIP3    H2 3472   5.191   4.502   0.401
 1170TIP3   OH2 3473   6.079   3.861   0.511
 1170TIP3    H1 3474   5.997   3.822   0.481
 1170TIP3    H2 3475   6.108   3.804   0.582
 1171TIP3   OH2 3476   4.564   4.330   0.643
 1171TIP3    H1 3477   4.657   4.343   0.661
 1171TIP3    H2 3478   4.561   4.255   0.583
 1172TIP3   OH2 3479   5.059   3.136   0.330
 1172TIP3    H1 3480   4.972   3.105   0.306
 1172TIP3    H2 3481   5.042   3.212   0.387
 1173TIP3   OH2 3482   5.613   3.247   0.529
 1173TIP3    H1 3483   5.686   3.229   0.588
 1173TIP3    H2 3484   5.535   3.225   0.580
 1174TIP3   OH2 3485   5.848   3.629   0.459
 1174TIP3    H1 3486   5.804   3.622   0.544
 1174TIP3    H2 3487   5.815   3.710   0.421
 1175TIP3   OH2 3488   4.999   3.609   0.380
 1175TIP3    H1 3489   4.938   3.625   0.452
 1175TIP3    H2 3490   4.986   3.684   0.321
 1176TIP3   OH2 3491   5.590   3.879   0.673
 1176TIP3    H1 3492   5.548   3.823   0.739
 1176TIP3    H2 3493   5.679   3.891   0.705
 1177TIP3   OH2 3494   4.811   3.646   0.578
 1177TIP3    H1 3495   4.881   3.690   0.627
 1177TIP3    H2 3496   4.796   3.564   0.625
 1178TIP3   OH2 3497   4.466   3.188   0.117
 1178TIP3    H1 3498   4.506   3.225   0.196
 1178TIP3    H2 3499   4.536   3.135   0.077
 1179TIP3   OH2 3500   4.826   4.250   0.780
 1179TIP3    H1 3501   4.902   4.263   0.837
 1179TIP3    H2 3502   4.751   4.252   0.841
 1180TIP3   OH2 3503   5.266   3.586   0.326
 1180TIP3    H1 3504   5.178   3.597   0.363
 1180TIP3    H2 3505   5.324   3.623   0.392
 1181TIP3   OH2 3506   5.505   4.324   0.303
 1181TIP3    H1 3507   5.534   4.267   0.374
 1181TIP3    H2 3508   5.436   4.378   0.342
 1182TIP3   OH2 3509   4.566   3.928   0.737
 1182TIP3    H1 3510   4.577   3.901   0.828
 1182TIP3    H2 3511   4.514   3.858   0.698
 1183TIP3   OH2 3512   5.356   4.088   0.748
 1183TIP3    H1 3513   5.326   4.000   0.726
 1183TIP3    H2 3514   5.443   4.094   0.709
 1184TIP3   OH2 3515   4.785   3.400   0.702
 1184TIP3    H1 3516   4.691   3.410   0.717
 1184TIP3    H2 3517   4.817   3.357   0.782
 1185TIP3   OH2 3518   4.569   4.399   0.331
 1185TIP3    H1 3519   4.620   4.399   0.411
 1185TIP3    H2 3520   4.588   4.484   0.291
 1186TIP3   OH2 3521   5.615   3.488   0.395
 1186TIP3    H1 3522   5.706   3.514   0.408
 1186TIP3    H2 3523   5.608   3.403   0.437
 1187TIP3   OH2 3524   5.478   3.710   0.479
 1187TIP3    H1 3525   5.531   3.762   0.539
 1187TIP3    H2 3526   5.526   3.627   0.472
 1188TIP3   OH2 3527   6.111   3.576   0.419
 1188TIP3    H1 3528   6.018   3.580   0.443
 1188TIP3    H2 3529   6.118   3.632   0.341
 1189TIP3   OH2 3530   4.794   3.054   0.314
 1189TIP3    H1 3531   4.755   3.028   0.231
 1189TIP3    H2 3532   4.795   2.973   0.366
 1190TIP3   OH2 3533   4.527   4.827   0.782
 1190TIP3    H1 3534   4.604   4.821   0.839
 1190TIP3    H2 3535   4.500   4.737   0.768
 1191TIP3   OH2 3536   5.004   4.787   0.846
 1191TIP3    H1 3537   5.091   4.764   0.878
 1191TIP3    H2 3538   4.984   4.721   0.780
 1192TIP3   OH2 3539   5.614   4.717   0.544
 1192TIP3    H1 3540   5.607   4.625   0.569
 1192TIP3    H2 3541   5.706   4.740   0.561
 1193TIP3   OH2 3542   4.619   4.226   0.961
 1193TIP3    H1 3543   4.645   4.135   0.976
 1193TIP3    H2 3544   4.531   4.221   0.925
 1194TIP3   OH2 3545   5.268   4.339   0.783
 1194TIP3    H1 3546   5.253   4.346   0.689
 1194TIP3    H2 3547   5.303   4.251   0.795
 1195TIP3   OH2 3548   4.741   3.972   0.969
 1195TIP3    H1 3549   4.814   3.936   0.918
 1195TIP3    H2 3550   4.780   3.996   1.053
 1196TIP3   OH2 3551   5.038   3.786   0.639
 1196TIP3    H1 3552   4.995   3.859   0.682
 1196TIP3    H2 3553   5.072   3.823   0.557
 1197TIP3   OH2 3554   5.624   4.184   0.749
 1197TIP3    H1 3555   5.684   4.122   0.708
 1197TIP3    H2 3556   5.615   4.153   0.839
 1198TIP3   OH2 3557   5.175   3.574   0.751
 1198TIP3    H1 3558   5.206   3.507   0.690
 1198TIP3    H2 3559   5.136   3.641   0.695
 1199TIP3   OH2 3560   5.218   3.399   0.534
 1199TIP3    H1 3561   5.247   3.431   0.448
 1199TIP3    H2 3562   5.125   3.381   0.522
 1200TIP3   OH2 3563   5.195   3.874   0.438
 1200TIP3    H1 3564   5.245   3.850   0.360
 1200TIP3    H2 3565   5.166   3.964   0.420
 1201TIP3   OH2 3566   5.818   3.862   0.845
 1201TIP3    H1 3567   5.874   3.784   0.844
 1201TIP3    H2 3568   5.857   3.920   0.780
 1202TIP3   OH2 3569   5.958   4.242   0.492
 1202TIP3    H1 3570   5.868   4.250   0.459
 1202TIP3    H2 3571   6.010   4.219   0.416
 1203TIP3   OH2 3572   5.086   3.729   0.964
 1203TIP3    H1 3573   5.016   3.672   0.994
 1203TIP3    H2 3574   5.117   3.688   0.883
 1204TIP3   OH2 3575   5.352   3.172   0.608
 1204TIP3    H1 3576   5.308   3.254   0.585
 1204TIP3    H2 3577   5.285   3.105   0.595
 1205TIP3   OH2 3578   5.482   3.674   0.827
 1205TIP3    H1 3579   5.460   3.653   0.918
 1205TIP3    H2 3580   5.398   3.697   0.787
 1206TIP3   OH2 3581   5.712   3.604   0.690
 1206TIP3    H1 3582   5.634   3.619   0.744
 1206TIP3    H2 3583   5.782   3.591   0.754
 1207TIP3   OH2 3584   5.947   3.586   0.841
 1207TIP3    H1 3585   5.961   3.491   0.844
 1207TIP3    H2 3586   5.947   3.613   0.933
 1208TIP3   OH2 3587   4.927   3.505   1.023
 1208TIP3    H1 3588   4.942   3.419   0.982
 1208TIP3    H2 3589   4.968   3.497   1.109
 1209TIP3   OH2 3590   5.423   3.182   0.872
 1209TIP3    H1 3591   5.496   3.120   0.870
 1209TIP3    H2 3592   5.390   3.183   0.783
 1210TIP3   OH2 3593   5.503   3.404   1.015
 1210TIP3    H1 3594   5.476   3.332   0.957
 1210TIP3    H2 3595   5.428   3.464   1.013
 1211TIP3   OH2 3596   6.102   4.583   0.704
 1211TIP3    H1 3597   6.033   4.567   0.768
 1211TIP3    H2 3598   6.086   4.671   0.671
 1212TIP3   OH2 3599   4.428   3.852   0.325
 1212TIP3    H1 3600   4.425   3.805   0.241
 1212TIP3    H2 3601   4.518   3.843   0.354
 1213TIP3   OH2 3602   6.262   4.067   0.517
 1213TIP3    H1 3603   6.195   3.999   0.503
 1213TIP3    H2 3604   6.344   4.019   0.522
 1214TIP3   OH2 3605   4.667   3.558   0.958
 1214TIP3    H1 3606   4.761   3.559   0.977
 1214TIP3    H2 3607   4.635   3.476   0.996
 1215TIP3   OH2 3608   6.511   3.461   0.728
 1215TIP3    H1 3609   6.572   3.398   0.690
 1215TIP3    H2 3610   6.476   3.509   0.653
 1216TIP3   OH2 3611   4.632   3.279   0.315
 1216TIP3    H1 3612   4.670   3.195   0.338
 1216TIP3    H2 3613   4.707   3.338   0.306
 1217TIP3   OH2 3614   4.422   3.522   0.380
 1217TIP3    H1 3615   4.462   3.519   0.294
 1217TIP3    H2 3616   4.462   3.597   0.423
 1218TIP3   OH2 3617   6.372   3.597   0.539
 1218TIP3    H1 3618   6.287   3.625   0.574
 1218TIP3    H2 3619   6.351   3.528   0.477
 1219TIP3   OH2 3620   4.626   3.099   0.686
 1219TIP3    H1 3621   4.583   3.097   0.772
 1219TIP3    H2 3622   4.569   3.152   0.631
 1220TIP3   OH2 3623   4.667   4.549   0.821
 1220TIP3    H1 3624   4.580   4.510   0.821
 1220TIP3    H2 3625   4.685   4.568   0.913
 1221TIP3   OH2 3626   4.936   4.555   0.265
 1221TIP3    H1 3627   4.849   4.594   0.272
 1221TIP3    H2 3628   4.964   4.576   0.176
 1222TIP3   OH2 3629   5.365   4.900   0.482
 1222TIP3    H1 3630   5.388   4.840   0.553
 1222TIP3    H2 3631   5.408   4.863   0.405
 1223TIP3   OH2 3632   6.278   3.325   0.458
 1223TIP3    H1 3633   6.194   3.324   0.412
 1223TIP3    H2 3634   6.323   3.247   0.426
 1224TIP3   OH2 3635   4.430   4.817   0.474
 1224TIP3    H1 3636   4.495   4.871   0.429
 1224TIP3    H2 3637   4.482   4.752   0.521
 1225TIP3   OH2 3638   4.665   2.982   0.080
 1225TIP3    H1 3639   4.590   2.924   0.087
 1225TIP3    H2 3640   4.738   2.925   0.056
 1226TIP3   OH2 3641   4.936   3.230   0.926
 1226TIP3    H1 3642   4.899   3.167   0.988
 1226TIP3    H2 3643   5.028   3.238   0.952
 1227TIP3   OH2 3644   5.182   3.230   1.058
 1227TIP3    H1 3645   5.266   3.211   1.016
 1227TIP3    H2 3646   5.175   3.165   1.127
 1228TIP3   OH2 3647   6.011   3.318   0.851
 1228TIP3    H1 3648   6.024   3.289   0.942
 1228TIP3    H2 3649   6.098   3.316   0.812
 1229TIP3   OH2 3650   6.711   3.735   0.491
 1229TIP3    H1 3651   6.783   3.773   0.442
 1229TIP3    H2 3652   6.745   3.722   0.579
 1230TIP3   OH2 3653   6.478   3.881   0.530
 1230TIP3    H1 3654   6.545   3.825   0.493
 1230TIP3    H2 3655   6.428   3.824   0.588
 1231TIP3   OH2 3656   6.655   3.471   0.392
 1231TIP3    H1 3657   6.666   3.410   0.465
 1231TIP3    H2 3658   6.664   3.557   0.432
 1232TIP3   OH2 3659   0.486   4.551   1.219
 1232TIP3    H1 3660   0.495   4.638   1.258
 1232TIP3    H2 3661   0.537   4.555   1.138
 1233TIP3   OH2 3662   0.556   4.771   1.392
 1233TIP3    H1 3663   0.475   4.821   1.387
 1233TIP3    H2 3664   0.607   4.814   1.461
 1234TIP3   OH2 3665   0.295   4.456   1.406
 1234TIP3    H1 3666   0.204   4.481   1.386
 1234TIP3    H2 3667   0.345   4.486   1.330
 1235TIP3   OH2 3668   0.342   4.933   1.725
 1235TIP3    H1 3669   0.309   5.015   1.690
 1235TIP3    H2 3670   0.381   4.889   1.650
 1236TIP3   OH2 3671   7.319   4.288   1.686
 1236TIP3    H1 3672   7.372   4.304   1.764
 1236TIP3    H2 3673   7.229   4.286   1.719
 1237TIP3   OH2 3674   0.062   4.728   1.608
 1237TIP3    H1 3675   0.025   4.695   1.690
 1237TIP3    H2 3676   0.008   4.803   1.584
 1238TIP3   OH2 3677   7.271   4.878   1.874
 1238TIP3    H1 3678   7.219   4.950   1.911
 1238TIP3    H2 3679   7.361   4.909   1.879
 1239TIP3   OH2 3680   0.010   4.473   1.492
 1239TIP3    H1 3681   0.026   4.555   1.538
 1239TIP3    H2 3682  -0.008   4.410   1.561
 1240TIP3   OH2 3683   0.313   4.627   1.658
 1240TIP3    H1 3684   0.235   4.671   1.625
 1240TIP3    H2 3685   0.352   4.587   1.580
 1241TIP3   OH2 3686   7.301   5.363   2.032
 1241TIP3    H1 3687   7.233   5.363   1.965
 1241TIP3    H2 3688   7.337   5.274   2.029
 1242TIP3   OH2 3689   0.142   4.934   1.914
 1242TIP3    H1 3690   0.175   4.877   1.983
 1242TIP3    H2 3691   0.211   4.932   1.847
 1243TIP3   OH2 3692   0.223   5.184   1.666
 1243TIP3    H1 3693   0.172   5.263   1.648
 1243TIP3    H2 3694   0.312   5.216   1.682
 1244TIP3   OH2 3695   7.358   4.602   1.826
 1244TIP3    H1 3696   7.282   4.657   1.848
 1244TIP3    H2 3697   7.405   4.592   1.908
 1245TIP3   OH2 3698   0.208   4.598   1.989
 1245TIP3    H1 3699   0.197   4.509   2.024
 1245TIP3    H2 3700   0.198   4.655   2.066
 1246TIP3   OH2 3701   7.194   4.232   1.967
 1246TIP3    H1 3702   7.264   4.166   1.960
 1246TIP3    H2 3703   7.113   4.181   1.965
 1247TIP3   OH2 3704   7.060   4.479   2.153
 1247TIP3    H1 3705   7.096   4.399   2.192
 1247TIP3    H2 3706   7.002   4.448   2.083
 1248TIP3   OH2 3707   0.247   5.668   1.717
 1248TIP3    H1 3708   0.211   5.644   1.802
 1248TIP3    H2 3709   0.320   5.727   1.737
 1249TIP3   OH2 3710   0.327   4.926   1.394
 1249TIP3    H1 3711   0.233   4.906   1.400
 1249TIP3    H2 3712   0.334   4.983   1.318
 1250TIP3   OH2 3713   0.643   4.627   1.708
 1250TIP3    H1 3714   0.581   4.649   1.778
 1250TIP3    H2 3715   0.662   4.534   1.721
 1251TIP3   OH2 3716   0.510   4.355   1.585
 1251TIP3    H1 3717   0.436   4.345   1.526
 1251TIP3    H2 3718   0.557   4.272   1.580
 1252TIP3   OH2 3719   0.240   4.199   1.120
 1252TIP3    H1 3720   0.235   4.268   1.053
 1252TIP3    H2 3721   0.149   4.172   1.133
 1253TIP3   OH2 3722   0.227   4.329   2.037
 1253TIP3    H1 3723   0.267   4.306   2.121
 1253TIP3    H2 3724   0.296   4.317   1.973
 1254TIP3   OH2 3725   1.467   5.263   0.687
 1254TIP3    H1 3726   1.514   5.239   0.767
 1254TIP3    H2 3727   1.416   5.185   0.665
 1255TIP3   OH2 3728   0.823   5.156   1.082
 1255TIP3    H1 3729   0.828   5.075   1.132
 1255TIP3    H2 3730   0.867   5.221   1.137
 1256TIP3   OH2 3731   1.814   5.521   0.295
 1256TIP3    H1 3732   1.808   5.450   0.359
 1256TIP3    H2 3733   1.743   5.581   0.320
 1257TIP3   OH2 3734   1.283   5.459   0.764
 1257TIP3    H1 3735   1.333   5.387   0.726
 1257TIP3    H2 3736   1.348   5.528   0.781
 1258TIP3   OH2 3737   2.283   4.824   0.704
 1258TIP3    H1 3738   2.305   4.906   0.748
 1258TIP3    H2 3739   2.315   4.836   0.614
 1259TIP3   OH2 3740   1.680   4.996   0.729
 1259TIP3    H1 3741   1.718   4.911   0.753
 1259TIP3    H2 3742   1.634   4.979   0.647
 1260TIP3   OH2 3743   1.026   4.664   0.738
 1260TIP3    H1 3744   1.032   4.747   0.692
 1260TIP3    H2 3745   0.955   4.617   0.694
 1261TIP3   OH2 3746   1.721   4.729   0.348
 1261TIP3    H1 3747   1.792   4.728   0.413
 1261TIP3    H2 3748   1.759   4.773   0.272
 1262TIP3   OH2 3749   1.090   4.903   0.626
 1262TIP3    H1 3750   1.171   4.947   0.649
 1262TIP3    H2 3751   1.045   4.964   0.567
 1263TIP3   OH2 3752   2.346   5.038   0.876
 1263TIP3    H1 3753   2.258   5.073   0.866
 1263TIP3    H2 3754   2.372   5.062   0.965
 1264TIP3   OH2 3755   1.007   4.648   1.144
 1264TIP3    H1 3756   0.953   4.694   1.079
 1264TIP3    H2 3757   0.956   4.650   1.224
 1265TIP3   OH2 3758   1.079   5.431   0.943
 1265TIP3    H1 3759   1.054   5.501   1.003
 1265TIP3    H2 3760   1.144   5.471   0.885
 1266TIP3   OH2 3761   1.910   4.762   0.542
 1266TIP3    H1 3762   1.865   4.748   0.626
 1266TIP3    H2 3763   1.963   4.840   0.557
 1267TIP3   OH2 3764   0.875   4.779   0.939
 1267TIP3    H1 3765   0.926   4.858   0.960
 1267TIP3    H2 3766   0.928   4.734   0.873
 1268TIP3   OH2 3767   1.770   5.821   0.531
 1268TIP3    H1 3768   1.699   5.824   0.594
 1268TIP3    H2 3769   1.787   5.913   0.510
 1269TIP3   OH2 3770   2.081   4.720   0.873
 1269TIP3    H1 3771   1.994   4.745   0.841
 1269TIP3    H2 3772   2.141   4.747   0.804
 1270TIP3   OH2 3773   1.347   4.341   0.861
 1270TIP3    H1 3774   1.342   4.251   0.891
 1270TIP3    H2 3775   1.274   4.386   0.904
 1271TIP3   OH2 3776   2.006   5.707   0.863
 1271TIP3    H1 3777   1.984   5.636   0.802
 1271TIP3    H2 3778   1.996   5.787   0.812
 1272TIP3   OH2 3779   2.182   5.381   0.707
 1272TIP3    H1 3780   2.097   5.425   0.708
 1272TIP3    H2 3781   2.215   5.394   0.618
 1273TIP3   OH2 3782   1.572   5.140   0.230
 1273TIP3    H1 3783   1.556   5.138   0.136
 1273TIP3    H2 3784   1.667   5.140   0.239
 1274TIP3   OH2 3785   1.874   5.248   1.014
 1274TIP3    H1 3786   1.872   5.328   1.066
 1274TIP3    H2 3787   1.789   5.245   0.970
 1275TIP3   OH2 3788   1.052   5.184   0.818
 1275TIP3    H1 3789   1.103   5.195   0.738
 1275TIP3    H2 3790   1.057   5.269   0.862
 1276TIP3   OH2 3791   1.542   5.816   0.682
 1276TIP3    H1 3792   1.536   5.868   0.762
 1276TIP3    H2 3793   1.533   5.726   0.711
 1277TIP3   OH2 3794   1.128   5.721   1.180
 1277TIP3    H1 3795   1.084   5.787   1.233
 1277TIP3    H2 3796   1.058   5.661   1.154
 1278TIP3   OH2 3797   0.920   5.290   1.303
 1278TIP3    H1 3798   0.937   5.375   1.343
 1278TIP3    H2 3799   0.830   5.269   1.328
 1279TIP3   OH2 3800   0.947   5.888   1.302
 1279TIP3    H1 3801   0.885   5.926   1.240
 1279TIP3    H2 3802   0.894   5.864   1.378
 1280TIP3   OH2 3803   6.926   0.831   6.004
 1280TIP3    H1 3804   6.843   0.842   6.051
 1280TIP3    H2 3805   6.946   0.918   5.971
 1281TIP3   OH2 3806   2.236   6.089   0.934
 1281TIP3    H1 3807   2.240   5.993   0.942
 1281TIP3    H2 3808   2.152   6.113   0.972
 1282TIP3   OH2 3809   1.358   5.842   1.088
 1282TIP3    H1 3810   1.344   5.936   1.098
 1282TIP3    H2 3811   1.274   5.803   1.110
 1283TIP3   OH2 3812   2.121   5.204   1.181
 1283TIP3    H1 3813   2.037   5.211   1.135
 1283TIP3    H2 3814   2.139   5.109   1.182
 1284TIP3   OH2 3815   0.904   5.566   1.153
 1284TIP3    H1 3816   0.898   5.556   1.248
 1284TIP3    H2 3817   0.814   5.580   1.124
 1285TIP3   OH2 3818   1.119   4.442   0.991
 1285TIP3    H1 3819   1.034   4.411   0.960
 1285TIP3    H2 3820   1.100   4.523   1.037
 1286TIP3   OH2 3821   1.657   4.552   1.190
 1286TIP3    H1 3822   1.728   4.528   1.250
 1286TIP3    H2 3823   1.577   4.535   1.240
 1287TIP3   OH2 3824   1.877   4.984   1.101
 1287TIP3    H1 3825   1.835   4.978   1.186
 1287TIP3    H2 3826   1.861   5.074   1.072
 1288TIP3   OH2 3827   1.063   4.976   1.003
 1288TIP3    H1 3828   1.022   5.003   1.086
 1288TIP3    H2 3829   1.050   5.050   0.945
 1289TIP3   OH2 3830   1.599   5.195   1.329
 1289TIP3    H1 3831   1.572   5.125   1.388
 1289TIP3    H2 3832   1.692   5.209   1.349
 1290TIP3   OH2 3833   1.588   4.950   0.472
 1290TIP3    H1 3834   1.540   5.000   0.407
 1290TIP3    H2 3835   1.613   4.869   0.426
 1291TIP3   OH2 3836   0.896   4.954   1.252
 1291TIP3    H1 3837   0.913   5.000   1.334
 1291TIP3    H2 3838   0.875   4.864   1.279
 1292TIP3   OH2 3839   1.618   5.189   0.909
 1292TIP3    H1 3840   1.646   5.121   0.847
 1292TIP3    H2 3841   1.577   5.140   0.980
 1293TIP3   OH2 3842   1.308   4.681   0.613
 1293TIP3    H1 3843   1.244   4.699   0.682
 1293TIP3    H2 3844   1.378   4.633   0.658
 1294TIP3   OH2 3845   1.765   4.733   0.778
 1294TIP3    H1 3846   1.742   4.748   0.869
 1294TIP3    H2 3847   1.704   4.665   0.748
 1295TIP3   OH2 3848   1.931   6.434   0.995
 1295TIP3    H1 3849   1.933   6.434   0.900
 1295TIP3    H2 3850   2.009   6.484   1.020
 1296TIP3   OH2 3851   0.901   5.538   1.430
 1296TIP3    H1 3852   0.975   5.557   1.488
 1296TIP3    H2 3853   0.824   5.557   1.483
 1297TIP3   OH2 3854   1.359   4.993   0.693
 1297TIP3    H1 3855   1.409   4.930   0.641
 1297TIP3    H2 3856   1.356   4.955   0.780
 1298TIP3   OH2 3857   0.845   4.489   0.612
 1298TIP3    H1 3858   0.823   4.412   0.665
 1298TIP3    H2 3859   0.847   4.457   0.522
 1299TIP3   OH2 3860   1.325   4.901   0.955
 1299TIP3    H1 3861   1.237   4.935   0.971
 1299TIP3    H2 3862   1.382   4.957   1.009
 1300TIP3   OH2 3863   1.940   5.513   0.678
 1300TIP3    H1 3864   1.973   5.563   0.603
 1300TIP3    H2 3865   1.859   5.473   0.646
 1301TIP3   OH2 3866   1.471   5.588   1.069
 1301TIP3    H1 3867   1.514   5.574   1.154
 1301TIP3    H2 3868   1.427   5.672   1.079
 1302TIP3   OH2 3869   1.526   4.817   0.149
 1302TIP3    H1 3870   1.536   4.758   0.074
 1302TIP3    H2 3871   1.550   4.903   0.115
 1303TIP3   OH2 3872   0.664   5.254   1.406
 1303TIP3    H1 3873   0.716   5.248   1.486
 1303TIP3    H2 3874   0.574   5.234   1.434
 1304TIP3   OH2 3875   1.361   5.339   1.380
 1304TIP3    H1 3876   1.296   5.278   1.343
 1304TIP3    H2 3877   1.445   5.305   1.349
 1305TIP3   OH2 3878   1.596   5.892   0.958
 1305TIP3    H1 3879   1.509   5.860   0.981
 1305TIP3    H2 3880   1.632   5.926   1.039
 1306TIP3   OH2 3881   6.915   1.436   5.919
 1306TIP3    H1 3882   6.875   1.380   5.852
 1306TIP3    H2 3883   6.907   1.525   5.884
 1307TIP3   OH2 3884   2.249   5.812   0.942
 1307TIP3    H1 3885   2.157   5.790   0.950
 1307TIP3    H2 3886   2.275   5.776   0.857
 1308TIP3   OH2 3887   1.714   5.375   0.572
 1308TIP3    H1 3888   1.624   5.356   0.599
 1308TIP3    H2 3889   1.751   5.289   0.549
 1309TIP3   OH2 3890   1.539   5.573   0.804
 1309TIP3    H1 3891   1.516   5.578   0.897
 1309TIP3    H2 3892   1.606   5.506   0.799
 1310TIP3   OH2 3893   1.758   6.083   0.838
 1310TIP3    H1 3894   1.699   6.015   0.873
 1310TIP3    H2 3895   1.699   6.144   0.793
 1311TIP3   OH2 3896   0.845   4.698   1.365
 1311TIP3    H1 3897   0.749   4.696   1.367
 1311TIP3    H2 3898   0.872   4.645   1.439
 1312TIP3   OH2 3899   1.695   4.779   1.036
 1312TIP3    H1 3900   1.765   4.830   1.077
 1312TIP3    H2 3901   1.681   4.705   1.096
 1313TIP3   OH2 3902   1.567   4.533   0.222
 1313TIP3    H1 3903   1.519   4.572   0.150
 1313TIP3    H2 3904   1.613   4.606   0.263
 1314TIP3   OH2 3905   1.284   4.787   0.357
 1314TIP3    H1 3906   1.368   4.775   0.312
 1314TIP3    H2 3907   1.299   4.752   0.445
 1315TIP3   OH2 3908   1.525   5.028   1.110
 1315TIP3    H1 3909   1.545   5.079   1.188
 1315TIP3    H2 3910   1.574   4.947   1.122
 1316TIP3   OH2 3911   1.414   4.432   0.427
 1316TIP3    H1 3912   1.432   4.487   0.503
 1316TIP3    H2 3913   1.476   4.461   0.361
 1317TIP3   OH2 3914   2.141   4.927   1.086
 1317TIP3    H1 3915   2.047   4.938   1.099
 1317TIP3    H2 3916   2.148   4.862   1.015
 1318TIP3   OH2 3917   1.812   5.127   0.489
 1318TIP3    H1 3918   1.737   5.070   0.505
 1318TIP3    H2 3919   1.883   5.088   0.540
 1319TIP3   OH2 3920   1.820   6.083   0.488
 1319TIP3    H1 3921   1.777   6.137   0.422
 1319TIP3    H2 3922   1.914   6.094   0.469
 1320TIP3   OH2 3923   0.856   4.357   0.959
 1320TIP3    H1 3924   0.820   4.322   0.878
 1320TIP3    H2 3925   0.850   4.285   1.021
 1321TIP3   OH2 3926   1.043   6.092   1.465
 1321TIP3    H1 3927   1.137   6.080   1.479
 1321TIP3    H2 3928   1.018   6.019   1.408
 1322TIP3   OH2 3929   1.671   5.994   1.198
 1322TIP3    H1 3930   1.669   5.925   1.264
 1322TIP3    H2 3931   1.744   6.050   1.224
 1323TIP3   OH2 3932   0.671   5.501   1.611
 1323TIP3    H1 3933   0.730   5.425   1.608
 1323TIP3    H2 3934   0.592   5.468   1.655
 1324TIP3   OH2 3935   1.291   5.616   1.383
 1324TIP3    H1 3936   1.248   5.632   1.299
 1324TIP3    H2 3937   1.327   5.528   1.375
 1325TIP3   OH2 3938   1.774   5.649   1.004
 1325TIP3    H1 3939   1.853   5.681   0.959
 1325TIP3    H2 3940   1.707   5.713   0.982
 1326TIP3   OH2 3941   0.847   5.268   1.611
 1326TIP3    H1 3942   0.927   5.218   1.595
 1326TIP3    H2 3943   0.854   5.295   1.703
 1327TIP3   OH2 3944   1.164   5.162   1.264
 1327TIP3    H1 3945   1.080   5.208   1.271
 1327TIP3    H2 3946   1.201   5.191   1.181
 1328TIP3   OH2 3947   1.650   5.542   1.368
 1328TIP3    H1 3948   1.726   5.506   1.322
 1328TIP3    H2 3949   1.642   5.489   1.447
 1329TIP3   OH2 3950   1.257   4.934   1.382
 1329TIP3    H1 3951   1.261   4.859   1.322
 1329TIP3    H2 3952   1.227   5.007   1.328
 1330TIP3   OH2 3953   1.266   4.733   1.181
 1330TIP3    H1 3954   1.292   4.771   1.098
 1330TIP3    H2 3955   1.174   4.708   1.168
 1331TIP3   OH2 3956   1.286   5.269   1.049
 1331TIP3    H1 3957   1.372   5.295   1.015
 1331TIP3    H2 3958   1.224   5.326   1.003
 1332TIP3   OH2 3959   1.859   5.221   1.436
 1332TIP3    H1 3960   1.888   5.155   1.498
 1332TIP3    H2 3961   1.940   5.262   1.404
 1333TIP3   OH2 3962   1.902   5.480   1.172
 1333TIP3    H1 3963   1.847   5.540   1.122
 1333TIP3    H2 3964   1.991   5.496   1.140
 1334TIP3   OH2 3965   1.128   5.037   1.609
 1334TIP3    H1 3966   1.066   4.968   1.629
 1334TIP3    H2 3967   1.166   5.012   1.524
 1335TIP3   OH2 3968   1.389   4.494   1.264
 1335TIP3    H1 3969   1.346   4.575   1.237
 1335TIP3    H2 3970   1.322   4.427   1.255
 1336TIP3   OH2 3971   1.517   4.981   1.475
 1336TIP3    H1 3972   1.515   4.962   1.569
 1336TIP3    H2 3973   1.430   4.956   1.444
 1337TIP3   OH2 3974   1.752   4.925   1.330
 1337TIP3    H1 3975   1.679   4.929   1.393
 1337TIP3    H2 3976   1.828   4.903   1.383
 1338TIP3   OH2 3977   1.997   4.881   1.466
 1338TIP3    H1 3978   2.008   4.789   1.492
 1338TIP3    H2 3979   1.980   4.927   1.549
 1339TIP3   OH2 3980   0.977   4.817   1.675
 1339TIP3    H1 3981   0.976   4.731   1.635
 1339TIP3    H2 3982   1.014   4.803   1.763
 1340TIP3   OH2 3983   1.468   4.490   1.528
 1340TIP3    H1 3984   1.536   4.422   1.528
 1340TIP3    H2 3985   1.435   4.491   1.438
 1341TIP3   OH2 3986   1.553   4.703   1.676
 1341TIP3    H1 3987   1.530   4.629   1.621
 1341TIP3    H2 3988   1.475   4.759   1.675
 1342TIP3   OH2 3989   2.079   6.127   0.420
 1342TIP3    H1 3990   2.118   6.163   0.500
 1342TIP3    H2 3991   2.102   6.190   0.352
 1343TIP3   OH2 3992   2.107   6.168   0.696
 1343TIP3    H1 3993   2.062   6.083   0.695
 1343TIP3    H2 3994   2.173   6.158   0.765
 1344TIP3   OH2 3995   2.104   5.880   1.247
 1344TIP3    H1 3996   2.037   5.887   1.314
 1344TIP3    H2 3997   2.154   5.961   1.254
 1345TIP3   OH2 3998   6.840   1.767   5.902
 1345TIP3    H1 3999   6.831   1.859   5.877
 1345TIP3    H2 4000   6.881   1.770   5.988
 1346TIP3   OH2 4001   2.040   5.279   0.096
 1346TIP3    H1 4002   1.991   5.217   0.151
 1346TIP3    H2 4003   2.124   5.289   0.141
 1347TIP3   OH2 4004   2.111   5.646   0.505
 1347TIP3    H1 4005   2.170   5.580   0.469
 1347TIP3    H2 4006   2.126   5.723   0.450
 1348TIP3   OH2 4007   1.958   5.934   0.719
 1348TIP3    H1 4008   1.889   5.989   0.755
 1348TIP3    H2 4009   1.918   5.892   0.642
 1349TIP3   OH2 4010   1.863   5.103   0.223
 1349TIP3    H1 4011   1.872   5.009   0.207
 1349TIP3    H2 4012   1.857   5.110   0.318
 1350TIP3   OH2 4013   2.155   5.533   1.071
 1350TIP3    H1 4014   2.224   5.468   1.057
 1350TIP3    H2 4015   2.155   5.587   0.992
 1351TIP3   OH2 4016   2.335   5.327   1.066
 1351TIP3    H1 4017   2.261   5.284   1.108
 1351TIP3    H2 4018   2.410   5.270   1.086
 1352TIP3   OH2 4019   6.747   1.026   5.754
 1352TIP3    H1 4020   6.748   1.041   5.849
 1352TIP3    H2 4021   6.658   0.998   5.735
 1353TIP3   OH2 4022   1.872   4.839   0.118
 1353TIP3    H1 4023   1.907   4.751   0.134
 1353TIP3    H2 4024   1.917   4.868   0.039
 1354TIP3   OH2 4025   2.027   5.005   0.612
 1354TIP3    H1 4026   2.108   5.026   0.566
 1354TIP3    H2 4027   2.039   5.042   0.700
 1355TIP3   OH2 4028   2.091   5.154   0.838
 1355TIP3    H1 4029   2.020   5.183   0.895
 1355TIP3    H2 4030   2.124   5.235   0.798
 1356TIP3   OH2 4031   0.712   4.867   1.602
 1356TIP3    H1 4032   0.806   4.871   1.620
 1356TIP3    H2 4033   0.684   4.785   1.641
 1357TIP3   OH2 4034   2.549   4.760   1.381
 1357TIP3    H1 4035   2.610   4.695   1.345
 1357TIP3    H2 4036   2.515   4.806   1.304
 1358TIP3   OH2 4037   1.971   4.581   0.152
 1358TIP3    H1 4038   2.019   4.566   0.233
 1358TIP3    H2 4039   1.907   4.510   0.148
 1359TIP3   OH2 4040   0.690   4.576   1.029
 1359TIP3    H1 4041   0.751   4.505   1.009
 1359TIP3    H2 4042   0.734   4.655   0.998
 1360TIP3   OH2 4043   2.406   4.876   1.180
 1360TIP3    H1 4044   2.326   4.914   1.215
 1360TIP3    H2 4045   2.376   4.801   1.128
 1361TIP3   OH2 4046   7.011   1.051   5.824
 1361TIP3    H1 4047   7.062   0.984   5.779
 1361TIP3    H2 4048   6.931   1.059   5.771
 1362TIP3   OH2 4049   0.675   4.408   1.360
 1362TIP3    H1 4050   0.630   4.411   1.444
 1362TIP3    H2 4051   0.616   4.453   1.299
 1363TIP3   OH2 4052   0.743   5.813   1.480
 1363TIP3    H1 4053   0.678   5.877   1.453
 1363TIP3    H2 4054   0.727   5.800   1.573
 1364TIP3   OH2 4055   1.341   6.124   1.089
 1364TIP3    H1 4056   1.356   6.133   1.183
 1364TIP3    H2 4057   1.411   6.174   1.048
 1365TIP3   OH2 4058   1.556   6.247   0.976
 1365TIP3    H1 4059   1.633   6.192   0.991
 1365TIP3    H2 4060   1.575   6.328   1.023
 1366TIP3   OH2 4061   2.314   4.624   1.079
 1366TIP3    H1 4062   2.223   4.610   1.051
 1366TIP3    H2 4063   2.354   4.537   1.074
 1367TIP3   OH2 4064   1.511   4.518   0.692
 1367TIP3    H1 4065   1.481   4.450   0.754
 1367TIP3    H2 4066   1.594   4.484   0.659
 1368TIP3   OH2 4067   2.029   4.450   0.598
 1368TIP3    H1 4068   2.068   4.503   0.528
 1368TIP3    H2 4069   1.939   4.482   0.605
 1369TIP3   OH2 4070   2.140   4.535   0.363
 1369TIP3    H1 4071   2.211   4.477   0.336
 1369TIP3    H2 4072   2.175   4.623   0.350
 1370TIP3   OH2 4073   0.771   4.248   0.715
 1370TIP3    H1 4074   0.686   4.206   0.726
 1370TIP3    H2 4075   0.833   4.175   0.711
 1371TIP3   OH2 4076   1.226   4.291   0.601
 1371TIP3    H1 4077   1.272   4.347   0.538
 1371TIP3    H2 4078   1.264   4.314   0.686
 1372TIP3   OH2 4079   1.745   4.431   0.579
 1372TIP3    H1 4080   1.772   4.397   0.493
 1372TIP3    H2 4081   1.746   4.354   0.636
 1373TIP3   OH2 4082   1.784   4.376   0.139
 1373TIP3    H1 4083   1.704   4.425   0.158
 1373TIP3    H2 4084   1.774   4.293   0.185
 1374TIP3   OH2 4085   1.217   4.514   0.241
 1374TIP3    H1 4086   1.293   4.477   0.285
 1374TIP3    H2 4087   1.167   4.556   0.311
 1375TIP3   OH2 4088   0.966   4.544   1.594
 1375TIP3    H1 4089   0.919   4.498   1.663
 1375TIP3    H2 4090   1.058   4.540   1.620
 1376TIP3   OH2 4091   1.220   4.546   1.704
 1376TIP3    H1 4092   1.300   4.527   1.656
 1376TIP3    H2 4093   1.223   4.488   1.780
 1377TIP3   OH2 4094   2.058   4.613   1.511
 1377TIP3    H1 4095   2.075   4.580   1.599
 1377TIP3    H2 4096   2.143   4.612   1.468
 1378TIP3   OH2 4097   1.979   6.160   1.005
 1378TIP3    H1 4098   1.908   6.128   0.951
 1378TIP3    H2 4099   1.963   6.254   1.014
 1379TIP3   OH2 4100   3.218   5.528   0.202
 1379TIP3    H1 4101   3.164   5.535   0.280
 1379TIP3    H2 4102   3.246   5.436   0.200
 1380TIP3   OH2 4103   2.536   5.422   0.546
 1380TIP3    H1 4104   2.566   5.352   0.605
 1380TIP3    H2 4105   2.604   5.489   0.551
 1381TIP3   OH2 4106   2.447   5.809   0.286
 1381TIP3    H1 4107   2.450   5.715   0.269
 1381TIP3    H2 4108   2.539   5.836   0.285
 1382TIP3   OH2 4109   7.164   1.520   6.048
 1382TIP3    H1 4110   7.126   1.607   6.063
 1382TIP3    H2 4111   7.092   1.470   6.010
 1383TIP3   OH2 4112   2.294   5.333   0.200
 1383TIP3    H1 4113   2.346   5.257   0.226
 1383TIP3    H2 4114   2.358   5.398   0.172
 1384TIP3   OH2 4115   3.041   5.726   0.106
 1384TIP3    H1 4116   3.121   5.686   0.141
 1384TIP3    H2 4117   3.047   5.818   0.134
 1385TIP3   OH2 4118   3.388   5.120   0.342
 1385TIP3    H1 4119   3.482   5.115   0.357
 1385TIP3    H2 4120   3.380   5.160   0.255
 1386TIP3   OH2 4121   2.801   4.912   0.201
 1386TIP3    H1 4122   2.798   4.976   0.130
 1386TIP3    H2 4123   2.756   4.835   0.166
 1387TIP3   OH2 4124   2.438   5.117   0.291
 1387TIP3    H1 4125   2.515   5.098   0.344
 1387TIP3    H2 4126   2.451   5.068   0.210
 1388TIP3   OH2 4127   2.831   5.369   0.068
 1388TIP3    H1 4128   2.905   5.315   0.096
 1388TIP3    H2 4129   2.819   5.348  -0.024
 1389TIP3   OH2 4130   4.107   5.245   0.274
 1389TIP3    H1 4131   4.024   5.294   0.276
 1389TIP3    H2 4132   4.110   5.198   0.357
 1390TIP3   OH2 4133   2.781   4.901   0.638
 1390TIP3    H1 4134   2.728   4.935   0.565
 1390TIP3    H2 4135   2.727   4.916   0.716
 1391TIP3   OH2 4136   2.799   5.641   0.439
 1391TIP3    H1 4137   2.770   5.726   0.472
 1391TIP3    H2 4138   2.890   5.655   0.413
 1392TIP3   OH2 4139   2.664   5.011   0.413
 1392TIP3    H1 4140   2.716   5.087   0.436
 1392TIP3    H2 4141   2.711   4.970   0.340
 1393TIP3   OH2 4142   2.724   5.891   0.529
 1393TIP3    H1 4143   2.708   5.974   0.484
 1393TIP3    H2 4144   2.646   5.877   0.581
 1394TIP3   OH2 4145   3.897   4.931   0.432
 1394TIP3    H1 4146   3.847   4.987   0.492
 1394TIP3    H2 4147   3.887   4.973   0.346
 1395TIP3   OH2 4148   3.146   4.654   0.404
 1395TIP3    H1 4149   3.157   4.582   0.342
 1395TIP3    H2 4150   3.054   4.651   0.428
 1396TIP3   OH2 4151   3.713   5.557   0.498
 1396TIP3    H1 4152   3.731   5.600   0.582
 1396TIP3    H2 4153   3.728   5.625   0.432
 1397TIP3   OH2 4154   2.704   5.858   0.204
 1397TIP3    H1 4155   2.712   5.918   0.129
 1397TIP3    H2 4156   2.730   5.773   0.168
 1398TIP3   OH2 4157   2.732   5.410   0.320
 1398TIP3    H1 4158   2.767   5.408   0.231
 1398TIP3    H2 4159   2.757   5.496   0.354
 1399TIP3   OH2 4160   2.896   5.987   0.723
 1399TIP3    H1 4161   2.853   6.066   0.754
 1399TIP3    H2 4162   2.836   5.952   0.656
 1400TIP3   OH2 4163   2.682   5.551   0.782
 1400TIP3    H1 4164   2.687   5.640   0.817
 1400TIP3    H2 4165   2.591   5.526   0.797
 1401TIP3   OH2 4166   2.708   6.182   0.756
 1401TIP3    H1 4167   2.684   6.186   0.663
 1401TIP3    H2 4168   2.629   6.152   0.800
 1402TIP3   OH2 4169   2.312   5.690   0.706
 1402TIP3    H1 4170   2.244   5.668   0.642
 1402TIP3    H2 4171   2.349   5.606   0.732
 1403TIP3   OH2 4172   2.180   5.867   0.351
 1403TIP3    H1 4173   2.276   5.863   0.344
 1403TIP3    H2 4174   2.163   5.950   0.394
 1404TIP3   OH2 4175   3.071   6.084   0.501
 1404TIP3    H1 4176   3.143   6.141   0.474
 1404TIP3    H2 4177   3.090   6.061   0.591
 1405TIP3   OH2 4178   3.871   5.465   0.751
 1405TIP3    H1 4179   3.793   5.450   0.696
 1405TIP3    H2 4180   3.908   5.378   0.765
 1406TIP3   OH2 4181   2.506   5.883   0.688
 1406TIP3    H1 4182   2.557   5.870   0.768
 1406TIP3    H2 4183   2.437   5.816   0.693
 1407TIP3   OH2 4184   2.884   4.692   0.487
 1407TIP3    H1 4185   2.801   4.658   0.454
 1407TIP3    H2 4186   2.860   4.767   0.541
 1408TIP3   OH2 4187   3.451   4.773   0.702
 1408TIP3    H1 4188   3.528   4.755   0.757
 1408TIP3    H2 4189   3.378   4.741   0.754
 1409TIP3   OH2 4190   3.661   5.230   0.635
 1409TIP3    H1 4191   3.603   5.226   0.711
 1409TIP3    H2 4192   3.607   5.268   0.565
 1410TIP3   OH2 4193   2.823   5.219   0.486
 1410TIP3    H1 4194   2.791   5.226   0.576
 1410TIP3    H2 4195   2.776   5.288   0.439
 1411TIP3   OH2 4196   0.284   1.590   6.026
 1411TIP3    H1 4197   0.194   1.580   6.058
 1411TIP3    H2 4198   0.275   1.603   5.932
 1412TIP3   OH2 4199   3.399   5.483   0.849
 1412TIP3    H1 4200   3.365   5.423   0.916
 1412TIP3    H2 4201   3.492   5.490   0.869
 1413TIP3   OH2 4202   2.654   5.225   0.709
 1413TIP3    H1 4203   2.717   5.275   0.760
 1413TIP3    H2 4204   2.639   5.146   0.761
 1414TIP3   OH2 4205   2.262   4.760   0.281
 1414TIP3    H1 4206   2.327   4.796   0.341
 1414TIP3    H2 4207   2.305   4.761   0.195
 1415TIP3   OH2 4208   3.340   5.533   0.534
 1415TIP3    H1 4209   3.372   5.485   0.458
 1415TIP3    H2 4210   3.364   5.479   0.609
 1416TIP3   OH2 4211   3.072   4.889   0.095
 1416TIP3    H1 4212   2.997   4.850   0.139
 1416TIP3    H2 4213   3.148   4.854   0.141
 1417TIP3   OH2 4214   2.501   4.975   0.062
 1417TIP3    H1 4215   2.411   4.979   0.030
 1417TIP3    H2 4216   2.529   4.885   0.043
 1418TIP3   OH2 4217   3.509   4.980   0.145
 1418TIP3    H1 4218   3.448   4.967   0.217
 1418TIP3    H2 4219   3.545   4.893   0.127
 1419TIP3   OH2 4220   2.676   5.799   0.909
 1419TIP3    H1 4221   2.758   5.816   0.955
 1419TIP3    H2 4222   2.609   5.799   0.977
 1420TIP3   OH2 4223   3.242   5.257   0.152
 1420TIP3    H1 4224   3.248   5.221   0.064
 1420TIP3    H2 4225   3.149   5.253   0.173
 1421TIP3   OH2 4226   2.674   4.713   0.062
 1421TIP3    H1 4227   2.622   4.645   0.105
 1421TIP3    H2 4228   2.755   4.670   0.036
 1422TIP3   OH2 4229   3.097   5.064   0.473
 1422TIP3    H1 4230   3.007   5.054   0.441
 1422TIP3    H2 4231   3.109   5.158   0.482
 1423TIP3   OH2 4232   3.281   5.892   0.573
 1423TIP3    H1 4233   3.358   5.843   0.605
 1423TIP3    H2 4234   3.279   5.971   0.627
 1424TIP3   OH2 4235   2.504   5.536   0.216
 1424TIP3    H1 4236   2.563   5.563   0.145
 1424TIP3    H2 4237   2.561   5.488   0.276
 1425TIP3   OH2 4238   2.420   5.472   0.839
 1425TIP3    H1 4239   2.431   5.448   0.931
 1425TIP3    H2 4240   2.353   5.412   0.806
 1426TIP3   OH2 4241   3.154   5.612   0.868
 1426TIP3    H1 4242   3.101   5.582   0.794
 1426TIP3    H2 4243   3.242   5.582   0.849
 1427TIP3   OH2 4244   3.481   6.115   0.553
 1427TIP3    H1 4245   3.414   6.144   0.491
 1427TIP3    H2 4246   3.474   6.176   0.626
 1428TIP3   OH2 4247   3.967   6.077   0.310
 1428TIP3    H1 4248   3.906   6.116   0.372
 1428TIP3    H2 4249   4.047   6.129   0.318
 1429TIP3   OH2 4250   2.888   6.190   0.281
 1429TIP3    H1 4251   2.944   6.248   0.332
 1429TIP3    H2 4252   2.924   6.103   0.297
 1430TIP3   OH2 4253   3.277   5.807   0.310
 1430TIP3    H1 4254   3.278   5.849   0.396
 1430TIP3    H2 4255   3.357   5.837   0.268
 1431TIP3   OH2 4256   2.623   4.981   0.847
 1431TIP3    H1 4257   2.528   4.991   0.855
 1431TIP3    H2 4258   2.647   4.930   0.924
 1432TIP3   OH2 4259   2.371   6.065   0.494
 1432TIP3    H1 4260   2.419   6.001   0.547
 1432TIP3    H2 4261   2.385   6.148   0.539
 1433TIP3   OH2 4262   3.389   5.012   0.606
 1433TIP3    H1 4263   3.477   5.044   0.587
 1433TIP3    H2 4264   3.403   4.933   0.659
 1434TIP3   OH2 4265   3.349   5.288   0.671
 1434TIP3    H1 4266   3.359   5.346   0.747
 1434TIP3    H2 4267   3.373   5.201   0.704
 1435TIP3   OH2 4268   3.935   5.228   0.636
 1435TIP3    H1 4269   3.843   5.221   0.611
 1435TIP3    H2 4270   3.983   5.184   0.565
 1436TIP3   OH2 4271   2.625   4.607   0.443
 1436TIP3    H1 4272   2.602   4.571   0.358
 1436TIP3    H2 4273   2.623   4.532   0.503
 1437TIP3   OH2 4274   2.349   6.364   0.945
 1437TIP3    H1 4275   2.438   6.365   0.981
 1437TIP3    H2 4276   2.326   6.271   0.943
 1438TIP3   OH2 4277   2.832   6.331   0.947
 1438TIP3    H1 4278   2.923   6.302   0.949
 1438TIP3    H2 4279   2.793   6.282   0.875
 1439TIP3   OH2 4280   3.463   6.287   0.758
 1439TIP3    H1 4281   3.471   6.208   0.812
 1439TIP3    H2 4282   3.540   6.340   0.781
 1440TIP3   OH2 4283   2.475   5.790   1.099
 1440TIP3    H1 4284   2.494   5.696   1.106
 1440TIP3    H2 4285   2.390   5.793   1.056
 1441TIP3   OH2 4286   3.086   5.885   0.906
 1441TIP3    H1 4287   3.030   5.903   0.830
 1441TIP3    H2 4288   3.125   5.799   0.888
 1442TIP3   OH2 4289   3.515   5.920   0.362
 1442TIP3    H1 4290   3.591   5.862   0.364
 1442TIP3    H2 4291   3.500   5.942   0.454
 1443TIP3   OH2 4292   2.595   5.534   1.092
 1443TIP3    H1 4293   2.672   5.495   1.050
 1443TIP3    H2 4294   2.624   5.556   1.180
 1444TIP3   OH2 4295   2.883   5.371   0.761
 1444TIP3    H1 4296   2.821   5.443   0.774
 1444TIP3    H2 4297   2.953   5.408   0.709
 1445TIP3   OH2 4298   3.432   5.804   0.872
 1445TIP3    H1 4299   3.471   5.763   0.796
 1445TIP3    H2 4300   3.449   5.743   0.944
 1446TIP3   OH2 4301   3.056   5.192   0.875
 1446TIP3    H1 4302   3.050   5.106   0.834
 1446TIP3    H2 4303   2.997   5.247   0.824
 1447TIP3   OH2 4304   3.034   4.958   0.723
 1447TIP3    H1 4305   3.061   4.995   0.640
 1447TIP3    H2 4306   2.943   4.930   0.708
 1448TIP3   OH2 4307   3.073   5.492   0.617
 1448TIP3    H1 4308   3.161   5.496   0.579
 1448TIP3    H2 4309   3.022   5.556   0.568
 1449TIP3   OH2 4310   3.661   5.469   0.937
 1449TIP3    H1 4311   3.694   5.390   0.980
 1449TIP3    H2 4312   3.737   5.505   0.891
 1450TIP3   OH2 4313   3.744   5.715   0.713
 1450TIP3    H1 4314   3.713   5.805   0.705
 1450TIP3    H2 4315   3.836   5.719   0.687
 1451TIP3   OH2 4316   2.932   5.291   1.108
 1451TIP3    H1 4317   2.865   5.226   1.127
 1451TIP3    H2 4318   2.965   5.267   1.022
 1452TIP3   OH2 4319   3.183   4.729   0.768
 1452TIP3    H1 4320   3.133   4.810   0.756
 1452TIP3    H2 4321   3.120   4.659   0.750
 1453TIP3   OH2 4322   3.298   5.266   0.983
 1453TIP3    H1 4323   3.286   5.243   1.075
 1453TIP3    H2 4324   3.217   5.239   0.940
 1454TIP3   OH2 4325   3.528   5.172   0.860
 1454TIP3    H1 4326   3.461   5.192   0.926
 1454TIP3    H2 4327   3.606   5.151   0.911
 1455TIP3   OH2 4328   3.778   5.132   0.975
 1455TIP3    H1 4329   3.797   5.039   0.992
 1455TIP3    H2 4330   3.772   5.171   1.062
 1456TIP3   OH2 4331   2.776   5.064   1.165
 1456TIP3    H1 4332   2.778   4.975   1.131
 1456TIP3    H2 4333   2.813   5.057   1.253
 1457TIP3   OH2 4334   3.264   4.741   1.028
 1457TIP3    H1 4335   3.334   4.675   1.025
 1457TIP3    H2 4336   3.226   4.739   0.941
 1458TIP3   OH2 4337   3.346   4.964   1.164
 1458TIP3    H1 4338   3.319   4.889   1.111
 1458TIP3    H2 4339   3.270   5.022   1.164
 1459TIP3   OH2 4340   2.126   5.955   0.091
 1459TIP3    H1 4341   2.140   5.912   0.175
 1459TIP3    H2 4342   2.136   6.049   0.109
 1460TIP3   OH2 4343   3.891   6.212   0.764
 1460TIP3    H1 4344   3.837   6.184   0.837
 1460TIP3    H2 4345   3.947   6.281   0.800
 1461TIP3   OH2 4346   2.282   5.438   0.455
 1461TIP3    H1 4347   2.280   5.403   0.366
 1461TIP3    H2 4348   2.374   5.439   0.479
 1462TIP3   OH2 4349   3.966   5.733   0.567
 1462TIP3    H1 4350   4.060   5.741   0.584
 1462TIP3    H2 4351   3.953   5.775   0.482
 1463TIP3   OH2 4352   4.140   5.553   0.728
 1463TIP3    H1 4353   4.044   5.555   0.729
 1463TIP3    H2 4354   4.161   5.482   0.668
 1464TIP3   OH2 4355   3.906   5.427   0.259
 1464TIP3    H1 4356   3.929   5.448   0.350
 1464TIP3    H2 4357   3.842   5.493   0.235
 1465TIP3   OH2 4358   2.511   5.124   1.120
 1465TIP3    H1 4359   2.605   5.120   1.133
 1465TIP3    H2 4360   2.478   5.042   1.156
 1466TIP3   OH2 4361   4.362   4.999   0.911
 1466TIP3    H1 4362   4.419   4.947   0.854
 1466TIP3    H2 4363   4.305   5.047   0.850
 1467TIP3   OH2 4364   2.458   4.828   0.464
 1467TIP3    H1 4365   2.512   4.749   0.469
 1467TIP3    H2 4366   2.521   4.899   0.453
 1468TIP3   OH2 4367   2.262   5.102   0.512
 1468TIP3    H1 4368   2.313   5.096   0.432
 1468TIP3    H2 4369   2.299   5.178   0.558
 1469TIP3   OH2 4370   4.150   5.120   0.795
 1469TIP3    H1 4371   4.090   5.193   0.806
 1469TIP3    H2 4372   4.125   5.080   0.712
 1470TIP3   OH2 4373   2.224   4.605   0.007
 1470TIP3    H1 4374   2.157   4.606   0.075
 1470TIP3    H2 4375   2.174   4.615  -0.075
 1471TIP3   OH2 4376   2.470   4.676   0.847
 1471TIP3    H1 4377   2.420   4.663   0.927
 1471TIP3    H2 4378   2.409   4.717   0.786
 1472TIP3   OH2 4379   2.510   6.102   0.928
 1472TIP3    H1 4380   2.417   6.085   0.919
 1472TIP3    H2 4381   2.529   6.083   1.020
 1473TIP3   OH2 4382   2.669   6.151   0.457
 1473TIP3    H1 4383   2.608   6.220   0.429
 1473TIP3    H2 4384   2.751   6.173   0.413
 1474TIP3   OH2 4385   3.107   6.428   0.660
 1474TIP3    H1 4386   3.149   6.417   0.745
 1474TIP3    H2 4387   3.169   6.480   0.609
 1475TIP3   OH2 4388   3.293   6.528   0.477
 1475TIP3    H1 4389   3.330   6.552   0.393
 1475TIP3    H2 4390   3.339   6.584   0.540
 1476TIP3   OH2 4391   4.049   4.891   0.664
 1476TIP3    H1 4392   3.970   4.865   0.617
 1476TIP3    H2 4393   4.106   4.815   0.659
 1477TIP3   OH2 4394   2.381   6.362   0.518
 1477TIP3    H1 4395   2.292   6.385   0.493
 1477TIP3    H2 4396   2.401   6.421   0.592
 1478TIP3   OH2 4397   2.567   6.388   0.320
 1478TIP3    H1 4398   2.505   6.400   0.392
 1478TIP3    H2 4399   2.528   6.319   0.266
 1479TIP3   OH2 4400   2.394   6.187   0.241
 1479TIP3    H1 4401   2.388   6.141   0.325
 1479TIP3    H2 4402   2.307   6.177   0.203
 1480TIP3   OH2 4403   2.527   6.025   0.058
 1480TIP3    H1 4404   2.505   5.946   0.108
 1480TIP3    H2 4405   2.510   6.097   0.118
 1481TIP3   OH2 4406   3.298   4.829   0.263
 1481TIP3    H1 4407   3.248   4.757   0.301
 1481TIP3    H2 4408   3.356   4.788   0.200
 1482TIP3   OH2 4409   2.556   4.503   0.195
 1482TIP3    H1 4410   2.468   4.469   0.207
 1482TIP3    H2 4411   2.611   4.425   0.192
 1483TIP3   OH2 4412   7.268   0.898   5.912
 1483TIP3    H1 4413   7.339   0.943   5.865
 1483TIP3    H2 4414   7.234   0.964   5.972
 1484TIP3   OH2 4415   2.958   4.580   0.072
 1484TIP3    H1 4416   3.013   4.599  -0.004
 1484TIP3    H2 4417   3.021   4.557   0.141
 1485TIP3   OH2 4418   3.614   4.727   0.152
 1485TIP3    H1 4419   3.627   4.706   0.060
 1485TIP3    H2 4420   3.588   4.645   0.193
 1486TIP3   OH2 4421   2.777   4.790   1.084
 1486TIP3    H1 4422   2.740   4.723   1.142
 1486TIP3    H2 4423   2.869   4.796   1.109
 1487TIP3   OH2 4424   3.027   4.794   1.205
 1487TIP3    H1 4425   3.109   4.770   1.162
 1487TIP3    H2 4426   3.015   4.727   1.272
 1488TIP3   OH2 4427   3.853   4.872   1.008
 1488TIP3    H1 4428   3.854   4.845   1.100
 1488TIP3    H2 4429   3.944   4.862   0.979
 1489TIP3   OH2 4430   3.802   6.457   0.588
 1489TIP3    H1 4431   3.733   6.428   0.528
 1489TIP3    H2 4432   3.796   6.553   0.588
 1490TIP3   OH2 4433   4.347   5.778   0.247
 1490TIP3    H1 4434   4.392   5.822   0.319
 1490TIP3    H2 4435   4.349   5.685   0.271
 1491TIP3   OH2 4436   4.449   5.256   0.412
 1491TIP3    H1 4437   4.405   5.223   0.334
 1491TIP3    H2 4438   4.536   5.217   0.409
 1492TIP3   OH2 4439   4.311   6.037   0.682
 1492TIP3    H1 4440   4.329   5.956   0.729
 1492TIP3    H2 4441   4.216   6.036   0.668
 1493TIP3   OH2 4442   4.479   5.740   0.488
 1493TIP3    H1 4443   4.535   5.666   0.462
 1493TIP3    H2 4444   4.534   5.791   0.548
 1494TIP3   OH2 4445   4.678   5.557   0.463
 1494TIP3    H1 4446   4.658   5.483   0.520
 1494TIP3    H2 4447   4.709   5.516   0.382
 1495TIP3   OH2 4448   4.624   5.342   0.626
 1495TIP3    H1 4449   4.544   5.292   0.616
 1495TIP3    H2 4450   4.659   5.316   0.712
 1496TIP3   OH2 4451   5.084   4.886   0.538
 1496TIP3    H1 4452   5.152   4.922   0.481
 1496TIP3    H2 4453   5.020   4.957   0.546
 1497TIP3   OH2 4454   5.158   5.254   0.622
 1497TIP3    H1 4455   5.181   5.181   0.565
 1497TIP3    H2 4456   5.067   5.275   0.598
 1498TIP3   OH2 4457   4.254   5.335   0.591
 1498TIP3    H1 4458   4.310   5.311   0.517
 1498TIP3    H2 4459   4.283   5.278   0.662
 1499TIP3   OH2 4460   4.212   4.893   0.332
 1499TIP3    H1 4461   4.281   4.877   0.396
 1499TIP3    H2 4462   4.175   4.978   0.357
 1500TIP3   OH2 4463   4.617   5.056   0.621
 1500TIP3    H1 4464   4.609   4.965   0.651
 1500TIP3    H2 4465   4.679   5.051   0.548
 1501TIP3   OH2 4466   4.808   5.049   0.831
 1501TIP3    H1 4467   4.760   5.015   0.755
 1501TIP3    H2 4468   4.794   4.984   0.900
 1502TIP3   OH2 4469   1.157   6.415   1.280
 1502TIP3    H1 4470   1.159   6.422   1.185
 1502TIP3    H2 4471   1.137   6.504   1.311
 1503TIP3   OH2 4472   2.174   6.561   1.021
 1503TIP3    H1 4473   2.229   6.486   1.000
 1503TIP3    H2 4474   2.201   6.629   0.960
 1504TIP3   OH2 4475   1.963   6.401   0.722
 1504TIP3    H1 4476   1.887   6.393   0.665
 1504TIP3    H2 4477   2.010   6.319   0.712
 1505TIP3   OH2 4478   1.685   6.428   1.131
 1505TIP3    H1 4479   1.701   6.415   1.225
 1505TIP3    H2 4480   1.772   6.441   1.093
 1506TIP3   OH2 4481   3.048   6.432   0.346
 1506TIP3    H1 4482   3.120   6.470   0.395
 1506TIP3    H2 4483   2.969   6.458   0.394
 1507TIP3   OH2 4484   2.787   6.541   0.394
 1507TIP3    H1 4485   2.798   6.595   0.316
 1507TIP3    H2 4486   2.715   6.481   0.371
 1508TIP3   OH2 4487   2.844   6.553   0.662
 1508TIP3    H1 4488   2.892   6.472   0.681
 1508TIP3    H2 4489   2.808   6.540   0.575
 1509TIP3   OH2 4490   2.996   6.779   0.831
 1509TIP3    H1 4491   3.043   6.740   0.758
 1509TIP3    H2 4492   2.912   6.807   0.794
 1510TIP3   OH2 4493   2.123   6.448   0.488
 1510TIP3    H1 4494   2.093   6.450   0.578
 1510TIP3    H2 4495   2.075   6.519   0.445
 1511TIP3   OH2 4496   2.405   6.529   0.732
 1511TIP3    H1 4497   2.380   6.472   0.804
 1511TIP3    H2 4498   2.486   6.570   0.760
 1512TIP3   OH2 4499   2.643   6.603   0.844
 1512TIP3    H1 4500   2.718   6.587   0.787
 1512TIP3    H2 4501   2.655   6.541   0.916
 1513TIP3   OH2 4502   3.441   6.649   0.680
 1513TIP3    H1 4503   3.476   6.603   0.757
 1513TIP3    H2 4504   3.435   6.740   0.708
 1514TIP3   OH2 4505   6.116   6.949   3.668
 1514TIP3    H1 4506   6.086   7.038   3.651
 1514TIP3    H2 4507   6.036   6.897   3.670
 1515TIP3   OH2 4508   1.476   0.375   3.744
 1515TIP3    H1 4509   1.470   0.308   3.812
 1515TIP3    H2 4510   1.505   0.454   3.791
 1516TIP3   OH2 4511   1.165   0.796   3.756
 1516TIP3    H1 4512   1.185   0.724   3.697
 1516TIP3    H2 4513   1.094   0.762   3.811
 1517TIP3   OH2 4514   0.999   0.205   4.160
 1517TIP3    H1 4515   0.990   0.151   4.082
 1517TIP3    H2 4516   1.085   0.246   4.152
 1518TIP3   OH2 4517   7.034   6.598   4.085
 1518TIP3    H1 4518   7.004   6.649   4.162
 1518TIP3    H2 4519   6.965   6.612   4.020
 1519TIP3   OH2 4520   6.981   6.750   4.306
 1519TIP3    H1 4521   6.913   6.813   4.282
 1519TIP3    H2 4522   7.047   6.801   4.351
 1520TIP3   OH2 4523   1.012   0.192   3.596
 1520TIP3    H1 4524   1.045   0.190   3.506
 1520TIP3    H2 4525   1.013   0.285   3.620
 1521TIP3   OH2 4526   1.518   0.598   3.888
 1521TIP3    H1 4527   1.435   0.584   3.932
 1521TIP3    H2 4528   1.509   0.683   3.845
 1522TIP3   OH2 4529   1.208   0.630   3.526
 1522TIP3    H1 4530   1.264   0.555   3.547
 1522TIP3    H2 4531   1.269   0.699   3.501
 1523TIP3   OH2 4532   1.433   0.440   3.462
 1523TIP3    H1 4533   1.360   0.385   3.433
 1523TIP3    H2 4534   1.454   0.409   3.550
 1524TIP3   OH2 4535   1.730   0.486   4.242
 1524TIP3    H1 4536   1.724   0.412   4.183
 1524TIP3    H2 4537   1.715   0.563   4.187
 1525TIP3   OH2 4538   1.931   0.141   4.097
 1525TIP3    H1 4539   1.848   0.188   4.089
 1525TIP3    H2 4540   1.958   0.126   4.006
 1526TIP3   OH2 4541   6.257   6.876   3.432
 1526TIP3    H1 4542   6.219   6.908   3.514
 1526TIP3    H2 4543   6.351   6.873   3.448
 1527TIP3   OH2 4544   1.619   0.018   4.395
 1527TIP3    H1 4545   1.615   0.092   4.455
 1527TIP3    H2 4546   1.534   0.018   4.351
 1528TIP3   OH2 4547   1.289   0.562   4.022
 1528TIP3    H1 4548   1.266   0.652   4.046
 1528TIP3    H2 4549   1.243   0.507   4.085
 1529TIP3   OH2 4550   0.971   0.480   3.546
 1529TIP3    H1 4551   1.049   0.533   3.533
 1529TIP3    H2 4552   0.905   0.521   3.489
 1530TIP3   OH2 4553   1.566   0.426   2.960
 1530TIP3    H1 4554   1.561   0.513   2.922
 1530TIP3    H2 4555   1.646   0.388   2.923
 1531TIP3   OH2 4556   1.967   0.837   4.287
 1531TIP3    H1 4557   1.973   0.742   4.297
 1531TIP3    H2 4558   1.886   0.861   4.332
 1532TIP3   OH2 4559   1.067   0.618   4.426
 1532TIP3    H1 4560   1.077   0.712   4.444
 1532TIP3    H2 4561   0.993   0.591   4.480
 1533TIP3   OH2 4562   0.762   0.624   3.455
 1533TIP3    H1 4563   0.697   0.641   3.388
 1533TIP3    H2 4564   0.791   0.710   3.484
 1534TIP3   OH2 4565   1.156   0.587   3.037
 1534TIP3    H1 4566   1.249   0.566   3.030
 1534TIP3    H2 4567   1.152   0.654   3.106
 1535TIP3   OH2 4568   1.126   0.721   3.274
 1535TIP3    H1 4569   1.032   0.728   3.286
 1535TIP3    H2 4570   1.158   0.678   3.353
 1536TIP3   OH2 4571   6.796   6.930   4.584
 1536TIP3    H1 4572   6.705   6.957   4.599
 1536TIP3    H2 4573   6.788   6.838   4.557
 1537TIP3   OH2 4574   1.676   1.177   4.384
 1537TIP3    H1 4575   1.672   1.195   4.290
 1537TIP3    H2 4576   1.754   1.225   4.414
 1538TIP3   OH2 4577   1.704   0.289   4.059
 1538TIP3    H1 4578   1.740   0.332   3.981
 1538TIP3    H2 4579   1.614   0.267   4.034
 1539TIP3   OH2 4580   1.195   0.365   4.421
 1539TIP3    H1 4581   1.139   0.299   4.462
 1539TIP3    H2 4582   1.155   0.449   4.446
 1540TIP3   OH2 4583   1.347   0.623   4.333
 1540TIP3    H1 4584   1.252   0.617   4.343
 1540TIP3    H2 4585   1.377   0.667   4.412
 1541TIP3   OH2 4586   1.984   0.554   4.314
 1541TIP3    H1 4587   1.889   0.545   4.315
 1541TIP3    H2 4588   2.011   0.520   4.228
 1542TIP3   OH2 4589   1.408   0.504   3.166
 1542TIP3    H1 4590   1.428   0.462   3.249
 1542TIP3    H2 4591   1.470   0.466   3.103
 1543TIP3   OH2 4592   1.453   0.218   3.977
 1543TIP3    H1 4593   1.359   0.221   3.997
 1543TIP3    H2 4594   1.479   0.128   3.994
 1544TIP3   OH2 4595   0.896   0.665   4.204
 1544TIP3    H1 4596   0.923   0.744   4.157
 1544TIP3    H2 4597   0.966   0.649   4.266
 1545TIP3   OH2 4598   0.519   0.565   3.590
 1545TIP3    H1 4599   0.449   0.554   3.525
 1545TIP3    H2 4600   0.600   0.549   3.541
 1546TIP3   OH2 4601   1.258   0.313   4.165
 1546TIP3    H1 4602   1.237   0.327   4.257
 1546TIP3    H2 4603   1.352   0.328   4.159
 1547TIP3   OH2 4604   1.492   0.860   4.222
 1547TIP3    H1 4605   1.419   0.797   4.224
 1547TIP3    H2 4606   1.470   0.919   4.149
 1548TIP3   OH2 4607   1.551   0.689   2.884
 1548TIP3    H1 4608   1.593   0.717   2.803
 1548TIP3    H2 4609   1.487   0.757   2.903
 1549TIP3   OH2 4610   1.344   0.139   3.276
 1549TIP3    H1 4611   1.339   0.045   3.293
 1549TIP3    H2 4612   1.340   0.147   3.181
 1550TIP3   OH2 4613   6.783   6.671   4.483
 1550TIP3    H1 4614   6.709   6.657   4.423
 1550TIP3    H2 4615   6.859   6.677   4.426
 1551TIP3   OH2 4616   6.510   6.708   3.846
 1551TIP3    H1 4617   6.463   6.775   3.798
 1551TIP3    H2 4618   6.583   6.754   3.886
 1552TIP3   OH2 4619   1.521   0.854   3.797
 1552TIP3    H1 4620   1.476   0.908   3.732
 1552TIP3    H2 4621   1.614   0.867   3.779
 1553TIP3   OH2 4622   0.754   0.844   4.824
 1553TIP3    H1 4623   0.837   0.872   4.864
 1553TIP3    H2 4624   0.775   0.761   4.782
 1554TIP3   OH2 4625   1.403   0.740   4.573
 1554TIP3    H1 4626   1.401   0.672   4.641
 1554TIP3    H2 4627   1.479   0.794   4.597
 1555TIP3   OH2 4628   1.501   0.377   4.354
 1555TIP3    H1 4629   1.575   0.427   4.320
 1555TIP3    H2 4630   1.431   0.442   4.362
 1556TIP3   OH2 4631   1.427   0.308   4.743
 1556TIP3    H1 4632   1.496   0.290   4.679
 1556TIP3    H2 4633   1.404   0.223   4.778
 1557TIP3   OH2 4634   6.575   6.965   4.794
 1557TIP3    H1 4635   6.592   6.908   4.869
 1557TIP3    H2 4636   6.611   7.050   4.819
 1558TIP3   OH2 4637   1.638   0.254   4.554
 1558TIP3    H1 4638   1.582   0.298   4.490
 1558TIP3    H2 4639   1.727   0.267   4.520
 1559TIP3   OH2 4640   1.790   0.903   3.782
 1559TIP3    H1 4641   1.812   0.938   3.868
 1559TIP3    H2 4642   1.848   0.949   3.721
 1560TIP3   OH2 4643   1.811   0.943   4.064
 1560TIP3    H1 4644   1.763   0.860   4.059
 1560TIP3    H2 4645   1.883   0.925   4.125
 1561TIP3   OH2 4646   1.853   0.625   4.638
 1561TIP3    H1 4647   1.780   0.634   4.700
 1561TIP3    H2 4648   1.897   0.710   4.640
 1562TIP3   OH2 4649   1.743   0.118   3.175
 1562TIP3    H1 4650   1.782   0.205   3.163
 1562TIP3    H2 4651   1.789   0.080   3.250
 1563TIP3   OH2 4652   1.852   0.006   3.402
 1563TIP3    H1 4653   1.762   0.004   3.434
 1563TIP3    H2 4654   1.903   0.041   3.475
 1564TIP3   OH2 4655   1.841   0.405   3.858
 1564TIP3    H1 4656   1.906   0.341   3.830
 1564TIP3    H2 4657   1.859   0.482   3.805
 1565TIP3   OH2 4658   1.676   0.702   4.084
 1565TIP3    H1 4659   1.606   0.746   4.131
 1565TIP3    H2 4660   1.633   0.662   4.009
 1566TIP3   OH2 4661   6.706   6.885   3.005
 1566TIP3    H1 4662   6.638   6.883   2.937
 1566TIP3    H2 4663   6.689   6.965   3.054
 1567TIP3   OH2 4664   6.517   6.781   3.539
 1567TIP3    H1 4665   6.575   6.708   3.564
 1567TIP3    H2 4666   6.561   6.859   3.574
 1568TIP3   OH2 4667   1.890   0.292   4.448
 1568TIP3    H1 4668   1.954   0.223   4.429
 1568TIP3    H2 4669   1.905   0.357   4.379
 1569TIP3   OH2 4670   2.062   0.082   4.446
 1569TIP3    H1 4671   1.989   0.041   4.491
 1569TIP3    H2 4672   2.137   0.025   4.464
 1570TIP3   OH2 4673   6.695   6.866   3.983
 1570TIP3    H1 4674   6.779   6.873   3.937
 1570TIP3    H2 4675   6.720   6.853   4.075
 1571TIP3   OH2 4676   6.769   6.908   4.248
 1571TIP3    H1 4677   6.696   6.938   4.303
 1571TIP3    H2 4678   6.801   6.987   4.205
 1572TIP3   OH2 4679   1.368   0.827   3.438
 1572TIP3    H1 4680   1.411   0.803   3.356
 1572TIP3    H2 4681   1.421   0.898   3.473
 1573TIP3   OH2 4682   1.071   0.884   4.491
 1573TIP3    H1 4683   1.110   0.881   4.579
 1573TIP3    H2 4684   1.133   0.937   4.440
 1574TIP3   OH2 4685   1.259   1.035   4.361
 1574TIP3    H1 4686   1.326   0.984   4.316
 1574TIP3    H2 4687   1.309   1.093   4.420
 1575TIP3   OH2 4688   0.564   0.911   4.241
 1575TIP3    H1 4689   0.527   0.870   4.319
 1575TIP3    H2 4690   0.489   0.922   4.182
 1576TIP3   OH2 4691   0.980   0.890   4.060
 1576TIP3    H1 4692   0.939   0.905   3.974
 1576TIP3    H2 4693   0.989   0.978   4.097
 1577TIP3   OH2 4694   1.242   0.825   4.087
 1577TIP3    H1 4695   1.148   0.841   4.079
 1577TIP3    H2 4696   1.283   0.895   4.036
 1578TIP3   OH2 4697   1.439   1.021   4.000
 1578TIP3    H1 4698   1.425   1.106   3.958
 1578TIP3    H2 4699   1.465   0.963   3.928
 1579TIP3   OH2 4700   0.711   0.700   3.997
 1579TIP3    H1 4701   0.663   0.618   3.985
 1579TIP3    H2 4702   0.771   0.681   4.070
 1580TIP3   OH2 4703   1.491   0.765   3.198
 1580TIP3    H1 4704   1.468   0.673   3.189
 1580TIP3    H2 4705   1.457   0.807   3.119
 1581TIP3   OH2 4706   1.717   0.903   4.386
 1581TIP3    H1 4707   1.641   0.873   4.336
 1581TIP3    H2 4708   1.703   0.998   4.395
 1582TIP3   OH2 4709   2.986   0.263   3.154
 1582TIP3    H1 4710   2.965   0.353   3.130
 1582TIP3    H2 4711   2.920   0.210   3.110
 1583TIP3   OH2 4712   3.000   0.293   3.537
 1583TIP3    H1 4713   3.032   0.272   3.624
 1583TIP3    H2 4714   2.937   0.224   3.517
 1584TIP3   OH2 4715   2.291   0.166   3.895
 1584TIP3    H1 4716   2.324   0.102   3.957
 1584TIP3    H2 4717   2.369   0.199   3.851
 1585TIP3   OH2 4718   3.249   0.589   3.225
 1585TIP3    H1 4719   3.238   0.527   3.297
 1585TIP3    H2 4720   3.276   0.671   3.267
 1586TIP3   OH2 4721   2.273   0.578   3.606
 1586TIP3    H1 4722   2.258   0.483   3.609
 1586TIP3    H2 4723   2.367   0.587   3.590
 1587TIP3   OH2 4724   6.907   6.741   3.363
 1587TIP3    H1 4725   6.875   6.830   3.377
 1587TIP3    H2 4726   6.833   6.694   3.326
 1588TIP3   OH2 4727   2.034   0.078   3.594
 1588TIP3    H1 4728   2.082  -0.002   3.615
 1588TIP3    H2 4729   2.101   0.136   3.556
 1589TIP3   OH2 4730   2.902   1.031   3.230
 1589TIP3    H1 4731   2.936   0.963   3.172
 1589TIP3    H2 4732   2.885   0.986   3.313
 1590TIP3   OH2 4733   2.788   0.513   3.560
 1590TIP3    H1 4734   2.826   0.447   3.502
 1590TIP3    H2 4735   2.863   0.558   3.598
 1591TIP3   OH2 4736   1.313   6.820   3.513
 1591TIP3    H1 4737   1.381   6.837   3.578
 1591TIP3    H2 4738   1.325   6.888   3.447
 1592TIP3   OH2 4739   0.739   6.988   3.594
 1592TIP3    H1 4740   0.796   6.958   3.665
 1592TIP3    H2 4741   0.745   6.919   3.528
 1593TIP3   OH2 4742   0.081   6.632   3.572
 1593TIP3    H1 4743   0.054   6.697   3.507
 1593TIP3    H2 4744   0.020   6.559   3.560
 1594TIP3   OH2 4745   0.720   6.846   3.150
 1594TIP3    H1 4746   0.779   6.805   3.213
 1594TIP3    H2 4747   0.763   6.836   3.065
 1595TIP3   OH2 4748   7.112   6.829   3.663
 1595TIP3    H1 4749   7.191   6.813   3.716
 1595TIP3    H2 4750   7.125   6.773   3.586
 1596TIP3   OH2 4751   2.607   0.047   3.491
 1596TIP3    H1 4752   2.696   0.011   3.489
 1596TIP3    H2 4753   2.551  -0.024   3.460
 1597TIP3   OH2 4754   3.886   0.082   3.658
 1597TIP3    H1 4755   3.799   0.110   3.685
 1597TIP3    H2 4756   3.939   0.086   3.738
 1598TIP3   OH2 4757   2.897   0.493   3.002
 1598TIP3    H1 4758   2.857   0.468   2.919
 1598TIP3    H2 4759   2.845   0.568   3.032
 1599TIP3   OH2 4760   2.639   0.428   3.780
 1599TIP3    H1 4761   2.581   0.495   3.816
 1599TIP3    H2 4762   2.683   0.471   3.706
 1600TIP3   OH2 4763   7.353   6.767   3.779
 1600TIP3    H1 4764   7.421   6.820   3.820
 1600TIP3    H2 4765   7.399   6.713   3.716
 1601TIP3   OH2 4766   2.476   0.626   3.885
 1601TIP3    H1 4767   2.458   0.713   3.850
 1601TIP3    H2 4768   2.398   0.605   3.937
 1602TIP3   OH2 4769   1.887   0.346   3.132
 1602TIP3    H1 4770   1.848   0.364   3.046
 1602TIP3    H2 4771   1.905   0.432   3.169
 1603TIP3   OH2 4772   3.298   0.832   3.365
 1603TIP3    H1 4773   3.212   0.823   3.406
 1603TIP3    H2 4774   3.295   0.917   3.320
 1604TIP3   OH2 4775   3.003   0.866   3.028
 1604TIP3    H1 4776   3.053   0.786   3.015
 1604TIP3    H2 4777   3.062   0.936   2.997
 1605TIP3   OH2 4778   3.140   0.636   2.974
 1605TIP3    H1 4779   3.069   0.571   2.971
 1605TIP3    H2 4780   3.189   0.614   3.053
 1606TIP3   OH2 4781   3.525   0.730   3.714
 1606TIP3    H1 4782   3.513   0.655   3.656
 1606TIP3    H2 4783   3.509   0.807   3.659
 1607TIP3   OH2 4784   2.813   0.132   2.991
 1607TIP3    H1 4785   2.735   0.180   2.964
 1607TIP3    H2 4786   2.861   0.116   2.910
 1608TIP3   OH2 4787   0.319   6.897   2.704
 1608TIP3    H1 4788   0.384   6.959   2.738
 1608TIP3    H2 4789   0.367   6.843   2.642
 1609TIP3   OH2 4790   3.720   0.388   3.577
 1609TIP3    H1 4791   3.638   0.436   3.572
 1609TIP3    H2 4792   3.757   0.394   3.489
 1610TIP3   OH2 4793   3.168   0.224   2.947
 1610TIP3    H1 4794   3.114   0.243   3.023
 1610TIP3    H2 4795   3.254   0.200   2.983
 1611TIP3   OH2 4796   3.382   0.264   3.849
 1611TIP3    H1 4797   3.394   0.349   3.892
 1611TIP3    H2 4798   3.294   0.268   3.812
 1612TIP3   OH2 4799   2.403   0.198   3.358
 1612TIP3    H1 4800   2.361   0.141   3.292
 1612TIP3    H2 4801   2.478   0.147   3.389
 1613TIP3   OH2 4802   2.530   0.622   3.494
 1613TIP3    H1 4803   2.507   0.604   3.403
 1613TIP3    H2 4804   2.618   0.587   3.505
 1614TIP3   OH2 4805   2.522   0.184   3.725
 1614TIP3    H1 4806   2.555   0.151   3.641
 1614TIP3    H2 4807   2.569   0.267   3.738
 1615TIP3   OH2 4808   3.064   0.821   3.502
 1615TIP3    H1 4809   3.047   0.902   3.550
 1615TIP3    H2 4810   3.044   0.752   3.565
 1616TIP3   OH2 4811   2.674   0.733   4.045
 1616TIP3    H1 4812   2.615   0.793   4.091
 1616TIP3    H2 4813   2.616   0.680   3.990
 1617TIP3   OH2 4814   2.992   0.094   2.778
 1617TIP3    H1 4815   3.052   0.149   2.828
 1617TIP3    H2 4816   3.024   0.100   2.688
 1618TIP3   OH2 4817   2.434   0.284   4.175
 1618TIP3    H1 4818   2.439   0.376   4.199
 1618TIP3    H2 4819   2.340   0.265   4.173
 1619TIP3   OH2 4820   2.761   0.734   3.046
 1619TIP3    H1 4821   2.839   0.790   3.046
 1619TIP3    H2 4822   2.696   0.783   2.995
 1620TIP3   OH2 4823   2.465   0.894   4.130
 1620TIP3    H1 4824   2.438   0.899   4.038
 1620TIP3    H2 4825   2.384   0.875   4.177
 1621TIP3   OH2 4826   2.274   0.043   3.157
 1621TIP3    H1 4827   2.209   0.100   3.115
 1621TIP3    H2 4828   2.229  -0.040   3.170
 1622TIP3   OH2 4829   3.337   0.685   2.376
 1622TIP3    H1 4830   3.338   0.778   2.355
 1622TIP3    H2 4831   3.425   0.655   2.353
 1623TIP3   OH2 4832   2.049   0.438   4.075
 1623TIP3    H1 4833   1.986   0.419   4.006
 1623TIP3    H2 4834   2.089   0.353   4.095
 1624TIP3   OH2 4835   1.907   0.633   3.718
 1624TIP3    H1 4836   2.002   0.645   3.714
 1624TIP3    H2 4837   1.875   0.713   3.761
 1625TIP3   OH2 4838   3.761   1.091   3.774
 1625TIP3    H1 4839   3.766   0.996   3.785
 1625TIP3    H2 4840   3.681   1.116   3.819
 1626TIP3   OH2 4841   2.866   0.866   3.901
 1626TIP3    H1 4842   2.862   0.957   3.929
 1626TIP3    H2 4843   2.797   0.823   3.952
 1627TIP3   OH2 4844   2.645   0.985   2.855
 1627TIP3    H1 4845   2.596   0.966   2.775
 1627TIP3    H2 4846   2.609   1.069   2.886
 1628TIP3   OH2 4847   2.079   0.837   3.238
 1628TIP3    H1 4848   2.123   0.828   3.323
 1628TIP3    H2 4849   2.030   0.756   3.228
 1629TIP3   OH2 4850   2.849   0.902   2.492
 1629TIP3    H1 4851   2.900   0.830   2.457
 1629TIP3    H2 4852   2.879   0.912   2.582
 1630TIP3   OH2 4853   2.898   0.947   2.761
 1630TIP3    H1 4854   2.811   0.955   2.799
 1630TIP3    H2 4855   2.953   0.914   2.831
 1631TIP3   OH2 4856   3.646   0.249   4.079
 1631TIP3    H1 4857   3.562   0.293   4.067
 1631TIP3    H2 4858   3.623   0.159   4.103
 1632TIP3   OH2 4859   2.257   0.621   4.054
 1632TIP3    H1 4860   2.306   0.608   4.135
 1632TIP3    H2 4861   2.184   0.560   4.059
 1633TIP3   OH2 4862   0.879   6.947   3.825
 1633TIP3    H1 4863   0.934   6.882   3.868
 1633TIP3    H2 4864   0.929   7.029   3.833
 1634TIP3   OH2 4865   3.098   0.084   2.528
 1634TIP3    H1 4866   3.050   0.072   2.446
 1634TIP3    H2 4867   3.178   0.129   2.503
 1635TIP3   OH2 4868   0.141   6.947   3.883
 1635TIP3    H1 4869   0.084   6.954   3.959
 1635TIP3    H2 4870   0.117   7.021   3.828
 1636TIP3   OH2 4871   7.396   6.816   3.384
 1636TIP3    H1 4872   7.308   6.781   3.397
 1636TIP3    H2 4873   7.420   6.791   3.295
 1637TIP3   OH2 4874   3.110   0.214   4.180
 1637TIP3    H1 4875   3.084   0.162   4.256
 1637TIP3    H2 4876   3.206   0.216   4.183
 1638TIP3   OH2 4877   3.051   0.008   3.337
 1638TIP3    H1 4878   3.036   0.093   3.294
 1638TIP3    H2 4879   3.093  -0.045   3.270
 1639TIP3   OH2 4880   7.351   6.978   4.079
 1639TIP3    H1 4881   7.352   7.047   4.146
 1639TIP3    H2 4882   7.325   6.899   4.126
 1640TIP3   OH2 4883   0.041   6.470   2.883
 1640TIP3    H1 4884  -0.002   6.393   2.920
 1640TIP3    H2 4885  -0.024   6.540   2.892
 1641TIP3   OH2 4886   3.115   0.201   3.772
 1641TIP3    H1 4887   3.148   0.137   3.709
 1641TIP3    H2 4888   3.086   0.148   3.847
 1642TIP3   OH2 4889   7.162   6.675   3.432
 1642TIP3    H1 4890   7.074   6.698   3.401
 1642TIP3    H2 4891   7.164   6.579   3.430
 1643TIP3   OH2 4892   0.063   6.724   3.134
 1643TIP3    H1 4893   0.141   6.711   3.079
 1643TIP3    H2 4894  -0.010   6.718   3.072
 1644TIP3   OH2 4895   7.285   6.714   2.919
 1644TIP3    H1 4896   7.197   6.751   2.917
 1644TIP3    H2 4897   7.333   6.763   2.852
 1645TIP3   OH2 4898   3.470   1.432   3.870
 1645TIP3    H1 4899   3.464   1.453   3.777
 1645TIP3    H2 4900   3.548   1.478   3.900
 1646TIP3   OH2 4901   2.417   0.541   4.286
 1646TIP3    H1 4902   2.497   0.565   4.333
 1646TIP3    H2 4903   2.348   0.546   4.352
 1647TIP3   OH2 4904   0.418   6.867   3.526
 1647TIP3    H1 4905   0.476   6.935   3.490
 1647TIP3    H2 4906   0.409   6.890   3.618
 1648TIP3   OH2 4907   0.404   6.915   3.791
 1648TIP3    H1 4908   0.315   6.917   3.827
 1648TIP3    H2 4909   0.459   6.950   3.861
 1649TIP3   OH2 4910   2.584   0.282   2.928
 1649TIP3    H1 4911   2.515   0.218   2.910
 1649TIP3    H2 4912   2.564   0.316   3.015
 1650TIP3   OH2 4913   3.481   0.522   3.538
 1650TIP3    H1 4914   3.515   0.573   3.465
 1650TIP3    H2 4915   3.398   0.487   3.507
 1651TIP3   OH2 4916   0.528   6.617   2.731
 1651TIP3    H1 4917   0.461   6.572   2.782
 1651TIP3    H2 4918   0.556   6.689   2.787
 1652TIP3   OH2 4919   2.987   0.599   3.940
 1652TIP3    H1 4920   3.034   0.594   4.023
 1652TIP3    H2 4921   2.947   0.686   3.940
 1653TIP3   OH2 4922   0.645   6.833   2.849
 1653TIP3    H1 4923   0.731   6.863   2.879
 1653TIP3    H2 4924   0.594   6.913   2.835
 1654TIP3   OH2 4925   2.281   0.293   3.588
 1654TIP3    H1 4926   2.318   0.271   3.503
 1654TIP3    H2 4927   2.336   0.245   3.651
 1655TIP3   OH2 4928   2.741   0.439   2.770
 1655TIP3    H1 4929   2.695   0.523   2.770
 1655TIP3    H2 4930   2.684   0.381   2.822
 1656TIP3   OH2 4931   2.169   0.215   4.214
 1656TIP3    H1 4932   2.169   0.194   4.308
 1656TIP3    H2 4933   2.091   0.171   4.180
 1657TIP3   OH2 4934   2.881   0.356   4.235
 1657TIP3    H1 4935   2.814   0.296   4.202
 1657TIP3    H2 4936   2.963   0.323   4.197
 1658TIP3   OH2 4937   3.139   0.871   3.829
 1658TIP3    H1 4938   3.044   0.866   3.835
 1658TIP3    H2 4939   3.165   0.919   3.907
 1659TIP3   OH2 4940   1.037   6.948   2.734
 1659TIP3    H1 4941   0.985   6.900   2.669
 1659TIP3    H2 4942   1.052   7.034   2.694
 1660TIP3   OH2 4943   3.773   0.808   3.800
 1660TIP3    H1 4944   3.678   0.797   3.794
 1660TIP3    H2 4945   3.806   0.777   3.715
 1661TIP3   OH2 4946   3.266   0.751   2.649
 1661TIP3    H1 4947   3.233   0.688   2.714
 1661TIP3    H2 4948   3.275   0.700   2.569
 1662TIP3   OH2 4949   3.243   0.402   3.441
 1662TIP3    H1 4950   3.154   0.378   3.467
 1662TIP3    H2 4951   3.276   0.326   3.394
 1663TIP3   OH2 4952   2.389   0.618   3.242
 1663TIP3    H1 4953   2.389   0.696   3.186
 1663TIP3    H2 4954   2.297   0.599   3.258
 1664TIP3   OH2 4955   6.986   6.874   2.971
 1664TIP3    H1 4956   6.996   6.970   2.975
 1664TIP3    H2 4957   6.891   6.860   2.975
 1665TIP3   OH2 4958   2.502   0.377   3.167
 1665TIP3    H1 4959   2.474   0.466   3.188
 1665TIP3    H2 4960   2.467   0.323   3.238
 1666TIP3   OH2 4961   2.673   0.947   3.698
 1666TIP3    H1 4962   2.708   1.020   3.647
 1666TIP3    H2 4963   2.749   0.912   3.745
 1667TIP3   OH2 4964   2.312   0.847   3.091
 1667TIP3    H1 4965   2.224   0.854   3.130
 1667TIP3    H2 4966   2.346   0.936   3.093
 1668TIP3   OH2 4967   3.032   0.595   3.668
 1668TIP3    H1 4968   3.022   0.591   3.763
 1668TIP3    H2 4969   3.117   0.554   3.651
 1669TIP3   OH2 4970   3.020   0.488   2.540
 1669TIP3    H1 4971   3.072   0.459   2.615
 1669TIP3    H2 4972   2.934   0.449   2.554
 1670TIP3   OH2 4973   3.285   1.112   3.707
 1670TIP3    H1 4974   3.209   1.054   3.711
 1670TIP3    H2 4975   3.267   1.172   3.635
 1671TIP3   OH2 4976   3.358   0.966   2.328
 1671TIP3    H1 4977   3.407   1.049   2.323
 1671TIP3    H2 4978   3.275   0.990   2.369
 1672TIP3   OH2 4979   7.282   6.746   4.207
 1672TIP3    H1 4980   7.207   6.701   4.167
 1672TIP3    H2 4981   7.324   6.678   4.260
 1673TIP3   OH2 4982   3.192   0.401   2.733
 1673TIP3    H1 4983   3.177   0.349   2.811
 1673TIP3    H2 4984   3.287   0.411   2.728
 1674TIP3   OH2 4985   2.102   0.827   3.856
 1674TIP3    H1 4986   2.154   0.762   3.903
 1674TIP3    H2 4987   2.121   0.910   3.901
 1675TIP3   OH2 4988   2.378   0.464   2.552
 1675TIP3    H1 4989   2.405   0.375   2.528
 1675TIP3    H2 4990   2.362   0.460   2.646
 1676TIP3   OH2 4991   2.331   0.471   2.824
 1676TIP3    H1 4992   2.402   0.440   2.881
 1676TIP3    H2 4993   2.331   0.566   2.834
 1677TIP3   OH2 4994   2.073   0.173   3.023
 1677TIP3    H1 4995   2.009   0.219   3.077
 1677TIP3    H2 4996   2.085   0.230   2.946
 1678TIP3   OH2 4997   2.598   0.669   2.770
 1678TIP3    H1 4998   2.510   0.689   2.803
 1678TIP3    H2 4999   2.617   0.740   2.709
 1679TIP3   OH2 5000   3.055   0.028   3.980
 1679TIP3    H1 5001   3.062   0.092   4.051
 1679TIP3    H2 5002   3.102  -0.049   4.012
 1680TIP3   OH2 5003   2.342   0.741   2.839
 1680TIP3    H1 5004   2.315   0.806   2.775
 1680TIP3    H2 5005   2.326   0.783   2.924
 1681TIP3   OH2 5006   1.138   6.953   4.133
 1681TIP3    H1 5007   1.053   6.910   4.130
 1681TIP3    H2 5008   1.181   6.927   4.052
 1682TIP3   OH2 5009   3.316   0.150   3.345
 1682TIP3    H1 5010   3.249   0.109   3.398
 1682TIP3    H2 5011   3.399   0.127   3.388
 1683TIP3   OH2 5012   2.074   0.363   2.814
 1683TIP3    H1 5013   2.149   0.421   2.828
 1683TIP3    H2 5014   2.107   0.295   2.755
 1684TIP3   OH2 5015   3.315   1.099   3.285
 1684TIP3    H1 5016   3.272   1.147   3.214
 1684TIP3    H2 5017   3.409   1.113   3.269
 1685TIP3   OH2 5018   1.921   0.607   3.225
 1685TIP3    H1 5019   1.874   0.640   3.301
 1685TIP3    H2 5020   1.875   0.645   3.150
 1686TIP3   OH2 5021   2.096   1.137   4.282
 1686TIP3    H1 5022   2.180   1.140   4.326
 1686TIP3    H2 5023   2.075   1.044   4.273
 1687TIP3   OH2 5024   2.565   1.070   4.316
 1687TIP3    H1 5025   2.657   1.047   4.328
 1687TIP3    H2 5026   2.534   1.011   4.248
 1688TIP3   OH2 5027   2.547   0.657   2.449
 1688TIP3    H1 5028   2.496   0.587   2.490
 1688TIP3    H2 5029   2.620   0.611   2.406
 1689TIP3   OH2 5030   3.195   0.996   4.067
 1689TIP3    H1 5031   3.202   0.926   4.133
 1689TIP3    H2 5032   3.270   1.053   4.084
 1690TIP3   OH2 5033   2.987   0.699   2.369
 1690TIP3    H1 5034   3.013   0.631   2.431
 1690TIP3    H2 5035   3.046   0.689   2.295
 1691TIP3   OH2 5036   2.210   0.534   4.473
 1691TIP3    H1 5037   2.227   0.440   4.482
 1691TIP3    H2 5038   2.125   0.539   4.430
 1692TIP3   OH2 5039   2.230   0.178   2.694
 1692TIP3    H1 5040   2.282   0.148   2.768
 1692TIP3    H2 5041   2.291   0.182   2.621
 1693TIP3   OH2 5042   2.825   0.628   4.250
 1693TIP3    H1 5043   2.780   0.649   4.168
 1693TIP3    H2 5044   2.855   0.538   4.239
 1694TIP3   OH2 5045   2.754   0.380   2.503
 1694TIP3    H1 5046   2.736   0.394   2.596
 1694TIP3    H2 5047   2.752   0.285   2.492
 1695TIP3   OH2 5048   3.306   0.645   3.862
 1695TIP3    H1 5049   3.383   0.679   3.816
 1695TIP3    H2 5050   3.240   0.713   3.850
 1696TIP3   OH2 5051   2.332   0.278   4.473
 1696TIP3    H1 5052   2.410   0.264   4.420
 1696TIP3    H2 5053   2.367   0.302   4.559
 1697TIP3   OH2 5054   2.395   0.088   2.898
 1697TIP3    H1 5055   2.367   0.056   2.984
 1697TIP3    H2 5056   2.436   0.013   2.856
 1698TIP3   OH2 5057   2.688   0.179   4.130
 1698TIP3    H1 5058   2.601   0.219   4.132
 1698TIP3    H2 5059   2.724   0.203   4.044
 1699TIP3   OH2 5060   0.045   6.865   2.747
 1699TIP3    H1 5061   0.017   6.863   2.656
 1699TIP3    H2 5062   0.140   6.872   2.743
 1700TIP3   OH2 5063   3.183   0.547   4.237
 1700TIP3    H1 5064   3.262   0.508   4.199
 1700TIP3    H2 5065   3.170   0.499   4.319
 1701TIP3   OH2 5066   3.312   0.201   2.394
 1701TIP3    H1 5067   3.298   0.159   2.309
 1701TIP3    H2 5068   3.282   0.291   2.382
 1702TIP3   OH2 5069   0.288   6.922   4.247
 1702TIP3    H1 5070   0.279   6.848   4.188
 1702TIP3    H2 5071   0.261   6.998   4.194
 1703TIP3   OH2 5072   2.822   0.270   3.911
 1703TIP3    H1 5073   2.909   0.304   3.888
 1703TIP3    H2 5074   2.761   0.330   3.867
 1704TIP3   OH2 5075   3.396   0.281   4.321
 1704TIP3    H1 5076   3.428   0.217   4.384
 1704TIP3    H2 5077   3.409   0.239   4.235
 1705TIP3   OH2 5078   3.443   0.478   4.029
 1705TIP3    H1 5079   3.382   0.538   3.987
 1705TIP3    H2 5080   3.529   0.506   3.997
 1706TIP3   OH2 5081   2.667   0.057   4.489
 1706TIP3    H1 5082   2.582   0.014   4.502
 1706TIP3    H2 5083   2.693   0.032   4.400
 1707TIP3   OH2 5084   2.994   0.035   4.353
 1707TIP3    H1 5085   2.970   0.015   4.444
 1707TIP3    H2 5086   2.919   0.004   4.302
 1708TIP3   OH2 5087   0.888   6.839   4.150
 1708TIP3    H1 5088   0.850   6.867   4.233
 1708TIP3    H2 5089   0.943   6.764   4.172
 1709TIP3   OH2 5090   0.031   6.812   4.541
 1709TIP3    H1 5091   0.101   6.749   4.524
 1709TIP3    H2 5092   0.045   6.840   4.631
 1710TIP3   OH2 5093   2.315   0.920   2.632
 1710TIP3    H1 5094   2.409   0.919   2.614
 1710TIP3    H2 5095   2.279   0.978   2.564
 1711TIP3   OH2 5096   1.807   0.324   2.862
 1711TIP3    H1 5097   1.897   0.350   2.843
 1711TIP3    H2 5098   1.787   0.257   2.797
 1712TIP3   OH2 5099   1.704   0.919   3.287
 1712TIP3    H1 5100   1.642   0.864   3.239
 1712TIP3    H2 5101   1.750   0.858   3.345
 1713TIP3   OH2 5102   1.843   0.755   3.462
 1713TIP3    H1 5103   1.830   0.688   3.530
 1713TIP3    H2 5104   1.895   0.823   3.504
 1714TIP3   OH2 5105   3.584   1.158   3.270
 1714TIP3    H1 5106   3.602   1.191   3.358
 1714TIP3    H2 5107   3.635   1.216   3.212
 1715TIP3   OH2 5108   3.598   1.192   3.551
 1715TIP3    H1 5109   3.552   1.109   3.546
 1715TIP3    H2 5110   3.670   1.176   3.612
 1716TIP3   OH2 5111   3.647   0.885   4.121
 1716TIP3    H1 5112   3.576   0.893   4.185
 1716TIP3    H2 5113   3.692   0.970   4.126
 1717TIP3   OH2 5114   3.469   0.410   2.729
 1717TIP3    H1 5115   3.532   0.476   2.702
 1717TIP3    H2 5116   3.506   0.374   2.810
 1718TIP3   OH2 5117   3.579   0.286   2.946
 1718TIP3    H1 5118   3.518   0.241   3.005
 1718TIP3    H2 5119   3.648   0.319   3.003
 1719TIP3   OH2 5120   3.646   0.663   3.368
 1719TIP3    H1 5121   3.699   0.594   3.328
 1719TIP3    H2 5122   3.647   0.734   3.303
 1720TIP3   OH2 5123   3.461   0.949   3.560
 1720TIP3    H1 5124   3.392   0.992   3.610
 1720TIP3    H2 5125   3.416   0.907   3.488
 1721TIP3   OH2 5126   3.516   0.191   2.574
 1721TIP3    H1 5127   3.445   0.185   2.510
 1721TIP3    H2 5128   3.494   0.268   2.627
 1722TIP3   OH2 5129   0.912   6.833   2.529
 1722TIP3    H1 5130   0.851   6.858   2.460
 1722TIP3    H2 5131   0.924   6.739   2.517
 1723TIP3   OH2 5132   3.393   0.130   3.080
 1723TIP3    H1 5133   3.388   0.037   3.060
 1723TIP3    H2 5134   3.365   0.137   3.171
 1724TIP3   OH2 5135   2.027   0.211   3.835
 1724TIP3    H1 5136   2.015   0.162   3.753
 1724TIP3    H2 5137   2.120   0.202   3.854
 1725TIP3   OH2 5138   3.686   0.549   3.927
 1725TIP3    H1 5139   3.751   0.481   3.909
 1725TIP3    H2 5140   3.705   0.618   3.863
 1726TIP3   OH2 5141   3.852   0.336   3.919
 1726TIP3    H1 5142   3.785   0.301   3.977
 1726TIP3    H2 5143   3.913   0.264   3.905
 1727TIP3   OH2 5144   0.905   6.852   2.948
 1727TIP3    H1 5145   0.968   6.786   2.976
 1727TIP3    H2 5146   0.947   6.895   2.873
 1728TIP3   OH2 5147   3.547   0.081   3.469
 1728TIP3    H1 5148   3.628   0.081   3.418
 1728TIP3    H2 5149   3.572   0.120   3.553
 1729TIP3   OH2 5150   3.616   0.178   3.717
 1729TIP3    H1 5151   3.542   0.213   3.765
 1729TIP3    H2 5152   3.659   0.255   3.679
 1730TIP3   OH2 5153   7.163   6.849   4.499
 1730TIP3    H1 5154   7.258   6.841   4.495
 1730TIP3    H2 5155   7.135   6.781   4.560
 1731TIP3   OH2 5156   6.961   6.890   3.905
 1731TIP3    H1 5157   6.978   6.853   3.818
 1731TIP3    H2 5158   7.048   6.904   3.942
 1732TIP3   OH2 5159   3.154   1.055   2.913
 1732TIP3    H1 5160   3.210   1.051   2.835
 1732TIP3    H2 5161   3.191   1.128   2.964
 1733TIP3   OH2 5162   2.244   0.859   4.299
 1733TIP3    H1 5163   2.151   0.842   4.286
 1733TIP3    H2 5164   2.259   0.841   4.391
 1734TIP3   OH2 5165   2.445   0.900   3.846
 1734TIP3    H1 5166   2.391   0.971   3.812
 1734TIP3    H2 5167   2.530   0.911   3.803
 1735TIP3   OH2 5168   2.862   1.132   3.981
 1735TIP3    H1 5169   2.901   1.126   4.069
 1735TIP3    H2 5170   2.924   1.185   3.931
 1736TIP3   OH2 5171   3.046   1.291   3.853
 1736TIP3    H1 5172   3.110   1.241   3.801
 1736TIP3    H2 5173   3.100   1.347   3.909
 1737TIP3   OH2 5174   2.106   1.145   3.889
 1737TIP3    H1 5175   2.017   1.169   3.864
 1737TIP3    H2 5176   2.130   1.208   3.956
 1738TIP3   OH2 5177   2.336   1.127   3.736
 1738TIP3    H1 5178   2.253   1.137   3.783
 1738TIP3    H2 5179   2.319   1.160   3.648
 1739TIP3   OH2 5180   2.761   1.151   3.530
 1739TIP3    H1 5181   2.690   1.164   3.467
 1739TIP3    H2 5182   2.774   1.238   3.569
 1740TIP3   OH2 5183   3.026   1.087   3.583
 1740TIP3    H1 5184   2.934   1.105   3.563
 1740TIP3    H2 5185   3.075   1.153   3.534
 1741TIP3   OH2 5186   3.228   1.267   3.485
 1741TIP3    H1 5187   3.221   1.354   3.445
 1741TIP3    H2 5188   3.257   1.210   3.414
 1742TIP3   OH2 5189   2.018   0.930   3.611
 1742TIP3    H1 5190   2.044   0.904   3.699
 1742TIP3    H2 5191   2.088   0.898   3.555
 1743TIP3   OH2 5192   2.220   0.813   3.474
 1743TIP3    H1 5193   2.232   0.730   3.520
 1743TIP3    H2 5194   2.306   0.853   3.474
 1744TIP3   OH2 5195   2.487   0.900   3.491
 1744TIP3    H1 5196   2.506   0.807   3.478
 1744TIP3    H2 5197   2.539   0.925   3.567
 1745TIP3   OH2 5198   1.790   0.723   3.021
 1745TIP3    H1 5199   1.706   0.690   2.988
 1745TIP3    H2 5200   1.801   0.807   2.978
 1746TIP3   OH2 5201   2.587   0.886   2.588
 1746TIP3    H1 5202   2.670   0.917   2.551
 1746TIP3    H2 5203   2.562   0.813   2.532
 1747TIP3   OH2 5204   3.301   1.020   2.677
 1747TIP3    H1 5205   3.292   0.925   2.673
 1747TIP3    H2 5206   3.251   1.052   2.602
 1748TIP3   OH2 5207   3.510   1.158   3.871
 1748TIP3    H1 5208   3.435   1.128   3.821
 1748TIP3    H2 5209   3.497   1.253   3.879
 1749TIP3   OH2 5210   4.782   0.544   2.618
 1749TIP3    H1 5211   4.751   0.631   2.594
 1749TIP3    H2 5212   4.707   0.487   2.605
 1750TIP3   OH2 5213   4.784   0.548   3.033
 1750TIP3    H1 5214   4.828   0.540   3.118
 1750TIP3    H2 5215   4.746   0.461   3.017
 1751TIP3   OH2 5216   4.080   0.442   3.378
 1751TIP3    H1 5217   4.109   0.385   3.449
 1751TIP3    H2 5218   4.159   0.462   3.328
 1752TIP3   OH2 5219   5.043   0.844   2.712
 1752TIP3    H1 5220   5.031   0.781   2.782
 1752TIP3    H2 5221   5.070   0.924   2.756
 1753TIP3   OH2 5222   4.071   0.833   3.086
 1753TIP3    H1 5223   4.053   0.739   3.088
 1753TIP3    H2 5224   4.166   0.839   3.077
 1754TIP3   OH2 5225   3.730   0.070   2.867
 1754TIP3    H1 5226   3.689   0.153   2.891
 1754TIP3    H2 5227   3.658   0.012   2.846
 1755TIP3   OH2 5228   3.818   0.353   3.069
 1755TIP3    H1 5229   3.863   0.272   3.090
 1755TIP3    H2 5230   3.887   0.411   3.036
 1756TIP3   OH2 5231   4.698   1.283   2.718
 1756TIP3    H1 5232   4.733   1.216   2.660
 1756TIP3    H2 5233   4.690   1.240   2.803
 1757TIP3   OH2 5234   4.589   0.763   3.049
 1757TIP3    H1 5235   4.629   0.682   3.018
 1757TIP3    H2 5236   4.663   0.817   3.077
 1758TIP3   OH2 5237   5.585   0.123   3.024
 1758TIP3    H1 5238   5.624   0.166   3.100
 1758TIP3    H2 5239   5.598   0.184   2.952
 1759TIP3   OH2 5240   5.020   0.288   3.083
 1759TIP3    H1 5241   5.028   0.206   3.131
 1759TIP3    H2 5242   4.960   0.268   3.011
 1760TIP3   OH2 5243   1.901   6.904   3.024
 1760TIP3    H1 5244   1.851   6.968   2.974
 1760TIP3    H2 5245   1.835   6.850   3.067
 1761TIP3   OH2 5246   4.997   0.091   2.622
 1761TIP3    H1 5247   5.044   0.051   2.696
 1761TIP3    H2 5248   5.061   0.096   2.552
 1762TIP3   OH2 5249   3.959   0.129   3.137
 1762TIP3    H1 5250   4.048   0.133   3.174
 1762TIP3    H2 5251   3.973   0.098   3.048
 1763TIP3   OH2 5252   4.401   0.322   2.981
 1763TIP3    H1 5253   4.494   0.299   2.976
 1763TIP3    H2 5254   4.355   0.243   2.955
 1764TIP3   OH2 5255   5.682   0.372   3.144
 1764TIP3    H1 5256   5.593   0.373   3.177
 1764TIP3    H2 5257   5.737   0.371   3.222
 1765TIP3   OH2 5258   4.682   0.764   2.480
 1765TIP3    H1 5259   4.641   0.738   2.397
 1765TIP3    H2 5260   4.630   0.839   2.510
 1766TIP3   OH2 5261   4.441   0.688   3.270
 1766TIP3    H1 5262   4.382   0.756   3.304
 1766TIP3    H2 5263   4.486   0.730   3.197
 1767TIP3   OH2 5264   4.206   0.103   3.241
 1767TIP3    H1 5265   4.279   0.147   3.283
 1767TIP3    H2 5266   4.233   0.011   3.235
 1768TIP3   OH2 5267   4.272   0.884   3.370
 1768TIP3    H1 5268   4.254   0.973   3.337
 1768TIP3    H2 5269   4.195   0.862   3.422
 1769TIP3   OH2 5270   3.652   0.589   2.617
 1769TIP3    H1 5271   3.607   0.615   2.536
 1769TIP3    H2 5272   3.678   0.672   2.657
 1770TIP3   OH2 5273   5.093   1.088   2.852
 1770TIP3    H1 5274   5.006   1.081   2.892
 1770TIP3    H2 5275   5.091   1.173   2.808
 1771TIP3   OH2 5276   4.800   1.120   2.515
 1771TIP3    H1 5277   4.852   1.041   2.502
 1771TIP3    H2 5278   4.857   1.191   2.484
 1772TIP3   OH2 5279   4.934   0.886   2.461
 1772TIP3    H1 5280   4.856   0.830   2.466
 1772TIP3    H2 5281   4.983   0.865   2.541
 1773TIP3   OH2 5282   5.323   0.986   3.200
 1773TIP3    H1 5283   5.308   0.911   3.143
 1773TIP3    H2 5284   5.307   1.062   3.144
 1774TIP3   OH2 5285   4.617   0.381   2.438
 1774TIP3    H1 5286   4.533   0.427   2.436
 1774TIP3    H2 5287   4.666   0.417   2.364
 1775TIP3   OH2 5288   4.575   0.198   2.190
 1775TIP3    H1 5289   4.615   0.238   2.267
 1775TIP3    H2 5290   4.649   0.166   2.139
 1776TIP3   OH2 5291   5.513   0.652   3.063
 1776TIP3    H1 5292   5.429   0.697   3.057
 1776TIP3    H2 5293   5.549   0.657   2.974
 1777TIP3   OH2 5294   4.971   0.471   2.439
 1777TIP3    H1 5295   4.915   0.499   2.512
 1777TIP3    H2 5296   5.056   0.453   2.481
 1778TIP3   OH2 5297   5.185   0.527   3.338
 1778TIP3    H1 5298   5.190   0.611   3.383
 1778TIP3    H2 5299   5.096   0.525   3.302
 1779TIP3   OH2 5300   4.203   0.461   2.840
 1779TIP3    H1 5301   4.162   0.402   2.777
 1779TIP3    H2 5302   4.274   0.410   2.879
 1780TIP3   OH2 5303   4.333   0.877   2.981
 1780TIP3    H1 5304   4.312   0.855   2.890
 1780TIP3    H2 5305   4.420   0.839   2.995
 1781TIP3   OH2 5306   4.300   0.464   3.198
 1781TIP3    H1 5307   4.340   0.422   3.122
 1781TIP3    H2 5308   4.356   0.540   3.215
 1782TIP3   OH2 5309   4.856   1.082   2.985
 1782TIP3    H1 5310   4.842   1.161   3.037
 1782TIP3    H2 5311   4.842   1.010   3.045
 1783TIP3   OH2 5312   4.469   0.990   3.531
 1783TIP3    H1 5313   4.410   1.049   3.577
 1783TIP3    H2 5314   4.413   0.937   3.476
 1784TIP3   OH2 5315   4.817   0.377   2.238
 1784TIP3    H1 5316   4.868   0.423   2.305
 1784TIP3    H2 5317   4.865   0.393   2.157
 1785TIP3   OH2 5318   4.233   0.554   3.655
 1785TIP3    H1 5319   4.235   0.644   3.689
 1785TIP3    H2 5320   4.140   0.532   3.651
 1786TIP3   OH2 5321   4.550   1.005   2.525
 1786TIP3    H1 5322   4.633   1.053   2.530
 1786TIP3    H2 5323   4.490   1.064   2.481
 1787TIP3   OH2 5324   4.261   1.151   3.616
 1787TIP3    H1 5325   4.235   1.157   3.524
 1787TIP3    H2 5326   4.180   1.132   3.663
 1788TIP3   OH2 5327   4.073   0.309   2.646
 1788TIP3    H1 5328   3.994   0.348   2.609
 1788TIP3    H2 5329   4.056   0.215   2.643
 1789TIP3   OH2 5330   5.122   0.916   1.868
 1789TIP3    H1 5331   5.116   1.010   1.850
 1789TIP3    H2 5332   5.214   0.894   1.851
 1790TIP3   OH2 5333   3.849   0.700   3.563
 1790TIP3    H1 5334   3.782   0.681   3.498
 1790TIP3    H2 5335   3.888   0.614   3.582
 1791TIP3   OH2 5336   3.697   0.892   3.206
 1791TIP3    H1 5337   3.792   0.902   3.212
 1791TIP3    H2 5338   3.662   0.971   3.246
 1792TIP3   OH2 5339   5.554   1.346   3.263
 1792TIP3    H1 5340   5.561   1.251   3.272
 1792TIP3    H2 5341   5.472   1.369   3.307
 1793TIP3   OH2 5342   4.662   1.125   3.389
 1793TIP3    H1 5343   4.657   1.216   3.417
 1793TIP3    H2 5344   4.593   1.080   3.439
 1794TIP3   OH2 5345   4.438   1.235   2.346
 1794TIP3    H1 5346   4.392   1.217   2.264
 1794TIP3    H2 5347   4.405   1.320   2.374
 1795TIP3   OH2 5348   3.873   1.086   2.726
 1795TIP3    H1 5349   3.919   1.080   2.810
 1795TIP3    H2 5350   3.824   1.004   2.720
 1796TIP3   OH2 5351   4.636   1.152   1.975
 1796TIP3    H1 5352   4.690   1.081   1.939
 1796TIP3    H2 5353   4.672   1.167   2.063
 1797TIP3   OH2 5354   4.692   1.204   2.243
 1797TIP3    H1 5355   4.607   1.208   2.287
 1797TIP3    H2 5356   4.752   1.174   2.311
 1798TIP3   OH2 5357   5.441   0.524   3.565
 1798TIP3    H1 5358   5.358   0.570   3.552
 1798TIP3    H2 5359   5.417   0.432   3.570
 1799TIP3   OH2 5360   4.054   0.882   3.539
 1799TIP3    H1 5361   4.103   0.870   3.620
 1799TIP3    H2 5362   3.982   0.820   3.545
 1800TIP3   OH2 5363   5.125   0.231   3.361
 1800TIP3    H1 5364   5.178   0.154   3.381
 1800TIP3    H2 5365   5.184   0.290   3.314
 1801TIP3   OH2 5366   4.957   0.390   1.950
 1801TIP3    H1 5367   4.862   0.382   1.956
 1801TIP3    H2 5368   4.974   0.484   1.954
 1802TIP3   OH2 5369   4.374   0.271   3.377
 1802TIP3    H1 5370   4.308   0.277   3.447
 1802TIP3    H2 5371   4.351   0.341   3.316
 1803TIP3   OH2 5372   4.245   0.122   2.878
 1803TIP3    H1 5373   4.154   0.094   2.876
 1803TIP3    H2 5374   4.273   0.116   2.786
 1804TIP3   OH2 5375   4.729   0.200   2.615
 1804TIP3    H1 5376   4.693   0.261   2.551
 1804TIP3    H2 5377   4.811   0.170   2.575
 1805TIP3   OH2 5378   4.923   0.507   3.656
 1805TIP3    H1 5379   4.899   0.463   3.738
 1805TIP3    H2 5380   5.016   0.488   3.645
 1806TIP3   OH2 5381   4.895   0.224   2.845
 1806TIP3    H1 5382   4.814   0.243   2.799
 1806TIP3    H2 5383   4.947   0.174   2.782
 1807TIP3   OH2 5384   4.185   0.271   3.571
 1807TIP3    H1 5385   4.205   0.319   3.651
 1807TIP3    H2 5386   4.178   0.179   3.599
 1808TIP3   OH2 5387   1.844   6.766   2.305
 1808TIP3    H1 5388   1.806   6.788   2.390
 1808TIP3    H2 5389   1.775   6.718   2.260
 1809TIP3   OH2 5390   1.251   6.781   2.699
 1809TIP3    H1 5391   1.292   6.851   2.650
 1809TIP3    H2 5392   1.172   6.820   2.736
 1810TIP3   OH2 5393   4.924   0.473   3.258
 1810TIP3    H1 5394   4.960   0.410   3.195
 1810TIP3    H2 5395   4.891   0.418   3.329
 1811TIP3   OH2 5396   4.592   0.064   2.934
 1811TIP3    H1 5397   4.513   0.024   2.971
 1811TIP3    H2 5398   4.651  -0.010   2.918
 1812TIP3   OH2 5399   1.526   6.991   2.884
 1812TIP3    H1 5400   1.433   7.012   2.870
 1812TIP3    H2 5401   1.530   6.896   2.880
 1813TIP3   OH2 5402   4.321   0.085   2.622
 1813TIP3    H1 5403   4.404   0.040   2.609
 1813TIP3    H2 5404   4.263   0.047   2.556
 1814TIP3   OH2 5405   4.134   0.052   2.411
 1814TIP3    H1 5406   4.059   0.027   2.356
 1814TIP3    H2 5407   4.203   0.075   2.348
 1815TIP3   OH2 5408   5.259   1.687   3.350
 1815TIP3    H1 5409   5.250   1.702   3.256
 1815TIP3    H2 5410   5.335   1.738   3.375
 1816TIP3   OH2 5411   4.211   0.807   3.773
 1816TIP3    H1 5412   4.292   0.824   3.822
 1816TIP3    H2 5413   4.142   0.810   3.840
 1817TIP3   OH2 5414   4.689   0.285   3.059
 1817TIP3    H1 5415   4.680   0.213   2.997
 1817TIP3    H2 5416   4.667   0.247   3.144
 1818TIP3   OH2 5417   4.626   0.183   3.380
 1818TIP3    H1 5418   4.536   0.216   3.380
 1818TIP3    H2 5419   4.677   0.255   3.419
 1819TIP3   OH2 5420   4.381   0.530   2.412
 1819TIP3    H1 5421   4.308   0.470   2.394
 1819TIP3    H2 5422   4.360   0.568   2.497
 1820TIP3   OH2 5423   5.271   0.781   3.024
 1820TIP3    H1 5424   5.304   0.830   2.949
 1820TIP3    H2 5425   5.189   0.742   2.994
 1821TIP3   OH2 5426   2.310   6.903   2.267
 1821TIP3    H1 5427   2.247   6.860   2.324
 1821TIP3    H2 5428   2.342   6.977   2.318
 1822TIP3   OH2 5429   4.785   0.858   3.420
 1822TIP3    H1 5430   4.827   0.845   3.505
 1822TIP3    H2 5431   4.743   0.944   3.427
 1823TIP3   OH2 5432   4.912   0.147   2.346
 1823TIP3    H1 5433   4.978   0.176   2.409
 1823TIP3    H2 5434   4.875   0.228   2.312
 1824TIP3   OH2 5435   4.065   0.548   3.063
 1824TIP3    H1 5436   4.105   0.529   2.979
 1824TIP3    H2 5437   4.127   0.515   3.128
 1825TIP3   OH2 5438   4.534   0.686   2.251
 1825TIP3    H1 5439   4.488   0.770   2.249
 1825TIP3    H2 5440   4.479   0.629   2.304
 1826TIP3   OH2 5441   3.966   0.481   3.697
 1826TIP3    H1 5442   3.976   0.469   3.792
 1826TIP3    H2 5443   3.894   0.423   3.673
 1827TIP3   OH2 5444   4.678   0.617   3.722
 1827TIP3    H1 5445   4.615   0.553   3.690
 1827TIP3    H2 5446   4.761   0.591   3.683
 1828TIP3   OH2 5447   4.935   1.135   3.312
 1828TIP3    H1 5448   4.840   1.124   3.318
 1828TIP3    H2 5449   4.960   1.178   3.393
 1829TIP3   OH2 5450   5.258   0.231   2.207
 1829TIP3    H1 5451   5.324   0.177   2.163
 1829TIP3    H2 5452   5.254   0.311   2.156
 1830TIP3   OH2 5453   5.570   1.068   3.285
 1830TIP3    H1 5454   5.475   1.054   3.279
 1830TIP3    H2 5455   5.604   1.034   3.202
 1831TIP3   OH2 5456   5.054   1.007   2.132
 1831TIP3    H1 5457   5.029   0.942   2.197
 1831TIP3    H2 5458   5.070   0.957   2.052
 1832TIP3   OH2 5459   5.032   0.656   2.929
 1832TIP3    H1 5460   4.942   0.632   2.953
 1832TIP3    H2 5461   5.067   0.578   2.886
 1833TIP3   OH2 5462   4.187   0.875   2.725
 1833TIP3    H1 5463   4.184   0.953   2.669
 1833TIP3    H2 5464   4.096   0.861   2.751
 1834TIP3   OH2 5465   3.746   0.199   2.430
 1834TIP3    H1 5466   3.789   0.280   2.456
 1834TIP3    H2 5467   3.665   0.197   2.480
 1835TIP3   OH2 5468   4.299   0.635   2.646
 1835TIP3    H1 5469   4.271   0.723   2.671
 1835TIP3    H2 5470   4.269   0.579   2.718
 1836TIP3   OH2 5471   4.470   1.204   3.184
 1836TIP3    H1 5472   4.507   1.276   3.133
 1836TIP3    H2 5473   4.545   1.168   3.232
 1837TIP3   OH2 5474   4.102   1.106   2.573
 1837TIP3    H1 5475   4.017   1.109   2.617
 1837TIP3    H2 5476   4.136   1.195   2.578
 1838TIP3   OH2 5477   4.833   0.858   3.150
 1838TIP3    H1 5478   4.820   0.852   3.244
 1838TIP3    H2 5479   4.908   0.802   3.132
 1839TIP3   OH2 5480   4.815   0.726   2.028
 1839TIP3    H1 5481   4.865   0.702   2.106
 1839TIP3    H2 5482   4.723   0.709   2.052
 1840TIP3   OH2 5483   5.083   1.368   3.195
 1840TIP3    H1 5484   5.008   1.308   3.202
 1840TIP3    H2 5485   5.060   1.426   3.122
 1841TIP3   OH2 5486   5.136   1.197   1.838
 1841TIP3    H1 5487   5.166   1.258   1.771
 1841TIP3    H2 5488   5.064   1.243   1.882
 1842TIP3   OH2 5489   1.712   6.968   3.606
 1842TIP3    H1 5490   1.650   6.978   3.534
 1842TIP3    H2 5491   1.718   6.873   3.620
 1843TIP3   OH2 5492   4.994   0.631   2.213
 1843TIP3    H1 5493   4.981   0.596   2.302
 1843TIP3    H2 5494   5.087   0.653   2.210
 1844TIP3   OH2 5495   3.899   1.084   3.342
 1844TIP3    H1 5496   3.950   1.019   3.391
 1844TIP3    H2 5497   3.917   1.167   3.387
 1845TIP3   OH2 5498   4.183   0.702   2.028
 1845TIP3    H1 5499   4.191   0.608   2.007
 1845TIP3    H2 5500   4.156   0.704   2.119
 1846TIP3   OH2 5501   4.115   0.724   2.300
 1846TIP3    H1 5502   4.185   0.691   2.356
 1846TIP3    H2 5503   4.119   0.819   2.309
 1847TIP3   OH2 5504   3.857   0.432   2.520
 1847TIP3    H1 5505   3.790   0.477   2.571
 1847TIP3    H2 5506   3.877   0.492   2.448
 1848TIP3   OH2 5507   4.389   0.914   2.251
 1848TIP3    H1 5508   4.304   0.937   2.288
 1848TIP3    H2 5509   4.410   0.988   2.194
 1849TIP3   OH2 5510   2.110   6.952   2.637
 1849TIP3    H1 5511   2.162   7.032   2.633
 1849TIP3    H2 5512   2.099   6.935   2.731
 1850TIP3   OH2 5513   4.851   0.314   3.468
 1850TIP3    H1 5514   4.876   0.371   3.541
 1850TIP3    H2 5515   4.920   0.249   3.463
 1851TIP3   OH2 5516   4.134   0.996   2.323
 1851TIP3    H1 5517   4.109   1.064   2.261
 1851TIP3    H2 5518   4.122   1.036   2.409
 1852TIP3   OH2 5519   5.418   0.253   3.574
 1852TIP3    H1 5520   5.339   0.202   3.592
 1852TIP3    H2 5521   5.452   0.216   3.493
 1853TIP3   OH2 5522   5.113   0.412   2.822
 1853TIP3    H1 5523   5.040   0.359   2.854
 1853TIP3    H2 5524   5.189   0.381   2.873
 1854TIP3   OH2 5525   3.865   0.606   2.293
 1854TIP3    H1 5526   3.938   0.666   2.306
 1854TIP3    H2 5527   3.900   0.536   2.239
 1855TIP3   OH2 5528   1.373   6.929   2.487
 1855TIP3    H1 5529   1.355   7.023   2.479
 1855TIP3    H2 5530   1.358   6.893   2.400
 1856TIP3   OH2 5531   5.111   1.355   2.771
 1856TIP3    H1 5532   5.068   1.404   2.701
 1856TIP3    H2 5533   5.205   1.370   2.757
 1857TIP3   OH2 5534   3.709   0.852   2.708
 1857TIP3    H1 5535   3.663   0.887   2.784
 1857TIP3    H2 5536   3.667   0.894   2.633
 1858TIP3   OH2 5537   3.893   1.394   3.765
 1858TIP3    H1 5538   3.977   1.397   3.812
 1858TIP3    H2 5539   3.874   1.301   3.755
 1859TIP3   OH2 5540   4.364   1.318   3.810
 1859TIP3    H1 5541   4.456   1.295   3.817
 1859TIP3    H2 5542   4.330   1.264   3.739
 1860TIP3   OH2 5543   4.331   0.911   1.931
 1860TIP3    H1 5544   4.283   0.838   1.970
 1860TIP3    H2 5545   4.406   0.870   1.888
 1861TIP3   OH2 5546   4.991   1.251   3.555
 1861TIP3    H1 5547   4.999   1.181   3.620
 1861TIP3    H2 5548   5.067   1.307   3.571
 1862TIP3   OH2 5549   4.778   0.949   1.853
 1862TIP3    H1 5550   4.822   0.886   1.909
 1862TIP3    H2 5551   4.829   0.950   1.772
 1863TIP3   OH2 5552   4.001   0.800   3.958
 1863TIP3    H1 5553   4.024   0.707   3.964
 1863TIP3    H2 5554   3.915   0.801   3.915
 1864TIP3   OH2 5555   3.999   0.409   2.163
 1864TIP3    H1 5556   4.050   0.383   2.240
 1864TIP3    H2 5557   4.064   0.418   2.093
 1865TIP3   OH2 5558   4.620   0.888   3.737
 1865TIP3    H1 5559   4.574   0.906   3.655
 1865TIP3    H2 5560   4.650   0.797   3.728
 1866TIP3   OH2 5561   4.537   0.628   1.981
 1866TIP3    H1 5562   4.518   0.641   2.074
 1866TIP3    H2 5563   4.532   0.533   1.969
 1867TIP3   OH2 5564   5.104   0.909   3.353
 1867TIP3    H1 5565   5.180   0.940   3.305
 1867TIP3    H2 5566   5.036   0.974   3.335
 1868TIP3   OH2 5567   4.124   0.549   3.958
 1868TIP3    H1 5568   4.208   0.527   3.919
 1868TIP3    H2 5569   4.145   0.575   4.047
 1869TIP3   OH2 5570   4.176   0.350   2.372
 1869TIP3    H1 5571   4.156   0.318   2.460
 1869TIP3    H2 5572   4.219   0.277   2.328
 1870TIP3   OH2 5573   4.482   0.437   3.628
 1870TIP3    H1 5574   4.397   0.481   3.630
 1870TIP3    H2 5575   4.518   0.458   3.542
 1871TIP3   OH2 5576   4.302   0.155   2.220
 1871TIP3    H1 5577   4.274   0.154   2.128
 1871TIP3    H2 5578   4.397   0.156   2.216
 1872TIP3   OH2 5579   4.983   0.807   3.725
 1872TIP3    H1 5580   5.048   0.759   3.674
 1872TIP3    H2 5581   4.970   0.754   3.804
 1873TIP3   OH2 5582   4.501   0.164   3.679
 1873TIP3    H1 5583   4.500   0.108   3.601
 1873TIP3    H2 5584   4.496   0.253   3.644
 1874TIP3   OH2 5585   4.610   0.517   3.402
 1874TIP3    H1 5586   4.700   0.538   3.374
 1874TIP3    H2 5587   4.555   0.580   3.356
 1875TIP3   OH2 5588   5.219   0.543   3.808
 1875TIP3    H1 5589   5.228   0.471   3.872
 1875TIP3    H2 5590   5.216   0.498   3.724
 1876TIP3   OH2 5591   5.237   0.739   3.520
 1876TIP3    H1 5592   5.176   0.799   3.478
 1876TIP3    H2 5593   5.323   0.766   3.488
 1877TIP3   OH2 5594   4.395   0.456   3.945
 1877TIP3    H1 5595   4.352   0.371   3.953
 1877TIP3    H2 5596   4.462   0.443   3.878
 1878TIP3   OH2 5597   4.828   0.362   3.860
 1878TIP3    H1 5598   4.810   0.355   3.953
 1878TIP3    H2 5599   4.784   0.286   3.821
 1879TIP3   OH2 5600   5.188   0.124   3.648
 1879TIP3    H1 5601   5.129   0.146   3.720
 1879TIP3    H2 5602   5.245   0.055   3.684
 1880TIP3   OH2 5603   4.258   0.231   4.000
 1880TIP3    H1 5604   4.321   0.161   3.985
 1880TIP3    H2 5605   4.212   0.206   4.080
 1881TIP3   OH2 5606   4.110   1.188   2.123
 1881TIP3    H1 5607   4.203   1.173   2.108
 1881TIP3    H2 5608   4.083   1.243   2.049
 1882TIP3   OH2 5609   3.593   0.591   2.317
 1882TIP3    H1 5610   3.688   0.599   2.322
 1882TIP3    H2 5611   3.577   0.502   2.285
 1883TIP3   OH2 5612   3.505   1.176   2.773
 1883TIP3    H1 5613   3.440   1.122   2.728
 1883TIP3    H2 5614   3.548   1.115   2.834
 1884TIP3   OH2 5615   3.642   1.011   2.948
 1884TIP3    H1 5616   3.630   0.945   3.017
 1884TIP3    H2 5617   3.694   1.080   2.990
 1885TIP3   OH2 5618   5.377   1.422   2.754
 1885TIP3    H1 5619   5.400   1.457   2.840
 1885TIP3    H2 5620   5.435   1.469   2.693
 1886TIP3   OH2 5621   5.394   1.451   3.039
 1886TIP3    H1 5622   5.348   1.367   3.030
 1886TIP3    H2 5623   5.468   1.432   3.096
 1887TIP3   OH2 5624   5.452   1.159   3.617
 1887TIP3    H1 5625   5.381   1.156   3.680
 1887TIP3    H2 5626   5.494   1.244   3.632
 1888TIP3   OH2 5627   5.270   0.661   2.220
 1888TIP3    H1 5628   5.329   0.731   2.191
 1888TIP3    H2 5629   5.311   0.627   2.300
 1889TIP3   OH2 5630   5.391   0.535   2.429
 1889TIP3    H1 5631   5.328   0.496   2.491
 1889TIP3    H2 5632   5.458   0.574   2.485
 1890TIP3   OH2 5633   5.441   0.919   2.854
 1890TIP3    H1 5634   5.496   0.849   2.817
 1890TIP3    H2 5635   5.445   0.989   2.790
 1891TIP3   OH2 5636   5.258   1.206   3.046
 1891TIP3    H1 5637   5.188   1.249   3.096
 1891TIP3    H2 5638   5.213   1.163   2.974
 1892TIP3   OH2 5639   5.284   0.454   2.046
 1892TIP3    H1 5640   5.220   0.488   1.984
 1892TIP3    H2 5641   5.291   0.520   2.114
 1893TIP3   OH2 5642   5.201   0.390   2.567
 1893TIP3    H1 5643   5.203   0.295   2.555
 1893TIP3    H2 5644   5.174   0.402   2.658
 1894TIP3   OH2 5645   3.814   0.449   3.325
 1894TIP3    H1 5646   3.804   0.415   3.236
 1894TIP3    H2 5647   3.909   0.454   3.339
 1895TIP3   OH2 5648   5.479   0.809   3.413
 1895TIP3    H1 5649   5.545   0.741   3.399
 1895TIP3    H2 5650   5.491   0.870   3.341
 1896TIP3   OH2 5651   5.655   0.604   3.415
 1896TIP3    H1 5652   5.585   0.570   3.472
 1896TIP3    H2 5653   5.711   0.528   3.399
 1897TIP3   OH2 5654   5.188   0.132   2.445
 1897TIP3    H1 5655   5.259   0.070   2.461
 1897TIP3    H2 5656   5.211   0.173   2.361
 1898TIP3   OH2 5657   5.344   0.332   2.942
 1898TIP3    H1 5658   5.429   0.336   2.898
 1898TIP3    H2 5659   5.360   0.369   3.029
 1899TIP3   OH2 5660   5.400   0.436   3.189
 1899TIP3    H1 5661   5.330   0.471   3.244
 1899TIP3    H2 5662   5.445   0.513   3.155
 1900TIP3   OH2 5663   4.021   0.120   3.908
 1900TIP3    H1 5664   4.093   0.175   3.940
 1900TIP3    H2 5665   3.982   0.083   3.986
 1901TIP3   OH2 5666   3.805   0.083   3.370
 1901TIP3    H1 5667   3.850   0.097   3.287
 1901TIP3    H2 5668   3.864   0.120   3.436
 1902TIP3   OH2 5669   4.941   1.316   2.398
 1902TIP3    H1 5670   4.998   1.308   2.322
 1902TIP3    H2 5671   4.982   1.385   2.451
 1903TIP3   OH2 5672   4.038   1.116   3.781
 1903TIP3    H1 5673   3.945   1.097   3.771
 1903TIP3    H2 5674   4.056   1.099   3.873
 1904TIP3   OH2 5675   4.241   1.159   3.333
 1904TIP3    H1 5676   4.189   1.232   3.299
 1904TIP3    H2 5677   4.326   1.169   3.290
 1905TIP3   OH2 5678   4.654   1.391   3.470
 1905TIP3    H1 5679   4.693   1.385   3.557
 1905TIP3    H2 5680   4.716   1.443   3.420
 1906TIP3   OH2 5681   4.840   1.547   3.341
 1906TIP3    H1 5682   4.902   1.498   3.287
 1906TIP3    H2 5683   4.895   1.603   3.395
 1907TIP3   OH2 5684   3.904   1.405   3.376
 1907TIP3    H1 5685   3.814   1.423   3.351
 1907TIP3    H2 5686   3.925   1.471   3.442
 1908TIP3   OH2 5687   4.135   1.389   3.224
 1908TIP3    H1 5688   4.051   1.396   3.271
 1908TIP3    H2 5689   4.114   1.417   3.135
 1909TIP3   OH2 5690   4.557   1.408   3.016
 1909TIP3    H1 5691   4.486   1.421   2.952
 1909TIP3    H2 5692   4.568   1.494   3.056
 1910TIP3   OH2 5693   4.821   1.347   3.072
 1910TIP3    H1 5694   4.730   1.365   3.050
 1910TIP3    H2 5695   4.871   1.412   3.023
 1911TIP3   OH2 5696   5.022   1.522   2.972
 1911TIP3    H1 5697   5.018   1.609   2.932
 1911TIP3    H2 5698   5.053   1.465   2.901
 1912TIP3   OH2 5699   3.817   1.187   3.094
 1912TIP3    H1 5700   3.838   1.160   3.184
 1912TIP3    H2 5701   3.890   1.153   3.042
 1913TIP3   OH2 5702   4.020   1.068   2.958
 1913TIP3    H1 5703   4.030   0.986   3.004
 1913TIP3    H2 5704   4.107   1.108   2.960
 1914TIP3   OH2 5705   4.287   1.155   2.977
 1914TIP3    H1 5706   4.307   1.062   2.963
 1914TIP3    H2 5707   4.338   1.180   3.054
 1915TIP3   OH2 5708   3.591   0.971   2.494
 1915TIP3    H1 5709   3.506   0.937   2.465
 1915TIP3    H2 5710   3.594   1.060   2.460
 1916TIP3   OH2 5711   4.378   1.137   2.075
 1916TIP3    H1 5712   4.462   1.165   2.039
 1916TIP3    H2 5713   4.351   1.063   2.020
 1917TIP3   OH2 5714   5.093   1.276   2.169
 1917TIP3    H1 5715   5.085   1.181   2.159
 1917TIP3    H2 5716   5.049   1.312   2.091
 1918TIP3   OH2 5717   5.303   1.414   3.362
 1918TIP3    H1 5718   5.231   1.381   3.308
 1918TIP3    H2 5719   5.290   1.509   3.363
 1919TIP3   OH2 5720   6.580   0.804   2.121
 1919TIP3    H1 5721   6.555   0.891   2.090
 1919TIP3    H2 5722   6.523   0.744   2.072
 1920TIP3   OH2 5723   6.512   0.804   2.526
 1920TIP3    H1 5724   6.561   0.779   2.604
 1920TIP3    H2 5725   6.517   0.727   2.469
 1921TIP3   OH2 5726   5.878   0.696   2.857
 1921TIP3    H1 5727   5.908   0.642   2.930
 1921TIP3    H2 5728   5.956   0.714   2.806
 1922TIP3   OH2 5729   5.859   1.084   2.573
 1922TIP3    H1 5730   5.844   0.990   2.575
 1922TIP3    H2 5731   5.954   1.093   2.561
 1923TIP3   OH2 5732   5.507   0.301   2.342
 1923TIP3    H1 5733   5.492   0.389   2.376
 1923TIP3    H2 5734   5.420   0.269   2.317
 1924TIP3   OH2 5735   5.624   0.618   2.553
 1924TIP3    H1 5736   5.670   0.538   2.578
 1924TIP3    H2 5737   5.693   0.681   2.533
 1925TIP3   OH2 5738   6.478   1.523   2.210
 1925TIP3    H1 5739   6.538   1.458   2.174
 1925TIP3    H2 5740   6.478   1.505   2.304
 1926TIP3   OH2 5741   6.368   1.037   2.543
 1926TIP3    H1 5742   6.407   0.952   2.520
 1926TIP3    H2 5743   6.444   1.093   2.562
 1927TIP3   OH2 5744   6.156   0.190   2.516
 1927TIP3    H1 5745   6.107   0.252   2.462
 1927TIP3    H2 5746   6.090   0.130   2.550
 1928TIP3   OH2 5747   5.757   0.391   2.624
 1928TIP3    H1 5748   5.844   0.393   2.665
 1928TIP3    H2 5749   5.773   0.361   2.534
 1929TIP3   OH2 5750   6.199   0.576   2.468
 1929TIP3    H1 5751   6.290   0.554   2.450
 1929TIP3    H2 5752   6.150   0.497   2.444
 1930TIP3   OH2 5753   6.478   1.028   1.981
 1930TIP3    H1 5754   6.442   1.001   1.896
 1930TIP3    H2 5755   6.428   1.106   2.004
 1931TIP3   OH2 5756   6.236   0.944   2.764
 1931TIP3    H1 5757   6.177   1.010   2.799
 1931TIP3    H2 5758   6.281   0.987   2.691
 1932TIP3   OH2 5759   6.001   0.361   2.729
 1932TIP3    H1 5760   6.073   0.409   2.772
 1932TIP3    H2 5761   6.040   0.278   2.703
 1933TIP3   OH2 5762   6.067   1.141   2.858
 1933TIP3    H1 5763   6.051   1.229   2.824
 1933TIP3    H2 5764   5.988   1.121   2.910
 1934TIP3   OH2 5765   5.447   0.841   2.103
 1934TIP3    H1 5766   5.413   0.861   2.016
 1934TIP3    H2 5767   5.474   0.926   2.139
 1935TIP3   OH2 5768   6.628   1.378   2.013
 1935TIP3    H1 5769   6.629   1.283   2.024
 1935TIP3    H2 5770   6.719   1.405   2.020
 1936TIP3   OH2 5771   6.426   0.662   1.934
 1936TIP3    H1 5772   6.335   0.690   1.936
 1936TIP3    H2 5773   6.462   0.704   1.856
 1937TIP3   OH2 5774   6.000   0.719   2.331
 1937TIP3    H1 5775   5.959   0.661   2.267
 1937TIP3    H2 5776   6.072   0.667   2.367
 1938TIP3   OH2 5777   6.118   1.135   2.469
 1938TIP3    H1 5778   6.105   1.113   2.377
 1938TIP3    H2 5779   6.205   1.102   2.490
 1939TIP3   OH2 5780   6.096   0.722   2.682
 1939TIP3    H1 5781   6.138   0.682   2.606
 1939TIP3    H2 5782   6.151   0.798   2.702
 1940TIP3   OH2 5783   6.613   1.331   2.431
 1940TIP3    H1 5784   6.624   1.415   2.476
 1940TIP3    H2 5785   6.622   1.266   2.501
 1941TIP3   OH2 5786   6.263   1.242   3.024
 1941TIP3    H1 5787   6.204   1.303   3.067
 1941TIP3    H2 5788   6.207   1.190   2.966
 1942TIP3   OH2 5789   6.029   0.812   3.148
 1942TIP3    H1 5790   6.028   0.903   3.178
 1942TIP3    H2 5791   5.937   0.787   3.143
 1943TIP3   OH2 5792   6.348   1.273   2.009
 1943TIP3    H1 5793   6.386   1.347   2.056
 1943TIP3    H2 5794   6.275   1.310   1.960
 1944TIP3   OH2 5795   6.056   1.409   3.100
 1944TIP3    H1 5796   6.033   1.415   3.007
 1944TIP3    H2 5797   5.973   1.392   3.144
 1945TIP3   OH2 5798   5.866   0.573   2.135
 1945TIP3    H1 5799   5.782   0.602   2.098
 1945TIP3    H2 5800   5.863   0.478   2.130
 1946TIP3   OH2 5801   5.646   0.953   3.051
 1946TIP3    H1 5802   5.578   0.935   2.986
 1946TIP3    H2 5803   5.683   0.868   3.072
 1947TIP3   OH2 5804   5.504   1.141   2.688
 1947TIP3    H1 5805   5.599   1.143   2.683
 1947TIP3    H2 5806   5.481   1.220   2.737
 1948TIP3   OH2 5807   6.454   1.377   2.879
 1948TIP3    H1 5808   6.449   1.469   2.905
 1948TIP3    H2 5809   6.385   1.335   2.930
 1949TIP3   OH2 5810   6.228   1.497   1.834
 1949TIP3    H1 5811   6.182   1.478   1.752
 1949TIP3    H2 5812   6.193   1.581   1.862
 1950TIP3   OH2 5813   5.668   1.344   2.213
 1950TIP3    H1 5814   5.713   1.336   2.297
 1950TIP3    H2 5815   5.619   1.262   2.205
 1951TIP3   OH2 5816   6.460   1.387   1.506
 1951TIP3    H1 5817   6.524   1.324   1.474
 1951TIP3    H2 5818   6.481   1.398   1.599
 1952TIP3   OH2 5819   6.488   1.440   1.773
 1952TIP3    H1 5820   6.397   1.447   1.801
 1952TIP3    H2 5821   6.535   1.406   1.850
 1953TIP3   OH2 5822   5.848   1.139   3.026
 1953TIP3    H1 5823   5.898   1.126   3.107
 1953TIP3    H2 5824   5.777   1.075   3.032
 1954TIP3   OH2 5825   6.186   0.523   2.850
 1954TIP3    H1 5826   6.126   0.533   2.923
 1954TIP3    H2 5827   6.164   0.595   2.791
 1955TIP3   OH2 5828   6.033   0.379   2.364
 1955TIP3    H1 5829   5.941   0.352   2.362
 1955TIP3    H2 5830   6.063   0.369   2.274
 1956TIP3   OH2 5831   6.538   0.431   2.042
 1956TIP3    H1 5832   6.496   0.510   2.009
 1956TIP3    H2 5833   6.630   0.454   2.051
 1957TIP3   OH2 5834   6.717   0.745   3.140
 1957TIP3    H1 5835   6.700   0.700   3.223
 1957TIP3    H2 5836   6.794   0.799   3.157
 1958TIP3   OH2 5837   5.999   0.538   3.045
 1958TIP3    H1 5838   6.011   0.577   3.131
 1958TIP3    H2 5839   5.989   0.444   3.062
 1959TIP3   OH2 5840   5.479   0.107   2.124
 1959TIP3    H1 5841   5.551   0.142   2.071
 1959TIP3    H2 5842   5.516   0.102   2.212
 1960TIP3   OH2 5843   6.664   0.721   2.740
 1960TIP3    H1 5844   6.744   0.697   2.694
 1960TIP3    H2 5845   6.657   0.658   2.812
 1961TIP3   OH2 5846   6.375   0.321   2.413
 1961TIP3    H1 5847   6.299   0.281   2.454
 1961TIP3    H2 5848   6.435   0.248   2.397
 1962TIP3   OH2 5849   5.778   0.270   2.370
 1962TIP3    H1 5850   5.684   0.283   2.357
 1962TIP3    H2 5851   5.789   0.175   2.371
 1963TIP3   OH2 5852   6.104   0.330   2.109
 1963TIP3    H1 5853   6.197   0.306   2.105
 1963TIP3    H2 5854   6.060   0.266   2.054
 1964TIP3   OH2 5855   5.908   0.307   1.862
 1964TIP3    H1 5856   5.838   0.259   1.907
 1964TIP3    H2 5857   5.935   0.249   1.791
 1965TIP3   OH2 5858   6.004   1.067   3.261
 1965TIP3    H1 5859   6.086   1.083   3.308
 1965TIP3    H2 5860   5.937   1.066   3.328
 1966TIP3   OH2 5861   6.533   0.515   2.516
 1966TIP3    H1 5862   6.486   0.450   2.463
 1966TIP3    H2 5863   6.521   0.485   2.606
 1967TIP3   OH2 5864   6.418   0.413   2.933
 1967TIP3    H1 5865   6.341   0.455   2.894
 1967TIP3    H2 5866   6.483   0.483   2.940
 1968TIP3   OH2 5867   6.173   0.777   1.903
 1968TIP3    H1 5868   6.106   0.710   1.885
 1968TIP3    H2 5869   6.147   0.815   1.987
 1969TIP3   OH2 5870   6.590   1.126   2.906
 1969TIP3    H1 5871   6.610   1.108   2.997
 1969TIP3    H2 5872   6.542   1.209   2.907
 1970TIP3   OH2 5873   5.854   0.796   2.550
 1970TIP3    H1 5874   5.897   0.781   2.466
 1970TIP3    H2 5875   5.918   0.769   2.615
 1971TIP3   OH2 5876   6.324   0.948   1.753
 1971TIP3    H1 5877   6.279   1.032   1.755
 1971TIP3    H2 5878   6.269   0.890   1.807
 1972TIP3   OH2 5879   5.761   0.734   3.185
 1972TIP3    H1 5880   5.767   0.720   3.279
 1972TIP3    H2 5881   5.692   0.674   3.156
 1973TIP3   OH2 5882   6.474   0.868   3.207
 1973TIP3    H1 5883   6.406   0.809   3.173
 1973TIP3    H2 5884   6.554   0.838   3.164
 1974TIP3   OH2 5885   6.728   1.414   2.801
 1974TIP3    H1 5886   6.638   1.381   2.796
 1974TIP3    H2 5887   6.740   1.437   2.893
 1975TIP3   OH2 5888   5.982   1.136   2.210
 1975TIP3    H1 5889   5.978   1.214   2.155
 1975TIP3    H2 5890   5.891   1.120   2.236
 1976TIP3   OH2 5891   5.537   0.418   1.927
 1976TIP3    H1 5892   5.583   0.500   1.942
 1976TIP3    H2 5893   5.454   0.428   1.974
 1977TIP3   OH2 5894   6.080   0.891   2.129
 1977TIP3    H1 5895   6.059   0.980   2.156
 1977TIP3    H2 5896   6.058   0.837   2.205
 1978TIP3   OH2 5897   6.267   1.461   2.668
 1978TIP3    H1 5898   6.303   1.533   2.617
 1978TIP3    H2 5899   6.342   1.423   2.713
 1979TIP3   OH2 5900   5.898   1.363   2.061
 1979TIP3    H1 5901   5.813   1.368   2.103
 1979TIP3    H2 5902   5.933   1.452   2.064
 1980TIP3   OH2 5903   6.619   1.126   2.630
 1980TIP3    H1 5904   6.616   1.124   2.726
 1980TIP3    H2 5905   6.672   1.050   2.606
 1981TIP3   OH2 5906   6.809   1.666   2.727
 1981TIP3    H1 5907   6.789   1.574   2.741
 1981TIP3    H2 5908   6.802   1.678   2.632
 1982TIP3   OH2 5909   5.982   0.271   3.081
 1982TIP3    H1 5910   5.909   0.229   3.034
 1982TIP3    H2 5911   5.993   0.218   3.160
 1983TIP3   OH2 5912   5.692   1.344   2.832
 1983TIP3    H1 5913   5.743   1.279   2.880
 1983TIP3    H2 5914   5.715   1.427   2.872
 1984TIP3   OH2 5915   5.962   1.009   1.542
 1984TIP3    H1 5916   6.009   0.935   1.503
 1984TIP3    H2 5917   5.945   0.981   1.632
 1985TIP3   OH2 5918   5.914   0.976   1.812
 1985TIP3    H1 5919   5.982   0.950   1.874
 1985TIP3    H2 5920   5.913   1.071   1.816
 1986TIP3   OH2 5921   5.638   0.665   2.000
 1986TIP3    H1 5922   5.578   0.716   2.054
 1986TIP3    H2 5923   5.662   0.725   1.928
 1987TIP3   OH2 5924   6.182   1.180   1.748
 1987TIP3    H1 5925   6.093   1.199   1.777
 1987TIP3    H2 5926   6.201   1.248   1.683
 1988TIP3   OH2 5927   6.362   0.236   2.112
 1988TIP3    H1 5928   6.427   0.300   2.083
 1988TIP3    H2 5929   6.378   0.228   2.206
 1989TIP3   OH2 5930   6.654   0.554   2.954
 1989TIP3    H1 5931   6.675   0.621   3.019
 1989TIP3    H2 5932   6.720   0.486   2.967
 1990TIP3   OH2 5933   5.925   1.250   1.812
 1990TIP3    H1 5934   5.901   1.317   1.748
 1990TIP3    H2 5935   5.911   1.292   1.897
 1991TIP3   OH2 5936   5.657   0.858   1.796
 1991TIP3    H1 5937   5.725   0.923   1.812
 1991TIP3    H2 5938   5.691   0.805   1.723
 1992TIP3   OH2 5939   5.666   0.178   1.935
 1992TIP3    H1 5940   5.630   0.266   1.928
 1992TIP3    H2 5941   5.641   0.136   1.853
 1993TIP3   OH2 5942   5.501   1.110   2.185
 1993TIP3    H1 5943   5.454   1.145   2.261
 1993TIP3    H2 5944   5.460   1.152   2.110
 1994TIP3   OH2 5945   5.687   1.656   3.261
 1994TIP3    H1 5946   5.771   1.661   3.306
 1994TIP3    H2 5947   5.675   1.563   3.243
 1995TIP3   OH2 5948   6.157   1.575   3.295
 1995TIP3    H1 5949   6.251   1.557   3.302
 1995TIP3    H2 5950   6.128   1.520   3.223
 1996TIP3   OH2 5951   6.158   1.161   1.435
 1996TIP3    H1 5952   6.078   1.126   1.474
 1996TIP3    H2 5953   6.219   1.087   1.436
 1997TIP3   OH2 5954   6.793   1.500   3.058
 1997TIP3    H1 5955   6.784   1.430   3.123
 1997TIP3    H2 5956   6.886   1.501   3.036
 1998TIP3   OH2 5957   5.795   1.057   3.447
 1998TIP3    H1 5958   5.818   0.964   3.453
 1998TIP3    H2 5959   5.710   1.058   3.402
 1999TIP3   OH2 5960   5.789   0.696   1.617
 1999TIP3    H1 5961   5.859   0.664   1.674
 1999TIP3    H2 5962   5.833   0.723   1.537
 2000TIP3   OH2 5963   6.417   1.140   3.226
 2000TIP3    H1 5964   6.370   1.161   3.146
 2000TIP3    H2 5965   6.446   1.049   3.215
 2001TIP3   OH2 5966   6.255   0.905   1.488
 2001TIP3    H1 5967   6.285   0.919   1.578
 2001TIP3    H2 5968   6.288   0.818   1.465
 2002TIP3   OH2 5969   5.923   0.810   3.446
 2002TIP3    H1 5970   6.007   0.787   3.405
 2002TIP3    H2 5971   5.948   0.839   3.534
 2003TIP3   OH2 5972   5.971   0.586   1.874
 2003TIP3    H1 5973   5.947   0.598   1.965
 2003TIP3    H2 5974   5.966   0.491   1.860
 2004TIP3   OH2 5975   6.276   0.695   3.114
 2004TIP3    H1 5976   6.191   0.739   3.113
 2004TIP3    H2 5977   6.314   0.713   3.028
 2005TIP3   OH2 5978   6.774   1.044   3.238
 2005TIP3    H1 5979   6.866   1.048   3.210
 2005TIP3    H2 5980   6.776   0.989   3.316
 2006TIP3   OH2 5981   6.278   0.428   3.175
 2006TIP3    H1 5982   6.318   0.385   3.100
 2006TIP3    H2 5983   6.273   0.521   3.150
 2007TIP3   OH2 5984   6.412   0.771   2.888
 2007TIP3    H1 5985   6.495   0.774   2.841
 2007TIP3    H2 5986   6.357   0.836   2.845
 2008TIP3   OH2 5987   6.194   0.715   3.436
 2008TIP3    H1 5988   6.151   0.630   3.434
 2008TIP3    H2 5989   6.261   0.709   3.369
 2009TIP3   OH2 5990   6.650   0.609   3.360
 2009TIP3    H1 5991   6.643   0.583   3.452
 2009TIP3    H2 5992   6.605   0.539   3.313
 2010TIP3   OH2 5993   6.057   0.483   3.475
 2010TIP3    H1 5994   6.138   0.432   3.469
 2010TIP3    H2 5995   6.017   0.454   3.557
 2011TIP3   OH2 5996   5.921   1.457   1.625
 2011TIP3    H1 5997   6.012   1.443   1.596
 2011TIP3    H2 5998   5.880   1.504   1.552
 2012TIP3   OH2 5999   5.384   0.839   1.819
 2012TIP3    H1 6000   5.478   0.856   1.812
 2012TIP3    H2 6001   5.372   0.752   1.782
 2013TIP3   OH2 6002   5.299   1.431   2.261
 2013TIP3    H1 6003   5.235   1.377   2.216
 2013TIP3    H2 6004   5.344   1.371   2.321
 2014TIP3   OH2 6005   5.439   1.265   2.434
 2014TIP3    H1 6006   5.428   1.199   2.503
 2014TIP3    H2 6007   5.489   1.335   2.476
 2015TIP3   OH2 6008   5.611   0.708   2.811
 2015TIP3    H1 6009   5.602   0.676   2.722
 2015TIP3    H2 6010   5.706   0.711   2.827
 2016TIP3   OH2 6011   5.811   0.380   3.393
 2016TIP3    H1 6012   5.884   0.425   3.436
 2016TIP3    H2 6013   5.771   0.328   3.462
 2017TIP3   OH2 6014   5.609   0.346   2.862
 2017TIP3    H1 6015   5.656   0.366   2.780
 2017TIP3    H2 6016   5.660   0.391   2.930
 2018TIP3   OH2 6017   5.830   1.380   3.261
 2018TIP3    H1 6018   5.737   1.356   3.254
 2018TIP3    H2 6019   5.854   1.356   3.350
 2019TIP3   OH2 6020   6.039   1.417   2.818
 2019TIP3    H1 6021   5.987   1.490   2.784
 2019TIP3    H2 6022   6.124   1.425   2.775
 2020TIP3   OH2 6023   6.441   1.645   2.960
 2020TIP3    H1 6024   6.482   1.638   3.047
 2020TIP3    H2 6025   6.498   1.704   2.911
 2021TIP3   OH2 6026   6.616   1.821   2.842
 2021TIP3    H1 6027   6.682   1.767   2.798
 2021TIP3    H2 6028   6.667   1.881   2.897
 2022TIP3   OH2 6029   5.700   1.660   2.864
 2022TIP3    H1 6030   5.609   1.680   2.840
 2022TIP3    H2 6031   5.722   1.727   2.929
 2023TIP3   OH2 6032   5.929   1.645   2.710
 2023TIP3    H1 6033   5.846   1.652   2.757
 2023TIP3    H2 6034   5.909   1.674   2.621
 2024TIP3   OH2 6035   6.343   1.671   2.499
 2024TIP3    H1 6036   6.269   1.688   2.440
 2024TIP3    H2 6037   6.358   1.755   2.544
 2025TIP3   OH2 6038   6.606   1.592   2.513
 2025TIP3    H1 6039   6.517   1.626   2.511
 2025TIP3    H2 6040   6.661   1.664   2.482
 2026TIP3   OH2 6041   6.787   1.782   2.437
 2026TIP3    H1 6042   6.773   1.876   2.425
 2026TIP3    H2 6043   6.850   1.758   2.369
 2027TIP3   OH2 6044   5.611   1.443   2.583
 2027TIP3    H1 6045   5.633   1.417   2.672
 2027TIP3    H2 6046   5.683   1.410   2.529
 2028TIP3   OH2 6047   5.813   1.324   2.447
 2028TIP3    H1 6048   5.824   1.241   2.493
 2028TIP3    H2 6049   5.900   1.364   2.449
 2029TIP3   OH2 6050   6.080   1.413   2.463
 2029TIP3    H1 6051   6.099   1.320   2.451
 2029TIP3    H2 6052   6.134   1.439   2.538
 2030TIP3   OH2 6053   5.381   1.234   1.973
 2030TIP3    H1 6054   5.297   1.199   1.941
 2030TIP3    H2 6055   5.383   1.324   1.940
 2031TIP3   OH2 6056   6.185   1.401   1.561
 2031TIP3    H1 6057   6.276   1.423   1.542
 2031TIP3    H2 6058   6.166   1.328   1.503
 2032TIP3   OH2 6059   5.474   1.237   1.623
 2032TIP3    H1 6060   5.475   1.263   1.715
 2032TIP3    H2 6061   5.560   1.198   1.607
 2033TIP3   OH2 6062   0.833   1.851   3.291
 2033TIP3    H1 6063   0.803   1.938   3.263
 2033TIP3    H2 6064   0.764   1.792   3.264
 2034TIP3   OH2 6065   0.828   1.837   3.699
 2034TIP3    H1 6066   0.877   1.821   3.780
 2034TIP3    H2 6067   0.787   1.753   3.678
 2035TIP3   OH2 6068   0.144   1.721   4.046
 2035TIP3    H1 6069   0.168   1.655   4.111
 2035TIP3    H2 6070   0.224   1.736   3.996
 2036TIP3   OH2 6071   1.088   2.150   3.368
 2036TIP3    H1 6072   1.076   2.082   3.435
 2036TIP3    H2 6073   1.114   2.228   3.416
 2037TIP3   OH2 6074   0.121   2.119   3.774
 2037TIP3    H1 6075   0.104   2.025   3.764
 2037TIP3    H2 6076   0.215   2.128   3.756
 2038TIP3   OH2 6077   7.207   1.359   3.579
 2038TIP3    H1 6078   7.204   1.451   3.605
 2038TIP3    H2 6079   7.129   1.320   3.619
 2039TIP3   OH2 6080   7.273   1.633   3.723
 2039TIP3    H1 6081   7.323   1.559   3.758
 2039TIP3    H2 6082   7.338   1.688   3.679
 2040TIP3   OH2 6083   0.742   2.583   3.383
 2040TIP3    H1 6084   0.776   2.516   3.323
 2040TIP3    H2 6085   0.741   2.542   3.469
 2041TIP3   OH2 6086   0.633   2.060   3.714
 2041TIP3    H1 6087   0.674   1.981   3.680
 2041TIP3    H2 6088   0.707   2.114   3.743
 2042TIP3   OH2 6089   1.661   1.377   3.714
 2042TIP3    H1 6090   1.674   1.465   3.749
 2042TIP3    H2 6091   1.692   1.383   3.623
 2043TIP3   OH2 6092   1.048   1.554   3.748
 2043TIP3    H1 6093   1.092   1.472   3.771
 2043TIP3    H2 6094   1.007   1.535   3.663
 2044TIP3   OH2 6095   0.400   1.227   3.718
 2044TIP3    H1 6096   0.378   1.292   3.651
 2044TIP3    H2 6097   0.363   1.145   3.685
 2045TIP3   OH2 6098   1.099   1.319   3.339
 2045TIP3    H1 6099   1.163   1.307   3.408
 2045TIP3    H2 6100   1.149   1.353   3.264
 2046TIP3   OH2 6101   0.025   1.431   3.826
 2046TIP3    H1 6102   0.106   1.417   3.876
 2046TIP3    H2 6103   0.035   1.375   3.749
 2047TIP3   OH2 6104   0.453   1.622   3.647
 2047TIP3    H1 6105   0.547   1.603   3.654
 2047TIP3    H2 6106   0.416   1.541   3.611
 2048TIP3   OH2 6107   1.713   1.587   3.905
 2048TIP3    H1 6108   1.649   1.648   3.867
 2048TIP3    H2 6109   1.671   1.554   3.984
 2049TIP3   OH2 6110   0.365   1.240   4.166
 2049TIP3    H1 6111   0.324   1.282   4.091
 2049TIP3    H2 6112   0.309   1.261   4.240
 2050TIP3   OH2 6113   0.735   2.068   3.142
 2050TIP3    H1 6114   0.694   2.042   3.060
 2050TIP3    H2 6115   0.680   2.140   3.174
 2051TIP3   OH2 6116   0.483   1.985   3.932
 2051TIP3    H1 6117   0.428   2.056   3.967
 2051TIP3    H2 6118   0.530   2.025   3.859
 2052TIP3   OH2 6119   1.268   1.326   3.552
 2052TIP3    H1 6120   1.234   1.305   3.639
 2052TIP3    H2 6121   1.325   1.402   3.566
 2053TIP3   OH2 6122   0.269   1.338   3.926
 2053TIP3    H1 6123   0.325   1.412   3.950
 2053TIP3    H2 6124   0.317   1.293   3.856
 2054TIP3   OH2 6125   0.325   2.186   4.034
 2054TIP3    H1 6126   0.302   2.272   4.000
 2054TIP3    H2 6127   0.249   2.159   4.084
 2055TIP3   OH2 6128   7.149   1.835   3.280
 2055TIP3    H1 6129   7.105   1.875   3.205
 2055TIP3    H2 6130   7.191   1.909   3.325
 2056TIP3   OH2 6131   1.136   2.390   3.516
 2056TIP3    H1 6132   1.050   2.382   3.556
 2056TIP3    H2 6133   1.135   2.475   3.473
 2057TIP3   OH2 6134   1.454   1.283   3.889
 2057TIP3    H1 6135   1.366   1.298   3.854
 2057TIP3    H2 6136   1.513   1.304   3.817
 2058TIP3   OH2 6137   0.630   0.951   3.937
 2058TIP3    H1 6138   0.655   0.859   3.946
 2058TIP3    H2 6139   0.600   0.977   4.024
 2059TIP3   OH2 6140   0.844   2.423   3.178
 2059TIP3    H1 6141   0.894   2.342   3.165
 2059TIP3    H2 6142   0.902   2.493   3.148
 2060TIP3   OH2 6143   0.991   2.199   3.111
 2060TIP3    H1 6144   0.920   2.136   3.108
 2060TIP3    H2 6145   1.038   2.179   3.192
 2061TIP3   OH2 6146   1.365   2.286   3.864
 2061TIP3    H1 6147   1.352   2.212   3.805
 2061TIP3    H2 6148   1.350   2.363   3.809
 2062TIP3   OH2 6149   0.663   1.690   3.142
 2062TIP3    H1 6150   0.583   1.739   3.121
 2062TIP3    H2 6151   0.709   1.682   3.058
 2063TIP3   OH2 6152   0.660   1.478   2.819
 2063TIP3    H1 6153   0.714   1.526   2.881
 2063TIP3    H2 6154   0.721   1.425   2.769
 2064TIP3   OH2 6155   1.557   1.942   3.718
 2064TIP3    H1 6156   1.473   1.989   3.721
 2064TIP3    H2 6157   1.590   1.958   3.629
 2065TIP3   OH2 6158   1.020   1.784   3.104
 2065TIP3    H1 6159   0.967   1.812   3.179
 2065TIP3    H2 6160   1.103   1.756   3.144
 2066TIP3   OH2 6161   1.244   1.806   4.027
 2066TIP3    H1 6162   1.243   1.889   4.074
 2066TIP3    H2 6163   1.160   1.804   3.980
 2067TIP3   OH2 6164   0.254   1.764   3.514
 2067TIP3    H1 6165   0.216   1.706   3.449
 2067TIP3    H2 6166   0.328   1.715   3.550
 2068TIP3   OH2 6167   0.375   2.174   3.648
 2068TIP3    H1 6168   0.351   2.153   3.557
 2068TIP3    H2 6169   0.462   2.136   3.659
 2069TIP3   OH2 6170   0.357   1.750   3.873
 2069TIP3    H1 6171   0.393   1.715   3.791
 2069TIP3    H2 6172   0.405   1.831   3.888
 2070TIP3   OH2 6173   0.899   2.380   3.648
 2070TIP3    H1 6174   0.888   2.460   3.698
 2070TIP3    H2 6175   0.885   2.309   3.711
 2071TIP3   OH2 6176   0.524   2.288   4.195
 2071TIP3    H1 6177   0.466   2.347   4.243
 2071TIP3    H2 6178   0.466   2.236   4.139
 2072TIP3   OH2 6179   0.854   1.639   2.945
 2072TIP3    H1 6180   0.911   1.696   2.996
 2072TIP3    H2 6181   0.876   1.658   2.854
 2073TIP3   OH2 6182   0.278   1.834   4.330
 2073TIP3    H1 6183   0.282   1.927   4.353
 2073TIP3    H2 6184   0.185   1.816   4.318
 2074TIP3   OH2 6185   0.594   2.304   3.190
 2074TIP3    H1 6186   0.675   2.354   3.195
 2074TIP3    H2 6187   0.532   2.363   3.146
 2075TIP3   OH2 6188   0.320   2.451   4.279
 2075TIP3    H1 6189   0.295   2.461   4.187
 2075TIP3    H2 6190   0.240   2.419   4.322
 2076TIP3   OH2 6191   1.366   0.880   2.983
 2076TIP3    H1 6192   1.286   0.902   3.031
 2076TIP3    H2 6193   1.381   0.955   2.926
 2077TIP3   OH2 6194   0.135   1.602   3.323
 2077TIP3    H1 6195   0.065   1.639   3.268
 2077TIP3    H2 6196   0.104   1.515   3.347
 2078TIP3   OH2 6197   1.197   2.248   2.488
 2078TIP3    H1 6198   1.192   2.341   2.508
 2078TIP3    H2 6199   1.239   2.209   2.565
 2079TIP3   OH2 6200   7.328   1.960   4.195
 2079TIP3    H1 6201   7.273   1.920   4.127
 2079TIP3    H2 6202   7.350   1.888   4.253
 2080TIP3   OH2 6203   7.177   2.035   3.934
 2080TIP3    H1 6204   7.270   2.039   3.908
 2080TIP3    H2 6205   7.155   2.126   3.954
 2081TIP3   OH2 6206   1.602   2.645   3.928
 2081TIP3    H1 6207   1.606   2.550   3.942
 2081TIP3    H2 6208   1.522   2.673   3.973
 2082TIP3   OH2 6209   0.710   2.427   4.051
 2082TIP3    H1 6210   0.709   2.517   4.082
 2082TIP3    H2 6211   0.645   2.382   4.104
 2083TIP3   OH2 6212   0.483   2.538   3.010
 2083TIP3    H1 6213   0.433   2.523   2.930
 2083TIP3    H2 6214   0.454   2.624   3.041
 2084TIP3   OH2 6215   7.390   2.396   3.396
 2084TIP3    H1 6216   7.420   2.379   3.486
 2084TIP3    H2 6217   7.300   2.365   3.395
 2085TIP3   OH2 6218   0.691   2.460   2.641
 2085TIP3    H1 6219   0.739   2.383   2.609
 2085TIP3    H2 6220   0.722   2.472   2.731
 2086TIP3   OH2 6221   0.736   2.504   2.911
 2086TIP3    H1 6222   0.650   2.509   2.952
 2086TIP3    H2 6223   0.794   2.475   2.982
 2087TIP3   OH2 6224   1.497   1.759   4.193
 2087TIP3    H1 6225   1.414   1.778   4.150
 2087TIP3    H2 6226   1.507   1.664   4.184
 2088TIP3   OH2 6227   0.112   2.158   4.203
 2088TIP3    H1 6228   0.159   2.153   4.285
 2088TIP3    H2 6229   0.053   2.083   4.204
 2089TIP3   OH2 6230   0.361   0.977   4.075
 2089TIP3    H1 6231   0.365   0.967   3.980
 2089TIP3    H2 6232   0.363   1.072   4.089
 2090TIP3   OH2 6233   1.043   1.121   4.202
 2090TIP3    H1 6234   1.111   1.095   4.264
 2090TIP3    H2 6235   0.961   1.106   4.248
 2091TIP3   OH2 6236   1.263   1.549   4.130
 2091TIP3    H1 6237   1.215   1.544   4.213
 2091TIP3    H2 6238   1.239   1.634   4.094
 2092TIP3   OH2 6239   0.933   1.676   2.691
 2092TIP3    H1 6240   0.898   1.656   2.604
 2092TIP3    H2 6241   1.020   1.712   2.675
 2093TIP3   OH2 6242   0.437   1.533   4.023
 2093TIP3    H1 6243   0.389   1.542   4.105
 2093TIP3    H2 6244   0.416   1.613   3.974
 2094TIP3   OH2 6245   0.311   1.411   3.536
 2094TIP3    H1 6246   0.224   1.378   3.558
 2094TIP3    H2 6247   0.322   1.391   3.443
 2095TIP3   OH2 6248   0.796   1.481   3.263
 2095TIP3    H1 6249   0.746   1.554   3.225
 2095TIP3    H2 6250   0.854   1.453   3.192
 2096TIP3   OH2 6251   0.974   1.753   4.343
 2096TIP3    H1 6252   0.948   1.684   4.404
 2096TIP3    H2 6253   1.066   1.770   4.365
 2097TIP3   OH2 6254   0.952   1.501   3.496
 2097TIP3    H1 6255   0.886   1.526   3.431
 2097TIP3    H2 6256   0.999   1.427   3.456
 2098TIP3   OH2 6257   0.260   1.547   4.234
 2098TIP3    H1 6258   0.279   1.613   4.300
 2098TIP3    H2 6259   0.225   1.473   4.283
 2099TIP3   OH2 6260   0.982   1.752   3.919
 2099TIP3    H1 6261   1.010   1.686   3.856
 2099TIP3    H2 6262   0.943   1.702   3.991
 2100TIP3   OH2 6263   0.666   1.247   3.604
 2100TIP3    H1 6264   0.588   1.226   3.656
 2100TIP3    H2 6265   0.739   1.243   3.666
 2101TIP3   OH2 6266   0.077   1.282   3.596
 2101TIP3    H1 6267  -0.016   1.283   3.573
 2101TIP3    H2 6268   0.103   1.190   3.587
 2102TIP3   OH2 6269   0.344   1.329   3.277
 2102TIP3    H1 6270   0.438   1.321   3.293
 2102TIP3    H2 6271   0.331   1.286   3.193
 2103TIP3   OH2 6272   1.149   1.299   3.806
 2103TIP3    H1 6273   1.120   1.315   3.896
 2103TIP3    H2 6274   1.076   1.250   3.766
 2104TIP3   OH2 6275   1.309   2.989   4.021
 2104TIP3    H1 6276   1.306   3.009   3.927
 2104TIP3    H2 6277   1.387   3.034   4.053
 2105TIP3   OH2 6278   0.265   2.092   4.437
 2105TIP3    H1 6279   0.347   2.119   4.478
 2105TIP3    H2 6280   0.199   2.104   4.505
 2106TIP3   OH2 6281   0.723   1.565   3.698
 2106TIP3    H1 6282   0.782   1.512   3.644
 2106TIP3    H2 6283   0.724   1.521   3.783
 2107TIP3   OH2 6284   0.246   1.032   3.574
 2107TIP3    H1 6285   0.207   0.956   3.616
 2107TIP3    H2 6286   0.336   1.005   3.555
 2108TIP3   OH2 6287   0.698   1.463   3.967
 2108TIP3    H1 6288   0.610   1.495   3.987
 2108TIP3    H2 6289   0.756   1.516   4.021
 2109TIP3   OH2 6290   0.440   1.854   3.079
 2109TIP3    H1 6291   0.384   1.777   3.070
 2109TIP3    H2 6292   0.420   1.889   3.165
 2110TIP3   OH2 6293   1.319   2.079   3.687
 2110TIP3    H1 6294   1.352   2.128   3.611
 2110TIP3    H2 6295   1.238   2.039   3.655
 2111TIP3   OH2 6296   0.931   1.151   2.952
 2111TIP3    H1 6297   0.841   1.147   2.918
 2111TIP3    H2 6298   0.945   1.244   2.971
 2112TIP3   OH2 6299   0.828   2.157   4.089
 2112TIP3    H1 6300   0.881   2.150   4.169
 2112TIP3    H2 6301   0.792   2.246   4.093
 2113TIP3   OH2 6302   0.967   1.406   3.046
 2113TIP3    H1 6303   1.061   1.418   3.060
 2113TIP3    H2 6304   0.940   1.485   2.999
 2114TIP3   OH2 6305   0.113   1.843   3.737
 2114TIP3    H1 6306   0.157   1.825   3.653
 2114TIP3    H2 6307   0.171   1.804   3.803
 2115TIP3   OH2 6308   0.589   2.000   2.901
 2115TIP3    H1 6309   0.542   2.083   2.904
 2115TIP3    H2 6310   0.539   1.942   2.959
 2116TIP3   OH2 6311   7.411   1.765   4.380
 2116TIP3    H1 6312   7.430   1.774   4.473
 2116TIP3    H2 6313   7.333   1.708   4.377
 2117TIP3   OH2 6314   0.741   1.903   4.380
 2117TIP3    H1 6315   0.676   1.848   4.336
 2117TIP3    H2 6316   0.825   1.867   4.353
 2118TIP3   OH2 6317   0.980   2.432   3.974
 2118TIP3    H1 6318   0.885   2.426   3.982
 2118TIP3    H2 6319   1.008   2.479   4.052
 2119TIP3   OH2 6320   1.379   1.494   2.876
 2119TIP3    H1 6321   1.321   1.446   2.817
 2119TIP3    H2 6322   1.384   1.582   2.839
 2120TIP3   OH2 6323   1.613   2.357   3.956
 2120TIP3    H1 6324   1.518   2.348   3.950
 2120TIP3    H2 6325   1.645   2.329   3.871
 2121TIP3   OH2 6326   1.081   2.287   2.816
 2121TIP3    H1 6327   1.082   2.268   2.910
 2121TIP3    H2 6328   1.035   2.213   2.777
 2122TIP3   OH2 6329   1.086   1.945   3.589
 2122TIP3    H1 6330   0.996   1.923   3.611
 2122TIP3    H2 6331   1.122   1.864   3.552
 2123TIP3   OH2 6332   0.232   2.178   3.390
 2123TIP3    H1 6333   0.245   2.252   3.331
 2123TIP3    H2 6334   0.137   2.167   3.394
 2124TIP3   OH2 6335   0.350   1.940   3.319
 2124TIP3    H1 6336   0.317   2.027   3.341
 2124TIP3    H2 6337   0.320   1.883   3.390
 2125TIP3   OH2 6338   0.528   2.502   3.847
 2125TIP3    H1 6339   0.563   2.576   3.798
 2125TIP3    H2 6340   0.603   2.470   3.898
 2126TIP3   OH2 6341   0.192   2.407   3.221
 2126TIP3    H1 6342   0.115   2.405   3.276
 2126TIP3    H2 6343   0.220   2.499   3.221
 2127TIP3   OH2 6344   0.874   2.156   3.817
 2127TIP3    H1 6345   0.862   2.152   3.912
 2127TIP3    H2 6346   0.955   2.107   3.801
 2128TIP3   OH2 6347   0.861   2.052   2.711
 2128TIP3    H1 6348   0.927   2.012   2.768
 2128TIP3    H2 6349   0.777   2.025   2.748
 2129TIP3   OH2 6350   1.127   2.670   3.857
 2129TIP3    H1 6351   1.051   2.612   3.860
 2129TIP3    H2 6352   1.107   2.731   3.785
 2130TIP3   OH2 6353   1.187   2.519   2.500
 2130TIP3    H1 6354   1.236   2.591   2.461
 2130TIP3    H2 6355   1.109   2.560   2.538
 2131TIP3   OH2 6356   0.205   1.302   4.384
 2131TIP3    H1 6357   0.135   1.340   4.436
 2131TIP3    H2 6358   0.250   1.243   4.444
 2132TIP3   OH2 6359   1.041   1.953   2.884
 2132TIP3    H1 6360   1.025   1.902   2.964
 2132TIP3    H2 6361   1.136   1.961   2.880
 2133TIP3   OH2 6362   0.029   2.358   4.031
 2133TIP3    H1 6363   0.061   2.283   4.082
 2133TIP3    H2 6364   0.085   2.431   4.059
 2134TIP3   OH2 6365   0.218   2.027   2.698
 2134TIP3    H1 6366   0.271   1.953   2.667
 2134TIP3    H2 6367   0.208   2.012   2.792
 2135TIP3   OH2 6368   0.181   2.013   2.970
 2135TIP3    H1 6369   0.254   1.985   3.025
 2135TIP3    H2 6370   0.179   2.108   2.980
 2136TIP3   OH2 6371   7.341   1.693   3.158
 2136TIP3    H1 6372   7.271   1.724   3.215
 2136TIP3    H2 6373   7.344   1.757   3.087
 2137TIP3   OH2 6374   1.066   1.357   4.062
 2137TIP3    H1 6375   1.143   1.400   4.099
 2137TIP3    H2 6376   1.056   1.277   4.113
 2138TIP3   OH2 6377   0.939   1.118   3.238
 2138TIP3    H1 6378   0.929   1.135   3.144
 2138TIP3    H2 6379   0.988   1.193   3.271
 2139TIP3   OH2 6380   0.438   2.223   2.907
 2139TIP3    H1 6381   0.351   2.239   2.944
 2139TIP3    H2 6382   0.458   2.301   2.856
 2140TIP3   OH2 6383   0.608   1.293   3.333
 2140TIP3    H1 6384   0.674   1.357   3.306
 2140TIP3    H2 6385   0.623   1.282   3.427
 2141TIP3   OH2 6386   0.896   1.587   4.122
 2141TIP3    H1 6387   0.922   1.634   4.201
 2141TIP3    H2 6388   0.949   1.508   4.122
 2142TIP3   OH2 6389   0.758   1.047   3.438
 2142TIP3    H1 6390   0.744   1.118   3.500
 2142TIP3    H2 6391   0.820   1.082   3.375
 2143TIP3   OH2 6392   0.180   2.286   2.978
 2143TIP3    H1 6393   0.156   2.355   2.916
 2143TIP3    H2 6394   0.179   2.330   3.064
 2144TIP3   OH2 6395   1.519   1.479   4.082
 2144TIP3    H1 6396   1.429   1.500   4.106
 2144TIP3    H2 6397   1.511   1.410   4.016
 2145TIP3   OH2 6398   1.178   1.688   3.497
 2145TIP3    H1 6399   1.100   1.633   3.510
 2145TIP3    H2 6400   1.246   1.645   3.550
 2146TIP3   OH2 6401   7.314   1.916   2.991
 2146TIP3    H1 6402   7.395   1.963   3.014
 2146TIP3    H2 6403   7.307   1.926   2.896
 2147TIP3   OH2 6404   1.155   2.657   3.435
 2147TIP3    H1 6405   1.113   2.704   3.363
 2147TIP3    H2 6406   1.249   2.672   3.421
 2148TIP3   OH2 6407   7.212   2.092   3.340
 2148TIP3    H1 6408   7.138   2.102   3.400
 2148TIP3    H2 6409   7.183   2.136   3.260
 2149TIP3   OH2 6410   7.382   2.575   4.540
 2149TIP3    H1 6411   7.459   2.631   4.551
 2149TIP3    H2 6412   7.350   2.595   4.452
 2150TIP3   OH2 6413   0.445   2.620   4.451
 2150TIP3    H1 6414   0.533   2.585   4.467
 2150TIP3    H2 6415   0.408   2.561   4.385
 2151TIP3   OH2 6416   0.384   2.217   2.581
 2151TIP3    H1 6417   0.327   2.156   2.630
 2151TIP3    H2 6418   0.455   2.162   2.548
 2152TIP3   OH2 6419   1.038   2.555   4.210
 2152TIP3    H1 6420   1.037   2.485   4.275
 2152TIP3    H2 6421   1.113   2.609   4.235
 2153TIP3   OH2 6422   0.818   2.243   2.524
 2153TIP3    H1 6423   0.843   2.179   2.590
 2153TIP3    H2 6424   0.894   2.249   2.466
 2154TIP3   OH2 6425   0.069   2.069   4.637
 2154TIP3    H1 6426   0.087   1.975   4.628
 2154TIP3    H2 6427  -0.012   2.083   4.588
 2155TIP3   OH2 6428   0.672   2.177   4.400
 2155TIP3    H1 6429   0.631   2.201   4.317
 2155TIP3    H2 6430   0.708   2.090   4.386
 2156TIP3   OH2 6431   0.530   1.934   2.639
 2156TIP3    H1 6432   0.548   1.953   2.731
 2156TIP3    H2 6433   0.549   1.840   2.630
 2157TIP3   OH2 6434   1.145   2.208   4.011
 2157TIP3    H1 6435   1.223   2.240   3.965
 2157TIP3    H2 6436   1.079   2.276   3.997
 2158TIP3   OH2 6437   0.168   1.810   4.623
 2158TIP3    H1 6438   0.246   1.800   4.568
 2158TIP3    H2 6439   0.203   1.841   4.707
 2159TIP3   OH2 6440   0.284   1.634   3.086
 2159TIP3    H1 6441   0.245   1.623   3.173
 2159TIP3    H2 6442   0.250   1.561   3.035
 2160TIP3   OH2 6443   0.522   1.713   4.280
 2160TIP3    H1 6444   0.442   1.764   4.290
 2160TIP3    H2 6445   0.561   1.745   4.199
 2161TIP3   OH2 6446   1.023   2.099   4.384
 2161TIP3    H1 6447   1.100   2.067   4.338
 2161TIP3    H2 6448   1.020   2.047   4.464
 2162TIP3   OH2 6449   1.152   1.772   2.552
 2162TIP3    H1 6450   1.143   1.731   2.466
 2162TIP3    H2 6451   1.113   1.859   2.540
 2163TIP3   OH2 6452   0.632   1.493   4.396
 2163TIP3    H1 6453   0.638   1.421   4.334
 2163TIP3    H2 6454   0.596   1.566   4.346
 2164TIP3   OH2 6455   0.638   1.294   4.195
 2164TIP3    H1 6456   0.667   1.330   4.112
 2164TIP3    H2 6457   0.546   1.273   4.182
 2165TIP3   OH2 6458   0.655   1.826   4.074
 2165TIP3    H1 6459   0.744   1.851   4.050
 2165TIP3    H2 6460   0.598   1.886   4.026
 2166TIP3   OH2 6461   1.238   1.789   4.446
 2166TIP3    H1 6462   1.287   1.707   4.455
 2166TIP3    H2 6463   1.305   1.856   4.431
 2167TIP3   OH2 6464   1.279   2.042   4.178
 2167TIP3    H1 6465   1.222   2.100   4.128
 2167TIP3    H2 6466   1.367   2.060   4.145
 2168TIP3   OH2 6467   0.515   1.595   4.632
 2168TIP3    H1 6468   0.446   1.530   4.646
 2168TIP3    H2 6469   0.550   1.575   4.545
 2169TIP3   OH2 6470   0.782   1.072   4.282
 2169TIP3    H1 6471   0.738   1.153   4.254
 2169TIP3    H2 6472   0.720   1.002   4.262
 2170TIP3   OH2 6473   0.890   1.540   4.493
 2170TIP3    H1 6474   0.879   1.530   4.588
 2170TIP3    H2 6475   0.804   1.519   4.457
 2171TIP3   OH2 6476   1.132   1.491   4.359
 2171TIP3    H1 6477   1.054   1.493   4.414
 2171TIP3    H2 6478   1.203   1.466   4.418
 2172TIP3   OH2 6479   1.373   1.452   4.505
 2172TIP3    H1 6480   1.384   1.357   4.515
 2172TIP3    H2 6481   1.365   1.485   4.594
 2173TIP3   OH2 6482   0.338   1.390   4.701
 2173TIP3    H1 6483   0.366   1.307   4.662
 2173TIP3    H2 6484   0.382   1.392   4.786
 2174TIP3   OH2 6485   0.846   1.048   4.546
 2174TIP3    H1 6486   0.916   0.983   4.540
 2174TIP3    H2 6487   0.816   1.059   4.456
 2175TIP3   OH2 6488   0.927   1.269   4.686
 2175TIP3    H1 6489   0.899   1.196   4.632
 2175TIP3    H2 6490   0.851   1.328   4.688
 2176TIP3   OH2 6491   0.171   2.493   2.796
 2176TIP3    H1 6492   0.263   2.481   2.774
 2176TIP3    H2 6493   0.137   2.548   2.726
 2177TIP3   OH2 6494   7.080   2.300   3.655
 2177TIP3    H1 6495   7.000   2.268   3.614
 2177TIP3    H2 6496   7.060   2.391   3.678
 2178TIP3   OH2 6497   1.422   2.722   3.420
 2178TIP3    H1 6498   1.443   2.753   3.508
 2178TIP3    H2 6499   1.478   2.773   3.362
 2179TIP3   OH2 6500   1.440   2.751   3.702
 2179TIP3    H1 6501   1.396   2.666   3.697
 2179TIP3    H2 6502   1.514   2.735   3.762
 2180TIP3   OH2 6503   1.488   2.438   4.275
 2180TIP3    H1 6504   1.416   2.449   4.337
 2180TIP3    H2 6505   1.532   2.524   4.274
 2181TIP3   OH2 6506   1.314   1.954   2.877
 2181TIP3    H1 6507   1.369   2.027   2.848
 2181TIP3    H2 6508   1.359   1.920   2.954
 2182TIP3   OH2 6509   1.436   1.818   3.085
 2182TIP3    H1 6510   1.370   1.778   3.142
 2182TIP3    H2 6511   1.503   1.851   3.145
 2183TIP3   OH2 6512   1.493   2.215   3.515
 2183TIP3    H1 6513   1.545   2.147   3.471
 2183TIP3    H2 6514   1.493   2.288   3.454
 2184TIP3   OH2 6515   1.303   2.507   3.711
 2184TIP3    H1 6516   1.235   2.551   3.762
 2184TIP3    H2 6517   1.255   2.465   3.639
 2185TIP3   OH2 6518   1.358   1.727   2.729
 2185TIP3    H1 6519   1.286   1.731   2.666
 2185TIP3    H2 6520   1.346   1.805   2.783
 2186TIP3   OH2 6521   1.216   1.384   2.690
 2186TIP3    H1 6522   1.186   1.407   2.602
 2186TIP3    H2 6523   1.196   1.291   2.699
 2187TIP3   OH2 6524   1.244   1.677   3.229
 2187TIP3    H1 6525   1.252   1.582   3.215
 2187TIP3    H2 6526   1.226   1.686   3.323
 2188TIP3   OH2 6527   7.281   1.742   3.983
 2188TIP3    H1 6528   7.279   1.709   3.894
 2188TIP3    H2 6529   7.374   1.742   4.006
 2189TIP3   OH2 6530   1.536   2.095   4.086
 2189TIP3    H1 6531   1.603   2.030   4.069
 2189TIP3    H2 6532   1.557   2.167   4.027
 2190TIP3   OH2 6533   1.716   1.882   4.082
 2190TIP3    H1 6534   1.641   1.837   4.122
 2190TIP3    H2 6535   1.793   1.838   4.117
 2191TIP3   OH2 6536   1.149   1.120   2.716
 2191TIP3    H1 6537   1.238   1.100   2.746
 2191TIP3    H2 6538   1.093   1.091   2.788
 2192TIP3   OH2 6539   1.246   1.405   3.112
 2192TIP3    H1 6540   1.291   1.322   3.127
 2192TIP3    H2 6541   1.292   1.444   3.037
 2193TIP3   OH2 6542   1.396   1.562   3.627
 2193TIP3    H1 6543   1.478   1.581   3.581
 2193TIP3    H2 6544   1.406   1.602   3.713
 2194TIP3   OH2 6545   1.463   1.718   3.849
 2194TIP3    H1 6546   1.390   1.747   3.904
 2194TIP3    H2 6547   1.494   1.798   3.806
 2195TIP3   OH2 6548   0.079   1.406   4.603
 2195TIP3    H1 6549   0.165   1.414   4.645
 2195TIP3    H2 6550   0.016   1.425   4.672
 2196TIP3   OH2 6551   1.927   1.319   4.398
 2196TIP3    H1 6552   1.986   1.254   4.359
 2196TIP3    H2 6553   1.891   1.367   4.324
 2197TIP3   OH2 6554   1.358   1.158   3.164
 2197TIP3    H1 6555   1.402   1.137   3.247
 2197TIP3    H2 6556   1.292   1.090   3.154
 2198TIP3   OH2 6557   0.105   1.102   3.894
 2198TIP3    H1 6558   0.038   1.106   3.962
 2198TIP3    H2 6559   0.146   1.189   3.895
 2199TIP3   OH2 6560   7.293   1.471   4.086
 2199TIP3    H1 6561   7.316   1.441   3.998
 2199TIP3    H2 6562   7.261   1.560   4.074
 2200TIP3   OH2 6563   1.783   1.447   4.206
 2200TIP3    H1 6564   1.709   1.485   4.253
 2200TIP3    H2 6565   1.744   1.379   4.151
 2201TIP3   OH2 6566   1.407   1.086   2.805
 2201TIP3    H1 6567   1.441   1.017   2.748
 2201TIP3    H2 6568   1.473   1.155   2.801
 2202TIP3   OH2 6569   0.992   2.612   3.060
 2202TIP3    H1 6570   1.050   2.605   2.984
 2202TIP3    H2 6571   1.029   2.683   3.112
 2203TIP3   OH2 6572   0.099   2.361   4.423
 2203TIP3    H1 6573   0.021   2.307   4.411
 2203TIP3    H2 6574   0.074   2.425   4.489
 2204TIP3   OH2 6575   0.302   2.465   4.001
 2204TIP3    H1 6576   0.258   2.535   3.953
 2204TIP3    H2 6577   0.391   2.463   3.965
 2205TIP3   OH2 6578   0.707   2.691   4.130
 2205TIP3    H1 6579   0.744   2.684   4.218
 2205TIP3    H2 6580   0.769   2.745   4.082
 2206TIP3   OH2 6581   0.894   2.848   4.001
 2206TIP3    H1 6582   0.962   2.794   3.961
 2206TIP3    H2 6583   0.942   2.905   4.061
 2207TIP3   OH2 6584   1.687   1.191   4.096
 2207TIP3    H1 6585   1.600   1.180   4.059
 2207TIP3    H2 6586   1.728   1.105   4.087
 2208TIP3   OH2 6587   7.382   2.679   3.999
 2208TIP3    H1 6588   7.299   2.639   4.024
 2208TIP3    H2 6589   7.414   2.720   4.079
 2209TIP3   OH2 6590   0.214   2.675   3.854
 2209TIP3    H1 6591   0.131   2.694   3.897
 2209TIP3    H2 6592   0.197   2.687   3.761
 2210TIP3   OH2 6593   0.607   2.710   3.680
 2210TIP3    H1 6594   0.542   2.724   3.611
 2210TIP3    H2 6595   0.620   2.797   3.719
 2211TIP3   OH2 6596   0.870   2.644   3.730
 2211TIP3    H1 6597   0.778   2.664   3.712
 2211TIP3    H2 6598   0.919   2.713   3.687
 2212TIP3   OH2 6599   1.066   2.826   3.634
 2212TIP3    H1 6600   1.062   2.913   3.594
 2212TIP3    H2 6601   1.097   2.769   3.564
 2213TIP3   OH2 6602   7.327   2.550   3.754
 2213TIP3    H1 6603   7.365   2.552   3.842
 2213TIP3    H2 6604   7.377   2.482   3.708
 2214TIP3   OH2 6605   0.085   2.359   3.648
 2214TIP3    H1 6606   0.091   2.273   3.690
 2214TIP3    H2 6607   0.176   2.390   3.642
 2215TIP3   OH2 6608   0.349   2.453   3.640
 2215TIP3    H1 6609   0.369   2.361   3.626
 2215TIP3    H2 6610   0.401   2.479   3.716
 2216TIP3   OH2 6611   0.939   1.165   3.683
 2216TIP3    H1 6612   0.909   1.093   3.738
 2216TIP3    H2 6613   0.997   1.124   3.619
 2217TIP3   OH2 6614   1.405   1.040   3.635
 2217TIP3    H1 6615   1.443   1.081   3.557
 2217TIP3    H2 6616   1.311   1.052   3.625
 2218TIP3   OH2 6617   1.513   1.091   3.387
 2218TIP3    H1 6618   1.581   1.034   3.352
 2218TIP3    H2 6619   1.547   1.179   3.375
 2219TIP3   OH2 6620   0.518   0.974   3.589
 2219TIP3    H1 6621   0.595   0.990   3.535
 2219TIP3    H2 6622   0.548   0.913   3.657
 2220TIP3   OH2 6623   1.129   0.992   3.569
 2220TIP3    H1 6624   1.177   0.946   3.499
 2220TIP3    H2 6625   1.132   0.933   3.643
 2221TIP3   OH2 6626   1.165   0.962   3.156
 2221TIP3    H1 6627   1.079   1.001   3.171
 2221TIP3    H2 6628   1.160   0.877   3.200
 2222TIP3   OH2 6629   7.046   2.240   3.162
 2222TIP3    H1 6630   6.995   2.207   3.088
 2222TIP3    H2 6631   7.065   2.331   3.140
 2223TIP3   OH2 6632   0.551   1.016   3.261
 2223TIP3    H1 6633   0.618   1.011   3.330
 2223TIP3    H2 6634   0.541   1.110   3.245
 2224TIP3   OH2 6635   0.432   2.441   2.733
 2224TIP3    H1 6636   0.517   2.471   2.700
 2224TIP3    H2 6637   0.406   2.372   2.673
 2225TIP3   OH2 6638   1.140   2.563   2.825
 2225TIP3    H1 6639   1.126   2.469   2.816
 2225TIP3    H2 6640   1.092   2.602   2.752
 2226TIP3   OH2 6641   6.035   6.817   1.871
 2226TIP3    H1 6642   6.010   6.745   1.928
 2226TIP3    H2 6643   6.077   6.775   1.796
 2227TIP3   OH2 6644   0.630   1.088   4.760
 2227TIP3    H1 6645   0.690   1.086   4.685
 2227TIP3    H2 6646   0.646   1.005   4.805
 2228TIP3   OH2 6647   7.245   2.389   2.883
 2228TIP3    H1 6648   7.162   2.342   2.891
 2228TIP3    H2 6649   7.309   2.321   2.861
 2229TIP3   OH2 6650   1.433   1.180   4.524
 2229TIP3    H1 6651   1.448   1.151   4.613
 2229TIP3    H2 6652   1.519   1.175   4.482
 2230TIP3   OH2 6653   1.351   2.715   4.022
 2230TIP3    H1 6654   1.275   2.686   3.973
 2230TIP3    H2 6655   1.339   2.810   4.032
 2231TIP3   OH2 6656   2.629   2.103   2.770
 2231TIP3    H1 6657   2.600   2.191   2.747
 2231TIP3    H2 6658   2.557   2.046   2.742
 2232TIP3   OH2 6659   2.630   2.089   3.178
 2232TIP3    H1 6660   2.674   2.077   3.262
 2232TIP3    H2 6661   2.584   2.007   3.163
 2233TIP3   OH2 6662   1.925   1.978   3.531
 2233TIP3    H1 6663   1.959   1.918   3.597
 2233TIP3    H2 6664   2.002   2.002   3.479
 2234TIP3   OH2 6665   2.888   2.401   2.860
 2234TIP3    H1 6666   2.875   2.337   2.931
 2234TIP3    H2 6667   2.911   2.482   2.905
 2235TIP3   OH2 6668   1.909   2.389   3.237
 2235TIP3    H1 6669   1.896   2.294   3.237
 2235TIP3    H2 6670   2.004   2.400   3.226
 2236TIP3   OH2 6671   1.598   1.588   3.028
 2236TIP3    H1 6672   1.561   1.675   3.046
 2236TIP3    H2 6673   1.528   1.541   2.982
 2237TIP3   OH2 6674   1.669   1.884   3.220
 2237TIP3    H1 6675   1.719   1.808   3.251
 2237TIP3    H2 6676   1.733   1.938   3.174
 2238TIP3   OH2 6677   2.537   2.844   2.871
 2238TIP3    H1 6678   2.572   2.774   2.816
 2238TIP3    H2 6679   2.535   2.807   2.959
 2239TIP3   OH2 6680   2.426   2.315   3.204
 2239TIP3    H1 6681   2.465   2.240   3.160
 2239TIP3    H2 6682   2.501   2.366   3.236
 2240TIP3   OH2 6683   3.457   1.640   3.212
 2240TIP3    H1 6684   3.476   1.723   3.255
 2240TIP3    H2 6685   3.475   1.657   3.119
 2241TIP3   OH2 6686   2.845   1.807   3.234
 2241TIP3    H1 6687   2.881   1.722   3.258
 2241TIP3    H2 6688   2.806   1.793   3.148
 2242TIP3   OH2 6689   2.189   1.467   3.189
 2242TIP3    H1 6690   2.169   1.541   3.133
 2242TIP3    H2 6691   2.137   1.395   3.153
 2243TIP3   OH2 6692   2.888   1.567   2.827
 2243TIP3    H1 6693   2.953   1.558   2.897
 2243TIP3    H2 6694   2.936   1.603   2.753
 2244TIP3   OH2 6695   1.816   1.672   3.324
 2244TIP3    H1 6696   1.901   1.660   3.365
 2244TIP3    H2 6697   1.821   1.623   3.242
 2245TIP3   OH2 6698   2.244   1.876   3.132
 2245TIP3    H1 6699   2.338   1.858   3.137
 2245TIP3    H2 6700   2.206   1.797   3.093
 2246TIP3   OH2 6701   3.519   1.855   3.383
 2246TIP3    H1 6702   3.435   1.899   3.370
 2246TIP3    H2 6703   3.556   1.896   3.461
 2247TIP3   OH2 6704   2.170   1.471   3.654
 2247TIP3    H1 6705   2.120   1.504   3.580
 2247TIP3    H2 6706   2.117   1.491   3.730
 2248TIP3   OH2 6707   2.527   2.321   2.627
 2248TIP3    H1 6708   2.480   2.287   2.550
 2248TIP3    H2 6709   2.474   2.395   2.656
 2249TIP3   OH2 6710   2.276   2.238   3.425
 2249TIP3    H1 6711   2.222   2.309   3.459
 2249TIP3    H2 6712   2.324   2.278   3.352
 2250TIP3   OH2 6713   3.060   1.580   3.040
 2250TIP3    H1 6714   3.019   1.558   3.124
 2250TIP3    H2 6715   3.114   1.656   3.060
 2251TIP3   OH2 6716   2.063   1.571   3.417
 2251TIP3    H1 6717   2.119   1.646   3.438
 2251TIP3    H2 6718   2.106   1.530   3.342
 2252TIP3   OH2 6719   2.116   2.442   3.525
 2252TIP3    H1 6720   2.101   2.530   3.490
 2252TIP3    H2 6721   2.036   2.423   3.575
 2253TIP3   OH2 6722   1.483   2.144   2.771
 2253TIP3    H1 6723   1.554   2.101   2.724
 2253TIP3    H2 6724   1.520   2.228   2.799
 2254TIP3   OH2 6725   2.936   2.644   3.003
 2254TIP3    H1 6726   2.850   2.635   3.044
 2254TIP3    H2 6727   2.933   2.730   2.960
 2255TIP3   OH2 6728   3.252   1.524   3.374
 2255TIP3    H1 6729   3.165   1.552   3.344
 2255TIP3    H2 6730   3.312   1.557   3.307
 2256TIP3   OH2 6731   2.521   1.168   3.371
 2256TIP3    H1 6732   2.508   1.075   3.389
 2256TIP3    H2 6733   2.447   1.211   3.412
 2257TIP3   OH2 6734   2.640   2.678   2.670
 2257TIP3    H1 6735   2.691   2.599   2.656
 2257TIP3    H2 6736   2.695   2.749   2.636
 2258TIP3   OH2 6737   2.778   2.449   2.610
 2258TIP3    H1 6738   2.702   2.390   2.609
 2258TIP3    H2 6739   2.826   2.426   2.689
 2259TIP3   OH2 6740   3.165   2.540   3.355
 2259TIP3    H1 6741   3.150   2.467   3.295
 2259TIP3    H2 6742   3.147   2.618   3.302
 2260TIP3   OH2 6743   2.455   1.944   2.620
 2260TIP3    H1 6744   2.366   1.980   2.608
 2260TIP3    H2 6745   2.494   1.947   2.533
 2261TIP3   OH2 6746   2.428   1.753   2.313
 2261TIP3    H1 6747   2.493   1.801   2.364
 2261TIP3    H2 6748   2.477   1.686   2.267
 2262TIP3   OH2 6749   3.354   2.194   3.209
 2262TIP3    H1 6750   3.271   2.242   3.213
 2262TIP3    H2 6751   3.388   2.213   3.121
 2263TIP3   OH2 6752   2.814   2.033   2.582
 2263TIP3    H1 6753   2.758   2.061   2.654
 2263TIP3    H2 6754   2.896   2.008   2.624
 2264TIP3   OH2 6755   3.039   2.064   3.510
 2264TIP3    H1 6756   3.038   2.147   3.558
 2264TIP3    H2 6757   2.956   2.062   3.464
 2265TIP3   OH2 6758   2.040   2.012   2.982
 2265TIP3    H1 6759   2.018   1.965   2.902
 2265TIP3    H2 6760   2.114   1.964   3.019
 2266TIP3   OH2 6761   2.171   2.435   3.134
 2266TIP3    H1 6762   2.153   2.414   3.042
 2266TIP3    H2 6763   2.258   2.398   3.150
 2267TIP3   OH2 6764   2.147   2.005   3.359
 2267TIP3    H1 6765   2.185   1.970   3.278
 2267TIP3    H2 6766   2.197   2.084   3.377
 2268TIP3   OH2 6767   2.700   2.630   3.134
 2268TIP3    H1 6768   2.685   2.714   3.179
 2268TIP3    H2 6769   2.681   2.564   3.201
 2269TIP3   OH2 6770   2.320   2.542   3.687
 2269TIP3    H1 6771   2.269   2.603   3.739
 2269TIP3    H2 6772   2.256   2.497   3.632
 2270TIP3   OH2 6773   2.651   1.890   2.413
 2270TIP3    H1 6774   2.707   1.949   2.462
 2270TIP3    H2 6775   2.678   1.901   2.322
 2271TIP3   OH2 6776   2.060   2.083   3.831
 2271TIP3    H1 6777   2.071   2.177   3.843
 2271TIP3    H2 6778   1.966   2.071   3.820
 2272TIP3   OH2 6779   2.391   2.560   2.673
 2272TIP3    H1 6780   2.473   2.609   2.682
 2272TIP3    H2 6781   2.331   2.623   2.633
 2273TIP3   OH2 6782   2.102   2.699   3.764
 2273TIP3    H1 6783   2.076   2.710   3.672
 2273TIP3    H2 6784   2.021   2.683   3.810
 2274TIP3   OH2 6785   3.156   1.114   2.459
 2274TIP3    H1 6786   3.079   1.133   2.513
 2274TIP3    H2 6787   3.170   1.195   2.409
 2275TIP3   OH2 6788   2.970   2.493   2.016
 2275TIP3    H1 6789   2.970   2.587   2.002
 2275TIP3    H2 6790   3.060   2.466   1.998
 2276TIP3   OH2 6791   1.688   2.253   3.716
 2276TIP3    H1 6792   1.621   2.239   3.650
 2276TIP3    H2 6793   1.724   2.166   3.733
 2277TIP3   OH2 6794   1.546   2.444   3.356
 2277TIP3    H1 6795   1.641   2.450   3.351
 2277TIP3    H2 6796   1.519   2.524   3.401
 2278TIP3   OH2 6797   3.405   2.883   3.416
 2278TIP3    H1 6798   3.404   2.789   3.433
 2278TIP3    H2 6799   3.323   2.915   3.455
 2279TIP3   OH2 6800   2.501   2.702   3.553
 2279TIP3    H1 6801   2.512   2.784   3.600
 2279TIP3    H2 6802   2.436   2.654   3.604
 2280TIP3   OH2 6803   2.279   2.793   2.495
 2280TIP3    H1 6804   2.231   2.776   2.414
 2280TIP3    H2 6805   2.246   2.878   2.525
 2281TIP3   OH2 6806   1.715   2.648   2.878
 2281TIP3    H1 6807   1.762   2.641   2.961
 2281TIP3    H2 6808   1.669   2.565   2.869
 2282TIP3   OH2 6809   2.478   2.714   2.124
 2282TIP3    H1 6810   2.531   2.642   2.089
 2282TIP3    H2 6811   2.512   2.728   2.212
 2283TIP3   OH2 6812   2.532   2.761   2.393
 2283TIP3    H1 6813   2.447   2.765   2.437
 2283TIP3    H2 6814   2.593   2.733   2.460
 2284TIP3   OH2 6815   3.286   2.021   3.690
 2284TIP3    H1 6816   3.206   2.035   3.639
 2284TIP3    H2 6817   3.304   1.927   3.680
 2285TIP3   OH2 6818   1.891   2.438   3.683
 2285TIP3    H1 6819   1.936   2.436   3.768
 2285TIP3    H2 6820   1.818   2.376   3.693
 2286TIP3   OH2 6821   2.283   1.256   3.498
 2286TIP3    H1 6822   2.198   1.227   3.465
 2286TIP3    H2 6823   2.264   1.338   3.544
 2287TIP3   OH2 6824   2.826   1.369   3.692
 2287TIP3    H1 6825   2.895   1.344   3.754
 2287TIP3    H2 6826   2.744   1.348   3.738
 2288TIP3   OH2 6827   3.054   1.799   3.592
 2288TIP3    H1 6828   3.014   1.795   3.678
 2288TIP3    H2 6829   3.035   1.887   3.560
 2289TIP3   OH2 6830   2.728   1.891   2.150
 2289TIP3    H1 6831   2.684   1.886   2.065
 2289TIP3    H2 6832   2.807   1.942   2.133
 2290TIP3   OH2 6833   2.438   1.291   2.459
 2290TIP3    H1 6834   2.404   1.299   2.548
 2290TIP3    H2 6835   2.394   1.213   2.424
 2291TIP3   OH2 6836   2.217   1.781   3.509
 2291TIP3    H1 6837   2.171   1.793   3.591
 2291TIP3    H2 6838   2.200   1.861   3.459
 2292TIP3   OH2 6839   2.103   1.664   3.021
 2292TIP3    H1 6840   2.011   1.644   3.042
 2292TIP3    H2 6841   2.111   1.645   2.928
 2293TIP3   OH2 6842   2.589   1.747   2.755
 2293TIP3    H1 6843   2.538   1.817   2.714
 2293TIP3    H2 6844   2.644   1.713   2.684
 2294TIP3   OH2 6845   2.785   2.014   3.810
 2294TIP3    H1 6846   2.764   1.950   3.878
 2294TIP3    H2 6847   2.875   2.040   3.829
 2295TIP3   OH2 6848   2.748   1.756   2.984
 2295TIP3    H1 6849   2.683   1.785   2.920
 2295TIP3    H2 6850   2.790   1.682   2.942
 2296TIP3   OH2 6851   2.046   1.811   3.725
 2296TIP3    H1 6852   2.059   1.888   3.781
 2296TIP3    H2 6853   2.026   1.741   3.787
 2297TIP3   OH2 6854   2.088   1.276   2.449
 2297TIP3    H1 6855   2.077   1.276   2.544
 2297TIP3    H2 6856   2.034   1.349   2.419
 2298TIP3   OH2 6857   1.636   1.318   3.314
 2298TIP3    H1 6858   1.711   1.356   3.360
 2298TIP3    H2 6859   1.669   1.302   3.225
 2299TIP3   OH2 6860   1.577   1.306   2.814
 2299TIP3    H1 6861   1.618   1.342   2.736
 2299TIP3    H2 6862   1.513   1.372   2.841
 2300TIP3   OH2 6863   2.781   2.008   3.404
 2300TIP3    H1 6864   2.808   1.941   3.340
 2300TIP3    H2 6865   2.738   1.958   3.473
 2301TIP3   OH2 6866   2.457   1.458   3.082
 2301TIP3    H1 6867   2.375   1.460   3.132
 2301TIP3    H2 6868   2.525   1.457   3.149
 2302TIP3   OH2 6869   1.863   1.536   3.092
 2302TIP3    H1 6870   1.775   1.542   3.055
 2302TIP3    H2 6871   1.894   1.450   3.065
 2303TIP3   OH2 6872   2.117   1.583   2.755
 2303TIP3    H1 6873   2.210   1.597   2.735
 2303TIP3    H2 6874   2.073   1.661   2.720
 2304TIP3   OH2 6875   2.922   1.544   3.287
 2304TIP3    H1 6876   2.900   1.563   3.378
 2304TIP3    H2 6877   2.852   1.486   3.257
 2305TIP3   OH2 6878   3.157   3.224   3.453
 2305TIP3    H1 6879   3.129   3.267   3.373
 2305TIP3    H2 6880   3.247   3.254   3.467
 2306TIP3   OH2 6881   2.055   2.345   3.928
 2306TIP3    H1 6882   2.135   2.380   3.967
 2306TIP3    H2 6883   1.986   2.368   3.990
 2307TIP3   OH2 6884   2.516   1.816   3.186
 2307TIP3    H1 6885   2.584   1.770   3.137
 2307TIP3    H2 6886   2.515   1.774   3.272
 2308TIP3   OH2 6887   2.013   1.294   3.055
 2308TIP3    H1 6888   1.985   1.214   3.100
 2308TIP3    H2 6889   2.031   1.265   2.965
 2309TIP3   OH2 6890   2.485   1.718   3.458
 2309TIP3    H1 6891   2.398   1.750   3.479
 2309TIP3    H2 6892   2.544   1.772   3.510
 2310TIP3   OH2 6893   2.207   2.070   2.582
 2310TIP3    H1 6894   2.143   2.000   2.596
 2310TIP3    H2 6895   2.202   2.123   2.662
 2311TIP3   OH2 6896   3.118   2.333   3.176
 2311TIP3    H1 6897   3.149   2.386   3.102
 2311TIP3    H2 6898   3.035   2.296   3.146
 2312TIP3   OH2 6899   2.687   1.400   2.452
 2312TIP3    H1 6900   2.594   1.377   2.453
 2312TIP3    H2 6901   2.688   1.494   2.470
 2313TIP3   OH2 6902   2.618   2.423   3.580
 2313TIP3    H1 6903   2.672   2.424   3.660
 2313TIP3    H2 6904   2.577   2.510   3.579
 2314TIP3   OH2 6905   2.747   1.660   2.537
 2314TIP3    H1 6906   2.842   1.667   2.548
 2314TIP3    H2 6907   2.723   1.738   2.487
 2315TIP3   OH2 6908   1.919   2.105   3.214
 2315TIP3    H1 6909   1.952   2.083   3.127
 2315TIP3    H2 6910   1.984   2.069   3.274
 2316TIP3   OH2 6911   2.357   2.230   2.411
 2316TIP3    H1 6912   2.312   2.314   2.410
 2316TIP3    H2 6913   2.301   2.173   2.464
 2317TIP3   OH2 6914   1.790   2.019   3.849
 2317TIP3    H1 6915   1.790   1.988   3.939
 2317TIP3    H2 6916   1.715   1.975   3.808
 2318TIP3   OH2 6917   2.540   2.142   3.882
 2318TIP3    H1 6918   2.470   2.088   3.844
 2318TIP3    H2 6919   2.619   2.115   3.835
 2319TIP3   OH2 6920   2.766   2.675   3.449
 2319TIP3    H1 6921   2.671   2.683   3.460
 2319TIP3    H2 6922   2.803   2.719   3.526
 2320TIP3   OH2 6923   3.172   1.748   2.361
 2320TIP3    H1 6924   3.118   1.700   2.298
 2320TIP3    H2 6925   3.174   1.838   2.328
 2321TIP3   OH2 6926   3.414   2.596   3.451
 2321TIP3    H1 6927   3.319   2.596   3.442
 2321TIP3    H2 6928   3.447   2.575   3.363
 2322TIP3   OH2 6929   2.898   2.566   2.287
 2322TIP3    H1 6930   2.868   2.502   2.351
 2322TIP3    H2 6931   2.910   2.516   2.206
 2323TIP3   OH2 6932   2.884   2.201   3.078
 2323TIP3    H1 6933   2.794   2.180   3.101
 2323TIP3    H2 6934   2.918   2.120   3.039
 2324TIP3   OH2 6935   2.024   2.435   2.876
 2324TIP3    H1 6936   2.023   2.512   2.820
 2324TIP3    H2 6937   1.932   2.418   2.896
 2325TIP3   OH2 6938   1.574   1.723   2.554
 2325TIP3    H1 6939   1.620   1.804   2.576
 2325TIP3    H2 6940   1.500   1.720   2.615
 2326TIP3   OH2 6941   2.161   2.204   2.813
 2326TIP3    H1 6942   2.121   2.289   2.832
 2326TIP3    H2 6943   2.117   2.143   2.873
 2327TIP3   OH2 6944   2.315   2.763   3.340
 2327TIP3    H1 6945   2.351   2.834   3.287
 2327TIP3    H2 6946   2.386   2.739   3.400
 2328TIP3   OH2 6947   1.943   2.665   2.723
 2328TIP3    H1 6948   1.858   2.670   2.767
 2328TIP3    H2 6949   1.978   2.753   2.727
 2329TIP3   OH2 6950   2.667   2.406   3.308
 2329TIP3    H1 6951   2.654   2.409   3.403
 2329TIP3    H2 6952   2.755   2.368   3.298
 2330TIP3   OH2 6953   2.655   2.298   2.178
 2330TIP3    H1 6954   2.711   2.270   2.251
 2330TIP3    H2 6955   2.569   2.263   2.198
 2331TIP3   OH2 6956   2.925   2.919   3.337
 2331TIP3    H1 6957   2.845   2.868   3.349
 2331TIP3    H2 6958   2.902   2.987   3.274
 2332TIP3   OH2 6959   2.984   2.769   1.989
 2332TIP3    H1 6960   3.021   2.839   1.935
 2332TIP3    H2 6961   2.907   2.808   2.031
 2333TIP3   OH2 6962   1.996   1.564   3.906
 2333TIP3    H1 6963   1.901   1.557   3.894
 2333TIP3    H2 6964   2.021   1.481   3.948
 2334TIP3   OH2 6965   2.833   2.208   2.366
 2334TIP3    H1 6966   2.817   2.160   2.447
 2334TIP3    H2 6967   2.928   2.217   2.361
 2335TIP3   OH2 6968   1.736   2.647   3.494
 2335TIP3    H1 6969   1.791   2.583   3.541
 2335TIP3    H2 6970   1.758   2.731   3.535
 2336TIP3   OH2 6971   2.006   2.269   2.182
 2336TIP3    H1 6972   2.019   2.177   2.161
 2336TIP3    H2 6973   1.987   2.270   2.276
 2337TIP3   OH2 6974   1.946   2.279   2.451
 2337TIP3    H1 6975   2.004   2.238   2.514
 2337TIP3    H2 6976   1.955   2.373   2.468
 2338TIP3   OH2 6977   1.686   1.965   2.665
 2338TIP3    H1 6978   1.707   1.922   2.748
 2338TIP3    H2 6979   1.770   1.980   2.623
 2339TIP3   OH2 6980   2.855   1.604   3.548
 2339TIP3    H1 6981   2.935   1.646   3.581
 2339TIP3    H2 6982   2.845   1.526   3.602
 2340TIP3   OH2 6983   2.744   1.349   2.726
 2340TIP3    H1 6984   2.721   1.369   2.636
 2340TIP3    H2 6985   2.783   1.430   2.759
 2341TIP3   OH2 6986   2.225   2.467   2.398
 2341TIP3    H1 6987   2.141   2.491   2.436
 2341TIP3    H2 6988   2.253   2.544   2.349
 2342TIP3   OH2 6989   2.411   1.548   2.821
 2342TIP3    H1 6990   2.471   1.619   2.800
 2342TIP3    H2 6991   2.422   1.533   2.915
 2343TIP3   OH2 6992   2.691   1.841   3.603
 2343TIP3    H1 6993   2.723   1.891   3.678
 2343TIP3    H2 6994   2.744   1.762   3.603
 2344TIP3   OH2 6995   2.562   1.253   2.917
 2344TIP3    H1 6996   2.536   1.330   2.968
 2344TIP3    H2 6997   2.627   1.286   2.855
 2345TIP3   OH2 6998   1.973   2.552   2.474
 2345TIP3    H1 6999   1.952   2.622   2.412
 2345TIP3    H2 7000   1.962   2.592   2.560
 2346TIP3   OH2 7001   2.084   1.304   2.733
 2346TIP3    H1 7002   2.080   1.399   2.743
 2346TIP3    H2 7003   2.178   1.284   2.730
 2347TIP3   OH2 7004   3.320   1.753   3.601
 2347TIP3    H1 7005   3.224   1.754   3.600
 2347TIP3    H2 7006   3.344   1.722   3.513
 2348TIP3   OH2 7007   2.974   1.943   2.983
 2348TIP3    H1 7008   2.895   1.891   2.996
 2348TIP3    H2 7009   3.040   1.901   3.038
 2349TIP3   OH2 7010   1.673   2.205   2.370
 2349TIP3    H1 7011   1.745   2.256   2.408
 2349TIP3    H2 7012   1.711   2.118   2.355
 2350TIP3   OH2 7013   1.627   1.444   2.584
 2350TIP3    H1 7014   1.635   1.539   2.580
 2350TIP3    H2 7015   1.568   1.422   2.512
 2351TIP3   OH2 7016   2.952   2.911   2.920
 2351TIP3    H1 7017   2.910   2.959   2.849
 2351TIP3    H2 7018   3.045   2.927   2.908
 2352TIP3   OH2 7019   2.020   1.169   3.455
 2352TIP3    H1 7020   1.992   1.140   3.368
 2352TIP3    H2 7021   2.009   1.093   3.511
 2353TIP3   OH2 7022   1.555   2.417   2.853
 2353TIP3    H1 7023   1.506   2.450   2.929
 2353TIP3    H2 7024   1.511   2.456   2.778
 2354TIP3   OH2 7025   1.731   2.958   3.914
 2354TIP3    H1 7026   1.812   2.964   3.964
 2354TIP3    H2 7027   1.714   2.864   3.909
 2355TIP3   OH2 7028   2.191   2.889   3.950
 2355TIP3    H1 7029   2.285   2.879   3.966
 2355TIP3    H2 7030   2.171   2.825   3.882
 2356TIP3   OH2 7031   2.170   2.465   2.078
 2356TIP3    H1 7032   2.120   2.398   2.124
 2356TIP3    H2 7033   2.249   2.419   2.047
 2357TIP3   OH2 7034   2.843   2.790   3.679
 2357TIP3    H1 7035   2.821   2.741   3.757
 2357TIP3    H2 7036   2.897   2.863   3.711
 2358TIP3   OH2 7037   2.614   2.507   2.003
 2358TIP3    H1 7038   2.644   2.442   2.067
 2358TIP3    H2 7039   2.677   2.502   1.932
 2359TIP3   OH2 7040   1.843   2.351   4.111
 2359TIP3    H1 7041   1.855   2.256   4.120
 2359TIP3    H2 7042   1.758   2.360   4.069
 2360TIP3   OH2 7043   1.822   1.970   2.319
 2360TIP3    H1 7044   1.866   1.931   2.394
 2360TIP3    H2 7045   1.891   1.984   2.255
 2361TIP3   OH2 7046   2.470   2.421   3.887
 2361TIP3    H1 7047   2.428   2.449   3.805
 2361TIP3    H2 7048   2.502   2.333   3.868
 2362TIP3   OH2 7049   2.375   2.195   2.136
 2362TIP3    H1 7050   2.358   2.203   2.230
 2362TIP3    H2 7051   2.367   2.101   2.119
 2363TIP3   OH2 7052   2.938   2.457   3.493
 2363TIP3    H1 7053   3.016   2.494   3.452
 2363TIP3    H2 7054   2.870   2.523   3.480
 2364TIP3   OH2 7055   1.954   2.089   4.117
 2364TIP3    H1 7056   2.018   2.098   4.046
 2364TIP3    H2 7057   2.000   2.121   4.195
 2365TIP3   OH2 7058   2.322   1.977   3.800
 2365TIP3    H1 7059   2.236   2.019   3.802
 2365TIP3    H2 7060   2.355   1.995   3.712
 2366TIP3   OH2 7061   2.176   1.624   2.340
 2366TIP3    H1 7062   2.126   1.676   2.277
 2366TIP3    H2 7063   2.258   1.672   2.353
 2367TIP3   OH2 7064   2.818   2.354   3.886
 2367TIP3    H1 7065   2.891   2.324   3.831
 2367TIP3    H2 7066   2.814   2.292   3.958
 2368TIP3   OH2 7067   2.952   2.014   2.039
 2368TIP3    H1 7068   2.935   1.972   1.955
 2368TIP3    H2 7069   2.924   2.104   2.027
 2369TIP3   OH2 7070   2.445   1.515   3.663
 2369TIP3    H1 7071   2.467   1.576   3.592
 2369TIP3    H2 7072   2.349   1.514   3.664
 2370TIP3   OH2 7073   2.440   2.076   3.574
 2370TIP3    H1 7074   2.529   2.102   3.550
 2370TIP3    H2 7075   2.383   2.136   3.527
 2371TIP3   OH2 7076   3.043   2.053   3.931
 2371TIP3    H1 7077   3.098   1.974   3.924
 2371TIP3    H2 7078   3.104   2.125   3.914
 2372TIP3   OH2 7079   3.069   2.297   3.668
 2372TIP3    H1 7080   3.012   2.354   3.617
 2372TIP3    H2 7081   3.157   2.316   3.636
 2373TIP3   OH2 7082   2.563   1.297   3.773
 2373TIP3    H1 7083   2.526   1.376   3.734
 2373TIP3    H2 7084   2.497   1.230   3.760
 2374TIP3   OH2 7085   2.730   1.816   3.989
 2374TIP3    H1 7086   2.762   1.804   4.078
 2374TIP3    H2 7087   2.638   1.790   3.993
 2375TIP3   OH2 7088   2.950   1.747   3.833
 2375TIP3    H1 7089   2.873   1.759   3.889
 2375TIP3    H2 7090   3.021   1.725   3.893
 2376TIP3   OH2 7091   3.169   1.706   4.000
 2376TIP3    H1 7092   3.182   1.611   4.008
 2376TIP3    H2 7093   3.158   1.736   4.090
 2377TIP3   OH2 7094   2.641   1.297   4.035
 2377TIP3    H1 7095   2.709   1.229   4.030
 2377TIP3    H2 7096   2.606   1.303   3.946
 2378TIP3   OH2 7097   2.689   1.517   4.190
 2378TIP3    H1 7098   2.697   1.443   4.129
 2378TIP3    H2 7099   2.595   1.530   4.201
 2379TIP3   OH2 7100   1.959   2.753   2.283
 2379TIP3    H1 7101   2.051   2.738   2.262
 2379TIP3    H2 7102   1.925   2.805   2.210
 2380TIP3   OH2 7103   1.342   2.727   2.922
 2380TIP3    H1 7104   1.281   2.670   2.876
 2380TIP3    H2 7105   1.387   2.669   2.983
 2381TIP3   OH2 7106   1.481   2.569   3.101
 2381TIP3    H1 7107   1.472   2.503   3.169
 2381TIP3    H2 7108   1.533   2.638   3.141
 2382TIP3   OH2 7109   3.220   2.974   2.910
 2382TIP3    H1 7110   3.233   2.995   3.003
 2382TIP3    H2 7111   3.258   3.048   2.863
 2383TIP3   OH2 7112   3.238   3.004   3.185
 2383TIP3    H1 7113   3.199   2.917   3.193
 2383TIP3    H2 7114   3.305   3.007   3.254
 2384TIP3   OH2 7115   3.290   2.692   3.759
 2384TIP3    H1 7116   3.211   2.702   3.813
 2384TIP3    H2 7117   3.330   2.779   3.759
 2385TIP3   OH2 7118   3.113   2.209   2.370
 2385TIP3    H1 7119   3.171   2.280   2.342
 2385TIP3    H2 7120   3.155   2.173   2.447
 2386TIP3   OH2 7121   3.238   2.068   2.573
 2386TIP3    H1 7122   3.170   2.032   2.630
 2386TIP3    H2 7123   3.301   2.108   2.633
 2387TIP3   OH2 7124   3.290   2.476   3.006
 2387TIP3    H1 7125   3.340   2.410   2.958
 2387TIP3    H2 7126   3.286   2.551   2.946
 2388TIP3   OH2 7127   3.102   2.758   3.200
 2388TIP3    H1 7128   3.035   2.807   3.249
 2388TIP3    H2 7129   3.054   2.718   3.128
 2389TIP3   OH2 7130   3.157   1.985   2.218
 2389TIP3    H1 7131   3.086   1.986   2.154
 2389TIP3    H2 7132   3.141   2.062   2.273
 2390TIP3   OH2 7133   3.028   1.636   2.157
 2390TIP3    H1 7134   2.976   1.683   2.092
 2390TIP3    H2 7135   3.010   1.543   2.139
 2391TIP3   OH2 7136   3.040   1.933   2.715
 2391TIP3    H1 7137   3.042   1.838   2.704
 2391TIP3    H2 7138   3.020   1.946   2.808
 2392TIP3   OH2 7139   1.660   1.995   3.471
 2392TIP3    H1 7140   1.652   1.962   3.381
 2392TIP3    H2 7141   1.754   2.000   3.486
 2393TIP3   OH2 7142   3.325   2.351   3.579
 2393TIP3    H1 7143   3.391   2.285   3.556
 2393TIP3    H2 7144   3.346   2.425   3.523
 2394TIP3   OH2 7145   3.500   2.139   3.564
 2394TIP3    H1 7146   3.426   2.100   3.612
 2394TIP3    H2 7147   3.575   2.085   3.587
 2395TIP3   OH2 7148   2.975   1.364   2.128
 2395TIP3    H1 7149   3.032   1.345   2.203
 2395TIP3    H2 7150   2.889   1.332   2.156
 2396TIP3   OH2 7151   3.036   1.655   2.600
 2396TIP3    H1 7152   3.080   1.570   2.612
 2396TIP3    H2 7153   3.081   1.695   2.526
 2397TIP3   OH2 7154   3.190   1.815   3.118
 2397TIP3    H1 7155   3.271   1.836   3.070
 2397TIP3    H2 7156   3.201   1.856   3.203
 2398TIP3   OH2 7157   3.263   1.971   3.344
 2398TIP3    H1 7158   3.187   2.001   3.394
 2398TIP3    H2 7159   3.294   2.049   3.299
 2399TIP3   OH2 7160   1.932   1.689   4.162
 2399TIP3    H1 7161   1.959   1.664   4.073
 2399TIP3    H2 7162   1.885   1.612   4.194
 2400TIP3   OH2 7163   3.723   1.567   3.891
 2400TIP3    H1 7164   3.784   1.508   3.846
 2400TIP3    H2 7165   3.684   1.618   3.820
 2401TIP3   OH2 7166   3.151   1.401   2.644
 2401TIP3    H1 7167   3.193   1.387   2.729
 2401TIP3    H2 7168   3.086   1.331   2.638
 2402TIP3   OH2 7169   1.851   1.388   3.482
 2402TIP3    H1 7170   1.906   1.310   3.481
 2402TIP3    H2 7171   1.910   1.460   3.460
 2403TIP3   OH2 7172   1.642   1.659   3.544
 2403TIP3    H1 7173   1.693   1.645   3.464
 2403TIP3    H2 7174   1.653   1.751   3.565
 2404TIP3   OH2 7175   3.575   1.686   3.695
 2404TIP3    H1 7176   3.493   1.729   3.717
 2404TIP3    H2 7177   3.550   1.613   3.639
 2405TIP3   OH2 7178   3.208   1.322   2.285
 2405TIP3    H1 7179   3.257   1.267   2.224
 2405TIP3    H2 7180   3.258   1.403   2.291
 2406TIP3   OH2 7181   1.629   1.172   3.048
 2406TIP3    H1 7182   1.540   1.161   3.080
 2406TIP3    H2 7183   1.620   1.227   2.970
 2407TIP3   OH2 7184   2.778   2.872   2.545
 2407TIP3    H1 7185   2.838   2.866   2.472
 2407TIP3    H2 7186   2.816   2.939   2.602
 2408TIP3   OH2 7187   1.851   1.244   3.867
 2408TIP3    H1 7188   1.798   1.235   3.946
 2408TIP3    H2 7189   1.791   1.283   3.803
 2409TIP3   OH2 7190   1.880   2.658   3.927
 2409TIP3    H1 7191   1.785   2.649   3.925
 2409TIP3    H2 7192   1.900   2.679   4.019
 2410TIP3   OH2 7193   2.082   2.714   3.479
 2410TIP3    H1 7194   2.032   2.789   3.447
 2410TIP3    H2 7195   2.169   2.725   3.440
 2411TIP3   OH2 7196   2.514   2.954   3.686
 2411TIP3    H1 7197   2.543   2.980   3.774
 2411TIP3    H2 7198   2.568   3.006   3.627
 2412TIP3   OH2 7199   2.677   3.117   3.527
 2412TIP3    H1 7200   2.763   3.081   3.506
 2412TIP3    H2 7201   2.688   3.155   3.615
 2413TIP3   OH2 7202   3.482   1.447   3.578
 2413TIP3    H1 7203   3.396   1.446   3.537
 2413TIP3    H2 7204   3.514   1.357   3.571
 2414TIP3   OH2 7205   1.746   2.960   3.526
 2414TIP3    H1 7206   1.656   2.981   3.503
 2414TIP3    H2 7207   1.770   3.024   3.592
 2415TIP3   OH2 7208   1.978   2.947   3.375
 2415TIP3    H1 7209   1.894   2.954   3.421
 2415TIP3    H2 7210   1.958   2.976   3.286
 2416TIP3   OH2 7211   2.398   2.968   3.169
 2416TIP3    H1 7212   2.327   2.987   3.107
 2416TIP3    H2 7213   2.413   3.051   3.214
 2417TIP3   OH2 7214   2.662   2.894   3.209
 2417TIP3    H1 7215   2.571   2.920   3.197
 2417TIP3    H2 7216   2.713   2.968   3.175
 2418TIP3   OH2 7217   2.855   3.080   3.117
 2418TIP3    H1 7218   2.843   3.164   3.073
 2418TIP3    H2 7219   2.887   3.021   3.049
 2419TIP3   OH2 7220   1.656   2.744   3.245
 2419TIP3    H1 7221   1.678   2.720   3.335
 2419TIP3    H2 7222   1.729   2.712   3.193
 2420TIP3   OH2 7223   1.861   2.628   3.110
 2420TIP3    H1 7224   1.872   2.545   3.155
 2420TIP3    H2 7225   1.948   2.668   3.113
 2421TIP3   OH2 7226   2.129   2.715   3.131
 2421TIP3    H1 7227   2.149   2.622   3.118
 2421TIP3    H2 7228   2.182   2.740   3.207
 2422TIP3   OH2 7229   2.697   1.372   3.220
 2422TIP3    H1 7230   2.654   1.300   3.266
 2422TIP3    H2 7231   2.762   1.329   3.165
 2423TIP3   OH2 7232   3.197   1.264   3.100
 2423TIP3    H1 7233   3.234   1.316   3.029
 2423TIP3    H2 7234   3.104   1.289   3.103
 2424TIP3   OH2 7235   3.310   1.350   2.865
 2424TIP3    H1 7236   3.380   1.292   2.836
 2424TIP3    H2 7237   3.345   1.438   2.853
 2425TIP3   OH2 7238   1.933   1.071   3.210
 2425TIP3    H1 7239   1.842   1.041   3.213
 2425TIP3    H2 7240   1.985   0.991   3.204
 2426TIP3   OH2 7241   1.748   0.960   2.887
 2426TIP3    H1 7242   1.761   0.997   2.800
 2426TIP3    H2 7243   1.715   1.032   2.940
 2427TIP3   OH2 7244   2.404   1.105   3.103
 2427TIP3    H1 7245   2.451   1.153   3.035
 2427TIP3    H2 7246   2.432   1.146   3.185
 2428TIP3   OH2 7247   2.910   1.257   3.082
 2428TIP3    H1 7248   2.909   1.224   2.992
 2428TIP3    H2 7249   2.910   1.179   3.136
 2429TIP3   OH2 7250   2.964   1.192   2.647
 2429TIP3    H1 7251   2.884   1.240   2.667
 2429TIP3    H2 7252   2.951   1.106   2.688
 2430TIP3   OH2 7253   1.430   2.539   2.641
 2430TIP3    H1 7254   1.344   2.506   2.616
 2430TIP3    H2 7255   1.433   2.628   2.607
 2431TIP3   OH2 7256   2.361   1.299   2.724
 2431TIP3    H1 7257   2.418   1.252   2.784
 2431TIP3    H2 7258   2.371   1.391   2.748
 2432TIP3   OH2 7259   2.221   2.693   2.224
 2432TIP3    H1 7260   2.305   2.721   2.188
 2432TIP3    H2 7261   2.194   2.620   2.169
 2433TIP3   OH2 7262   2.937   2.835   2.319
 2433TIP3    H1 7263   2.928   2.740   2.312
 2433TIP3    H2 7264   2.890   2.869   2.243
 2434TIP3   OH2 7265   2.145   1.337   4.091
 2434TIP3    H1 7266   2.115   1.274   4.156
 2434TIP3    H2 7267   2.234   1.360   4.119
 2435TIP3   OH2 7268   2.408   1.367   4.215
 2435TIP3    H1 7269   2.478   1.329   4.162
 2435TIP3    H2 7270   2.391   1.302   4.284
 2436TIP3   OH2 7271   1.521   2.525   2.295
 2436TIP3    H1 7272   1.533   2.542   2.388
 2436TIP3    H2 7273   1.604   2.487   2.266
 2437TIP3   OH2 7274   3.228   1.434   4.011
 2437TIP3    H1 7275   3.245   1.404   4.100
 2437TIP3    H2 7276   3.313   1.429   3.967
 2438TIP3   OH2 7277   3.151   2.960   3.503
 2438TIP3    H1 7278   3.073   2.934   3.454
 2438TIP3    H2 7279   3.154   3.055   3.495
 2439TIP3   OH2 7280   4.423   2.352   2.259
 2439TIP3    H1 7281   4.393   2.440   2.238
 2439TIP3    H2 7282   4.351   2.294   2.232
 2440TIP3   OH2 7283   4.422   2.348   2.669
 2440TIP3    H1 7284   4.468   2.332   2.751
 2440TIP3    H2 7285   4.378   2.265   2.649
 2441TIP3   OH2 7286   3.720   2.230   3.025
 2441TIP3    H1 7287   3.752   2.167   3.088
 2441TIP3    H2 7288   3.797   2.280   2.999
 2442TIP3   OH2 7289   4.678   2.657   2.349
 2442TIP3    H1 7290   4.672   2.592   2.419
 2442TIP3    H2 7291   4.707   2.737   2.393
 2443TIP3   OH2 7292   3.711   2.643   2.718
 2443TIP3    H1 7293   3.694   2.549   2.728
 2443TIP3    H2 7294   3.806   2.650   2.711
 2444TIP3   OH2 7295   3.399   1.846   2.503
 2444TIP3    H1 7296   3.361   1.930   2.529
 2444TIP3    H2 7297   3.326   1.799   2.462
 2445TIP3   OH2 7298   3.470   2.151   2.707
 2445TIP3    H1 7299   3.521   2.075   2.737
 2445TIP3    H2 7300   3.536   2.213   2.678
 2446TIP3   OH2 7301   4.346   3.096   2.366
 2446TIP3    H1 7302   4.379   3.031   2.305
 2446TIP3    H2 7303   4.303   3.045   2.434
 2447TIP3   OH2 7304   4.227   2.573   2.687
 2447TIP3    H1 7305   4.266   2.494   2.650
 2447TIP3    H2 7306   4.301   2.625   2.718
 2448TIP3   OH2 7307   5.254   1.895   2.696
 2448TIP3    H1 7308   5.273   1.978   2.739
 2448TIP3    H2 7309   5.280   1.907   2.605
 2449TIP3   OH2 7310   4.637   2.064   2.721
 2449TIP3    H1 7311   4.676   1.980   2.745
 2449TIP3    H2 7312   4.601   2.049   2.633
 2450TIP3   OH2 7313   3.989   1.726   2.682
 2450TIP3    H1 7314   3.969   1.800   2.625
 2450TIP3    H2 7315   3.934   1.655   2.650
 2451TIP3   OH2 7316   4.684   1.823   2.311
 2451TIP3    H1 7317   4.749   1.815   2.381
 2451TIP3    H2 7318   4.733   1.859   2.237
 2452TIP3   OH2 7319   3.612   1.934   2.807
 2452TIP3    H1 7320   3.695   1.919   2.853
 2452TIP3    H2 7321   3.619   1.883   2.727
 2453TIP3   OH2 7322   4.046   2.135   2.607
 2453TIP3    H1 7323   4.140   2.115   2.617
 2453TIP3    H2 7324   4.008   2.053   2.575
 2454TIP3   OH2 7325   5.315   2.108   2.871
 2454TIP3    H1 7326   5.232   2.154   2.857
 2454TIP3    H2 7327   5.354   2.151   2.947
 2455TIP3   OH2 7328   3.970   1.723   3.132
 2455TIP3    H1 7329   3.919   1.759   3.059
 2455TIP3    H2 7330   3.915   1.740   3.209
 2456TIP3   OH2 7331   4.301   2.564   2.131
 2456TIP3    H1 7332   4.269   2.549   2.042
 2456TIP3    H2 7333   4.261   2.646   2.158
 2457TIP3   OH2 7334   4.072   2.499   2.905
 2457TIP3    H1 7335   4.015   2.568   2.940
 2457TIP3    H2 7336   4.118   2.541   2.832
 2458TIP3   OH2 7337   4.855   1.839   2.525
 2458TIP3    H1 7338   4.815   1.819   2.610
 2458TIP3    H2 7339   4.912   1.914   2.543
 2459TIP3   OH2 7340   3.857   1.832   2.904
 2459TIP3    H1 7341   3.911   1.907   2.928
 2459TIP3    H2 7342   3.904   1.791   2.831
 2460TIP3   OH2 7343   3.908   2.697   3.008
 2460TIP3    H1 7344   3.894   2.785   2.975
 2460TIP3    H2 7345   3.830   2.677   3.060
 2461TIP3   OH2 7346   3.289   2.395   2.254
 2461TIP3    H1 7347   3.250   2.415   2.169
 2461TIP3    H2 7348   3.313   2.481   2.290
 2462TIP3   OH2 7349   4.723   2.903   2.490
 2462TIP3    H1 7350   4.638   2.899   2.534
 2462TIP3    H2 7351   4.724   2.988   2.446
 2463TIP3   OH2 7352   5.050   1.778   2.859
 2463TIP3    H1 7353   4.964   1.807   2.829
 2463TIP3    H2 7354   5.111   1.811   2.793
 2464TIP3   OH2 7355   4.314   1.419   2.853
 2464TIP3    H1 7356   4.305   1.327   2.878
 2464TIP3    H2 7357   4.240   1.462   2.895
 2465TIP3   OH2 7358   4.436   2.946   2.146
 2465TIP3    H1 7359   4.486   2.865   2.135
 2465TIP3    H2 7360   4.497   3.015   2.121
 2466TIP3   OH2 7361   4.579   2.720   2.098
 2466TIP3    H1 7362   4.557   2.638   2.055
 2466TIP3    H2 7363   4.618   2.693   2.181
 2467TIP3   OH2 7364   4.961   2.797   2.840
 2467TIP3    H1 7365   4.948   2.722   2.783
 2467TIP3    H2 7366   4.946   2.873   2.784
 2468TIP3   OH2 7367   4.249   2.196   2.104
 2468TIP3    H1 7368   4.170   2.247   2.087
 2468TIP3    H2 7369   4.298   2.198   2.021
 2469TIP3   OH2 7370   4.217   1.997   1.806
 2469TIP3    H1 7371   4.282   2.047   1.856
 2469TIP3    H2 7372   4.269   1.934   1.756
 2470TIP3   OH2 7373   5.150   2.449   2.701
 2470TIP3    H1 7374   5.068   2.497   2.702
 2470TIP3    H2 7375   5.186   2.466   2.613
 2471TIP3   OH2 7376   4.606   2.285   2.068
 2471TIP3    H1 7377   4.551   2.312   2.142
 2471TIP3    H2 7378   4.690   2.261   2.107
 2472TIP3   OH2 7379   4.836   2.317   3.003
 2472TIP3    H1 7380   4.836   2.400   3.050
 2472TIP3    H2 7381   4.753   2.316   2.955
 2473TIP3   OH2 7382   3.836   2.270   2.480
 2473TIP3    H1 7383   3.800   2.212   2.413
 2473TIP3    H2 7384   3.912   2.222   2.514
 2474TIP3   OH2 7385   3.973   2.692   2.616
 2474TIP3    H1 7386   3.951   2.673   2.525
 2474TIP3    H2 7387   4.060   2.654   2.629
 2475TIP3   OH2 7388   3.955   2.260   2.840
 2475TIP3    H1 7389   3.992   2.228   2.758
 2475TIP3    H2 7390   4.001   2.341   2.857
 2476TIP3   OH2 7391   4.495   2.899   2.645
 2476TIP3    H1 7392   4.506   2.950   2.726
 2476TIP3    H2 7393   4.478   2.809   2.675
 2477TIP3   OH2 7394   4.111   2.798   3.171
 2477TIP3    H1 7395   4.056   2.859   3.219
 2477TIP3    H2 7396   4.050   2.749   3.115
 2478TIP3   OH2 7397   4.440   2.145   1.899
 2478TIP3    H1 7398   4.499   2.202   1.948
 2478TIP3    H2 7399   4.466   2.156   1.808
 2479TIP3   OH2 7400   3.864   2.350   3.298
 2479TIP3    H1 7401   3.869   2.443   3.322
 2479TIP3    H2 7402   3.770   2.332   3.294
 2480TIP3   OH2 7403   4.191   2.820   2.166
 2480TIP3    H1 7404   4.273   2.868   2.164
 2480TIP3    H2 7405   4.130   2.874   2.117
 2481TIP3   OH2 7406   3.894   2.951   3.252
 2481TIP3    H1 7407   3.864   2.960   3.162
 2481TIP3    H2 7408   3.815   2.934   3.303
 2482TIP3   OH2 7409   4.953   1.375   1.952
 2482TIP3    H1 7410   4.876   1.397   2.003
 2482TIP3    H2 7411   4.968   1.452   1.897
 2483TIP3   OH2 7412   3.709   2.116   2.273
 2483TIP3    H1 7413   3.636   2.166   2.237
 2483TIP3    H2 7414   3.670   2.033   2.301
 2484TIP3   OH2 7415   4.770   2.759   1.500
 2484TIP3    H1 7416   4.774   2.854   1.486
 2484TIP3    H2 7417   4.859   2.728   1.482
 2485TIP3   OH2 7418   3.488   2.510   3.203
 2485TIP3    H1 7419   3.417   2.499   3.139
 2485TIP3    H2 7420   3.521   2.422   3.218
 2486TIP3   OH2 7421   3.330   2.715   2.850
 2486TIP3    H1 7422   3.421   2.736   2.867
 2486TIP3    H2 7423   3.281   2.792   2.880
 2487TIP3   OH2 7424   5.201   3.159   2.899
 2487TIP3    H1 7425   5.204   3.064   2.911
 2487TIP3    H2 7426   5.117   3.185   2.937
 2488TIP3   OH2 7427   4.297   2.938   3.026
 2488TIP3    H1 7428   4.308   3.024   3.066
 2488TIP3    H2 7429   4.230   2.894   3.079
 2489TIP3   OH2 7430   4.076   3.053   1.981
 2489TIP3    H1 7431   4.027   3.032   1.901
 2489TIP3    H2 7432   4.040   3.137   2.010
 2490TIP3   OH2 7433   3.510   2.900   2.362
 2490TIP3    H1 7434   3.554   2.895   2.446
 2490TIP3    H2 7435   3.459   2.819   2.356
 2491TIP3   OH2 7436   4.277   2.970   1.613
 2491TIP3    H1 7437   4.329   2.899   1.576
 2491TIP3    H2 7438   4.314   2.984   1.700
 2492TIP3   OH2 7439   4.330   3.019   1.883
 2492TIP3    H1 7440   4.242   3.026   1.922
 2492TIP3    H2 7441   4.383   2.979   1.952
 2493TIP3   OH2 7442   5.080   2.279   3.178
 2493TIP3    H1 7443   5.000   2.290   3.127
 2493TIP3    H2 7444   5.100   2.185   3.171
 2494TIP3   OH2 7445   3.685   2.699   3.171
 2494TIP3    H1 7446   3.728   2.696   3.256
 2494TIP3    H2 7447   3.612   2.638   3.178
 2495TIP3   OH2 7448   4.080   1.512   2.983
 2495TIP3    H1 7449   3.996   1.480   2.950
 2495TIP3    H2 7450   4.058   1.592   3.030
 2496TIP3   OH2 7451   4.620   1.625   3.179
 2496TIP3    H1 7452   4.688   1.601   3.242
 2496TIP3    H2 7453   4.538   1.609   3.226
 2497TIP3   OH2 7454   4.846   2.051   3.092
 2497TIP3    H1 7455   4.804   2.049   3.177
 2497TIP3    H2 7456   4.829   2.140   3.059
 2498TIP3   OH2 7457   4.519   2.148   1.638
 2498TIP3    H1 7458   4.476   2.144   1.552
 2498TIP3    H2 7459   4.601   2.195   1.622
 2499TIP3   OH2 7460   4.215   1.552   1.944
 2499TIP3    H1 7461   4.190   1.554   2.036
 2499TIP3    H2 7462   4.184   1.468   1.912
 2500TIP3   OH2 7463   4.016   2.039   2.994
 2500TIP3    H1 7464   3.968   2.050   3.076
 2500TIP3    H2 7465   3.996   2.118   2.944
 2501TIP3   OH2 7466   3.898   1.920   2.512
 2501TIP3    H1 7467   3.809   1.897   2.537
 2501TIP3    H2 7468   3.908   1.886   2.423
 2502TIP3   OH2 7469   4.382   1.994   2.237
 2502TIP3    H1 7470   4.333   2.066   2.196
 2502TIP3    H2 7471   4.441   1.963   2.168
 2503TIP3   OH2 7472   4.566   2.264   3.314
 2503TIP3    H1 7473   4.541   2.197   3.377
 2503TIP3    H2 7474   4.658   2.283   3.334
 2504TIP3   OH2 7475   4.544   2.013   2.468
 2504TIP3    H1 7476   4.478   2.041   2.404
 2504TIP3    H2 7477   4.588   1.939   2.426
 2505TIP3   OH2 7478   3.844   2.056   3.209
 2505TIP3    H1 7479   3.852   2.123   3.277
 2505TIP3    H2 7480   3.827   1.975   3.258
 2506TIP3   OH2 7481   3.858   1.503   1.935
 2506TIP3    H1 7482   3.871   1.538   2.023
 2506TIP3    H2 7483   3.799   1.565   1.893
 2507TIP3   OH2 7484   3.440   1.573   2.791
 2507TIP3    H1 7485   3.508   1.611   2.847
 2507TIP3    H2 7486   3.482   1.561   2.706
 2508TIP3   OH2 7487   3.365   1.556   2.299
 2508TIP3    H1 7488   3.405   1.593   2.221
 2508TIP3    H2 7489   3.303   1.623   2.328
 2509TIP3   OH2 7490   4.574   2.264   2.892
 2509TIP3    H1 7491   4.601   2.197   2.830
 2509TIP3    H2 7492   4.533   2.215   2.964
 2510TIP3   OH2 7493   4.253   1.713   2.564
 2510TIP3    H1 7494   4.175   1.716   2.620
 2510TIP3    H2 7495   4.326   1.710   2.626
 2511TIP3   OH2 7496   3.660   1.796   2.574
 2511TIP3    H1 7497   3.571   1.801   2.540
 2511TIP3    H2 7498   3.688   1.706   2.555
 2512TIP3   OH2 7499   3.918   1.799   2.267
 2512TIP3    H1 7500   4.012   1.813   2.255
 2512TIP3    H2 7501   3.880   1.815   2.181
 2513TIP3   OH2 7502   4.718   1.801   2.770
 2513TIP3    H1 7503   4.697   1.818   2.862
 2513TIP3    H2 7504   4.649   1.743   2.739
 2514TIP3   OH2 7505   3.800   1.806   2.021
 2514TIP3    H1 7506   3.728   1.769   1.969
 2514TIP3    H2 7507   3.849   1.860   1.959
 2515TIP3   OH2 7508   4.905   3.502   2.989
 2515TIP3    H1 7509   4.907   3.510   2.894
 2515TIP3    H2 7510   4.956   3.577   3.021
 2516TIP3   OH2 7511   3.849   2.607   3.417
 2516TIP3    H1 7512   3.926   2.646   3.459
 2516TIP3    H2 7513   3.778   2.620   3.480
 2517TIP3   OH2 7514   4.313   2.071   2.670
 2517TIP3    H1 7515   4.384   2.027   2.624
 2517TIP3    H2 7516   4.312   2.031   2.757
 2518TIP3   OH2 7517   3.810   1.549   2.558
 2518TIP3    H1 7518   3.780   1.473   2.608
 2518TIP3    H2 7519   3.846   1.512   2.477
 2519TIP3   OH2 7520   4.283   1.977   2.943
 2519TIP3    H1 7521   4.195   2.011   2.962
 2519TIP3    H2 7522   4.342   2.032   2.995
 2520TIP3   OH2 7523   4.018   2.343   2.049
 2520TIP3    H1 7524   3.944   2.286   2.029
 2520TIP3    H2 7525   3.996   2.382   2.134
 2521TIP3   OH2 7526   4.912   2.587   2.666
 2521TIP3    H1 7527   4.949   2.635   2.592
 2521TIP3    H2 7528   4.831   2.550   2.633
 2522TIP3   OH2 7529   4.475   1.652   1.946
 2522TIP3    H1 7530   4.380   1.638   1.941
 2522TIP3    H2 7531   4.484   1.747   1.958
 2523TIP3   OH2 7532   4.423   2.677   3.057
 2523TIP3    H1 7533   4.468   2.672   3.142
 2523TIP3    H2 7534   4.375   2.760   3.061
 2524TIP3   OH2 7535   4.545   1.914   2.019
 2524TIP3    H1 7536   4.640   1.920   2.031
 2524TIP3    H2 7537   4.522   1.992   1.969
 2525TIP3   OH2 7538   3.710   2.351   2.713
 2525TIP3    H1 7539   3.749   2.336   2.627
 2525TIP3    H2 7540   3.774   2.315   2.775
 2526TIP3   OH2 7541   4.168   2.502   1.884
 2526TIP3    H1 7542   4.122   2.586   1.886
 2526TIP3    H2 7543   4.115   2.445   1.940
 2527TIP3   OH2 7544   3.596   2.277   3.331
 2527TIP3    H1 7545   3.602   2.258   3.424
 2527TIP3    H2 7546   3.518   2.229   3.302
 2528TIP3   OH2 7547   4.326   2.410   3.353
 2528TIP3    H1 7548   4.259   2.351   3.319
 2528TIP3    H2 7549   4.409   2.374   3.320
 2529TIP3   OH2 7550   4.563   2.951   2.940
 2529TIP3    H1 7551   4.470   2.936   2.955
 2529TIP3    H2 7552   4.596   2.988   3.022
 2530TIP3   OH2 7553   4.967   2.007   1.848
 2530TIP3    H1 7554   4.911   1.960   1.786
 2530TIP3    H2 7555   4.971   2.096   1.814
 2531TIP3   OH2 7556   5.209   2.874   2.931
 2531TIP3    H1 7557   5.114   2.865   2.925
 2531TIP3    H2 7558   5.241   2.845   2.845
 2532TIP3   OH2 7559   4.681   2.820   1.762
 2532TIP3    H1 7560   4.665   2.746   1.820
 2532TIP3    H2 7561   4.707   2.781   1.679
 2533TIP3   OH2 7562   4.677   2.457   2.564
 2533TIP3    H1 7563   4.587   2.434   2.585
 2533TIP3    H2 7564   4.714   2.378   2.526
 2534TIP3   OH2 7565   3.825   2.690   2.362
 2534TIP3    H1 7566   3.821   2.766   2.305
 2534TIP3    H2 7567   3.736   2.680   2.396
 2535TIP3   OH2 7568   3.393   1.979   2.074
 2535TIP3    H1 7569   3.435   2.063   2.092
 2535TIP3    H2 7570   3.313   1.980   2.126
 2536TIP3   OH2 7571   3.928   2.446   2.283
 2536TIP3    H1 7572   3.904   2.536   2.306
 2536TIP3    H2 7573   3.899   2.393   2.357
 2537TIP3   OH2 7574   4.108   3.016   2.825
 2537TIP3    H1 7575   4.148   3.086   2.774
 2537TIP3    H2 7576   4.179   2.985   2.881
 2538TIP3   OH2 7577   3.740   2.917   2.210
 2538TIP3    H1 7578   3.654   2.921   2.253
 2538TIP3    H2 7579   3.773   3.007   2.214
 2539TIP3   OH2 7580   4.472   2.660   2.787
 2539TIP3    H1 7581   4.459   2.662   2.881
 2539TIP3    H2 7582   4.552   2.608   2.775
 2540TIP3   OH2 7583   4.457   2.555   1.670
 2540TIP3    H1 7584   4.508   2.535   1.749
 2540TIP3    H2 7585   4.370   2.522   1.689
 2541TIP3   OH2 7586   4.703   3.161   2.824
 2541TIP3    H1 7587   4.663   3.088   2.871
 2541TIP3    H2 7588   4.637   3.188   2.760
 2542TIP3   OH2 7589   4.791   3.040   1.483
 2542TIP3    H1 7590   4.836   3.118   1.450
 2542TIP3    H2 7591   4.706   3.073   1.513
 2543TIP3   OH2 7592   3.798   1.801   3.339
 2543TIP3    H1 7593   3.703   1.809   3.345
 2543TIP3    H2 7594   3.823   1.749   3.416
 2544TIP3   OH2 7595   4.624   2.491   1.881
 2544TIP3    H1 7596   4.610   2.422   1.946
 2544TIP3    H2 7597   4.719   2.490   1.867
 2545TIP3   OH2 7598   3.535   2.890   2.975
 2545TIP3    H1 7599   3.590   2.832   3.029
 2545TIP3    H2 7600   3.535   2.973   3.023
 2546TIP3   OH2 7601   3.812   2.524   1.670
 2546TIP3    H1 7602   3.822   2.433   1.645
 2546TIP3    H2 7603   3.793   2.521   1.764
 2547TIP3   OH2 7604   3.753   2.539   1.942
 2547TIP3    H1 7605   3.821   2.511   2.003
 2547TIP3    H2 7606   3.753   2.635   1.949
 2548TIP3   OH2 7607   3.488   2.231   2.151
 2548TIP3    H1 7608   3.422   2.275   2.204
 2548TIP3    H2 7609   3.505   2.292   2.079
 2549TIP3   OH2 7610   4.654   1.858   3.031
 2549TIP3    H1 7611   4.730   1.904   3.065
 2549TIP3    H2 7612   4.644   1.781   3.088
 2550TIP3   OH2 7613   4.538   1.605   2.215
 2550TIP3    H1 7614   4.517   1.624   2.124
 2550TIP3    H2 7615   4.580   1.685   2.247
 2551TIP3   OH2 7616   4.025   2.733   1.889
 2551TIP3    H1 7617   3.939   2.754   1.924
 2551TIP3    H2 7618   4.046   2.806   1.831
 2552TIP3   OH2 7619   4.197   1.802   2.305
 2552TIP3    H1 7620   4.260   1.870   2.281
 2552TIP3    H2 7621   4.215   1.785   2.398
 2553TIP3   OH2 7622   4.487   2.099   3.095
 2553TIP3    H1 7623   4.513   2.148   3.173
 2553TIP3    H2 7624   4.539   2.019   3.098
 2554TIP3   OH2 7625   4.355   1.506   2.400
 2554TIP3    H1 7626   4.332   1.582   2.453
 2554TIP3    H2 7627   4.423   1.537   2.340
 2555TIP3   OH2 7628   3.770   2.811   1.959
 2555TIP3    H1 7629   3.748   2.881   1.898
 2555TIP3    H2 7630   3.757   2.850   2.046
 2556TIP3   OH2 7631   3.872   1.529   2.219
 2556TIP3    H1 7632   3.865   1.621   2.245
 2556TIP3    H2 7633   3.966   1.512   2.218
 2557TIP3   OH2 7634   5.115   2.012   3.092
 2557TIP3    H1 7635   5.019   2.008   3.094
 2557TIP3    H2 7636   5.138   1.989   3.002
 2558TIP3   OH2 7637   4.771   2.202   2.470
 2558TIP3    H1 7638   4.694   2.146   2.482
 2558TIP3    H2 7639   4.840   2.160   2.523
 2559TIP3   OH2 7640   3.500   2.417   1.940
 2559TIP3    H1 7641   3.569   2.482   1.950
 2559TIP3    H2 7642   3.536   2.354   1.876
 2560TIP3   OH2 7643   3.418   1.701   2.072
 2560TIP3    H1 7644   3.433   1.795   2.080
 2560TIP3    H2 7645   3.342   1.694   2.013
 2561TIP3   OH2 7646   4.734   3.171   2.412
 2561TIP3    H1 7647   4.691   3.244   2.366
 2561TIP3    H2 7648   4.827   3.189   2.403
 2562TIP3   OH2 7649   3.819   1.424   2.942
 2562TIP3    H1 7650   3.789   1.392   2.857
 2562TIP3    H2 7651   3.809   1.350   3.001
 2563TIP3   OH2 7652   3.341   2.665   2.336
 2563TIP3    H1 7653   3.294   2.701   2.411
 2563TIP3    H2 7654   3.302   2.709   2.260
 2564TIP3   OH2 7655   4.006   3.148   3.410
 2564TIP3    H1 7656   4.093   3.114   3.429
 2564TIP3    H2 7657   3.968   3.085   3.349
 2565TIP3   OH2 7658   3.971   2.725   1.566
 2565TIP3    H1 7659   3.922   2.654   1.609
 2565TIP3    H2 7660   4.046   2.681   1.526
 2566TIP3   OH2 7661   4.637   3.067   3.170
 2566TIP3    H1 7662   4.617   3.012   3.246
 2566TIP3    H2 7663   4.692   3.137   3.205
 2567TIP3   OH2 7664   4.410   2.762   1.491
 2567TIP3    H1 7665   4.444   2.700   1.554
 2567TIP3    H2 7666   4.472   2.759   1.418
 2568TIP3   OH2 7667   3.642   2.590   3.612
 2568TIP3    H1 7668   3.660   2.496   3.604
 2568TIP3    H2 7669   3.558   2.603   3.568
 2569TIP3   OH2 7670   3.634   2.226   1.797
 2569TIP3    H1 7671   3.686   2.204   1.874
 2569TIP3    H2 7672   3.698   2.237   1.727
 2570TIP3   OH2 7673   4.239   2.681   3.387
 2570TIP3    H1 7674   4.203   2.709   3.302
 2570TIP3    H2 7675   4.278   2.596   3.369
 2571TIP3   OH2 7676   4.173   2.445   1.616
 2571TIP3    H1 7677   4.160   2.459   1.709
 2571TIP3    H2 7678   4.164   2.350   1.604
 2572TIP3   OH2 7679   4.737   2.720   2.983
 2572TIP3    H1 7680   4.815   2.754   2.939
 2572TIP3    H2 7681   4.670   2.787   2.970
 2573TIP3   OH2 7682   3.759   2.329   3.583
 2573TIP3    H1 7683   3.837   2.326   3.527
 2573TIP3    H2 7684   3.793   2.352   3.669
 2574TIP3   OH2 7685   3.812   2.160   2.006
 2574TIP3    H1 7686   3.790   2.130   2.094
 2574TIP3    H2 7687   3.857   2.086   1.966
 2575TIP3   OH2 7688   4.117   2.233   3.254
 2575TIP3    H1 7689   4.033   2.279   3.262
 2575TIP3    H2 7690   4.152   2.263   3.170
 2576TIP3   OH2 7691   3.943   1.966   1.852
 2576TIP3    H1 7692   3.914   1.972   1.761
 2576TIP3    H2 7693   4.039   1.974   1.847
 2577TIP3   OH2 7694   4.615   2.617   3.370
 2577TIP3    H1 7695   4.686   2.587   3.313
 2577TIP3    H2 7696   4.615   2.556   3.444
 2578TIP3   OH2 7697   4.743   2.271   1.529
 2578TIP3    H1 7698   4.727   2.228   1.445
 2578TIP3    H2 7699   4.718   2.362   1.514
 2579TIP3   OH2 7700   4.226   2.009   3.366
 2579TIP3    H1 7701   4.227   1.936   3.305
 2579TIP3    H2 7702   4.189   2.082   3.317
 2580TIP3   OH2 7703   4.231   1.803   3.169
 2580TIP3    H1 7704   4.258   1.843   3.086
 2580TIP3    H2 7705   4.139   1.779   3.155
 2581TIP3   OH2 7706   4.246   2.335   3.038
 2581TIP3    H1 7707   4.334   2.367   3.020
 2581TIP3    H2 7708   4.188   2.397   2.993
 2582TIP3   OH2 7709   4.837   2.299   3.412
 2582TIP3    H1 7710   4.886   2.217   3.412
 2582TIP3    H2 7711   4.901   2.366   3.389
 2583TIP3   OH2 7712   4.867   2.554   3.154
 2583TIP3    H1 7713   4.811   2.613   3.104
 2583TIP3    H2 7714   4.956   2.573   3.123
 2584TIP3   OH2 7715   4.110   2.100   3.609
 2584TIP3    H1 7716   4.039   2.039   3.627
 2584TIP3    H2 7717   4.137   2.080   3.520
 2585TIP3   OH2 7718   4.354   1.568   3.259
 2585TIP3    H1 7719   4.313   1.649   3.229
 2585TIP3    H2 7720   4.288   1.500   3.247
 2586TIP3   OH2 7721   4.484   2.049   3.464
 2586TIP3    H1 7722   4.470   2.039   3.559
 2586TIP3    H2 7723   4.398   2.030   3.425
 2587TIP3   OH2 7724   4.727   2.005   3.329
 2587TIP3    H1 7725   4.649   2.007   3.384
 2587TIP3    H2 7726   4.798   1.982   3.389
 2588TIP3   OH2 7727   4.961   1.963   3.483
 2588TIP3    H1 7728   4.972   1.869   3.491
 2588TIP3    H2 7729   4.956   1.995   3.573
 2589TIP3   OH2 7730   3.940   1.880   3.670
 2589TIP3    H1 7731   3.946   1.792   3.634
 2589TIP3    H2 7732   3.979   1.873   3.758
 2590TIP3   OH2 7733   4.430   1.556   3.523
 2590TIP3    H1 7734   4.499   1.490   3.517
 2590TIP3    H2 7735   4.396   1.564   3.434
 2591TIP3   OH2 7736   4.515   1.771   3.673
 2591TIP3    H1 7737   4.487   1.701   3.614
 2591TIP3    H2 7738   4.443   1.835   3.670
 2592TIP3   OH2 7739   3.759   3.016   1.772
 2592TIP3    H1 7740   3.851   2.999   1.748
 2592TIP3    H2 7741   3.723   3.065   1.698
 2593TIP3   OH2 7742   3.227   2.398   1.966
 2593TIP3    H1 7743   3.321   2.414   1.960
 2593TIP3    H2 7744   3.215   2.311   1.927
 2594TIP3   OH2 7745   3.141   2.992   2.412
 2594TIP3    H1 7746   3.076   2.937   2.368
 2594TIP3    H2 7747   3.185   2.932   2.473
 2595TIP3   OH2 7748   3.282   2.828   2.586
 2595TIP3    H1 7749   3.271   2.762   2.655
 2595TIP3    H2 7750   3.333   2.898   2.627
 2596TIP3   OH2 7751   4.999   3.247   2.386
 2596TIP3    H1 7752   5.041   3.280   2.465
 2596TIP3    H2 7753   5.063   3.263   2.316
 2597TIP3   OH2 7754   5.040   3.258   2.672
 2597TIP3    H1 7755   4.995   3.175   2.659
 2597TIP3    H2 7756   5.112   3.238   2.732
 2598TIP3   OH2 7757   5.081   2.957   3.255
 2598TIP3    H1 7758   5.005   2.971   3.312
 2598TIP3    H2 7759   5.126   3.041   3.254
 2599TIP3   OH2 7760   4.901   2.467   1.859
 2599TIP3    H1 7761   4.959   2.535   1.825
 2599TIP3    H2 7762   4.949   2.431   1.934
 2600TIP3   OH2 7763   5.036   2.328   2.059
 2600TIP3    H1 7764   4.970   2.293   2.118
 2600TIP3    H2 7765   5.102   2.368   2.116
 2601TIP3   OH2 7766   5.086   2.718   2.496
 2601TIP3    H1 7767   5.138   2.649   2.455
 2601TIP3    H2 7768   5.096   2.793   2.439
 2602TIP3   OH2 7769   4.897   3.014   2.683
 2602TIP3    H1 7770   4.829   3.067   2.725
 2602TIP3    H2 7771   4.854   2.974   2.608
 2603TIP3   OH2 7772   4.951   2.244   1.706
 2603TIP3    H1 7773   4.880   2.244   1.642
 2603TIP3    H2 7774   4.934   2.320   1.761
 2604TIP3   OH2 7775   4.813   1.901   1.649
 2604TIP3    H1 7776   4.768   1.940   1.575
 2604TIP3    H2 7777   4.799   1.807   1.638
 2605TIP3   OH2 7778   4.834   2.192   2.200
 2605TIP3    H1 7779   4.842   2.098   2.190
 2605TIP3    H2 7780   4.817   2.205   2.294
 2606TIP3   OH2 7781   3.456   2.251   2.962
 2606TIP3    H1 7782   3.447   2.221   2.872
 2606TIP3    H2 7783   3.550   2.254   2.977
 2607TIP3   OH2 7784   5.122   2.611   3.062
 2607TIP3    H1 7785   5.188   2.545   3.043
 2607TIP3    H2 7786   5.137   2.679   2.996
 2608TIP3   OH2 7787   5.295   2.398   3.055
 2608TIP3    H1 7788   5.221   2.358   3.102
 2608TIP3    H2 7789   5.370   2.342   3.076
 2609TIP3   OH2 7790   4.766   1.631   1.624
 2609TIP3    H1 7791   4.833   1.603   1.687
 2609TIP3    H2 7792   4.687   1.586   1.652
 2610TIP3   OH2 7793   4.831   1.911   2.084
 2610TIP3    H1 7794   4.876   1.828   2.098
 2610TIP3    H2 7795   4.877   1.952   2.011
 2611TIP3   OH2 7796   4.987   2.075   2.602
 2611TIP3    H1 7797   5.068   2.095   2.555
 2611TIP3    H2 7798   5.000   2.114   2.689
 2612TIP3   OH2 7799   5.059   2.225   2.833
 2612TIP3    H1 7800   4.984   2.256   2.883
 2612TIP3    H2 7801   5.092   2.302   2.788
 2613TIP3   OH2 7802   3.675   1.933   3.615
 2613TIP3    H1 7803   3.770   1.932   3.629
 2613TIP3    H2 7804   3.644   1.852   3.655
 2614TIP3   OH2 7805   5.503   1.819   3.384
 2614TIP3    H1 7806   5.570   1.765   3.343
 2614TIP3    H2 7807   5.470   1.875   3.313
 2615TIP3   OH2 7808   4.944   1.660   2.134
 2615TIP3    H1 7809   4.990   1.644   2.217
 2615TIP3    H2 7810   4.882   1.588   2.127
 2616TIP3   OH2 7811   3.648   1.645   2.959
 2616TIP3    H1 7812   3.705   1.568   2.965
 2616TIP3    H2 7813   3.708   1.718   2.946
 2617TIP3   OH2 7814   3.434   1.910   3.027
 2617TIP3    H1 7815   3.486   1.906   2.946
 2617TIP3    H2 7816   3.447   2.000   3.058
 2618TIP3   OH2 7817   5.370   1.942   3.182
 2618TIP3    H1 7818   5.286   1.985   3.199
 2618TIP3    H2 7819   5.347   1.868   3.125
 2619TIP3   OH2 7820   5.000   1.580   1.773
 2619TIP3    H1 7821   5.045   1.517   1.716
 2619TIP3    H2 7822   5.058   1.656   1.774
 2620TIP3   OH2 7823   3.417   1.404   2.521
 2620TIP3    H1 7824   3.331   1.402   2.565
 2620TIP3    H2 7825   3.406   1.467   2.450
 2621TIP3   OH2 7826   4.594   3.143   2.049
 2621TIP3    H1 7827   4.627   3.124   1.961
 2621TIP3    H2 7828   4.669   3.181   2.095
 2622TIP3   OH2 7829   3.641   1.478   3.343
 2622TIP3    H1 7830   3.593   1.476   3.425
 2622TIP3    H2 7831   3.585   1.527   3.283
 2623TIP3   OH2 7832   3.679   2.931   3.441
 2623TIP3    H1 7833   3.586   2.921   3.423
 2623TIP3    H2 7834   3.689   3.019   3.476
 2624TIP3   OH2 7835   3.876   2.968   2.968
 2624TIP3    H1 7836   3.820   3.040   2.937
 2624TIP3    H2 7837   3.961   2.984   2.926
 2625TIP3   OH2 7838   4.326   3.188   3.134
 2625TIP3    H1 7839   4.361   3.190   3.224
 2625TIP3    H2 7840   4.383   3.247   3.085
 2626TIP3   OH2 7841   4.485   3.354   2.977
 2626TIP3    H1 7842   4.555   3.303   2.936
 2626TIP3    H2 7843   4.531   3.414   3.036
 2627TIP3   OH2 7844   5.275   1.703   3.064
 2627TIP3    H1 7845   5.191   1.703   3.018
 2627TIP3    H2 7846   5.308   1.613   3.055
 2628TIP3   OH2 7847   3.533   3.205   3.017
 2628TIP3    H1 7848   3.446   3.234   2.988
 2628TIP3    H2 7849   3.545   3.248   3.102
 2629TIP3   OH2 7850   3.763   3.197   2.863
 2629TIP3    H1 7851   3.681   3.205   2.912
 2629TIP3    H2 7852   3.742   3.230   2.776
 2630TIP3   OH2 7853   4.200   3.219   2.655
 2630TIP3    H1 7854   4.123   3.234   2.600
 2630TIP3    H2 7855   4.205   3.297   2.711
 2631TIP3   OH2 7856   4.484   3.203   2.654
 2631TIP3    H1 7857   4.389   3.201   2.663
 2631TIP3    H2 7858   4.501   3.150   2.576
 2632TIP3   OH2 7859   3.458   3.003   2.726
 2632TIP3    H1 7860   3.473   2.976   2.817
 2632TIP3    H2 7861   3.532   2.966   2.678
 2633TIP3   OH2 7862   3.660   2.880   2.592
 2633TIP3    H1 7863   3.669   2.798   2.640
 2633TIP3    H2 7864   3.746   2.921   2.597
 2634TIP3   OH2 7865   3.927   2.971   2.614
 2634TIP3    H1 7866   3.946   2.878   2.602
 2634TIP3    H2 7867   3.975   2.995   2.693
 2635TIP3   OH2 7868   4.487   1.627   2.698
 2635TIP3    H1 7869   4.448   1.555   2.747
 2635TIP3    H2 7870   4.557   1.586   2.646
 2636TIP3   OH2 7871   4.992   1.520   2.587
 2636TIP3    H1 7872   5.032   1.571   2.516
 2636TIP3    H2 7873   4.902   1.551   2.591
 2637TIP3   OH2 7874   5.105   1.606   2.353
 2637TIP3    H1 7875   5.175   1.547   2.323
 2637TIP3    H2 7876   5.141   1.694   2.342
 2638TIP3   OH2 7877   3.731   1.323   2.699
 2638TIP3    H1 7878   3.641   1.292   2.708
 2638TIP3    H2 7879   3.783   1.243   2.695
 2639TIP3   OH2 7880   3.514   1.203   2.352
 2639TIP3    H1 7881   3.546   1.258   2.280
 2639TIP3    H2 7882   3.484   1.265   2.419
 2640TIP3   OH2 7883   4.195   1.365   2.591
 2640TIP3    H1 7884   4.245   1.412   2.524
 2640TIP3    H2 7885   4.232   1.394   2.674
 2641TIP3   OH2 7886   4.703   1.511   2.569
 2641TIP3    H1 7887   4.718   1.477   2.481
 2641TIP3    H2 7888   4.704   1.433   2.625
 2642TIP3   OH2 7889   4.757   1.450   2.134
 2642TIP3    H1 7890   4.678   1.498   2.157
 2642TIP3    H2 7891   4.746   1.364   2.173
 2643TIP3   OH2 7892   3.230   2.792   2.120
 2643TIP3    H1 7893   3.144   2.758   2.094
 2643TIP3    H2 7894   3.230   2.883   2.090
 2644TIP3   OH2 7895   3.669   1.368   2.100
 2644TIP3    H1 7896   3.727   1.388   2.026
 2644TIP3    H2 7897   3.706   1.416   2.173
 2645TIP3   OH2 7898   4.149   1.549   2.213
 2645TIP3    H1 7899   4.209   1.502   2.270
 2645TIP3    H2 7900   4.161   1.641   2.236
 2646TIP3   OH2 7901   4.020   2.952   1.711
 2646TIP3    H1 7902   4.105   2.979   1.675
 2646TIP3    H2 7903   3.992   2.880   1.654
 2647TIP3   OH2 7904   4.713   3.088   1.805
 2647TIP3    H1 7905   4.708   2.993   1.795
 2647TIP3    H2 7906   4.673   3.122   1.725
 2648TIP3   OH2 7907   3.946   1.605   3.586
 2648TIP3    H1 7908   3.911   1.537   3.644
 2648TIP3    H2 7909   4.039   1.611   3.611
 2649TIP3   OH2 7910   4.197   1.611   3.707
 2649TIP3    H1 7911   4.277   1.588   3.658
 2649TIP3    H2 7912   4.188   1.541   3.772
 2650TIP3   OH2 7913   3.319   2.795   1.767
 2650TIP3    H1 7914   3.320   2.810   1.861
 2650TIP3    H2 7915   3.402   2.751   1.748
 2651TIP3   OH2 7916   5.025   1.691   3.499
 2651TIP3    H1 7917   5.050   1.664   3.588
 2651TIP3    H2 7918   5.106   1.687   3.449
 2652TIP3   OH2 7919   4.947   3.228   2.981
 2652TIP3    H1 7920   4.870   3.199   2.933
 2652TIP3    H2 7921   4.933   3.321   2.995
 2653TIP3   OH2 7922   6.214   2.612   1.753
 2653TIP3    H1 7923   6.185   2.700   1.727
 2653TIP3    H2 7924   6.142   2.555   1.725
 2654TIP3   OH2 7925   6.217   2.610   2.151
 2654TIP3    H1 7926   6.257   2.591   2.236
 2654TIP3    H2 7927   6.172   2.529   2.128
 2655TIP3   OH2 7928   5.518   2.485   2.513
 2655TIP3    H1 7929   5.555   2.427   2.580
 2655TIP3    H2 7930   5.595   2.515   2.464
 2656TIP3   OH2 7931   6.488   2.908   1.829
 2656TIP3    H1 7932   6.464   2.851   1.902
 2656TIP3    H2 7933   6.503   2.993   1.869
 2657TIP3   OH2 7934   5.475   2.879   2.276
 2657TIP3    H1 7935   5.470   2.787   2.248
 2657TIP3    H2 7936   5.556   2.911   2.235
 2658TIP3   OH2 7937   5.194   2.101   1.992
 2658TIP3    H1 7938   5.158   2.186   2.015
 2658TIP3    H2 7939   5.122   2.054   1.951
 2659TIP3   OH2 7940   5.270   2.410   2.194
 2659TIP3    H1 7941   5.319   2.333   2.222
 2659TIP3    H2 7942   5.337   2.476   2.175
 2660TIP3   OH2 7943   6.140   3.360   1.842
 2660TIP3    H1 7944   6.172   3.297   1.778
 2660TIP3    H2 7945   6.108   3.307   1.914
 2661TIP3   OH2 7946   6.019   2.830   2.179
 2661TIP3    H1 7947   6.061   2.754   2.138
 2661TIP3    H2 7948   6.092   2.885   2.207
 2662TIP3   OH2 7949   6.434   2.327   2.205
 2662TIP3    H1 7950   6.471   2.245   2.235
 2662TIP3    H2 7951   6.392   2.306   2.121
 2663TIP3   OH2 7952   5.784   1.982   2.169
 2663TIP3    H1 7953   5.765   2.056   2.112
 2663TIP3    H2 7954   5.730   1.910   2.135
 2664TIP3   OH2 7955   6.454   2.077   1.802
 2664TIP3    H1 7956   6.529   2.074   1.861
 2664TIP3    H2 7957   6.487   2.118   1.722
 2665TIP3   OH2 7958   5.407   2.189   2.293
 2665TIP3    H1 7959   5.491   2.176   2.338
 2665TIP3    H2 7960   5.415   2.140   2.212
 2666TIP3   OH2 7961   5.837   2.390   2.103
 2666TIP3    H1 7962   5.931   2.372   2.111
 2666TIP3    H2 7963   5.800   2.309   2.067
 2667TIP3   OH2 7964   5.765   1.980   2.618
 2667TIP3    H1 7965   5.715   2.016   2.545
 2667TIP3    H2 7966   5.711   1.997   2.695
 2668TIP3   OH2 7967   6.099   2.821   1.615
 2668TIP3    H1 7968   6.069   2.808   1.525
 2668TIP3    H2 7969   6.058   2.904   1.641
 2669TIP3   OH2 7970   5.868   2.752   2.395
 2669TIP3    H1 7971   5.810   2.821   2.428
 2669TIP3    H2 7972   5.912   2.791   2.320
 2670TIP3   OH2 7973   6.676   2.100   1.958
 2670TIP3    H1 7974   6.705   2.024   2.007
 2670TIP3    H2 7975   6.705   2.175   2.010
 2671TIP3   OH2 7976   5.652   2.088   2.390
 2671TIP3    H1 7977   5.706   2.163   2.413
 2671TIP3    H2 7978   5.698   2.046   2.318
 2672TIP3   OH2 7979   5.710   2.952   2.499
 2672TIP3    H1 7980   5.690   3.035   2.455
 2672TIP3    H2 7981   5.632   2.933   2.551
 2673TIP3   OH2 7982   5.072   2.647   1.730
 2673TIP3    H1 7983   5.040   2.662   1.641
 2673TIP3    H2 7984   5.097   2.734   1.761
 2674TIP3   OH2 7985   6.516   3.166   1.953
 2674TIP3    H1 7986   6.434   3.154   2.002
 2674TIP3    H2 7987   6.502   3.246   1.903
 2675TIP3   OH2 7988   6.761   2.036   2.337
 2675TIP3    H1 7989   6.669   2.056   2.319
 2675TIP3    H2 7990   6.805   2.043   2.252
 2676TIP3   OH2 7991   6.106   1.678   2.337
 2676TIP3    H1 7992   6.099   1.586   2.362
 2676TIP3    H2 7993   6.031   1.720   2.379
 2677TIP3   OH2 7994   6.239   3.196   1.637
 2677TIP3    H1 7995   6.286   3.115   1.621
 2677TIP3    H2 7996   6.301   3.265   1.613
 2678TIP3   OH2 7997   6.383   2.972   1.575
 2678TIP3    H1 7998   6.360   2.893   1.528
 2678TIP3    H2 7999   6.422   2.941   1.657
 2679TIP3   OH2 8000   6.726   3.044   2.302
 2679TIP3    H1 8001   6.715   2.970   2.241
 2679TIP3    H2 8002   6.702   3.121   2.250
 2680TIP3   OH2 8003   6.039   2.458   1.598
 2680TIP3    H1 8004   5.961   2.510   1.579
 2680TIP3    H2 8005   6.092   2.463   1.519
 2681TIP3   OH2 8006   6.010   2.265   1.307
 2681TIP3    H1 8007   6.060   2.322   1.365
 2681TIP3    H2 8008   6.076   2.218   1.255
 2682TIP3   OH2 8009   6.922   2.655   2.175
 2682TIP3    H1 8010   6.848   2.716   2.173
 2682TIP3    H2 8011   6.995   2.706   2.141
 2683TIP3   OH2 8012   6.397   2.548   1.561
 2683TIP3    H1 8013   6.343   2.574   1.636
 2683TIP3    H2 8014   6.478   2.516   1.600
 2684TIP3   OH2 8015   6.611   2.560   2.479
 2684TIP3    H1 8016   6.613   2.632   2.542
 2684TIP3    H2 8017   6.525   2.565   2.438
 2685TIP3   OH2 8018   5.634   2.526   1.962
 2685TIP3    H1 8019   5.600   2.467   1.895
 2685TIP3    H2 8020   5.709   2.480   1.999
 2686TIP3   OH2 8021   5.730   2.925   2.129
 2686TIP3    H1 8022   5.705   2.930   2.037
 2686TIP3    H2 8023   5.823   2.904   2.128
 2687TIP3   OH2 8024   5.738   2.519   2.330
 2687TIP3    H1 8025   5.775   2.486   2.249
 2687TIP3    H2 8026   5.785   2.600   2.348
 2688TIP3   OH2 8027   6.303   3.148   2.116
 2688TIP3    H1 8028   6.276   3.228   2.161
 2688TIP3    H2 8029   6.279   3.078   2.176
 2689TIP3   OH2 8030   5.905   3.061   2.658
 2689TIP3    H1 8031   5.846   3.121   2.701
 2689TIP3    H2 8032   5.849   3.008   2.601
 2690TIP3   OH2 8033   6.226   2.415   1.399
 2690TIP3    H1 8034   6.289   2.470   1.446
 2690TIP3    H2 8035   6.243   2.432   1.306
 2691TIP3   OH2 8036   5.662   2.604   2.795
 2691TIP3    H1 8037   5.666   2.697   2.814
 2691TIP3    H2 8038   5.568   2.586   2.785
 2692TIP3   OH2 8039   5.989   3.076   1.648
 2692TIP3    H1 8040   6.072   3.124   1.651
 2692TIP3    H2 8041   5.928   3.136   1.605
 2693TIP3   OH2 8042   5.696   3.222   2.738
 2693TIP3    H1 8043   5.671   3.227   2.646
 2693TIP3    H2 8044   5.615   3.202   2.785
 2694TIP3   OH2 8045   5.507   2.372   1.757
 2694TIP3    H1 8046   5.432   2.421   1.723
 2694TIP3    H2 8047   5.469   2.287   1.782
 2695TIP3   OH2 8048   6.551   3.002   0.986
 2695TIP3    H1 8049   6.539   3.096   0.973
 2695TIP3    H2 8050   6.646   2.990   0.987
 2696TIP3   OH2 8051   5.283   2.768   2.692
 2696TIP3    H1 8052   5.218   2.754   2.624
 2696TIP3    H2 8053   5.321   2.682   2.708
 2697TIP3   OH2 8054   5.170   2.927   2.338
 2697TIP3    H1 8055   5.262   2.928   2.311
 2697TIP3    H2 8056   5.152   3.018   2.364
 2698TIP3   OH2 8057   6.928   3.391   2.346
 2698TIP3    H1 8058   6.938   3.299   2.368
 2698TIP3    H2 8059   6.856   3.421   2.401
 2699TIP3   OH2 8060   6.098   3.195   2.517
 2699TIP3    H1 8061   6.092   3.287   2.544
 2699TIP3    H2 8062   6.028   3.151   2.565
 2700TIP3   OH2 8063   5.873   3.301   1.468
 2700TIP3    H1 8064   5.824   3.287   1.387
 2700TIP3    H2 8065   5.844   3.386   1.500
 2701TIP3   OH2 8066   6.070   3.230   1.107
 2701TIP3    H1 8067   6.122   3.158   1.071
 2701TIP3    H2 8068   6.107   3.246   1.193
 2702TIP3   OH2 8069   6.130   3.278   1.375
 2702TIP3    H1 8070   6.043   3.283   1.414
 2702TIP3    H2 8071   6.186   3.245   1.445
 2703TIP3   OH2 8072   6.836   2.444   2.736
 2703TIP3    H1 8073   6.834   2.521   2.679
 2703TIP3    H2 8074   6.865   2.373   2.680
 2704TIP3   OH2 8075   5.496   2.944   2.669
 2704TIP3    H1 8076   5.541   2.928   2.752
 2704TIP3    H2 8077   5.418   2.888   2.673
 2705TIP3   OH2 8078   5.873   1.768   2.469
 2705TIP3    H1 8079   5.788   1.737   2.437
 2705TIP3    H2 8080   5.853   1.849   2.516
 2706TIP3   OH2 8081   6.410   1.882   2.666
 2706TIP3    H1 8082   6.479   1.864   2.729
 2706TIP3    H2 8083   6.329   1.865   2.714
 2707TIP3   OH2 8084   6.635   2.293   2.563
 2707TIP3    H1 8085   6.604   2.299   2.653
 2707TIP3    H2 8086   6.632   2.383   2.530
 2708TIP3   OH2 8087   6.283   2.466   1.144
 2708TIP3    H1 8088   6.249   2.427   1.064
 2708TIP3    H2 8089   6.369   2.501   1.120
 2709TIP3   OH2 8090   6.009   1.822   1.446
 2709TIP3    H1 8091   5.984   1.824   1.539
 2709TIP3    H2 8092   5.969   1.742   1.412
 2710TIP3   OH2 8093   5.811   2.296   2.477
 2710TIP3    H1 8094   5.767   2.307   2.561
 2710TIP3    H2 8095   5.791   2.376   2.428
 2711TIP3   OH2 8096   5.696   2.175   1.997
 2711TIP3    H1 8097   5.606   2.153   2.022
 2711TIP3    H2 8098   5.705   2.140   1.909
 2712TIP3   OH2 8099   6.171   2.255   1.725
 2712TIP3    H1 8100   6.121   2.327   1.686
 2712TIP3    H2 8101   6.232   2.228   1.656
 2713TIP3   OH2 8102   6.358   2.529   2.803
 2713TIP3    H1 8103   6.335   2.458   2.863
 2713TIP3    H2 8104   6.451   2.546   2.822
 2714TIP3   OH2 8105   6.324   2.271   1.960
 2714TIP3    H1 8106   6.262   2.300   1.893
 2714TIP3    H2 8107   6.366   2.194   1.921
 2715TIP3   OH2 8108   5.644   2.312   2.697
 2715TIP3    H1 8109   5.669   2.376   2.763
 2715TIP3    H2 8110   5.627   2.232   2.747
 2716TIP3   OH2 8111   5.680   1.789   1.417
 2716TIP3    H1 8112   5.672   1.792   1.513
 2716TIP3    H2 8113   5.603   1.835   1.385
 2717TIP3   OH2 8114   5.234   1.831   2.283
 2717TIP3    H1 8115   5.303   1.869   2.337
 2717TIP3    H2 8116   5.274   1.821   2.196
 2718TIP3   OH2 8117   5.159   1.811   1.787
 2718TIP3    H1 8118   5.204   1.846   1.710
 2718TIP3    H2 8119   5.098   1.880   1.812
 2719TIP3   OH2 8120   6.351   2.521   2.378
 2719TIP3    H1 8121   6.385   2.455   2.317
 2719TIP3    H2 8122   6.317   2.470   2.452
 2720TIP3   OH2 8123   6.049   1.971   2.052
 2720TIP3    H1 8124   5.970   1.974   2.107
 2720TIP3    H2 8125   6.122   1.968   2.115
 2721TIP3   OH2 8126   5.457   2.051   2.061
 2721TIP3    H1 8127   5.368   2.055   2.026
 2721TIP3    H2 8128   5.486   1.962   2.041
 2722TIP3   OH2 8129   5.712   2.048   1.754
 2722TIP3    H1 8130   5.805   2.064   1.741
 2722TIP3    H2 8131   5.671   2.069   1.670
 2723TIP3   OH2 8132   6.489   2.066   2.274
 2723TIP3    H1 8133   6.460   2.083   2.364
 2723TIP3    H2 8134   6.422   2.007   2.238
 2724TIP3   OH2 8135   5.585   2.075   1.514
 2724TIP3    H1 8136   5.519   2.031   1.462
 2724TIP3    H2 8137   5.639   2.122   1.451
 2725TIP3   OH2 8138   6.664   3.747   2.480
 2725TIP3    H1 8139   6.666   3.767   2.386
 2725TIP3    H2 8140   6.740   3.792   2.516
 2726TIP3   OH2 8141   5.645   2.862   2.902
 2726TIP3    H1 8142   5.726   2.889   2.947
 2726TIP3    H2 8143   5.577   2.873   2.968
 2727TIP3   OH2 8144   6.107   2.329   2.154
 2727TIP3    H1 8145   6.178   2.290   2.102
 2727TIP3    H2 8146   6.113   2.286   2.239
 2728TIP3   OH2 8147   5.605   1.805   2.042
 2728TIP3    H1 8148   5.575   1.729   2.092
 2728TIP3    H2 8149   5.635   1.769   1.959
 2729TIP3   OH2 8150   6.079   2.230   2.433
 2729TIP3    H1 8151   5.992   2.265   2.450
 2729TIP3    H2 8152   6.137   2.285   2.486
 2730TIP3   OH2 8153   5.810   2.605   1.542
 2730TIP3    H1 8154   5.737   2.548   1.520
 2730TIP3    H2 8155   5.784   2.648   1.624
 2731TIP3   OH2 8156   6.709   2.832   2.133
 2731TIP3    H1 8157   6.737   2.874   2.052
 2731TIP3    H2 8158   6.623   2.794   2.111
 2732TIP3   OH2 8159   6.259   1.936   1.441
 2732TIP3    H1 8160   6.164   1.924   1.434
 2732TIP3    H2 8161   6.269   2.031   1.454
 2733TIP3   OH2 8162   6.216   2.928   2.549
 2733TIP3    H1 8163   6.263   2.920   2.632
 2733TIP3    H2 8164   6.176   3.015   2.552
 2734TIP3   OH2 8165   6.338   2.189   1.513
 2734TIP3    H1 8166   6.433   2.192   1.514
 2734TIP3    H2 8167   6.312   2.263   1.458
 2735TIP3   OH2 8168   5.493   2.589   2.194
 2735TIP3    H1 8169   5.533   2.587   2.107
 2735TIP3    H2 8170   5.565   2.568   2.254
 2736TIP3   OH2 8171   5.960   2.758   1.369
 2736TIP3    H1 8172   5.914   2.842   1.371
 2736TIP3    H2 8173   5.909   2.702   1.428
 2737TIP3   OH2 8174   5.390   2.539   2.824
 2737TIP3    H1 8175   5.397   2.518   2.917
 2737TIP3    H2 8176   5.315   2.488   2.793
 2738TIP3   OH2 8177   6.126   2.675   2.840
 2738TIP3    H1 8178   6.063   2.622   2.792
 2738TIP3    H2 8179   6.211   2.640   2.816
 2739TIP3   OH2 8180   6.368   3.202   2.442
 2739TIP3    H1 8181   6.273   3.195   2.448
 2739TIP3    H2 8182   6.394   3.250   2.520
 2740TIP3   OH2 8183   6.970   3.129   2.371
 2740TIP3    H1 8184   6.885   3.099   2.339
 2740TIP3    H2 8185   7.030   3.114   2.298
 2741TIP3   OH2 8186   6.479   3.086   1.258
 2741TIP3    H1 8187   6.460   3.025   1.330
 2741TIP3    H2 8188   6.496   3.029   1.183
 2742TIP3   OH2 8189   6.467   2.718   2.052
 2742TIP3    H1 8190   6.377   2.697   2.077
 2742TIP3    H2 8191   6.499   2.638   2.010
 2743TIP3   OH2 8192   5.605   2.961   1.870
 2743TIP3    H1 8193   5.618   3.024   1.799
 2743TIP3    H2 8194   5.521   2.986   1.909
 2744TIP3   OH2 8195   5.182   2.238   1.555
 2744TIP3    H1 8196   5.228   2.319   1.575
 2744TIP3    H2 8197   5.104   2.239   1.611
 2745TIP3   OH2 8198   5.704   2.716   1.768
 2745TIP3    H1 8199   5.678   2.803   1.798
 2745TIP3    H2 8200   5.683   2.659   1.842
 2746TIP3   OH2 8201   5.905   3.262   2.311
 2746TIP3    H1 8202   5.934   3.336   2.258
 2746TIP3    H2 8203   5.983   3.234   2.359
 2747TIP3   OH2 8204   5.535   3.182   1.693
 2747TIP3    H1 8205   5.470   3.173   1.763
 2747TIP3    H2 8206   5.562   3.274   1.697
 2748TIP3   OH2 8207   6.264   2.924   2.278
 2748TIP3    H1 8208   6.250   2.920   2.373
 2748TIP3    H2 8209   6.341   2.870   2.263
 2749TIP3   OH2 8210   6.247   2.808   1.151
 2749TIP3    H1 8211   6.297   2.790   1.230
 2749TIP3    H2 8212   6.161   2.768   1.167
 2750TIP3   OH2 8213   6.505   3.443   2.308
 2750TIP3    H1 8214   6.427   3.387   2.311
 2750TIP3    H2 8215   6.489   3.502   2.235
 2751TIP3   OH2 8216   6.549   3.274   0.963
 2751TIP3    H1 8217   6.600   3.342   0.918
 2751TIP3    H2 8218   6.476   3.321   1.002
 2752TIP3   OH2 8219   5.597   2.057   2.827
 2752TIP3    H1 8220   5.501   2.063   2.833
 2752TIP3    H2 8221   5.622   2.004   2.903
 2753TIP3   OH2 8222   6.401   2.751   1.374
 2753TIP3    H1 8223   6.390   2.680   1.437
 2753TIP3    H2 8224   6.492   2.745   1.347
 2754TIP3   OH2 8225   5.337   3.151   2.450
 2754TIP3    H1 8226   5.393   3.078   2.475
 2754TIP3    H2 8227   5.368   3.225   2.504
 2755TIP3   OH2 8228   5.603   2.783   1.158
 2755TIP3    H1 8229   5.617   2.692   1.134
 2755TIP3    H2 8230   5.587   2.781   1.252
 2756TIP3   OH2 8231   5.548   2.797   1.430
 2756TIP3    H1 8232   5.613   2.769   1.494
 2756TIP3    H2 8233   5.545   2.892   1.437
 2757TIP3   OH2 8234   5.281   2.486   1.637
 2757TIP3    H1 8235   5.214   2.530   1.690
 2757TIP3    H2 8236   5.300   2.547   1.566
 2758TIP3   OH2 8237   6.424   2.122   2.532
 2758TIP3    H1 8238   6.508   2.164   2.551
 2758TIP3    H2 8239   6.425   2.042   2.585
 2759TIP3   OH2 8240   6.323   1.854   1.697
 2759TIP3    H1 8241   6.302   1.875   1.606
 2759TIP3    H2 8242   6.362   1.935   1.732
 2760TIP3   OH2 8243   5.816   2.987   1.374
 2760TIP3    H1 8244   5.731   3.010   1.411
 2760TIP3    H2 8245   5.843   3.066   1.327
 2761TIP3   OH2 8246   5.992   2.059   1.793
 2761TIP3    H1 8247   6.052   2.128   1.768
 2761TIP3    H2 8248   6.010   2.044   1.886
 2762TIP3   OH2 8249   6.278   2.357   2.585
 2762TIP3    H1 8250   6.310   2.405   2.662
 2762TIP3    H2 8251   6.330   2.277   2.584
 2763TIP3   OH2 8252   6.149   1.764   1.890
 2763TIP3    H1 8253   6.126   1.841   1.941
 2763TIP3    H2 8254   6.211   1.796   1.825
 2764TIP3   OH2 8255   5.561   3.068   1.446
 2764TIP3    H1 8256   5.538   3.138   1.384
 2764TIP3    H2 8257   5.548   3.107   1.532
 2765TIP3   OH2 8258   5.663   1.777   1.694
 2765TIP3    H1 8259   5.652   1.868   1.722
 2765TIP3    H2 8260   5.757   1.761   1.700
 2766TIP3   OH2 8261   6.914   2.261   2.546
 2766TIP3    H1 8262   6.825   2.225   2.541
 2766TIP3    H2 8263   6.922   2.315   2.468
 2767TIP3   OH2 8264   6.554   2.463   1.955
 2767TIP3    H1 8265   6.473   2.414   1.973
 2767TIP3    H2 8266   6.619   2.425   2.014
 2768TIP3   OH2 8267   5.293   2.673   1.427
 2768TIP3    H1 8268   5.359   2.742   1.440
 2768TIP3    H2 8269   5.333   2.613   1.365
 2769TIP3   OH2 8270   5.215   1.961   1.564
 2769TIP3    H1 8271   5.228   2.055   1.568
 2769TIP3    H2 8272   5.146   1.949   1.498
 2770TIP3   OH2 8273   6.523   3.445   1.863
 2770TIP3    H1 8274   6.476   3.481   1.788
 2770TIP3    H2 8275   6.615   3.451   1.839
 2771TIP3   OH2 8276   5.611   1.682   2.430
 2771TIP3    H1 8277   5.582   1.651   2.344
 2771TIP3    H2 8278   5.601   1.607   2.488
 2772TIP3   OH2 8279   5.326   3.473   2.904
 2772TIP3    H1 8280   5.413   3.467   2.943
 2772TIP3    H2 8281   5.301   3.383   2.886
 2773TIP3   OH2 8282   5.802   3.387   2.931
 2773TIP3    H1 8283   5.895   3.365   2.935
 2773TIP3    H2 8284   5.767   3.333   2.859
 2774TIP3   OH2 8285   5.768   2.978   1.054
 2774TIP3    H1 8286   5.715   2.912   1.100
 2774TIP3    H2 8287   5.846   2.930   1.026
 2775TIP3   OH2 8288   6.421   3.323   2.684
 2775TIP3    H1 8289   6.430   3.252   2.747
 2775TIP3    H2 8290   6.496   3.380   2.701
 2776TIP3   OH2 8291   6.199   3.021   0.985
 2776TIP3    H1 8292   6.231   2.957   1.048
 2776TIP3    H2 8293   6.262   3.017   0.912
 2777TIP3   OH2 8294   5.438   2.860   3.089
 2777TIP3    H1 8295   5.454   2.766   3.096
 2777TIP3    H2 8296   5.353   2.867   3.045
 2778TIP3   OH2 8297   5.430   2.484   1.285
 2778TIP3    H1 8298   5.482   2.461   1.362
 2778TIP3    H2 8299   5.494   2.499   1.216
 2779TIP3   OH2 8300   6.055   2.951   2.861
 2779TIP3    H1 8301   6.011   2.973   2.779
 2779TIP3    H2 8302   6.091   2.863   2.847
 2780TIP3   OH2 8303   5.959   2.706   1.099
 2780TIP3    H1 8304   5.950   2.721   1.193
 2780TIP3    H2 8305   5.953   2.611   1.089
 2781TIP3   OH2 8306   6.529   2.974   2.478
 2781TIP3    H1 8307   6.600   3.003   2.421
 2781TIP3    H2 8308   6.460   3.040   2.467
 2782TIP3   OH2 8309   5.557   2.600   3.085
 2782TIP3    H1 8310   5.630   2.595   3.023
 2782TIP3    H2 8311   5.597   2.627   3.167
 2783TIP3   OH2 8312   5.608   2.419   1.493
 2783TIP3    H1 8313   5.586   2.389   1.581
 2783TIP3    H2 8314   5.654   2.345   1.453
 2784TIP3   OH2 8315   5.904   2.478   2.737
 2784TIP3    H1 8316   5.826   2.532   2.749
 2784TIP3    H2 8317   5.946   2.514   2.658
 2785TIP3   OH2 8318   5.737   2.223   1.342
 2785TIP3    H1 8319   5.707   2.231   1.251
 2785TIP3    H2 8320   5.832   2.232   1.336
 2786TIP3   OH2 8321   6.408   2.868   2.841
 2786TIP3    H1 8322   6.474   2.830   2.783
 2786TIP3    H2 8323   6.406   2.810   2.917
 2787TIP3   OH2 8324   6.519   2.561   1.045
 2787TIP3    H1 8325   6.551   2.498   0.980
 2787TIP3    H2 8326   6.488   2.636   0.994
 2788TIP3   OH2 8327   6.020   2.263   2.857
 2788TIP3    H1 8328   6.025   2.189   2.795
 2788TIP3    H2 8329   5.983   2.334   2.805
 2789TIP3   OH2 8330   6.026   2.058   2.659
 2789TIP3    H1 8331   6.056   2.099   2.578
 2789TIP3    H2 8332   5.935   2.035   2.643
 2790TIP3   OH2 8333   6.043   2.597   2.538
 2790TIP3    H1 8334   6.132   2.620   2.510
 2790TIP3    H2 8335   5.986   2.656   2.489
 2791TIP3   OH2 8336   6.621   2.551   2.910
 2791TIP3    H1 8337   6.651   2.470   2.869
 2791TIP3    H2 8338   6.701   2.601   2.927
 2792TIP3   OH2 8339   6.626   2.800   2.664
 2792TIP3    H1 8340   6.588   2.863   2.602
 2792TIP3    H2 8341   6.717   2.791   2.635
 2793TIP3   OH2 8342   5.901   2.356   3.095
 2793TIP3    H1 8343   5.831   2.293   3.111
 2793TIP3    H2 8344   5.931   2.337   3.006
 2794TIP3   OH2 8345   6.148   1.824   2.749
 2794TIP3    H1 8346   6.107   1.905   2.718
 2794TIP3    H2 8347   6.081   1.756   2.734
 2795TIP3   OH2 8348   6.279   2.310   2.950
 2795TIP3    H1 8349   6.270   2.298   3.045
 2795TIP3    H2 8350   6.192   2.289   2.915
 2796TIP3   OH2 8351   6.517   2.274   2.807
 2796TIP3    H1 8352   6.440   2.272   2.863
 2796TIP3    H2 8353   6.588   2.240   2.862
 2797TIP3   OH2 8354   6.727   2.199   2.960
 2797TIP3    H1 8355   6.759   2.110   2.977
 2797TIP3    H2 8356   6.732   2.243   3.045
 2798TIP3   OH2 8357   5.735   2.135   3.158
 2798TIP3    H1 8358   5.742   2.047   3.121
 2798TIP3    H2 8359   5.775   2.128   3.245
 2799TIP3   OH2 8360   6.218   1.811   3.013
 2799TIP3    H1 8361   6.287   1.744   3.009
 2799TIP3    H2 8362   6.188   1.819   2.922
 2800TIP3   OH2 8363   6.305   2.026   3.160
 2800TIP3    H1 8364   6.279   1.957   3.099
 2800TIP3    H2 8365   6.234   2.091   3.154
 2801TIP3   OH2 8366   5.549   3.268   1.253
 2801TIP3    H1 8367   5.642   3.253   1.235
 2801TIP3    H2 8368   5.518   3.320   1.179
 2802TIP3   OH2 8369   5.021   2.649   1.450
 2802TIP3    H1 8370   5.114   2.671   1.443
 2802TIP3    H2 8371   5.013   2.564   1.408
 2803TIP3   OH2 8372   4.919   3.253   1.885
 2803TIP3    H1 8373   4.856   3.193   1.846
 2803TIP3    H2 8374   4.963   3.202   1.953
 2804TIP3   OH2 8375   5.037   3.115   2.084
 2804TIP3    H1 8376   5.070   3.025   2.087
 2804TIP3    H2 8377   5.112   3.169   2.110
 2805TIP3   OH2 8378   6.804   3.497   1.860
 2805TIP3    H1 8379   6.795   3.519   1.953
 2805TIP3    H2 8380   6.796   3.581   1.815
 2806TIP3   OH2 8381   6.778   3.516   2.133
 2806TIP3    H1 8382   6.745   3.428   2.146
 2806TIP3    H2 8383   6.862   3.517   2.178
 2807TIP3   OH2 8384   6.852   3.200   2.735
 2807TIP3    H1 8385   6.784   3.213   2.801
 2807TIP3    H2 8386   6.895   3.286   2.727
 2808TIP3   OH2 8387   6.673   2.725   1.334
 2808TIP3    H1 8388   6.725   2.800   1.308
 2808TIP3    H2 8389   6.711   2.697   1.417
 2809TIP3   OH2 8390   6.766   2.632   1.573
 2809TIP3    H1 8391   6.718   2.556   1.605
 2809TIP3    H2 8392   6.762   2.695   1.646
 2810TIP3   OH2 8393   6.850   2.969   1.939
 2810TIP3    H1 8394   6.893   2.933   1.861
 2810TIP3    H2 8395   6.827   3.058   1.915
 2811TIP3   OH2 8396   6.667   3.267   2.159
 2811TIP3    H1 8397   6.601   3.312   2.212
 2811TIP3    H2 8398   6.619   3.233   2.084
 2812TIP3   OH2 8399   6.712   2.469   1.212
 2812TIP3    H1 8400   6.649   2.497   1.146
 2812TIP3    H2 8401   6.726   2.547   1.266
 2813TIP3   OH2 8402   6.480   2.212   1.159
 2813TIP3    H1 8403   6.552   2.272   1.177
 2813TIP3    H2 8404   6.511   2.126   1.187
 2814TIP3   OH2 8405   6.614   2.433   1.688
 2814TIP3    H1 8406   6.615   2.338   1.677
 2814TIP3    H2 8407   6.596   2.446   1.781
 2815TIP3   OH2 8408   5.254   2.499   2.453
 2815TIP3    H1 8409   5.246   2.475   2.361
 2815TIP3    H2 8410   5.348   2.506   2.469
 2816TIP3   OH2 8411   6.874   2.937   2.545
 2816TIP3    H1 8412   6.841   2.887   2.470
 2816TIP3    H2 8413   6.864   3.028   2.519
 2817TIP3   OH2 8414   7.141   2.665   2.461
 2817TIP3    H1 8415   7.167   2.584   2.504
 2817TIP3    H2 8416   7.179   2.734   2.515
 2818TIP3   OH2 8417   6.537   1.960   1.230
 2818TIP3    H1 8418   6.609   1.906   1.263
 2818TIP3    H2 8419   6.463   1.900   1.222
 2819TIP3   OH2 8420   6.614   2.166   1.584
 2819TIP3    H1 8421   6.649   2.079   1.606
 2819TIP3    H2 8422   6.672   2.198   1.515
 2820TIP3   OH2 8423   6.768   2.338   2.097
 2820TIP3    H1 8424   6.852   2.368   2.062
 2820TIP3    H2 8425   6.768   2.368   2.188
 2821TIP3   OH2 8426   6.842   2.456   2.345
 2821TIP3    H1 8427   6.770   2.497   2.393
 2821TIP3    H2 8428   6.881   2.526   2.294
 2822TIP3   OH2 8429   5.470   2.189   3.101
 2822TIP3    H1 8430   5.564   2.188   3.115
 2822TIP3    H2 8431   5.439   2.108   3.141
 2823TIP3   OH2 8432   6.712   1.916   1.653
 2823TIP3    H1 8433   6.756   1.921   1.738
 2823TIP3    H2 8434   6.657   1.838   1.659
 2824TIP3   OH2 8435   5.441   1.903   2.455
 2824TIP3    H1 8436   5.498   1.826   2.457
 2824TIP3    H2 8437   5.500   1.976   2.438
 2825TIP3   OH2 8438   5.229   2.172   2.511
 2825TIP3    H1 8439   5.281   2.162   2.431
 2825TIP3    H2 8440   5.246   2.262   2.540
 2826TIP3   OH2 8441   5.216   1.666   2.011
 2826TIP3    H1 8442   5.129   1.660   2.050
 2826TIP3    H2 8443   5.205   1.725   1.936
 2827TIP3   OH2 8444   6.405   3.385   1.542
 2827TIP3    H1 8445   6.451   3.376   1.459
 2827TIP3    H2 8446   6.404   3.479   1.558
 2828TIP3   OH2 8447   5.439   1.738   2.833
 2828TIP3    H1 8448   5.389   1.737   2.914
 2828TIP3    H2 8449   5.382   1.784   2.771
 2829TIP3   OH2 8450   5.477   3.186   2.907
 2829TIP3    H1 8451   5.384   3.170   2.892
 2829TIP3    H2 8452   5.488   3.174   3.002
 2830TIP3   OH2 8453   5.673   3.230   2.457
 2830TIP3    H1 8454   5.624   3.305   2.422
 2830TIP3    H2 8455   5.758   3.235   2.412
 2831TIP3   OH2 8456   6.087   3.462   2.594
 2831TIP3    H1 8457   6.126   3.459   2.682
 2831TIP3    H2 8458   6.148   3.514   2.543
 2832TIP3   OH2 8459   6.271   3.616   2.460
 2832TIP3    H1 8460   6.338   3.568   2.411
 2832TIP3    H2 8461   6.321   3.672   2.520
 2833TIP3   OH2 8462   5.348   3.491   2.497
 2833TIP3    H1 8463   5.256   3.502   2.473
 2833TIP3    H2 8464   5.363   3.556   2.565
 2834TIP3   OH2 8465   5.575   3.463   2.346
 2834TIP3    H1 8466   5.492   3.473   2.392
 2834TIP3    H2 8467   5.554   3.483   2.255
 2835TIP3   OH2 8468   5.987   3.473   2.145
 2835TIP3    H1 8469   5.919   3.483   2.078
 2835TIP3    H2 8470   5.997   3.561   2.182
 2836TIP3   OH2 8471   6.252   3.413   2.190
 2836TIP3    H1 8472   6.159   3.428   2.174
 2836TIP3    H2 8473   6.296   3.478   2.135
 2837TIP3   OH2 8474   6.451   3.598   2.082
 2837TIP3    H1 8475   6.436   3.684   2.045
 2837TIP3    H2 8476   6.475   3.543   2.008
 2838TIP3   OH2 8477   5.247   3.256   2.211
 2838TIP3    H1 8478   5.289   3.221   2.289
 2838TIP3    H2 8479   5.297   3.220   2.138
 2839TIP3   OH2 8480   5.738   3.256   2.077
 2839TIP3    H1 8481   5.677   3.183   2.060
 2839TIP3    H2 8482   5.782   3.232   2.158
 2840TIP3   OH2 8483   6.283   1.882   2.188
 2840TIP3    H1 8484   6.240   1.812   2.237
 2840TIP3    H2 8485   6.354   1.839   2.140
 2841TIP3   OH2 8486   6.751   1.861   2.073
 2841TIP3    H1 8487   6.801   1.785   2.043
 2841TIP3    H2 8488   6.661   1.828   2.084
 2842TIP3   OH2 8489   5.525   1.581   2.187
 2842TIP3    H1 8490   5.435   1.550   2.193
 2842TIP3    H2 8491   5.578   1.501   2.181
 2843TIP3   OH2 8492   5.338   1.473   1.839
 2843TIP3    H1 8493   5.364   1.526   1.764
 2843TIP3    H2 8494   5.302   1.537   1.901
 2844TIP3   OH2 8495   5.993   1.620   2.078
 2844TIP3    H1 8496   6.041   1.670   2.012
 2844TIP3    H2 8497   6.029   1.650   2.161
 2845TIP3   OH2 8498   6.494   1.748   2.058
 2845TIP3    H1 8499   6.473   1.719   1.969
 2845TIP3    H2 8500   6.487   1.669   2.112
 2846TIP3   OH2 8501   6.552   1.694   1.689
 2846TIP3    H1 8502   6.465   1.733   1.682
 2846TIP3    H2 8503   6.536   1.603   1.713
 2847TIP3   OH2 8504   5.056   2.994   1.556
 2847TIP3    H1 8505   4.961   3.006   1.547
 2847TIP3    H2 8506   5.081   3.052   1.628
 2848TIP3   OH2 8507   5.444   1.616   1.610
 2848TIP3    H1 8508   5.486   1.555   1.549
 2848TIP3    H2 8509   5.516   1.670   1.643
 2849TIP3   OH2 8510   5.937   1.805   1.710
 2849TIP3    H1 8511   5.998   1.757   1.766
 2849TIP3    H2 8512   5.950   1.897   1.734
 2850TIP3   OH2 8513   5.812   3.209   1.197
 2850TIP3    H1 8514   5.897   3.236   1.164
 2850TIP3    H2 8515   5.787   3.134   1.143
 2851TIP3   OH2 8516   6.520   3.355   1.291
 2851TIP3    H1 8517   6.511   3.260   1.283
 2851TIP3    H2 8518   6.472   3.389   1.216
 2852TIP3   OH2 8519   5.743   1.860   3.073
 2852TIP3    H1 8520   5.707   1.795   3.134
 2852TIP3    H2 8521   5.835   1.866   3.096
 2853TIP3   OH2 8522   5.996   1.866   3.186
 2853TIP3    H1 8523   6.074   1.849   3.133
 2853TIP3    H2 8524   5.994   1.794   3.249
 2854TIP3   OH2 8525   5.111   3.045   1.268
 2854TIP3    H1 8526   5.105   3.038   1.364
 2854TIP3    H2 8527   5.196   3.007   1.246
 2855TIP3   OH2 8528   6.819   1.941   3.002
 2855TIP3    H1 8529   6.830   1.910   3.092
 2855TIP3    H2 8530   6.887   1.895   2.952
 2856TIP3   OH2 8531   6.710   3.475   2.489
 2856TIP3    H1 8532   6.636   3.451   2.433
 2856TIP3    H2 8533   6.704   3.571   2.497
 2857TIP3   OH2 8534   6.837   2.932   1.264
 2857TIP3    H1 8535   6.894   2.925   1.187
 2857TIP3    H2 8536   6.859   3.017   1.303
 2858TIP3   OH2 8537   7.029   2.930   2.145
 2858TIP3    H1 8538   6.953   2.935   2.087
 2858TIP3    H2 8539   7.073   3.014   2.134
 2859TIP3   OH2 8540   6.858   3.224   1.839
 2859TIP3    H1 8541   6.951   3.243   1.844
 2859TIP3    H2 8542   6.815   3.309   1.853
 2860TIP3   OH2 8543   7.287   4.819   3.452
 2860TIP3    H1 8544   7.356   4.827   3.518
 2860TIP3    H2 8545   7.319   4.869   3.377
 2861TIP3   OH2 8546   6.934   3.185   1.318
 2861TIP3    H1 8547   6.888   3.224   1.244
 2861TIP3    H2 8548   6.932   3.253   1.386
 2862TIP3   OH2 8549   7.141   3.794   2.337
 2862TIP3    H1 8550   7.198   3.770   2.410
 2862TIP3    H2 8551   7.100   3.712   2.312
 2863TIP3   OH2 8552   6.753   3.500   1.342
 2863TIP3    H1 8553   6.672   3.456   1.317
 2863TIP3    H2 8554   6.787   3.448   1.416
 2864TIP3   OH2 8555   6.874   3.362   1.553
 2864TIP3    H1 8556   6.839   3.304   1.620
 2864TIP3    H2 8557   6.920   3.431   1.601
 2865TIP3   OH2 8558   7.191   3.456   2.310
 2865TIP3    H1 8559   7.104   3.417   2.313
 2865TIP3    H2 8560   7.251   3.382   2.317
 2866TIP3   OH2 8561   7.082   3.739   1.876
 2866TIP3    H1 8562   6.989   3.761   1.875
 2866TIP3    H2 8563   7.118   3.791   1.948
 2867TIP3   OH2 8564   7.044   3.557   1.676
 2867TIP3    H1 8565   7.079   3.609   1.749
 2867TIP3    H2 8566   7.121   3.515   1.638
 2868TIP3   OH2 8567   6.791   3.287   1.109
 2868TIP3    H1 8568   6.701   3.260   1.087
 2868TIP3    H2 8569   6.797   3.377   1.076
 2869TIP3   OH2 8570   0.445   3.641   2.993
 2869TIP3    H1 8571   0.530   3.667   2.956
 2869TIP3    H2 8572   0.405   3.588   2.924
 2870TIP3   OH2 8573   0.449   3.644   3.320
 2870TIP3    H1 8574   0.501   3.601   3.388
 2870TIP3    H2 8575   0.447   3.582   3.248
 2871TIP3   OH2 8576   0.377   4.386   3.024
 2871TIP3    H1 8577   0.417   4.322   2.965
 2871TIP3    H2 8578   0.381   4.344   3.110
 2872TIP3   OH2 8579   0.301   3.871   3.338
 2872TIP3    H1 8580   0.326   3.781   3.318
 2872TIP3    H2 8581   0.384   3.916   3.353
 2873TIP3   OH2 8582   1.298   3.196   3.361
 2873TIP3    H1 8583   1.320   3.278   3.405
 2873TIP3    H2 8584   1.322   3.209   3.270
 2874TIP3   OH2 8585   0.666   3.363   3.397
 2874TIP3    H1 8586   0.708   3.279   3.410
 2874TIP3    H2 8587   0.663   3.374   3.302
 2875TIP3   OH2 8588   0.075   3.015   3.359
 2875TIP3    H1 8589   0.053   3.083   3.295
 2875TIP3    H2 8590   0.027   2.937   3.329
 2876TIP3   OH2 8591   0.728   3.126   2.980
 2876TIP3    H1 8592   0.795   3.117   3.048
 2876TIP3    H2 8593   0.775   3.161   2.904
 2877TIP3   OH2 8594   0.110   3.348   3.298
 2877TIP3    H1 8595   0.205   3.347   3.309
 2877TIP3    H2 8596   0.097   3.350   3.203
 2878TIP3   OH2 8597   1.362   3.409   3.534
 2878TIP3    H1 8598   1.277   3.451   3.520
 2878TIP3    H2 8599   1.396   3.448   3.615
 2879TIP3   OH2 8600   0.063   2.946   3.828
 2879TIP3    H1 8601   0.018   2.994   3.759
 2879TIP3    H2 8602  -0.004   2.933   3.896
 2880TIP3   OH2 8603   0.334   3.887   2.743
 2880TIP3    H1 8604   0.327   3.819   2.810
 2880TIP3    H2 8605   0.292   3.964   2.782
 2881TIP3   OH2 8606   0.082   3.766   3.599
 2881TIP3    H1 8607   0.008   3.807   3.642
 2881TIP3    H2 8608   0.119   3.835   3.544
 2882TIP3   OH2 8609   0.901   3.134   3.192
 2882TIP3    H1 8610   0.860   3.119   3.277
 2882TIP3    H2 8611   0.958   3.209   3.206
 2883TIP3   OH2 8612   0.005   3.084   3.609
 2883TIP3    H1 8613   0.022   3.178   3.607
 2883TIP3    H2 8614   0.033   3.053   3.523
 2884TIP3   OH2 8615   0.790   4.223   3.185
 2884TIP3    H1 8616   0.700   4.193   3.196
 2884TIP3    H2 8617   0.782   4.300   3.129
 2885TIP3   OH2 8618   1.092   3.084   3.524
 2885TIP3    H1 8619   1.006   3.111   3.490
 2885TIP3    H2 8620   1.154   3.114   3.458
 2886TIP3   OH2 8621   0.380   2.713   3.504
 2886TIP3    H1 8622   0.376   2.620   3.526
 2886TIP3    H2 8623   0.298   2.749   3.539
 2887TIP3   OH2 8624   0.484   4.228   2.824
 2887TIP3    H1 8625   0.533   4.146   2.815
 2887TIP3    H2 8626   0.542   4.295   2.789
 2888TIP3   OH2 8627   0.606   3.991   2.770
 2888TIP3    H1 8628   0.531   3.935   2.748
 2888TIP3    H2 8629   0.677   3.929   2.789
 2889TIP3   OH2 8630   1.021   4.095   3.510
 2889TIP3    H1 8631   1.003   4.024   3.448
 2889TIP3    H2 8632   1.004   4.175   3.460
 2890TIP3   OH2 8633   0.350   3.500   2.774
 2890TIP3    H1 8634   0.270   3.539   2.739
 2890TIP3    H2 8635   0.410   3.498   2.699
 2891TIP3   OH2 8636   0.285   3.313   2.472
 2891TIP3    H1 8637   0.349   3.360   2.526
 2891TIP3    H2 8638   0.336   3.247   2.425
 2892TIP3   OH2 8639   1.197   3.753   3.358
 2892TIP3    H1 8640   1.113   3.800   3.360
 2892TIP3    H2 8641   1.231   3.769   3.270
 2893TIP3   OH2 8642   0.878   3.622   3.662
 2893TIP3    H1 8643   0.875   3.702   3.714
 2893TIP3    H2 8644   0.799   3.624   3.609
 2894TIP3   OH2 8645   7.222   3.483   3.216
 2894TIP3    H1 8646   7.169   3.500   3.138
 2894TIP3    H2 8647   7.292   3.549   3.213
 2895TIP3   OH2 8648   0.086   3.985   3.203
 2895TIP3    H1 8649   0.023   3.915   3.220
 2895TIP3    H2 8650   0.168   3.953   3.239
 2896TIP3   OH2 8651  -0.004   3.567   3.443
 2896TIP3    H1 8652   0.024   3.599   3.357
 2896TIP3    H2 8653   0.025   3.634   3.505
 2897TIP3   OH2 8654   0.528   4.186   3.264
 2897TIP3    H1 8655   0.533   4.260   3.324
 2897TIP3    H2 8656   0.529   4.109   3.321
 2898TIP3   OH2 8657   0.141   4.014   3.863
 2898TIP3    H1 8658   0.097   4.059   3.935
 2898TIP3    H2 8659   0.127   4.071   3.787
 2899TIP3   OH2 8660   0.525   3.473   2.566
 2899TIP3    H1 8661   0.588   3.539   2.595
 2899TIP3    H2 8662   0.534   3.471   2.471
 2900TIP3   OH2 8663   0.226   4.148   2.817
 2900TIP3    H1 8664   0.317   4.174   2.828
 2900TIP3    H2 8665   0.187   4.219   2.765
 2901TIP3   OH2 8666   0.993   2.675   2.616
 2901TIP3    H1 8667   0.917   2.696   2.670
 2901TIP3    H2 8668   1.009   2.755   2.565
 2902TIP3   OH2 8669   7.185   3.407   2.942
 2902TIP3    H1 8670   7.218   3.462   2.871
 2902TIP3    H2 8671   7.137   3.338   2.898
 2903TIP3   OH2 8672   0.804   4.067   2.148
 2903TIP3    H1 8673   0.790   4.138   2.085
 2903TIP3    H2 8674   0.894   4.040   2.134
 2904TIP3   OH2 8675   1.244   4.467   3.561
 2904TIP3    H1 8676   1.250   4.372   3.568
 2904TIP3    H2 8677   1.164   4.491   3.608
 2905TIP3   OH2 8678   0.386   4.236   3.679
 2905TIP3    H1 8679   0.394   4.328   3.704
 2905TIP3    H2 8680   0.292   4.220   3.676
 2906TIP3   OH2 8681   0.134   4.332   2.636
 2906TIP3    H1 8682   0.092   4.306   2.554
 2906TIP3    H2 8683   0.109   4.424   2.647
 2907TIP3   OH2 8684   0.332   4.264   2.279
 2907TIP3    H1 8685   0.388   4.196   2.242
 2907TIP3    H2 8686   0.369   4.282   2.365
 2908TIP3   OH2 8687   0.390   4.319   2.541
 2908TIP3    H1 8688   0.309   4.326   2.591
 2908TIP3    H2 8689   0.459   4.313   2.607
 2909TIP3   OH2 8690   1.126   3.584   3.835
 2909TIP3    H1 8691   1.048   3.592   3.781
 2909TIP3    H2 8692   1.147   3.491   3.834
 2910TIP3   OH2 8693   0.137   2.785   3.613
 2910TIP3    H1 8694   0.054   2.773   3.567
 2910TIP3    H2 8695   0.118   2.851   3.680
 2911TIP3   OH2 8696   0.677   2.926   3.842
 2911TIP3    H1 8697   0.751   2.903   3.899
 2911TIP3    H2 8698   0.600   2.901   3.893
 2912TIP3   OH2 8699   0.890   3.355   3.747
 2912TIP3    H1 8700   0.852   3.349   3.835
 2912TIP3    H2 8701   0.871   3.445   3.720
 2913TIP3   OH2 8702   0.559   3.451   2.297
 2913TIP3    H1 8703   0.522   3.436   2.210
 2913TIP3    H2 8704   0.642   3.497   2.281
 2914TIP3   OH2 8705   0.283   2.856   2.611
 2914TIP3    H1 8706   0.252   2.860   2.702
 2914TIP3    H2 8707   0.252   2.771   2.579
 2915TIP3   OH2 8708   0.055   3.355   3.612
 2915TIP3    H1 8709   0.048   3.331   3.704
 2915TIP3    H2 8710   0.078   3.448   3.613
 2916TIP3   OH2 8711   7.348   3.153   3.165
 2916TIP3    H1 8712   7.289   3.224   3.140
 2916TIP3    H2 8713   7.381   3.119   3.082
 2917TIP3   OH2 8714   0.438   3.282   2.899
 2917TIP3    H1 8715   0.398   3.361   2.863
 2917TIP3    H2 8716   0.497   3.251   2.830
 2918TIP3   OH2 8717   0.647   3.561   3.966
 2918TIP3    H1 8718   0.619   3.496   4.030
 2918TIP3    H2 8719   0.739   3.578   3.988
 2919TIP3   OH2 8720   0.577   3.312   3.134
 2919TIP3    H1 8721   0.517   3.333   3.062
 2919TIP3    H2 8722   0.634   3.243   3.099
 2920TIP3   OH2 8723   7.324   3.505   3.828
 2920TIP3    H1 8724   7.261   3.564   3.869
 2920TIP3    H2 8725   7.284   3.418   3.836
 2921TIP3   OH2 8726   7.367   2.821   2.592
 2921TIP3    H1 8727   7.365   2.814   2.687
 2921TIP3    H2 8728   7.302   2.889   2.571
 2922TIP3   OH2 8729   0.593   3.562   3.561
 2922TIP3    H1 8730   0.629   3.498   3.500
 2922TIP3    H2 8731   0.573   3.511   3.640
 2923TIP3   OH2 8732   0.319   3.012   3.227
 2923TIP3    H1 8733   0.243   3.013   3.285
 2923TIP3    H2 8734   0.394   3.013   3.287
 2924TIP3   OH2 8735   7.086   3.020   3.269
 2924TIP3    H1 8736   7.043   2.994   3.187
 2924TIP3    H2 8737   7.162   2.962   3.276
 2925TIP3   OH2 8738   7.381   3.090   2.907
 2925TIP3    H1 8739   7.473   3.108   2.889
 2925TIP3    H2 8740   7.335   3.120   2.830
 2926TIP3   OH2 8741   0.763   3.105   3.437
 2926TIP3    H1 8742   0.742   3.122   3.528
 2926TIP3    H2 8743   0.695   3.044   3.407
 2927TIP3   OH2 8744   7.219   3.163   2.705
 2927TIP3    H1 8745   7.181   3.095   2.648
 2927TIP3    H2 8746   7.283   3.207   2.649
 2928TIP3   OH2 8747   0.947   4.809   3.657
 2928TIP3    H1 8748   0.943   4.825   3.563
 2928TIP3    H2 8749   1.025   4.856   3.686
 2929TIP3   OH2 8750   0.377   3.336   3.331
 2929TIP3    H1 8751   0.447   3.325   3.267
 2929TIP3    H2 8752   0.414   3.304   3.414
 2930TIP3   OH2 8753   7.301   2.858   3.221
 2930TIP3    H1 8754   7.290   2.766   3.241
 2930TIP3    H2 8755   7.267   2.868   3.132
 2931TIP3   OH2 8756   0.338   3.263   3.625
 2931TIP3    H1 8757   0.269   3.324   3.599
 2931TIP3    H2 8758   0.404   3.318   3.668
 2932TIP3   OH2 8759   0.141   3.634   2.678
 2932TIP3    H1 8760   0.059   3.585   2.671
 2932TIP3    H2 8761   0.131   3.686   2.757
 2933TIP3   OH2 8762   0.962   3.894   3.335
 2933TIP3    H1 8763   0.985   3.941   3.255
 2933TIP3    H2 8764   0.876   3.856   3.318
 2934TIP3   OH2 8765   0.532   2.961   2.603
 2934TIP3    H1 8766   0.439   2.941   2.603
 2934TIP3    H2 8767   0.536   3.055   2.616
 2935TIP3   OH2 8768   0.455   3.968   3.687
 2935TIP3    H1 8769   0.484   3.945   3.775
 2935TIP3    H2 8770   0.442   4.063   3.689
 2936TIP3   OH2 8771   0.590   3.222   2.674
 2936TIP3    H1 8772   0.684   3.213   2.692
 2936TIP3    H2 8773   0.581   3.307   2.633
 2937TIP3   OH2 8774   7.126   3.626   3.463
 2937TIP3    H1 8775   7.086   3.575   3.393
 2937TIP3    H2 8776   7.216   3.595   3.466
 2938TIP3   OH2 8777   0.231   3.798   2.484
 2938TIP3    H1 8778   0.287   3.840   2.549
 2938TIP3    H2 8779   0.209   3.713   2.522
 2939TIP3   OH2 8780   0.409   3.680   4.028
 2939TIP3    H1 8781   0.343   3.653   3.964
 2939TIP3    H2 8782   0.492   3.649   3.991
 2940TIP3   OH2 8783   0.651   4.244   3.595
 2940TIP3    H1 8784   0.555   4.236   3.598
 2940TIP3    H2 8785   0.674   4.287   3.677
 2941TIP3   OH2 8786   1.023   3.305   2.504
 2941TIP3    H1 8787   0.963   3.260   2.445
 2941TIP3    H2 8788   1.024   3.396   2.474
 2942TIP3   OH2 8789   1.267   4.189   3.591
 2942TIP3    H1 8790   1.174   4.170   3.596
 2942TIP3    H2 8791   1.295   4.153   3.507
 2943TIP3   OH2 8792   0.737   4.122   2.415
 2943TIP3    H1 8793   0.728   4.040   2.464
 2943TIP3    H2 8794   0.757   4.094   2.326
 2944TIP3   OH2 8795   0.719   3.761   3.299
 2944TIP3    H1 8796   0.627   3.752   3.274
 2944TIP3    H2 8797   0.761   3.682   3.265
 2945TIP3   OH2 8798   7.312   3.967   2.953
 2945TIP3    H1 8799   7.333   4.054   2.921
 2945TIP3    H2 8800   7.249   3.982   3.023
 2946TIP3   OH2 8801   0.094   3.762   2.912
 2946TIP3    H1 8802   0.059   3.849   2.931
 2946TIP3    H2 8803   0.020   3.703   2.924
 2947TIP3   OH2 8804   0.227   4.262   3.411
 2947TIP3    H1 8805   0.235   4.341   3.464
 2947TIP3    H2 8806   0.219   4.191   3.475
 2948TIP3   OH2 8807   0.544   3.960   3.427
 2948TIP3    H1 8808   0.529   3.951   3.521
 2948TIP3    H2 8809   0.620   3.904   3.409
 2949TIP3   OH2 8810   0.470   3.843   2.319
 2949TIP3    H1 8811   0.537   3.822   2.384
 2949TIP3    H2 8812   0.388   3.813   2.357
 2950TIP3   OH2 8813   0.778   4.499   3.508
 2950TIP3    H1 8814   0.710   4.433   3.499
 2950TIP3    H2 8815   0.767   4.555   3.430
 2951TIP3   OH2 8816   7.277   3.186   4.075
 2951TIP3    H1 8817   7.206   3.222   4.022
 2951TIP3    H2 8818   7.239   3.111   4.120
 2952TIP3   OH2 8819   0.660   3.777   2.497
 2952TIP3    H1 8820   0.665   3.764   2.592
 2952TIP3    H2 8821   0.751   3.770   2.467
 2953TIP3   OH2 8822   7.310   3.803   2.567
 2953TIP3    H1 8823   7.305   3.711   2.592
 2953TIP3    H2 8824   7.245   3.846   2.624
 2954TIP3   OH2 8825   0.696   3.160   3.699
 2954TIP3    H1 8826   0.776   3.205   3.728
 2954TIP3    H2 8827   0.691   3.082   3.753
 2955TIP3   OH2 8828   0.587   2.910   2.876
 2955TIP3    H1 8829   0.567   2.931   2.784
 2955TIP3    H2 8830   0.627   2.989   2.911
 2956TIP3   OH2 8831   0.136   4.049   2.566
 2956TIP3    H1 8832   0.081   4.093   2.631
 2956TIP3    H2 8833   0.224   4.080   2.584
 2957TIP3   OH2 8834   0.252   3.102   2.974
 2957TIP3    H1 8835   0.316   3.168   2.948
 2957TIP3    H2 8836   0.271   3.085   3.066
 2958TIP3   OH2 8837   0.541   3.389   3.765
 2958TIP3    H1 8838   0.579   3.435   3.840
 2958TIP3    H2 8839   0.593   3.309   3.758
 2959TIP3   OH2 8840   0.413   2.808   3.065
 2959TIP3    H1 8841   0.389   2.885   3.117
 2959TIP3    H2 8842   0.479   2.840   3.004
 2960TIP3   OH2 8843   7.297   4.162   2.708
 2960TIP3    H1 8844   7.277   4.224   2.639
 2960TIP3    H2 8845   7.265   4.203   2.788
 2961TIP3   OH2 8846   7.346   2.803   2.861
 2961TIP3    H1 8847   7.311   2.881   2.904
 2961TIP3    H2 8848   7.440   2.807   2.876
 2962TIP3   OH2 8849   1.157   3.314   3.751
 2962TIP3    H1 8850   1.061   3.314   3.755
 2962TIP3    H2 8851   1.178   3.271   3.668
 2963TIP3   OH2 8852   0.813   3.525   3.191
 2963TIP3    H1 8853   0.785   3.505   3.102
 2963TIP3    H2 8854   0.889   3.470   3.205
 2964TIP3   OH2 8855   0.799   4.480   3.078
 2964TIP3    H1 8856   0.761   4.522   3.001
 2964TIP3    H2 8857   0.893   4.490   3.067
 2965TIP3   OH2 8858   7.268   2.729   3.550
 2965TIP3    H1 8859   7.263   2.686   3.465
 2965TIP3    H2 8860   7.282   2.657   3.612
 2966TIP3   OH2 8861   0.074   4.530   4.178
 2966TIP3    H1 8862   0.162   4.501   4.202
 2966TIP3    H2 8863   0.053   4.482   4.098
 2967TIP3   OH2 8864   0.703   4.354   3.839
 2967TIP3    H1 8865   0.706   4.281   3.901
 2967TIP3    H2 8866   0.779   4.407   3.860
 2968TIP3   OH2 8867   0.452   4.062   2.146
 2968TIP3    H1 8868   0.488   3.994   2.204
 2968TIP3    H2 8869   0.513   4.065   2.072
 2969TIP3   OH2 8870   7.019   3.611   2.500
 2969TIP3    H1 8871   7.084   3.588   2.566
 2969TIP3    H2 8872   7.024   3.540   2.436
 2970TIP3   OH2 8873   0.401   4.032   3.955
 2970TIP3    H1 8874   0.316   4.012   3.916
 2970TIP3    H2 8875   0.419   3.959   4.014
 2971TIP3   OH2 8876   0.797   4.019   3.653
 2971TIP3    H1 8877   0.877   4.045   3.608
 2971TIP3    H2 8878   0.733   4.085   3.629
 2972TIP3   OH2 8879   0.187   3.628   3.872
 2972TIP3    H1 8880   0.095   3.633   3.845
 2972TIP3    H2 8881   0.235   3.617   3.791
 2973TIP3   OH2 8882   0.029   3.214   2.536
 2973TIP3    H1 8883  -0.006   3.231   2.448
 2973TIP3    H2 8884   0.117   3.251   2.533
 2974TIP3   OH2 8885   0.673   3.911   4.037
 2974TIP3    H1 8886   0.733   3.875   3.972
 2974TIP3    H2 8887   0.679   3.850   4.111
 2975TIP3   OH2 8888   0.786   3.570   2.195
 2975TIP3    H1 8889   0.775   3.529   2.109
 2975TIP3    H2 8890   0.763   3.661   2.181
 2976TIP3   OH2 8891   0.336   3.249   4.037
 2976TIP3    H1 8892   0.334   3.188   3.963
 2976TIP3    H2 8893   0.253   3.296   4.032
 2977TIP3   OH2 8894   0.305   3.077   3.821
 2977TIP3    H1 8895   0.328   3.128   3.744
 2977TIP3    H2 8896   0.232   3.022   3.794
 2978TIP3   OH2 8897   0.314   3.598   3.637
 2978TIP3    H1 8898   0.403   3.609   3.604
 2978TIP3    H2 8899   0.265   3.672   3.600
 2979TIP3   OH2 8900   0.900   3.587   4.083
 2979TIP3    H1 8901   0.937   3.503   4.111
 2979TIP3    H2 8902   0.973   3.633   4.043
 2980TIP3   OH2 8903   0.911   3.853   3.831
 2980TIP3    H1 8904   0.859   3.912   3.777
 2980TIP3    H2 8905   1.001   3.864   3.799
 2981TIP3   OH2 8906   0.189   3.424   4.301
 2981TIP3    H1 8907   0.173   3.330   4.311
 2981TIP3    H2 8908   0.186   3.439   4.206
 2982TIP3   OH2 8909   0.421   2.850   3.925
 2982TIP3    H1 8910   0.384   2.931   3.891
 2982TIP3    H2 8911   0.358   2.782   3.900
 2983TIP3   OH2 8912   0.563   3.365   4.131
 2983TIP3    H1 8913   0.559   3.353   4.226
 2983TIP3    H2 8914   0.484   3.323   4.099
 2984TIP3   OH2 8915   0.785   3.294   3.986
 2984TIP3    H1 8916   0.711   3.303   4.046
 2984TIP3    H2 8917   0.859   3.271   4.042
 2985TIP3   OH2 8918   1.009   3.259   4.143
 2985TIP3    H1 8919   1.023   3.165   4.155
 2985TIP3    H2 8920   1.004   3.294   4.232
 2986TIP3   OH2 8921   7.315   3.119   4.393
 2986TIP3    H1 8922   7.381   3.089   4.330
 2986TIP3    H2 8923   7.365   3.155   4.466
 2987TIP3   OH2 8924   0.490   2.854   4.186
 2987TIP3    H1 8925   0.560   2.789   4.188
 2987TIP3    H2 8926   0.460   2.855   4.096
 2988TIP3   OH2 8927   0.585   3.074   4.322
 2988TIP3    H1 8928   0.556   3.002   4.267
 2988TIP3    H2 8929   0.516   3.140   4.313
 2989TIP3   OH2 8930   7.251   4.332   2.500
 2989TIP3    H1 8931   7.313   4.325   2.428
 2989TIP3    H2 8932   7.181   4.388   2.467
 2990TIP3   OH2 8933   1.062   4.545   3.058
 2990TIP3    H1 8934   1.091   4.576   3.144
 2990TIP3    H2 8935   1.125   4.583   2.997
 2991TIP3   OH2 8936   1.086   4.570   3.341
 2991TIP3    H1 8937   1.041   4.486   3.336
 2991TIP3    H2 8938   1.161   4.552   3.399
 2992TIP3   OH2 8939   1.130   4.258   3.910
 2992TIP3    H1 8940   1.063   4.264   3.978
 2992TIP3    H2 8941   1.176   4.342   3.913
 2993TIP3   OH2 8942   0.935   3.775   2.501
 2993TIP3    H1 8943   1.008   3.837   2.494
 2993TIP3    H2 8944   0.922   3.763   2.595
 2994TIP3   OH2 8945   1.065   3.603   2.747
 2994TIP3    H1 8946   0.977   3.629   2.772
 2994TIP3    H2 8947   1.122   3.659   2.800
 2995TIP3   OH2 8948   1.133   4.031   3.155
 2995TIP3    H1 8949   1.183   3.961   3.114
 2995TIP3    H2 8950   1.127   4.099   3.088
 2996TIP3   OH2 8951   0.956   4.326   3.371
 2996TIP3    H1 8952   0.887   4.367   3.423
 2996TIP3    H2 8953   0.910   4.284   3.299
 2997TIP3   OH2 8954   1.000   3.545   2.367
 2997TIP3    H1 8955   0.927   3.544   2.305
 2997TIP3    H2 8956   0.985   3.621   2.422
 2998TIP3   OH2 8957   0.863   3.199   2.307
 2998TIP3    H1 8958   0.813   3.238   2.235
 2998TIP3    H2 8959   0.851   3.105   2.296
 2999TIP3   OH2 8960   1.162   3.906   3.723
 2999TIP3    H1 8961   1.232   3.843   3.706
 2999TIP3    H2 8962   1.157   3.959   3.644
 3000TIP3   OH2 8963   1.348   3.702   3.722
 3000TIP3    H1 8964   1.272   3.660   3.763
 3000TIP3    H2 8965   1.422   3.645   3.744
 3001TIP3   OH2 8966   0.818   2.927   2.282
 3001TIP3    H1 8967   0.880   2.906   2.352
 3001TIP3    H2 8968   0.735   2.889   2.310
 3002TIP3   OH2 8969   0.860   3.189   2.739
 3002TIP3    H1 8970   0.913   3.110   2.749
 3002TIP3    H2 8971   0.917   3.250   2.692
 3003TIP3   OH2 8972   1.037   3.369   3.262
 3003TIP3    H1 8973   1.117   3.389   3.213
 3003TIP3    H2 8974   1.051   3.408   3.348
 3004TIP3   OH2 8975   1.107   3.525   3.491
 3004TIP3    H1 8976   1.029   3.555   3.538
 3004TIP3    H2 8977   1.137   3.603   3.444
 3005TIP3   OH2 8978   1.553   3.128   4.035
 3005TIP3    H1 8979   1.619   3.069   4.000
 3005TIP3    H2 8980   1.523   3.179   3.960
 3006TIP3   OH2 8981   0.996   2.951   2.793
 3006TIP3    H1 8982   1.040   2.941   2.877
 3006TIP3    H2 8983   0.930   2.882   2.791
 3007TIP3   OH2 8984   7.141   3.010   3.618
 3007TIP3    H1 8985   7.169   2.934   3.668
 3007TIP3    H2 8986   7.221   3.062   3.607
 3008TIP3   OH2 8987   1.415   3.249   3.832
 3008TIP3    H1 8988   1.328   3.287   3.848
 3008TIP3    H2 8989   1.397   3.168   3.784
 3009TIP3   OH2 8990   1.043   2.885   2.442
 3009TIP3    H1 8991   1.087   2.823   2.384
 3009TIP3    H2 8992   1.101   2.961   2.445
 3010TIP3   OH2 8993   0.623   4.419   2.696
 3010TIP3    H1 8994   0.683   4.410   2.621
 3010TIP3    H2 8995   0.663   4.487   2.751
 3011TIP3   OH2 8996   0.390   4.501   3.776
 3011TIP3    H1 8997   0.448   4.491   3.851
 3011TIP3    H2 8998   0.444   4.541   3.708
 3012TIP3   OH2 8999   0.562   4.651   3.627
 3012TIP3    H1 9000   0.629   4.599   3.583
 3012TIP3    H2 9001   0.610   4.709   3.685
 3013TIP3   OH2 9002   1.325   3.004   3.728
 3013TIP3    H1 9003   1.237   2.998   3.689
 3013TIP3    H2 9004   1.359   2.915   3.723
 3014TIP3   OH2 9005   0.312   4.539   3.289
 3014TIP3    H1 9006   0.319   4.573   3.200
 3014TIP3    H2 9007   0.332   4.614   3.345
 3015TIP3   OH2 9008   0.544   4.439   3.378
 3015TIP3    H1 9009   0.451   4.450   3.357
 3015TIP3    H2 9010   0.588   4.507   3.326
 3016TIP3   OH2 9011   0.719   4.647   3.278
 3016TIP3    H1 9012   0.706   4.733   3.238
 3016TIP3    H2 9013   0.748   4.591   3.207
 3017TIP3   OH2 9014   0.005   4.299   3.268
 3017TIP3    H1 9015   0.017   4.260   3.181
 3017TIP3    H2 9016   0.089   4.287   3.312
 3018TIP3   OH2 9017   0.541   2.928   3.372
 3018TIP3    H1 9018   0.498   2.853   3.414
 3018TIP3    H2 9019   0.608   2.888   3.316
 3019TIP3   OH2 9020   1.036   2.819   3.248
 3019TIP3    H1 9021   1.078   2.870   3.178
 3019TIP3    H2 9022   0.947   2.854   3.253
 3020TIP3   OH2 9023   1.153   2.905   3.016
 3020TIP3    H1 9024   1.222   2.846   2.985
 3020TIP3    H2 9025   1.189   2.993   3.004
 3021TIP3   OH2 9026   7.250   2.610   3.302
 3021TIP3    H1 9027   7.195   2.570   3.234
 3021TIP3    H2 9028   7.313   2.542   3.324
 3022TIP3   OH2 9029   7.090   2.511   3.101
 3022TIP3    H1 9030   7.146   2.505   3.023
 3022TIP3    H2 9031   7.008   2.548   3.068
 3023TIP3   OH2 9032   0.249   2.673   3.252
 3023TIP3    H1 9033   0.294   2.723   3.184
 3023TIP3    H2 9034   0.293   2.697   3.333
 3024TIP3   OH2 9035   0.747   2.812   3.234
 3024TIP3    H1 9036   0.761   2.779   3.145
 3024TIP3    H2 9037   0.749   2.733   3.288
 3025TIP3   OH2 9038   0.803   2.749   2.801
 3025TIP3    H1 9039   0.724   2.799   2.822
 3025TIP3    H2 9040   0.788   2.664   2.843
 3026TIP3   OH2 9041   7.116   2.673   2.781
 3026TIP3    H1 9042   7.155   2.593   2.746
 3026TIP3    H2 9043   7.190   2.723   2.816
 3027TIP3   OH2 9044   0.214   2.852   2.877
 3027TIP3    H1 9045   0.273   2.805   2.936
 3027TIP3    H2 9046   0.221   2.943   2.904
 3028TIP3   OH2 9047   0.068   4.259   2.353
 3028TIP3    H1 9048   0.150   4.304   2.330
 3028TIP3    H2 9049   0.082   4.169   2.326
 3029TIP3   OH2 9050   0.784   4.385   2.473
 3029TIP3    H1 9051   0.771   4.292   2.458
 3029TIP3    H2 9052   0.744   4.427   2.397
 3030TIP3   OH2 9053   0.049   2.895   4.246
 3030TIP3    H1 9054   0.008   2.813   4.275
 3030TIP3    H2 9055   0.136   2.894   4.287
 3031TIP3   OH2 9056   0.291   2.898   4.368
 3031TIP3    H1 9057   0.368   2.881   4.315
 3031TIP3    H2 9058   0.287   2.824   4.429
 3032TIP3   OH2 9059   1.069   2.990   4.163
 3032TIP3    H1 9060   1.084   2.961   4.254
 3032TIP3    H2 9061   1.155   2.985   4.122
 3033TIP3   OH2 9062   1.000   4.538   3.669
 3033TIP3    H1 9063   0.926   4.507   3.617
 3033TIP3    H2 9064   0.987   4.632   3.675
 3034TIP3   OH2 9065   2.263   3.909   2.410
 3034TIP3    H1 9066   2.232   3.998   2.391
 3034TIP3    H2 9067   2.192   3.852   2.380
 3035TIP3   OH2 9068   2.262   3.908   2.823
 3035TIP3    H1 9069   2.309   3.890   2.904
 3035TIP3    H2 9070   2.220   3.825   2.801
 3036TIP3   OH2 9071   1.567   3.787   3.178
 3036TIP3    H1 9072   1.600   3.726   3.244
 3036TIP3    H2 9073   1.644   3.808   3.125
 3037TIP3   OH2 9074   2.528   4.211   2.499
 3037TIP3    H1 9075   2.512   4.148   2.569
 3037TIP3    H2 9076   2.550   4.292   2.545
 3038TIP3   OH2 9077   1.546   4.208   2.881
 3038TIP3    H1 9078   1.533   4.113   2.883
 3038TIP3    H2 9079   1.640   4.219   2.865
 3039TIP3   OH2 9080   1.236   3.398   2.665
 3039TIP3    H1 9081   1.190   3.473   2.702
 3039TIP3    H2 9082   1.170   3.352   2.612
 3040TIP3   OH2 9083   1.307   3.708   2.863
 3040TIP3    H1 9084   1.355   3.630   2.888
 3040TIP3    H2 9085   1.368   3.758   2.808
 3041TIP3   OH2 9086   2.182   4.676   2.500
 3041TIP3    H1 9087   2.212   4.609   2.440
 3041TIP3    H2 9088   2.151   4.628   2.577
 3042TIP3   OH2 9089   2.065   4.131   2.839
 3042TIP3    H1 9090   2.106   4.053   2.802
 3042TIP3    H2 9091   2.139   4.185   2.867
 3043TIP3   OH2 9092   3.084   3.456   2.849
 3043TIP3    H1 9093   3.107   3.533   2.902
 3043TIP3    H2 9094   3.100   3.483   2.759
 3044TIP3   OH2 9095   2.475   3.626   2.869
 3044TIP3    H1 9096   2.513   3.542   2.896
 3044TIP3    H2 9097   2.439   3.609   2.782
 3045TIP3   OH2 9098   1.828   3.285   2.833
 3045TIP3    H1 9099   1.809   3.358   2.774
 3045TIP3    H2 9100   1.774   3.213   2.800
 3046TIP3   OH2 9101   2.523   3.380   2.460
 3046TIP3    H1 9102   2.587   3.371   2.531
 3046TIP3    H2 9103   2.573   3.416   2.387
 3047TIP3   OH2 9104   1.454   3.491   2.955
 3047TIP3    H1 9105   1.537   3.474   3.000
 3047TIP3    H2 9106   1.460   3.441   2.873
 3048TIP3   OH2 9107   1.881   3.691   2.768
 3048TIP3    H1 9108   1.975   3.675   2.775
 3048TIP3    H2 9109   1.845   3.611   2.731
 3049TIP3   OH2 9110   3.153   3.668   3.017
 3049TIP3    H1 9111   3.066   3.706   3.006
 3049TIP3    H2 9112   3.163   3.660   3.112
 3050TIP3   OH2 9113   1.813   3.280   3.282
 3050TIP3    H1 9114   1.761   3.315   3.210
 3050TIP3    H2 9115   1.760   3.296   3.360
 3051TIP3   OH2 9116   2.128   4.119   2.294
 3051TIP3    H1 9117   2.112   4.107   2.201
 3051TIP3    H2 9118   2.089   4.204   2.314
 3052TIP3   OH2 9119   1.912   4.056   3.056
 3052TIP3    H1 9120   1.857   4.126   3.089
 3052TIP3    H2 9121   1.960   4.095   2.983
 3053TIP3   OH2 9122   2.693   3.395   2.674
 3053TIP3    H1 9123   2.652   3.375   2.758
 3053TIP3    H2 9124   2.750   3.469   2.693
 3054TIP3   OH2 9125   1.697   3.389   3.054
 3054TIP3    H1 9126   1.753   3.463   3.079
 3054TIP3    H2 9127   1.743   3.346   2.982
 3055TIP3   OH2 9128   1.751   4.257   3.159
 3055TIP3    H1 9129   1.734   4.345   3.124
 3055TIP3    H2 9130   1.672   4.236   3.209
 3056TIP3   OH2 9131   1.135   3.957   2.407
 3056TIP3    H1 9132   1.096   3.974   2.321
 3056TIP3    H2 9133   1.164   4.044   2.436
 3057TIP3   OH2 9134   2.574   4.459   2.640
 3057TIP3    H1 9135   2.488   4.450   2.681
 3057TIP3    H2 9136   2.570   4.543   2.595
 3058TIP3   OH2 9137   2.869   3.327   2.995
 3058TIP3    H1 9138   2.789   3.373   2.969
 3058TIP3    H2 9139   2.938   3.369   2.942
 3059TIP3   OH2 9140   2.154   2.978   3.002
 3059TIP3    H1 9141   2.148   2.886   3.029
 3059TIP3    H2 9142   2.079   3.020   3.044
 3060TIP3   OH2 9143   2.271   4.497   2.305
 3060TIP3    H1 9144   2.318   4.414   2.294
 3060TIP3    H2 9145   2.331   4.564   2.272
 3061TIP3   OH2 9146   2.422   4.279   2.251
 3061TIP3    H1 9147   2.437   4.208   2.188
 3061TIP3    H2 9148   2.460   4.247   2.332
 3062TIP3   OH2 9149   2.802   4.357   2.987
 3062TIP3    H1 9150   2.787   4.281   2.930
 3062TIP3    H2 9151   2.787   4.433   2.932
 3063TIP3   OH2 9152   2.092   3.757   2.247
 3063TIP3    H1 9153   2.010   3.805   2.237
 3063TIP3    H2 9154   2.138   3.772   2.165
 3064TIP3   OH2 9155   2.061   3.566   1.951
 3064TIP3    H1 9156   2.126   3.617   1.999
 3064TIP3    H2 9157   2.112   3.502   1.901
 3065TIP3   OH2 9158   2.993   4.014   2.845
 3065TIP3    H1 9159   2.909   4.059   2.847
 3065TIP3    H2 9160   3.026   4.028   2.756
 3066TIP3   OH2 9161   2.447   3.838   2.220
 3066TIP3    H1 9162   2.392   3.867   2.292
 3066TIP3    H2 9163   2.530   3.815   2.261
 3067TIP3   OH2 9164   2.674   3.872   3.157
 3067TIP3    H1 9165   2.673   3.953   3.207
 3067TIP3    H2 9166   2.591   3.871   3.110
 3068TIP3   OH2 9167   1.672   3.826   2.635
 3068TIP3    H1 9168   1.637   3.769   2.567
 3068TIP3    H2 9169   1.748   3.778   2.669
 3069TIP3   OH2 9170   1.806   4.242   2.771
 3069TIP3    H1 9171   1.785   4.227   2.679
 3069TIP3    H2 9172   1.894   4.206   2.781
 3070TIP3   OH2 9173   1.787   3.818   2.999
 3070TIP3    H1 9174   1.823   3.783   2.917
 3070TIP3    H2 9175   1.836   3.898   3.015
 3071TIP3   OH2 9176   2.341   4.452   2.779
 3071TIP3    H1 9177   2.324   4.530   2.830
 3071TIP3    H2 9178   2.323   4.379   2.838
 3072TIP3   OH2 9179   1.951   4.363   3.319
 3072TIP3    H1 9180   1.891   4.423   3.364
 3072TIP3    H2 9181   1.894   4.310   3.263
 3073TIP3   OH2 9182   2.287   3.722   2.030
 3073TIP3    H1 9183   2.345   3.768   2.091
 3073TIP3    H2 9184   2.291   3.773   1.949
 3074TIP3   OH2 9185   1.701   3.910   3.460
 3074TIP3    H1 9186   1.702   4.005   3.474
 3074TIP3    H2 9187   1.610   3.889   3.444
 3075TIP3   OH2 9188   2.022   4.380   2.318
 3075TIP3    H1 9189   2.108   4.422   2.322
 3075TIP3    H2 9190   1.970   4.435   2.260
 3076TIP3   OH2 9191   1.741   4.523   3.402
 3076TIP3    H1 9192   1.716   4.530   3.310
 3076TIP3    H2 9193   1.659   4.505   3.448
 3077TIP3   OH2 9194   2.792   2.933   2.103
 3077TIP3    H1 9195   2.715   2.954   2.156
 3077TIP3    H2 9196   2.807   3.012   2.051
 3078TIP3   OH2 9197   1.547   3.673   2.430
 3078TIP3    H1 9198   1.476   3.721   2.389
 3078TIP3    H2 9199   1.511   3.587   2.449
 3079TIP3   OH2 9200   2.606   4.311   1.658
 3079TIP3    H1 9201   2.613   4.404   1.633
 3079TIP3    H2 9202   2.690   4.274   1.633
 3080TIP3   OH2 9203   1.328   4.070   3.354
 3080TIP3    H1 9204   1.260   4.055   3.288
 3080TIP3    H2 9205   1.362   3.983   3.373
 3081TIP3   OH2 9206   1.189   4.254   2.983
 3081TIP3    H1 9207   1.284   4.248   2.970
 3081TIP3    H2 9208   1.177   4.331   3.039
 3082TIP3   OH2 9209   3.034   4.714   3.049
 3082TIP3    H1 9210   3.039   4.619   3.061
 3082TIP3    H2 9211   2.954   4.740   3.096
 3083TIP3   OH2 9212   2.142   4.499   3.176
 3083TIP3    H1 9213   2.136   4.590   3.205
 3083TIP3    H2 9214   2.075   4.453   3.227
 3084TIP3   OH2 9215   1.917   4.593   2.127
 3084TIP3    H1 9216   1.876   4.577   2.042
 3084TIP3    H2 9217   1.865   4.663   2.166
 3085TIP3   OH2 9218   1.350   4.466   2.510
 3085TIP3    H1 9219   1.395   4.455   2.594
 3085TIP3    H2 9220   1.303   4.384   2.496
 3086TIP3   OH2 9221   2.126   4.511   1.759
 3086TIP3    H1 9222   2.179   4.439   1.727
 3086TIP3    H2 9223   2.158   4.528   1.847
 3087TIP3   OH2 9224   2.174   4.571   2.028
 3087TIP3    H1 9225   2.088   4.576   2.071
 3087TIP3    H2 9226   2.233   4.539   2.096
 3088TIP3   OH2 9227   2.923   3.829   3.292
 3088TIP3    H1 9228   2.838   3.841   3.252
 3088TIP3    H2 9229   2.943   3.736   3.279
 3089TIP3   OH2 9230   1.529   4.255   3.324
 3089TIP3    H1 9231   1.579   4.243   3.404
 3089TIP3    H2 9232   1.457   4.192   3.330
 3090TIP3   OH2 9233   1.920   3.069   3.133
 3090TIP3    H1 9234   1.835   3.038   3.101
 3090TIP3    H2 9235   1.899   3.149   3.181
 3091TIP3   OH2 9236   2.471   3.178   3.337
 3091TIP3    H1 9237   2.540   3.160   3.401
 3091TIP3    H2 9238   2.389   3.166   3.385
 3092TIP3   OH2 9239   2.687   3.601   3.244
 3092TIP3    H1 9240   2.651   3.598   3.333
 3092TIP3    H2 9241   2.673   3.691   3.216
 3093TIP3   OH2 9242   2.069   3.111   2.101
 3093TIP3    H1 9243   2.036   3.116   2.191
 3093TIP3    H2 9244   2.033   3.029   2.067
 3094TIP3   OH2 9245   1.858   3.593   3.144
 3094TIP3    H1 9246   1.814   3.604   3.228
 3094TIP3    H2 9247   1.840   3.674   3.096
 3095TIP3   OH2 9248   1.740   3.478   2.660
 3095TIP3    H1 9249   1.651   3.454   2.684
 3095TIP3    H2 9250   1.751   3.442   2.571
 3096TIP3   OH2 9251   2.221   3.555   2.383
 3096TIP3    H1 9252   2.172   3.626   2.342
 3096TIP3    H2 9253   2.280   3.524   2.314
 3097TIP3   OH2 9254   2.398   3.826   3.466
 3097TIP3    H1 9255   2.371   3.757   3.526
 3097TIP3    H2 9256   2.491   3.841   3.486
 3098TIP3   OH2 9257   2.384   3.572   2.616
 3098TIP3    H1 9258   2.318   3.599   2.551
 3098TIP3    H2 9259   2.427   3.497   2.575
 3099TIP3   OH2 9260   1.687   3.610   3.362
 3099TIP3    H1 9261   1.729   3.666   3.427
 3099TIP3    H2 9262   1.670   3.527   3.407
 3100TIP3   OH2 9263   1.730   3.089   2.070
 3100TIP3    H1 9264   1.723   3.094   2.165
 3100TIP3    H2 9265   1.656   3.140   2.037
 3101TIP3   OH2 9266   1.283   3.129   2.945
 3101TIP3    H1 9267   1.350   3.167   3.001
 3101TIP3    H2 9268   1.322   3.126   2.858
 3102TIP3   OH2 9269   1.210   3.110   2.449
 3102TIP3    H1 9270   1.255   3.145   2.372
 3102TIP3    H2 9271   1.149   3.179   2.475
 3103TIP3   OH2 9272   2.413   3.822   3.045
 3103TIP3    H1 9273   2.441   3.756   2.982
 3103TIP3    H2 9274   2.376   3.771   3.118
 3104TIP3   OH2 9275   2.093   3.274   2.714
 3104TIP3    H1 9276   2.016   3.276   2.771
 3104TIP3    H2 9277   2.167   3.266   2.774
 3105TIP3   OH2 9278   1.502   3.353   2.722
 3105TIP3    H1 9279   1.411   3.357   2.691
 3105TIP3    H2 9280   1.531   3.264   2.704
 3106TIP3   OH2 9281   1.757   3.348   2.417
 3106TIP3    H1 9282   1.851   3.363   2.405
 3106TIP3    H2 9283   1.718   3.369   2.333
 3107TIP3   OH2 9284   2.552   3.362   2.917
 3107TIP3    H1 9285   2.534   3.375   3.010
 3107TIP3    H2 9286   2.483   3.302   2.887
 3108TIP3   OH2 9287   1.633   3.376   2.175
 3108TIP3    H1 9288   1.567   3.332   2.121
 3108TIP3    H2 9289   1.687   3.424   2.112
 3109TIP3   OH2 9290   2.743   5.061   3.145
 3109TIP3    H1 9291   2.740   5.078   3.050
 3109TIP3    H2 9292   2.823   5.107   3.174
 3110TIP3   OH2 9293   1.684   4.175   3.556
 3110TIP3    H1 9294   1.767   4.195   3.599
 3110TIP3    H2 9295   1.619   4.178   3.626
 3111TIP3   OH2 9296   2.151   3.632   2.822
 3111TIP3    H1 9297   2.220   3.586   2.774
 3111TIP3    H2 9298   2.151   3.592   2.909
 3112TIP3   OH2 9299   1.650   3.106   2.709
 3112TIP3    H1 9300   1.619   3.031   2.759
 3112TIP3    H2 9301   1.687   3.069   2.629
 3113TIP3   OH2 9302   2.127   3.537   3.090
 3113TIP3    H1 9303   2.039   3.566   3.115
 3113TIP3    H2 9304   2.186   3.588   3.146
 3114TIP3   OH2 9305   1.854   3.898   2.204
 3114TIP3    H1 9306   1.779   3.842   2.183
 3114TIP3    H2 9307   1.832   3.937   2.289
 3115TIP3   OH2 9308   2.753   4.148   2.812
 3115TIP3    H1 9309   2.784   4.198   2.737
 3115TIP3    H2 9310   2.671   4.109   2.782
 3116TIP3   OH2 9311   2.320   3.220   2.081
 3116TIP3    H1 9312   2.227   3.198   2.086
 3116TIP3    H2 9313   2.324   3.313   2.100
 3117TIP3   OH2 9314   2.261   4.228   3.211
 3117TIP3    H1 9315   2.315   4.219   3.290
 3117TIP3    H2 9316   2.227   4.317   3.216
 3118TIP3   OH2 9317   2.383   3.482   2.162
 3118TIP3    H1 9318   2.477   3.485   2.178
 3118TIP3    H2 9319   2.365   3.559   2.109
 3119TIP3   OH2 9320   1.558   3.929   2.864
 3119TIP3    H1 9321   1.590   3.904   2.777
 3119TIP3    H2 9322   1.619   3.888   2.925
 3120TIP3   OH2 9323   2.010   4.054   2.041
 3120TIP3    H1 9324   1.964   4.137   2.038
 3120TIP3    H2 9325   1.955   3.998   2.096
 3121TIP3   OH2 9326   1.428   3.841   3.489
 3121TIP3    H1 9327   1.429   3.808   3.579
 3121TIP3    H2 9328   1.359   3.791   3.446
 3122TIP3   OH2 9329   2.165   3.973   3.504
 3122TIP3    H1 9330   2.103   3.914   3.461
 3122TIP3    H2 9331   2.251   3.939   3.480
 3123TIP3   OH2 9332   2.414   4.506   3.102
 3123TIP3    H1 9333   2.319   4.498   3.108
 3123TIP3    H2 9334   2.439   4.552   3.182
 3124TIP3   OH2 9335   2.810   3.567   1.994
 3124TIP3    H1 9336   2.756   3.517   1.933
 3124TIP3    H2 9337   2.809   3.656   1.960
 3125TIP3   OH2 9338   3.050   4.433   3.078
 3125TIP3    H1 9339   2.955   4.418   3.076
 3125TIP3    H2 9340   3.081   4.401   2.993
 3126TIP3   OH2 9341   2.538   4.374   1.920
 3126TIP3    H1 9342   2.507   4.300   1.973
 3126TIP3    H2 9343   2.553   4.336   1.834
 3127TIP3   OH2 9344   2.518   4.015   2.718
 3127TIP3    H1 9345   2.427   3.992   2.738
 3127TIP3    H2 9346   2.555   3.936   2.679
 3128TIP3   OH2 9347   1.669   4.251   2.516
 3128TIP3    H1 9348   1.675   4.328   2.460
 3128TIP3    H2 9349   1.575   4.231   2.520
 3129TIP3   OH2 9350   1.232   3.538   2.219
 3129TIP3    H1 9351   1.277   3.620   2.238
 3129TIP3    H2 9352   1.154   3.540   2.274
 3130TIP3   OH2 9353   1.766   4.002   2.439
 3130TIP3    H1 9354   1.749   4.092   2.463
 3130TIP3    H2 9355   1.737   3.951   2.514
 3131TIP3   OH2 9356   1.949   4.573   2.973
 3131TIP3    H1 9357   1.984   4.644   2.919
 3131TIP3    H2 9358   2.025   4.538   3.019
 3132TIP3   OH2 9359   1.584   4.486   2.361
 3132TIP3    H1 9360   1.498   4.489   2.403
 3132TIP3    H2 9361   1.618   4.574   2.370
 3133TIP3   OH2 9362   2.308   4.226   2.940
 3133TIP3    H1 9363   2.296   4.220   3.035
 3133TIP3    H2 9364   2.384   4.171   2.921
 3134TIP3   OH2 9365   2.562   4.743   2.982
 3134TIP3    H1 9366   2.487   4.684   2.986
 3134TIP3    H2 9367   2.542   4.803   2.910
 3135TIP3   OH2 9368   2.630   4.587   1.619
 3135TIP3    H1 9369   2.671   4.663   1.578
 3135TIP3    H2 9370   2.551   4.621   1.660
 3136TIP3   OH2 9371   1.644   3.358   3.493
 3136TIP3    H1 9372   1.549   3.361   3.500
 3136TIP3    H2 9373   1.673   3.305   3.567
 3137TIP3   OH2 9374   2.490   4.077   2.072
 3137TIP3    H1 9375   2.463   3.997   2.116
 3137TIP3    H2 9376   2.578   4.058   2.039
 3138TIP3   OH2 9377   1.372   4.455   3.135
 3138TIP3    H1 9378   1.424   4.387   3.177
 3138TIP3    H2 9379   1.400   4.536   3.177
 3139TIP3   OH2 9380   1.639   4.100   1.826
 3139TIP3    H1 9381   1.703   4.033   1.802
 3139TIP3    H2 9382   1.621   4.084   1.918
 3140TIP3   OH2 9383   1.590   4.100   2.101
 3140TIP3    H1 9384   1.670   4.072   2.146
 3140TIP3    H2 9385   1.593   4.196   2.104
 3141TIP3   OH2 9386   1.330   3.787   2.301
 3141TIP3    H1 9387   1.265   3.833   2.355
 3141TIP3    H2 9388   1.348   3.848   2.229
 3142TIP3   OH2 9389   2.495   3.410   3.181
 3142TIP3    H1 9390   2.571   3.459   3.213
 3142TIP3    H2 9391   2.490   3.334   3.240
 3143TIP3   OH2 9392   2.377   3.166   2.358
 3143TIP3    H1 9393   2.358   3.187   2.267
 3143TIP3    H2 9394   2.419   3.244   2.394
 3144TIP3   OH2 9395   1.861   4.282   2.036
 3144TIP3    H1 9396   1.777   4.311   2.071
 3144TIP3    H2 9397   1.889   4.352   1.978
 3145TIP3   OH2 9398   2.037   3.361   2.455
 3145TIP3    H1 9399   2.099   3.430   2.430
 3145TIP3    H2 9400   2.056   3.345   2.548
 3146TIP3   OH2 9401   2.328   3.656   3.248
 3146TIP3    H1 9402   2.351   3.704   3.327
 3146TIP3    H2 9403   2.380   3.575   3.253
 3147TIP3   OH2 9404   2.197   3.065   2.548
 3147TIP3    H1 9405   2.176   3.141   2.602
 3147TIP3    H2 9406   2.264   3.096   2.487
 3148TIP3   OH2 9407   1.612   4.374   2.110
 3148TIP3    H1 9408   1.590   4.443   2.048
 3148TIP3    H2 9409   1.601   4.415   2.196
 3149TIP3   OH2 9410   1.710   3.078   2.349
 3149TIP3    H1 9411   1.698   3.168   2.380
 3149TIP3    H2 9412   1.804   3.062   2.355
 3150TIP3   OH2 9413   2.963   3.565   3.223
 3150TIP3    H1 9414   2.868   3.554   3.224
 3150TIP3    H2 9415   2.998   3.477   3.212
 3151TIP3   OH2 9416   2.610   3.762   2.622
 3151TIP3    H1 9417   2.533   3.707   2.634
 3151TIP3    H2 9418   2.679   3.719   2.673
 3152TIP3   OH2 9419   1.338   3.979   2.094
 3152TIP3    H1 9420   1.410   4.041   2.105
 3152TIP3    H2 9421   1.371   3.916   2.030
 3153TIP3   OH2 9422   1.261   3.260   2.225
 3153TIP3    H1 9423   1.279   3.354   2.230
 3153TIP3    H2 9424   1.182   3.253   2.171
 3154TIP3   OH2 9425   2.594   4.730   2.566
 3154TIP3    H1 9426   2.552   4.774   2.492
 3154TIP3    H2 9427   2.688   4.741   2.551
 3155TIP3   OH2 9428   1.657   2.983   3.093
 3155TIP3    H1 9429   1.627   2.951   3.008
 3155TIP3    H2 9430   1.648   2.908   3.152
 3156TIP3   OH2 9431   1.188   4.234   2.477
 3156TIP3    H1 9432   1.133   4.265   2.549
 3156TIP3    H2 9433   1.145   4.267   2.398
 3157TIP3   OH2 9434   1.370   4.767   3.553
 3157TIP3    H1 9435   1.454   4.770   3.600
 3157TIP3    H2 9436   1.353   4.673   3.542
 3158TIP3   OH2 9437   1.839   4.690   3.598
 3158TIP3    H1 9438   1.933   4.673   3.605
 3158TIP3    H2 9439   1.810   4.635   3.525
 3159TIP3   OH2 9440   1.827   4.273   1.710
 3159TIP3    H1 9441   1.772   4.213   1.759
 3159TIP3    H2 9442   1.901   4.219   1.682
 3160TIP3   OH2 9443   2.465   4.626   3.344
 3160TIP3    H1 9444   2.471   4.554   3.407
 3160TIP3    H2 9445   2.543   4.680   3.361
 3161TIP3   OH2 9446   2.273   4.307   1.637
 3161TIP3    H1 9447   2.325   4.241   1.684
 3161TIP3    H2 9448   2.319   4.317   1.553
 3162TIP3   OH2 9449   1.489   4.154   3.758
 3162TIP3    H1 9450   1.509   4.061   3.751
 3162TIP3    H2 9451   1.406   4.165   3.712
 3163TIP3   OH2 9452   1.468   3.785   1.953
 3163TIP3    H1 9453   1.522   3.761   2.028
 3163TIP3    H2 9454   1.530   3.797   1.881
 3164TIP3   OH2 9455   2.092   4.248   3.527
 3164TIP3    H1 9456   2.055   4.272   3.442
 3164TIP3    H2 9457   2.131   4.162   3.513
 3165TIP3   OH2 9458   1.895   3.993   1.789
 3165TIP3    H1 9459   1.955   4.012   1.861
 3165TIP3    H2 9460   1.918   3.904   1.762
 3166TIP3   OH2 9461   2.583   4.283   3.141
 3166TIP3    H1 9462   2.661   4.312   3.092
 3166TIP3    H2 9463   2.517   4.350   3.122
 3167TIP3   OH2 9464   1.620   3.909   3.739
 3167TIP3    H1 9465   1.664   3.884   3.658
 3167TIP3    H2 9466   1.684   3.890   3.808
 3168TIP3   OH2 9467   1.649   3.715   2.158
 3168TIP3    H1 9468   1.630   3.680   2.246
 3168TIP3    H2 9469   1.696   3.645   2.114
 3169TIP3   OH2 9470   1.941   3.780   3.396
 3169TIP3    H1 9471   1.866   3.838   3.408
 3169TIP3    H2 9472   1.985   3.814   3.319
 3170TIP3   OH2 9473   1.786   3.526   2.004
 3170TIP3    H1 9474   1.754   3.533   1.914
 3170TIP3    H2 9475   1.881   3.538   1.996
 3171TIP3   OH2 9476   2.462   4.170   3.510
 3171TIP3    H1 9477   2.533   4.134   3.458
 3171TIP3    H2 9478   2.458   4.114   3.588
 3172TIP3   OH2 9479   2.568   3.847   1.674
 3172TIP3    H1 9480   2.551   3.801   1.592
 3172TIP3    H2 9481   2.487   3.894   1.693
 3173TIP3   OH2 9482   2.053   3.569   3.529
 3173TIP3    H1 9483   2.064   3.494   3.471
 3173TIP3    H2 9484   2.016   3.637   3.473
 3174TIP3   OH2 9485   2.074   3.361   3.326
 3174TIP3    H1 9486   2.104   3.396   3.242
 3174TIP3    H2 9487   1.983   3.335   3.310
 3175TIP3   OH2 9488   2.085   3.894   3.197
 3175TIP3    H1 9489   2.175   3.914   3.173
 3175TIP3    H2 9490   2.032   3.957   3.148
 3176TIP3   OH2 9491   2.660   3.845   3.566
 3176TIP3    H1 9492   2.685   3.754   3.583
 3176TIP3    H2 9493   2.742   3.888   3.542
 3177TIP3   OH2 9494   2.711   4.111   3.310
 3177TIP3    H1 9495   2.658   4.173   3.258
 3177TIP3    H2 9496   2.800   4.123   3.278
 3178TIP3   OH2 9497   1.938   3.665   3.770
 3178TIP3    H1 9498   1.881   3.590   3.789
 3178TIP3    H2 9499   1.982   3.640   3.689
 3179TIP3   OH2 9500   2.204   3.123   3.418
 3179TIP3    H1 9501   2.161   3.205   3.393
 3179TIP3    H2 9502   2.136   3.056   3.406
 3180TIP3   OH2 9503   2.317   3.610   3.607
 3180TIP3    H1 9504   2.337   3.540   3.669
 3180TIP3    H2 9505   2.223   3.599   3.589
 3181TIP3   OH2 9506   2.566   3.566   3.484
 3181TIP3    H1 9507   2.483   3.564   3.531
 3181TIP3    H2 9508   2.631   3.540   3.549
 3182TIP3   OH2 9509   2.766   3.518   3.664
 3182TIP3    H1 9510   2.759   3.423   3.679
 3182TIP3    H2 9511   2.831   3.548   3.727
 3183TIP3   OH2 9512   1.785   3.436   3.832
 3183TIP3    H1 9513   1.795   3.351   3.789
 3183TIP3    H2 9514   1.827   3.424   3.918
 3184TIP3   OH2 9515   2.273   3.116   3.692
 3184TIP3    H1 9516   2.347   3.057   3.704
 3184TIP3    H2 9517   2.254   3.113   3.598
 3185TIP3   OH2 9518   2.348   3.386   3.754
 3185TIP3    H1 9519   2.343   3.290   3.747
 3185TIP3    H2 9520   2.272   3.410   3.807
 3186TIP3   OH2 9521   1.609   4.584   1.925
 3186TIP3    H1 9522   1.697   4.558   1.898
 3186TIP3    H2 9523   1.573   4.628   1.848
 3187TIP3   OH2 9524   1.063   3.961   2.117
 3187TIP3    H1 9525   1.157   3.979   2.110
 3187TIP3    H2 9526   1.053   3.875   2.078
 3188TIP3   OH2 9527   0.980   4.557   2.559
 3188TIP3    H1 9528   0.917   4.499   2.516
 3188TIP3    H2 9529   1.026   4.501   2.622
 3189TIP3   OH2 9530   1.114   4.395   2.738
 3189TIP3    H1 9531   1.103   4.324   2.801
 3189TIP3    H2 9532   1.169   4.459   2.784
 3190TIP3   OH2 9533   2.862   4.788   2.546
 3190TIP3    H1 9534   2.883   4.820   2.633
 3190TIP3    H2 9535   2.917   4.840   2.487
 3191TIP3   OH2 9536   2.879   4.818   2.828
 3191TIP3    H1 9537   2.830   4.737   2.820
 3191TIP3    H2 9538   2.949   4.798   2.890
 3192TIP3   OH2 9539   2.916   4.517   3.393
 3192TIP3    H1 9540   2.850   4.523   3.461
 3192TIP3    H2 9541   2.964   4.600   3.398
 3193TIP3   OH2 9542   2.754   4.020   2.008
 3193TIP3    H1 9543   2.813   4.091   1.979
 3193TIP3    H2 9544   2.798   3.982   2.084
 3194TIP3   OH2 9545   2.875   3.882   2.213
 3194TIP3    H1 9546   2.806   3.845   2.269
 3194TIP3    H2 9547   2.938   3.920   2.274
 3195TIP3   OH2 9548   2.925   4.289   2.642
 3195TIP3    H1 9549   2.977   4.220   2.601
 3195TIP3    H2 9550   2.923   4.360   2.578
 3196TIP3   OH2 9551   2.737   4.578   2.834
 3196TIP3    H1 9552   2.668   4.620   2.885
 3196TIP3    H2 9553   2.691   4.535   2.762
 3197TIP3   OH2 9554   2.783   3.803   1.843
 3197TIP3    H1 9555   2.711   3.809   1.781
 3197TIP3    H2 9556   2.770   3.878   1.902
 3198TIP3   OH2 9557   2.665   3.448   1.797
 3198TIP3    H1 9558   2.616   3.491   1.727
 3198TIP3    H2 9559   2.650   3.354   1.784
 3199TIP3   OH2 9560   2.675   3.747   2.353
 3199TIP3    H1 9561   2.682   3.652   2.344
 3199TIP3    H2 9562   2.657   3.761   2.446
 3200TIP3   OH2 9563   1.303   3.814   3.115
 3200TIP3    H1 9564   1.294   3.782   3.025
 3200TIP3    H2 9565   1.397   3.815   3.130
 3201TIP3   OH2 9566   2.970   4.156   3.211
 3201TIP3    H1 9567   3.037   4.088   3.203
 3201TIP3    H2 9568   2.991   4.218   3.141
 3202TIP3   OH2 9569   3.157   3.945   3.212
 3202TIP3    H1 9570   3.077   3.906   3.248
 3202TIP3    H2 9571   3.226   3.882   3.234
 3203TIP3   OH2 9572   2.613   3.175   1.770
 3203TIP3    H1 9573   2.674   3.156   1.841
 3203TIP3    H2 9574   2.529   3.140   1.799
 3204TIP3   OH2 9575   2.671   3.468   2.234
 3204TIP3    H1 9576   2.716   3.385   2.246
 3204TIP3    H2 9577   2.718   3.510   2.161
 3205TIP3   OH2 9578   2.825   3.631   2.747
 3205TIP3    H1 9579   2.906   3.649   2.700
 3205TIP3    H2 9580   2.838   3.669   2.834
 3206TIP3   OH2 9581   2.895   3.785   2.969
 3206TIP3    H1 9582   2.825   3.814   3.027
 3206TIP3    H2 9583   2.930   3.865   2.931
 3207TIP3   OH2 9584   1.523   3.497   3.776
 3207TIP3    H1 9585   1.618   3.489   3.786
 3207TIP3    H2 9586   1.488   3.414   3.809
 3208TIP3   OH2 9587   2.785   3.217   2.282
 3208TIP3    H1 9588   2.830   3.203   2.365
 3208TIP3    H2 9589   2.722   3.145   2.277
 3209TIP3   OH2 9590   1.488   3.204   3.116
 3209TIP3    H1 9591   1.544   3.126   3.119
 3209TIP3    H2 9592   1.548   3.276   3.100
 3210TIP3   OH2 9593   1.279   3.469   3.175
 3210TIP3    H1 9594   1.329   3.460   3.093
 3210TIP3    H2 9595   1.299   3.557   3.205
 3211TIP3   OH2 9596   2.843   3.139   1.926
 3211TIP3    H1 9597   2.887   3.077   1.869
 3211TIP3    H2 9598   2.900   3.216   1.927
 3212TIP3   OH2 9599   1.260   2.957   2.670
 3212TIP3    H1 9600   1.174   2.955   2.711
 3212TIP3    H2 9601   1.251   3.021   2.599
 3213TIP3   OH2 9602   2.431   4.678   2.187
 3213TIP3    H1 9603   2.486   4.670   2.109
 3213TIP3    H2 9604   2.471   4.747   2.239
 3214TIP3   OH2 9605   1.484   3.037   3.494
 3214TIP3    H1 9606   1.436   3.035   3.577
 3214TIP3    H2 9607   1.426   3.084   3.434
 3215TIP3   OH2 9608   1.519   4.488   3.567
 3215TIP3    H1 9609   1.426   4.469   3.556
 3215TIP3    H2 9610   1.534   4.481   3.661
 3216TIP3   OH2 9611   1.720   4.533   3.121
 3216TIP3    H1 9612   1.669   4.606   3.087
 3216TIP3    H2 9613   1.806   4.540   3.079
 3217TIP3   OH2 9614   2.131   4.766   3.258
 3217TIP3    H1 9615   2.170   4.759   3.345
 3217TIP3    H2 9616   2.193   4.818   3.207
 3218TIP3   OH2 9617   2.317   4.920   3.125
 3218TIP3    H1 9618   2.378   4.867   3.074
 3218TIP3    H2 9619   2.373   4.975   3.180
 3219TIP3   OH2 9620   3.098   3.253   3.181
 3219TIP3    H1 9621   3.010   3.233   3.149
 3219TIP3    H2 9622   3.140   3.168   3.191
 3220TIP3   OH2 9623   1.383   4.780   3.164
 3220TIP3    H1 9624   1.292   4.800   3.140
 3220TIP3    H2 9625   1.406   4.844   3.231
 3221TIP3   OH2 9626   1.614   4.762   3.015
 3221TIP3    H1 9627   1.530   4.769   3.061
 3221TIP3    H2 9628   1.594   4.789   2.925
 3222TIP3   OH2 9629   2.035   4.776   2.802
 3222TIP3    H1 9630   1.963   4.783   2.740
 3222TIP3    H2 9631   2.045   4.865   2.837
 3223TIP3   OH2 9632   2.302   4.720   2.861
 3223TIP3    H1 9633   2.209   4.733   2.839
 3223TIP3    H2 9634   2.349   4.781   2.805
 3224TIP3   OH2 9635   2.511   4.906   2.762
 3224TIP3    H1 9636   2.499   4.990   2.718
 3224TIP3    H2 9637   2.539   4.847   2.692
 3225TIP3   OH2 9638   1.293   4.561   2.889
 3225TIP3    H1 9639   1.317   4.533   2.977
 3225TIP3    H2 9640   1.362   4.527   2.832
 3226TIP3   OH2 9641   1.489   4.439   2.747
 3226TIP3    H1 9642   1.499   4.355   2.791
 3226TIP3    H2 9643   1.576   4.479   2.749
 3227TIP3   OH2 9644   1.754   4.515   2.780
 3227TIP3    H1 9645   1.775   4.423   2.764
 3227TIP3    H2 9646   1.813   4.541   2.851
 3228TIP3   OH2 9647   2.322   3.182   2.845
 3228TIP3    H1 9648   2.286   3.110   2.897
 3228TIP3    H2 9649   2.394   3.141   2.796
 3229TIP3   OH2 9650   2.834   3.072   2.731
 3229TIP3    H1 9651   2.874   3.125   2.663
 3229TIP3    H2 9652   2.748   3.110   2.745
 3230TIP3   OH2 9653   2.947   3.168   2.501
 3230TIP3    H1 9654   3.017   3.109   2.473
 3230TIP3    H2 9655   2.982   3.256   2.489
 3231TIP3   OH2 9656   1.568   2.881   2.851
 3231TIP3    H1 9657   1.478   2.849   2.856
 3231TIP3    H2 9658   1.622   2.802   2.847
 3232TIP3   OH2 9659   1.360   2.765   2.491
 3232TIP3    H1 9660   1.398   2.818   2.420
 3232TIP3    H2 9661   1.332   2.829   2.556
 3233TIP3   OH2 9662   2.037   2.923   2.741
 3233TIP3    H1 9663   2.087   2.971   2.675
 3233TIP3    H2 9664   2.076   2.950   2.825
 3234TIP3   OH2 9665   2.541   3.069   2.720
 3234TIP3    H1 9666   2.562   3.035   2.633
 3234TIP3    H2 9667   2.543   2.993   2.777
 3235TIP3   OH2 9668   2.597   3.008   2.285
 3235TIP3    H1 9669   2.517   3.055   2.306
 3235TIP3    H2 9670   2.586   2.922   2.325
 3236TIP3   OH2 9671   1.055   4.334   2.259
 3236TIP3    H1 9672   0.967   4.310   2.231
 3236TIP3    H2 9673   1.063   4.427   2.236
 3237TIP3   OH2 9674   1.493   2.910   2.268
 3237TIP3    H1 9675   1.541   2.851   2.209
 3237TIP3    H2 9676   1.561   2.969   2.302
 3238TIP3   OH2 9677   1.986   3.108   2.365
 3238TIP3    H1 9678   2.046   3.059   2.421
 3238TIP3    H2 9679   1.998   3.199   2.389
 3239TIP3   OH2 9680   1.864   4.503   1.855
 3239TIP3    H1 9681   1.951   4.529   1.823
 3239TIP3    H2 9682   1.839   4.429   1.799
 3240TIP3   OH2 9683   2.579   4.643   1.952
 3240TIP3    H1 9684   2.568   4.548   1.948
 3240TIP3    H2 9685   2.531   4.676   1.876
 3241TIP3   OH2 9686   1.789   3.164   3.732
 3241TIP3    H1 9687   1.754   3.098   3.792
 3241TIP3    H2 9688   1.882   3.170   3.755
 3242TIP3   OH2 9689   2.040   3.163   3.846
 3242TIP3    H1 9690   2.122   3.156   3.797
 3242TIP3    H2 9691   2.045   3.094   3.911
 3243TIP3   OH2 9692   1.210   4.404   1.935
 3243TIP3    H1 9693   1.178   4.366   2.016
 3243TIP3    H2 9694   1.280   4.346   1.907
 3244TIP3   OH2 9695   2.785   4.787   3.149
 3244TIP3    H1 9696   2.711   4.756   3.097
 3244TIP3    H2 9697   2.771   4.882   3.156
 3245TIP3   OH2 9698   4.061   4.171   1.895
 3245TIP3    H1 9699   4.033   4.259   1.871
 3245TIP3    H2 9700   3.989   4.114   1.868
 3246TIP3   OH2 9701   4.062   4.161   2.306
 3246TIP3    H1 9702   4.105   4.144   2.390
 3246TIP3    H2 9703   4.014   4.081   2.287
 3247TIP3   OH2 9704   3.354   4.045   2.664
 3247TIP3    H1 9705   3.387   3.976   2.723
 3247TIP3    H2 9706   3.427   4.107   2.658
 3248TIP3   OH2 9707   4.320   4.473   1.985
 3248TIP3    H1 9708   4.308   4.408   2.054
 3248TIP3    H2 9709   4.345   4.553   2.031
 3249TIP3   OH2 9710   3.345   4.462   2.361
 3249TIP3    H1 9711   3.330   4.367   2.368
 3249TIP3    H2 9712   3.439   4.471   2.352
 3250TIP3   OH2 9713   3.036   3.663   2.138
 3250TIP3    H1 9714   2.996   3.745   2.166
 3250TIP3    H2 9715   2.965   3.615   2.097
 3251TIP3   OH2 9716   3.105   3.963   2.347
 3251TIP3    H1 9717   3.156   3.887   2.377
 3251TIP3    H2 9718   3.171   4.022   2.310
 3252TIP3   OH2 9719   3.972   4.916   1.995
 3252TIP3    H1 9720   4.006   4.845   1.940
 3252TIP3    H2 9721   3.959   4.876   2.081
 3253TIP3   OH2 9722   3.863   4.390   2.325
 3253TIP3    H1 9723   3.902   4.312   2.288
 3253TIP3    H2 9724   3.937   4.442   2.356
 3254TIP3   OH2 9725   4.906   3.711   2.326
 3254TIP3    H1 9726   4.918   3.797   2.367
 3254TIP3    H2 9727   4.941   3.721   2.238
 3255TIP3   OH2 9728   4.279   3.853   2.362
 3255TIP3    H1 9729   4.372   3.843   2.344
 3255TIP3    H2 9730   4.237   3.855   2.276
 3256TIP3   OH2 9731   3.625   3.541   2.318
 3256TIP3    H1 9732   3.602   3.614   2.261
 3256TIP3    H2 9733   3.570   3.469   2.287
 3257TIP3   OH2 9734   4.321   3.640   1.953
 3257TIP3    H1 9735   4.388   3.633   2.021
 3257TIP3    H2 9736   4.369   3.672   1.876
 3258TIP3   OH2 9737   3.252   3.750   2.443
 3258TIP3    H1 9738   3.334   3.733   2.489
 3258TIP3    H2 9739   3.258   3.697   2.363
 3259TIP3   OH2 9740   3.682   3.950   2.239
 3259TIP3    H1 9741   3.775   3.930   2.252
 3259TIP3    H2 9742   3.644   3.868   2.209
 3260TIP3   OH2 9743   4.947   3.928   2.514
 3260TIP3    H1 9744   4.866   3.975   2.494
 3260TIP3    H2 9745   4.971   3.958   2.602
 3261TIP3   OH2 9746   3.604   3.537   2.775
 3261TIP3    H1 9747   3.551   3.572   2.704
 3261TIP3    H2 9748   3.551   3.552   2.854
 3262TIP3   OH2 9749   3.962   4.390   1.753
 3262TIP3    H1 9750   3.920   4.363   1.671
 3262TIP3    H2 9751   3.910   4.464   1.784
 3263TIP3   OH2 9752   3.709   4.312   2.542
 3263TIP3    H1 9753   3.651   4.380   2.578
 3263TIP3    H2 9754   3.755   4.356   2.470
 3264TIP3   OH2 9755   4.513   3.659   2.150
 3264TIP3    H1 9756   4.567   3.586   2.179
 3264TIP3    H2 9757   4.561   3.737   2.177
 3265TIP3   OH2 9758   3.495   3.646   2.542
 3265TIP3    H1 9759   3.551   3.720   2.566
 3265TIP3    H2 9760   3.542   3.603   2.470
 3266TIP3   OH2 9761   3.544   4.509   2.645
 3266TIP3    H1 9762   3.529   4.598   2.613
 3266TIP3    H2 9763   3.467   4.489   2.699
 3267TIP3   OH2 9764   2.926   4.211   1.891
 3267TIP3    H1 9765   2.881   4.231   1.808
 3267TIP3    H2 9766   2.951   4.296   1.926
 3268TIP3   OH2 9767   4.368   4.718   2.125
 3268TIP3    H1 9768   4.282   4.709   2.167
 3268TIP3    H2 9769   4.364   4.803   2.082
 3269TIP3   OH2 9770   3.951   3.233   2.494
 3269TIP3    H1 9771   3.941   3.141   2.518
 3269TIP3    H2 9772   3.877   3.278   2.537
 3270TIP3   OH2 9773   4.073   4.751   1.791
 3270TIP3    H1 9774   4.124   4.671   1.778
 3270TIP3    H2 9775   4.129   4.822   1.761
 3271TIP3   OH2 9776   4.214   4.524   1.733
 3271TIP3    H1 9777   4.143   4.460   1.729
 3271TIP3    H2 9778   4.261   4.501   1.813
 3272TIP3   OH2 9779   4.598   4.614   2.473
 3272TIP3    H1 9780   4.584   4.539   2.416
 3272TIP3    H2 9781   4.583   4.691   2.418
 3273TIP3   OH2 9782   3.888   4.013   1.742
 3273TIP3    H1 9783   3.807   4.060   1.724
 3273TIP3    H2 9784   3.935   4.012   1.659
 3274TIP3   OH2 9785   3.855   3.812   1.441
 3274TIP3    H1 9786   3.919   3.861   1.491
 3274TIP3    H2 9787   3.906   3.746   1.394
 3275TIP3   OH2 9788   4.783   4.260   2.333
 3275TIP3    H1 9789   4.702   4.310   2.335
 3275TIP3    H2 9790   4.823   4.281   2.249
 3276TIP3   OH2 9791   4.244   4.100   1.704
 3276TIP3    H1 9792   4.190   4.128   1.778
 3276TIP3    H2 9793   4.327   4.075   1.744
 3277TIP3   OH2 9794   4.470   4.138   2.625
 3277TIP3    H1 9795   4.473   4.212   2.686
 3277TIP3    H2 9796   4.382   4.141   2.587
 3278TIP3   OH2 9797   3.471   4.086   2.118
 3278TIP3    H1 9798   3.434   4.028   2.051
 3278TIP3    H2 9799   3.547   4.038   2.152
 3279TIP3   OH2 9800   3.607   4.507   2.255
 3279TIP3    H1 9801   3.586   4.485   2.164
 3279TIP3    H2 9802   3.694   4.470   2.270
 3280TIP3   OH2 9803   3.596   4.070   2.476
 3280TIP3    H1 9804   3.632   4.042   2.391
 3280TIP3    H2 9805   3.641   4.153   2.493
 3281TIP3   OH2 9806   4.134   4.708   2.261
 3281TIP3    H1 9807   4.118   4.789   2.310
 3281TIP3    H2 9808   4.116   4.638   2.324
 3282TIP3   OH2 9809   3.745   4.617   2.805
 3282TIP3    H1 9810   3.686   4.676   2.852
 3282TIP3    H2 9811   3.686   4.564   2.751
 3283TIP3   OH2 9812   4.076   3.960   1.537
 3283TIP3    H1 9813   4.135   4.017   1.586
 3283TIP3    H2 9814   4.103   3.970   1.446
 3284TIP3   OH2 9815   3.498   4.168   2.917
 3284TIP3    H1 9816   3.507   4.256   2.955
 3284TIP3    H2 9817   3.405   4.147   2.929
 3285TIP3   OH2 9818   3.826   4.628   1.801
 3285TIP3    H1 9819   3.907   4.679   1.806
 3285TIP3    H2 9820   3.764   4.687   1.758
 3286TIP3   OH2 9821   3.536   4.778   2.890
 3286TIP3    H1 9822   3.510   4.784   2.798
 3286TIP3    H2 9823   3.454   4.761   2.937
 3287TIP3   OH2 9824   4.580   3.192   1.585
 3287TIP3    H1 9825   4.505   3.215   1.639
 3287TIP3    H2 9826   4.596   3.269   1.531
 3288TIP3   OH2 9827   3.345   3.932   1.911
 3288TIP3    H1 9828   3.270   3.979   1.875
 3288TIP3    H2 9829   3.310   3.846   1.936
 3289TIP3   OH2 9830   4.403   4.561   1.141
 3289TIP3    H1 9831   4.402   4.656   1.131
 3289TIP3    H2 9832   4.494   4.536   1.126
 3290TIP3   OH2 9833   3.125   4.322   2.841
 3290TIP3    H1 9834   3.056   4.306   2.776
 3290TIP3    H2 9835   3.158   4.235   2.862
 3291TIP3   OH2 9836   2.976   4.517   2.478
 3291TIP3    H1 9837   3.071   4.526   2.480
 3291TIP3    H2 9838   2.944   4.596   2.522
 3292TIP3   OH2 9839   4.830   4.965   2.536
 3292TIP3    H1 9840   4.834   4.871   2.552
 3292TIP3    H2 9841   4.750   4.993   2.581
 3293TIP3   OH2 9842   3.936   4.753   2.662
 3293TIP3    H1 9843   3.932   4.844   2.692
 3293TIP3    H2 9844   3.868   4.709   2.713
 3294TIP3   OH2 9845   3.712   4.866   1.619
 3294TIP3    H1 9846   3.661   4.846   1.540
 3294TIP3    H2 9847   3.678   4.950   1.649
 3295TIP3   OH2 9848   3.147   4.715   1.999
 3295TIP3    H1 9849   3.191   4.708   2.083
 3295TIP3    H2 9850   3.097   4.633   1.991
 3296TIP3   OH2 9851   3.908   4.786   1.261
 3296TIP3    H1 9852   3.960   4.715   1.225
 3296TIP3    H2 9853   3.943   4.800   1.349
 3297TIP3   OH2 9854   3.966   4.832   1.525
 3297TIP3    H1 9855   3.879   4.837   1.566
 3297TIP3    H2 9856   4.023   4.798   1.594
 3298TIP3   OH2 9857   4.700   4.103   2.877
 3298TIP3    H1 9858   4.698   4.090   2.782
 3298TIP3    H2 9859   4.789   4.081   2.903
 3299TIP3   OH2 9860   3.326   4.508   2.813
 3299TIP3    H1 9861   3.377   4.495   2.893
 3299TIP3    H2 9862   3.254   4.445   2.820
 3300TIP3   OH2 9863   3.717   3.329   2.622
 3300TIP3    H1 9864   3.633   3.296   2.590
 3300TIP3    H2 9865   3.694   3.407   2.673
 3301TIP3   OH2 9866   4.253   3.424   2.832
 3301TIP3    H1 9867   4.320   3.400   2.897
 3301TIP3    H2 9868   4.170   3.414   2.879
 3302TIP3   OH2 9869   4.503   3.885   2.735
 3302TIP3    H1 9870   4.459   3.883   2.820
 3302TIP3    H2 9871   4.485   3.974   2.702
 3303TIP3   OH2 9872   4.157   3.964   1.277
 3303TIP3    H1 9873   4.115   3.956   1.191
 3303TIP3    H2 9874   4.237   4.013   1.260
 3304TIP3   OH2 9875   3.865   3.367   1.586
 3304TIP3    H1 9876   3.831   3.373   1.675
 3304TIP3    H2 9877   3.828   3.286   1.551
 3305TIP3   OH2 9878   3.659   3.851   2.629
 3305TIP3    H1 9879   3.610   3.861   2.711
 3305TIP3    H2 9880   3.637   3.930   2.579
 3306TIP3   OH2 9881   3.535   3.733   2.146
 3306TIP3    H1 9882   3.446   3.711   2.171
 3306TIP3    H2 9883   3.545   3.697   2.058
 3307TIP3   OH2 9884   4.020   3.811   1.877
 3307TIP3    H1 9885   3.971   3.883   1.836
 3307TIP3    H2 9886   4.077   3.779   1.808
 3308TIP3   OH2 9887   4.193   4.085   2.966
 3308TIP3    H1 9888   4.170   4.015   3.026
 3308TIP3    H2 9889   4.287   4.100   2.981
 3309TIP3   OH2 9890   4.188   3.834   2.104
 3309TIP3    H1 9891   4.118   3.862   2.045
 3309TIP3    H2 9892   4.226   3.757   2.061
 3310TIP3   OH2 9893   3.483   3.868   2.840
 3310TIP3    H1 9894   3.499   3.934   2.908
 3310TIP3    H2 9895   3.463   3.788   2.889
 3311TIP3   OH2 9896   3.528   3.348   1.558
 3311TIP3    H1 9897   3.519   3.350   1.654
 3311TIP3    H2 9898   3.451   3.396   1.526
 3312TIP3   OH2 9899   3.075   3.391   2.422
 3312TIP3    H1 9900   3.145   3.426   2.478
 3312TIP3    H2 9901   3.118   3.368   2.340
 3313TIP3   OH2 9902   3.002   3.371   1.936
 3313TIP3    H1 9903   3.048   3.406   1.860
 3313TIP3    H2 9904   2.940   3.439   1.962
 3314TIP3   OH2 9905   4.205   4.065   2.529
 3314TIP3    H1 9906   4.232   3.992   2.472
 3314TIP3    H2 9907   4.170   4.022   2.608
 3315TIP3   OH2 9908   3.884   3.533   2.200
 3315TIP3    H1 9909   3.804   3.535   2.253
 3315TIP3    H2 9910   3.954   3.514   2.261
 3316TIP3   OH2 9911   3.297   3.611   2.210
 3316TIP3    H1 9912   3.208   3.616   2.177
 3316TIP3    H2 9913   3.324   3.520   2.193
 3317TIP3   OH2 9914   3.553   3.606   1.904
 3317TIP3    H1 9915   3.647   3.620   1.889
 3317TIP3    H2 9916   3.512   3.626   1.820
 3318TIP3   OH2 9917   4.319   3.579   2.415
 3318TIP3    H1 9918   4.276   3.664   2.413
 3318TIP3    H2 9919   4.267   3.524   2.356
 3319TIP3   OH2 9920   3.426   3.634   1.663
 3319TIP3    H1 9921   3.359   3.588   1.612
 3319TIP3    H2 9922   3.480   3.679   1.598
 3320TIP3   OH2 9923   4.541   5.317   2.633
 3320TIP3    H1 9924   4.535   5.339   2.540
 3320TIP3    H2 9925   4.618   5.365   2.664
 3321TIP3   OH2 9926   3.487   4.428   3.040
 3321TIP3    H1 9927   3.567   4.447   3.088
 3321TIP3    H2 9928   3.419   4.427   3.108
 3322TIP3   OH2 9929   3.948   3.891   2.310
 3322TIP3    H1 9930   4.011   3.835   2.265
 3322TIP3    H2 9931   3.945   3.856   2.399
 3323TIP3   OH2 9932   3.446   3.363   2.196
 3323TIP3    H1 9933   3.415   3.288   2.247
 3323TIP3    H2 9934   3.477   3.324   2.114
 3324TIP3   OH2 9935   3.929   3.803   2.581
 3324TIP3    H1 9936   3.839   3.829   2.600
 3324TIP3    H2 9937   3.982   3.856   2.639
 3325TIP3   OH2 9938   3.655   4.156   1.688
 3325TIP3    H1 9939   3.581   4.099   1.667
 3325TIP3    H2 9940   3.632   4.194   1.772
 3326TIP3   OH2 9941   4.550   4.405   2.298
 3326TIP3    H1 9942   4.583   4.454   2.223
 3326TIP3    H2 9943   4.468   4.367   2.268
 3327TIP3   OH2 9944   4.118   3.470   1.578
 3327TIP3    H1 9945   4.024   3.450   1.579
 3327TIP3    H2 9946   4.122   3.564   1.595
 3328TIP3   OH2 9947   4.058   4.485   2.700
 3328TIP3    H1 9948   4.103   4.475   2.784
 3328TIP3    H2 9949   4.017   4.571   2.704
 3329TIP3   OH2 9950   4.181   3.730   1.660
 3329TIP3    H1 9951   4.277   3.735   1.669
 3329TIP3    H2 9952   4.159   3.808   1.609
 3330TIP3   OH2 9953   3.353   4.176   2.354
 3330TIP3    H1 9954   3.390   4.155   2.268
 3330TIP3    H2 9955   3.410   4.132   2.417
 3331TIP3   OH2 9956   3.806   4.316   1.526
 3331TIP3    H1 9957   3.760   4.400   1.525
 3331TIP3    H2 9958   3.752   4.259   1.579
 3332TIP3   OH2 9959   3.231   4.093   2.977
 3332TIP3    H1 9960   3.236   4.068   3.069
 3332TIP3    H2 9961   3.159   4.041   2.942
 3333TIP3   OH2 9962   3.956   4.231   2.996
 3333TIP3    H1 9963   3.890   4.166   2.971
 3333TIP3    H2 9964   4.039   4.191   2.972
 3334TIP3   OH2 9965   4.209   4.761   2.587
 3334TIP3    H1 9966   4.114   4.752   2.594
 3334TIP3    H2 9967   4.235   4.806   2.668
 3335TIP3   OH2 9968   4.604   3.821   1.485
 3335TIP3    H1 9969   4.549   3.773   1.423
 3335TIP3    H2 9970   4.607   3.910   1.451
 3336TIP3   OH2 9971   4.846   4.673   2.573
 3336TIP3    H1 9972   4.751   4.666   2.566
 3336TIP3    H2 9973   4.878   4.650   2.486
 3337TIP3   OH2 9974   4.335   4.634   1.412
 3337TIP3    H1 9975   4.303   4.571   1.476
 3337TIP3    H2 9976   4.343   4.585   1.330
 3338TIP3   OH2 9977   4.315   4.274   2.200
 3338TIP3    H1 9978   4.225   4.251   2.225
 3338TIP3    H2 9979   4.350   4.194   2.161
 3339TIP3   OH2 9980   3.461   4.504   1.998
 3339TIP3    H1 9981   3.458   4.582   1.943
 3339TIP3    H2 9982   3.370   4.490   2.025
 3340TIP3   OH2 9983   3.024   3.797   1.707
 3340TIP3    H1 9984   3.067   3.879   1.729
 3340TIP3    H2 9985   2.942   3.799   1.757
 3341TIP3   OH2 9986   3.569   4.261   1.922
 3341TIP3    H1 9987   3.543   4.350   1.944
 3341TIP3    H2 9988   3.538   4.207   1.995
 3342TIP3   OH2 9989   3.744   4.831   2.459
 3342TIP3    H1 9990   3.779   4.904   2.408
 3342TIP3    H2 9991   3.818   4.798   2.509
 3343TIP3   OH2 9992   3.378   4.734   1.848
 3343TIP3    H1 9993   3.292   4.738   1.890
 3343TIP3    H2 9994   3.411   4.824   1.852
 3344TIP3   OH2 9995   4.105   4.483   2.428
 3344TIP3    H1 9996   4.092   4.480   2.523
 3344TIP3    H2 9997   4.187   4.436   2.414
 3345TIP3   OH2 9998   4.090   4.362   1.305
 3345TIP3    H1 9999   4.145   4.337   1.379
 3345TIP3    H210000   4.004   4.326   1.327
 3346TIP3   OH210001   4.358   4.994   2.469
 3346TIP3    H110002   4.283   4.935   2.476
 3346TIP3    H210003   4.335   5.054   2.398
 3347TIP3   OH210004   4.414   4.834   1.125
 3347TIP3    H110005   4.427   4.895   1.053
 3347TIP3    H210006   4.341   4.871   1.175
 3348TIP3   OH210007   3.430   3.632   2.981
 3348TIP3    H110008   3.334   3.639   2.983
 3348TIP3    H210009   3.453   3.608   3.071
 3349TIP3   OH210010   4.266   4.285   1.498
 3349TIP3    H110011   4.250   4.231   1.575
 3349TIP3    H210012   4.361   4.294   1.493
 3350TIP3   OH210013   3.174   4.713   2.619
 3350TIP3    H110014   3.223   4.647   2.668
 3350TIP3    H210015   3.192   4.795   2.664
 3351TIP3   OH210016   3.447   4.338   1.308
 3351TIP3    H110017   3.457   4.247   1.282
 3351TIP3    H210018   3.428   4.335   1.402
 3352TIP3   OH210019   3.390   4.355   1.579
 3352TIP3    H110020   3.457   4.326   1.641
 3352TIP3    H210021   3.390   4.450   1.587
 3353TIP3   OH210022   3.124   4.046   1.788
 3353TIP3    H110023   3.058   4.090   1.841
 3353TIP3    H210024   3.141   4.106   1.716
 3354TIP3   OH210025   4.384   3.625   2.704
 3354TIP3    H110026   4.400   3.709   2.748
 3354TIP3    H210027   4.328   3.577   2.765
 3355TIP3   OH210028   4.172   3.423   1.852
 3355TIP3    H110029   4.154   3.442   1.760
 3355TIP3    H210030   4.215   3.502   1.885
 3356TIP3   OH210031   3.662   4.545   1.524
 3356TIP3    H110032   3.576   4.567   1.561
 3356TIP3    H210033   3.683   4.619   1.468
 3357TIP3   OH210034   3.834   3.617   1.940
 3357TIP3    H110035   3.897   3.686   1.917
 3357TIP3    H210036   3.849   3.601   2.033
 3358TIP3   OH210037   4.127   3.921   2.753
 3358TIP3    H110038   4.136   3.991   2.818
 3358TIP3    H210039   4.164   3.844   2.795
 3359TIP3   OH210040   3.989   3.322   2.036
 3359TIP3    H110041   3.966   3.400   2.088
 3359TIP3    H210042   4.056   3.353   1.976
 3360TIP3   OH210043   3.408   4.628   1.596
 3360TIP3    H110044   3.383   4.697   1.536
 3360TIP3    H210045   3.395   4.666   1.683
 3361TIP3   OH210046   3.505   3.335   1.836
 3361TIP3    H110047   3.494   3.425   1.868
 3361TIP3    H210048   3.599   3.319   1.842
 3362TIP3   OH210049   4.745   3.758   2.680
 3362TIP3    H110050   4.665   3.802   2.711
 3362TIP3    H210051   4.775   3.813   2.607
 3363TIP3   OH210052   4.406   4.020   2.105
 3363TIP3    H110053   4.332   3.959   2.111
 3363TIP3    H210054   4.476   3.977   2.155
 3364TIP3   OH210055   3.139   4.231   1.577
 3364TIP3    H110056   3.209   4.295   1.587
 3364TIP3    H210057   3.173   4.167   1.514
 3365TIP3   OH210058   3.058   3.520   1.712
 3365TIP3    H110059   3.071   3.615   1.720
 3365TIP3    H210060   2.982   3.511   1.656
 3366TIP3   OH210061   4.385   4.986   2.046
 3366TIP3    H110062   4.342   5.035   1.975
 3366TIP3    H210063   4.479   5.000   2.031
 3367TIP3   OH210064   3.459   3.240   2.578
 3367TIP3    H110065   3.426   3.207   2.493
 3367TIP3    H210066   3.448   3.165   2.637
 3368TIP3   OH210067   2.981   4.482   1.971
 3368TIP3    H110068   2.928   4.514   2.044
 3368TIP3    H210069   2.944   4.524   1.893
 3369TIP3   OH210070   3.167   5.025   3.041
 3369TIP3    H110071   3.250   5.030   3.088
 3369TIP3    H210072   3.152   4.932   3.030
 3370TIP3   OH210073   3.635   4.948   3.085
 3370TIP3    H110074   3.729   4.929   3.092
 3370TIP3    H210075   3.605   4.891   3.013
 3371TIP3   OH210076   3.607   4.538   1.207
 3371TIP3    H110077   3.559   4.467   1.250
 3371TIP3    H210078   3.682   4.495   1.167
 3372TIP3   OH210079   4.265   4.880   2.828
 3372TIP3    H110080   4.273   4.810   2.893
 3372TIP3    H210081   4.340   4.938   2.846
 3373TIP3   OH210082   4.042   4.579   1.149
 3373TIP3    H110083   4.072   4.509   1.207
 3373TIP3    H210084   4.096   4.570   1.071
 3374TIP3   OH210085   3.281   4.428   3.232
 3374TIP3    H110086   3.305   4.335   3.239
 3374TIP3    H210087   3.194   4.427   3.191
 3375TIP3   OH210088   3.272   4.040   1.434
 3375TIP3    H110089   3.324   4.017   1.511
 3375TIP3    H210090   3.337   4.051   1.364
 3376TIP3   OH210091   3.899   4.509   3.007
 3376TIP3    H110092   3.853   4.528   2.925
 3376TIP3    H210093   3.928   4.418   2.998
 3377TIP3   OH210094   3.811   4.258   1.257
 3377TIP3    H110095   3.797   4.272   1.350
 3377TIP3    H210096   3.802   4.164   1.244
 3378TIP3   OH210097   4.378   4.535   2.621
 3378TIP3    H110098   4.455   4.568   2.575
 3378TIP3    H210099   4.311   4.602   2.609
 3379TIP3   OH210100   3.396   4.177   3.237
 3379TIP3    H110101   3.443   4.099   3.209
 3379TIP3    H210102   3.426   4.193   3.326
 3380TIP3   OH210103   3.449   3.974   1.644
 3380TIP3    H110104   3.425   3.944   1.732
 3380TIP3    H210105   3.493   3.899   1.604
 3381TIP3   OH210106   3.752   4.048   2.882
 3381TIP3    H110107   3.669   4.095   2.888
 3381TIP3    H210108   3.791   4.078   2.800
 3382TIP3   OH210109   3.580   3.780   1.489
 3382TIP3    H110110   3.550   3.786   1.398
 3382TIP3    H210111   3.675   3.787   1.484
 3383TIP3   OH210112   4.260   4.429   2.991
 3383TIP3    H110113   4.334   4.398   2.940
 3383TIP3    H210114   4.257   4.371   3.067
 3384TIP3   OH210115   4.382   4.085   1.165
 3384TIP3    H110116   4.362   4.038   1.084
 3384TIP3    H210117   4.353   4.175   1.148
 3385TIP3   OH210118   3.857   3.823   3.003
 3385TIP3    H110119   3.859   3.749   2.943
 3385TIP3    H210120   3.819   3.894   2.951
 3386TIP3   OH210121   3.868   3.614   2.803
 3386TIP3    H110122   3.890   3.654   2.719
 3386TIP3    H210123   3.776   3.590   2.795
 3387TIP3   OH210124   3.888   4.147   2.667
 3387TIP3    H110125   3.974   4.188   2.655
 3387TIP3    H210126   3.827   4.207   2.625
 3388TIP3   OH210127   4.472   4.090   3.041
 3388TIP3    H110128   4.498   4.004   3.074
 3388TIP3    H210129   4.544   4.118   2.985
 3389TIP3   OH210130   4.504   4.368   2.798
 3389TIP3    H110131   4.454   4.429   2.742
 3389TIP3    H210132   4.594   4.377   2.767
 3390TIP3   OH210133   3.754   3.934   3.244
 3390TIP3    H110134   3.667   3.903   3.270
 3390TIP3    H210135   3.771   3.889   3.161
 3391TIP3   OH210136   3.986   3.370   2.895
 3391TIP3    H110137   3.945   3.454   2.873
 3391TIP3    H210138   3.914   3.307   2.890
 3392TIP3   OH210139   4.120   3.853   3.094
 3392TIP3    H110140   4.135   3.787   3.162
 3392TIP3    H210141   4.026   3.847   3.076
 3393TIP3   OH210142   4.356   3.803   2.955
 3393TIP3    H110143   4.275   3.813   3.006
 3393TIP3    H210144   4.422   3.780   3.020
 3394TIP3   OH210145   4.552   3.757   3.147
 3394TIP3    H110146   4.583   3.667   3.133
 3394TIP3    H210147   4.580   3.779   3.236
 3395TIP3   OH210148   4.123   3.385   3.139
 3395TIP3    H110149   4.173   3.303   3.145
 3395TIP3    H210150   4.059   3.370   3.070
 3396TIP3   OH210151   4.152   3.633   3.260
 3396TIP3    H110152   4.139   3.545   3.225
 3396TIP3    H210153   4.069   3.655   3.302
 3397TIP3   OH210154   3.392   4.834   1.410
 3397TIP3    H110155   3.483   4.815   1.387
 3397TIP3    H210156   3.358   4.883   1.335
 3398TIP3   OH210157   2.864   4.215   1.597
 3398TIP3    H110158   2.959   4.230   1.595
 3398TIP3    H210159   2.853   4.127   1.562
 3399TIP3   OH210160   2.776   4.807   2.047
 3399TIP3    H110161   2.713   4.751   2.003
 3399TIP3    H210162   2.820   4.748   2.109
 3400TIP3   OH210163   2.915   4.646   2.224
 3400TIP3    H110164   2.902   4.577   2.290
 3400TIP3    H210165   2.967   4.712   2.269
 3401TIP3   OH210166   4.654   5.046   2.031
 3401TIP3    H110167   4.673   5.077   2.120
 3401TIP3    H210168   4.710   5.101   1.975
 3402TIP3   OH210169   4.673   5.075   2.312
 3402TIP3    H110170   4.624   4.993   2.306
 3402TIP3    H210171   4.742   5.056   2.376
 3403TIP3   OH210172   4.714   4.772   2.875
 3403TIP3    H110173   4.645   4.777   2.942
 3403TIP3    H210174   4.759   4.856   2.881
 3404TIP3   OH210175   4.545   4.284   1.496
 3404TIP3    H110176   4.605   4.353   1.468
 3404TIP3    H210177   4.586   4.245   1.572
 3405TIP3   OH210178   4.669   4.143   1.698
 3405TIP3    H110179   4.602   4.104   1.754
 3405TIP3    H210180   4.734   4.177   1.759
 3406TIP3   OH210181   4.720   4.541   2.126
 3406TIP3    H110182   4.774   4.473   2.086
 3406TIP3    H210183   4.720   4.612   2.061
 3407TIP3   OH210184   4.533   4.834   2.319
 3407TIP3    H110185   4.465   4.877   2.372
 3407TIP3    H210186   4.485   4.792   2.248
 3408TIP3   OH210187   4.588   4.059   1.344
 3408TIP3    H110188   4.517   4.058   1.280
 3408TIP3    H210189   4.570   4.136   1.399
 3409TIP3   OH210190   4.452   3.713   1.286
 3409TIP3    H110191   4.402   3.754   1.214
 3409TIP3    H210192   4.439   3.619   1.274
 3410TIP3   OH210193   4.470   4.004   1.836
 3410TIP3    H110194   4.477   3.909   1.826
 3410TIP3    H210195   4.453   4.018   1.929
 3411TIP3   OH210196   3.093   4.074   2.597
 3411TIP3    H110197   3.084   4.038   2.508
 3411TIP3    H210198   3.187   4.072   2.614
 3412TIP3   OH210199   4.771   4.407   2.702
 3412TIP3    H110200   4.846   4.348   2.695
 3412TIP3    H210201   4.789   4.478   2.640
 3413TIP3   OH210202   4.406   3.443   1.254
 3413TIP3    H110203   4.474   3.417   1.317
 3413TIP3    H210204   4.327   3.399   1.286
 3414TIP3   OH210205   4.469   3.724   1.723
 3414TIP3    H110206   4.514   3.641   1.739
 3414TIP3    H210207   4.516   3.763   1.649
 3415TIP3   OH210208   4.618   3.900   2.245
 3415TIP3    H110209   4.698   3.915   2.195
 3415TIP3    H210210   4.637   3.933   2.333
 3416TIP3   OH210211   4.695   4.044   2.479
 3416TIP3    H110212   4.617   4.075   2.526
 3416TIP3    H210213   4.723   4.120   2.428
 3417TIP3   OH210214   3.340   3.737   3.286
 3417TIP3    H110215   3.400   3.793   3.335
 3417TIP3    H210216   3.357   3.649   3.320
 3418TIP3   OH210217   5.181   3.660   3.042
 3418TIP3    H110218   5.237   3.598   2.993
 3418TIP3    H210219   5.127   3.701   2.975
 3419TIP3   OH210220   4.582   3.473   1.779
 3419TIP3    H110221   4.628   3.457   1.861
 3419TIP3    H210222   4.520   3.401   1.771
 3420TIP3   OH210223   3.286   3.458   2.586
 3420TIP3    H110224   3.342   3.381   2.599
 3420TIP3    H210225   3.348   3.531   2.579
 3421TIP3   OH210226   3.071   3.718   2.658
 3421TIP3    H110227   3.123   3.718   2.578
 3421TIP3    H210228   3.099   3.797   2.705
 3422TIP3   OH210229   5.011   3.764   2.859
 3422TIP3    H110230   4.983   3.855   2.869
 3422TIP3    H210231   4.950   3.728   2.794
 3423TIP3   OH210232   4.634   3.398   1.408
 3423TIP3    H110233   4.681   3.331   1.359
 3423TIP3    H210234   4.696   3.471   1.413
 3424TIP3   OH210235   3.057   3.224   2.160
 3424TIP3    H110236   2.971   3.218   2.201
 3424TIP3    H210237   3.045   3.284   2.087
 3425TIP3   OH210238   4.216   4.946   1.674
 3425TIP3    H110239   4.275   4.936   1.600
 3425TIP3    H210240   4.256   5.014   1.728
 3426TIP3   OH210241   3.275   3.289   2.968
 3426TIP3    H110242   3.230   3.289   3.052
 3426TIP3    H210243   3.219   3.342   2.911
 3427TIP3   OH210244   3.310   4.746   3.052
 3427TIP3    H110245   3.217   4.724   3.043
 3427TIP3    H210246   3.331   4.725   3.143
 3428TIP3   OH210247   3.516   4.782   2.608
 3428TIP3    H110248   3.461   4.852   2.572
 3428TIP3    H210249   3.601   4.795   2.565
 3429TIP3   OH210250   3.929   5.018   2.744
 3429TIP3    H110251   3.968   5.013   2.832
 3429TIP3    H210252   3.990   5.072   2.694
 3430TIP3   OH210253   4.114   5.174   2.613
 3430TIP3    H110254   4.179   5.123   2.564
 3430TIP3    H210255   4.167   5.230   2.670
 3431TIP3   OH210256   4.931   3.510   2.711
 3431TIP3    H110257   4.848   3.517   2.665
 3431TIP3    H210258   4.961   3.421   2.693
 3432TIP3   OH210259   3.177   5.034   2.650
 3432TIP3    H110260   3.086   5.055   2.627
 3432TIP3    H210261   3.201   5.100   2.715
 3433TIP3   OH210262   3.403   5.003   2.494
 3433TIP3    H110263   3.321   5.017   2.541
 3433TIP3    H210264   3.386   5.040   2.407
 3434TIP3   OH210265   3.831   5.033   2.286
 3434TIP3    H110266   3.758   5.048   2.225
 3434TIP3    H210267   3.842   5.117   2.331
 3435TIP3   OH210268   4.097   4.974   2.341
 3435TIP3    H110269   4.005   4.992   2.323
 3435TIP3    H210270   4.144   5.044   2.297
 3436TIP3   OH210271   4.301   5.155   2.249
 3436TIP3    H110272   4.294   5.242   2.210
 3436TIP3    H210273   4.329   5.098   2.177
 3437TIP3   OH210274   3.092   4.818   2.372
 3437TIP3    H110275   3.115   4.790   2.461
 3437TIP3    H210276   3.163   4.784   2.317
 3438TIP3   OH210277   3.292   4.698   2.232
 3438TIP3    H110278   3.303   4.615   2.279
 3438TIP3    H210279   3.379   4.739   2.235
 3439TIP3   OH210280   3.560   4.785   2.251
 3439TIP3    H110281   3.580   4.692   2.239
 3439TIP3    H210282   3.610   4.810   2.328
 3440TIP3   OH210283   4.104   3.414   2.323
 3440TIP3    H110284   4.066   3.349   2.382
 3440TIP3    H210285   4.171   3.367   2.274
 3441TIP3   OH210286   4.613   3.386   2.258
 3441TIP3    H110287   4.664   3.394   2.177
 3441TIP3    H210288   4.525   3.362   2.228
 3442TIP3   OH210289   4.737   3.421   2.010
 3442TIP3    H110290   4.802   3.361   1.972
 3442TIP3    H210291   4.773   3.508   1.995
 3443TIP3   OH210292   3.367   3.138   2.336
 3443TIP3    H110293   3.277   3.106   2.346
 3443TIP3    H210294   3.420   3.058   2.332
 3444TIP3   OH210295   3.170   3.029   1.986
 3444TIP3    H110296   3.199   3.083   1.913
 3444TIP3    H210297   3.137   3.092   2.050
 3445TIP3   OH210298   3.831   3.177   2.226
 3445TIP3    H110299   3.881   3.226   2.161
 3445TIP3    H210300   3.862   3.210   2.311
 3446TIP3   OH210301   4.341   3.313   2.203
 3446TIP3    H110302   4.356   3.277   2.116
 3446TIP3    H210303   4.346   3.238   2.262
 3447TIP3   OH210304   4.392   3.266   1.775
 3447TIP3    H110305   4.312   3.312   1.797
 3447TIP3    H210306   4.381   3.179   1.813
 3448TIP3   OH210307   2.874   4.606   1.752
 3448TIP3    H110308   2.790   4.569   1.726
 3448TIP3    H210309   2.869   4.698   1.725
 3449TIP3   OH210310   3.287   3.173   1.755
 3449TIP3    H110311   3.333   3.113   1.696
 3449TIP3    H210312   3.357   3.229   1.790
 3450TIP3   OH210313   3.781   3.364   1.849
 3450TIP3    H110314   3.839   3.314   1.906
 3450TIP3    H210315   3.795   3.455   1.875
 3451TIP3   OH210316   3.651   4.767   1.349
 3451TIP3    H110317   3.737   4.792   1.316
 3451TIP3    H210318   3.625   4.694   1.293
 3452TIP3   OH210319   4.370   4.902   1.446
 3452TIP3    H110320   4.362   4.807   1.438
 3452TIP3    H210321   4.320   4.937   1.372
 3453TIP3   OH210322   3.854   3.415   3.326
 3453TIP3    H110323   3.924   3.352   3.339
 3453TIP3    H210324   3.779   3.377   3.372
 3454TIP3   OH210325   2.957   4.609   1.405
 3454TIP3    H110326   2.955   4.613   1.501
 3454TIP3    H210327   3.039   4.565   1.384
 3455TIP3   OH210328   4.660   3.493   3.140
 3455TIP3    H110329   4.667   3.446   3.223
 3455TIP3    H210330   4.748   3.488   3.102
 3456TIP3   OH210331   4.582   5.043   2.633
 3456TIP3    H110332   4.506   5.012   2.583
 3456TIP3    H210333   4.568   5.137   2.642
 3457TIP3   OH210334   5.856   4.429   1.394
 3457TIP3    H110335   5.828   4.517   1.372
 3457TIP3    H210336   5.783   4.373   1.366
 3458TIP3   OH210337   5.849   4.423   1.800
 3458TIP3    H110338   5.900   4.404   1.879
 3458TIP3    H210339   5.811   4.339   1.775
 3459TIP3   OH210340   5.155   4.293   2.151
 3459TIP3    H110341   5.189   4.236   2.220
 3459TIP3    H210342   5.233   4.326   2.106
 3460TIP3   OH210343   6.105   4.728   1.476
 3460TIP3    H110344   6.098   4.659   1.542
 3460TIP3    H210345   6.136   4.805   1.524
 3461TIP3   OH210346   5.141   4.718   1.846
 3461TIP3    H110347   5.126   4.624   1.852
 3461TIP3    H210348   5.237   4.726   1.840
 3462TIP3   OH210349   4.832   3.920   1.626
 3462TIP3    H110350   4.791   4.003   1.651
 3462TIP3    H210351   4.761   3.869   1.588
 3463TIP3   OH210352   4.901   4.217   1.835
 3463TIP3    H110353   4.949   4.139   1.863
 3463TIP3    H210354   4.968   4.274   1.797
 3464TIP3   OH210355   5.756   5.160   1.497
 3464TIP3    H110356   5.801   5.101   1.436
 3464TIP3    H210357   5.764   5.118   1.582
 3465TIP3   OH210358   5.659   4.646   1.811
 3465TIP3    H110359   5.699   4.564   1.783
 3465TIP3    H210360   5.732   4.701   1.838
 3466TIP3   OH210361   6.667   3.974   1.824
 3466TIP3    H110362   6.678   4.067   1.841
 3466TIP3    H210363   6.666   3.967   1.728
 3467TIP3   OH210364   6.074   4.140   1.847
 3467TIP3    H110365   6.125   4.062   1.869
 3467TIP3    H210366   6.035   4.120   1.762
 3468TIP3   OH210367   5.408   3.798   1.814
 3468TIP3    H110368   5.391   3.867   1.750
 3468TIP3    H210369   5.360   3.722   1.780
 3469TIP3   OH210370   6.129   3.879   1.469
 3469TIP3    H110371   6.194   3.830   1.519
 3469TIP3    H210372   6.179   3.915   1.395
 3470TIP3   OH210373   5.044   4.000   1.928
 3470TIP3    H110374   5.125   3.984   1.975
 3470TIP3    H210375   5.051   3.947   1.849
 3471TIP3   OH210376   5.474   4.203   1.741
 3471TIP3    H110377   5.568   4.186   1.749
 3471TIP3    H210378   5.437   4.122   1.708
 3472TIP3   OH210379   6.729   4.200   2.007
 3472TIP3    H110380   6.642   4.236   1.989
 3472TIP3    H210381   6.752   4.235   2.093
 3473TIP3   OH210382   5.404   3.792   2.257
 3473TIP3    H110383   5.351   3.825   2.185
 3473TIP3    H210384   5.350   3.805   2.335
 3474TIP3   OH210385   5.760   4.657   1.266
 3474TIP3    H110386   5.719   4.620   1.188
 3474TIP3    H210387   5.705   4.732   1.289
 3475TIP3   OH210388   5.507   4.568   2.030
 3475TIP3    H110389   5.451   4.637   2.065
 3475TIP3    H210390   5.554   4.609   1.958
 3476TIP3   OH210391   5.284   3.902   2.033
 3476TIP3    H110392   5.341   3.976   2.056
 3476TIP3    H210393   5.329   3.859   1.961
 3477TIP3   OH210394   5.343   4.769   2.131
 3477TIP3    H110395   5.325   4.857   2.099
 3477TIP3    H210396   5.267   4.746   2.184
 3478TIP3   OH210397   4.723   4.469   1.381
 3478TIP3    H110398   4.680   4.488   1.298
 3478TIP3    H210399   4.747   4.554   1.416
 3479TIP3   OH210400   6.163   4.959   1.624
 3479TIP3    H110401   6.075   4.955   1.661
 3479TIP3    H210402   6.166   5.043   1.577
 3480TIP3   OH210403   6.459   3.860   1.984
 3480TIP3    H110404   6.370   3.876   1.953
 3480TIP3    H210405   6.515   3.887   1.911
 3481TIP3   OH210406   5.748   3.505   1.971
 3481TIP3    H110407   5.745   3.413   1.996
 3481TIP3    H210408   5.671   3.544   2.013
 3482TIP3   OH210409   5.881   5.018   1.305
 3482TIP3    H110410   5.912   4.928   1.292
 3482TIP3    H210411   5.955   5.073   1.279
 3483TIP3   OH210412   6.005   4.780   1.230
 3483TIP3    H110413   5.927   4.725   1.229
 3483TIP3    H210414   6.047   4.759   1.313
 3484TIP3   OH210415   6.392   4.866   1.960
 3484TIP3    H110416   6.372   4.792   1.903
 3484TIP3    H210417   6.374   4.943   1.906
 3485TIP3   OH210418   5.681   4.274   1.241
 3485TIP3    H110419   5.595   4.311   1.219
 3485TIP3    H210420   5.726   4.266   1.157
 3486TIP3   OH210421   5.659   4.039   0.981
 3486TIP3    H110422   5.730   4.090   1.019
 3486TIP3    H210423   5.701   3.961   0.946
 3487TIP3   OH210424   6.577   4.539   1.831
 3487TIP3    H110425   6.491   4.581   1.827
 3487TIP3    H210426   6.608   4.537   1.740
 3488TIP3   OH210427   6.039   4.340   1.214
 3488TIP3    H110428   5.988   4.372   1.288
 3488TIP3    H210429   6.123   4.313   1.252
 3489TIP3   OH210430   6.262   4.395   2.129
 3489TIP3    H110431   6.256   4.476   2.179
 3489TIP3    H210432   6.179   4.390   2.081
 3490TIP3   OH210433   5.273   4.341   1.603
 3490TIP3    H110434   5.235   4.281   1.539
 3490TIP3    H210435   5.345   4.292   1.642
 3491TIP3   OH210436   5.405   4.764   1.743
 3491TIP3    H110437   5.383   4.741   1.652
 3491TIP3    H210438   5.491   4.725   1.757
 3492TIP3   OH210439   5.377   4.333   1.970
 3492TIP3    H110440   5.416   4.297   1.890
 3492TIP3    H210441   5.428   4.412   1.988
 3493TIP3   OH210442   5.919   4.968   1.745
 3493TIP3    H110443   5.912   5.046   1.801
 3493TIP3    H210444   5.909   4.895   1.806
 3494TIP3   OH210445   5.541   4.875   2.293
 3494TIP3    H110446   5.481   4.934   2.340
 3494TIP3    H210447   5.484   4.822   2.238
 3495TIP3   OH210448   5.869   4.211   1.044
 3495TIP3    H110449   5.929   4.260   1.100
 3495TIP3    H210450   5.894   4.237   0.955
 3496TIP3   OH210451   5.304   4.445   2.398
 3496TIP3    H110452   5.306   4.530   2.442
 3496TIP3    H210453   5.211   4.420   2.397
 3497TIP3   OH210454   5.624   4.896   1.287
 3497TIP3    H110455   5.700   4.952   1.303
 3497TIP3    H210456   5.554   4.957   1.264
 3498TIP3   OH210457   5.330   5.036   2.377
 3498TIP3    H110458   5.304   5.041   2.285
 3498TIP3    H210459   5.249   5.018   2.424
 3499TIP3   OH210460   6.370   3.449   1.076
 3499TIP3    H110461   6.299   3.472   1.135
 3499TIP3    H210462   6.381   3.527   1.021
 3500TIP3   OH210463   5.143   4.187   1.403
 3500TIP3    H110464   5.064   4.229   1.370
 3500TIP3    H210465   5.115   4.097   1.423
 3501TIP3   OH210466   6.141   4.847   0.610
 3501TIP3    H110467   6.140   4.941   0.592
 3501TIP3    H210468   6.193   4.809   0.539
 3502TIP3   OH210469   4.917   4.588   2.324
 3502TIP3    H110470   4.849   4.567   2.260
 3502TIP3    H210471   4.953   4.503   2.350
 3503TIP3   OH210472   4.772   4.772   1.963
 3503TIP3    H110473   4.867   4.781   1.968
 3503TIP3    H210474   4.739   4.849   2.009
 3504TIP3   OH210475   6.629   5.235   2.025
 3504TIP3    H110476   6.631   5.139   2.029
 3504TIP3    H210477   6.548   5.259   2.071
 3505TIP3   OH210478   5.731   5.011   2.149
 3505TIP3    H110479   5.727   5.102   2.178
 3505TIP3    H210480   5.664   4.967   2.201
 3506TIP3   OH210481   5.472   5.099   1.173
 3506TIP3    H110482   5.450   5.086   1.081
 3506TIP3    H210483   5.438   5.186   1.193
 3507TIP3   OH210484   4.939   4.965   1.489
 3507TIP3    H110485   4.983   4.961   1.574
 3507TIP3    H210486   4.890   4.883   1.484
 3508TIP3   OH210487   5.661   5.069   0.757
 3508TIP3    H110488   5.732   5.070   0.693
 3508TIP3    H210489   5.704   5.082   0.841
 3509TIP3   OH210490   5.700   5.119   1.017
 3509TIP3    H110491   5.640   5.109   1.091
 3509TIP3    H210492   5.774   5.062   1.039
 3510TIP3   OH210493   6.510   4.350   2.286
 3510TIP3    H110494   6.429   4.362   2.237
 3510TIP3    H210495   6.527   4.256   2.281
 3511TIP3   OH210496   5.125   4.766   2.300
 3511TIP3    H110497   5.174   4.753   2.381
 3511TIP3    H210498   5.051   4.706   2.306
 3512TIP3   OH210499   5.512   3.584   2.104
 3512TIP3    H110500   5.431   3.547   2.071
 3512TIP3    H210501   5.485   3.660   2.155
 3513TIP3   OH210502   6.052   3.697   2.301
 3513TIP3    H110503   6.121   3.669   2.362
 3513TIP3    H210504   5.971   3.678   2.347
 3514TIP3   OH210505   6.271   4.127   2.220
 3514TIP3    H110506   6.230   4.126   2.306
 3514TIP3    H210507   6.252   4.214   2.185
 3515TIP3   OH210508   5.941   4.287   0.794
 3515TIP3    H110509   5.919   4.257   0.705
 3515TIP3    H210510   6.027   4.326   0.784
 3516TIP3   OH210511   5.665   3.621   1.081
 3516TIP3    H110512   5.632   3.624   1.171
 3516TIP3    H210513   5.624   3.543   1.044
 3517TIP3   OH210514   5.446   4.109   2.118
 3517TIP3    H110515   5.401   4.119   2.201
 3517TIP3    H210516   5.425   4.189   2.069
 3518TIP3   OH210517   5.325   3.992   1.636
 3518TIP3    H110518   5.238   3.962   1.660
 3518TIP3    H210519   5.341   3.954   1.550
 3519TIP3   OH210520   5.818   4.067   1.366
 3519TIP3    H110521   5.769   4.139   1.327
 3519TIP3    H210522   5.874   4.034   1.296
 3520TIP3   OH210523   5.996   4.341   2.444
 3520TIP3    H110524   5.970   4.270   2.504
 3520TIP3    H210525   6.090   4.353   2.462
 3521TIP3   OH210526   5.984   4.082   1.592
 3521TIP3    H110527   5.916   4.097   1.525
 3521TIP3    H210528   6.031   4.005   1.561
 3522TIP3   OH210529   5.278   4.123   2.339
 3522TIP3    H110530   5.331   4.174   2.401
 3522TIP3    H210531   5.262   4.040   2.384
 3523TIP3   OH210532   5.324   3.608   1.050
 3523TIP3    H110533   5.316   3.607   1.145
 3523TIP3    H210534   5.243   3.650   1.020
 3524TIP3   OH210535   4.862   3.642   1.919
 3524TIP3    H110536   4.937   3.675   1.968
 3524TIP3    H210537   4.900   3.610   1.837
 3525TIP3   OH210538   4.798   3.626   1.423
 3525TIP3    H110539   4.844   3.658   1.346
 3525TIP3    H210540   4.737   3.696   1.446
 3526TIP3   OH210541   6.007   4.338   2.018
 3526TIP3    H110542   6.035   4.272   1.954
 3526TIP3    H210543   5.967   4.288   2.088
 3527TIP3   OH210544   5.663   3.839   1.697
 3527TIP3    H110545   5.590   3.817   1.756
 3527TIP3    H210546   5.737   3.789   1.730
 3528TIP3   OH210547   5.093   3.857   1.697
 3528TIP3    H110548   5.004   3.862   1.663
 3528TIP3    H210549   5.120   3.767   1.682
 3529TIP3   OH210550   5.346   3.863   1.396
 3529TIP3    H110551   5.440   3.875   1.381
 3529TIP3    H210552   5.306   3.881   1.311
 3530TIP3   OH210553   6.177   3.888   1.918
 3530TIP3    H110554   6.117   3.891   1.993
 3530TIP3    H210555   6.145   3.815   1.865
 3531TIP3   OH210556   5.208   3.891   1.160
 3531TIP3    H110557   5.149   3.841   1.104
 3531TIP3    H210558   5.270   3.932   1.100
 3532TIP3   OH210559   6.338   5.574   2.118
 3532TIP3    H110560   6.332   5.595   2.025
 3532TIP3    H210561   6.415   5.622   2.148
 3533TIP3   OH210562   5.280   4.689   2.535
 3533TIP3    H110563   5.361   4.706   2.584
 3533TIP3    H210564   5.211   4.690   2.601
 3534TIP3   OH210565   5.745   4.150   1.797
 3534TIP3    H110566   5.797   4.092   1.741
 3534TIP3    H210567   5.742   4.105   1.881
 3535TIP3   OH210568   5.246   3.607   1.690
 3535TIP3    H110569   5.215   3.532   1.740
 3535TIP3    H210570   5.298   3.569   1.619
 3536TIP3   OH210571   5.714   4.049   2.065
 3536TIP3    H110572   5.625   4.078   2.087
 3536TIP3    H210573   5.771   4.104   2.119
 3537TIP3   OH210574   5.440   4.399   1.177
 3537TIP3    H110575   5.365   4.343   1.158
 3537TIP3    H210576   5.419   4.439   1.262
 3538TIP3   OH210577   6.335   4.661   1.788
 3538TIP3    H110578   6.369   4.709   1.712
 3538TIP3    H210579   6.255   4.620   1.756
 3539TIP3   OH210580   5.919   3.718   1.078
 3539TIP3    H110581   5.826   3.699   1.076
 3539TIP3    H210582   5.924   3.813   1.088
 3540TIP3   OH210583   5.856   4.746   2.180
 3540TIP3    H110584   5.898   4.733   2.265
 3540TIP3    H210585   5.814   4.832   2.186
 3541TIP3   OH210586   5.985   3.978   1.157
 3541TIP3    H110587   6.080   3.977   1.175
 3541TIP3    H210588   5.973   4.056   1.103
 3542TIP3   OH210589   5.148   4.434   1.832
 3542TIP3    H110590   5.185   4.412   1.747
 3542TIP3    H210591   5.210   4.397   1.895
 3543TIP3   OH210592   5.609   4.569   1.055
 3543TIP3    H110593   5.557   4.649   1.054
 3543TIP3    H210594   5.554   4.504   1.098
 3544TIP3   OH210595   5.035   4.380   2.465
 3544TIP3    H110596   5.078   4.372   2.550
 3544TIP3    H210597   4.987   4.298   2.455
 3545TIP3   OH210598   5.764   4.490   2.478
 3545TIP3    H110599   5.697   4.438   2.433
 3545TIP3    H210600   5.847   4.451   2.453
 3546TIP3   OH210601   6.005   5.024   2.071
 3546TIP3    H110602   5.910   5.012   2.078
 3546TIP3    H210603   6.030   5.066   2.153
 3547TIP3   OH210604   6.394   4.074   1.033
 3547TIP3    H110605   6.371   4.008   0.968
 3547TIP3    H210606   6.348   4.153   1.004
 3548TIP3   OH210607   6.636   4.955   2.037
 3548TIP3    H110608   6.542   4.938   2.033
 3548TIP3    H210609   6.671   4.919   1.956
 3549TIP3   OH210610   6.169   4.880   0.881
 3549TIP3    H110611   6.090   4.829   0.899
 3549TIP3    H210612   6.180   4.876   0.786
 3550TIP3   OH210613   6.104   4.531   1.688
 3550TIP3    H110614   6.014   4.507   1.710
 3550TIP3    H210615   6.141   4.451   1.650
 3551TIP3   OH210616   5.259   4.758   1.491
 3551TIP3    H110617   5.253   4.839   1.440
 3551TIP3    H210618   5.169   4.742   1.521
 3552TIP3   OH210619   4.828   4.052   1.212
 3552TIP3    H110620   4.870   4.135   1.231
 3552TIP3    H210621   4.747   4.053   1.263
 3553TIP3   OH210622   5.357   4.517   1.404
 3553TIP3    H110623   5.337   4.606   1.433
 3553TIP3    H210624   5.334   4.462   1.478
 3554TIP3   OH210625   5.541   5.090   1.946
 3554TIP3    H110626   5.579   5.162   1.896
 3554TIP3    H210627   5.614   5.053   1.994
 3555TIP3   OH210628   5.171   4.983   1.350
 3555TIP3    H110629   5.084   4.985   1.388
 3555TIP3    H210630   5.203   5.073   1.357
 3556TIP3   OH210631   5.903   4.742   1.909
 3556TIP3    H110632   5.892   4.738   2.004
 3556TIP3    H210633   5.974   4.681   1.890
 3557TIP3   OH210634   5.939   4.736   0.914
 3557TIP3    H110635   5.967   4.655   0.957
 3557TIP3    H210636   5.845   4.724   0.899
 3558TIP3   OH210637   6.155   5.252   1.958
 3558TIP3    H110638   6.082   5.191   1.966
 3558TIP3    H210639   6.131   5.309   1.885
 3559TIP3   OH210640   5.235   3.872   2.468
 3559TIP3    H110641   5.140   3.868   2.475
 3559TIP3    H210642   5.267   3.819   2.542
 3560TIP3   OH210643   6.041   4.505   0.998
 3560TIP3    H110644   6.034   4.455   1.079
 3560TIP3    H210645   6.135   4.524   0.990
 3561TIP3   OH210646   4.970   4.963   2.104
 3561TIP3    H110647   5.020   4.897   2.152
 3561TIP3    H210648   4.983   5.044   2.154
 3562TIP3   OH210649   5.215   4.599   0.849
 3562TIP3    H110650   5.244   4.510   0.828
 3562TIP3    H210651   5.210   4.600   0.944
 3563TIP3   OH210652   5.180   4.594   1.119
 3563TIP3    H110653   5.252   4.566   1.176
 3563TIP3    H210654   5.177   4.689   1.129
 3564TIP3   OH210655   4.921   4.304   1.280
 3564TIP3    H110656   4.855   4.348   1.334
 3564TIP3    H210657   4.941   4.366   1.210
 3565TIP3   OH210658   6.064   3.941   2.173
 3565TIP3    H110659   6.151   3.977   2.190
 3565TIP3    H210660   6.062   3.858   2.220
 3566TIP3   OH210661   5.973   3.677   1.344
 3566TIP3    H110662   5.957   3.697   1.252
 3566TIP3    H210663   6.014   3.757   1.379
 3567TIP3   OH210664   5.434   4.772   1.045
 3567TIP3    H110665   5.348   4.794   1.079
 3567TIP3    H210666   5.468   4.854   1.011
 3568TIP3   OH210667   5.625   3.880   1.429
 3568TIP3    H110668   5.692   3.944   1.405
 3568TIP3    H210669   5.636   3.867   1.523
 3569TIP3   OH210670   5.915   4.174   2.217
 3569TIP3    H110671   5.944   4.213   2.300
 3569TIP3    H210672   5.963   4.091   2.212
 3570TIP3   OH210673   5.799   3.568   1.524
 3570TIP3    H110674   5.823   3.615   1.605
 3570TIP3    H210675   5.860   3.602   1.458
 3571TIP3   OH210676   5.182   4.863   1.110
 3571TIP3    H110677   5.156   4.934   1.052
 3571TIP3    H210678   5.180   4.902   1.198
 3572TIP3   OH210679   5.306   3.591   1.325
 3572TIP3    H110680   5.294   3.678   1.363
 3572TIP3    H210681   5.400   3.574   1.334
 3573TIP3   OH210682   6.535   4.076   2.203
 3573TIP3    H110683   6.440   4.080   2.214
 3573TIP3    H210684   6.547   4.036   2.116
 3574TIP3   OH210685   6.191   4.282   1.592
 3574TIP3    H110686   6.119   4.220   1.604
 3574TIP3    H210687   6.262   4.245   1.645
 3575TIP3   OH210688   4.929   4.495   1.068
 3575TIP3    H110689   5.005   4.547   1.093
 3575TIP3    H210690   4.965   4.428   1.009
 3576TIP3   OH210691   4.854   3.774   1.198
 3576TIP3    H110692   4.870   3.867   1.210
 3576TIP3    H210693   4.777   3.770   1.142
 3577TIP3   OH210694   6.177   5.218   1.547
 3577TIP3    H110695   6.118   5.268   1.490
 3577TIP3    H210696   6.262   5.259   1.534
 3578TIP3   OH210697   5.248   3.498   2.069
 3578TIP3    H110698   5.227   3.461   1.983
 3578TIP3    H210699   5.245   3.423   2.128
 3579TIP3   OH210700   4.772   4.739   1.454
 3579TIP3    H110701   4.721   4.773   1.528
 3579TIP3    H210702   4.735   4.783   1.377
 3580TIP3   OH210703   4.965   5.281   2.527
 3580TIP3    H110704   5.048   5.284   2.575
 3580TIP3    H210705   4.947   5.188   2.517
 3581TIP3   OH210706   5.434   5.208   2.566
 3581TIP3    H110707   5.526   5.182   2.576
 3581TIP3    H210708   5.401   5.151   2.497
 3582TIP3   OH210709   5.432   4.782   0.733
 3582TIP3    H110710   5.411   4.701   0.779
 3582TIP3    H210711   5.502   4.758   0.672
 3583TIP3   OH210712   6.059   5.137   2.316
 3583TIP3    H110713   6.066   5.066   2.380
 3583TIP3    H210714   6.135   5.193   2.332
 3584TIP3   OH210715   5.890   4.979   0.638
 3584TIP3    H110716   5.956   4.911   0.649
 3584TIP3    H210717   5.930   5.043   0.580
 3585TIP3   OH210718   5.079   4.696   2.726
 3585TIP3    H110719   5.095   4.619   2.781
 3585TIP3    H210720   4.993   4.679   2.687
 3586TIP3   OH210721   5.051   4.290   0.939
 3586TIP3    H110722   5.096   4.256   1.017
 3586TIP3    H210723   5.122   4.311   0.878
 3587TIP3   OH210724   5.694   4.765   2.496
 3587TIP3    H110725   5.648   4.785   2.415
 3587TIP3    H210726   5.727   4.676   2.484
 3588TIP3   OH210727   5.505   4.522   0.802
 3588TIP3    H110728   5.566   4.541   0.874
 3588TIP3    H210729   5.465   4.438   0.826
 3589TIP3   OH210730   6.172   4.798   2.115
 3589TIP3    H110731   6.249   4.828   2.065
 3589TIP3    H210732   6.105   4.863   2.095
 3590TIP3   OH210733   5.167   4.363   2.707
 3590TIP3    H110734   5.217   4.284   2.724
 3590TIP3    H210735   5.190   4.422   2.779
 3591TIP3   OH210736   5.232   4.222   1.138
 3591TIP3    H110737   5.213   4.198   1.229
 3591TIP3    H210738   5.284   4.149   1.104
 3592TIP3   OH210739   5.528   4.290   2.371
 3592TIP3    H110740   5.454   4.351   2.381
 3592TIP3    H210741   5.576   4.324   2.296
 3593TIP3   OH210742   5.386   4.032   1.012
 3593TIP3    H110743   5.367   4.046   0.919
 3593TIP3    H210744   5.481   4.024   1.016
 3594TIP3   OH210745   6.056   4.686   2.482
 3594TIP3    H110746   6.123   4.646   2.426
 3594TIP3    H210747   6.051   4.629   2.558
 3595TIP3   OH210748   6.178   4.330   0.651
 3595TIP3    H110749   6.140   4.288   0.574
 3595TIP3    H210750   6.154   4.423   0.642
 3596TIP3   OH210751   5.664   4.082   2.485
 3596TIP3    H110752   5.664   4.006   2.428
 3596TIP3    H210753   5.618   4.150   2.435
 3597TIP3   OH210754   5.664   3.875   2.293
 3597TIP3    H110755   5.692   3.909   2.208
 3597TIP3    H210756   5.574   3.846   2.280
 3598TIP3   OH210757   5.677   4.409   2.179
 3598TIP3    H110758   5.765   4.421   2.145
 3598TIP3    H210759   5.623   4.469   2.128
 3599TIP3   OH210760   6.266   4.367   2.541
 3599TIP3    H110761   6.291   4.275   2.537
 3599TIP3    H210762   6.344   4.415   2.513
 3600TIP3   OH210763   6.293   4.629   2.288
 3600TIP3    H110764   6.239   4.689   2.236
 3600TIP3    H210765   6.382   4.644   2.255
 3601TIP3   OH210766   5.548   4.176   2.728
 3601TIP3    H110767   5.480   4.110   2.744
 3601TIP3    H210768   5.577   4.159   2.639
 3602TIP3   OH210769   5.790   3.641   2.383
 3602TIP3    H110770   5.747   3.720   2.353
 3602TIP3    H210771   5.726   3.571   2.369
 3603TIP3   OH210772   5.916   4.123   2.590
 3603TIP3    H110773   5.901   4.109   2.684
 3603TIP3    H210774   5.832   4.103   2.549
 3604TIP3   OH210775   6.167   4.094   2.466
 3604TIP3    H110776   6.086   4.084   2.517
 3604TIP3    H210777   6.234   4.054   2.521
 3605TIP3   OH210778   6.398   4.032   2.611
 3605TIP3    H110779   6.404   3.937   2.620
 3605TIP3    H210780   6.391   4.064   2.701
 3606TIP3   OH210781   5.386   3.962   2.781
 3606TIP3    H110782   5.367   3.874   2.749
 3606TIP3    H210783   5.404   3.951   2.874
 3607TIP3   OH210784   5.864   3.629   2.648
 3607TIP3    H110785   5.931   3.561   2.641
 3607TIP3    H210786   5.829   3.636   2.559
 3608TIP3   OH210787   5.949   3.843   2.795
 3608TIP3    H110788   5.922   3.772   2.738
 3608TIP3    H210789   5.876   3.905   2.793
 3609TIP3   OH210790   5.191   5.085   0.953
 3609TIP3    H110791   5.283   5.070   0.977
 3609TIP3    H210792   5.188   5.067   0.859
 3610TIP3   OH210793   4.660   4.468   1.098
 3610TIP3    H110794   4.754   4.480   1.093
 3610TIP3    H210795   4.645   4.381   1.063
 3611TIP3   OH210796   4.571   5.059   1.539
 3611TIP3    H110797   4.505   5.005   1.496
 3611TIP3    H210798   4.615   4.999   1.600
 3612TIP3   OH210799   4.713   4.897   1.711
 3612TIP3    H110800   4.702   4.830   1.778
 3612TIP3    H210801   4.762   4.967   1.754
 3613TIP3   OH210802   6.402   5.365   1.543
 3613TIP3    H110803   6.437   5.367   1.632
 3613TIP3    H210804   6.480   5.371   1.487
 3614TIP3   OH210805   6.467   5.332   1.808
 3614TIP3    H110806   6.422   5.248   1.801
 3614TIP3    H210807   6.540   5.315   1.867
 3615TIP3   OH210808   6.512   5.024   2.370
 3615TIP3    H110809   6.441   5.030   2.434
 3615TIP3    H210810   6.550   5.112   2.368
 3616TIP3   OH210811   6.308   4.513   0.982
 3616TIP3    H110812   6.350   4.595   0.954
 3616TIP3    H210813   6.351   4.492   1.065
 3617TIP3   OH210814   6.443   4.411   1.191
 3617TIP3    H110815   6.386   4.361   1.249
 3617TIP3    H210816   6.508   4.451   1.249
 3618TIP3   OH210817   6.513   4.793   1.621
 3618TIP3    H110818   6.558   4.721   1.576
 3618TIP3    H210819   6.523   4.868   1.563
 3619TIP3   OH210820   6.329   5.089   1.811
 3619TIP3    H110821   6.261   5.135   1.860
 3619TIP3    H210822   6.283   5.047   1.739
 3620TIP3   OH210823   6.230   4.261   0.907
 3620TIP3    H110824   6.234   4.279   0.813
 3620TIP3    H210825   6.241   4.347   0.948
 3621TIP3   OH210826   6.286   3.911   0.852
 3621TIP3    H110827   6.220   3.966   0.811
 3621TIP3    H210828   6.268   3.823   0.819
 3622TIP3   OH210829   6.271   4.249   1.332
 3622TIP3    H110830   6.280   4.154   1.326
 3622TIP3    H210831   6.251   4.265   1.424
 3623TIP3   OH210832   4.891   4.326   2.088
 3623TIP3    H110833   4.883   4.291   1.999
 3623TIP3    H210834   4.986   4.325   2.106
 3624TIP3   OH210835   6.544   4.685   2.185
 3624TIP3    H110836   6.616   4.624   2.168
 3624TIP3    H210837   6.548   4.746   2.110
 3625TIP3   OH210838   6.730   4.484   2.194
 3625TIP3    H110839   6.647   4.445   2.224
 3625TIP3    H210840   6.796   4.419   2.219
 3626TIP3   OH210841   6.183   3.684   0.731
 3626TIP3    H110842   6.251   3.651   0.790
 3626TIP3    H210843   6.102   3.644   0.764
 3627TIP3   OH210844   6.266   3.964   1.243
 3627TIP3    H110845   6.314   3.882   1.259
 3627TIP3    H210846   6.313   4.005   1.171
 3628TIP3   OH210847   6.408   4.188   1.728
 3628TIP3    H110848   6.495   4.202   1.690
 3628TIP3    H210849   6.420   4.205   1.821
 3629TIP3   OH210850   6.484   4.315   1.967
 3629TIP3    H110851   6.404   4.345   2.010
 3629TIP3    H210852   6.514   4.391   1.917
 3630TIP3   OH210853   6.904   3.866   2.531
 3630TIP3    H110854   6.952   3.784   2.517
 3630TIP3    H210855   6.892   3.903   2.443
 3631TIP3   OH210856   6.392   3.723   1.301
 3631TIP3    H110857   6.411   3.719   1.395
 3631TIP3    H210858   6.332   3.650   1.286
 3632TIP3   OH210859   5.075   3.714   2.087
 3632TIP3    H110860   5.128   3.635   2.091
 3632TIP3    H210861   5.139   3.784   2.072
 3633TIP3   OH210862   4.862   3.986   2.146
 3633TIP3    H110863   4.914   3.971   2.067
 3633TIP3    H210864   4.889   4.072   2.177
 3634TIP3   OH210865   6.779   3.991   2.301
 3634TIP3    H110866   6.697   4.038   2.313
 3634TIP3    H210867   6.755   3.913   2.251
 3635TIP3   OH210868   6.412   3.650   0.892
 3635TIP3    H110869   6.464   3.588   0.840
 3635TIP3    H210870   6.477   3.699   0.942
 3636TIP3   OH210871   4.854   3.496   1.657
 3636TIP3    H110872   4.765   3.483   1.690
 3636TIP3    H210873   4.843   3.547   1.577
 3637TIP3   OH210874   6.106   5.144   1.202
 3637TIP3    H110875   6.139   5.138   1.113
 3637TIP3    H210876   6.114   5.237   1.224
 3638TIP3   OH210877   5.085   3.563   2.478
 3638TIP3    H110878   5.039   3.561   2.562
 3638TIP3    H210879   5.021   3.601   2.417
 3639TIP3   OH210880   5.105   5.002   2.540
 3639TIP3    H110881   5.013   4.980   2.530
 3639TIP3    H210882   5.128   4.976   2.629
 3640TIP3   OH210883   5.312   5.044   2.093
 3640TIP3    H110884   5.259   5.117   2.060
 3640TIP3    H210885   5.396   5.054   2.050
 3641TIP3   OH210886   5.726   5.279   2.229
 3641TIP3    H110887   5.763   5.271   2.317
 3641TIP3    H210888   5.791   5.329   2.180
 3642TIP3   OH210889   5.914   5.433   2.097
 3642TIP3    H110890   5.974   5.378   2.047
 3642TIP3    H210891   5.970   5.485   2.154
 3643TIP3   OH210892   6.679   3.763   2.191
 3643TIP3    H110893   6.590   3.767   2.156
 3643TIP3    H210894   6.705   3.671   2.180
 3644TIP3   OH210895   4.976   5.294   2.135
 3644TIP3    H110896   4.885   5.312   2.112
 3644TIP3    H210897   4.996   5.356   2.206
 3645TIP3   OH210898   5.206   5.276   1.985
 3645TIP3    H110899   5.123   5.282   2.033
 3645TIP3    H210900   5.184   5.303   1.896
 3646TIP3   OH210901   5.628   5.298   1.781
 3646TIP3    H110902   5.558   5.305   1.716
 3646TIP3    H210903   5.637   5.386   1.817
 3647TIP3   OH210904   5.892   5.233   1.835
 3647TIP3    H110905   5.801   5.252   1.812
 3647TIP3    H210906   5.943   5.297   1.786
 3648TIP3   OH210907   6.091   5.406   1.737
 3648TIP3    H110908   6.086   5.493   1.698
 3648TIP3    H210909   6.121   5.350   1.666
 3649TIP3   OH210910   4.888   5.072   1.859
 3649TIP3    H110911   4.910   5.043   1.948
 3649TIP3    H210912   4.959   5.039   1.805
 3650TIP3   OH210913   5.089   4.954   1.720
 3650TIP3    H110914   5.100   4.872   1.767
 3650TIP3    H210915   5.176   4.995   1.722
 3651TIP3   OH210916   5.358   5.042   1.738
 3651TIP3    H110917   5.377   4.949   1.724
 3651TIP3    H210918   5.409   5.066   1.816
 3652TIP3   OH210919   5.864   3.670   1.774
 3652TIP3    H110920   5.841   3.615   1.850
 3652TIP3    H210921   5.957   3.653   1.759
 3653TIP3   OH210922   5.170   3.380   1.830
 3653TIP3    H110923   5.081   3.345   1.833
 3653TIP3    H210924   5.226   3.306   1.849
 3654TIP3   OH210925   4.922   3.290   1.450
 3654TIP3    H110926   4.977   3.336   1.387
 3654TIP3    H210927   4.921   3.346   1.528
 3655TIP3   OH210928   5.618   3.447   1.708
 3655TIP3    H110929   5.674   3.489   1.644
 3655TIP3    H210930   5.658   3.469   1.793
 3656TIP3   OH210931   6.122   3.610   1.725
 3656TIP3    H110932   6.205   3.631   1.683
 3656TIP3    H210933   6.134   3.521   1.758
 3657TIP3   OH210934   6.194   3.525   1.270
 3657TIP3    H110935   6.116   3.573   1.295
 3657TIP3    H210936   6.184   3.439   1.311
 3658TIP3   OH210937   4.670   4.861   1.226
 3658TIP3    H110938   4.580   4.833   1.209
 3658TIP3    H210939   4.670   4.955   1.206
 3659TIP3   OH210940   5.085   3.431   1.242
 3659TIP3    H110941   5.131   3.368   1.187
 3659TIP3    H210942   5.155   3.485   1.280
 3660TIP3   OH210943   5.584   3.622   1.346
 3660TIP3    H110944   5.644   3.574   1.404
 3660TIP3    H210945   5.596   3.714   1.370
 3661TIP3   OH210946   5.447   5.006   0.912
 3661TIP3    H110947   5.528   5.038   0.872
 3661TIP3    H210948   5.404   4.957   0.843
 3662TIP3   OH210949   6.139   5.161   0.918
 3662TIP3    H110950   6.176   5.073   0.908
 3662TIP3    H210951   6.082   5.171   0.842
 3663TIP3   OH210952   5.372   3.683   2.710
 3663TIP3    H110953   5.332   3.618   2.768
 3663TIP3    H210954   5.463   3.689   2.739
 3664TIP3   OH210955   5.621   3.685   2.837
 3664TIP3    H110956   5.700   3.663   2.786
 3664TIP3    H210957   5.615   3.614   2.901
 3665TIP3   OH210958   4.746   4.811   0.957
 3665TIP3    H110959   4.737   4.817   1.052
 3665TIP3    H210960   4.840   4.797   0.944
 3666TIP3   OH210961   6.438   3.760   2.630
 3666TIP3    H110962   6.460   3.733   2.719
 3666TIP3    H210963   6.520   3.751   2.581
 3667TIP3   OH210964   6.378   5.301   2.121
 3667TIP3    H110965   6.303   5.271   2.070
 3667TIP3    H210966   6.366   5.396   2.128
 3668TIP3   OH210967   6.937   4.613   1.636
 3668TIP3    H110968   6.971   4.524   1.646
 3668TIP3    H210969   6.986   4.665   1.700
 3669TIP3   OH210970   6.875   4.967   1.407
 3669TIP3    H110971   6.878   4.876   1.377
 3669TIP3    H210972   6.956   4.979   1.456
 3670TIP3   OH210973   6.622   4.208   1.111
 3670TIP3    H110974   6.575   4.290   1.129
 3670TIP3    H210975   6.553   4.145   1.090
 3671TIP3   OH210976   6.668   4.500   1.317
 3671TIP3    H110977   6.719   4.420   1.329
 3671TIP3    H210978   6.725   4.557   1.266
 3672TIP3   OH210979   6.789   4.267   1.382
 3672TIP3    H110980   6.871   4.240   1.424
 3672TIP3    H210981   6.775   4.202   1.313
 3673TIP3   OH210982   7.097   4.071   1.738
 3673TIP3    H110983   7.051   4.118   1.669
 3673TIP3    H210984   7.038   4.074   1.813
 3674TIP3   OH210985   7.021   4.179   1.495
 3674TIP3    H110986   7.050   4.270   1.495
 3674TIP3    H210987   7.083   4.134   1.437
 3675TIP3   OH210988   7.093   5.019   1.568
 3675TIP3    H110989   7.102   5.114   1.561
 3675TIP3    H210990   7.045   5.006   1.650
 3676TIP3   OH210991   6.471   4.697   0.875
 3676TIP3    H110992   6.484   4.682   0.782
 3676TIP3    H210993   6.522   4.775   0.895
 3677TIP3   OH210994   7.031   4.564   1.167
 3677TIP3    H110995   6.988   4.590   1.086
 3677TIP3    H210996   7.109   4.619   1.172
 3678TIP3   OH210997   7.072   4.677   1.876
 3678TIP3    H110998   7.110   4.762   1.896
 3678TIP3    H210999   6.989   4.676   1.924
 3679TIP3   OH211000   7.094   5.332   1.854
 3679TIP3    H111001   7.064   5.298   1.770
 3679TIP3    H211002   7.023   5.309   1.915
 3680TIP3   OH211003   6.902   4.436   0.745
 3680TIP3    H111004   6.955   4.510   0.777
 3680TIP3    H211005   6.919   4.365   0.807
 3681TIP3   OH211006   6.720   4.835   1.807
 3681TIP3    H111007   6.648   4.822   1.746
 3681TIP3    H211008   6.747   4.746   1.832
 3682TIP3   OH211009   6.612   5.016   1.489
 3682TIP3    H111010   6.695   4.990   1.450
 3682TIP3    H211011   6.636   5.083   1.554
 3683TIP3   OH211012   6.686   5.158   1.047
 3683TIP3    H111013   6.730   5.155   1.132
 3683TIP3    H211014   6.686   5.067   1.017
 3684TIP3   OH211015   6.918   5.023   1.783
 3684TIP3    H111016   6.964   5.016   1.867
 3684TIP3    H211017   6.850   4.957   1.787
 3685TIP3   OH211018   7.126   4.428   1.503
 3685TIP3    H111019   7.150   4.436   1.595
 3685TIP3    H211020   7.206   4.449   1.455
 3686TIP3   OH211021   7.092   4.158   1.159
 3686TIP3    H111022   7.010   4.112   1.179
 3686TIP3    H211023   7.068   4.223   1.093
 3687TIP3   OH211024   7.083   4.415   1.790
 3687TIP3    H111025   7.084   4.503   1.826
 3687TIP3    H211026   7.111   4.359   1.863
 3688TIP3   OH211027   6.680   3.907   1.342
 3688TIP3    H111028   6.700   3.947   1.427
 3688TIP3    H211029   6.668   3.814   1.361
 3689TIP3   OH211030   6.643   3.905   0.901
 3689TIP3    H111031   6.665   3.936   0.813
 3689TIP3    H211032   6.561   3.949   0.922
 3690TIP3   OH211033   6.840   4.066   1.190
 3690TIP3    H111034   6.772   4.111   1.140
 3690TIP3    H211035   6.794   3.994   1.234
 3691TIP3   OH211036   6.969   4.106   0.578
 3691TIP3    H111037   6.905   4.054   0.627
 3691TIP3    H211038   7.052   4.064   0.596
 3692TIP3   OH211039   7.040   4.964   2.022
 3692TIP3    H111040   7.107   4.974   2.090
 3692TIP3    H211041   6.969   4.917   2.065
 3693TIP3   OH211042   6.914   4.699   1.373
 3693TIP3    H111043   6.959   4.644   1.309
 3693TIP3    H211044   6.940   4.663   1.458
 3694TIP3   OH211045   6.812   4.606   1.959
 3694TIP3    H111046   6.801   4.581   2.051
 3694TIP3    H211047   6.740   4.563   1.914
 3695TIP3   OH211048   6.690   4.265   0.672
 3695TIP3    H111049   6.746   4.331   0.714
 3695TIP3    H211050   6.609   4.312   0.653
 3696TIP3   OH211051   6.969   4.084   1.976
 3696TIP3    H111052   6.879   4.116   1.982
 3696TIP3    H211053   6.965   3.996   2.014
 3697TIP3   OH211054   6.756   5.209   1.653
 3697TIP3    H111055   6.815   5.142   1.688
 3697TIP3    H211056   6.789   5.291   1.689
 3698TIP3   OH211057   6.735   4.694   0.744
 3698TIP3    H111058   6.728   4.640   0.822
 3698TIP3    H211059   6.733   4.632   0.671
 3699TIP3   OH211060   6.723   3.997   0.649
 3699TIP3    H111061   6.714   4.092   0.642
 3699TIP3    H211062   6.649   3.962   0.600
 3700TIP3   OH211063   6.891   3.762   1.603
 3700TIP3    H111064   6.893   3.754   1.508
 3700TIP3    H211065   6.931   3.681   1.635
 3701TIP3   OH211066   6.573   4.940   0.923
 3701TIP3    H111067   6.499   4.961   0.980
 3701TIP3    H211068   6.549   4.975   0.838
 3702TIP3   OH211069   6.748   5.518   2.024
 3702TIP3    H111070   6.832   5.515   2.071
 3702TIP3    H211071   6.722   5.427   2.016
 3703TIP3   OH211072   6.831   4.962   2.229
 3703TIP3    H111073   6.866   4.873   2.229
 3703TIP3    H211074   6.752   4.957   2.175
 3704TIP3   OH211075   6.982   4.736   2.195
 3704TIP3    H111076   7.020   4.651   2.173
 3704TIP3    H211077   7.007   4.751   2.286
 3705TIP3   OH211078   7.370   4.459   2.118
 3705TIP3    H111079   7.286   4.415   2.131
 3705TIP3    H211080   7.433   4.387   2.111
 3706TIP3   OH211081   7.176   4.249   2.235
 3706TIP3    H111082   7.202   4.222   2.147
 3706TIP3    H211083   7.144   4.169   2.276
 3707TIP3   OH211084   6.340   5.333   0.989
 3707TIP3    H111085   6.261   5.301   0.947
 3707TIP3    H211086   6.380   5.254   1.028
 3708TIP3   OH211087   6.474   5.176   1.312
 3708TIP3    H111088   6.478   5.103   1.373
 3708TIP3    H211089   6.546   5.233   1.337
 3709TIP3   OH211090   6.674   4.568   1.577
 3709TIP3    H111091   6.663   4.546   1.485
 3709TIP3    H211092   6.766   4.594   1.585
 3710TIP3   OH211093   6.873   4.264   2.257
 3710TIP3    H111094   6.964   4.245   2.276
 3710TIP3    H211095   6.823   4.197   2.303
 3711TIP3   OH211096   6.804   4.013   1.572
 3711TIP3    H111097   6.834   3.925   1.592
 3711TIP3    H211098   6.882   4.059   1.542
 3712TIP3   OH211099   6.663   4.259   1.655
 3712TIP3    H111100   6.700   4.205   1.585
 3712TIP3    H211101   6.686   4.349   1.631
 3713TIP3   OH211102   6.596   3.709   1.105
 3713TIP3    H111103   6.539   3.715   1.182
 3713TIP3    H211104   6.634   3.796   1.096
 3714TIP3   OH211105   6.834   3.808   1.963
 3714TIP3    H111106   6.777   3.794   2.039
 3714TIP3    H211107   6.781   3.860   1.903
 3715TIP3   OH211108   6.903   5.261   2.042
 3715TIP3    H111109   6.810   5.243   2.033
 3715TIP3    H211110   6.932   5.203   2.113
 3716TIP3   OH211111   7.084   5.298   1.565
 3716TIP3    H111112   7.028   5.358   1.515
 3716TIP3    H211113   7.165   5.347   1.579
 3717TIP3   OH211114   6.773   5.528   1.641
 3717TIP3    H111115   6.686   5.556   1.613
 3717TIP3    H211116   6.799   5.592   1.708
 3718TIP3   OH211117   6.948   5.518   1.431
 3718TIP3    H111118   6.895   5.518   1.511
 3718TIP3    H211119   6.905   5.581   1.374
 3719TIP3   OH211120   6.660   5.343   1.434
 3719TIP3    H111121   6.675   5.322   1.526
 3719TIP3    H211122   6.738   5.313   1.388
 3720TIP3   OH211123   6.853   5.216   1.304
 3720TIP3    H111124   6.853   5.131   1.347
 3720TIP3    H211125   6.935   5.219   1.256
 3721TIP3   OH211126   6.929   3.710   1.343
 3721TIP3    H111127   6.873   3.635   1.322
 3721TIP3    H211128   7.003   3.702   1.284
 3722TIP3   OH211129   6.727   3.518   0.957
 3722TIP3    H111130   6.729   3.567   0.875
 3722TIP3    H211131   6.687   3.578   1.020
 3723TIP3   OH211132   6.385   5.072   0.731
 3723TIP3    H111133   6.419   5.026   0.653
 3723TIP3    H211134   6.454   5.134   0.753
 3724TIP3   OH211135   6.818   3.706   0.747
 3724TIP3    H111136   6.900   3.672   0.782
 3724TIP3    H211137   6.792   3.776   0.808
 3725TIP3   OH211138   7.163   3.893   2.086
 3725TIP3    H111139   7.164   3.844   2.167
 3725TIP3    H211140   7.241   3.949   2.091
 3726TIP3   OH211141   0.131   5.432   2.598
 3726TIP3    H111142   0.108   5.510   2.650
 3726TIP3    H211143   0.049   5.406   2.557
 3727TIP3   OH211144   0.170   5.522   2.956
 3727TIP3    H111145   0.205   5.499   3.042
 3727TIP3    H211146   0.136   5.440   2.921
 3728TIP3   OH211147   0.366   5.763   2.639
 3728TIP3    H111148   0.382   5.695   2.704
 3728TIP3    H211149   0.394   5.844   2.682
 3729TIP3   OH211150   0.934   5.011   2.997
 3729TIP3    H111151   0.958   5.093   3.041
 3729TIP3    H211152   0.952   5.027   2.905
 3730TIP3   OH211153   0.364   5.199   3.030
 3730TIP3    H111154   0.391   5.107   3.032
 3730TIP3    H211155   0.278   5.198   2.988
 3731TIP3   OH211156   0.395   4.949   2.604
 3731TIP3    H111157   0.456   4.936   2.677
 3731TIP3    H211158   0.450   4.975   2.530
 3732TIP3   OH211159   1.005   5.224   3.167
 3732TIP3    H111160   0.917   5.261   3.157
 3732TIP3    H211161   1.035   5.257   3.252
 3733TIP3   OH211162   0.557   4.956   2.818
 3733TIP3    H111163   0.521   4.931   2.903
 3733TIP3    H211164   0.611   5.033   2.837
 3734TIP3   OH211165   0.391   6.006   2.793
 3734TIP3    H111166   0.297   5.989   2.789
 3734TIP3    H211167   0.401   6.094   2.757
 3735TIP3   OH211168   0.733   4.906   3.165
 3735TIP3    H111169   0.648   4.924   3.126
 3735TIP3    H211170   0.796   4.934   3.098
 3736TIP3   OH211171   0.065   4.506   3.074
 3736TIP3    H111172   0.088   4.424   3.030
 3736TIP3    H211173   0.027   4.478   3.157
 3737TIP3   OH211174   0.184   6.062   2.517
 3737TIP3    H111175   0.198   5.977   2.476
 3737TIP3    H211176   0.200   6.125   2.447
 3738TIP3   OH211177   0.259   5.823   2.392
 3738TIP3    H111178   0.278   5.753   2.330
 3738TIP3    H211179   0.299   5.794   2.474
 3739TIP3   OH211180   0.649   5.919   3.150
 3739TIP3    H111181   0.633   5.840   3.097
 3739TIP3    H211182   0.627   5.992   3.092
 3740TIP3   OH211183   7.358   5.347   2.381
 3740TIP3    H111184   7.322   5.434   2.364
 3740TIP3    H211185   7.422   5.334   2.311
 3741TIP3   OH211186   0.011   5.104   2.078
 3741TIP3    H111187   0.074   5.164   2.119
 3741TIP3    H211188   0.064   5.055   2.014
 3742TIP3   OH211189   0.841   5.564   2.994
 3742TIP3    H111190   0.758   5.611   3.001
 3742TIP3    H211191   0.871   5.582   2.905
 3743TIP3   OH211192   0.316   5.420   2.396
 3743TIP3    H111193   0.261   5.429   2.474
 3743TIP3    H211194   0.399   5.385   2.429
 3744TIP3   OH211195   0.564   5.464   3.295
 3744TIP3    H111196   0.551   5.537   3.357
 3744TIP3    H211197   0.482   5.459   3.246
 3745TIP3   OH211198   0.173   5.282   2.211
 3745TIP3    H111199   0.230   5.338   2.264
 3745TIP3    H211200   0.194   5.306   2.121
 3746TIP3   OH211201   0.660   4.513   2.271
 3746TIP3    H111202   0.571   4.531   2.300
 3746TIP3    H211203   0.667   4.556   2.186
 3747TIP3   OH211204   0.450   5.845   1.809
 3747TIP3    H111205   0.453   5.937   1.784
 3747TIP3    H211206   0.538   5.812   1.788
 3748TIP3   OH211207   0.889   6.270   3.209
 3748TIP3    H111208   0.892   6.175   3.219
 3748TIP3    H211209   0.804   6.295   3.247
 3749TIP3   OH211210   0.768   5.392   3.483
 3749TIP3    H111211   0.695   5.401   3.421
 3749TIP3    H211212   0.789   5.299   3.482
 3750TIP3   OH211213   0.348   4.741   3.480
 3750TIP3    H111214   0.426   4.708   3.525
 3750TIP3    H211215   0.285   4.758   3.550
 3751TIP3   OH211216   0.542   5.193   3.428
 3751TIP3    H111217   0.498   5.163   3.508
 3751TIP3    H211218   0.477   5.246   3.383
 3752TIP3   OH211219   0.226   5.292   1.946
 3752TIP3    H111220   0.213   5.226   1.878
 3752TIP3    H211221   0.295   5.349   1.911
 3753TIP3   OH211222   7.313   4.718   2.199
 3753TIP3    H111223   7.284   4.684   2.285
 3753TIP3    H211224   7.312   4.641   2.142
 3754TIP3   OH211225   0.072   5.118   2.514
 3754TIP3    H111226   0.025   5.193   2.477
 3754TIP3    H211227   0.134   5.092   2.445
 3755TIP3   OH211228   0.329   5.367   3.617
 3755TIP3    H111229   0.312   5.319   3.699
 3755TIP3    H211230   0.418   5.400   3.627
 3756TIP3   OH211231   0.242   5.128   2.737
 3756TIP3    H111232   0.181   5.159   2.670
 3756TIP3    H211233   0.298   5.065   2.691
 3757TIP3   OH211234   0.317   5.427   3.172
 3757TIP3    H111235   0.341   5.347   3.126
 3757TIP3    H211236   0.267   5.398   3.248
 3758TIP3   OH211237   0.446   4.926   3.066
 3758TIP3    H111238   0.442   4.949   3.159
 3758TIP3    H211239   0.385   4.853   3.057
 3759TIP3   OH211240   0.577   6.642   3.320
 3759TIP3    H111241   0.572   6.627   3.225
 3759TIP3    H211242   0.668   6.667   3.335
 3760TIP3   OH211243   0.095   5.264   2.938
 3760TIP3    H111244   0.089   5.200   2.867
 3760TIP3    H211245   0.043   5.227   3.009
 3761TIP3   OH211246   0.611   5.714   2.972
 3761TIP3    H111247   0.647   5.765   2.900
 3761TIP3    H211248   0.535   5.670   2.935
 3762TIP3   OH211249   0.174   4.813   2.165
 3762TIP3    H111250   0.085   4.789   2.191
 3762TIP3    H211251   0.193   4.892   2.216
 3763TIP3   OH211252   0.249   5.035   2.314
 3763TIP3    H111253   0.343   5.034   2.335
 3763TIP3    H211254   0.235   5.119   2.270
 3764TIP3   OH211255   0.667   5.112   2.153
 3764TIP3    H111256   0.621   5.060   2.088
 3764TIP3    H211257   0.668   5.201   2.117
 3765TIP3   OH211258   0.898   5.993   3.227
 3765TIP3    H111259   0.804   5.979   3.227
 3765TIP3    H211260   0.928   5.960   3.142
 3766TIP3   OH211261   0.384   5.919   2.069
 3766TIP3    H111262   0.351   5.848   2.125
 3766TIP3    H211263   0.399   5.877   1.984
 3767TIP3   OH211264   0.412   5.577   2.839
 3767TIP3    H111265   0.325   5.563   2.878
 3767TIP3    H211266   0.439   5.490   2.811
 3768TIP3   OH211267   0.269   5.789   3.116
 3768TIP3    H111268   0.178   5.812   3.136
 3768TIP3    H211269   0.264   5.701   3.079
 3769TIP3   OH211270   0.159   5.628   1.979
 3769TIP3    H111271   0.214   5.625   2.057
 3769TIP3    H211272   0.075   5.592   2.007
 3770TIP3   OH211273   0.409   6.287   3.134
 3770TIP3    H111274   0.343   6.272   3.202
 3770TIP3    H211275   0.370   6.354   3.078
 3771TIP3   OH211276   0.474   6.121   1.764
 3771TIP3    H111277   0.455   6.140   1.672
 3771TIP3    H211278   0.428   6.189   1.813
 3772TIP3   OH211279   0.323   5.618   2.207
 3772TIP3    H111280   0.315   5.551   2.275
 3772TIP3    H211281   0.413   5.612   2.177
 3773TIP3   OH211282   0.420   4.961   3.328
 3773TIP3    H111283   0.449   5.043   3.368
 3773TIP3    H211284   0.414   4.899   3.401
 3774TIP3   OH211285   0.236   4.763   2.487
 3774TIP3    H111286   0.233   4.794   2.397
 3774TIP3    H211287   0.289   4.828   2.534
 3775TIP3   OH211288   7.341   4.872   2.479
 3775TIP3    H111289   7.413   4.931   2.499
 3775TIP3    H211290   7.263   4.927   2.481
 3776TIP3   OH211291   0.272   5.237   3.383
 3776TIP3    H111292   0.273   5.291   3.462
 3776TIP3    H211293   0.197   5.179   3.395
 3777TIP3   OH211294   0.074   4.592   2.616
 3777TIP3    H111295   0.092   4.625   2.705
 3777TIP3    H211296   0.124   4.650   2.559
 3778TIP3   OH211297   0.798   5.119   3.385
 3778TIP3    H111298   0.705   5.139   3.400
 3778TIP3    H211299   0.797   5.063   3.307
 3779TIP3   OH211300   0.466   5.313   2.769
 3779TIP3    H111301   0.386   5.262   2.785
 3779TIP3    H211302   0.531   5.273   2.827
 3780TIP3   OH211303   0.429   6.272   2.737
 3780TIP3    H111304   0.378   6.320   2.672
 3780TIP3    H211305   0.520   6.287   2.712
 3781TIP3   OH211306   0.325   6.220   3.421
 3781TIP3    H111307   0.326   6.126   3.442
 3781TIP3    H211308   0.385   6.259   3.485
 3782TIP3   OH211309   0.438   5.855   3.318
 3782TIP3    H111310   0.517   5.893   3.278
 3782TIP3    H211311   0.382   5.834   3.244
 3783TIP3   OH211312   0.341   5.720   3.644
 3783TIP3    H111313   0.409   5.693   3.582
 3783TIP3    H211314   0.350   5.659   3.718
 3784TIP3   OH211315   0.588   5.407   3.703
 3784TIP3    H111316   0.613   5.334   3.760
 3784TIP3    H211317   0.656   5.410   3.636
 3785TIP3   OH211318   0.571   5.681   3.479
 3785TIP3    H111319   0.521   5.746   3.429
 3785TIP3    H211320   0.660   5.689   3.444
 3786TIP3   OH211321   0.430   5.055   3.638
 3786TIP3    H111322   0.374   5.090   3.708
 3786TIP3    H211323   0.518   5.055   3.676
 3787TIP3   OH211324   0.669   5.070   3.773
 3787TIP3    H111325   0.676   4.979   3.802
 3787TIP3    H211326   0.645   5.119   3.852
 3788TIP3   OH211327   0.197   4.700   3.746
 3788TIP3    H111328   0.261   4.631   3.732
 3788TIP3    H211329   0.114   4.654   3.757
 3789TIP3   OH211330   0.140   4.920   3.980
 3789TIP3    H111331   0.175   4.842   3.936
 3789TIP3    H211332   0.198   4.991   3.954
 3790TIP3   OH211333   0.687   6.349   2.676
 3790TIP3    H111334   0.710   6.368   2.767
 3790TIP3    H211335   0.770   6.356   2.629
 3791TIP3   OH211336   0.738   6.342   2.956
 3791TIP3    H111337   0.689   6.260   2.962
 3791TIP3    H211338   0.816   6.327   3.011
 3792TIP3   OH211339   0.751   6.065   3.538
 3792TIP3    H111340   0.689   6.072   3.610
 3792TIP3    H211341   0.803   6.146   3.542
 3793TIP3   OH211342   0.589   5.583   2.154
 3793TIP3    H111343   0.650   5.650   2.123
 3793TIP3    H211344   0.635   5.541   2.227
 3794TIP3   OH211345   0.717   5.448   2.357
 3794TIP3    H111346   0.656   5.402   2.416
 3794TIP3    H211347   0.782   5.486   2.416
 3795TIP3   OH211348   0.767   5.843   2.790
 3795TIP3    H111349   0.819   5.773   2.751
 3795TIP3    H211350   0.768   5.913   2.724
 3796TIP3   OH211351   0.571   6.121   2.983
 3796TIP3    H111352   0.507   6.173   3.031
 3796TIP3    H211353   0.520   6.076   2.916
 3797TIP3   OH211354   0.645   5.349   2.017
 3797TIP3    H111355   0.591   5.335   1.939
 3797TIP3    H211356   0.611   5.429   2.056
 3798TIP3   OH211357   0.505   5.026   1.941
 3798TIP3    H111358   0.507   5.112   1.899
 3798TIP3    H211359   0.465   4.968   1.876
 3799TIP3   OH211360   0.536   5.297   2.505
 3799TIP3    H111361   0.544   5.202   2.491
 3799TIP3    H211362   0.519   5.306   2.599
 3800TIP3   OH211363   0.816   5.725   3.360
 3800TIP3    H111364   0.878   5.654   3.344
 3800TIP3    H211365   0.825   5.783   3.285
 3801TIP3   OH211366   0.982   5.509   3.356
 3801TIP3    H111367   0.908   5.468   3.401
 3801TIP3    H211368   1.056   5.453   3.376
 3802TIP3   OH211369   0.469   4.709   1.941
 3802TIP3    H111370   0.558   4.694   1.971
 3802TIP3    H211371   0.433   4.772   2.003
 3803TIP3   OH211372   0.526   5.027   2.375
 3803TIP3    H111373   0.566   4.941   2.387
 3803TIP3    H211374   0.574   5.066   2.302
 3804TIP3   OH211375   0.676   5.190   2.904
 3804TIP3    H111376   0.759   5.213   2.862
 3804TIP3    H211377   0.683   5.225   2.992
 3805TIP3   OH211378   0.753   5.339   3.129
 3805TIP3    H111379   0.685   5.373   3.188
 3805TIP3    H211380   0.784   5.416   3.082
 3806TIP3   OH211381   1.198   4.941   3.674
 3806TIP3    H111382   1.259   4.881   3.632
 3806TIP3    H211383   1.161   4.992   3.601
 3807TIP3   OH211384   0.619   4.777   2.432
 3807TIP3    H111385   0.667   4.762   2.514
 3807TIP3    H211386   0.560   4.702   2.425
 3808TIP3   OH211387   1.054   5.058   3.474
 3808TIP3    H111388   0.968   5.099   3.485
 3808TIP3    H211389   1.036   4.980   3.421
 3809TIP3   OH211390   0.718   4.653   2.029
 3809TIP3    H111391   0.730   4.563   1.998
 3809TIP3    H211392   0.799   4.697   2.004
 3810TIP3   OH211393   0.285   6.251   2.333
 3810TIP3    H111394   0.309   6.219   2.247
 3810TIP3    H211395   0.368   6.262   2.379
 3811TIP3   OH211396   0.964   4.816   3.368
 3811TIP3    H111397   0.877   4.806   3.329
 3811TIP3    H211398   1.003   4.728   3.361
 3812TIP3   OH211399   0.349   6.469   2.911
 3812TIP3    H111400   0.257   6.485   2.889
 3812TIP3    H211401   0.373   6.393   2.857
 3813TIP3   OH211402   0.263   4.714   3.090
 3813TIP3    H111403   0.182   4.663   3.082
 3813TIP3    H211404   0.316   4.687   3.014
 3814TIP3   OH211405   0.700   4.626   2.873
 3814TIP3    H111406   0.730   4.681   2.802
 3814TIP3    H211407   0.606   4.646   2.881
 3815TIP3   OH211408   0.789   4.737   2.643
 3815TIP3    H111409   0.859   4.678   2.617
 3815TIP3    H211410   0.825   4.825   2.630
 3816TIP3   OH211411   7.223   4.403   2.921
 3816TIP3    H111412   7.186   4.396   2.832
 3816TIP3    H211413   7.156   4.451   2.970
 3817TIP3   OH211414   0.428   4.623   2.893
 3817TIP3    H111415   0.365   4.628   2.821
 3817TIP3    H211416   0.417   4.535   2.929
 3818TIP3   OH211417   0.434   4.568   2.420
 3818TIP3    H111418   0.346   4.606   2.427
 3818TIP3    H211419   0.426   4.482   2.460
 3819TIP3   OH211420   7.265   4.617   2.448
 3819TIP3    H111421   7.308   4.575   2.523
 3819TIP3    H211422   7.276   4.711   2.463
 3820TIP3   OH211423   0.364   6.187   2.073
 3820TIP3    H111424   0.384   6.093   2.074
 3820TIP3    H211425   0.279   6.193   2.031
 3821TIP3   OH211426   0.710   4.799   3.802
 3821TIP3    H111427   0.735   4.777   3.891
 3821TIP3    H211428   0.793   4.803   3.754
 3822TIP3   OH211429   0.633   6.341   3.298
 3822TIP3    H111430   0.564   6.302   3.244
 3822TIP3    H211431   0.618   6.436   3.292
 3823TIP3   OH211432   1.904   5.735   2.045
 3823TIP3    H111433   1.873   5.820   2.015
 3823TIP3    H211434   1.834   5.674   2.021
 3824TIP3   OH211435   1.899   5.718   2.461
 3824TIP3    H111436   1.949   5.700   2.541
 3824TIP3    H211437   1.863   5.633   2.436
 3825TIP3   OH211438   1.195   5.602   2.818
 3825TIP3    H111439   1.227   5.540   2.884
 3825TIP3    H211440   1.275   5.642   2.783
 3826TIP3   OH211441   2.161   6.022   2.135
 3826TIP3    H111442   2.149   5.951   2.198
 3826TIP3    H211443   2.179   6.099   2.188
 3827TIP3   OH211444   1.178   6.008   2.507
 3827TIP3    H111445   1.163   5.914   2.514
 3827TIP3    H211446   1.273   6.017   2.498
 3828TIP3   OH211447   0.888   5.222   2.284
 3828TIP3    H111448   0.862   5.311   2.309
 3828TIP3    H211449   0.807   5.178   2.260
 3829TIP3   OH211450   0.948   5.528   2.491
 3829TIP3    H111451   0.992   5.448   2.519
 3829TIP3    H211452   1.018   5.586   2.464
 3830TIP3   OH211453   1.828   6.410   2.217
 3830TIP3    H111454   1.855   6.355   2.143
 3830TIP3    H211455   1.852   6.360   2.294
 3831TIP3   OH211456   1.710   5.938   2.474
 3831TIP3    H111457   1.754   5.858   2.446
 3831TIP3    H211458   1.781   5.996   2.503
 3832TIP3   OH211459   2.728   5.266   2.482
 3832TIP3    H111460   2.751   5.349   2.524
 3832TIP3    H211461   2.754   5.279   2.390
 3833TIP3   OH211462   2.125   5.436   2.511
 3833TIP3    H111463   2.172   5.355   2.529
 3833TIP3    H211464   2.084   5.421   2.425
 3834TIP3   OH211465   1.378   5.124   2.477
 3834TIP3    H111466   1.464   5.122   2.435
 3834TIP3    H211467   1.336   5.042   2.449
 3835TIP3   OH211468   2.161   5.195   2.099
 3835TIP3    H111469   2.230   5.188   2.165
 3835TIP3    H211470   2.206   5.225   2.020
 3836TIP3   OH211471   1.066   5.299   2.585
 3836TIP3    H111472   1.152   5.281   2.624
 3836TIP3    H211473   1.050   5.226   2.526
 3837TIP3   OH211474   1.525   5.490   2.399
 3837TIP3    H111475   1.619   5.492   2.414
 3837TIP3    H211476   1.506   5.398   2.379
 3838TIP3   OH211477   2.793   5.481   2.654
 3838TIP3    H111478   2.705   5.518   2.645
 3838TIP3    H211479   2.825   5.516   2.738
 3839TIP3   OH211480   1.446   5.098   2.916
 3839TIP3    H111481   1.395   5.138   2.846
 3839TIP3    H211482   1.395   5.112   2.995
 3840TIP3   OH211483   1.802   5.949   1.902
 3840TIP3    H111484   1.760   5.924   1.820
 3840TIP3    H211485   1.748   6.020   1.935
 3841TIP3   OH211486   1.555   5.864   2.693
 3841TIP3    H111487   1.497   5.932   2.728
 3841TIP3    H211488   1.600   5.907   2.620
 3842TIP3   OH211489   2.346   5.215   2.295
 3842TIP3    H111490   2.326   5.170   2.377
 3842TIP3    H211491   2.397   5.292   2.321
 3843TIP3   OH211492   1.308   5.224   2.711
 3843TIP3    H111493   1.368   5.295   2.733
 3843TIP3    H211494   1.341   5.189   2.629
 3844TIP3   OH211495   1.385   6.053   2.803
 3844TIP3    H111496   1.371   6.143   2.773
 3844TIP3    H211497   1.308   6.032   2.855
 3845TIP3   OH211498   0.768   5.768   2.044
 3845TIP3    H111499   0.727   5.792   1.961
 3845TIP3    H211500   0.796   5.851   2.082
 3846TIP3   OH211501   2.187   6.259   2.290
 3846TIP3    H111502   2.102   6.247   2.331
 3846TIP3    H211503   2.183   6.345   2.248
 3847TIP3   OH211504   2.519   5.167   2.652
 3847TIP3    H111505   2.432   5.186   2.619
 3847TIP3    H211506   2.578   5.193   2.581
 3848TIP3   OH211507   1.784   4.769   2.665
 3848TIP3    H111508   1.767   4.679   2.693
 3848TIP3    H211509   1.708   4.818   2.696
 3849TIP3   OH211510   1.912   6.293   1.982
 3849TIP3    H111511   1.962   6.214   1.962
 3849TIP3    H211512   1.939   6.356   1.915
 3850TIP3   OH211513   2.058   6.083   1.885
 3850TIP3    H111514   1.989   6.018   1.871
 3850TIP3    H211515   2.104   6.052   1.964
 3851TIP3   OH211516   2.445   6.161   2.629
 3851TIP3    H111517   2.427   6.084   2.575
 3851TIP3    H211518   2.428   6.235   2.571
 3852TIP3   OH211519   1.729   5.580   1.890
 3852TIP3    H111520   1.648   5.625   1.868
 3852TIP3    H211521   1.776   5.574   1.807
 3853TIP3   OH211522   1.688   5.373   1.596
 3853TIP3    H111523   1.754   5.419   1.647
 3853TIP3    H211524   1.736   5.307   1.546
 3854TIP3   OH211525   2.628   5.826   2.484
 3854TIP3    H111526   2.543   5.869   2.483
 3854TIP3    H211527   2.663   5.837   2.396
 3855TIP3   OH211528   2.085   5.659   1.855
 3855TIP3    H111529   2.032   5.687   1.929
 3855TIP3    H211530   2.167   5.630   1.894
 3856TIP3   OH211531   2.316   5.690   2.790
 3856TIP3    H111532   2.313   5.772   2.840
 3856TIP3    H211533   2.233   5.688   2.743
 3857TIP3   OH211534   1.322   5.638   2.272
 3857TIP3    H111535   1.282   5.583   2.205
 3857TIP3    H211536   1.395   5.586   2.305
 3858TIP3   OH211537   1.447   6.021   2.409
 3858TIP3    H111538   1.430   6.014   2.315
 3858TIP3    H211539   1.539   5.994   2.419
 3859TIP3   OH211540   1.425   5.632   2.627
 3859TIP3    H111541   1.463   5.595   2.547
 3859TIP3    H211542   1.477   5.711   2.644
 3860TIP3   OH211543   1.951   6.265   2.425
 3860TIP3    H111544   1.964   6.337   2.487
 3860TIP3    H211545   1.945   6.187   2.480
 3861TIP3   OH211546   1.590   6.163   2.956
 3861TIP3    H111547   1.536   6.226   3.005
 3861TIP3    H211548   1.527   6.111   2.906
 3862TIP3   OH211549   1.917   5.517   1.689
 3862TIP3    H111550   1.977   5.573   1.738
 3862TIP3    H211551   1.943   5.528   1.598
 3863TIP3   OH211552   1.342   5.732   3.082
 3863TIP3    H111553   1.344   5.824   3.110
 3863TIP3    H211554   1.249   5.710   3.082
 3864TIP3   OH211555   1.660   6.180   1.965
 3864TIP3    H111556   1.740   6.230   1.977
 3864TIP3    H211557   1.608   6.231   1.902
 3865TIP3   OH211558   1.392   6.332   3.050
 3865TIP3    H111559   1.362   6.338   2.959
 3865TIP3    H211560   1.313   6.318   3.100
 3866TIP3   OH211561   2.437   4.745   1.735
 3866TIP3    H111562   2.360   4.761   1.790
 3866TIP3    H211563   2.446   4.825   1.683
 3867TIP3   OH211564   1.182   5.492   2.073
 3867TIP3    H111565   1.112   5.541   2.031
 3867TIP3    H211566   1.141   5.411   2.102
 3868TIP3   OH211567   2.244   6.110   1.289
 3868TIP3    H111568   2.245   6.204   1.270
 3868TIP3    H211569   2.334   6.081   1.272
 3869TIP3   OH211570   0.964   5.881   2.989
 3869TIP3    H111571   0.898   5.863   2.923
 3869TIP3    H211572   1.000   5.795   3.012
 3870TIP3   OH211573   0.824   6.057   2.624
 3870TIP3    H111574   0.919   6.052   2.609
 3870TIP3    H211575   0.814   6.130   2.685
 3871TIP3   OH211576   2.681   6.530   2.693
 3871TIP3    H111577   2.686   6.435   2.706
 3871TIP3    H211578   2.599   6.555   2.735
 3872TIP3   OH211579   1.783   6.298   2.820
 3872TIP3    H111580   1.780   6.389   2.848
 3872TIP3    H211581   1.717   6.254   2.873
 3873TIP3   OH211582   1.446   6.404   1.758
 3873TIP3    H111583   1.461   6.380   1.666
 3873TIP3    H211584   1.514   6.468   1.777
 3874TIP3   OH211585   0.966   6.288   2.156
 3874TIP3    H111586   1.019   6.278   2.235
 3874TIP3    H211587   0.928   6.201   2.142
 3875TIP3   OH211588   1.750   6.346   1.390
 3875TIP3    H111589   1.800   6.275   1.349
 3875TIP3    H211590   1.776   6.343   1.482
 3876TIP3   OH211591   1.805   6.324   1.655
 3876TIP3    H111592   1.758   6.396   1.699
 3876TIP3    H211593   1.891   6.324   1.696
 3877TIP3   OH211594   2.561   5.647   2.957
 3877TIP3    H111595   2.480   5.656   2.906
 3877TIP3    H211596   2.580   5.553   2.954
 3878TIP3   OH211597   1.164   6.066   2.968
 3878TIP3    H111598   1.215   6.057   3.048
 3878TIP3    H211599   1.095   6.001   2.975
 3879TIP3   OH211600   1.547   4.878   2.775
 3879TIP3    H111601   1.463   4.847   2.741
 3879TIP3    H211602   1.527   4.961   2.818
 3880TIP3   OH211603   2.097   5.000   2.963
 3880TIP3    H111604   2.167   4.974   3.023
 3880TIP3    H211605   2.017   4.979   3.010
 3881TIP3   OH211606   2.323   5.426   2.883
 3881TIP3    H111607   2.280   5.424   2.969
 3881TIP3    H211608   2.305   5.514   2.850
 3882TIP3   OH211609   1.996   5.532   1.430
 3882TIP3    H111610   1.957   5.516   1.344
 3882TIP3    H211611   2.079   5.576   1.410
 3883TIP3   OH211612   1.707   4.925   1.743
 3883TIP3    H111613   1.669   4.933   1.831
 3883TIP3    H211614   1.674   4.841   1.711
 3884TIP3   OH211615   1.491   5.417   2.786
 3884TIP3    H111616   1.446   5.430   2.869
 3884TIP3    H211617   1.471   5.495   2.735
 3885TIP3   OH211618   1.872   5.389   2.030
 3885TIP3    H111619   1.817   5.453   1.985
 3885TIP3    H211620   1.923   5.348   1.960
 3886TIP3   OH211621   2.044   5.639   3.107
 3886TIP3    H111622   2.017   5.569   3.166
 3886TIP3    H211623   2.137   5.653   3.126
 3887TIP3   OH211624   2.036   5.391   2.253
 3887TIP3    H111625   1.968   5.416   2.191
 3887TIP3    H211626   2.076   5.313   2.216
 3888TIP3   OH211627   1.318   5.428   3.001
 3888TIP3    H111628   1.356   5.483   3.069
 3888TIP3    H211629   1.303   5.344   3.045
 3889TIP3   OH211630   1.358   4.893   1.702
 3889TIP3    H111631   1.366   4.923   1.792
 3889TIP3    H211632   1.285   4.942   1.666
 3890TIP3   OH211633   0.917   4.962   2.562
 3890TIP3    H111634   0.987   4.985   2.623
 3890TIP3    H211635   0.962   4.921   2.488
 3891TIP3   OH211636   0.994   4.996   2.104
 3891TIP3    H111637   0.957   5.006   2.016
 3891TIP3    H211638   0.948   5.062   2.157
 3892TIP3   OH211639   2.056   5.637   2.679
 3892TIP3    H111640   2.085   5.570   2.617
 3892TIP3    H211641   2.017   5.587   2.751
 3893TIP3   OH211642   2.233   5.177   2.567
 3893TIP3    H111643   2.185   5.190   2.649
 3893TIP3    H211644   2.196   5.097   2.530
 3894TIP3   OH211645   1.265   5.154   1.824
 3894TIP3    H111646   1.200   5.132   1.758
 3894TIP3    H211647   1.326   5.213   1.779
 3895TIP3   OH211648   2.397   6.873   2.810
 3895TIP3    H111649   2.384   6.882   2.715
 3895TIP3    H211650   2.478   6.920   2.828
 3896TIP3   OH211651   1.324   5.988   3.196
 3896TIP3    H111652   1.406   6.012   3.240
 3896TIP3    H211653   1.258   5.991   3.265
 3897TIP3   OH211654   1.790   5.443   2.467
 3897TIP3    H111655   1.835   5.377   2.414
 3897TIP3    H211656   1.787   5.405   2.555
 3898TIP3   OH211657   1.276   4.889   2.287
 3898TIP3    H111658   1.257   4.822   2.353
 3898TIP3    H211659   1.371   4.900   2.290
 3899TIP3   OH211660   1.759   5.356   2.735
 3899TIP3    H111661   1.671   5.386   2.758
 3899TIP3    H211662   1.817   5.410   2.789
 3900TIP3   OH211663   1.488   5.720   1.831
 3900TIP3    H111664   1.420   5.654   1.817
 3900TIP3    H211665   1.471   5.753   1.919
 3901TIP3   OH211666   2.387   5.959   2.451
 3901TIP3    H111667   2.419   6.009   2.375
 3901TIP3    H211668   2.307   5.917   2.421
 3902TIP3   OH211669   1.925   5.067   1.658
 3902TIP3    H111670   1.848   5.025   1.697
 3902TIP3    H211671   1.952   5.133   1.722
 3903TIP3   OH211672   1.909   6.044   2.850
 3903TIP3    H111673   1.950   6.033   2.935
 3903TIP3    H211674   1.865   6.129   2.855
 3904TIP3   OH211675   2.020   5.283   1.811
 3904TIP3    H111676   2.115   5.285   1.822
 3904TIP3    H211677   2.000   5.361   1.760
 3905TIP3   OH211678   1.187   5.723   2.498
 3905TIP3    H111679   1.228   5.708   2.413
 3905TIP3    H211680   1.251   5.692   2.562
 3906TIP3   OH211681   1.649   5.873   1.673
 3906TIP3    H111682   1.603   5.957   1.672
 3906TIP3    H211683   1.593   5.816   1.726
 3907TIP3   OH211684   1.072   5.662   3.128
 3907TIP3    H111685   1.086   5.639   3.220
 3907TIP3    H211686   1.004   5.602   3.098
 3908TIP3   OH211687   1.809   5.783   3.142
 3908TIP3    H111688   1.745   5.728   3.098
 3908TIP3    H211689   1.894   5.747   3.117
 3909TIP3   OH211690   2.053   6.329   2.731
 3909TIP3    H111691   1.960   6.310   2.740
 3909TIP3    H211692   2.079   6.365   2.816
 3910TIP3   OH211693   2.447   5.376   1.632
 3910TIP3    H111694   2.391   5.329   1.570
 3910TIP3    H211695   2.449   5.466   1.598
 3911TIP3   OH211696   2.690   6.256   2.713
 3911TIP3    H111697   2.597   6.235   2.718
 3911TIP3    H211698   2.719   6.220   2.629
 3912TIP3   OH211699   2.188   6.184   1.559
 3912TIP3    H111700   2.148   6.124   1.622
 3912TIP3    H211701   2.192   6.134   1.477
 3913TIP3   OH211702   2.155   5.826   2.351
 3913TIP3    H111703   2.065   5.801   2.372
 3913TIP3    H211704   2.194   5.746   2.315
 3914TIP3   OH211705   1.301   6.048   2.156
 3914TIP3    H111706   1.297   6.123   2.097
 3914TIP3    H211707   1.210   6.031   2.181
 3915TIP3   OH211708   0.877   5.350   1.870
 3915TIP3    H111709   0.918   5.434   1.889
 3915TIP3    H211710   0.797   5.351   1.923
 3916TIP3   OH211711   1.413   5.811   2.073
 3916TIP3    H111712   1.386   5.900   2.096
 3916TIP3    H211713   1.386   5.759   2.149
 3917TIP3   OH211714   1.583   6.343   2.627
 3917TIP3    H111715   1.621   6.413   2.573
 3917TIP3    H211716   1.657   6.312   2.680
 3918TIP3   OH211717   1.203   6.266   2.009
 3918TIP3    H111718   1.116   6.286   2.044
 3918TIP3    H211719   1.258   6.339   2.039
 3919TIP3   OH211720   1.952   6.036   2.579
 3919TIP3    H111721   1.940   6.033   2.674
 3919TIP3    H211722   2.021   5.972   2.561
 3920TIP3   OH211723   1.933   5.929   1.455
 3920TIP3    H111724   1.988   5.905   1.530
 3920TIP3    H211725   1.846   5.895   1.478
 3921TIP3   OH211726   2.216   6.534   2.619
 3921TIP3    H111727   2.153   6.469   2.651
 3921TIP3    H211728   2.165   6.589   2.559
 3922TIP3   OH211729   2.272   6.379   1.253
 3922TIP3    H111730   2.325   6.441   1.202
 3922TIP3    H211731   2.198   6.430   1.284
 3923TIP3   OH211732   1.280   5.174   3.127
 3923TIP3    H111733   1.185   5.181   3.132
 3923TIP3    H211734   1.304   5.117   3.200
 3924TIP3   OH211735   2.106   5.853   1.653
 3924TIP3    H111736   2.089   5.793   1.727
 3924TIP3    H211737   2.201   5.856   1.647
 3925TIP3   OH211738   1.016   6.238   2.791
 3925TIP3    H111739   1.071   6.182   2.846
 3925TIP3    H211740   1.042   6.327   2.814
 3926TIP3   OH211741   1.287   5.894   1.453
 3926TIP3    H111742   1.300   5.804   1.425
 3926TIP3    H211743   1.270   5.888   1.548
 3927TIP3   OH211744   1.241   5.889   1.728
 3927TIP3    H111745   1.317   5.856   1.776
 3927TIP3    H211746   1.242   5.983   1.744
 3928TIP3   OH211747   0.967   5.604   1.941
 3928TIP3    H111748   0.901   5.650   1.993
 3928TIP3    H211749   0.987   5.664   1.869
 3929TIP3   OH211750   2.123   5.238   2.821
 3929TIP3    H111751   2.204   5.278   2.852
 3929TIP3    H211752   2.114   5.158   2.874
 3930TIP3   OH211753   2.036   4.980   1.974
 3930TIP3    H111754   1.965   5.016   1.920
 3930TIP3    H211755   2.064   5.053   2.029
 3931TIP3   OH211756   1.504   6.100   1.677
 3931TIP3    H111757   1.420   6.124   1.716
 3931TIP3    H211758   1.529   6.177   1.625
 3932TIP3   OH211759   1.711   5.164   2.045
 3932TIP3    H111760   1.764   5.244   2.054
 3932TIP3    H211761   1.690   5.138   2.134
 3933TIP3   OH211762   1.966   5.475   2.882
 3933TIP3    H111763   1.996   5.515   2.964
 3933TIP3    H211764   2.015   5.393   2.876
 3934TIP3   OH211765   1.244   6.158   1.759
 3934TIP3    H111766   1.219   6.223   1.694
 3934TIP3    H211767   1.231   6.201   1.843
 3935TIP3   OH211768   1.310   4.950   1.996
 3935TIP3    H111769   1.303   5.031   1.946
 3935TIP3    H211770   1.404   4.935   2.006
 3936TIP3   OH211771   2.588   5.373   2.871
 3936TIP3    H111772   2.493   5.380   2.881
 3936TIP3    H211773   2.599   5.317   2.794
 3937TIP3   OH211774   2.251   5.577   2.258
 3937TIP3    H111775   2.175   5.518   2.265
 3937TIP3    H211776   2.320   5.533   2.308
 3938TIP3   OH211777   0.978   5.787   1.730
 3938TIP3    H111778   1.045   5.854   1.742
 3938TIP3    H211779   1.017   5.725   1.668
 3939TIP3   OH211780   0.885   5.072   1.866
 3939TIP3    H111781   0.892   5.167   1.868
 3939TIP3    H211782   0.815   5.054   1.804
 3940TIP3   OH211783   2.222   6.529   2.215
 3940TIP3    H111784   2.184   6.541   2.128
 3940TIP3    H211785   2.316   6.528   2.200
 3941TIP3   OH211786   1.285   4.794   2.728
 3941TIP3    H111787   1.262   4.759   2.643
 3941TIP3    H211788   1.280   4.719   2.788
 3942TIP3   OH211789   0.833   6.033   2.133
 3942TIP3    H111790   0.789   6.072   2.209
 3942TIP3    H211791   0.785   6.066   2.057
 3943TIP3   OH211792   0.999   6.537   3.238
 3943TIP3    H111793   1.084   6.539   3.281
 3943TIP3    H211794   0.981   6.444   3.226
 3944TIP3   OH211795   1.473   6.537   3.228
 3944TIP3    H111796   1.534   6.514   3.298
 3944TIP3    H211797   1.475   6.461   3.169
 3945TIP3   OH211798   1.442   6.097   1.346
 3945TIP3    H111799   1.394   6.026   1.390
 3945TIP3    H211800   1.519   6.054   1.309
 3946TIP3   OH211801   2.116   6.435   2.974
 3946TIP3    H111802   2.122   6.368   3.042
 3946TIP3    H211803   2.187   6.496   2.994
 3947TIP3   OH211804   1.891   6.138   1.279
 3947TIP3    H111805   1.922   6.075   1.344
 3947TIP3    H211806   1.954   6.131   1.207
 3948TIP3   OH211807   1.123   5.975   3.387
 3948TIP3    H111808   1.143   5.882   3.395
 3948TIP3    H211809   1.038   5.978   3.343
 3949TIP3   OH211810   1.118   5.597   1.594
 3949TIP3    H111811   1.172   5.574   1.670
 3949TIP3    H211812   1.181   5.608   1.522
 3950TIP3   OH211813   1.733   6.052   3.164
 3950TIP3    H111814   1.694   6.076   3.080
 3950TIP3    H211815   1.769   5.964   3.150
 3951TIP3   OH211816   1.650   5.818   1.402
 3951TIP3    H111817   1.639   5.831   1.497
 3951TIP3    H211818   1.641   5.723   1.390
 3952TIP3   OH211819   2.219   6.096   2.777
 3952TIP3    H111820   2.297   6.128   2.731
 3952TIP3    H211821   2.151   6.160   2.757
 3953TIP3   OH211822   1.242   5.719   3.383
 3953TIP3    H111823   1.320   5.700   3.331
 3953TIP3    H211824   1.276   5.743   3.469
 3954TIP3   OH211825   1.292   5.525   1.803
 3954TIP3    H111826   1.272   5.496   1.892
 3954TIP3    H211827   1.336   5.450   1.762
 3955TIP3   OH211828   1.577   5.594   3.039
 3955TIP3    H111829   1.501   5.651   3.049
 3955TIP3    H211830   1.621   5.627   2.961
 3956TIP3   OH211831   1.415   5.323   1.657
 3956TIP3    H111832   1.385   5.327   1.566
 3956TIP3    H211833   1.510   5.332   1.652
 3957TIP3   OH211834   2.096   5.992   3.146
 3957TIP3    H111835   2.168   5.954   3.095
 3957TIP3    H211836   2.090   5.936   3.223
 3958TIP3   OH211837   2.224   5.644   1.313
 3958TIP3    H111838   2.210   5.598   1.230
 3958TIP3    H211839   2.192   5.733   1.296
 3959TIP3   OH211840   1.701   5.379   3.154
 3959TIP3    H111841   1.705   5.305   3.093
 3959TIP3    H211842   1.660   5.449   3.103
 3960TIP3   OH211843   1.708   5.176   2.956
 3960TIP3    H111844   1.738   5.212   2.873
 3960TIP3    H211845   1.618   5.149   2.939
 3961TIP3   OH211846   1.722   5.703   2.839
 3961TIP3    H111847   1.812   5.717   2.810
 3961TIP3    H211848   1.670   5.765   2.789
 3962TIP3   OH211849   2.311   5.666   3.206
 3962TIP3    H111850   2.346   5.577   3.213
 3962TIP3    H211851   2.386   5.719   3.178
 3963TIP3   OH211852   2.347   5.927   2.946
 3963TIP3    H111853   2.292   5.986   2.895
 3963TIP3    H211854   2.436   5.942   2.914
 3964TIP3   OH211855   1.582   5.473   3.393
 3964TIP3    H111856   1.516   5.407   3.412
 3964TIP3    H211857   1.614   5.449   3.305
 3965TIP3   OH211858   1.834   4.942   3.049
 3965TIP3    H111859   1.792   5.021   3.016
 3965TIP3    H211860   1.769   4.873   3.034
 3966TIP3   OH211861   1.958   5.423   3.252
 3966TIP3    H111862   1.947   5.411   3.346
 3966TIP3    H211863   1.873   5.402   3.215
 3967TIP3   OH211864   2.205   5.385   3.122
 3967TIP3    H111865   2.127   5.379   3.177
 3967TIP3    H211866   2.276   5.352   3.178
 3968TIP3   OH211867   2.437   5.333   3.270
 3968TIP3    H111868   2.452   5.239   3.277
 3968TIP3    H211869   2.434   5.364   3.361
 3969TIP3   OH211870   1.421   5.251   3.459
 3969TIP3    H111871   1.426   5.163   3.422
 3969TIP3    H211872   1.461   5.242   3.546
 3970TIP3   OH211873   1.906   4.929   3.313
 3970TIP3    H111874   1.976   4.864   3.308
 3970TIP3    H211875   1.874   4.938   3.223
 3971TIP3   OH211876   1.992   5.146   3.459
 3971TIP3    H111877   1.966   5.075   3.402
 3971TIP3    H211878   1.919   5.208   3.456
 3972TIP3   OH211879   1.217   6.332   1.542
 3972TIP3    H111880   1.312   6.328   1.528
 3972TIP3    H211881   1.180   6.335   1.454
 3973TIP3   OH211882   0.707   5.751   1.754
 3973TIP3    H111883   0.801   5.766   1.753
 3973TIP3    H211884   0.697   5.661   1.723
 3974TIP3   OH211885   0.581   6.335   2.160
 3974TIP3    H111886   0.515   6.279   2.119
 3974TIP3    H211887   0.600   6.292   2.243
 3975TIP3   OH211888   0.759   6.182   2.362
 3975TIP3    H111889   0.737   6.117   2.428
 3975TIP3    H211890   0.808   6.249   2.410
 3976TIP3   OH211891   2.500   6.619   2.187
 3976TIP3    H111892   2.526   6.595   2.276
 3976TIP3    H211893   2.560   6.570   2.131
 3977TIP3   OH211894   2.542   6.582   2.452
 3977TIP3    H111895   2.491   6.501   2.456
 3977TIP3    H211896   2.609   6.572   2.519
 3978TIP3   OH211897   2.543   6.318   3.023
 3978TIP3    H111898   2.476   6.326   3.091
 3978TIP3    H211899   2.595   6.398   3.031
 3979TIP3   OH211900   2.384   5.841   1.647
 3979TIP3    H111901   2.446   5.908   1.618
 3979TIP3    H211902   2.425   5.801   1.724
 3980TIP3   OH211903   2.506   5.700   1.850
 3980TIP3    H111904   2.440   5.658   1.905
 3980TIP3    H211905   2.571   5.732   1.912
 3981TIP3   OH211906   2.555   6.102   2.278
 3981TIP3    H111907   2.609   6.032   2.243
 3981TIP3    H211908   2.556   6.170   2.211
 3982TIP3   OH211909   2.373   6.369   2.465
 3982TIP3    H111910   2.311   6.421   2.518
 3982TIP3    H211911   2.317   6.323   2.403
 3983TIP3   OH211912   2.428   5.617   1.494
 3983TIP3    H111913   2.357   5.616   1.429
 3983TIP3    H211914   2.409   5.692   1.549
 3984TIP3   OH211915   2.295   5.269   1.430
 3984TIP3    H111916   2.244   5.305   1.358
 3984TIP3    H211917   2.283   5.174   1.423
 3985TIP3   OH211918   2.310   5.557   1.987
 3985TIP3    H111919   2.314   5.462   1.976
 3985TIP3    H211920   2.293   5.570   2.081
 3986TIP3   OH211921   0.935   5.632   2.745
 3986TIP3    H111922   0.928   5.598   2.656
 3986TIP3    H211923   1.029   5.630   2.764
 3987TIP3   OH211924   2.601   5.978   2.846
 3987TIP3    H111925   2.669   5.911   2.835
 3987TIP3    H211926   2.610   6.034   2.769
 3988TIP3   OH211927   2.779   5.771   2.848
 3988TIP3    H111928   2.704   5.727   2.888
 3988TIP3    H211929   2.854   5.714   2.867
 3989TIP3   OH211930   2.248   4.998   1.401
 3989TIP3    H111931   2.310   4.972   1.469
 3989TIP3    H211932   2.167   4.954   1.425
 3990TIP3   OH211933   2.306   5.280   1.868
 3990TIP3    H111934   2.349   5.196   1.884
 3990TIP3    H211935   2.354   5.318   1.795
 3991TIP3   OH211936   2.465   5.450   2.387
 3991TIP3    H111937   2.547   5.470   2.342
 3991TIP3    H211938   2.478   5.485   2.476
 3992TIP3   OH211939   2.538   5.598   2.617
 3992TIP3    H111940   2.464   5.629   2.668
 3992TIP3    H211941   2.571   5.677   2.573
 3993TIP3   OH211942   1.156   5.306   3.410
 3993TIP3    H111943   1.251   5.303   3.422
 3993TIP3    H211944   1.125   5.224   3.448
 3994TIP3   OH211945   2.992   5.199   3.160
 3994TIP3    H111946   3.055   5.139   3.120
 3994TIP3    H211947   2.956   5.249   3.086
 3995TIP3   OH211948   2.421   5.031   1.919
 3995TIP3    H111949   2.465   5.017   2.003
 3995TIP3    H211950   2.360   4.958   1.911
 3996TIP3   OH211951   1.120   5.016   2.739
 3996TIP3    H111952   1.177   4.939   2.747
 3996TIP3    H211953   1.180   5.090   2.745
 3997TIP3   OH211954   0.918   5.286   2.823
 3997TIP3    H111955   0.963   5.287   2.738
 3997TIP3    H211956   0.949   5.365   2.867
 3998TIP3   OH211957   2.848   5.315   2.958
 3998TIP3    H111958   2.762   5.355   2.971
 3998TIP3    H211959   2.831   5.236   2.907
 3999TIP3   OH211960   2.477   4.955   1.559
 3999TIP3    H111961   2.520   4.891   1.502
 3999TIP3    H211962   2.539   5.028   1.562
 4000TIP3   OH211963   0.892   4.794   2.306
 4000TIP3    H111964   0.811   4.767   2.347
 4000TIP3    H211965   0.867   4.865   2.246
 4001TIP3   OH211966   2.039   6.424   1.772
 4001TIP3    H111967   2.099   6.428   1.698
 4001TIP3    H211968   2.085   6.468   1.843
 4002TIP3   OH211969   1.123   4.863   3.137
 4002TIP3    H111970   1.071   4.855   3.217
 4002TIP3    H211971   1.064   4.904   3.074
 4003TIP3   OH211972   1.169   6.291   3.210
 4003TIP3    H111973   1.077   6.268   3.199
 4003TIP3    H211974   1.187   6.276   3.302
 4004TIP3   OH211975   1.355   6.324   2.771
 4004TIP3    H111976   1.299   6.378   2.715
 4004TIP3    H211977   1.443   6.333   2.734
 4005TIP3   OH211978   1.771   6.559   2.900
 4005TIP3    H111979   1.809   6.557   2.988
 4005TIP3    H211980   1.831   6.613   2.848
 4006TIP3   OH211981   1.949   6.700   2.755
 4006TIP3    H111982   1.993   6.641   2.695
 4006TIP3    H211983   2.018   6.729   2.815
 4007TIP3   OH211984   2.759   5.068   2.855
 4007TIP3    H111985   2.670   5.055   2.822
 4007TIP3    H211986   2.799   4.981   2.850
 4008TIP3   OH211987   1.058   6.512   2.802
 4008TIP3    H111988   0.970   6.543   2.783
 4008TIP3    H211989   1.088   6.567   2.875
 4009TIP3   OH211990   1.242   6.507   2.599
 4009TIP3    H111991   1.178   6.512   2.670
 4009TIP3    H211992   1.234   6.591   2.554
 4010TIP3   OH211993   1.691   6.538   2.476
 4010TIP3    H111994   1.622   6.542   2.410
 4010TIP3    H211995   1.693   6.626   2.514
 4011TIP3   OH211996   1.957   6.536   2.511
 4011TIP3    H111997   1.864   6.519   2.500
 4011TIP3    H211998   1.975   6.610   2.452
 4012TIP3   OH211999   2.139   6.725   2.392
 4012TIP3    H112000   2.055   6.764   2.365
 4012TIP3    H212001   2.152   6.653   2.330
 4013TIP3   OH212002   0.931   6.328   2.549
 4013TIP3    H112003   0.964   6.300   2.634
 4013TIP3    H212004   1.000   6.304   2.487
 4014TIP3   OH212005   1.123   6.244   2.378
 4014TIP3    H112006   1.130   6.157   2.419
 4014TIP3    H212007   1.210   6.282   2.387
 4015TIP3   OH212008   1.389   6.286   2.427
 4015TIP3    H112009   1.413   6.194   2.413
 4015TIP3    H212010   1.443   6.314   2.501
 4016TIP3   OH212011   2.486   4.887   2.371
 4016TIP3    H112012   2.518   4.938   2.297
 4016TIP3    H212013   2.392   4.908   2.375
 4017TIP3   OH212014   2.584   4.985   2.137
 4017TIP3    H112015   2.654   4.926   2.107
 4017TIP3    H212016   2.620   5.073   2.123
 4018TIP3   OH212017   1.207   4.700   2.477
 4018TIP3    H112018   1.119   4.664   2.486
 4018TIP3    H212019   1.264   4.623   2.473
 4019TIP3   OH212020   1.047   4.597   2.180
 4019TIP3    H112021   1.051   4.629   2.090
 4019TIP3    H212022   0.991   4.659   2.226
 4020TIP3   OH212023   1.667   4.745   2.401
 4020TIP3    H112024   1.651   4.833   2.368
 4020TIP3    H212025   1.723   4.758   2.478
 4021TIP3   OH212026   2.210   4.925   2.388
 4021TIP3    H112027   2.165   4.914   2.304
 4021TIP3    H212028   2.197   4.842   2.433
 4022TIP3   OH212029   2.244   4.814   1.915
 4022TIP3    H112030   2.165   4.866   1.933
 4022TIP3    H212031   2.228   4.731   1.960
 4023TIP3   OH212032   0.704   6.139   1.922
 4023TIP3    H112033   0.627   6.120   1.867
 4023TIP3    H212034   0.717   6.233   1.913
 4024TIP3   OH212035   1.128   4.738   1.911
 4024TIP3    H112036   1.148   4.659   1.861
 4024TIP3    H212037   1.210   4.786   1.915
 4025TIP3   OH212038   1.585   4.928   1.992
 4025TIP3    H112039   1.616   4.874   2.065
 4025TIP3    H212040   1.620   5.015   2.009
 4026TIP3   OH212041   1.489   6.322   1.493
 4026TIP3    H112042   1.572   6.359   1.462
 4026TIP3    H212043   1.471   6.249   1.434
 4027TIP3   OH212044   2.227   6.451   1.568
 4027TIP3    H112045   2.220   6.356   1.561
 4027TIP3    H212046   2.183   6.485   1.490
 4028TIP3   OH212047   1.425   4.977   3.375
 4028TIP3    H112048   1.390   4.909   3.432
 4028TIP3    H212049   1.518   4.983   3.398
 4029TIP3   OH212050   1.677   4.983   3.491
 4029TIP3    H112051   1.756   4.963   3.441
 4029TIP3    H212052   1.672   4.912   3.556
 4030TIP3   OH212053   0.859   6.252   1.594
 4030TIP3    H112054   0.808   6.173   1.614
 4030TIP3    H212055   0.940   6.219   1.556
 4031TIP3   OH212056   2.501   5.063   3.283
 4031TIP3    H112057   2.518   5.032   3.372
 4031TIP3    H212058   2.587   5.058   3.240
 4032TIP3   OH212059   2.433   6.598   2.784
 4032TIP3    H112060   2.355   6.569   2.735
 4032TIP3    H212061   2.420   6.693   2.793
 4033TIP3   OH212062   3.697   5.985   1.539
 4033TIP3    H112063   3.668   6.072   1.512
 4033TIP3    H212064   3.622   5.929   1.523
 4034TIP3   OH212065   3.703   5.979   1.959
 4034TIP3    H112066   3.745   5.957   2.042
 4034TIP3    H212067   3.660   5.898   1.931
 4035TIP3   OH212068   2.985   5.854   2.307
 4035TIP3    H112069   3.013   5.792   2.375
 4035TIP3    H212070   3.067   5.891   2.275
 4036TIP3   OH212071   3.952   6.286   1.621
 4036TIP3    H112072   3.942   6.218   1.687
 4036TIP3    H212073   3.978   6.364   1.670
 4037TIP3   OH212074   2.977   6.272   1.997
 4037TIP3    H112075   2.966   6.177   2.001
 4037TIP3    H212076   3.071   6.286   1.992
 4038TIP3   OH212077   2.672   5.481   1.774
 4038TIP3    H112078   2.629   5.562   1.799
 4038TIP3    H212079   2.602   5.427   1.737
 4039TIP3   OH212080   2.739   5.773   1.986
 4039TIP3    H112081   2.785   5.696   2.017
 4039TIP3    H212082   2.806   5.826   1.944
 4040TIP3   OH212083   3.610   6.720   1.640
 4040TIP3    H112084   3.641   6.653   1.579
 4040TIP3    H212085   3.610   6.677   1.725
 4041TIP3   OH212086   3.498   6.205   1.964
 4041TIP3    H112087   3.538   6.123   1.932
 4041TIP3    H212088   3.573   6.258   1.991
 4042TIP3   OH212089   4.528   5.522   1.967
 4042TIP3    H112090   4.545   5.606   2.010
 4042TIP3    H212091   4.550   5.537   1.875
 4043TIP3   OH212092   3.909   5.695   2.000
 4043TIP3    H112093   3.948   5.611   2.025
 4043TIP3    H212094   3.874   5.680   1.912
 4044TIP3   OH212095   3.259   5.358   1.959
 4044TIP3    H112096   3.239   5.430   1.900
 4044TIP3    H212097   3.206   5.285   1.927
 4045TIP3   OH212098   3.957   5.447   1.591
 4045TIP3    H112099   4.024   5.439   1.659
 4045TIP3    H212100   4.005   5.484   1.516
 4046TIP3   OH212101   2.885   5.560   2.079
 4046TIP3    H112102   2.967   5.545   2.124
 4046TIP3    H212103   2.892   5.508   1.999
 4047TIP3   OH212104   3.314   5.765   1.886
 4047TIP3    H112105   3.408   5.750   1.891
 4047TIP3    H212106   3.279   5.682   1.853
 4048TIP3   OH212107   4.584   5.738   2.138
 4048TIP3    H112108   4.502   5.782   2.115
 4048TIP3    H212109   4.579   5.726   2.233
 4049TIP3   OH212110   3.243   5.357   2.410
 4049TIP3    H112111   3.190   5.389   2.337
 4049TIP3    H212112   3.189   5.372   2.488
 4050TIP3   OH212113   3.584   6.199   1.408
 4050TIP3    H112114   3.550   6.177   1.321
 4050TIP3    H212115   3.534   6.276   1.435
 4051TIP3   OH212116   3.355   6.116   2.186
 4051TIP3    H112117   3.298   6.184   2.221
 4051TIP3    H212118   3.402   6.159   2.114
 4052TIP3   OH212119   4.136   5.466   1.795
 4052TIP3    H112120   4.094   5.446   1.878
 4052TIP3    H212121   4.191   5.543   1.813
 4053TIP3   OH212122   3.126   5.461   2.180
 4053TIP3    H112123   3.180   5.535   2.209
 4053TIP3    H212124   3.176   5.421   2.110
 4054TIP3   OH212125   3.184   6.312   2.288
 4054TIP3    H112126   3.167   6.401   2.257
 4054TIP3    H212127   3.106   6.289   2.339
 4055TIP3   OH212128   2.564   6.022   1.529
 4055TIP3    H112129   2.526   6.039   1.443
 4055TIP3    H212130   2.596   6.107   1.559
 4056TIP3   OH212131   3.996   6.531   1.765
 4056TIP3    H112132   3.909   6.525   1.803
 4056TIP3    H212133   3.997   6.615   1.719
 4057TIP3   OH212134   4.329   5.418   2.143
 4057TIP3    H112135   4.241   5.445   2.116
 4057TIP3    H212136   4.386   5.446   2.071
 4058TIP3   OH212137   3.588   5.045   2.125
 4058TIP3    H112138   3.579   4.954   2.151
 4058TIP3    H212139   3.515   5.090   2.168
 4059TIP3   OH212140   3.705   6.554   1.435
 4059TIP3    H112141   3.755   6.474   1.420
 4059TIP3    H212142   3.765   6.625   1.411
 4060TIP3   OH212143   3.863   6.342   1.363
 4060TIP3    H112144   3.832   6.259   1.328
 4060TIP3    H212145   3.901   6.319   1.448
 4061TIP3   OH212146   4.239   6.420   2.115
 4061TIP3    H112147   4.222   6.344   2.059
 4061TIP3    H212148   4.223   6.495   2.059
 4062TIP3   OH212149   3.503   5.830   1.409
 4062TIP3    H112150   3.428   5.879   1.377
 4062TIP3    H212151   3.560   5.822   1.332
 4063TIP3   OH212152   3.491   5.627   1.095
 4063TIP3    H112153   3.547   5.678   1.154
 4063TIP3    H212154   3.552   5.571   1.047
 4064TIP3   OH212155   4.426   6.085   1.969
 4064TIP3    H112156   4.340   6.129   1.971
 4064TIP3    H212157   4.458   6.101   1.880
 4065TIP3   OH212158   3.888   5.915   1.358
 4065TIP3    H112159   3.835   5.943   1.434
 4065TIP3    H212160   3.972   5.889   1.396
 4066TIP3   OH212161   4.105   5.962   2.256
 4066TIP3    H112162   4.103   6.039   2.313
 4066TIP3    H212163   4.015   5.953   2.224
 4067TIP3   OH212164   3.109   5.900   1.754
 4067TIP3    H112165   3.073   5.840   1.689
 4067TIP3    H212166   3.183   5.852   1.792
 4068TIP3   OH212167   3.243   6.322   1.896
 4068TIP3    H112168   3.221   6.298   1.806
 4068TIP3    H212169   3.329   6.283   1.912
 4069TIP3   OH212170   3.219   5.888   2.117
 4069TIP3    H112171   3.257   5.853   2.037
 4069TIP3    H212172   3.272   5.965   2.138
 4070TIP3   OH212173   3.757   6.529   1.898
 4070TIP3    H112174   3.758   6.602   1.960
 4070TIP3    H212175   3.750   6.451   1.953
 4071TIP3   OH212176   3.383   6.433   2.441
 4071TIP3    H112177   3.324   6.491   2.489
 4071TIP3    H212178   3.324   6.375   2.391
 4072TIP3   OH212179   3.699   5.769   1.232
 4072TIP3    H112180   3.766   5.825   1.270
 4072TIP3    H212181   3.715   5.773   1.138
 4073TIP3   OH212182   3.125   6.019   2.547
 4073TIP3    H112183   3.126   6.105   2.587
 4073TIP3    H212184   3.035   5.988   2.557
 4074TIP3   OH212185   3.453   6.443   1.448
 4074TIP3    H112186   3.539   6.486   1.452
 4074TIP3    H212187   3.399   6.503   1.396
 4075TIP3   OH212188   3.174   6.596   2.529
 4075TIP3    H112189   3.147   6.593   2.437
 4075TIP3    H212190   3.096   6.573   2.578
 4076TIP3   OH212191   4.220   4.996   1.236
 4076TIP3    H112192   4.142   5.014   1.288
 4076TIP3    H212193   4.231   5.074   1.182
 4077TIP3   OH212194   2.983   5.743   1.554
 4077TIP3    H112195   2.907   5.785   1.516
 4077TIP3    H212196   2.954   5.654   1.575
 4078TIP3   OH212197   4.071   6.382   0.868
 4078TIP3    H112198   4.054   6.475   0.852
 4078TIP3    H212199   4.152   6.364   0.820
 4079TIP3   OH212200   2.758   6.144   2.474
 4079TIP3    H112201   2.689   6.120   2.412
 4079TIP3    H212202   2.793   6.061   2.505
 4080TIP3   OH212203   2.647   6.337   2.108
 4080TIP3    H112204   2.715   6.289   2.061
 4080TIP3    H212205   2.693   6.383   2.178
 4081TIP3   OH212206   4.479   6.789   2.182
 4081TIP3    H112207   4.484   6.694   2.196
 4081TIP3    H212208   4.396   6.814   2.224
 4082TIP3   OH212209   3.575   6.563   2.297
 4082TIP3    H112210   3.573   6.653   2.331
 4082TIP3    H212211   3.508   6.517   2.348
 4083TIP3   OH212212   3.335   6.682   1.267
 4083TIP3    H112213   3.306   6.666   1.177
 4083TIP3    H212214   3.261   6.728   1.307
 4084TIP3   OH212215   2.780   6.529   1.639
 4084TIP3    H112216   2.830   6.520   1.720
 4084TIP3    H212217   2.732   6.446   1.631
 4085TIP3   OH212218   3.543   6.597   0.935
 4085TIP3    H112219   3.605   6.534   0.899
 4085TIP3    H212220   3.575   6.615   1.023
 4086TIP3   OH212221   3.597   6.658   1.192
 4086TIP3    H112222   3.510   6.664   1.232
 4086TIP3    H212223   3.651   6.616   1.258
 4087TIP3   OH212224   4.365   5.907   2.447
 4087TIP3    H112225   4.279   5.910   2.405
 4087TIP3    H212226   4.383   5.813   2.459
 4088TIP3   OH212227   2.956   6.333   2.451
 4088TIP3    H112228   3.008   6.324   2.531
 4088TIP3    H212229   2.889   6.265   2.458
 4089TIP3   OH212230   3.356   5.138   2.256
 4089TIP3    H112231   3.266   5.115   2.231
 4089TIP3    H212232   3.348   5.222   2.301
 4090TIP3   OH212233   3.893   5.244   2.453
 4090TIP3    H112234   3.964   5.226   2.515
 4090TIP3    H212235   3.813   5.225   2.503
 4091TIP3   OH212236   4.153   5.718   2.384
 4091TIP3    H112237   4.096   5.695   2.457
 4091TIP3    H212238   4.103   5.782   2.333
 4092TIP3   OH212239   3.735   5.765   0.974
 4092TIP3    H112240   3.724   5.719   0.891
 4092TIP3    H212241   3.787   5.842   0.952
 4093TIP3   OH212242   3.500   5.184   1.224
 4093TIP3    H112243   3.470   5.190   1.315
 4093TIP3    H212244   3.462   5.103   1.191
 4094TIP3   OH212245   3.287   5.666   2.269
 4094TIP3    H112246   3.278   5.696   2.359
 4094TIP3    H212247   3.264   5.742   2.216
 4095TIP3   OH212248   3.170   5.549   1.785
 4095TIP3    H112249   3.081   5.523   1.810
 4095TIP3    H212250   3.182   5.512   1.698
 4096TIP3   OH212251   3.656   5.624   1.520
 4096TIP3    H112252   3.604   5.696   1.483
 4096TIP3    H212253   3.712   5.595   1.448
 4097TIP3   OH212254   3.840   5.930   2.607
 4097TIP3    H112255   3.812   5.855   2.554
 4097TIP3    H212256   3.926   5.905   2.639
 4098TIP3   OH212257   3.826   5.644   1.743
 4098TIP3    H112258   3.756   5.667   1.681
 4098TIP3    H212259   3.868   5.567   1.703
 4099TIP3   OH212260   3.087   5.679   2.498
 4099TIP3    H112261   3.167   5.722   2.527
 4099TIP3    H212262   3.087   5.594   2.542
 4100TIP3   OH212263   3.160   5.161   1.201
 4100TIP3    H112264   3.154   5.160   1.297
 4100TIP3    H212265   3.082   5.209   1.173
 4101TIP3   OH212266   2.713   5.209   2.058
 4101TIP3    H112267   2.785   5.240   2.113
 4101TIP3    H212268   2.756   5.177   1.979
 4102TIP3   OH212269   2.643   5.183   1.574
 4102TIP3    H112270   2.688   5.217   1.497
 4102TIP3    H212271   2.580   5.251   1.598
 4103TIP3   OH212272   3.840   5.881   2.187
 4103TIP3    H112273   3.866   5.814   2.124
 4103TIP3    H212274   3.812   5.832   2.264
 4104TIP3   OH212275   3.523   5.348   1.840
 4104TIP3    H112276   3.447   5.350   1.898
 4104TIP3    H212277   3.598   5.338   1.899
 4105TIP3   OH212278   2.933   5.423   1.845
 4105TIP3    H112279   2.844   5.427   1.811
 4105TIP3    H212280   2.961   5.332   1.830
 4106TIP3   OH212281   3.189   5.420   1.544
 4106TIP3    H112282   3.283   5.434   1.530
 4106TIP3    H212283   3.149   5.440   1.459
 4107TIP3   OH212284   3.999   5.429   2.032
 4107TIP3    H112285   3.986   5.441   2.127
 4107TIP3    H212286   3.928   5.371   2.005
 4108TIP3   OH212287   3.058   5.452   1.306
 4108TIP3    H112288   2.994   5.404   1.254
 4108TIP3    H212289   3.114   5.495   1.241
 4109TIP3   OH212290   6.643   0.158   2.255
 4109TIP3    H112291   6.633   0.164   2.160
 4109TIP3    H212292   6.720   0.210   2.275
 4110TIP3   OH212293   3.116   6.262   2.683
 4110TIP3    H112294   3.200   6.272   2.728
 4110TIP3    H212295   3.051   6.255   2.752
 4111TIP3   OH212296   3.586   5.717   1.931
 4111TIP3    H112297   3.653   5.660   1.895
 4111TIP3    H212298   3.578   5.690   2.023
 4112TIP3   OH212299   3.083   5.176   1.835
 4112TIP3    H112300   3.052   5.102   1.887
 4112TIP3    H212301   3.123   5.137   1.757
 4113TIP3   OH212302   3.556   5.645   2.190
 4113TIP3    H112303   3.470   5.641   2.231
 4113TIP3    H212304   3.617   5.653   2.263
 4114TIP3   OH212305   3.278   5.975   1.321
 4114TIP3    H112306   3.208   5.912   1.304
 4114TIP3    H212307   3.259   6.009   1.409
 4115TIP3   OH212308   4.186   6.218   1.935
 4115TIP3    H112309   4.217   6.268   1.860
 4115TIP3    H212310   4.104   6.178   1.906
 4116TIP3   OH212311   3.749   5.290   1.193
 4116TIP3    H112312   3.657   5.271   1.210
 4116TIP3    H212313   3.761   5.380   1.226
 4117TIP3   OH212314   3.699   6.301   2.328
 4117TIP3    H112315   3.745   6.280   2.410
 4117TIP3    H212316   3.664   6.389   2.343
 4118TIP3   OH212317   3.822   5.531   1.303
 4118TIP3    H112318   3.918   5.537   1.312
 4118TIP3    H212319   3.797   5.613   1.261
 4119TIP3   OH212320   2.989   5.994   1.985
 4119TIP3    H112321   3.025   5.970   1.900
 4119TIP3    H212322   3.048   5.953   2.049
 4120TIP3   OH212323   3.444   6.132   1.175
 4120TIP3    H112324   3.398   6.216   1.176
 4120TIP3    H212325   3.386   6.073   1.224
 4121TIP3   OH212326   2.863   5.934   2.619
 4121TIP3    H112327   2.887   5.910   2.708
 4121TIP3    H212328   2.804   5.864   2.590
 4122TIP3   OH212329   3.600   6.054   2.624
 4122TIP3    H112330   3.556   6.020   2.546
 4122TIP3    H212331   3.688   6.016   2.619
 4123TIP3   OH212332   3.847   6.588   2.218
 4123TIP3    H112333   3.753   6.570   2.226
 4123TIP3    H212334   3.871   6.626   2.302
 4124TIP3   OH212335   4.253   5.628   1.160
 4124TIP3    H112336   4.184   5.592   1.105
 4124TIP3    H212337   4.258   5.720   1.136
 4125TIP3   OH212338   4.485   6.509   2.200
 4125TIP3    H112339   4.390   6.493   2.200
 4125TIP3    H212340   4.515   6.476   2.115
 4126TIP3   OH212341   3.925   6.451   1.102
 4126TIP3    H112342   3.911   6.401   1.183
 4126TIP3    H212343   3.976   6.392   1.046
 4127TIP3   OH212344   3.951   6.085   1.838
 4127TIP3    H112345   3.863   6.059   1.867
 4127TIP3    H212346   3.989   6.005   1.803
 4128TIP3   OH212347   3.099   6.315   1.645
 4128TIP3    H112348   3.095   6.391   1.588
 4128TIP3    H212349   3.008   6.287   1.655
 4129TIP3   OH212350   2.661   5.607   1.347
 4129TIP3    H112351   2.707   5.688   1.368
 4129TIP3    H212352   2.582   5.609   1.401
 4130TIP3   OH212353   3.203   6.074   1.559
 4130TIP3    H112354   3.185   6.163   1.588
 4130TIP3    H212355   3.177   6.018   1.632
 4131TIP3   OH212356   3.385   6.641   2.100
 4131TIP3    H112357   3.425   6.704   2.039
 4131TIP3    H212358   3.459   6.604   2.148
 4132TIP3   OH212359   3.013   6.538   1.492
 4132TIP3    H112360   2.926   6.547   1.530
 4132TIP3    H212361   3.049   6.627   1.493
 4133TIP3   OH212362   3.744   6.300   2.057
 4133TIP3    H112363   3.732   6.295   2.152
 4133TIP3    H212364   3.812   6.235   2.039
 4134TIP3   OH212365   3.724   6.186   0.975
 4134TIP3    H112366   3.775   6.159   1.051
 4134TIP3    H212367   3.646   6.129   0.977
 4135TIP3   OH212368   4.010   6.797   2.103
 4135TIP3    H112369   3.938   6.738   2.124
 4135TIP3    H212370   3.974   6.856   2.037
 4136TIP3   OH212371   4.040   6.641   0.800
 4136TIP3    H112372   4.096   6.687   0.738
 4136TIP3    H212373   3.975   6.706   0.827
 4137TIP3   OH212374   3.073   5.425   2.622
 4137TIP3    H112375   2.978   5.432   2.627
 4137TIP3    H212376   3.097   5.367   2.694
 4138TIP3   OH212377   3.893   6.118   1.176
 4138TIP3    H112378   3.882   6.043   1.235
 4138TIP3    H212379   3.988   6.127   1.166
 4139TIP3   OH212380   2.807   6.500   2.269
 4139TIP3    H112381   2.859   6.442   2.324
 4139TIP3    H212382   2.835   6.589   2.293
 4140TIP3   OH212383   3.102   6.148   0.972
 4140TIP3    H112384   3.098   6.055   0.954
 4140TIP3    H212385   3.074   6.157   1.063
 4141TIP3   OH212386   3.026   6.161   1.234
 4141TIP3    H112387   3.099   6.128   1.287
 4141TIP3    H212388   3.031   6.256   1.244
 4142TIP3   OH212389   2.762   5.855   1.427
 4142TIP3    H112390   2.695   5.898   1.480
 4142TIP3    H212391   2.781   5.917   1.357
 4143TIP3   OH212392   3.937   5.465   2.291
 4143TIP3    H112393   3.885   5.536   2.327
 4143TIP3    H212394   3.922   5.391   2.350
 4144TIP3   OH212395   3.810   5.238   1.482
 4144TIP3    H112396   3.792   5.264   1.392
 4144TIP3    H212397   3.852   5.315   1.521
 4145TIP3   OH212398   3.302   6.362   1.172
 4145TIP3    H112399   3.216   6.383   1.208
 4145TIP3    H212400   3.322   6.435   1.113
 4146TIP3   OH212401   3.469   5.433   1.583
 4146TIP3    H112402   3.533   5.501   1.561
 4146TIP3    H212403   3.485   5.414   1.675
 4147TIP3   OH212404   3.632   5.137   1.674
 4147TIP3    H112405   3.614   5.212   1.730
 4147TIP3    H212406   3.697   5.168   1.612
 4148TIP3   OH212407   3.047   6.432   1.243
 4148TIP3    H112408   3.020   6.501   1.182
 4148TIP3    H212409   3.032   6.469   1.330
 4149TIP3   OH212410   3.146   5.149   1.477
 4149TIP3    H112411   3.135   5.238   1.510
 4149TIP3    H212412   3.240   5.133   1.483
 4150TIP3   OH212413   4.397   5.617   2.340
 4150TIP3    H112414   4.309   5.649   2.360
 4150TIP3    H212415   4.383   5.549   2.273
 4151TIP3   OH212416   4.044   5.831   1.748
 4151TIP3    H112417   3.968   5.775   1.758
 4151TIP3    H212418   4.113   5.789   1.799
 4152TIP3   OH212419   2.773   6.049   1.220
 4152TIP3    H112420   2.847   6.108   1.231
 4152TIP3    H212421   2.804   5.981   1.160
 4153TIP3   OH212422   2.695   5.330   1.348
 4153TIP3    H112423   2.705   5.425   1.353
 4153TIP3    H212424   2.617   5.317   1.294
 4154TIP3   OH212425   4.019   6.797   1.676
 4154TIP3    H112426   3.981   6.848   1.605
 4154TIP3    H212427   4.113   6.810   1.668
 4155TIP3   OH212428   3.090   5.056   2.221
 4155TIP3    H112429   3.063   5.022   2.136
 4155TIP3    H212430   3.083   4.981   2.280
 4156TIP3   OH212431   2.624   6.295   1.614
 4156TIP3    H112432   2.549   6.302   1.672
 4156TIP3    H212433   2.593   6.329   1.530
 4157TIP3   OH212434   2.800   6.800   2.720
 4157TIP3    H112435   2.885   6.799   2.765
 4157TIP3    H212436   2.774   6.708   2.718
 4158TIP3   OH212437   3.281   6.777   2.705
 4158TIP3    H112438   3.369   6.745   2.725
 4158TIP3    H212439   3.246   6.716   2.641
 4159TIP3   OH212440   3.239   6.372   0.886
 4159TIP3    H112441   3.200   6.298   0.932
 4159TIP3    H212442   3.323   6.339   0.854
 4160TIP3   OH212443   3.898   6.695   2.466
 4160TIP3    H112444   3.905   6.624   2.530
 4160TIP3    H212445   3.976   6.748   2.481
 4161TIP3   OH212446   3.691   6.410   0.827
 4161TIP3    H112447   3.723   6.340   0.884
 4161TIP3    H212448   3.754   6.413   0.756
 4162TIP3   OH212449   2.916   6.235   2.873
 4162TIP3    H112450   2.939   6.142   2.879
 4162TIP3    H212451   2.831   6.237   2.831
 4163TIP3   OH212452   2.894   5.844   1.090
 4163TIP3    H112453   2.944   5.816   1.168
 4163TIP3    H212454   2.961   5.860   1.024
 4164TIP3   OH212455   3.530   6.322   2.647
 4164TIP3    H112456   3.489   6.340   2.562
 4164TIP3    H212457   3.565   6.233   2.638
 4165TIP3   OH212458   3.470   6.070   0.913
 4165TIP3    H112459   3.454   6.080   1.007
 4165TIP3    H212460   3.453   5.977   0.896
 4166TIP3   OH212461   4.014   6.355   2.265
 4166TIP3    H112462   4.093   6.384   2.218
 4166TIP3    H212463   3.948   6.421   2.244
 4167TIP3   OH212464   3.040   5.983   2.864
 4167TIP3    H112465   3.117   5.947   2.819
 4167TIP3    H212466   3.070   6.002   2.952
 4168TIP3   OH212467   3.081   5.784   1.289
 4168TIP3    H112468   3.063   5.752   1.378
 4168TIP3    H212469   3.129   5.712   1.247
 4169TIP3   OH212470   3.316   5.827   2.515
 4169TIP3    H112471   3.259   5.903   2.526
 4169TIP3    H212472   3.395   5.862   2.474
 4170TIP3   OH212473   3.217   5.596   1.137
 4170TIP3    H112474   3.186   5.602   1.047
 4170TIP3    H212475   3.312   5.603   1.129
 4171TIP3   OH212476   3.897   6.241   2.635
 4171TIP3    H112477   3.959   6.197   2.577
 4171TIP3    H212478   3.886   6.181   2.708
 4172TIP3   OH212479   3.885   5.944   0.853
 4172TIP3    H112480   3.965   5.893   0.848
 4172TIP3    H212481   3.885   5.997   0.773
 4173TIP3   OH212482   3.520   5.376   2.413
 4173TIP3    H112483   3.558   5.464   2.406
 4173TIP3    H212484   3.426   5.391   2.416
 4174TIP3   OH212485   3.506   5.969   2.373
 4174TIP3    H112486   3.584   5.933   2.330
 4174TIP3    H212487   3.464   6.023   2.306
 4175TIP3   OH212488   4.106   5.914   2.717
 4175TIP3    H112489   4.103   5.822   2.692
 4175TIP3    H212490   4.187   5.947   2.678
 4176TIP3   OH212491   4.142   6.185   2.436
 4176TIP3    H112492   4.088   6.246   2.385
 4176TIP3    H212493   4.231   6.199   2.403
 4177TIP3   OH212494   3.376   5.746   2.870
 4177TIP3    H112495   3.317   5.673   2.884
 4177TIP3    H212496   3.384   5.754   2.775
 4178TIP3   OH212497   3.634   5.163   2.534
 4178TIP3    H112498   3.597   5.240   2.489
 4178TIP3    H212499   3.567   5.096   2.525
 4179TIP3   OH212500   4.007   5.675   2.613
 4179TIP3    H112501   3.922   5.663   2.570
 4179TIP3    H212502   4.016   5.597   2.668
 4180TIP3   OH212503   4.278   5.590   2.767
 4180TIP3    H112504   4.267   5.496   2.774
 4180TIP3    H212505   4.251   5.624   2.852
 4181TIP3   OH212506   3.224   5.515   2.937
 4181TIP3    H112507   3.229   5.427   2.900
 4181TIP3    H212508   3.262   5.507   3.024
 4182TIP3   OH212509   3.704   5.185   2.798
 4182TIP3    H112510   3.774   5.119   2.796
 4182TIP3    H212511   3.669   5.186   2.709
 4183TIP3   OH212512   3.786   5.406   2.941
 4183TIP3    H112513   3.760   5.334   2.884
 4183TIP3    H212514   3.711   5.466   2.940
 4184TIP3   OH212515   3.023   6.645   1.072
 4184TIP3    H112516   3.117   6.639   1.050
 4184TIP3    H212517   2.985   6.692   0.998
 4185TIP3   OH212518   2.503   6.024   1.244
 4185TIP3    H112519   2.596   6.042   1.237
 4185TIP3    H212520   2.492   5.937   1.206
 4186TIP3   OH212521   2.407   6.627   1.669
 4186TIP3    H112522   2.353   6.561   1.625
 4186TIP3    H212523   2.445   6.580   1.744
 4187TIP3   OH212524   2.520   6.501   1.889
 4187TIP3    H112525   2.517   6.420   1.941
 4187TIP3    H212526   2.600   6.545   1.917
 4188TIP3   OH212527   4.282   6.864   1.666
 4188TIP3    H112528   4.314   6.883   1.754
 4188TIP3    H212529   4.351   6.897   1.608
 4189TIP3   OH212530   4.334   6.857   1.943
 4189TIP3    H112531   4.287   6.774   1.941
 4189TIP3    H212532   4.403   6.844   2.008
 4190TIP3   OH212533   4.354   6.584   2.519
 4190TIP3    H112534   4.287   6.592   2.587
 4190TIP3    H212535   4.401   6.668   2.522
 4191TIP3   OH212536   4.168   6.122   1.182
 4191TIP3    H112537   4.233   6.183   1.146
 4191TIP3    H212538   4.216   6.072   1.248
 4192TIP3   OH212539   4.306   5.958   1.350
 4192TIP3    H112540   4.242   5.913   1.405
 4192TIP3    H212541   4.373   5.988   1.412
 4193TIP3   OH212542   4.357   6.357   1.763
 4193TIP3    H112543   4.411   6.289   1.725
 4193TIP3    H212544   4.357   6.428   1.698
 4194TIP3   OH212545   4.174   6.632   1.955
 4194TIP3    H112546   4.112   6.683   2.006
 4194TIP3    H212547   4.122   6.592   1.886
 4195TIP3   OH212548   4.232   5.877   1.058
 4195TIP3    H112549   4.178   5.858   0.981
 4195TIP3    H212550   4.199   5.961   1.090
 4196TIP3   OH212551   4.065   5.549   0.993
 4196TIP3    H112552   4.093   5.580   0.907
 4196TIP3    H212553   4.032   5.461   0.978
 4197TIP3   OH212554   4.113   5.812   1.482
 4197TIP3    H112555   4.116   5.717   1.471
 4197TIP3    H212556   4.094   5.825   1.575
 4198TIP3   OH212557   2.727   5.895   2.233
 4198TIP3    H112558   2.720   5.853   2.147
 4198TIP3    H212559   2.820   5.888   2.255
 4199TIP3   OH212560   4.397   6.237   2.336
 4199TIP3    H112561   4.464   6.170   2.320
 4199TIP3    H212562   4.407   6.299   2.263
 4200TIP3   OH212563   4.577   6.029   2.327
 4200TIP3    H112564   4.502   5.987   2.367
 4200TIP3    H212565   4.652   5.975   2.352
 4201TIP3   OH212566   4.005   5.290   0.950
 4201TIP3    H112567   4.079   5.252   0.997
 4201TIP3    H212568   3.933   5.228   0.963
 4202TIP3   OH212569   4.104   5.534   1.372
 4202TIP3    H112570   4.147   5.449   1.383
 4202TIP3    H212571   4.155   5.578   1.304
 4203TIP3   OH212572   4.260   5.704   1.873
 4203TIP3    H112573   4.343   5.723   1.829
 4203TIP3    H212574   4.270   5.743   1.960
 4204TIP3   OH212575   4.330   5.858   2.097
 4204TIP3    H112576   4.256   5.885   2.152
 4204TIP3    H212577   4.362   5.939   2.058
 4205TIP3   OH212578   2.954   5.566   2.899
 4205TIP3    H112579   3.050   5.561   2.906
 4205TIP3    H212580   2.923   5.483   2.935
 4206TIP3   OH212581   4.795   5.456   2.649
 4206TIP3    H112582   4.854   5.393   2.607
 4206TIP3    H212583   4.757   5.506   2.576
 4207TIP3   OH212584   4.216   5.283   1.412
 4207TIP3    H112585   4.258   5.269   1.497
 4207TIP3    H212586   4.153   5.212   1.405
 4208TIP3   OH212587   2.918   5.274   2.236
 4208TIP3    H112588   2.974   5.196   2.243
 4208TIP3    H212589   2.980   5.346   2.222
 4209TIP3   OH212590   2.711   5.540   2.300
 4209TIP3    H112591   2.758   5.532   2.217
 4209TIP3    H212592   2.761   5.605   2.350
 4210TIP3   OH212593   4.656   5.580   2.450
 4210TIP3    H112594   4.580   5.620   2.492
 4210TIP3    H212595   4.620   5.511   2.395
 4211TIP3   OH212596   4.252   5.206   1.066
 4211TIP3    H112597   4.294   5.145   1.005
 4211TIP3    H212598   4.311   5.280   1.071
 4212TIP3   OH212599   2.695   5.043   1.803
 4212TIP3    H112600   2.607   5.033   1.840
 4212TIP3    H212601   2.683   5.099   1.727
 4213TIP3   OH212602   3.851   6.756   1.336
 4213TIP3    H112603   3.899   6.745   1.255
 4213TIP3    H212604   3.897   6.825   1.383
 4214TIP3   OH212605   2.915   5.114   2.622
 4214TIP3    H112606   2.864   5.105   2.702
 4214TIP3    H212607   2.856   5.158   2.560
 4215TIP3   OH212608   2.959   6.549   2.696
 4215TIP3    H112609   2.866   6.528   2.684
 4215TIP3    H212610   2.977   6.524   2.787
 4216TIP3   OH212611   3.159   6.584   2.248
 4216TIP3    H112612   3.108   6.649   2.200
 4216TIP3    H212613   3.248   6.592   2.213
 4217TIP3   OH212614   3.567   6.822   2.388
 4217TIP3    H112615   3.608   6.818   2.474
 4217TIP3    H212616   3.629   6.871   2.334
 4218TIP3   OH212617   3.742   6.961   2.236
 4218TIP3    H112618   3.787   6.910   2.169
 4218TIP3    H212619   3.812   6.992   2.294
 4219TIP3   OH212620   4.558   5.330   2.342
 4219TIP3    H112621   4.469   5.325   2.306
 4219TIP3    H212622   4.591   5.241   2.336
 4220TIP3   OH212623   2.850   6.780   2.265
 4220TIP3    H112624   2.766   6.821   2.243
 4220TIP3    H212625   2.878   6.823   2.346
 4221TIP3   OH212626   3.067   6.792   2.098
 4221TIP3    H112627   2.988   6.796   2.151
 4221TIP3    H212628   3.039   6.822   2.011
 4222TIP3   OH212629   3.474   6.828   1.915
 4222TIP3    H112630   3.414   6.845   1.842
 4222TIP3    H212631   3.492   6.914   1.952
 4223TIP3   OH212632   3.740   6.796   1.991
 4223TIP3    H112633   3.650   6.800   1.958
 4223TIP3    H212634   3.789   6.856   1.935
 4224TIP3   OH212635   3.942   6.960   1.883
 4224TIP3    H112636   3.916   7.043   1.842
 4224TIP3    H212637   3.971   6.905   1.810
 4225TIP3   OH212638   2.741   6.623   2.015
 4225TIP3    H112639   2.769   6.599   2.103
 4225TIP3    H212640   2.808   6.587   1.957
 4226TIP3   OH212641   2.935   6.509   1.866
 4226TIP3    H112642   2.945   6.423   1.909
 4226TIP3    H212643   3.023   6.546   1.865
 4227TIP3   OH212644   3.201   6.596   1.889
 4227TIP3    H112645   3.223   6.504   1.876
 4227TIP3    H212646   3.247   6.620   1.969
 4228TIP3   OH212647   3.753   5.249   1.963
 4228TIP3    H112648   3.718   5.179   2.019
 4228TIP3    H212649   3.826   5.208   1.917
 4229TIP3   OH212650   4.267   5.150   1.861
 4229TIP3    H112651   4.305   5.202   1.790
 4229TIP3    H212652   4.176   5.181   1.867
 4230TIP3   OH212653   4.380   5.238   1.628
 4230TIP3    H112654   4.450   5.180   1.599
 4230TIP3    H212655   4.415   5.326   1.616
 4231TIP3   OH212656   3.004   4.952   1.978
 4231TIP3    H112657   2.915   4.919   1.985
 4231TIP3    H212658   3.058   4.873   1.971
 4232TIP3   OH212659   2.801   4.845   1.625
 4232TIP3    H112660   2.833   4.899   1.553
 4232TIP3    H212661   2.771   4.908   1.691
 4233TIP3   OH212662   3.469   4.994   1.864
 4233TIP3    H112663   3.520   5.043   1.799
 4233TIP3    H212664   3.506   5.021   1.948
 4234TIP3   OH212665   3.978   5.139   1.842
 4234TIP3    H112666   3.993   5.103   1.755
 4234TIP3    H212667   3.979   5.063   1.901
 4235TIP3   OH212668   4.027   5.077   1.414
 4235TIP3    H112669   3.947   5.125   1.435
 4235TIP3    H212670   4.015   4.992   1.456
 4236TIP3   OH212671   2.513   6.394   1.389
 4236TIP3    H112672   2.429   6.357   1.363
 4236TIP3    H212673   2.509   6.486   1.360
 4237TIP3   OH212674   2.926   4.990   1.392
 4237TIP3    H112675   2.971   4.927   1.336
 4237TIP3    H212676   2.996   5.043   1.430
 4238TIP3   OH212677   3.422   5.181   1.489
 4238TIP3    H112678   3.480   5.130   1.546
 4238TIP3    H212679   3.435   5.272   1.516
 4239TIP3   OH212680   3.285   6.609   1.004
 4239TIP3    H112681   3.374   6.626   0.973
 4239TIP3    H212682   3.254   6.535   0.951
 4240TIP3   OH212683   3.975   6.715   1.096
 4240TIP3    H112684   3.961   6.621   1.098
 4240TIP3    H212685   3.924   6.745   1.021
 4241TIP3   OH212686   3.218   5.235   2.860
 4241TIP3    H112687   3.182   5.168   2.917
 4241TIP3    H212688   3.310   5.242   2.884
 4242TIP3   OH212689   3.468   5.240   2.979
 4242TIP3    H112690   3.549   5.222   2.932
 4242TIP3    H212691   3.463   5.170   3.045
 4243TIP3   OH212692   2.598   6.411   1.064
 4243TIP3    H112693   2.606   6.407   1.159
 4243TIP3    H212694   2.681   6.377   1.031
 4244TIP3   OH212695   4.297   5.311   2.771
 4244TIP3    H112696   4.314   5.284   2.862
 4244TIP3    H212697   4.383   5.311   2.729
 4245TIP3   OH212698   4.227   6.861   2.268
 4245TIP3    H112699   4.151   6.830   2.218
 4245TIP3    H212700   4.218   6.957   2.267
 4246TIP3   OH212701   5.382   6.232   1.095
 4246TIP3    H112702   5.445   6.289   1.052
 4246TIP3    H212703   5.355   6.170   1.028
 4247TIP3   OH212704   5.476   6.225   1.441
 4247TIP3    H112705   5.522   6.214   1.524
 4247TIP3    H212706   5.427   6.143   1.429
 4248TIP3   OH212707   4.796   6.114   1.781
 4248TIP3    H112708   4.818   6.050   1.849
 4248TIP3    H212709   4.881   6.145   1.750
 4249TIP3   OH212710   5.607   6.455   1.149
 4249TIP3    H112711   5.670   6.434   1.218
 4249TIP3    H212712   5.573   6.541   1.172
 4250TIP3   OH212713   4.784   6.533   1.513
 4250TIP3    H112714   4.766   6.439   1.512
 4250TIP3    H212715   4.879   6.540   1.515
 4251TIP3   OH212716   4.476   5.744   1.275
 4251TIP3    H112717   4.427   5.824   1.292
 4251TIP3    H212718   4.413   5.685   1.234
 4252TIP3   OH212719   4.539   6.031   1.476
 4252TIP3    H112720   4.589   5.955   1.506
 4252TIP3    H212721   4.600   6.079   1.420
 4253TIP3   OH212722   5.295   6.957   1.189
 4253TIP3    H112723   5.339   6.966   1.104
 4253TIP3    H212724   5.366   6.964   1.253
 4254TIP3   OH212725   5.304   6.451   1.432
 4254TIP3    H112726   5.342   6.365   1.413
 4254TIP3    H212727   5.376   6.501   1.470
 4255TIP3   OH212728   6.313   5.766   1.478
 4255TIP3    H112729   6.329   5.843   1.532
 4255TIP3    H212730   6.332   5.795   1.388
 4256TIP3   OH212731   5.727   5.957   1.498
 4256TIP3    H112732   5.769   5.873   1.517
 4256TIP3    H212733   5.667   5.939   1.426
 4257TIP3   OH212734   5.061   5.612   1.460
 4257TIP3    H112735   5.038   5.686   1.403
 4257TIP3    H212736   5.005   5.540   1.430
 4258TIP3   OH212737   5.803   5.593   1.140
 4258TIP3    H112738   5.860   5.594   1.216
 4258TIP3    H212739   5.786   5.686   1.122
 4259TIP3   OH212740   4.683   5.820   1.574
 4259TIP3    H112741   4.765   5.800   1.618
 4259TIP3    H212742   4.686   5.769   1.493
 4260TIP3   OH212743   5.113   6.029   1.366
 4260TIP3    H112744   5.204   6.012   1.389
 4260TIP3    H212745   5.075   5.943   1.351
 4261TIP3   OH212746   6.359   5.981   1.640
 4261TIP3    H112747   6.285   6.041   1.631
 4261TIP3    H212748   6.416   6.021   1.705
 4262TIP3   OH212749   5.040   5.609   1.899
 4262TIP3    H112750   4.989   5.642   1.825
 4262TIP3    H212751   4.985   5.623   1.975
 4263TIP3   OH212752   5.391   6.557   0.872
 4263TIP3    H112753   5.416   6.465   0.862
 4263TIP3    H212754   5.350   6.561   0.958
 4264TIP3   OH212755   5.150   6.384   1.670
 4264TIP3    H112756   5.092   6.450   1.707
 4264TIP3    H212757   5.193   6.428   1.596
 4265TIP3   OH212758   5.979   5.695   1.332
 4265TIP3    H112759   5.918   5.678   1.404
 4265TIP3    H212760   6.002   5.788   1.341
 4266TIP3   OH212761   4.923   5.716   1.672
 4266TIP3    H112762   4.977   5.791   1.695
 4266TIP3    H212763   4.970   5.673   1.600
 4267TIP3   OH212764   4.983   6.578   1.777
 4267TIP3    H112765   4.965   6.665   1.742
 4267TIP3    H212766   4.905   6.556   1.828
 4268TIP3   OH212767   4.341   6.291   1.050
 4268TIP3    H112768   4.327   6.318   0.959
 4268TIP3    H212769   4.361   6.372   1.097
 4269TIP3   OH212770   5.852   6.757   1.334
 4269TIP3    H112771   5.768   6.726   1.369
 4269TIP3    H212772   5.833   6.845   1.299
 4270TIP3   OH212773   6.108   5.662   1.634
 4270TIP3    H112774   6.025   5.686   1.593
 4270TIP3    H212775   6.175   5.688   1.570
 4271TIP3   OH212776   5.386   5.306   1.622
 4271TIP3    H112777   5.378   5.213   1.645
 4271TIP3    H212778   5.311   5.347   1.664
 4272TIP3   OH212779   5.528   6.864   0.885
 4272TIP3    H112780   5.523   6.829   0.796
 4272TIP3    H212781   5.560   6.953   0.874
 4273TIP3   OH212782   5.657   6.534   0.750
 4273TIP3    H112783   5.566   6.565   0.749
 4273TIP3    H212784   5.695   6.572   0.829
 4274TIP3   OH212785   6.019   6.660   1.551
 4274TIP3    H112786   6.031   6.580   1.499
 4274TIP3    H212787   5.977   6.721   1.491
 4275TIP3   OH212788   5.310   6.295   0.765
 4275TIP3    H112789   5.240   6.268   0.824
 4275TIP3    H212790   5.373   6.224   0.768
 4276TIP3   OH212791   6.232   6.304   1.422
 4276TIP3    H112792   6.152   6.349   1.392
 4276TIP3    H212793   6.279   6.370   1.471
 4277TIP3   OH212794   5.647   6.106   0.810
 4277TIP3    H112795   5.618   6.191   0.843
 4277TIP3    H212796   5.717   6.126   0.749
 4278TIP3   OH212797   5.899   6.218   1.751
 4278TIP3    H112798   5.910   6.308   1.781
 4278TIP3    H212799   5.812   6.217   1.711
 4279TIP3   OH212800   4.864   6.122   1.291
 4279TIP3    H112801   4.833   6.069   1.217
 4279TIP3    H212802   4.947   6.081   1.316
 4280TIP3   OH212803   5.054   6.577   1.430
 4280TIP3    H112804   5.011   6.561   1.346
 4280TIP3    H212805   5.139   6.534   1.421
 4281TIP3   OH212806   5.027   6.145   1.612
 4281TIP3    H112807   5.057   6.119   1.525
 4281TIP3    H212808   5.072   6.228   1.630
 4282TIP3   OH212809   5.586   6.775   1.422
 4282TIP3    H112810   5.571   6.846   1.484
 4282TIP3    H212811   5.562   6.696   1.471
 4283TIP3   OH212812   5.173   6.705   1.934
 4283TIP3    H112813   5.110   6.763   1.978
 4283TIP3    H212814   5.120   6.646   1.882
 4284TIP3   OH212815   4.932   6.238   2.063
 4284TIP3    H112816   4.936   6.330   2.087
 4284TIP3    H212817   4.838   6.218   2.061
 4285TIP3   OH212818   5.203   6.770   0.971
 4285TIP3    H112819   5.259   6.764   0.894
 4285TIP3    H212820   5.151   6.689   0.970
 4286TIP3   OH212821   4.964   6.861   2.025
 4286TIP3    H112822   4.931   6.859   1.935
 4286TIP3    H212823   4.888   6.837   2.079
 4287TIP3   OH212824   5.993   5.258   0.683
 4287TIP3    H112825   5.906   5.284   0.715
 4287TIP3    H212826   6.036   5.340   0.659
 4288TIP3   OH212827   4.766   5.997   1.073
 4288TIP3    H112828   4.694   6.055   1.046
 4288TIP3    H212829   4.738   5.911   1.043
 4289TIP3   OH212830   4.557   6.397   1.962
 4289TIP3    H112831   4.488   6.379   1.898
 4289TIP3    H212832   4.592   6.311   1.985
 4290TIP3   OH212833   4.415   6.582   1.598
 4290TIP3    H112834   4.510   6.577   1.587
 4290TIP3    H212835   4.402   6.655   1.659
 4291TIP3   OH212836   5.373   6.818   1.785
 4291TIP3    H112837   5.378   6.908   1.816
 4291TIP3    H212838   5.304   6.778   1.838
 4292TIP3   OH212839   4.568   6.810   1.192
 4292TIP3    H112840   4.636   6.801   1.259
 4292TIP3    H212841   4.548   6.720   1.167
 4293TIP3   OH212842   6.172   6.170   1.932
 4293TIP3    H112843   6.082   6.190   1.905
 4293TIP3    H212844   6.181   6.076   1.919
 4294TIP3   OH212845   4.758   6.584   1.939
 4294TIP3    H112846   4.807   6.570   2.021
 4294TIP3    H212847   4.686   6.521   1.944
 4295TIP3   OH212848   5.151   5.400   1.744
 4295TIP3    H112849   5.068   5.366   1.711
 4295TIP3    H212850   5.127   5.478   1.793
 4296TIP3   OH212851   5.693   5.521   1.947
 4296TIP3    H112852   5.763   5.485   2.002
 4296TIP3    H212853   5.612   5.492   1.989
 4297TIP3   OH212854   5.904   5.951   1.854
 4297TIP3    H112855   5.874   5.970   1.943
 4297TIP3    H212856   5.900   6.036   1.809
 4298TIP3   OH212857   5.250   5.492   0.555
 4298TIP3    H112858   5.204   5.535   0.626
 4298TIP3    H212859   5.241   5.398   0.574
 4299TIP3   OH212860   5.085   5.920   1.756
 4299TIP3    H112861   5.039   5.931   1.839
 4299TIP3    H212862   5.068   6.002   1.708
 4300TIP3   OH212863   4.963   5.814   1.305
 4300TIP3    H112864   4.873   5.788   1.325
 4300TIP3    H212865   4.979   5.779   1.217
 4301TIP3   OH212866   5.504   5.846   1.029
 4301TIP3    H112867   5.414   5.879   1.029
 4301TIP3    H212868   5.530   5.846   0.937
 4302TIP3   OH212869   5.557   5.864   1.300
 4302TIP3    H112870   5.532   5.897   1.214
 4302TIP3    H212871   5.555   5.769   1.290
 4303TIP3   OH212872   4.907   5.936   1.968
 4303TIP3    H112873   4.930   6.000   2.035
 4303TIP3    H212874   4.889   5.855   2.017
 4304TIP3   OH212875   4.908   5.357   0.637
 4304TIP3    H112876   4.885   5.381   0.727
 4304TIP3    H212877   4.929   5.440   0.594
 4305TIP3   OH212878   4.508   5.463   1.551
 4305TIP3    H112879   4.580   5.496   1.605
 4305TIP3    H212880   4.550   5.433   1.471
 4306TIP3   OH212881   4.423   5.419   1.084
 4306TIP3    H112882   4.488   5.474   1.041
 4306TIP3    H212883   4.356   5.481   1.114
 4307TIP3   OH212884   5.631   6.153   1.661
 4307TIP3    H112885   5.671   6.089   1.601
 4307TIP3    H212886   5.598   6.101   1.734
 4308TIP3   OH212887   5.326   5.575   1.390
 4308TIP3    H112888   5.241   5.576   1.432
 4308TIP3    H212889   5.389   5.579   1.462
 4309TIP3   OH212890   4.731   5.684   1.344
 4309TIP3    H112891   4.642   5.689   1.308
 4309TIP3    H212892   4.754   5.591   1.337
 4310TIP3   OH212893   4.984   5.693   1.063
 4310TIP3    H112894   5.075   5.718   1.046
 4310TIP3    H212895   4.933   5.754   1.011
 4311TIP3   OH212896   5.791   5.685   1.540
 4311TIP3    H112897   5.768   5.706   1.630
 4311TIP3    H212898   5.724   5.624   1.511
 4312TIP3   OH212899   4.813   5.792   0.878
 4312TIP3    H112900   4.739   5.736   0.855
 4312TIP3    H212901   4.856   5.811   0.794
 4313TIP3   OH212902   4.916   6.501   2.167
 4313TIP3    H112903   4.994   6.534   2.212
 4313TIP3    H212904   4.847   6.504   2.233
 4314TIP3   OH212905   5.363   5.969   1.457
 4314TIP3    H112906   5.429   5.926   1.404
 4314TIP3    H212907   5.361   5.919   1.539
 4315TIP3   OH212908   4.868   5.441   1.366
 4315TIP3    H112909   4.843   5.359   1.409
 4315TIP3    H212910   4.880   5.416   1.274
 4316TIP3   OH212911   5.345   5.851   1.708
 4316TIP3    H112912   5.256   5.882   1.726
 4316TIP3    H212913   5.401   5.914   1.752
 4317TIP3   OH212914   5.092   6.246   0.922
 4317TIP3    H112915   5.019   6.213   0.870
 4317TIP3    H212916   5.052   6.279   1.002
 4318TIP3   OH212917   5.990   6.447   1.374
 4318TIP3    H112918   5.979   6.480   1.284
 4318TIP3    H212919   5.902   6.424   1.402
 4319TIP3   OH212920   5.548   5.531   0.644
 4319TIP3    H112921   5.458   5.500   0.646
 4319TIP3    H212922   5.562   5.569   0.731
 4320TIP3   OH212923   5.485   6.553   1.831
 4320TIP3    H112924   5.571   6.560   1.873
 4320TIP3    H212925   5.457   6.644   1.818
 4321TIP3   OH212926   5.714   5.851   0.802
 4321TIP3    H112927   5.803   5.859   0.837
 4321TIP3    H212928   5.679   5.940   0.805
 4322TIP3   OH212929   4.776   6.259   1.504
 4322TIP3    H112930   4.801   6.218   1.422
 4322TIP3    H212931   4.822   6.209   1.571
 4323TIP3   OH212932   4.662   6.168   2.096
 4323TIP3    H112933   4.665   6.142   2.188
 4323TIP3    H212934   4.589   6.118   2.060
 4324TIP3   OH212935   5.653   6.788   1.736
 4324TIP3    H112936   5.561   6.815   1.731
 4324TIP3    H212937   5.691   6.844   1.804
 4325TIP3   OH212938   5.721   6.359   1.388
 4325TIP3    H112939   5.632   6.324   1.400
 4325TIP3    H212940   5.774   6.283   1.364
 4326TIP3   OH212941   4.913   6.587   1.197
 4326TIP3    H112942   4.943   6.661   1.143
 4326TIP3    H212943   4.830   6.562   1.157
 4327TIP3   OH212944   4.421   5.867   0.861
 4327TIP3    H112945   4.471   5.945   0.838
 4327TIP3    H212946   4.365   5.895   0.933
 4328TIP3   OH212947   4.973   6.324   1.143
 4328TIP3    H112948   4.947   6.413   1.168
 4328TIP3    H212949   4.921   6.267   1.200
 4329TIP3   OH212950   5.178   6.897   1.595
 4329TIP3    H112951   5.212   6.973   1.548
 4329TIP3    H212952   5.255   6.858   1.637
 4330TIP3   OH212953   4.796   6.819   1.007
 4330TIP3    H112954   4.700   6.813   1.012
 4330TIP3    H212955   4.815   6.910   1.029
 4331TIP3   OH212956   5.538   6.536   1.556
 4331TIP3    H112957   5.523   6.534   1.650
 4331TIP3    H212958   5.626   6.500   1.545
 4332TIP3   OH212959   4.862   5.689   2.103
 4332TIP3    H112960   4.768   5.703   2.108
 4332TIP3    H212961   4.882   5.630   2.176
 4333TIP3   OH212962   4.598   6.771   1.752
 4333TIP3    H112963   4.655   6.714   1.805
 4333TIP3    H212964   4.618   6.859   1.783
 4334TIP3   OH212965   4.833   6.465   0.735
 4334TIP3    H112966   4.906   6.434   0.681
 4334TIP3    H212967   4.809   6.549   0.696
 4335TIP3   OH212968   4.576   6.166   0.973
 4335TIP3    H112969   4.497   6.194   1.019
 4335TIP3    H212970   4.584   6.226   0.899
 4336TIP3   OH212971   5.719   5.750   1.798
 4336TIP3    H112972   5.800   5.794   1.824
 4336TIP3    H212973   5.718   5.670   1.849
 4337TIP3   OH212974   5.633   5.405   1.063
 4337TIP3    H112975   5.586   5.460   1.001
 4337TIP3    H212976   5.701   5.462   1.099
 4338TIP3   OH212977   5.278   5.752   1.188
 4338TIP3    H112978   5.341   5.699   1.139
 4338TIP3    H212979   5.267   5.706   1.271
 4339TIP3   OH212980   5.555   5.969   1.852
 4339TIP3    H112981   5.524   5.953   1.941
 4339TIP3    H212982   5.606   5.891   1.830
 4340TIP3   OH212983   5.419   5.370   1.224
 4340TIP3    H112984   5.406   5.444   1.283
 4340TIP3    H212985   5.508   5.381   1.190
 4341TIP3   OH212986   4.765   6.722   0.675
 4341TIP3    H112987   4.848   6.755   0.710
 4341TIP3    H212988   4.701   6.741   0.744
 4342TIP3   OH212989   4.885   5.373   1.105
 4342TIP3    H112990   4.875   5.455   1.058
 4342TIP3    H212991   4.979   5.356   1.105
 4343TIP3   OH212992   6.176   5.898   1.857
 4343TIP3    H112993   6.081   5.893   1.846
 4343TIP3    H212994   6.211   5.887   1.768
 4344TIP3   OH212995   5.868   6.152   1.295
 4344TIP3    H112996   5.795   6.118   1.243
 4344TIP3    H212997   5.909   6.074   1.332
 4345TIP3   OH212998   4.596   6.306   0.733
 4345TIP3    H112999   4.663   6.374   0.731
 4345TIP3    H213000   4.572   6.294   0.641
 4346TIP3   OH213001   4.515   5.641   0.968
 4346TIP3    H113002   4.480   5.729   0.959
 4346TIP3    H213003   4.510   5.604   0.880
 4347TIP3   OH213004   4.891   5.310   1.709
 4347TIP3    H113005   4.860   5.277   1.625
 4347TIP3    H213006   4.880   5.236   1.770
 4348TIP3   OH213007   4.394   6.541   1.157
 4348TIP3    H113008   4.367   6.590   1.235
 4348TIP3    H213009   4.349   6.584   1.085
 4349TIP3   OH213010   7.056   0.088   2.200
 4349TIP3    H113011   7.140   0.083   2.245
 4349TIP3    H213012   7.025  -0.003   2.198
 4350TIP3   OH213013   0.157   0.055   2.201
 4350TIP3    H113014   0.243   0.014   2.195
 4350TIP3    H213015   0.103   0.006   2.139
 4351TIP3   OH213016   5.704   6.934   1.965
 4351TIP3    H113017   5.659   6.878   2.028
 4351TIP3    H213018   5.793   6.942   1.999
 4352TIP3   OH213019   4.714   6.485   2.357
 4352TIP3    H113020   4.730   6.391   2.365
 4352TIP3    H213021   4.627   6.491   2.317
 4353TIP3   OH213022   4.651   6.034   0.463
 4353TIP3    H113023   4.639   5.998   0.551
 4353TIP3    H213024   4.712   6.107   0.475
 4354TIP3   OH213025   5.316   6.553   2.114
 4354TIP3    H113026   5.273   6.602   2.045
 4354TIP3    H213027   5.390   6.510   2.071
 4355TIP3   OH213028   5.804   6.559   1.698
 4355TIP3    H113029   5.889   6.589   1.665
 4355TIP3    H213030   5.754   6.639   1.713
 4356TIP3   OH213031   4.832   6.233   2.365
 4356TIP3    H113032   4.909   6.203   2.316
 4356TIP3    H213033   4.867   6.261   2.450
 4357TIP3   OH213034   4.884   6.077   0.822
 4357TIP3    H113035   4.865   6.034   0.905
 4357TIP3    H213036   4.960   6.031   0.788
 4358TIP3   OH213037   5.167   6.098   2.007
 4358TIP3    H113038   5.092   6.157   2.022
 4358TIP3    H213039   5.218   6.142   1.939
 4359TIP3   OH213040   4.983   5.821   0.647
 4359TIP3    H113041   4.962   5.751   0.586
 4359TIP3    H213042   4.983   5.900   0.594
 4360TIP3   OH213043   5.694   6.525   2.130
 4360TIP3    H113044   5.779   6.514   2.088
 4360TIP3    H213045   5.707   6.495   2.220
 4361TIP3   OH213046   5.344   5.915   2.098
 4361TIP3    H113047   5.324   5.831   2.058
 4361TIP3    H213048   5.280   5.976   2.061
 4362TIP3   OH213049   5.302   5.687   1.935
 4362TIP3    H113050   5.324   5.724   1.849
 4362TIP3    H213051   5.210   5.663   1.927
 4363TIP3   OH213052   5.319   6.217   1.810
 4363TIP3    H113053   5.408   6.250   1.793
 4363TIP3    H213054   5.262   6.279   1.765
 4364TIP3   OH213055   5.891   6.168   2.204
 4364TIP3    H113056   5.981   6.135   2.210
 4364TIP3    H213057   5.902   6.260   2.176
 4365TIP3   OH213058   5.192   5.991   2.356
 4365TIP3    H113059   5.121   5.929   2.376
 4365TIP3    H213060   5.206   5.981   2.262
 4366TIP3   OH213061   5.428   5.452   2.018
 4366TIP3    H113062   5.384   5.532   1.990
 4366TIP3    H213063   5.362   5.383   2.008
 4367TIP3   OH213064   5.551   6.014   2.252
 4367TIP3    H113065   5.527   5.975   2.336
 4367TIP3    H213066   5.478   5.993   2.194
 4368TIP3   OH213067   5.796   5.901   2.123
 4368TIP3    H113068   5.750   5.818   2.109
 4368TIP3    H213069   5.883   5.876   2.152
 4369TIP3   OH213070   6.029   5.838   2.246
 4369TIP3    H113071   6.048   5.745   2.255
 4369TIP3    H213072   6.032   5.872   2.335
 4370TIP3   OH213073   5.027   5.771   2.425
 4370TIP3    H113074   5.022   5.682   2.389
 4370TIP3    H213075   5.062   5.759   2.513
 4371TIP3   OH213076   5.507   5.448   2.283
 4371TIP3    H113077   5.573   5.380   2.279
 4371TIP3    H213078   5.470   5.451   2.195
 4372TIP3   OH213079   5.599   5.671   2.417
 4372TIP3    H113080   5.569   5.594   2.368
 4372TIP3    H213081   5.522   5.729   2.420
 4373TIP3   OH213082   4.312   6.298   0.774
 4373TIP3    H113083   4.404   6.324   0.764
 4373TIP3    H213084   4.311   6.207   0.745
 4374TIP3   OH213085   4.174   6.874   1.189
 4374TIP3    H113086   4.117   6.811   1.145
 4374TIP3    H213087   4.226   6.820   1.249
 4375TIP3   OH213088   4.329   6.720   1.362
 4375TIP3    H113089   4.323   6.659   1.435
 4375TIP3    H213090   4.395   6.784   1.389
 4376TIP3   OH213091   6.044   6.190   0.835
 4376TIP3    H113092   6.003   6.154   0.914
 4376TIP3    H213093   6.136   6.165   0.842
 4377TIP3   OH213094   5.942   6.047   1.042
 4377TIP3    H113095   5.957   5.981   0.974
 4377TIP3    H213096   6.004   6.026   1.111
 4378TIP3   OH213097   4.530   6.146   1.724
 4378TIP3    H113098   4.521   6.111   1.635
 4378TIP3    H213099   4.625   6.146   1.739
 4379TIP3   OH213100   6.385   6.331   1.864
 4379TIP3    H113101   6.301   6.295   1.893
 4379TIP3    H213102   6.443   6.255   1.860
 4380TIP3   OH213103   5.975   5.854   0.870
 4380TIP3    H113104   6.000   5.790   0.937
 4380TIP3    H213105   6.018   5.824   0.790
 4381TIP3   OH213106   6.047   5.955   1.376
 4381TIP3    H113107   6.135   5.966   1.341
 4381TIP3    H213108   6.050   5.995   1.463
 4382TIP3   OH213109   6.113   6.113   1.594
 4382TIP3    H113110   6.046   6.155   1.647
 4382TIP3    H213111   6.150   6.184   1.541
 4383TIP3   OH213112   4.760   5.838   2.406
 4383TIP3    H113113   4.855   5.824   2.406
 4383TIP3    H213114   4.724   5.752   2.430
 4384TIP3   OH213115   6.591   5.709   2.139
 4384TIP3    H113116   6.647   5.646   2.094
 4384TIP3    H213117   6.551   5.760   2.069
 4385TIP3   OH213118   6.091   5.444   0.905
 4385TIP3    H113119   6.063   5.400   0.985
 4385TIP3    H213120   6.011   5.486   0.872
 4386TIP3   OH213121   4.717   5.528   1.721
 4386TIP3    H113122   4.774   5.451   1.728
 4386TIP3    H213123   4.777   5.601   1.709
 4387TIP3   OH213124   4.506   5.794   1.788
 4387TIP3    H113125   4.557   5.789   1.707
 4387TIP3    H213126   4.531   5.877   1.827
 4388TIP3   OH213127   6.431   5.824   1.953
 4388TIP3    H113128   6.349   5.870   1.971
 4388TIP3    H213129   6.407   5.756   1.890
 4389TIP3   OH213130   4.487   5.285   1.309
 4389TIP3    H113131   4.400   5.278   1.349
 4389TIP3    H213132   4.473   5.340   1.232
 4390TIP3   OH213133   4.714   5.371   2.108
 4390TIP3    H113134   4.664   5.365   2.189
 4390TIP3    H213135   4.655   5.416   2.047
 4391TIP3   OH213136   4.758   6.806   2.201
 4391TIP3    H113137   4.666   6.792   2.182
 4391TIP3    H213138   4.767   6.789   2.294
 4392TIP3   OH213139   4.949   6.851   1.739
 4392TIP3    H113140   4.897   6.923   1.704
 4392TIP3    H213141   5.035   6.860   1.696
 4393TIP3   OH213142   0.485   0.107   1.853
 4393TIP3    H113143   0.540   0.107   1.932
 4393TIP3    H213144   0.547   0.112   1.781
 4394TIP3   OH213145   6.348   5.586   1.827
 4394TIP3    H113146   6.264   5.585   1.782
 4394TIP3    H213147   6.380   5.496   1.821
 4395TIP3   OH213148   7.087   0.078   1.767
 4395TIP3    H113149   6.997   0.105   1.748
 4395TIP3    H213150   7.113   0.131   1.842
 4396TIP3   OH213151   7.319   0.107   1.624
 4396TIP3    H113152   7.235   0.101   1.670
 4396TIP3    H213153   7.298   0.148   1.540
 4397TIP3   OH213154   0.334   0.130   1.447
 4397TIP3    H113155   0.286   0.127   1.364
 4397TIP3    H213156   0.341   0.223   1.468
 4398TIP3   OH213157   0.580   0.051   1.537
 4398TIP3    H113158   0.489   0.071   1.514
 4398TIP3    H213159   0.631   0.088   1.465
 4399TIP3   OH213160   4.519   6.880   1.511
 4399TIP3    H113161   4.540   6.852   1.600
 4399TIP3    H213162   4.594   6.852   1.458
 4400TIP3   OH213163   4.741   6.776   1.398
 4400TIP3    H113164   4.751   6.690   1.438
 4400TIP3    H213165   4.830   6.811   1.393
 4401TIP3   OH213166   5.007   6.855   1.382
 4401TIP3    H113167   5.027   6.762   1.370
 4401TIP3    H213168   5.055   6.879   1.461
 4402TIP3   OH213169   5.578   5.501   1.492
 4402TIP3    H113170   5.527   5.429   1.529
 4402TIP3    H213171   5.641   5.458   1.434
 4403TIP3   OH213172   6.030   5.400   1.416
 4403TIP3    H113173   6.075   5.429   1.337
 4403TIP3    H213174   5.937   5.413   1.397
 4404TIP3   OH213175   6.173   5.437   1.187
 4404TIP3    H113176   6.239   5.397   1.131
 4404TIP3    H213177   6.206   5.526   1.203
 4405TIP3   OH213178   4.797   5.202   1.475
 4405TIP3    H113179   4.708   5.169   1.480
 4405TIP3    H213180   4.851   5.123   1.463
 4406TIP3   OH213181   4.610   5.112   1.127
 4406TIP3    H113182   4.634   5.179   1.062
 4406TIP3    H213183   4.571   5.162   1.199
 4407TIP3   OH213184   5.238   5.242   1.384
 4407TIP3    H113185   5.276   5.296   1.315
 4407TIP3    H213186   5.283   5.270   1.464
 4408TIP3   OH213187   5.767   5.380   1.339
 4408TIP3    H113188   5.805   5.354   1.255
 4408TIP3    H213189   5.762   5.298   1.389
 4409TIP3   OH213190   5.768   5.325   0.830
 4409TIP3    H113191   5.727   5.391   0.886
 4409TIP3    H213192   5.749   5.241   0.872
 4410TIP3   OH213193   4.260   6.687   0.970
 4410TIP3    H113194   4.186   6.638   0.934
 4410TIP3    H213195   4.262   6.768   0.920
 4411TIP3   OH213196   4.700   5.284   0.904
 4411TIP3    H113197   4.743   5.202   0.878
 4411TIP3    H213198   4.762   5.325   0.964
 4412TIP3   OH213199   5.159   5.429   1.107
 4412TIP3    H113200   5.219   5.357   1.091
 4412TIP3    H213201   5.159   5.480   1.026
 4413TIP3   OH213202   5.019   5.493   2.350
 4413TIP3    H113203   4.981   5.427   2.407
 4413TIP3    H213204   5.111   5.498   2.377
 4414TIP3   OH213205   5.271   5.497   2.471
 4414TIP3    H113206   5.350   5.471   2.424
 4414TIP3    H213207   5.258   5.428   2.537
 4415TIP3   OH213208   6.097   5.571   2.257
 4415TIP3    H113209   6.113   5.542   2.347
 4415TIP3    H213210   6.182   5.567   2.214
 4416TIP3   OH213211   6.328   5.834   1.036
 4416TIP3    H113212   6.380   5.814   1.114
 4416TIP3    H213213   6.305   5.749   0.999
 4417TIP3   OH213214   6.695   5.929   1.685
 4417TIP3    H113215   6.636   5.935   1.610
 4417TIP3    H213216   6.710   5.836   1.697
 4418TIP3   OH213217   6.762   5.643   1.249
 4418TIP3    H113218   6.736   5.674   1.162
 4418TIP3    H213219   6.730   5.553   1.253
 4419TIP3   OH213220   6.766   6.042   1.937
 4419TIP3    H113221   6.769   5.994   1.854
 4419TIP3    H213222   6.821   5.991   1.996
 4420TIP3   OH213223   6.503   6.080   1.858
 4420TIP3    H113224   6.598   6.091   1.867
 4420TIP3    H213225   6.485   5.997   1.903
 4421TIP3   OH213226   6.508   5.833   1.267
 4421TIP3    H113227   6.526   5.740   1.276
 4421TIP3    H213228   6.588   5.876   1.297
 4422TIP3   OH213229   6.302   6.013   1.319
 4422TIP3    H113230   6.387   5.977   1.292
 4422TIP3    H213231   6.323   6.098   1.357
 4423TIP3   OH213232   6.299   5.620   0.864
 4423TIP3    H113233   6.221   5.566   0.879
 4423TIP3    H213234   6.336   5.586   0.783
 4424TIP3   OH213235   6.524   5.642   1.608
 4424TIP3    H113236   6.478   5.631   1.691
 4424TIP3    H213237   6.458   5.673   1.547
 4425TIP3   OH213238   6.577   5.449   0.908
 4425TIP3    H113239   6.489   5.412   0.904
 4425TIP3    H213240   6.613   5.415   0.990
 4426TIP3   OH213241   6.811   5.712   1.838
 4426TIP3    H113242   6.777   5.651   1.904
 4426TIP3    H213243   6.893   5.744   1.875
 4427TIP3   OH213244   7.047   5.739   1.984
 4427TIP3    H113245   7.123   5.707   1.935
 4427TIP3    H213246   7.031   5.671   2.050
 4428TIP3   OH213247   0.856   6.735   3.351
 4428TIP3    H113248   0.900   6.660   3.312
 4428TIP3    H213249   0.923   6.774   3.408
 4429TIP3   OH213250   0.579   6.547   3.061
 4429TIP3    H113251   0.501   6.535   3.007
 4429TIP3    H213252   0.645   6.489   3.021
 4430TIP3   OH213253   0.273   6.445   2.591
 4430TIP3    H113254   0.286   6.507   2.519
 4430TIP3    H213255   0.210   6.381   2.557
 4431TIP3   OH213256   0.312   6.544   2.342
 4431TIP3    H113257   0.287   6.464   2.295
 4431TIP3    H213258   0.389   6.576   2.296
 4432TIP3   OH213259   1.446   6.546   2.361
 4432TIP3    H113260   1.437   6.462   2.318
 4432TIP3    H213261   1.391   6.539   2.440
 4433TIP3   OH213262   2.096   6.563   1.344
 4433TIP3    H113263   2.033   6.581   1.414
 4433TIP3    H213264   2.054   6.597   1.265
 4434TIP3   OH213265   1.185   6.721   2.423
 4434TIP3    H113266   1.106   6.667   2.422
 4434TIP3    H213267   1.164   6.793   2.483
 4435TIP3   OH213268   1.770   6.786   2.570
 4435TIP3    H113269   1.833   6.771   2.640
 4435TIP3    H213270   1.685   6.791   2.613
 4436TIP3   OH213271   0.962   6.579   2.451
 4436TIP3    H113272   0.902   6.562   2.378
 4436TIP3    H213273   0.955   6.500   2.506
 4437TIP3   OH213274   1.507   6.732   2.624
 4437TIP3    H113275   1.488   6.803   2.563
 4437TIP3    H213276   1.420   6.700   2.651
 4438TIP3   OH213277   1.545   6.708   2.898
 4438TIP3    H113278   1.614   6.642   2.905
 4438TIP3    H213279   1.518   6.704   2.806
 4439TIP3   OH213280   1.639   6.837   3.118
 4439TIP3    H113281   1.610   6.780   3.046
 4439TIP3    H213282   1.569   6.902   3.126
 4440TIP3   OH213283   5.125   0.020   2.842
 4440TIP3    H113284   5.176  -0.055   2.812
 4440TIP3    H213285   5.183   0.066   2.903
 4441TIP3   OH213286   0.809   6.610   2.765
 4441TIP3    H113287   0.785   6.677   2.829
 4441TIP3    H213288   0.728   6.593   2.717
 4442TIP3   OH213289   2.387   6.800   2.534
 4442TIP3    H113290   2.294   6.779   2.520
 4442TIP3    H213291   2.433   6.719   2.513
 4443TIP3   OH213292   1.597   6.674   2.109
 4443TIP3    H113293   1.513   6.697   2.070
 4443TIP3    H213294   1.660   6.683   2.037
 4444TIP3   OH213295   2.133   6.594   1.964
 4444TIP3    H113296   2.138   6.653   1.889
 4444TIP3    H213297   2.042   6.599   1.993
 4445TIP3   OH213298   2.183   6.764   1.759
 4445TIP3    H113299   2.242   6.720   1.698
 4445TIP3    H213300   2.117   6.805   1.702
 4446TIP3   OH213301   0.807   6.433   1.973
 4446TIP3    H113302   0.771   6.507   2.023
 4446TIP3    H213303   0.868   6.392   2.034
 4447TIP3   OH213304   0.669   6.386   1.747
 4447TIP3    H113305   0.747   6.353   1.702
 4447TIP3    H213306   0.701   6.418   1.831
 4448TIP3   OH213307   1.356   6.479   2.087
 4448TIP3    H113308   1.451   6.479   2.074
 4448TIP3    H213309   1.322   6.517   2.006
 4449TIP3   OH213310   1.874   6.596   2.023
 4449TIP3    H113311   1.818   6.575   1.949
 4449TIP3    H213312   1.842   6.541   2.094
 4450TIP3   OH213313   1.930   6.607   1.549
 4450TIP3    H113314   1.851   6.652   1.520
 4450TIP3    H213315   1.902   6.557   1.626
 4451TIP3   OH213316   1.097   6.676   3.019
 4451TIP3    H113317   1.069   6.625   3.095
 4451TIP3    H213318   1.181   6.714   3.045
 4452TIP3   OH213319   1.334   6.766   3.121
 4452TIP3    H113320   1.405   6.717   3.078
 4452TIP3    H213321   1.328   6.728   3.209
 4453TIP3   OH213322   2.162   6.766   2.907
 4453TIP3    H113323   2.156   6.764   3.003
 4453TIP3    H213324   2.255   6.779   2.889
 4454TIP3   OH213325   3.223   6.843   1.757
 4454TIP3    H113326   3.225   6.753   1.789
 4454TIP3    H213327   3.144   6.881   1.797
 4455TIP3   OH213328   3.859   6.844   0.879
 4455TIP3    H113329   3.785   6.868   0.934
 4455TIP3    H213330   3.819   6.814   0.797
 4456TIP3   OH213331   2.994   6.947   1.876
 4456TIP3    H113332   2.906   6.917   1.851
 4456TIP3    H213333   2.979   7.004   1.951
 4457TIP3   OH213334   6.009   0.068   2.066
 4457TIP3    H113335   6.084   0.050   2.123
 4457TIP3    H213336   5.933   0.048   2.120
 4458TIP3   OH213337   2.737   6.862   1.857
 4458TIP3    H113338   2.698   6.834   1.774
 4458TIP3    H213339   2.727   6.787   1.916
 4459TIP3   OH213340   3.282   6.972   2.129
 4459TIP3    H113341   3.267   7.030   2.055
 4459TIP3    H213342   3.222   6.898   2.115
 4460TIP3   OH213343   3.336   6.960   2.393
 4460TIP3    H113344   3.408   6.897   2.398
 4460TIP3    H213345   3.307   6.955   2.301
 4461TIP3   OH213346   5.893   0.122   2.603
 4461TIP3    H113347   5.864   0.064   2.532
 4461TIP3    H213348   5.823   0.187   2.612
 4462TIP3   OH213349   6.880   0.288   2.276
 4462TIP3    H113350   6.934   0.212   2.254
 4462TIP3    H213351   6.941   0.362   2.273
 4463TIP3   OH213352   2.593   6.897   2.254
 4463TIP3    H113353   2.590   6.876   2.347
 4463TIP3    H213354   2.588   6.992   2.251
 4464TIP3   OH213355   6.656   0.111   1.976
 4464TIP3    H113356   6.566   0.081   1.962
 4464TIP3    H213357   6.709   0.032   1.970
 4465TIP3   OH213358   5.882   0.083   1.660
 4465TIP3    H113359   5.831   0.002   1.663
 4465TIP3    H213360   5.952   0.065   1.597
 4466TIP3   OH213361   6.378  -0.003   1.494
 4466TIP3    H113362   6.411   0.054   1.424
 4466TIP3    H213363   6.284   0.014   1.496
 4467TIP3   OH213364   6.503   0.116   1.276
 4467TIP3    H113365   6.551   0.037   1.251
 4467TIP3    H213366   6.570   0.185   1.275
 4468TIP3   OH213367   2.640   6.767   1.623
 4468TIP3    H113368   2.550   6.735   1.622
 4468TIP3    H213369   2.694   6.690   1.607
 4469TIP3   OH213370   2.448   6.626   1.258
 4469TIP3    H113371   2.489   6.663   1.180
 4469TIP3    H213372   2.387   6.694   1.288
 4470TIP3   OH213373   3.113   6.795   1.502
 4470TIP3    H113374   3.082   6.882   1.476
 4470TIP3    H213375   3.159   6.810   1.584
 4471TIP3   OH213376   3.624   6.949   1.490
 4471TIP3    H113377   3.628   6.913   1.402
 4471TIP3    H213378   3.621   6.873   1.548
 4472TIP3   OH213379   3.647   6.880   1.038
 4472TIP3    H113380   3.574   6.867   0.977
 4472TIP3    H213381   3.637   6.810   1.103
 4473TIP3   OH213382   2.904   6.917   2.493
 4473TIP3    H113383   2.871   6.873   2.571
 4473TIP3    H213384   2.986   6.957   2.522
 4474TIP3   OH213385   5.596   0.042   2.604
 4474TIP3    H113386   5.671  -0.011   2.578
 4474TIP3    H213387   5.577   0.014   2.694
 4475TIP3   OH213388   6.425   0.051   2.387
 4475TIP3    H113389   6.432   0.042   2.483
 4475TIP3    H213390   6.515   0.063   2.358
 4476TIP3   OH213391   0.100   0.137   1.271
 4476TIP3    H113392   0.099   0.043   1.292
 4476TIP3    H213393   0.029   0.174   1.324
 4477TIP3   OH213394   7.277   0.247   1.388
 4477TIP3    H113395   7.197   0.196   1.379
 4477TIP3    H213396   7.257   0.330   1.344
 4478TIP3   OH213397   0.380   0.376   1.565
 4478TIP3    H113398   0.439   0.372   1.641
 4478TIP3    H213399   0.293   0.359   1.601
 4479TIP3   OH213400   7.037   0.130   1.353
 4479TIP3    H113401   6.973   0.124   1.281
 4479TIP3    H213402   7.008   0.064   1.416
 4480TIP3   OH213403   0.122   0.295   1.641
 4480TIP3    H113404   0.066   0.358   1.597
 4480TIP3    H213405   0.070   0.215   1.646
 4481TIP3   OH213406   0.245   0.271   1.895
 4481TIP3    H113407   0.310   0.203   1.877
 4481TIP3    H213408   0.193   0.277   1.814
 4482TIP3   OH213409   0.321   0.428   2.105
 4482TIP3    H113410   0.296   0.376   2.029
 4482TIP3    H213411   0.267   0.507   2.098
 4483TIP3   OH213412   6.829   0.170   1.755
 4483TIP3    H113413   6.786   0.172   1.841
 4483TIP3    H213414   6.762   0.202   1.695
 4484TIP3   OH213415   0.330   0.296   1.213
 4484TIP3    H113416   0.243   0.258   1.205
 4484TIP3    H213417   0.356   0.319   1.124
 4485TIP3   OH213418   6.869   0.044   1.138
 4485TIP3    H113419   6.787  -0.006   1.144
 4485TIP3    H213420   6.938  -0.022   1.140
 4486TIP3   OH213421   4.284   6.915   0.833
 4486TIP3    H113422   4.336   6.954   0.762
 4486TIP3    H213423   4.229   6.987   0.864
 4487TIP3   OH213424   7.336   0.107   1.046
 4487TIP3    H113425   7.418   0.090   1.000
 4487TIP3    H213426   7.362   0.133   1.135
 4488TIP3   OH213427   7.137   0.236   1.980
 4488TIP3    H113428   7.100   0.190   2.056
 4488TIP3    H213429   7.217   0.277   2.014
 4489TIP3   OH213430   7.374   0.309   2.101
 4489TIP3    H113431   7.457   0.272   2.069
 4489TIP3    H213432   7.357   0.261   2.182
 4490TIP3   OH213433   1.630   0.470   5.422
 4490TIP3    H113434   1.611   0.563   5.409
 4490TIP3    H213435   1.558   0.424   5.379
 4491TIP3   OH213436   1.907   0.781   5.508
 4491TIP3    H113437   1.904   0.713   5.575
 4491TIP3    H213438   1.927   0.862   5.556
 4492TIP3   OH213439   1.551   1.214   5.523
 4492TIP3    H113440   1.585   1.144   5.467
 4492TIP3    H213441   1.542   1.175   5.609
 4493TIP3   OH213442   1.463   0.735   5.786
 4493TIP3    H113443   1.429   0.650   5.814
 4493TIP3    H213444   1.550   0.741   5.826
 4494TIP3   OH213445   2.428   0.009   5.824
 4494TIP3    H113446   2.477   0.067   5.882
 4494TIP3    H213447   2.415   0.059   5.744
 4495TIP3   OH213448   2.531   0.218   5.970
 4495TIP3    H113449   2.445   0.252   5.947
 4495TIP3    H213450   2.542   0.239   6.063
 4496TIP3   OH213451   1.545   0.701   5.290
 4496TIP3    H113452   1.511   0.682   5.202
 4496TIP3    H213453   1.491   0.773   5.321
 4497TIP3   OH213454   1.948   1.021   5.653
 4497TIP3    H113455   1.862   1.010   5.693
 4497TIP3    H213456   1.943   1.105   5.607
 4498TIP3   OH213457   1.650   1.053   5.316
 4498TIP3    H113458   1.702   0.973   5.305
 4498TIP3    H213459   1.707   1.124   5.287
 4499TIP3   OH213460   1.806   0.834   5.257
 4499TIP3    H113461   1.745   0.762   5.244
 4499TIP3    H213462   1.850   0.814   5.339
 4500TIP3   OH213463   2.172   0.923   5.984
 4500TIP3    H113464   2.166   0.855   5.918
 4500TIP3    H213465   2.146   1.003   5.938
 4501TIP3   OH213466   1.451   0.350   5.238
 4501TIP3    H113467   1.399   0.272   5.258
 4501TIP3    H213468   1.520   0.318   5.180
 4502TIP3   OH213469   2.378   0.569   5.844
 4502TIP3    H113470   2.293   0.611   5.851
 4502TIP3    H213471   2.406   0.585   5.754
 4503TIP3   OH213472   1.824   0.418   5.236
 4503TIP3    H113473   1.765   0.438   5.308
 4503TIP3    H213474   1.906   0.392   5.278
 4504TIP3   OH213475   4.526   3.969   0.005
 4504TIP3    H113476   4.492   4.054   0.033
 4504TIP3    H213477   4.464   3.906   0.041
 4505TIP3   OH213478   1.708   1.010   5.774
 4505TIP3    H113479   1.683   1.084   5.830
 4505TIP3    H213480   1.675   0.933   5.820
 4506TIP3   OH213481   1.663   0.254   5.083
 4506TIP3    H113482   1.724   0.314   5.127
 4506TIP3    H213483   1.684   0.263   4.990
 4507TIP3   OH213484   1.400   0.936   5.321
 4507TIP3    H113485   1.482   0.985   5.330
 4507TIP3    H213486   1.337   1.000   5.288
 4508TIP3   OH213487   1.982   0.864   4.670
 4508TIP3    H113488   1.980   0.958   4.653
 4508TIP3    H213489   2.072   0.838   4.650
 4509TIP3   OH213490   4.883   4.786  -0.003
 4509TIP3    H113491   4.883   4.690  -0.011
 4509TIP3    H213492   4.800   4.806   0.041
 4510TIP3   OH213493   3.980   4.541   0.000
 4510TIP3    H113494   3.993   4.621   0.052
 4510TIP3    H213495   3.971   4.471   0.066
 4511TIP3   OH213496   1.292   1.174   5.150
 4511TIP3    H113497   1.242   1.152   5.071
 4511TIP3    H213498   1.258   1.258   5.178
 4512TIP3   OH213499   1.494   1.089   4.778
 4512TIP3    H113500   1.546   1.016   4.743
 4512TIP3    H213501   1.527   1.101   4.867
 4513TIP3   OH213502   1.544   1.133   5.048
 4513TIP3    H113503   1.458   1.142   5.089
 4513TIP3    H213504   1.600   1.100   5.118
 4514TIP3   OH213505   4.740   3.956   0.208
 4514TIP3    H113506   4.662   4.011   0.209
 4514TIP3    H213507   4.706   3.867   0.213
 4515TIP3   OH213508   1.743   0.254   4.815
 4515TIP3    H113509   1.698   0.256   4.731
 4515TIP3    H213510   1.821   0.308   4.802
 4516TIP3   OH213511   4.609   5.112   0.091
 4516TIP3    H113512   4.602   5.141  -0.000
 4516TIP3    H213513   4.685   5.160   0.125
 4517TIP3   OH213514   2.148   0.712   5.819
 4517TIP3    H113515   2.173   0.757   5.738
 4517TIP3    H213516   2.065   0.668   5.797
 4518TIP3   OH213517   4.063   4.279   0.124
 4518TIP3    H113518   4.015   4.229   0.190
 4518TIP3    H213519   4.090   4.359   0.170
 4519TIP3   OH213520   1.791   0.006   5.118
 4519TIP3    H113521   1.868   0.029   5.171
 4519TIP3    H213522   1.739   0.086   5.115
 4520TIP3   OH213523   1.400   0.609   5.051
 4520TIP3    H113524   1.341   0.684   5.060
 4520TIP3    H213525   1.376   0.552   5.124
 4521TIP3   OH213526   4.323   4.562   0.004
 4521TIP3    H113527   4.238   4.518   0.008
 4521TIP3    H213528   4.352   4.566   0.095
 4522TIP3   OH213529   2.193   0.115   5.013
 4522TIP3    H113530   2.143   0.062   4.951
 4522TIP3    H213531   2.189   0.204   4.977
 4523TIP3   OH213532   2.420   1.025   6.041
 4523TIP3    H113533   2.329   0.996   6.045
 4523TIP3    H213534   2.456   0.983   5.963
 4524TIP3   OH213535   1.913   0.940   4.939
 4524TIP3    H113536   1.885   0.876   5.004
 4524TIP3    H213537   1.925   0.889   4.859
 4525TIP3   OH213538   1.919   0.590   5.718
 4525TIP3    H113539   1.834   0.590   5.763
 4525TIP3    H213540   1.930   0.501   5.686
 4526TIP3   OH213541   1.282   1.155   5.948
 4526TIP3    H113542   1.320   1.231   5.904
 4526TIP3    H213543   1.357   1.103   5.975
 4527TIP3   OH213544   0.972   1.070   5.333
 4527TIP3    H113545   0.930   1.048   5.416
 4527TIP3    H213546   1.003   1.160   5.345
 4528TIP3   OH213547   1.703   0.755   5.920
 4528TIP3    H113548   1.657   0.759   6.004
 4528TIP3    H213549   1.796   0.754   5.944
 4529TIP3   OH213550   1.667   0.671   4.836
 4529TIP3    H113551   1.728   0.650   4.907
 4529TIP3    H213552   1.581   0.643   4.870
 4530TIP3   OH213553   1.924   1.335   6.002
 4530TIP3    H113554   1.872   1.254   6.002
 4530TIP3    H213555   1.905   1.375   5.918
 4531TIP3   OH213556   1.991   1.140   4.640
 4531TIP3    H113557   2.023   1.209   4.582
 4531TIP3    H213558   1.916   1.179   4.685
 4532TIP3   OH213559   1.844   0.601   5.030
 4532TIP3    H113560   1.827   0.543   5.104
 4532TIP3    H213561   1.939   0.604   5.023
 4533TIP3   OH213562   1.026   0.641   4.823
 4533TIP3    H113563   1.091   0.571   4.815
 4533TIP3    H213564   1.002   0.641   4.915
 4534TIP3   OH213565   1.241   0.829   5.043
 4534TIP3    H113566   1.153   0.851   5.075
 4534TIP3    H213567   1.274   0.911   5.006
 4535TIP3   OH213568   0.991   0.928   5.099
 4535TIP3    H113569   0.969   1.000   5.040
 4535TIP3    H213570   0.985   0.965   5.187
 4536TIP3   OH213571   4.698   3.690   0.219
 4536TIP3    H113572   4.656   3.615   0.176
 4536TIP3    H213573   4.787   3.690   0.185
 4537TIP3   OH213574   1.962   0.321   5.636
 4537TIP3    H113575   1.897   0.254   5.657
 4537TIP3    H213576   2.042   0.291   5.679
 4538TIP3   OH213577   1.965   1.286   5.570
 4538TIP3    H113578   1.921   1.335   5.501
 4538TIP3    H213579   2.058   1.301   5.554
 4539TIP3   OH213580   1.188   0.849   4.733
 4539TIP3    H113581   1.135   0.781   4.776
 4539TIP3    H213582   1.265   0.802   4.701
 4540TIP3   OH213583   4.387   4.620   0.270
 4540TIP3    H113584   4.379   4.573   0.352
 4540TIP3    H213585   4.422   4.706   0.295
 4541TIP3   OH213586   1.627   0.880   4.659
 4541TIP3    H113587   1.660   0.814   4.721
 4541TIP3    H213588   1.688   0.875   4.585
 4542TIP3   OH213589   1.355   0.570   4.782
 4542TIP3    H113590   1.368   0.581   4.876
 4542TIP3    H213591   1.376   0.479   4.765
 4543TIP3   OH213592   4.413   4.253  -0.000
 4543TIP3    H113593   4.480   4.318  -0.020
 4543TIP3    H213594   4.377   4.279   0.085
 4544TIP3   OH213595   4.265   4.222   0.507
 4544TIP3    H113596   4.349   4.177   0.517
 4544TIP3    H213597   4.218   4.170   0.442
 4545TIP3   OH213598   1.961   0.383   4.695
 4545TIP3    H113599   1.944   0.343   4.610
 4545TIP3    H213600   1.934   0.474   4.684
 4546TIP3   OH213601   4.534   4.128   0.249
 4546TIP3    H113602   4.458   4.184   0.261
 4546TIP3    H213603   4.606   4.188   0.227
 4547TIP3   OH213604   0.974   1.138   4.925
 4547TIP3    H113605   1.067   1.127   4.908
 4547TIP3    H213606   0.942   1.190   4.851
 4548TIP3   OH213607   2.233   1.347   5.554
 4548TIP3    H113608   2.247   1.379   5.643
 4548TIP3    H213609   2.286   1.405   5.499
 4549TIP3   OH213610   2.243   1.387   5.829
 4549TIP3    H113611   2.193   1.305   5.831
 4549TIP3    H213612   2.319   1.369   5.884
 4550TIP3   OH213613   4.688   4.643   0.328
 4550TIP3    H113614   4.648   4.638   0.415
 4550TIP3    H213615   4.746   4.719   0.333
 4551TIP3   OH213616   2.121   0.586   5.019
 4551TIP3    H113617   2.181   0.655   4.992
 4551TIP3    H213618   2.160   0.551   5.099
 4552TIP3   OH213619   2.239   0.455   5.229
 4552TIP3    H113620   2.173   0.417   5.287
 4552TIP3    H213621   2.307   0.489   5.288
 4553TIP3   OH213622   2.301   0.852   5.641
 4553TIP3    H113623   2.354   0.785   5.599
 4553TIP3    H213624   2.301   0.925   5.579
 4554TIP3   OH213625   2.099   1.149   5.847
 4554TIP3    H113626   2.022   1.173   5.899
 4554TIP3    H213627   2.063   1.104   5.771
 4555TIP3   OH213628   2.164   0.355   4.875
 4555TIP3    H113629   2.095   0.360   4.809
 4555TIP3    H213630   2.150   0.432   4.930
 4556TIP3   OH213631   2.045   0.022   4.800
 4556TIP3    H113632   2.012   0.105   4.766
 4556TIP3    H213633   1.988  -0.044   4.761
 4557TIP3   OH213634   2.046   0.319   5.370
 4557TIP3    H113635   2.042   0.227   5.347
 4557TIP3    H213636   2.019   0.322   5.462
 4558TIP3   OH213637   4.753   4.246   0.128
 4558TIP3    H113638   4.801   4.180   0.078
 4558TIP3    H213639   4.708   4.298   0.061
 4559TIP3   OH213640   4.979   4.065   0.137
 4559TIP3    H113641   4.896   4.036   0.176
 4559TIP3    H213642   5.041   4.061   0.209
 4560TIP3   OH213643   2.047   0.063   5.251
 4560TIP3    H113644   2.083  -0.020   5.282
 4560TIP3    H213645   2.097   0.083   5.172
 4561TIP3   OH213646   2.186   0.226   5.753
 4561TIP3    H113647   2.268   0.233   5.705
 4561TIP3    H213648   2.206   0.256   5.841
 4562TIP3   OH213649   2.286   0.349   5.975
 4562TIP3    H113650   2.207   0.385   6.015
 4562TIP3    H213651   2.329   0.425   5.934
 4563TIP3   OH213652   1.795   1.248   5.203
 4563TIP3    H113653   1.854   1.240   5.127
 4563TIP3    H213654   1.835   1.317   5.256
 4564TIP3   OH213655   3.987   4.774   0.153
 4564TIP3    H113656   4.013   4.779   0.245
 4564TIP3    H213657   4.043   4.837   0.109
 4565TIP3   OH213658   4.159   4.972   0.051
 4565TIP3    H113659   4.228   4.920   0.009
 4565TIP3    H213660   4.206   5.038   0.101
 4566TIP3   OH213661   0.999   1.314   5.956
 4566TIP3    H113662   0.928   1.258   5.985
 4566TIP3    H213663   0.970   1.349   5.872
 4567TIP3   OH213664   1.414   1.350   5.796
 4567TIP3    H113665   1.342   1.364   5.735
 4567TIP3    H213666   1.426   1.435   5.838
 4568TIP3   OH213667   1.672   1.278   5.863
 4568TIP3    H113668   1.580   1.294   5.843
 4568TIP3    H213669   1.719   1.345   5.813
 4569TIP3   OH213670   1.873   1.458   5.765
 4569TIP3    H113671   1.868   1.544   5.724
 4569TIP3    H213672   1.902   1.400   5.694
 4570TIP3   OH213673   1.131   1.124   5.720
 4570TIP3    H113674   1.142   1.033   5.695
 4570TIP3    H213675   1.166   1.129   5.809
 4571TIP3   OH213676   1.237   1.075   4.880
 4571TIP3    H113677   1.321   1.102   4.843
 4571TIP3    H213678   1.209   1.001   4.826
 4572TIP3   OH213679   1.949   1.209   4.972
 4572TIP3    H113680   1.940   1.113   4.966
 4572TIP3    H213681   1.900   1.242   4.896
 4573TIP3   OH213682   4.632   4.844   0.086
 4573TIP3    H113683   4.552   4.810   0.045
 4573TIP3    H213684   4.625   4.939   0.077
 4574TIP3   OH213685   3.433   0.732   4.913
 4574TIP3    H113686   3.406   0.820   4.887
 4574TIP3    H213687   3.361   0.675   4.887
 4575TIP3   OH213688   3.433   0.717   5.324
 4575TIP3    H113689   3.479   0.700   5.407
 4575TIP3    H213690   3.391   0.634   5.302
 4576TIP3   OH213691   2.740   0.608   5.657
 4576TIP3    H113692   2.765   0.550   5.730
 4576TIP3    H213693   2.822   0.623   5.611
 4577TIP3   OH213694   3.695   1.030   5.002
 4577TIP3    H113695   3.678   0.967   5.072
 4577TIP3    H213696   3.719   1.111   5.048
 4578TIP3   OH213697   2.719   1.023   5.379
 4578TIP3    H113698   2.703   0.929   5.382
 4578TIP3    H213699   2.814   1.031   5.370
 4579TIP3   OH213700   2.399   0.237   5.164
 4579TIP3    H113701   2.351   0.318   5.185
 4579TIP3    H213702   2.335   0.182   5.120
 4580TIP3   OH213703   2.477   0.520   5.358
 4580TIP3    H113704   2.524   0.442   5.387
 4580TIP3    H213705   2.543   0.575   5.318
 4581TIP3   OH213706   3.345   1.475   5.010
 4581TIP3    H113707   3.379   1.406   4.953
 4581TIP3    H213708   3.331   1.432   5.095
 4582TIP3   OH213709   3.235   0.947   5.340
 4582TIP3    H113710   3.274   0.867   5.304
 4582TIP3    H213711   3.310   0.999   5.370
 4583TIP3   OH213712   4.306   0.307   5.365
 4583TIP3    H113713   4.258   0.389   5.350
 4583TIP3    H213714   4.290   0.255   5.287
 4584TIP3   OH213715   3.649   0.423   5.385
 4584TIP3    H113716   3.621   0.340   5.424
 4584TIP3    H213717   3.612   0.420   5.297
 4585TIP3   OH213718   2.997   0.104   5.341
 4585TIP3    H113719   2.956   0.170   5.284
 4585TIP3    H213720   2.952   0.022   5.318
 4586TIP3   OH213721   3.671   0.246   4.939
 4586TIP3    H113722   3.636   0.163   4.907
 4586TIP3    H213723   3.718   0.283   4.863
 4587TIP3   OH213724   2.615   0.300   5.451
 4587TIP3    H113725   2.699   0.289   5.496
 4587TIP3    H213726   2.622   0.244   5.374
 4588TIP3   OH213727   3.048   0.505   5.269
 4588TIP3    H113728   3.141   0.485   5.275
 4588TIP3    H213729   3.007   0.423   5.242
 4589TIP3   OH213730   4.343   0.502   5.607
 4589TIP3    H113731   4.339   0.583   5.556
 4589TIP3    H213732   4.255   0.491   5.642
 4590TIP3   OH213733   3.335   0.950   4.769
 4590TIP3    H113734   3.294   0.924   4.687
 4590TIP3    H213735   3.282   1.024   4.800
 4591TIP3   OH213736   3.085   0.871   5.561
 4591TIP3    H113737   3.027   0.939   5.594
 4591TIP3    H213738   3.130   0.912   5.487
 4592TIP3   OH213739   2.863   0.240   5.546
 4592TIP3    H113740   2.928   0.290   5.596
 4592TIP3    H213741   2.916   0.182   5.491
 4593TIP3   OH213742   2.920   1.071   5.657
 4593TIP3    H113743   2.905   1.160   5.625
 4593TIP3    H213744   2.841   1.050   5.708
 4594TIP3   OH213745   2.300   0.771   4.907
 4594TIP3    H113746   2.262   0.791   4.822
 4594TIP3    H213747   2.325   0.856   4.943
 4595TIP3   OH213748   3.744   1.276   5.144
 4595TIP3    H113749   3.659   1.266   5.186
 4595TIP3    H213750   3.740   1.360   5.099
 4596TIP3   OH213751   3.446   1.312   4.807
 4596TIP3    H113752   3.497   1.232   4.794
 4596TIP3    H213753   3.503   1.382   4.776
 4597TIP3   OH213754   3.586   1.084   4.752
 4597TIP3    H113755   3.516   1.020   4.745
 4597TIP3    H213756   3.635   1.059   4.831
 4598TIP3   OH213757   3.976   1.172   5.492
 4598TIP3    H113758   3.956   1.098   5.434
 4598TIP3    H213759   3.958   1.250   5.439
 4599TIP3   OH213760   3.259   0.577   4.759
 4599TIP3    H113761   3.178   0.624   4.740
 4599TIP3    H213762   3.311   0.588   4.679
 4600TIP3   OH213763   3.208   0.394   4.476
 4600TIP3    H113764   3.261   0.449   4.533
 4600TIP3    H213765   3.272   0.348   4.420
 4601TIP3   OH213766   4.160   0.846   5.361
 4601TIP3    H113767   4.074   0.887   5.358
 4601TIP3    H213768   4.191   0.849   5.270
 4602TIP3   OH213769   3.617   0.667   4.721
 4602TIP3    H113770   3.561   0.693   4.795
 4602TIP3    H213771   3.701   0.645   4.761
 4603TIP3   OH213772   3.840   0.700   5.641
 4603TIP3    H113773   3.837   0.781   5.692
 4603TIP3    H213774   3.755   0.696   5.598
 4604TIP3   OH213775   2.849   0.645   5.134
 4604TIP3    H113776   2.810   0.587   5.068
 4604TIP3    H213777   2.921   0.595   5.172
 4605TIP3   OH213778   2.980   1.067   5.271
 4605TIP3    H113779   2.958   1.045   5.181
 4605TIP3    H213780   3.067   1.028   5.285
 4606TIP3   OH213781   2.966   0.630   5.503
 4606TIP3    H113782   2.999   0.597   5.419
 4606TIP3    H213783   3.013   0.712   5.517
 4607TIP3   OH213784   3.510   1.266   5.279
 4607TIP3    H113785   3.493   1.346   5.328
 4607TIP3    H213786   3.491   1.195   5.340
 4608TIP3   OH213787   3.120   1.171   5.819
 4608TIP3    H113788   3.063   1.231   5.866
 4608TIP3    H213789   3.061   1.118   5.766
 4609TIP3   OH213790   3.440   0.547   4.550
 4609TIP3    H113791   3.504   0.600   4.596
 4609TIP3    H213792   3.464   0.555   4.457
 4610TIP3   OH213793   2.885   0.730   5.938
 4610TIP3    H113794   2.892   0.825   5.945
 4610TIP3    H213795   2.793   0.714   5.920
 4611TIP3   OH213796   3.200   1.189   4.818
 4611TIP3    H113797   3.281   1.239   4.822
 4611TIP3    H213798   3.138   1.247   4.772
 4612TIP3   OH213799   2.919   1.339   5.899
 4612TIP3    H113800   2.893   1.345   5.807
 4612TIP3    H213801   2.837   1.320   5.946
 4613TIP3   OH213802   2.723   0.493   4.929
 4613TIP3    H113803   2.644   0.535   4.895
 4613TIP3    H213804   2.696   0.402   4.945
 4614TIP3   OH213805   3.779   1.122   4.161
 4614TIP3    H113806   3.778   1.215   4.141
 4614TIP3    H213807   3.869   1.095   4.142
 4615TIP3   OH213808   2.504   0.882   5.832
 4615TIP3    H113809   2.436   0.863   5.768
 4615TIP3    H213810   2.544   0.797   5.851
 4616TIP3   OH213811   2.350   1.083   5.490
 4616TIP3    H113812   2.445   1.094   5.499
 4616TIP3    H213813   2.313   1.161   5.531
 4617TIP3   OH213814   4.208   1.538   5.551
 4617TIP3    H113815   4.214   1.443   5.562
 4617TIP3    H213816   4.128   1.563   5.597
 4618TIP3   OH213817   3.309   1.313   5.678
 4618TIP3    H113818   3.306   1.404   5.708
 4618TIP3    H213819   3.242   1.268   5.729
 4619TIP3   OH213820   3.087   1.426   4.635
 4619TIP3    H113821   3.038   1.407   4.556
 4619TIP3    H213822   3.053   1.510   4.665
 4620TIP3   OH213823   2.521   1.273   5.015
 4620TIP3    H113824   2.565   1.267   5.100
 4620TIP3    H213825   2.471   1.192   5.008
 4621TIP3   OH213826   3.288   1.344   4.267
 4621TIP3    H113827   3.339   1.272   4.230
 4621TIP3    H213828   3.323   1.357   4.355
 4622TIP3   OH213829   3.341   1.392   4.535
 4622TIP3    H113830   3.255   1.397   4.577
 4622TIP3    H213831   3.398   1.357   4.603
 4623TIP3   OH213832   4.107   0.660   5.832
 4623TIP3    H113833   4.020   0.693   5.810
 4623TIP3    H213834   4.104   0.567   5.808
 4624TIP3   OH213835   2.694   1.078   5.815
 4624TIP3    H113836   2.751   1.067   5.892
 4624TIP3    H213837   2.630   1.008   5.822
 4625TIP3   OH213838   3.870   0.450   5.762
 4625TIP3    H113839   3.806   0.427   5.830
 4625TIP3    H213840   3.835   0.530   5.723
 4626TIP3   OH213841   3.528   0.563   4.294
 4626TIP3    H113842   3.493   0.523   4.215
 4626TIP3    H213843   3.612   0.600   4.268
 4627TIP3   OH213844   3.052   0.414   5.662
 4627TIP3    H113845   2.993   0.424   5.737
 4627TIP3    H213846   3.030   0.488   5.605
 4628TIP3   OH213847   2.890   0.293   5.175
 4628TIP3    H113848   2.800   0.262   5.188
 4628TIP3    H213849   2.911   0.266   5.085
 4629TIP3   OH213850   3.387   0.369   4.887
 4629TIP3    H113851   3.337   0.443   4.851
 4629TIP3    H213852   3.446   0.344   4.816
 4630TIP3   OH213853   3.576   0.652   5.967
 4630TIP3    H113854   3.548   0.589   6.033
 4630TIP3    H213855   3.668   0.669   5.987
 4631TIP3   OH213856   3.557   0.408   5.124
 4631TIP3    H113857   3.474   0.444   5.094
 4631TIP3    H213858   3.590   0.358   5.050
 4632TIP3   OH213859   2.858   0.444   5.852
 4632TIP3    H113860   2.845   0.501   5.927
 4632TIP3    H213861   2.841   0.356   5.886
 4633TIP3   OH213862   0.435   6.927   4.596
 4633TIP3    H113863   0.426   6.916   4.691
 4633TIP3    H213864   0.353   6.967   4.568
 4634TIP3   OH213865   7.375   6.947   4.977
 4634TIP3    H113866   7.390   6.980   4.888
 4634TIP3    H213867   7.289   6.982   5.001
 4635TIP3   OH213868   3.582   0.632   5.546
 4635TIP3    H113869   3.613   0.566   5.485
 4635TIP3    H213870   3.548   0.581   5.620
 4636TIP3   OH213871   3.243   0.175   5.228
 4636TIP3    H113872   3.165   0.150   5.277
 4636TIP3    H213873   3.302   0.100   5.236
 4637TIP3   OH213874   2.650   0.154   5.214
 4637TIP3    H113875   2.564   0.187   5.191
 4637TIP3    H213876   2.648   0.062   5.189
 4638TIP3   OH213877   2.940   0.194   4.929
 4638TIP3    H113878   3.032   0.179   4.907
 4638TIP3    H213879   2.895   0.197   4.844
 4639TIP3   OH213880   2.792   0.208   4.694
 4639TIP3    H113881   2.721   0.169   4.644
 4639TIP3    H213882   2.849   0.248   4.627
 4640TIP3   OH213883   3.917   1.877   5.649
 4640TIP3    H113884   3.912   1.901   5.556
 4640TIP3    H213885   3.993   1.924   5.682
 4641TIP3   OH213886   5.350   4.484  -0.030
 4641TIP3    H113887   5.422   4.507   0.028
 4641TIP3    H213888   5.280   4.454   0.028
 4642TIP3   OH213889   3.317   0.443   5.320
 4642TIP3    H113890   3.315   0.357   5.277
 4642TIP3    H213891   3.321   0.423   5.413
 4643TIP3   OH213892   3.318   0.371   5.584
 4643TIP3    H113893   3.228   0.374   5.618
 4643TIP3    H213894   3.372   0.405   5.656
 4644TIP3   OH213895   3.025   0.718   4.703
 4644TIP3    H113896   2.952   0.659   4.684
 4644TIP3    H213897   3.004   0.755   4.789
 4645TIP3   OH213898   3.918   0.968   5.316
 4645TIP3    H113899   3.949   1.016   5.239
 4645TIP3    H213900   3.836   0.927   5.288
 4646TIP3   OH213901   3.427   0.102   4.522
 4646TIP3    H113902   3.407   0.028   4.581
 4646TIP3    H213903   3.455   0.172   4.581
 4647TIP3   OH213904   3.434   1.051   5.713
 4647TIP3    H113905   3.466   1.041   5.803
 4647TIP3    H213906   3.390   1.136   5.712
 4648TIP3   OH213907   3.541   0.315   4.656
 4648TIP3    H113908   3.635   0.331   4.668
 4648TIP3    H213909   3.509   0.393   4.611
 4649TIP3   OH213910   2.723   0.741   5.362
 4649TIP3    H113911   2.764   0.717   5.279
 4649TIP3    H213912   2.776   0.697   5.428
 4650TIP3   OH213913   3.179   0.875   4.543
 4650TIP3    H113914   3.134   0.959   4.541
 4650TIP3    H213915   3.124   0.818   4.596
 4651TIP3   OH213916   2.621   0.652   5.942
 4651TIP3    H113917   2.605   0.648   6.036
 4651TIP3    H213918   2.549   0.602   5.903
 4652TIP3   OH213919   3.336   0.796   5.991
 4652TIP3    H113920   3.269   0.736   5.958
 4652TIP3    H213921   3.419   0.758   5.960
 4653TIP3   OH213922   3.582   1.322   5.600
 4653TIP3    H113923   3.487   1.312   5.608
 4653TIP3    H213924   3.609   1.369   5.679
 4654TIP3   OH213925   3.943   0.411   4.505
 4654TIP3    H113926   3.899   0.359   4.437
 4654TIP3    H213927   3.955   0.497   4.464
 4655TIP3   OH213928   4.224   1.256   5.577
 4655TIP3    H113929   4.129   1.244   5.576
 4655TIP3    H213930   4.254   1.221   5.493
 4656TIP3   OH213931   3.710   1.195   4.428
 4656TIP3    H113932   3.678   1.127   4.488
 4656TIP3    H213933   3.723   1.149   4.345
 4657TIP3   OH213934   3.682   0.838   5.223
 4657TIP3    H113935   3.592   0.813   5.246
 4657TIP3    H213936   3.718   0.761   5.180
 4658TIP3   OH213937   2.836   1.062   5.017
 4658TIP3    H113938   2.833   1.140   4.962
 4658TIP3    H213939   2.744   1.047   5.042
 4659TIP3   OH213940   2.401   0.353   4.730
 4659TIP3    H113941   2.444   0.437   4.749
 4659TIP3    H213942   2.321   0.354   4.782
 4660TIP3   OH213943   2.944   0.820   4.939
 4660TIP3    H113944   2.918   0.909   4.963
 4660TIP3    H213945   2.915   0.766   5.012
 4661TIP3   OH213946   3.119   1.391   5.475
 4661TIP3    H113947   3.156   1.464   5.425
 4661TIP3    H213948   3.193   1.357   5.526
 4662TIP3   OH213949   2.753   1.293   4.866
 4662TIP3    H113950   2.667   1.296   4.908
 4662TIP3    H213951   2.785   1.382   4.870
 4663TIP3   OH213952   3.478   1.040   5.442
 4663TIP3    H113953   3.468   1.039   5.537
 4663TIP3    H213954   3.557   0.988   5.426
 4664TIP3   OH213955   3.462   0.932   4.318
 4664TIP3    H113956   3.516   0.905   4.393
 4664TIP3    H213957   3.377   0.890   4.333
 4665TIP3   OH213958   3.732   1.554   5.485
 4665TIP3    H113959   3.657   1.495   5.493
 4665TIP3    H213960   3.708   1.614   5.414
 4666TIP3   OH213961   3.786   1.396   4.126
 4666TIP3    H113962   3.806   1.457   4.054
 4666TIP3    H213963   3.715   1.437   4.174
 4667TIP3   OH213964   2.811   0.195   5.954
 4667TIP3    H113965   2.716   0.193   5.944
 4667TIP3    H213966   2.831   0.121   6.013
 4668TIP3   OH213967   3.635   0.850   4.513
 4668TIP3    H113968   3.622   0.795   4.591
 4668TIP3    H213969   3.730   0.860   4.506
 4669TIP3   OH213970   2.548   1.271   5.635
 4669TIP3    H113971   2.600   1.206   5.684
 4669TIP3    H213972   2.568   1.354   5.678
 4670TIP3   OH213973   2.819   0.901   4.325
 4670TIP3    H113974   2.829   0.809   4.298
 4670TIP3    H213975   2.801   0.896   4.419
 4671TIP3   OH213976   2.764   0.912   4.597
 4671TIP3    H113977   2.834   0.882   4.655
 4671TIP3    H213978   2.766   1.008   4.606
 4672TIP3   OH213979   2.498   0.603   4.807
 4672TIP3    H113980   2.433   0.649   4.860
 4672TIP3    H213981   2.517   0.664   4.735
 4673TIP3   OH213982   3.037   1.106   4.541
 4673TIP3    H113983   2.951   1.128   4.577
 4673TIP3    H213984   3.058   1.179   4.484
 4674TIP3   OH213985   3.219   0.160   4.942
 4674TIP3    H113986   3.275   0.234   4.918
 4674TIP3    H213987   3.220   0.158   5.037
 4675TIP3   OH213988   3.518   0.473   5.764
 4675TIP3    H113989   3.524   0.544   5.828
 4675TIP3    H213990   3.564   0.400   5.806
 4676TIP3   OH213991   2.783   1.185   4.615
 4676TIP3    H113992   2.760   1.255   4.555
 4676TIP3    H213993   2.771   1.223   4.702
 4677TIP3   OH213994   4.123   0.386   5.711
 4677TIP3    H113995   4.032   0.403   5.737
 4677TIP3    H213996   4.116   0.324   5.638
 4678TIP3   OH213997   3.768   0.593   5.121
 4678TIP3    H113998   3.697   0.532   5.140
 4678TIP3    H213999   3.844   0.558   5.168
 4679TIP3   OH214000   2.513   0.789   4.595
 4679TIP3    H114001   2.583   0.853   4.605
 4679TIP3    H214002   2.547   0.725   4.532
 4680TIP3   OH214003   2.437   0.077   4.718
 4680TIP3    H114004   2.447   0.171   4.731
 4680TIP3    H214005   2.351   0.067   4.677
 4681TIP3   OH214006   3.760   1.544   5.063
 4681TIP3    H114007   3.717   1.593   4.993
 4681TIP3    H214008   3.853   1.556   5.047
 4682TIP3   OH214009   2.355   1.041   4.987
 4682TIP3    H114010   2.304   1.075   5.061
 4682TIP3    H214011   2.314   1.082   4.911
 4683TIP3   OH214012   5.014   5.056  -0.014
 4683TIP3    H114013   5.099   5.055   0.031
 4683TIP3    H214014   4.985   4.965  -0.012
 4684TIP3   OH214015   5.490   4.988   0.052
 4684TIP3    H114016   5.584   4.973   0.056
 4684TIP3    H214017   5.459   4.933  -0.020
 4685TIP3   OH214018   2.983   1.097   4.222
 4685TIP3    H114019   2.933   1.027   4.264
 4685TIP3    H214020   3.057   1.053   4.182
 4686TIP3   OH214021   3.642   1.447   5.835
 4686TIP3    H114022   3.646   1.373   5.896
 4686TIP3    H214023   3.718   1.501   5.858
 4687TIP3   OH214024   3.421   1.139   4.143
 4687TIP3    H114025   3.452   1.073   4.204
 4687TIP3    H214026   3.480   1.132   4.068
 4688TIP3   OH214027   5.129   4.387   0.091
 4688TIP3    H114028   5.147   4.415   0.181
 4688TIP3    H214029   5.037   4.410   0.077
 4689TIP3   OH214030   2.644   0.597   4.452
 4689TIP3    H114031   2.696   0.574   4.529
 4689TIP3    H214032   2.708   0.611   4.383
 4690TIP3   OH214033   3.299   1.070   5.999
 4690TIP3    H114034   3.240   1.087   5.925
 4690TIP3    H214035   3.318   0.977   5.993
 4691TIP3   OH214036   3.190   0.820   4.273
 4691TIP3    H114037   3.175   0.833   4.367
 4691TIP3    H214038   3.179   0.726   4.259
 4692TIP3   OH214039   3.749   1.096   5.636
 4692TIP3    H114040   3.826   1.132   5.592
 4692TIP3    H214041   3.681   1.162   5.624
 4693TIP3   OH214042   5.342   4.158   0.167
 4693TIP3    H114043   5.338   4.173   0.072
 4693TIP3    H214044   5.412   4.215   0.198
 4694TIP3   OH214045   2.821   0.535   4.662
 4694TIP3    H114046   2.800   0.506   4.751
 4694TIP3    H214047   2.863   0.459   4.621
 4695TIP3   OH214048   3.136   0.614   5.910
 4695TIP3    H114049   3.048   0.651   5.913
 4695TIP3    H214050   3.168   0.637   5.822
 4696TIP3   OH214051   2.942   0.338   4.507
 4696TIP3    H114052   2.913   0.343   4.416
 4696TIP3    H214053   3.036   0.353   4.503
 4697TIP3   OH214054   3.637   0.983   6.021
 4697TIP3    H114055   3.698   0.936   5.965
 4697TIP3    H214056   3.628   0.927   6.098
 4698TIP3   OH214057   3.760   0.647   4.171
 4698TIP3    H114058   3.745   0.603   4.086
 4698TIP3    H214059   3.731   0.737   4.157
 4699TIP3   OH214060   3.253   0.386   5.997
 4699TIP3    H114061   3.202   0.310   5.971
 4699TIP3    H214062   3.213   0.460   5.952
 4700TIP3   OH214063   3.266   0.711   5.691
 4700TIP3    H114064   3.351   0.736   5.656
 4700TIP3    H214065   3.204   0.770   5.649
 4701TIP3   OH214066   6.302   4.170   0.030
 4701TIP3    H114067   6.329   4.099   0.088
 4701TIP3    H214068   6.381   4.224   0.021
 4702TIP3   OH214069   3.876   0.926   5.803
 4702TIP3    H114070   3.817   0.986   5.757
 4702TIP3    H214071   3.963   0.947   5.769
 4703TIP3   OH214072   5.617   4.002   0.189
 4703TIP3    H114073   5.559   3.926   0.195
 4703TIP3    H214074   5.644   4.004   0.097
 4704TIP3   OH214075   5.957   3.928   0.083
 4704TIP3    H114076   5.937   3.920   0.176
 4704TIP3    H214077   5.876   3.903   0.039
 4705TIP3   OH214078   3.712   0.371   5.974
 4705TIP3    H114079   3.638   0.389   6.032
 4705TIP3    H214080   3.782   0.342   6.033
 4706TIP3   OH214081   5.502   3.754   0.210
 4706TIP3    H114082   5.521   3.664   0.185
 4706TIP3    H214083   5.494   3.752   0.306
 4707TIP3   OH214084   2.772   1.394   4.431
 4707TIP3    H114085   2.862   1.374   4.404
 4707TIP3    H214086   2.734   1.439   4.356
 4708TIP3   OH214087   2.239   0.772   4.617
 4708TIP3    H114088   2.334   0.786   4.612
 4708TIP3    H214089   2.227   0.684   4.580
 4709TIP3   OH214090   2.153   1.366   5.062
 4709TIP3    H114091   2.086   1.311   5.020
 4709TIP3    H214092   2.196   1.307   5.124
 4710TIP3   OH214093   2.290   1.204   5.238
 4710TIP3    H114094   2.279   1.136   5.304
 4710TIP3    H214095   2.341   1.272   5.282
 4711TIP3   OH214096   4.030   1.599   5.049
 4711TIP3    H114097   4.045   1.630   5.139
 4711TIP3    H214098   4.080   1.659   4.994
 4712TIP3   OH214099   4.045   1.635   5.328
 4712TIP3    H114100   3.997   1.552   5.325
 4712TIP3    H214101   4.114   1.620   5.394
 4713TIP3   OH214102   4.093   1.329   5.897
 4713TIP3    H114103   4.019   1.338   5.958
 4713TIP3    H214104   4.137   1.414   5.901
 4714TIP3   OH214105   3.911   0.856   4.507
 4714TIP3    H114106   3.973   0.923   4.478
 4714TIP3    H214107   3.949   0.820   4.587
 4715TIP3   OH214108   4.022   0.731   4.721
 4715TIP3    H114109   3.959   0.687   4.778
 4715TIP3    H214110   4.090   0.763   4.780
 4716TIP3   OH214111   4.099   1.103   5.144
 4716TIP3    H114112   4.144   1.035   5.094
 4716TIP3    H214113   4.093   1.177   5.084
 4717TIP3   OH214114   3.907   1.392   5.340
 4717TIP3    H114115   3.839   1.436   5.390
 4717TIP3    H214116   3.860   1.350   5.268
 4718TIP3   OH214117   3.958   0.636   4.355
 4718TIP3    H114118   3.889   0.633   4.288
 4718TIP3    H214119   3.937   0.714   4.407
 4719TIP3   OH214120   3.838   0.286   4.291
 4719TIP3    H114121   3.774   0.336   4.239
 4719TIP3    H214122   3.833   0.197   4.255
 4720TIP3   OH214123   3.841   0.580   4.857
 4720TIP3    H114124   3.838   0.486   4.839
 4720TIP3    H214125   3.818   0.587   4.950
 4721TIP3   OH214126   2.475   0.642   5.602
 4721TIP3    H114127   2.463   0.601   5.517
 4721TIP3    H214128   2.570   0.640   5.617
 4722TIP3   OH214129   4.125   0.987   5.703
 4722TIP3    H114130   4.191   0.921   5.683
 4722TIP3    H214131   4.128   1.048   5.631
 4723TIP3   OH214132   4.321   0.794   5.709
 4723TIP3    H114133   4.261   0.743   5.764
 4723TIP3    H214134   4.396   0.812   5.765
 4724TIP3   OH214135   3.816   0.329   4.726
 4724TIP3    H114136   3.880   0.262   4.749
 4724TIP3    H214137   3.851   0.370   4.647
 4725TIP3   OH214138   4.004   0.514   5.237
 4725TIP3    H114139   4.088   0.532   5.195
 4725TIP3    H214140   4.017   0.541   5.328
 4726TIP3   OH214141   4.069   0.616   5.488
 4726TIP3    H114142   3.992   0.641   5.540
 4726TIP3    H214143   4.101   0.699   5.452
 4727TIP3   OH214144   5.234   3.814   0.173
 4727TIP3    H114145   5.324   3.827   0.146
 4727TIP3    H214146   5.231   3.724   0.205
 4728TIP3   OH214147   2.444   0.270   5.668
 4728TIP3    H114148   2.493   0.274   5.586
 4728TIP3    H214149   2.490   0.331   5.726
 4729TIP3   OH214150   3.592   1.505   4.691
 4729TIP3    H114151   3.649   1.494   4.615
 4729TIP3    H214152   3.635   1.574   4.743
 4730TIP3   OH214153   5.158   4.788   0.003
 4730TIP3    H114154   5.065   4.777  -0.016
 4730TIP3    H214155   5.163   4.792   0.098
 4731TIP3   OH214156   2.890   1.346   5.620
 4731TIP3    H114157   2.837   1.419   5.588
 4731TIP3    H214158   2.975   1.357   5.577
 4732TIP3   OH214159   3.302   1.580   5.757
 4732TIP3    H114160   3.340   1.575   5.845
 4732TIP3    H214161   3.364   1.633   5.708
 4733TIP3   OH214162   3.490   1.736   5.630
 4733TIP3    H114163   3.555   1.683   5.584
 4733TIP3    H214164   3.541   1.794   5.686
 4734TIP3   OH214165   2.553   1.592   5.664
 4734TIP3    H114166   2.462   1.611   5.640
 4734TIP3    H214167   2.575   1.660   5.729
 4735TIP3   OH214168   2.783   1.576   5.514
 4735TIP3    H114169   2.700   1.583   5.561
 4735TIP3    H214170   2.762   1.605   5.425
 4736TIP3   OH214171   3.205   1.596   5.306
 4736TIP3    H114172   3.133   1.609   5.244
 4736TIP3    H214173   3.217   1.681   5.349
 4737TIP3   OH214174   3.470   1.532   5.359
 4737TIP3    H114175   3.378   1.551   5.340
 4737TIP3    H214176   3.518   1.602   5.313
 4738TIP3   OH214177   3.674   1.714   5.264
 4738TIP3    H114178   3.666   1.800   5.223
 4738TIP3    H214179   3.702   1.657   5.193
 4739TIP3   OH214180   2.467   1.377   5.387
 4739TIP3    H114181   2.487   1.349   5.476
 4739TIP3    H214182   2.538   1.342   5.334
 4740TIP3   OH214183   2.667   1.257   5.248
 4740TIP3    H114184   2.677   1.175   5.295
 4740TIP3    H214185   2.754   1.298   5.251
 4741TIP3   OH214186   2.935   1.345   5.267
 4741TIP3    H114187   2.954   1.252   5.254
 4741TIP3    H214188   2.985   1.369   5.345
 4742TIP3   OH214189   2.239   1.159   4.769
 4742TIP3    H114190   2.153   1.125   4.743
 4742TIP3    H214191   2.237   1.252   4.745
 4743TIP3   OH214192   3.029   1.327   4.362
 4743TIP3    H114193   3.115   1.353   4.328
 4743TIP3    H214194   3.004   1.252   4.307
 4744TIP3   OH214195   3.744   1.463   4.462
 4744TIP3    H114196   3.737   1.368   4.454
 4744TIP3    H214197   3.698   1.497   4.385
 4745TIP3   OH214198   2.336   1.181   4.417
 4745TIP3    H114199   2.333   1.179   4.512
 4745TIP3    H214200   2.416   1.134   4.394
 4746TIP3   OH214201   3.958   1.604   5.645
 4746TIP3    H114202   3.881   1.573   5.598
 4746TIP3    H214203   3.943   1.698   5.657
 4747TIP3   OH214204   5.233   0.989   4.400
 4747TIP3    H114205   5.202   1.074   4.371
 4747TIP3    H214206   5.163   0.928   4.375
 4748TIP3   OH214207   5.232   1.006   4.822
 4748TIP3    H114208   5.277   0.986   4.904
 4748TIP3    H214209   5.192   0.923   4.795
 4749TIP3   OH214210   4.533   0.886   5.145
 4749TIP3    H114211   4.564   0.823   5.211
 4749TIP3    H214212   4.610   0.904   5.091
 4750TIP3   OH214213   5.481   1.301   4.479
 4750TIP3    H114214   5.469   1.229   4.541
 4750TIP3    H214215   5.512   1.374   4.533
 4751TIP3   OH214216   4.519   1.282   4.869
 4751TIP3    H114217   4.501   1.188   4.869
 4751TIP3    H214218   4.613   1.289   4.855
 4752TIP3   OH214219   4.173   0.515   4.641
 4752TIP3    H114220   4.129   0.597   4.663
 4752TIP3    H214221   4.102   0.455   4.619
 4753TIP3   OH214222   4.259   0.795   4.848
 4753TIP3    H114223   4.303   0.712   4.867
 4753TIP3    H214224   4.323   0.845   4.797
 4754TIP3   OH214225   5.129   1.731   4.504
 4754TIP3    H114226   5.181   1.672   4.450
 4754TIP3    H214227   5.132   1.693   4.592
 4755TIP3   OH214228   5.033   1.214   4.826
 4755TIP3    H114229   5.074   1.132   4.797
 4755TIP3    H214230   5.107   1.270   4.849
 4756TIP3   OH214231   6.028   0.561   4.801
 4756TIP3    H114232   6.054   0.600   4.884
 4756TIP3    H214233   6.045   0.629   4.736
 4757TIP3   OH214234   5.454   0.755   4.850
 4757TIP3    H114235   5.496   0.695   4.912
 4757TIP3    H214236   5.408   0.697   4.789
 4758TIP3   OH214237   4.795   0.375   4.814
 4758TIP3    H114238   4.757   0.436   4.751
 4758TIP3    H214239   4.723   0.318   4.839
 4759TIP3   OH214240   5.444   0.534   4.392
 4759TIP3    H114241   5.510   0.493   4.448
 4759TIP3    H214242   5.486   0.541   4.306
 4760TIP3   OH214243   4.400   0.570   4.918
 4760TIP3    H114244   4.487   0.574   4.957
 4760TIP3    H214245   4.415   0.539   4.829
 4761TIP3   OH214246   4.847   0.766   4.758
 4761TIP3    H114247   4.940   0.750   4.747
 4761TIP3    H214248   4.805   0.685   4.728
 4762TIP3   OH214249   6.132   0.824   4.912
 4762TIP3    H114250   6.042   0.818   4.942
 4762TIP3    H214251   6.184   0.827   4.993
 4763TIP3   OH214252   5.121   1.200   4.262
 4763TIP3    H114253   5.083   1.172   4.178
 4763TIP3    H214254   5.081   1.284   4.280
 4764TIP3   OH214255   4.886   1.134   5.045
 4764TIP3    H114256   4.826   1.201   5.079
 4764TIP3    H214257   4.929   1.177   4.971
 4765TIP3   OH214258   4.648   0.545   5.019
 4765TIP3    H114259   4.721   0.591   5.060
 4765TIP3    H214260   4.688   0.468   4.978
 4766TIP3   OH214261   4.716   1.329   5.146
 4766TIP3    H114262   4.696   1.416   5.113
 4766TIP3    H214263   4.639   1.305   5.199
 4767TIP3   OH214264   4.095   1.032   4.395
 4767TIP3    H114265   4.059   1.047   4.307
 4767TIP3    H214266   4.119   1.119   4.426
 4768TIP3   OH214267   5.534   1.538   4.633
 4768TIP3    H114268   5.446   1.529   4.669
 4768TIP3    H214269   5.533   1.623   4.588
 4769TIP3   OH214270   5.268   1.584   4.321
 4769TIP3    H114271   5.300   1.496   4.301
 4769TIP3    H214272   5.341   1.641   4.297
 4770TIP3   OH214273   5.394   1.362   4.220
 4770TIP3    H114274   5.371   1.279   4.177
 4770TIP3    H214275   5.430   1.335   4.305
 4771TIP3   OH214276   5.765   1.433   4.977
 4771TIP3    H114277   5.753   1.358   4.919
 4771TIP3    H214278   5.752   1.509   4.920
 4772TIP3   OH214279   5.056   0.838   4.244
 4772TIP3    H114280   4.974   0.883   4.224
 4772TIP3    H214281   5.107   0.844   4.163
 4773TIP3   OH214282   5.012   0.645   3.956
 4773TIP3    H114283   5.065   0.700   4.015
 4773TIP3    H214284   5.077   0.597   3.904
 4774TIP3   OH214285   5.962   1.109   4.843
 4774TIP3    H114286   5.875   1.150   4.835
 4774TIP3    H214287   5.996   1.110   4.753
 4775TIP3   OH214288   5.419   0.922   4.209
 4775TIP3    H114289   5.366   0.945   4.285
 4775TIP3    H214290   5.499   0.884   4.246
 4776TIP3   OH214291   5.646   0.996   5.115
 4776TIP3    H114292   5.627   1.067   5.177
 4776TIP3    H214293   5.560   0.972   5.080
 4777TIP3   OH214294   4.647   0.906   4.620
 4777TIP3    H114295   4.603   0.848   4.559
 4777TIP3    H214296   4.718   0.854   4.656
 4778TIP3   OH214297   4.777   1.324   4.757
 4778TIP3    H114298   4.752   1.300   4.668
 4778TIP3    H214299   4.864   1.284   4.768
 4779TIP3   OH214300   4.754   0.901   4.980
 4779TIP3    H114301   4.790   0.862   4.901
 4779TIP3    H214302   4.808   0.979   4.995
 4780TIP3   OH214303   5.292   1.529   4.758
 4780TIP3    H114304   5.285   1.606   4.815
 4780TIP3    H214305   5.287   1.455   4.818
 4781TIP3   OH214306   4.910   1.432   5.311
 4781TIP3    H114307   4.851   1.492   5.356
 4781TIP3    H214308   4.854   1.379   5.255
 4782TIP3   OH214309   5.234   0.810   4.038
 4782TIP3    H114310   5.303   0.855   4.087
 4782TIP3    H214311   5.260   0.820   3.946
 4783TIP3   OH214312   4.672   0.984   5.441
 4783TIP3    H114313   4.679   1.076   5.469
 4783TIP3    H214314   4.578   0.968   5.436
 4784TIP3   OH214315   5.018   1.458   4.275
 4784TIP3    H114316   5.073   1.518   4.325
 4784TIP3    H214317   4.938   1.507   4.258
 4785TIP3   OH214318   4.704   1.595   5.396
 4785TIP3    H114319   4.674   1.601   5.305
 4785TIP3    H214320   4.625   1.575   5.446
 4786TIP3   OH214321   4.509   0.752   4.436
 4786TIP3    H114322   4.436   0.795   4.391
 4786TIP3    H214323   4.496   0.659   4.421
 4787TIP3   OH214324   5.583   1.400   3.679
 4787TIP3    H114325   5.590   1.487   3.640
 4787TIP3    H214326   5.665   1.356   3.655
 4788TIP3   OH214327   4.296   1.139   5.341
 4788TIP3    H114328   4.225   1.128   5.277
 4788TIP3    H214329   4.334   1.051   5.349
 4789TIP3   OH214330   4.137   1.338   4.987
 4789TIP3    H114331   4.231   1.355   4.996
 4789TIP3    H214332   4.095   1.417   5.022
 4790TIP3   OH214333   6.006   1.788   5.035
 4790TIP3    H114334   6.010   1.693   5.049
 4790TIP3    H214335   5.924   1.815   5.076
 4791TIP3   OH214336   5.104   1.566   5.171
 4791TIP3    H114337   5.101   1.657   5.200
 4791TIP3    H214338   5.034   1.522   5.219
 4792TIP3   OH214339   4.897   1.704   4.103
 4792TIP3    H114340   4.841   1.673   4.032
 4792TIP3    H214341   4.854   1.782   4.136
 4793TIP3   OH214342   4.317   1.530   4.502
 4793TIP3    H114343   4.360   1.521   4.587
 4793TIP3    H214344   4.266   1.449   4.492
 4794TIP3   OH214345   5.099   1.601   3.755
 4794TIP3    H114346   5.143   1.528   3.711
 4794TIP3    H214347   5.098   1.575   3.848
 4795TIP3   OH214348   5.145   1.600   4.045
 4795TIP3    H114349   5.066   1.654   4.054
 4795TIP3    H214350   5.133   1.529   4.108
 4796TIP3   OH214351   5.859   0.954   5.318
 4796TIP3    H114352   5.793   0.974   5.251
 4796TIP3    H214353   5.844   0.861   5.338
 4797TIP3   OH214354   4.500   1.322   5.317
 4797TIP3    H114355   4.548   1.312   5.400
 4797TIP3    H214356   4.427   1.261   5.324
 4798TIP3   OH214357   5.588   0.680   5.083
 4798TIP3    H114358   5.640   0.608   5.120
 4798TIP3    H214359   5.593   0.750   5.149
 4799TIP3   OH214360   5.324   0.836   3.785
 4799TIP3    H114361   5.286   0.781   3.717
 4799TIP3    H214362   5.409   0.862   3.750
 4800TIP3   OH214363   4.839   0.693   5.148
 4800TIP3    H114364   4.776   0.704   5.219
 4800TIP3    H214365   4.824   0.769   5.091
 4801TIP3   OH214366   4.690   0.563   4.650
 4801TIP3    H114367   4.597   0.540   4.650
 4801TIP3    H214368   4.715   0.563   4.557
 4802TIP3   OH214369   5.177   0.636   4.389
 4802TIP3    H114370   5.136   0.702   4.333
 4802TIP3    H214371   5.252   0.605   4.339
 4803TIP3   OH214372   5.355   0.948   5.446
 4803TIP3    H114373   5.336   0.902   5.528
 4803TIP3    H214374   5.445   0.923   5.425
 4804TIP3   OH214375   5.330   0.655   4.621
 4804TIP3    H114376   5.264   0.666   4.552
 4804TIP3    H214377   5.402   0.610   4.578
 4805TIP3   OH214378   4.645   0.723   5.338
 4805TIP3    H114379   4.667   0.797   5.395
 4805TIP3    H214380   4.577   0.675   5.384
 4806TIP3   OH214381   4.796   0.233   4.110
 4806TIP3    H114382   4.757   0.260   4.193
 4806TIP3    H214383   4.721   0.214   4.054
 4807TIP3   OH214384   4.160   0.250   4.474
 4807TIP3    H114385   4.197   0.319   4.418
 4807TIP3    H214386   4.079   0.288   4.508
 4808TIP3   OH214387   5.363   0.917   5.048
 4808TIP3    H114388   5.399   0.860   4.979
 4808TIP3    H214389   5.333   0.857   5.115
 4809TIP3   OH214390   5.023   0.507   4.737
 4809TIP3    H114391   4.946   0.461   4.770
 4809TIP3    H214392   5.083   0.437   4.710
 4810TIP3   OH214393   4.435   0.459   4.666
 4810TIP3    H114394   4.344   0.481   4.649
 4810TIP3    H214395   4.438   0.364   4.659
 4811TIP3   OH214396   4.752   0.537   4.388
 4811TIP3    H114397   4.840   0.499   4.386
 4811TIP3    H214398   4.702   0.483   4.327
 4812TIP3   OH214399   4.568   0.480   4.170
 4812TIP3    H114400   4.494   0.469   4.109
 4812TIP3    H214401   4.638   0.515   4.115
 4813TIP3   OH214402   5.709   2.136   5.130
 4813TIP3    H114403   5.708   2.150   5.035
 4813TIP3    H214404   5.789   2.179   5.160
 4814TIP3   OH214405   4.658   1.240   5.553
 4814TIP3    H114406   4.738   1.263   5.600
 4814TIP3    H214407   4.589   1.246   5.618
 4815TIP3   OH214408   5.139   0.744   4.806
 4815TIP3    H114409   5.200   0.719   4.736
 4815TIP3    H214410   5.096   0.663   4.831
 4816TIP3   OH214411   5.059   0.595   5.273
 4816TIP3    H114412   4.986   0.635   5.224
 4816TIP3    H214413   5.129   0.660   5.269
 4817TIP3   OH214414   4.818   0.981   4.188
 4817TIP3    H114415   4.748   0.918   4.171
 4817TIP3    H214416   4.800   1.015   4.275
 4818TIP3   OH214417   5.715   1.228   4.800
 4818TIP3    H114418   5.747   1.275   4.723
 4818TIP3    H214419   5.634   1.187   4.770
 4819TIP3   OH214420   5.201   0.353   3.999
 4819TIP3    H114421   5.171   0.284   4.059
 4819TIP3    H214422   5.237   0.421   4.057
 4820TIP3   OH214423   5.239   1.306   5.189
 4820TIP3    H114424   5.260   1.277   5.278
 4820TIP3    H214425   5.185   1.384   5.202
 4821TIP3   OH214426   5.325   0.562   4.115
 4821TIP3    H114427   5.418   0.573   4.133
 4821TIP3    H214428   5.295   0.647   4.083
 4822TIP3   OH214429   4.520   1.003   4.843
 4822TIP3    H114430   4.555   0.979   4.757
 4822TIP3    H214431   4.580   0.962   4.906
 4823TIP3   OH214432   4.975   1.137   4.030
 4823TIP3    H114433   4.928   1.221   4.028
 4823TIP3    H214434   4.918   1.079   4.081
 4824TIP3   OH214435   4.409   0.897   5.465
 4824TIP3    H114436   4.407   0.880   5.559
 4824TIP3    H214437   4.324   0.867   5.433
 4825TIP3   OH214438   5.116   1.067   5.502
 4825TIP3    H114439   5.052   1.001   5.475
 4825TIP3    H214440   5.200   1.034   5.468
 4826TIP3   OH214441   5.371   1.595   5.075
 4826TIP3    H114442   5.279   1.576   5.093
 4826TIP3    H214443   5.417   1.567   5.154
 4827TIP3   OH214444   5.756   0.671   3.977
 4827TIP3    H114445   5.706   0.620   3.913
 4827TIP3    H214446   5.761   0.759   3.938
 4828TIP3   OH214447   6.014   1.506   5.066
 4828TIP3    H114448   5.919   1.496   5.058
 4828TIP3    H214449   6.049   1.474   4.983
 4829TIP3   OH214450   5.436   1.488   3.923
 4829TIP3    H114451   5.450   1.413   3.981
 4829TIP3    H214452   5.476   1.462   3.840
 4830TIP3   OH214453   5.477   1.103   4.704
 4830TIP3    H114454   5.389   1.076   4.729
 4830TIP3    H214455   5.515   1.026   4.662
 4831TIP3   OH214456   4.629   1.320   4.507
 4831TIP3    H114457   4.623   1.397   4.451
 4831TIP3    H214458   4.538   1.295   4.523
 4832TIP3   OH214459   4.187   0.642   4.208
 4832TIP3    H114460   4.233   0.722   4.232
 4832TIP3    H214461   4.107   0.644   4.262
 4833TIP3   OH214462   4.742   1.080   4.426
 4833TIP3    H114463   4.714   1.168   4.453
 4833TIP3    H214464   4.713   1.023   4.497
 4834TIP3   OH214465   4.913   1.650   4.963
 4834TIP3    H114466   4.951   1.720   4.910
 4834TIP3    H214467   4.987   1.610   5.008
 4835TIP3   OH214468   4.550   1.547   4.355
 4835TIP3    H114469   4.463   1.551   4.395
 4835TIP3    H214470   4.582   1.637   4.358
 4836TIP3   OH214471   5.286   1.304   4.921
 4836TIP3    H114472   5.271   1.293   5.014
 4836TIP3    H214473   5.335   1.226   4.894
 4837TIP3   OH214474   5.261   1.189   3.811
 4837TIP3    H114475   5.307   1.166   3.891
 4837TIP3    H214476   5.180   1.140   3.815
 4838TIP3   OH214477   5.520   1.816   4.976
 4838TIP3    H114478   5.450   1.752   4.987
 4838TIP3    H214479   5.494   1.868   4.900
 4839TIP3   OH214480   5.603   1.669   3.607
 4839TIP3    H114481   5.664   1.739   3.582
 4839TIP3    H214482   5.522   1.691   3.561
 4840TIP3   OH214483   5.425   1.136   4.031
 4840TIP3    H114484   5.413   1.062   4.091
 4840TIP3    H214485   5.519   1.134   4.010
 4841TIP3   OH214486   4.346   1.518   5.119
 4841TIP3    H114487   4.400   1.451   5.161
 4841TIP3    H214488   4.353   1.594   5.178
 4842TIP3   OH214489   4.619   1.158   3.812
 4842TIP3    H114490   4.627   1.068   3.783
 4842TIP3    H214491   4.599   1.152   3.905
 4843TIP3   OH214492   4.561   1.169   4.082
 4843TIP3    H114493   4.631   1.135   4.139
 4843TIP3    H214494   4.565   1.264   4.093
 4844TIP3   OH214495   4.301   0.874   4.299
 4844TIP3    H114496   4.234   0.920   4.350
 4844TIP3    H214497   4.320   0.933   4.226
 4845TIP3   OH214498   4.836   1.371   4.025
 4845TIP3    H114499   4.749   1.388   4.062
 4845TIP3    H214500   4.846   1.438   3.957
 4846TIP3   OH214501   5.004   0.427   4.422
 4846TIP3    H114502   5.067   0.497   4.405
 4846TIP3    H214503   5.011   0.410   4.516
 4847TIP3   OH214504   5.290   0.746   5.254
 4847TIP3    H114505   5.319   0.809   5.320
 4847TIP3    H214506   5.361   0.683   5.249
 4848TIP3   OH214507   4.583   1.441   4.104
 4848TIP3    H114508   4.558   1.510   4.042
 4848TIP3    H214509   4.566   1.480   4.190
 4849TIP3   OH214510   5.844   0.686   5.364
 4849TIP3    H114511   5.792   0.648   5.293
 4849TIP3    H214512   5.881   0.610   5.409
 4850TIP3   OH214513   5.559   0.859   4.599
 4850TIP3    H114514   5.485   0.813   4.639
 4850TIP3    H214515   5.636   0.827   4.646
 4851TIP3   OH214516   4.308   1.049   4.079
 4851TIP3    H114517   4.379   1.113   4.086
 4851TIP3    H214518   4.341   0.983   4.019
 4852TIP3   OH214519   4.270   0.391   4.254
 4852TIP3    H114520   4.252   0.485   4.250
 4852TIP3    H214521   4.277   0.363   4.163
 4853TIP3   OH214522   5.549   1.801   4.540
 4853TIP3    H114523   5.507   1.840   4.464
 4853TIP3    H214524   5.642   1.823   4.530
 4854TIP3   OH214525   4.150   1.302   4.470
 4854TIP3    H114526   4.096   1.332   4.544
 4854TIP3    H214527   4.110   1.343   4.393
 4855TIP3   OH214528   4.337   1.836   5.543
 4855TIP3    H114529   4.419   1.837   5.592
 4855TIP3    H214530   4.312   1.744   5.540
 4856TIP3   OH214531   4.813   1.770   5.580
 4856TIP3    H114532   4.904   1.741   5.588
 4856TIP3    H214533   4.776   1.714   5.513
 4857TIP3   OH214534   4.782   1.355   3.709
 4857TIP3    H114535   4.731   1.285   3.750
 4857TIP3    H214536   4.854   1.309   3.664
 4858TIP3   OH214537   5.220   1.393   3.631
 4858TIP3    H114538   5.249   1.322   3.688
 4858TIP3    H214539   5.271   1.382   3.551
 4859TIP3   OH214540   4.451   1.235   5.738
 4859TIP3    H114541   4.458   1.142   5.759
 4859TIP3    H214542   4.366   1.243   5.695
 4860TIP3   OH214543   4.439   0.856   3.940
 4860TIP3    H114544   4.490   0.828   4.016
 4860TIP3    H214545   4.504   0.868   3.871
 4861TIP3   OH214546   5.071   1.336   5.510
 4861TIP3    H114547   5.018   1.351   5.432
 4861TIP3    H214548   5.094   1.243   5.507
 4862TIP3   OH214549   4.997   1.078   3.762
 4862TIP3    H114550   4.977   1.090   3.855
 4862TIP3    H214551   4.986   0.984   3.747
 4863TIP3   OH214552   5.549   1.366   5.134
 4863TIP3    H114553   5.626   1.392   5.083
 4863TIP3    H214554   5.475   1.384   5.076
 4864TIP3   OH214555   4.564   0.955   5.739
 4864TIP3    H114556   4.642   0.943   5.685
 4864TIP3    H214557   4.598   0.987   5.823
 4865TIP3   OH214558   4.619   0.794   4.154
 4865TIP3    H114559   4.607   0.756   4.241
 4865TIP3    H214560   4.663   0.725   4.103
 4866TIP3   OH214561   4.931   0.886   5.399
 4866TIP3    H114562   4.845   0.929   5.397
 4866TIP3    H214563   4.969   0.906   5.314
 4867TIP3   OH214564   4.742   0.606   3.998
 4867TIP3    H114565   4.714   0.603   3.906
 4867TIP3    H214566   4.837   0.611   3.994
 4868TIP3   OH214567   5.436   1.266   5.497
 4868TIP3    H114568   5.498   1.223   5.438
 4868TIP3    H214569   5.426   1.205   5.570
 4869TIP3   OH214570   5.554   0.911   3.654
 4869TIP3    H114571   5.538   0.866   3.571
 4869TIP3    H214572   5.528   1.002   3.638
 4870TIP3   OH214573   4.929   0.646   5.525
 4870TIP3    H114574   4.985   0.588   5.473
 4870TIP3    H214575   4.934   0.730   5.481
 4871TIP3   OH214576   5.059   0.964   5.174
 4871TIP3    H114577   5.146   0.970   5.135
 4871TIP3    H214578   5.006   1.029   5.126
 4872TIP3   OH214579   5.660   0.940   5.568
 4872TIP3    H114580   5.679   0.882   5.641
 4872TIP3    H214581   5.744   0.983   5.548
 4873TIP3   OH214582   5.668   1.206   5.314
 4873TIP3    H114583   5.617   1.265   5.259
 4873TIP3    H214584   5.757   1.211   5.280
 4874TIP3   OH214585   4.891   0.749   5.775
 4874TIP3    H114586   4.805   0.720   5.806
 4874TIP3    H214587   4.898   0.712   5.687
 4875TIP3   OH214588   5.253   0.798   5.653
 4875TIP3    H114589   5.227   0.771   5.741
 4875TIP3    H214590   5.223   0.727   5.596
 4876TIP3   OH214591   5.595   0.550   5.431
 4876TIP3    H114592   5.562   0.569   5.519
 4876TIP3    H214593   5.673   0.496   5.446
 4877TIP3   OH214594   4.572   1.648   3.918
 4877TIP3    H114595   4.660   1.630   3.887
 4877TIP3    H214596   4.529   1.694   3.846
 4878TIP3   OH214597   4.036   1.027   4.112
 4878TIP3    H114598   4.130   1.044   4.101
 4878TIP3    H214599   4.022   0.943   4.070
 4879TIP3   OH214600   3.947   1.622   4.551
 4879TIP3    H114601   3.883   1.567   4.506
 4879TIP3    H214602   3.992   1.563   4.611
 4880TIP3   OH214603   4.085   1.462   4.728
 4880TIP3    H114604   4.073   1.393   4.794
 4880TIP3    H214605   4.137   1.529   4.773
 4881TIP3   OH214606   5.809   1.886   4.527
 4881TIP3    H114607   5.837   1.906   4.617
 4881TIP3    H214608   5.878   1.921   4.472
 4882TIP3   OH214609   5.841   1.896   4.810
 4882TIP3    H114610   5.795   1.812   4.808
 4882TIP3    H214611   5.914   1.881   4.870
 4883TIP3   OH214612   5.883   1.592   5.407
 4883TIP3    H114613   5.795   1.621   5.431
 4883TIP3    H214614   5.935   1.673   5.405
 4884TIP3   OH214615   5.700   1.117   3.998
 4884TIP3    H114616   5.768   1.177   3.968
 4884TIP3    H214617   5.738   1.077   4.077
 4885TIP3   OH214618   5.814   0.989   4.210
 4885TIP3    H114619   5.756   0.938   4.267
 4885TIP3    H214620   5.884   1.020   4.269
 4886TIP3   OH214621   5.885   1.364   4.627
 4886TIP3    H114622   5.940   1.294   4.593
 4886TIP3    H214623   5.892   1.434   4.562
 4887TIP3   OH214624   5.700   1.654   4.826
 4887TIP3    H114625   5.631   1.697   4.877
 4887TIP3    H214626   5.653   1.610   4.754
 4888TIP3   OH214627   5.753   0.903   3.837
 4888TIP3    H114628   5.684   0.898   3.771
 4888TIP3    H214629   5.728   0.977   3.892
 4889TIP3   OH214630   5.620   0.541   3.785
 4889TIP3    H114631   5.552   0.581   3.731
 4889TIP3    H214632   5.632   0.454   3.749
 4890TIP3   OH214633   5.646   0.818   4.345
 4890TIP3    H114634   5.676   0.727   4.353
 4890TIP3    H214635   5.612   0.839   4.432
 4891TIP3   OH214636   4.266   0.869   5.109
 4891TIP3    H114637   4.253   0.851   5.016
 4891TIP3    H214638   4.359   0.886   5.117
 4892TIP3   OH214639   5.917   1.254   5.200
 4892TIP3    H114640   5.983   1.186   5.189
 4892TIP3    H214641   5.933   1.315   5.129
 4893TIP3   OH214642   6.094   1.052   5.212
 4893TIP3    H114643   6.020   1.009   5.254
 4893TIP3    H214644   6.155   0.981   5.191
 4894TIP3   OH214645   5.595   0.571   4.170
 4894TIP3    H114646   5.661   0.550   4.235
 4894TIP3    H214647   5.643   0.613   4.099
 4895TIP3   OH214648   5.786   0.767   4.716
 4895TIP3    H114649   5.871   0.770   4.673
 4895TIP3    H214650   5.800   0.805   4.803
 4896TIP3   OH214651   5.846   0.887   4.954
 4896TIP3    H114652   5.775   0.919   5.010
 4896TIP3    H214653   5.891   0.966   4.925
 4897TIP3   OH214654   4.259   0.580   5.161
 4897TIP3    H114655   4.302   0.552   5.081
 4897TIP3    H214656   4.266   0.676   5.160
 4898TIP3   OH214657   5.438   1.736   4.119
 4898TIP3    H114658   5.533   1.728   4.115
 4898TIP3    H214659   5.422   1.812   4.173
 4899TIP3   OH214660   4.486   1.554   5.567
 4899TIP3    H114661   4.393   1.540   5.552
 4899TIP3    H214662   4.498   1.544   5.661
 4900TIP3   OH214663   4.682   1.605   5.109
 4900TIP3    H114664   4.626   1.673   5.071
 4900TIP3    H214665   4.766   1.617   5.066
 4901TIP3   OH214666   5.109   1.828   5.263
 4901TIP3    H114667   5.144   1.825   5.352
 4901TIP3    H214668   5.172   1.882   5.215
 4902TIP3   OH214669   5.293   1.986   5.128
 4902TIP3    H114670   5.355   1.938   5.073
 4902TIP3    H214671   5.348   2.044   5.181
 4903TIP3   OH214672   4.351   1.868   5.146
 4903TIP3    H114673   4.258   1.881   5.126
 4903TIP3    H214674   4.368   1.927   5.219
 4904TIP3   OH214675   4.574   1.835   4.987
 4904TIP3    H114676   4.494   1.844   5.039
 4904TIP3    H214677   4.550   1.868   4.901
 4905TIP3   OH214678   5.001   1.854   4.794
 4905TIP3    H114679   4.931   1.867   4.729
 4905TIP3    H214680   5.013   1.940   4.834
 4906TIP3   OH214681   5.264   1.793   4.845
 4906TIP3    H114682   5.172   1.813   4.824
 4906TIP3    H214683   5.314   1.860   4.799
 4907TIP3   OH214684   5.462   1.964   4.746
 4907TIP3    H114685   5.462   2.052   4.708
 4907TIP3    H214686   5.495   1.908   4.676
 4908TIP3   OH214687   4.264   1.634   4.876
 4908TIP3    H114688   4.286   1.604   4.964
 4908TIP3    H214689   4.334   1.600   4.821
 4909TIP3   OH214690   4.463   1.514   4.736
 4909TIP3    H114691   4.473   1.432   4.783
 4909TIP3    H214692   4.550   1.553   4.735
 4910TIP3   OH214693   4.734   1.600   4.751
 4910TIP3    H114694   4.751   1.507   4.738
 4910TIP3    H214695   4.783   1.623   4.829
 4911TIP3   OH214696   4.033   1.425   4.255
 4911TIP3    H114697   3.949   1.392   4.225
 4911TIP3    H214698   4.035   1.517   4.226
 4912TIP3   OH214699   4.829   1.587   3.841
 4912TIP3    H114700   4.901   1.629   3.794
 4912TIP3    H214701   4.804   1.513   3.785
 4913TIP3   OH214702   4.130   1.424   3.906
 4913TIP3    H114703   4.130   1.435   4.001
 4913TIP3    H214704   4.212   1.378   3.887
 4914TIP3   OH214705   5.755   1.860   5.119
 4914TIP3    H114706   5.675   1.835   5.074
 4914TIP3    H214707   5.743   1.953   5.140
 4915TIP3   OH214708   7.028   1.230   3.862
 4915TIP3    H114709   7.005   1.322   3.849
 4915TIP3    H214710   6.944   1.185   3.863
 4916TIP3   OH214711   6.951   1.245   4.305
 4916TIP3    H114712   7.006   1.222   4.380
 4916TIP3    H214713   6.957   1.169   4.246
 4917TIP3   OH214714   6.324   1.137   4.636
 4917TIP3    H114715   6.355   1.081   4.707
 4917TIP3    H214716   6.402   1.156   4.584
 4918TIP3   OH214717   6.300   1.532   4.351
 4918TIP3    H114718   6.288   1.437   4.352
 4918TIP3    H214719   6.394   1.545   4.341
 4919TIP3   OH214720   5.967   0.775   4.126
 4919TIP3    H114721   5.924   0.856   4.153
 4919TIP3    H214722   5.897   0.720   4.093
 4920TIP3   OH214723   6.056   1.056   4.333
 4920TIP3    H114724   6.099   0.974   4.356
 4920TIP3    H214725   6.125   1.112   4.300
 4921TIP3   OH214726   6.908   1.947   4.003
 4921TIP3    H114727   6.998   1.933   3.974
 4921TIP3    H214728   6.905   1.905   4.089
 4922TIP3   OH214729   6.815   1.484   4.321
 4922TIP3    H114730   6.855   1.399   4.300
 4922TIP3    H214731   6.890   1.543   4.331
 4923TIP3   OH214732   6.596   0.630   4.297
 4923TIP3    H114733   6.555   0.692   4.237
 4923TIP3    H214734   6.525   0.572   4.324
 4924TIP3   OH214735   6.197   0.833   4.404
 4924TIP3    H114736   6.284   0.832   4.444
 4924TIP3    H214737   6.211   0.800   4.315
 4925TIP3   OH214738   6.643   1.020   4.244
 4925TIP3    H114739   6.735   1.001   4.226
 4925TIP3    H214740   6.597   0.940   4.217
 4926TIP3   OH214741   6.916   1.458   3.747
 4926TIP3    H114742   6.872   1.443   3.663
 4926TIP3    H214743   6.881   1.541   3.778
 4927TIP3   OH214744   6.680   1.389   4.540
 4927TIP3    H114745   6.620   1.455   4.576
 4927TIP3    H214746   6.724   1.434   4.467
 4928TIP3   OH214747   6.442   0.796   4.506
 4928TIP3    H114748   6.513   0.845   4.547
 4928TIP3    H214749   6.485   0.719   4.469
 4929TIP3   OH214750   6.511   1.585   4.636
 4929TIP3    H114751   6.496   1.674   4.603
 4929TIP3    H214752   6.432   1.565   4.688
 4930TIP3   OH214753   5.891   1.284   3.884
 4930TIP3    H114754   5.859   1.296   3.794
 4930TIP3    H214755   5.921   1.371   3.911
 4931TIP3   OH214756   7.071   1.833   3.765
 4931TIP3    H114757   7.118   1.750   3.757
 4931TIP3    H214758   7.122   1.885   3.827
 4932TIP3   OH214759   6.853   1.083   3.671
 4932TIP3    H114760   6.765   1.119   3.683
 4932TIP3    H214761   6.905   1.157   3.638
 4933TIP3   OH214762   6.813   0.875   3.456
 4933TIP3    H114763   6.841   0.922   3.535
 4933TIP3    H214764   6.841   0.785   3.471
 4934TIP3   OH214765   6.442   1.161   4.109
 4934TIP3    H114766   6.402   1.102   4.044
 4934TIP3    H214767   6.514   1.110   4.145
 4935TIP3   OH214768   6.561   1.580   4.249
 4935TIP3    H114769   6.548   1.560   4.156
 4935TIP3    H214770   6.649   1.549   4.268
 4936TIP3   OH214771   6.544   1.164   4.462
 4936TIP3    H114772   6.584   1.126   4.384
 4936TIP3    H214773   6.597   1.241   4.482
 4937TIP3   OH214774   7.029   1.778   4.227
 4937TIP3    H114775   7.050   1.862   4.269
 4937TIP3    H214776   7.057   1.712   4.291
 4938TIP3   OH214777   6.709   1.684   4.802
 4938TIP3    H114778   6.651   1.746   4.845
 4938TIP3    H214779   6.652   1.633   4.744
 4939TIP3   OH214780   6.478   1.253   4.917
 4939TIP3    H114781   6.479   1.343   4.949
 4939TIP3    H214782   6.385   1.229   4.918
 4940TIP3   OH214783   6.796   1.711   3.791
 4940TIP3    H114784   6.857   1.772   3.833
 4940TIP3    H214785   6.731   1.767   3.749
 4941TIP3   OH214786   6.505   1.851   4.879
 4941TIP3    H114787   6.479   1.860   4.787
 4941TIP3    H214788   6.423   1.834   4.926
 4942TIP3   OH214789   6.313   1.007   3.916
 4942TIP3    H114790   6.238   1.052   3.876
 4942TIP3    H214791   6.287   0.915   3.918
 4943TIP3   OH214792   6.089   1.395   4.830
 4943TIP3    H114793   6.022   1.377   4.764
 4943TIP3    H214794   6.126   1.310   4.852
 4944TIP3   OH214795   5.966   1.581   4.459
 4944TIP3    H114796   6.058   1.564   4.438
 4944TIP3    H214797   5.969   1.654   4.521
 4945TIP3   OH214798   6.900   1.819   4.656
 4945TIP3    H114799   6.896   1.912   4.682
 4945TIP3    H214800   6.831   1.777   4.707
 4946TIP3   OH214801   6.664   1.932   3.614
 4946TIP3    H114802   6.620   1.920   3.530
 4946TIP3    H214803   6.635   2.019   3.643
 4947TIP3   OH214804   6.106   1.789   3.992
 4947TIP3    H114805   6.157   1.784   4.074
 4947TIP3    H214806   6.071   1.700   3.981
 4948TIP3   OH214807   6.868   1.834   3.256
 4948TIP3    H114808   6.904   1.747   3.238
 4948TIP3    H214809   6.901   1.857   3.343
 4949TIP3   OH214810   6.918   1.872   3.531
 4949TIP3    H114811   6.832   1.877   3.573
 4949TIP3    H214812   6.977   1.847   3.602
 4950TIP3   OH214813   6.291   1.581   4.802
 4950TIP3    H114814   6.340   1.572   4.884
 4950TIP3    H214815   6.220   1.517   4.809
 4951TIP3   OH214816   6.628   0.957   4.622
 4951TIP3    H114817   6.569   0.968   4.697
 4951TIP3    H214818   6.607   1.031   4.565
 4952TIP3   OH214819   6.487   0.818   4.136
 4952TIP3    H114820   6.394   0.796   4.138
 4952TIP3    H214821   6.511   0.816   4.044
 4953TIP3   OH214822   6.975   0.874   3.808
 4953TIP3    H114823   6.932   0.950   3.768
 4953TIP3    H214824   7.064   0.903   3.826
 4954TIP3   OH214825   7.164   1.178   4.940
 4954TIP3    H114826   7.145   1.127   5.018
 4954TIP3    H214827   7.224   1.247   4.970
 4955TIP3   OH214828   6.446   0.973   4.822
 4955TIP3    H114829   6.453   1.020   4.905
 4955TIP3    H214830   6.433   0.882   4.847
 4956TIP3   OH214831   6.593   0.493   3.601
 4956TIP3    H114832   6.558   0.512   3.688
 4956TIP3    H214833   6.516   0.480   3.546
 4957TIP3   OH214834   5.982   0.506   3.968
 4957TIP3    H114835   5.989   0.587   3.917
 4957TIP3    H214836   5.897   0.511   4.010
 4958TIP3   OH214837   7.114   1.167   4.512
 4958TIP3    H114838   7.201   1.157   4.474
 4958TIP3    H214839   7.113   1.106   4.586
 4959TIP3   OH214840   6.817   0.753   4.180
 4959TIP3    H114841   6.741   0.720   4.226
 4959TIP3    H214842   6.874   0.677   4.170
 4960TIP3   OH214843   6.230   0.721   4.147
 4960TIP3    H114844   6.138   0.743   4.134
 4960TIP3    H214845   6.232   0.625   4.140
 4961TIP3   OH214846   6.550   0.787   3.875
 4961TIP3    H114847   6.635   0.744   3.868
 4961TIP3    H214848   6.495   0.741   3.812
 4962TIP3   OH214849   6.368   0.730   3.659
 4962TIP3    H114850   6.291   0.722   3.603
 4962TIP3    H214851   6.436   0.765   3.601
 4963TIP3   OH214852   6.451   1.503   5.038
 4963TIP3    H114853   6.531   1.526   5.086
 4963TIP3    H214854   6.382   1.506   5.104
 4964TIP3   OH214855   6.968   0.954   4.287
 4964TIP3    H114856   6.925   0.884   4.239
 4964TIP3    H214857   6.958   0.930   4.379
 4965TIP3   OH214858   6.869   0.868   4.697
 4965TIP3    H114859   6.783   0.898   4.668
 4965TIP3    H214860   6.917   0.949   4.716
 4966TIP3   OH214861   6.614   1.224   3.681
 4966TIP3    H114862   6.538   1.169   3.662
 4966TIP3    H214863   6.594   1.264   3.766
 4967TIP3   OH214864   7.037   1.566   4.682
 4967TIP3    H114865   7.059   1.551   4.774
 4967TIP3    H214866   6.988   1.648   4.682
 4968TIP3   OH214867   6.304   1.250   4.329
 4968TIP3    H114868   6.345   1.229   4.244
 4968TIP3    H214869   6.367   1.218   4.394
 4969TIP3   OH214870   6.767   1.382   3.520
 4969TIP3    H114871   6.722   1.466   3.515
 4969TIP3    H214872   6.710   1.327   3.573
 4970TIP3   OH214873   6.212   1.176   4.969
 4970TIP3    H114874   6.221   1.158   5.063
 4970TIP3    H214875   6.139   1.120   4.942
 4971TIP3   OH214876   6.919   1.308   4.974
 4971TIP3    H114877   6.854   1.254   4.928
 4971TIP3    H214878   7.003   1.276   4.941
 4972TIP3   OH214879   7.172   1.848   4.573
 4972TIP3    H114880   7.080   1.820   4.572
 4972TIP3    H214881   7.188   1.874   4.664
 4973TIP3   OH214882   6.430   1.578   3.989
 4973TIP3    H114883   6.429   1.656   3.934
 4973TIP3    H214884   6.338   1.559   4.006
 4974TIP3   OH214885   5.985   0.907   3.695
 4974TIP3    H114886   6.033   0.986   3.721
 4974TIP3    H214887   5.904   0.910   3.746
 4975TIP3   OH214888   6.535   1.334   3.913
 4975TIP3    H114889   6.513   1.424   3.938
 4975TIP3    H214890   6.505   1.281   3.987
 4976TIP3   OH214891   6.709   1.903   4.447
 4976TIP3    H114892   6.740   1.979   4.397
 4976TIP3    H214893   6.787   1.868   4.489
 4977TIP3   OH214894   6.341   1.806   3.841
 4977TIP3    H114895   6.255   1.815   3.883
 4977TIP3    H214896   6.378   1.894   3.844
 4978TIP3   OH214897   7.079   1.569   4.407
 4978TIP3    H114898   7.071   1.560   4.502
 4978TIP3    H214899   7.121   1.488   4.378
 4979TIP3   OH214900   7.248   2.097   4.487
 4979TIP3    H114901   7.214   2.008   4.502
 4979TIP3    H214902   7.221   2.118   4.398
 4980TIP3   OH214903   6.404   0.706   4.875
 4980TIP3    H114904   6.316   0.720   4.838
 4980TIP3    H214905   6.409   0.612   4.890
 4981TIP3   OH214906   6.128   1.786   4.612
 4981TIP3    H114907   6.183   1.722   4.658
 4981TIP3    H214908   6.150   1.870   4.652
 4982TIP3   OH214909   6.413   1.415   3.299
 4982TIP3    H114910   6.426   1.324   3.272
 4982TIP3    H214911   6.394   1.409   3.393
 4983TIP3   OH214912   6.354   1.426   3.572
 4983TIP3    H114913   6.426   1.397   3.628
 4983TIP3    H214914   6.357   1.522   3.579
 4984TIP3   OH214915   6.103   1.133   3.789
 4984TIP3    H114916   6.035   1.178   3.840
 4984TIP3    H214917   6.120   1.193   3.716
 4985TIP3   OH214918   6.624   1.612   3.513
 4985TIP3    H114919   6.540   1.638   3.551
 4985TIP3    H214920   6.648   1.685   3.456
 4986TIP3   OH214921   6.804   0.680   3.898
 4986TIP3    H114922   6.869   0.737   3.857
 4986TIP3    H214923   6.808   0.703   3.991
 4987TIP3   OH214924   7.114   1.009   4.733
 4987TIP3    H114925   7.132   1.073   4.801
 4987TIP3    H214926   7.117   0.924   4.778
 4988TIP3   OH214927   6.373   1.698   3.590
 4988TIP3    H114928   6.349   1.767   3.528
 4988TIP3    H214929   6.363   1.739   3.676
 4989TIP3   OH214930   6.102   1.307   3.568
 4989TIP3    H114931   6.174   1.370   3.575
 4989TIP3    H214932   6.133   1.241   3.507
 4990TIP3   OH214933   6.052   0.651   3.725
 4990TIP3    H114934   6.041   0.746   3.733
 4990TIP3    H214935   6.047   0.634   3.631
 4991TIP3   OH214936   5.952   1.550   3.964
 4991TIP3    H114937   5.914   1.575   4.048
 4991TIP3    H214938   5.903   1.602   3.900
 4992TIP3   OH214939   6.134   2.098   5.027
 4992TIP3    H114940   6.216   2.105   5.076
 4992TIP3    H214941   6.119   2.004   5.018
 4993TIP3   OH214942   6.600   2.020   5.076
 4993TIP3    H114943   6.695   2.010   5.081
 4993TIP3    H214944   6.573   1.963   5.004
 4994TIP3   OH214945   6.576   1.613   3.195
 4994TIP3    H114946   6.530   1.540   3.237
 4994TIP3    H214947   6.652   1.572   3.154
 4995TIP3   OH214948   7.234   1.942   4.824
 4995TIP3    H114949   7.231   1.873   4.891
 4995TIP3    H214950   7.326   1.968   4.820
 4996TIP3   OH214951   6.243   1.492   5.225
 4996TIP3    H114952   6.253   1.400   5.248
 4996TIP3    H214953   6.159   1.497   5.180
 4997TIP3   OH214954   6.232   1.114   3.427
 4997TIP3    H114955   6.282   1.087   3.503
 4997TIP3    H214956   6.298   1.126   3.358
 4998TIP3   OH214957   6.865   1.580   5.002
 4998TIP3    H114958   6.816   1.604   4.923
 4998TIP3    H214959   6.891   1.489   4.988
 4999TIP3   OH214960   6.751   1.319   3.250
 4999TIP3    H114961   6.760   1.340   3.344
 4999TIP3    H214962   6.737   1.225   3.248
 5000TIP3   OH214963   6.396   1.211   5.224
 5000TIP3    H114964   6.475   1.199   5.171
 5000TIP3    H214965   6.422   1.271   5.293
 5001TIP3   OH214966   6.406   1.048   3.640
 5001TIP3    H114967   6.394   1.013   3.728
 5001TIP3    H214968   6.450   0.978   3.592
 5002TIP3   OH214969   6.724   1.134   4.860
 5002TIP3    H114970   6.639   1.177   4.855
 5002TIP3    H214971   6.767   1.156   4.778
 5003TIP3   OH214972   6.530   0.863   3.479
 5003TIP3    H114973   6.500   0.864   3.388
 5003TIP3    H214974   6.626   0.857   3.472
 5004TIP3   OH214975   7.224   1.481   5.005
 5004TIP3    H114976   7.317   1.505   4.998
 5004TIP3    H214977   7.220   1.428   5.084
 5005TIP3   OH214978   6.711   0.860   4.960
 5005TIP3    H114979   6.793   0.812   4.945
 5005TIP3    H214980   6.721   0.940   4.909
 5006TIP3   OH214981   6.869   1.221   4.651
 5006TIP3    H114982   6.952   1.224   4.603
 5006TIP3    H214983   6.815   1.288   4.610
 5007TIP3   OH214984   6.726   0.974   5.362
 5007TIP3    H114985   6.634   0.952   5.375
 5007TIP3    H214986   6.728   1.026   5.281
 5008TIP3   OH214987   7.090   1.017   5.150
 5008TIP3    H114988   7.067   0.978   5.234
 5008TIP3    H214989   7.057   0.954   5.085
 5009TIP3   OH214990   6.487   0.852   5.300
 5009TIP3    H114991   6.502   0.767   5.259
 5009TIP3    H214992   6.447   0.832   5.384
 5010TIP3   OH214993   6.349   1.903   3.405
 5010TIP3    H114994   6.441   1.887   3.383
 5010TIP3    H214995   6.314   1.950   3.329
 5011TIP3   OH214996   5.830   1.282   3.607
 5011TIP3    H114997   5.922   1.300   3.591
 5011TIP3    H214998   5.813   1.199   3.561
 5012TIP3   OH214999   5.729   1.848   4.026
 5012TIP3    H115000   5.751   1.802   3.945
 5012TIP3    H215001   5.782   1.806   4.094
 5013TIP3   OH215002   5.877   1.714   4.218
 5013TIP3    H115003   5.873   1.649   4.288
 5013TIP3    H215004   5.927   1.786   4.255
 5014TIP3   OH215005   6.057   1.156   4.588
 5014TIP3    H115006   6.046   1.120   4.500
 5014TIP3    H215007   6.152   1.156   4.602
 5015TIP3   OH215008   6.250   0.836   5.160
 5015TIP3    H115009   6.338   0.850   5.197
 5015TIP3    H215010   6.208   0.775   5.221
 5016TIP3   OH215011   6.052   0.787   4.641
 5016TIP3    H115012   6.098   0.806   4.560
 5016TIP3    H215013   6.101   0.835   4.708
 5017TIP3   OH215014   6.282   1.816   5.041
 5017TIP3    H115015   6.188   1.797   5.033
 5017TIP3    H215016   6.299   1.814   5.135
 5018TIP3   OH215017   6.482   1.860   4.596
 5018TIP3    H115018   6.431   1.934   4.563
 5018TIP3    H215019   6.567   1.868   4.553
 5019TIP3   OH215020   6.886   2.088   4.736
 5019TIP3    H115021   6.927   2.082   4.823
 5019TIP3    H215022   6.943   2.147   4.687
 5020TIP3   OH215023   7.061   2.262   4.615
 5020TIP3    H115024   7.127   2.209   4.569
 5020TIP3    H215025   7.112   2.320   4.671
 5021TIP3   OH215026   6.144   2.104   4.640
 5021TIP3    H115027   6.053   2.126   4.617
 5021TIP3    H215028   6.169   2.169   4.706
 5022TIP3   OH215029   6.373   2.088   4.488
 5022TIP3    H115030   6.290   2.097   4.534
 5022TIP3    H215031   6.354   2.118   4.399
 5023TIP3   OH215032   6.773   2.117   4.282
 5023TIP3    H115033   6.708   2.135   4.215
 5023TIP3    H215034   6.791   2.202   4.323
 5024TIP3   OH215035   7.033   2.039   4.305
 5024TIP3    H115036   6.942   2.064   4.293
 5024TIP3    H215037   7.083   2.111   4.266
 5025TIP3   OH215038   7.207   2.242   4.237
 5025TIP3    H115039   7.203   2.332   4.203
 5025TIP3    H215040   7.274   2.200   4.184
 5026TIP3   OH215041   6.053   1.889   4.362
 5026TIP3    H115042   6.076   1.863   4.451
 5026TIP3    H215043   6.126   1.856   4.308
 5027TIP3   OH215044   6.256   1.771   4.223
 5027TIP3    H115045   6.268   1.688   4.268
 5027TIP3    H215046   6.343   1.812   4.225
 5028TIP3   OH215047   6.522   1.859   4.241
 5028TIP3    H115048   6.543   1.766   4.228
 5028TIP3    H215049   6.577   1.885   4.315
 5029TIP3   OH215050   5.802   1.709   3.798
 5029TIP3    H115051   5.731   1.663   3.753
 5029TIP3    H215052   5.826   1.780   3.738
 5030TIP3   OH215053   6.607   1.840   3.342
 5030TIP3    H115054   6.694   1.866   3.309
 5030TIP3    H215055   6.580   1.769   3.285
 5031TIP3   OH215056   5.928   1.682   3.393
 5031TIP3    H115057   5.948   1.718   3.480
 5031TIP3    H215058   6.007   1.634   3.369
 5032TIP3   OH215059   1.272   2.275   5.071
 5032TIP3    H115060   1.250   2.366   5.050
 5032TIP3    H215061   1.197   2.224   5.039
 5033TIP3   OH215062   1.262   2.277   5.475
 5033TIP3    H115063   1.310   2.263   5.556
 5033TIP3    H215064   1.223   2.192   5.454
 5034TIP3   OH215065   0.584   2.188   5.822
 5034TIP3    H115066   0.611   2.117   5.880
 5034TIP3    H215067   0.660   2.202   5.766
 5035TIP3   OH215068   1.584   2.545   5.163
 5035TIP3    H115069   1.519   2.516   5.228
 5035TIP3    H215070   1.552   2.630   5.133
 5036TIP3   OH215071   0.603   2.573   5.553
 5036TIP3    H115072   0.571   2.483   5.544
 5036TIP3    H215073   0.691   2.572   5.515
 5037TIP3   OH215074   0.254   1.833   5.340
 5037TIP3    H115075   0.273   1.920   5.373
 5037TIP3    H215076   0.163   1.816   5.366
 5038TIP3   OH215077   0.340   2.082   5.484
 5038TIP3    H115078   0.388   2.016   5.533
 5038TIP3    H215079   0.402   2.155   5.475
 5039TIP3   OH215080   1.181   3.012   5.153
 5039TIP3    H115081   1.201   2.948   5.085
 5039TIP3    H215082   1.209   2.970   5.235
 5040TIP3   OH215083   1.081   2.502   5.493
 5040TIP3    H115084   1.124   2.423   5.460
 5040TIP3    H215085   1.153   2.558   5.522
 5041TIP3   OH215086   2.106   1.831   5.502
 5041TIP3    H115087   2.125   1.913   5.547
 5041TIP3    H215088   2.121   1.850   5.409
 5042TIP3   OH215089   1.490   1.996   5.524
 5042TIP3    H115090   1.530   1.913   5.549
 5042TIP3    H215091   1.451   1.979   5.439
 5043TIP3   OH215092   0.842   1.646   5.487
 5043TIP3    H115093   0.831   1.722   5.431
 5043TIP3    H215094   0.793   1.576   5.444
 5044TIP3   OH215095   1.534   1.757   5.118
 5044TIP3    H115096   1.599   1.748   5.187
 5044TIP3    H215097   1.583   1.794   5.044
 5045TIP3   OH215098   0.476   1.875   5.605
 5045TIP3    H115099   0.560   1.861   5.647
 5045TIP3    H215100   0.480   1.823   5.525
 5046TIP3   OH215101   0.896   2.063   5.420
 5046TIP3    H115102   0.991   2.048   5.426
 5046TIP3    H215103   0.862   1.982   5.383
 5047TIP3   OH215104   2.166   2.044   5.674
 5047TIP3    H115105   2.083   2.088   5.660
 5047TIP3    H215106   2.205   2.089   5.750
 5048TIP3   OH215107   0.802   1.652   5.922
 5048TIP3    H115108   0.770   1.707   5.850
 5048TIP3    H215109   0.723   1.621   5.966
 5049TIP3   OH215110   1.185   2.507   4.949
 5049TIP3    H115111   1.146   2.511   4.861
 5049TIP3    H215112   1.217   2.595   4.965
 5050TIP3   OH215113   0.927   2.428   5.713
 5050TIP3    H115114   0.871   2.496   5.752
 5050TIP3    H215115   0.973   2.473   5.642
 5051TIP3   OH215116   1.710   1.769   5.327
 5051TIP3    H115117   1.668   1.747   5.410
 5051TIP3    H215118   1.764   1.845   5.347
 5052TIP3   OH215119   0.718   1.777   5.695
 5052TIP3    H115120   0.774   1.852   5.715
 5052TIP3    H215121   0.762   1.732   5.623
 5053TIP3   OH215122   0.760   2.626   5.827
 5053TIP3    H115123   0.745   2.709   5.782
 5053TIP3    H215124   0.675   2.605   5.866
 5054TIP3   OH215125   0.184   2.298   5.044
 5054TIP3    H115126   0.155   2.332   4.959
 5054TIP3    H215127   0.225   2.373   5.087
 5055TIP3   OH215128   1.593   2.856   5.307
 5055TIP3    H115129   1.505   2.831   5.337
 5055TIP3    H215130   1.579   2.935   5.254
 5056TIP3   OH215131   1.901   1.715   5.661
 5056TIP3    H115132   1.814   1.744   5.632
 5056TIP3    H215133   1.961   1.748   5.595
 5057TIP3   OH215134   1.176   1.381   5.641
 5057TIP3    H115135   1.164   1.288   5.661
 5057TIP3    H215136   1.103   1.425   5.684
 5058TIP3   OH215137   1.819   2.725   5.642
 5058TIP3    H115138   1.801   2.653   5.581
 5058TIP3    H215139   1.802   2.804   5.590
 5059TIP3   OH215140   1.099   2.127   4.906
 5059TIP3    H115141   1.021   2.179   4.888
 5059TIP3    H215142   1.151   2.134   4.825
 5060TIP3   OH215143   1.067   1.932   4.611
 5060TIP3    H115144   1.132   1.982   4.663
 5060TIP3    H215145   1.119   1.868   4.563
 5061TIP3   OH215146   2.001   2.387   5.502
 5061TIP3    H115147   1.917   2.433   5.504
 5061TIP3    H215148   2.034   2.402   5.414
 5062TIP3   OH215149   1.456   2.218   4.875
 5062TIP3    H115150   1.401   2.247   4.948
 5062TIP3    H215151   1.541   2.198   4.916
 5063TIP3   OH215152   1.682   2.253   5.785
 5063TIP3    H115153   1.683   2.331   5.840
 5063TIP3    H215154   1.596   2.256   5.742
 5064TIP3   OH215155   0.692   2.200   5.285
 5064TIP3    H115156   0.657   2.141   5.219
 5064TIP3    H215157   0.768   2.153   5.322
 5065TIP3   OH215158   0.837   2.616   5.411
 5065TIP3    H115159   0.819   2.600   5.318
 5065TIP3    H215160   0.924   2.580   5.425
 5066TIP3   OH215161   0.797   2.199   5.642
 5066TIP3    H115162   0.836   2.167   5.561
 5066TIP3    H215163   0.847   2.278   5.663
 5067TIP3   OH215164   1.349   2.820   5.427
 5067TIP3    H115165   1.338   2.903   5.475
 5067TIP3    H215166   1.332   2.753   5.493
 5068TIP3   OH215167   0.963   2.742   5.974
 5068TIP3    H115168   0.902   2.802   6.016
 5068TIP3    H215169   0.908   2.686   5.919
 5069TIP3   OH215170   1.294   2.078   4.703
 5069TIP3    H115171   1.351   2.138   4.752
 5069TIP3    H215172   1.320   2.089   4.612
 5070TIP3   OH215173   0.793   2.334   6.007
 5070TIP3    H115174   0.778   2.419   6.049
 5070TIP3    H215175   0.706   2.308   5.977
 5071TIP3   OH215176   0.755   2.912   6.044
 5071TIP3    H115177   0.753   2.915   5.949
 5071TIP3    H215178   0.663   2.902   6.070
 5072TIP3   OH215179   1.804   1.308   4.757
 5072TIP3    H115180   1.726   1.326   4.810
 5072TIP3    H215181   1.816   1.387   4.704
 5073TIP3   OH215182   0.576   2.040   5.085
 5073TIP3    H115183   0.505   2.085   5.038
 5073TIP3    H215184   0.538   1.956   5.110
 5074TIP3   OH215185   1.617   2.681   4.298
 5074TIP3    H115186   1.619   2.776   4.285
 5074TIP3    H215187   1.708   2.653   4.286
 5075TIP3   OH215188   0.354   2.404   5.982
 5075TIP3    H115189   0.300   2.429   5.907
 5075TIP3    H215190   0.358   2.308   5.978
 5076TIP3   OH215191   0.209   2.517   5.782
 5076TIP3    H115192   0.255   2.553   5.706
 5076TIP3    H215193   0.193   2.594   5.838
 5077TIP3   OH215194   2.052   3.095   5.704
 5077TIP3    H115195   2.056   3.000   5.711
 5077TIP3    H215196   1.970   3.118   5.748
 5078TIP3   OH215197   1.153   2.891   5.830
 5078TIP3    H115198   1.151   2.983   5.855
 5078TIP3    H215199   1.088   2.849   5.887
 5079TIP3   OH215200   0.902   2.982   4.757
 5079TIP3    H115201   0.867   2.979   4.668
 5079TIP3    H215202   0.881   3.070   4.789
 5080TIP3   OH215203   0.426   2.841   5.175
 5080TIP3    H115204   0.462   2.824   5.262
 5080TIP3    H215205   0.344   2.792   5.173
 5081TIP3   OH215206   1.126   2.902   4.418
 5081TIP3    H115207   1.181   2.830   4.386
 5081TIP3    H215208   1.154   2.915   4.508
 5082TIP3   OH215209   1.165   2.944   4.687
 5082TIP3    H115210   1.078   2.955   4.726
 5082TIP3    H215211   1.216   2.899   4.755
 5083TIP3   OH215212   1.935   2.210   5.964
 5083TIP3    H115213   1.846   2.222   5.932
 5083TIP3    H215214   1.951   2.116   5.958
 5084TIP3   OH215215   0.519   2.625   5.982
 5084TIP3    H115216   0.576   2.607   6.056
 5084TIP3    H215217   0.458   2.551   5.979
 5085TIP3   OH215218   0.926   1.470   5.741
 5085TIP3    H115219   0.876   1.486   5.661
 5085TIP3    H215220   0.889   1.531   5.805
 5086TIP3   OH215221   1.481   1.574   5.949
 5086TIP3    H115222   1.549   1.544   6.010
 5086TIP3    H215223   1.399   1.549   5.991
 5087TIP3   OH215224   1.709   1.996   5.863
 5087TIP3    H115225   1.662   1.989   5.947
 5087TIP3    H215226   1.689   2.084   5.832
 5088TIP3   OH215227   1.373   2.069   4.438
 5088TIP3    H115228   1.332   2.068   4.352
 5088TIP3    H215229   1.451   2.123   4.428
 5089TIP3   OH215230   1.085   1.486   4.751
 5089TIP3    H115231   1.052   1.491   4.841
 5089TIP3    H215232   1.045   1.408   4.715
 5090TIP3   OH215233   0.879   1.979   5.786
 5090TIP3    H115234   0.828   1.987   5.866
 5090TIP3    H215235   0.862   2.059   5.737
 5091TIP3   OH215236   0.763   1.844   5.316
 5091TIP3    H115237   0.672   1.823   5.338
 5091TIP3    H215238   0.773   1.812   5.226
 5092TIP3   OH215239   1.233   1.927   5.040
 5092TIP3    H115240   1.184   1.999   5.000
 5092TIP3    H215241   1.292   1.897   4.971
 5093TIP3   OH215242   3.891   5.713  -0.004
 5093TIP3    H115243   3.841   5.671   0.065
 5093TIP3    H215244   3.982   5.713   0.027
 5094TIP3   OH215245   1.390   1.945   5.275
 5094TIP3    H115246   1.328   1.978   5.209
 5094TIP3    H215247   1.433   1.871   5.232
 5095TIP3   OH215248   0.687   1.985   5.981
 5095TIP3    H115249   0.713   2.023   6.066
 5095TIP3    H215250   0.623   1.918   6.003
 5096TIP3   OH215251   0.746   1.470   4.729
 5096TIP3    H115252   0.736   1.464   4.824
 5096TIP3    H215253   0.667   1.515   4.699
 5097TIP3   OH215254   0.290   1.511   5.139
 5097TIP3    H115255   0.296   1.534   5.046
 5097TIP3    H215256   0.263   1.593   5.182
 5098TIP3   OH215257   1.415   2.195   5.692
 5098TIP3    H115258   1.448   2.129   5.632
 5098TIP3    H215259   1.372   2.144   5.762
 5099TIP3   OH215260   1.111   1.654   5.369
 5099TIP3    H115261   1.034   1.649   5.426
 5099TIP3    H215262   1.186   1.649   5.428
 5100TIP3   OH215263   0.516   1.735   5.371
 5100TIP3    H115264   0.425   1.746   5.345
 5100TIP3    H215265   0.533   1.642   5.359
 5101TIP3   OH215266   0.771   1.725   5.067
 5101TIP3    H115267   0.864   1.741   5.053
 5101TIP3    H215268   0.730   1.748   4.984
 5102TIP3   OH215269   1.573   1.731   5.568
 5102TIP3    H115270   1.552   1.753   5.658
 5102TIP3    H215271   1.502   1.674   5.539
 5103TIP3   OH215272   0.639   1.757   4.829
 5103TIP3    H115273   0.578   1.707   4.774
 5103TIP3    H215274   0.696   1.802   4.766
 5104TIP3   OH215275   1.784   3.416   5.784
 5104TIP3    H115276   1.750   3.450   5.701
 5104TIP3    H215277   1.799   3.494   5.838
 5105TIP3   OH215278   3.148   6.025   0.140
 5105TIP3    H115279   3.226   6.063   0.181
 5105TIP3    H215280   3.092   6.001   0.213
 5106TIP3   OH215281   1.166   2.002   5.467
 5106TIP3    H115282   1.235   1.962   5.416
 5106TIP3    H215283   1.168   1.957   5.552
 5107TIP3   OH215284   0.685   1.479   5.333
 5107TIP3    H115285   0.638   1.400   5.358
 5107TIP3    H215286   0.713   1.462   5.243
 5108TIP3   OH215287   1.136   1.896   5.730
 5108TIP3    H115288   1.052   1.938   5.751
 5108TIP3    H215289   1.200   1.943   5.784
 5109TIP3   OH215290   0.871   2.277   4.850
 5109TIP3    H115291   0.797   2.220   4.829
 5109TIP3    H215292   0.849   2.314   4.935
 5110TIP3   OH215293   1.762   2.519   5.467
 5110TIP3    H115294   1.782   2.570   5.388
 5110TIP3    H215295   1.679   2.477   5.448
 5111TIP3   OH215296   1.336   1.590   4.741
 5111TIP3    H115297   1.243   1.569   4.743
 5111TIP3    H215298   1.340   1.684   4.759
 5112TIP3   OH215299   1.270   2.595   5.871
 5112TIP3    H115300   1.332   2.580   5.943
 5112TIP3    H215301   1.256   2.690   5.871
 5113TIP3   OH215302   1.397   1.848   4.824
 5113TIP3    H115303   1.491   1.856   4.838
 5113TIP3    H215304   1.373   1.928   4.776
 5114TIP3   OH215305   0.553   2.280   5.509
 5114TIP3    H115306   0.595   2.267   5.424
 5114TIP3    H215307   0.621   2.255   5.572
 5115TIP3   OH215308   1.020   2.432   4.673
 5115TIP3    H115309   0.977   2.517   4.680
 5115TIP3    H215310   0.974   2.376   4.737
 5116TIP3   OH215311   2.791   5.632   0.087
 5116TIP3    H115312   2.881   5.665   0.091
 5116TIP3    H215313   2.801   5.539   0.065
 5117TIP3   OH215314   3.659   5.853   0.090
 5117TIP3    H115315   3.596   5.802   0.039
 5117TIP3    H215316   3.740   5.848   0.039
 5118TIP3   OH215317   1.421   2.865   5.769
 5118TIP3    H115318   1.326   2.875   5.764
 5118TIP3    H215319   1.449   2.928   5.836
 5119TIP3   OH215320   1.826   1.933   4.645
 5119TIP3    H115321   1.768   1.888   4.584
 5119TIP3    H215322   1.826   2.024   4.614
 5120TIP3   OH215323   2.064   2.813   5.729
 5120TIP3    H115324   1.969   2.800   5.728
 5120TIP3    H215325   2.094   2.779   5.645
 5121TIP3   OH215326   1.551   2.749   4.566
 5121TIP3    H115327   1.508   2.683   4.619
 5121TIP3    H215328   1.565   2.706   4.481
 5122TIP3   OH215329   1.527   2.374   5.406
 5122TIP3    H115330   1.435   2.352   5.415
 5122TIP3    H215331   1.563   2.306   5.349
 5123TIP3   OH215332   0.686   2.622   5.159
 5123TIP3    H115333   0.695   2.697   5.100
 5123TIP3    H215334   0.592   2.618   5.179
 5124TIP3   OH215335   0.235   1.913   4.874
 5124TIP3    H115336   0.297   1.986   4.875
 5124TIP3    H215337   0.177   1.930   4.948
 5125TIP3   OH215338   0.776   2.373   5.084
 5125TIP3    H115339   0.755   2.463   5.107
 5125TIP3    H215340   0.750   2.322   5.160
 5126TIP3   OH215341   0.971   2.945   5.624
 5126TIP3    H115342   1.005   3.020   5.576
 5126TIP3    H215343   1.045   2.916   5.679
 5127TIP3   OH215344   0.628   2.854   4.996
 5127TIP3    H115345   0.553   2.853   5.055
 5127TIP3    H215346   0.658   2.944   4.996
 5128TIP3   OH215347   1.320   2.596   5.598
 5128TIP3    H115348   1.308   2.590   5.693
 5128TIP3    H215349   1.404   2.555   5.581
 5129TIP3   OH215350   1.302   2.485   4.475
 5129TIP3    H115351   1.364   2.456   4.542
 5129TIP3    H215352   1.216   2.469   4.513
 5130TIP3   OH215353   1.584   3.111   5.632
 5130TIP3    H115354   1.499   3.068   5.646
 5130TIP3    H215355   1.565   3.184   5.574
 5131TIP3   OH215356   1.637   2.958   4.280
 5131TIP3    H115357   1.683   3.032   4.240
 5131TIP3    H215358   1.558   2.997   4.318
 5132TIP3   OH215359   3.019   5.138   0.011
 5132TIP3    H115360   2.924   5.134   0.002
 5132TIP3    H215361   3.043   5.053   0.048
 5133TIP3   OH215362   1.484   2.393   4.655
 5133TIP3    H115363   1.466   2.351   4.740
 5133TIP3    H215364   1.580   2.399   4.652
 5134TIP3   OH215365   0.413   2.815   5.799
 5134TIP3    H115366   0.455   2.757   5.863
 5134TIP3    H215367   0.420   2.902   5.837
 5135TIP3   OH215368   0.669   2.451   4.479
 5135TIP3    H115369   0.684   2.360   4.452
 5135TIP3    H215370   0.657   2.446   4.574
 5136TIP3   OH215371   0.619   2.466   4.751
 5136TIP3    H115372   0.694   2.445   4.807
 5136TIP3    H215373   0.614   2.562   4.752
 5137TIP3   OH215374   0.372   2.144   4.932
 5137TIP3    H115375   0.308   2.188   4.987
 5137TIP3    H215376   0.395   2.208   4.865
 5138TIP3   OH215377   1.505   1.808   5.819
 5138TIP3    H115378   1.584   1.849   5.855
 5138TIP3    H215379   1.495   1.728   5.870
 5139TIP3   OH215380   1.394   1.540   5.013
 5139TIP3    H115381   1.374   1.561   4.922
 5139TIP3    H215382   1.434   1.620   5.047
 5140TIP3   OH215383   0.882   2.665   4.700
 5140TIP3    H115384   0.790   2.690   4.713
 5140TIP3    H215385   0.931   2.747   4.712
 5141TIP3   OH215386   1.050   1.737   5.111
 5141TIP3    H115387   1.112   1.805   5.085
 5141TIP3    H215388   1.068   1.721   5.203
 5142TIP3   OH215389   1.326   2.014   5.888
 5142TIP3    H115390   1.366   2.080   5.945
 5142TIP3    H215391   1.392   1.945   5.881
 5143TIP3   OH215392   1.215   1.448   5.202
 5143TIP3    H115393   1.194   1.527   5.252
 5143TIP3    H215394   1.282   1.476   5.139
 5144TIP3   OH215395   0.616   2.737   4.749
 5144TIP3    H115396   0.597   2.808   4.688
 5144TIP3    H215397   0.621   2.781   4.835
 5145TIP3   OH215398   0.732   1.455   5.016
 5145TIP3    H115399   0.724   1.548   5.037
 5145TIP3    H215400   0.827   1.439   5.015
 5146TIP3   OH215401   1.968   1.938   5.889
 5146TIP3    H115402   1.873   1.944   5.890
 5146TIP3    H215403   1.990   1.913   5.799
 5147TIP3   OH215404   1.623   2.130   5.274
 5147TIP3    H115405   1.544   2.079   5.291
 5147TIP3    H215406   1.690   2.089   5.329
 5148TIP3   OH215407   0.367   2.353   4.739
 5148TIP3    H115408   0.440   2.413   4.754
 5148TIP3    H215409   0.399   2.292   4.673
 5149TIP3   OH215410   0.256   1.637   4.892
 5149TIP3    H115411   0.263   1.732   4.894
 5149TIP3    H215412   0.246   1.615   4.799
 5150TIP3   OH215413   1.596   3.124   5.211
 5150TIP3    H115414   1.557   3.178   5.143
 5150TIP3    H215415   1.690   3.127   5.194
 5151TIP3   OH215416   0.268   2.549   5.114
 5151TIP3    H115417   0.194   2.556   5.175
 5151TIP3    H215418   0.237   2.589   5.033
 5152TIP3   OH215419   2.886   6.653   0.154
 5152TIP3    H115420   2.967   6.670   0.203
 5152TIP3    H215421   2.898   6.565   0.118
 5153TIP3   OH215422   3.336   6.553   0.205
 5153TIP3    H115423   3.428   6.556   0.180
 5153TIP3    H215424   3.293   6.503   0.135
 5154TIP3   OH215425   0.823   2.654   4.371
 5154TIP3    H115426   0.780   2.584   4.419
 5154TIP3    H215427   0.902   2.613   4.336
 5155TIP3   OH215428   1.474   3.024   5.987
 5155TIP3    H115429   1.479   2.945   6.039
 5155TIP3    H215430   1.553   3.073   6.009
 5156TIP3   OH215431   1.261   2.694   4.296
 5156TIP3    H115432   1.294   2.629   4.359
 5156TIP3    H215433   1.324   2.691   4.224
 5157TIP3   OH215434   2.951   5.920   0.297
 5157TIP3    H115435   2.977   5.851   0.357
 5157TIP3    H215436   2.858   5.903   0.279
 5158TIP3   OH215437   0.489   2.153   4.600
 5158TIP3    H115438   0.541   2.130   4.677
 5158TIP3    H215439   0.554   2.165   4.531
 5159TIP3   OH215440   3.618   6.128   0.105
 5159TIP3    H115441   3.574   6.141   0.021
 5159TIP3    H215442   3.642   6.035   0.105
 5160TIP3   OH215443   1.000   2.373   4.406
 5160TIP3    H115444   1.000   2.390   4.500
 5160TIP3    H215445   1.000   2.278   4.399
 5161TIP3   OH215446   1.589   2.649   5.780
 5161TIP3    H115447   1.666   2.683   5.735
 5161TIP3    H215448   1.525   2.719   5.774
 5162TIP3   OH215449   3.066   5.672   0.397
 5162TIP3    H115450   3.140   5.712   0.351
 5162TIP3    H215451   3.069   5.710   0.485
 5163TIP3   OH215452   0.666   2.091   4.810
 5163TIP3    H115453   0.650   2.059   4.898
 5163TIP3    H215454   0.712   2.019   4.766
 5164TIP3   OH215455   0.981   2.140   6.051
 5164TIP3    H115456   0.907   2.201   6.046
 5164TIP3    H215457   1.035   2.162   5.975
 5165TIP3   OH215458   0.795   1.899   4.654
 5165TIP3    H115459   0.767   1.903   4.563
 5165TIP3    H215460   0.890   1.907   4.651
 5166TIP3   OH215461   3.912   6.022   0.046
 5166TIP3    H115462   3.989   5.979   0.009
 5166TIP3    H215463   3.929   6.024   0.140
 5167TIP3   OH215464   1.598   2.197   4.333
 5167TIP3    H115465   1.582   2.157   4.248
 5167TIP3    H215466   1.570   2.288   4.322
 5168TIP3   OH215467   3.515   5.376   0.124
 5168TIP3    H115468   3.530   5.309   0.058
 5168TIP3    H215469   3.469   5.446   0.078
 5169TIP3   OH215470   1.075   1.725   5.948
 5169TIP3    H115471   1.099   1.767   5.866
 5169TIP3    H215472   0.984   1.697   5.935
 5170TIP3   OH215473   1.112   2.273   5.852
 5170TIP3    H115474   1.196   2.309   5.822
 5170TIP3    H215475   1.046   2.327   5.810
 5171TIP3   OH215476   4.145   5.690   0.090
 5171TIP3    H115477   4.167   5.597   0.102
 5171TIP3    H215478   4.225   5.737   0.114
 5172TIP3   OH215479   1.715   2.478   5.943
 5172TIP3    H115480   1.663   2.538   5.890
 5172TIP3    H215481   1.805   2.493   5.914
 5173TIP3   OH215482   3.488   5.618   0.288
 5173TIP3    H115483   3.407   5.652   0.325
 5173TIP3    H215484   3.472   5.615   0.193
 5174TIP3   OH215485   1.219   1.490   5.970
 5174TIP3    H115486   1.172   1.574   5.971
 5174TIP3    H215487   1.150   1.424   5.968
 5175TIP3   OH215488   3.718   5.569   0.146
 5175TIP3    H115489   3.650   5.586   0.212
 5175TIP3    H215490   3.678   5.504   0.088
 5176TIP3   OH215491   4.056   5.408   0.043
 5176TIP3    H115492   3.985   5.409   0.107
 5176TIP3    H215493   4.128   5.366   0.088
 5177TIP3   OH215494   4.312   5.396   0.175
 5177TIP3    H115495   4.278   5.308   0.191
 5177TIP3    H215496   4.288   5.446   0.253
 5178TIP3   OH215497   3.218   5.305   0.441
 5178TIP3    H115498   3.284   5.266   0.384
 5178TIP3    H215499   3.258   5.308   0.527
 5179TIP3   OH215500   3.792   4.976   0.185
 5179TIP3    H115501   3.828   4.889   0.166
 5179TIP3    H215502   3.725   4.989   0.118
 5180TIP3   OH215503   3.795   5.182   0.373
 5180TIP3    H115504   3.787   5.137   0.290
 5180TIP3    H215505   3.723   5.245   0.374
 5181TIP3   OH215506   0.603   2.944   4.569
 5181TIP3    H115507   0.695   2.927   4.548
 5181TIP3    H215508   0.571   2.998   4.496
 5182TIP3   OH215509   0.101   2.304   4.777
 5182TIP3    H115510   0.189   2.336   4.755
 5182TIP3    H215511   0.093   2.222   4.729
 5183TIP3   OH215512   0.112   2.759   5.422
 5183TIP3    H115513   0.020   2.757   5.397
 5183TIP3    H215514   0.120   2.838   5.477
 5184TIP3   OH215515   1.870   3.158   5.196
 5184TIP3    H115516   1.887   3.192   5.284
 5184TIP3    H215517   1.926   3.210   5.139
 5185TIP3   OH215518   1.890   3.199   5.477
 5185TIP3    H115519   1.843   3.116   5.474
 5185TIP3    H215520   1.959   3.185   5.541
 5186TIP3   OH215521   4.404   6.374   0.010
 5186TIP3    H115522   4.325   6.382   0.063
 5186TIP3    H215523   4.444   6.461   0.012
 5187TIP3   OH215524   1.764   2.391   4.659
 5187TIP3    H115525   1.819   2.464   4.631
 5187TIP3    H215526   1.806   2.357   4.738
 5188TIP3   OH215527   1.890   2.252   4.865
 5188TIP3    H115528   1.820   2.221   4.922
 5188TIP3    H215529   1.951   2.297   4.923
 5189TIP3   OH215530   1.945   2.667   5.299
 5189TIP3    H115531   1.982   2.596   5.246
 5189TIP3    H215532   1.932   2.738   5.237
 5190TIP3   OH215533   1.761   2.952   5.497
 5190TIP3    H115534   1.694   2.999   5.546
 5190TIP3    H215535   1.714   2.914   5.423
 5191TIP3   OH215536   1.812   2.171   4.503
 5191TIP3    H115537   1.739   2.173   4.440
 5191TIP3    H215538   1.798   2.247   4.559
 5192TIP3   OH215539   1.679   1.823   4.443
 5192TIP3    H115540   1.624   1.872   4.382
 5192TIP3    H215541   1.658   1.731   4.426
 5193TIP3   OH215542   1.686   2.124   5.005
 5193TIP3    H115543   1.689   2.028   4.999
 5193TIP3    H215544   1.667   2.141   5.098
 5194TIP3   OH215545   0.313   2.161   5.767
 5194TIP3    H115546   0.302   2.163   5.672
 5194TIP3    H215547   0.404   2.186   5.782
 5195TIP3   OH215548   1.969   2.538   5.855
 5195TIP3    H115549   2.038   2.474   5.837
 5195TIP3    H215550   1.976   2.601   5.782
 5196TIP3   OH215551   2.151   2.332   5.852
 5196TIP3    H115552   2.077   2.296   5.900
 5196TIP3    H215553   2.226   2.279   5.880
 5197TIP3   OH215554   1.621   1.552   4.415
 5197TIP3    H115555   1.681   1.532   4.488
 5197TIP3    H215556   1.537   1.517   4.444
 5198TIP3   OH215557   1.682   1.841   4.889
 5198TIP3    H115558   1.726   1.757   4.902
 5198TIP3    H215559   1.730   1.882   4.818
 5199TIP3   OH215560   1.840   2.003   5.408
 5199TIP3    H115561   1.920   2.025   5.361
 5199TIP3    H215562   1.850   2.045   5.493
 5200TIP3   OH215563   1.911   2.159   5.632
 5200TIP3    H115564   1.835   2.188   5.682
 5200TIP3    H215565   1.943   2.239   5.589
 5201TIP3   OH215566   3.005   5.314   0.283
 5201TIP3    H115567   3.075   5.330   0.347
 5201TIP3    H215568   2.925   5.307   0.336
 5202TIP3   OH215569   4.858   5.246   0.091
 5202TIP3    H115570   4.911   5.186   0.040
 5202TIP3    H215571   4.809   5.297   0.026
 5203TIP3   OH215572   1.797   1.589   4.936
 5203TIP3    H115573   1.840   1.576   5.020
 5203TIP3    H215574   1.733   1.518   4.930
 5204TIP3   OH215575   0.529   1.554   5.675
 5204TIP3    H115576   0.524   1.522   5.765
 5204TIP3    H215577   0.570   1.640   5.683
 5205TIP3   OH215578   0.331   1.890   5.841
 5205TIP3    H115579   0.369   1.872   5.755
 5205TIP3    H215580   0.301   1.981   5.836
 5206TIP3   OH215581   2.221   1.878   5.968
 5206TIP3    H115582   2.138   1.923   5.984
 5206TIP3    H215583   2.197   1.806   5.908
 5207TIP3   OH215584   1.851   1.514   4.576
 5207TIP3    H115585   1.891   1.449   4.519
 5207TIP3    H215586   1.910   1.589   4.574
 5208TIP3   OH215587   1.399   3.100   4.839
 5208TIP3    H115588   1.459   3.082   4.766
 5208TIP3    H215589   1.382   3.014   4.878
 5209TIP3   OH215590   2.960   6.393   0.093
 5209TIP3    H115591   2.916   6.309   0.095
 5209TIP3    H215592   2.997   6.403   0.181
 5210TIP3   OH215593   0.746   2.900   5.770
 5210TIP3    H115594   0.692   2.972   5.737
 5210TIP3    H215595   0.828   2.907   5.722
 5211TIP3   OH215596   1.160   3.171   5.897
 5211TIP3    H115597   1.202   3.157   5.982
 5211TIP3    H215598   1.197   3.252   5.864
 5212TIP3   OH215599   2.130   1.639   5.854
 5212TIP3    H115600   2.041   1.641   5.818
 5212TIP3    H215601   2.157   1.548   5.847
 5213TIP3   OH215602   0.408   3.091   5.823
 5213TIP3    H115603   0.334   3.125   5.773
 5213TIP3    H215604   0.408   3.141   5.904
 5214TIP3   OH215605   0.635   3.124   5.660
 5214TIP3    H115606   0.550   3.125   5.704
 5214TIP3    H215607   0.614   3.134   5.568
 5215TIP3   OH215608   1.054   3.152   5.464
 5215TIP3    H115609   0.995   3.168   5.390
 5215TIP3    H215610   1.065   3.237   5.505
 5216TIP3   OH215611   1.319   3.083   5.515
 5216TIP3    H115612   1.227   3.103   5.498
 5216TIP3    H215613   1.367   3.158   5.479
 5217TIP3   OH215614   1.518   3.284   5.420
 5217TIP3    H115615   1.503   3.368   5.377
 5217TIP3    H215616   1.543   3.225   5.350
 5218TIP3   OH215617   0.389   2.983   5.535
 5218TIP3    H115618   0.393   2.962   5.628
 5218TIP3    H215619   0.446   2.919   5.493
 5219TIP3   OH215620   0.542   2.800   5.416
 5219TIP3    H115621   0.550   2.720   5.468
 5219TIP3    H215622   0.631   2.836   5.414
 5220TIP3   OH215623   0.801   2.897   5.411
 5220TIP3    H115624   0.824   2.805   5.397
 5220TIP3    H215625   0.853   2.923   5.488
 5221TIP3   OH215626   1.345   1.566   5.498
 5221TIP3    H115627   1.301   1.499   5.550
 5221TIP3    H215628   1.412   1.519   5.449
 5222TIP3   OH215629   1.844   1.453   5.391
 5222TIP3    H115630   1.880   1.505   5.320
 5222TIP3    H215631   1.752   1.479   5.396
 5223TIP3   OH215632   1.957   1.539   5.157
 5223TIP3    H115633   2.027   1.481   5.127
 5223TIP3    H215634   1.992   1.627   5.145
 5224TIP3   OH215635   1.053   1.325   5.394
 5224TIP3    H115636   1.105   1.369   5.327
 5224TIP3    H215637   1.097   1.346   5.477
 5225TIP3   OH215638   1.557   1.440   5.373
 5225TIP3    H115639   1.567   1.404   5.285
 5225TIP3    H215640   1.557   1.363   5.431
 5226TIP3   OH215641   1.610   1.380   4.940
 5226TIP3    H115642   1.531   1.428   4.961
 5226TIP3    H215643   1.598   1.294   4.981
 5227TIP3   OH215644   0.093   2.675   4.920
 5227TIP3    H115645   0.010   2.645   4.955
 5227TIP3    H215646   0.096   2.769   4.938
 5228TIP3   OH215647   0.522   1.318   4.886
 5228TIP3    H115648   0.562   1.237   4.854
 5228TIP3    H215649   0.587   1.354   4.947
 5229TIP3   OH215650   1.006   1.484   5.016
 5229TIP3    H115651   1.065   1.435   5.073
 5229TIP3    H215652   1.017   1.576   5.042
 5230TIP3   OH215653   0.860   2.899   4.492
 5230TIP3    H115654   0.951   2.917   4.466
 5230TIP3    H215655   0.841   2.813   4.455
 5231TIP3   OH215656   1.567   3.019   4.617
 5231TIP3    H115657   1.565   2.924   4.610
 5231TIP3    H215658   1.527   3.050   4.536
 5232TIP3   OH215659   1.695   0.268   3.602
 5232TIP3    H115660   1.599   0.271   3.598
 5232TIP3    H215661   1.719   0.340   3.660
 5233TIP3   OH215662   3.598   4.948   0.427
 5233TIP3    H115663   3.654   4.937   0.350
 5233TIP3    H215664   3.631   4.884   0.490
 5234TIP3   OH215665   0.218   2.712   4.559
 5234TIP3    H115666   0.240   2.753   4.642
 5234TIP3    H215667   0.299   2.666   4.534
 5235TIP3   OH215668   4.361   5.103   0.201
 5235TIP3    H115669   4.351   5.015   0.237
 5235TIP3    H215670   4.448   5.102   0.160
 5236TIP3   OH215671   1.801   3.148   5.804
 5236TIP3    H115672   1.725   3.121   5.752
 5236TIP3    H215673   1.797   3.244   5.805
 5237TIP3   OH215674   3.068   2.539   4.548
 5237TIP3    H115675   3.042   2.627   4.522
 5237TIP3    H215676   2.995   2.483   4.522
 5238TIP3   OH215677   3.054   2.532   4.968
 5238TIP3    H115678   3.102   2.517   5.049
 5238TIP3    H215679   3.013   2.447   4.949
 5239TIP3   OH215680   2.370   2.416   5.314
 5239TIP3    H115681   2.402   2.354   5.380
 5239TIP3    H215682   2.447   2.468   5.291
 5240TIP3   OH215683   2.357   2.832   5.013
 5240TIP3    H115684   2.340   2.738   5.022
 5240TIP3    H215685   2.452   2.838   5.001
 5241TIP3   OH215686   2.050   2.033   4.789
 5241TIP3    H115687   2.014   2.116   4.820
 5241TIP3    H215688   1.976   1.986   4.752
 5242TIP3   OH215689   2.124   2.342   4.995
 5242TIP3    H115690   2.174   2.267   5.027
 5242TIP3    H215691   2.190   2.408   4.975
 5243TIP3   OH215692   2.981   3.275   4.657
 5243TIP3    H115693   3.023   3.214   4.597
 5243TIP3    H215694   2.983   3.230   4.742
 5244TIP3   OH215695   2.876   2.760   4.980
 5244TIP3    H115696   2.921   2.680   4.954
 5244TIP3    H215697   2.947   2.821   5.002
 5245TIP3   OH215698   3.902   2.097   4.985
 5245TIP3    H115699   3.928   2.173   5.036
 5245TIP3    H215700   3.856   2.134   4.909
 5246TIP3   OH215701   3.289   2.252   5.009
 5246TIP3    H115702   3.325   2.168   5.037
 5246TIP3    H215703   3.246   2.234   4.926
 5247TIP3   OH215704   2.636   1.914   4.971
 5247TIP3    H115705   2.616   1.987   4.912
 5247TIP3    H215706   2.581   1.843   4.941
 5248TIP3   OH215707   3.331   2.014   4.604
 5248TIP3    H115708   3.396   2.005   4.673
 5248TIP3    H215709   3.379   2.049   4.529
 5249TIP3   OH215710   2.262   2.124   5.096
 5249TIP3    H115711   2.344   2.109   5.144
 5249TIP3    H215712   2.271   2.072   5.016
 5250TIP3   OH215713   2.693   2.318   4.896
 5250TIP3    H115714   2.786   2.300   4.909
 5250TIP3    H215715   2.657   2.236   4.862
 5251TIP3   OH215716   3.974   2.309   5.146
 5251TIP3    H115717   3.887   2.349   5.142
 5251TIP3    H215718   4.009   2.335   5.231
 5252TIP3   OH215719   2.618   1.910   5.423
 5252TIP3    H115720   2.567   1.947   5.350
 5252TIP3    H215721   2.564   1.927   5.500
 5253TIP3   OH215722   2.980   2.758   4.398
 5253TIP3    H115723   2.940   2.736   4.314
 5253TIP3    H215724   2.931   2.834   4.428
 5254TIP3   OH215725   2.720   2.687   5.196
 5254TIP3    H115726   2.663   2.757   5.230
 5254TIP3    H215727   2.768   2.728   5.124
 5255TIP3   OH215728   3.505   2.028   4.816
 5255TIP3    H115729   3.463   2.005   4.899
 5255TIP3    H215730   3.561   2.103   4.837
 5256TIP3   OH215731   2.506   2.020   5.194
 5256TIP3    H115732   2.560   2.095   5.219
 5256TIP3    H215733   2.554   1.979   5.122
 5257TIP3   OH215734   2.557   2.887   5.297
 5257TIP3    H115735   2.543   2.975   5.264
 5257TIP3    H215736   2.480   2.868   5.350
 5258TIP3   OH215737   1.940   2.577   4.545
 5258TIP3    H115738   1.901   2.598   4.460
 5258TIP3    H215739   1.962   2.663   4.582
 5259TIP3   OH215740   3.694   1.975   5.154
 5259TIP3    H115741   3.605   1.998   5.124
 5259TIP3    H215742   3.751   2.004   5.083
 5260TIP3   OH215743   2.962   1.607   5.144
 5260TIP3    H115744   2.953   1.515   5.169
 5260TIP3    H215745   2.888   1.651   5.186
 5261TIP3   OH215746   3.086   3.128   4.444
 5261TIP3    H115747   3.138   3.050   4.426
 5261TIP3    H215748   3.139   3.201   4.412
 5262TIP3   OH215749   3.227   2.902   4.382
 5262TIP3    H115750   3.159   2.835   4.380
 5262TIP3    H215751   3.294   2.866   4.441
 5263TIP3   OH215752   3.607   2.996   5.120
 5263TIP3    H115753   3.593   2.919   5.066
 5263TIP3    H215754   3.588   3.070   5.062
 5264TIP3   OH215755   2.895   2.384   4.391
 5264TIP3    H115756   2.818   2.438   4.374
 5264TIP3    H215757   2.945   2.387   4.309
 5265TIP3   OH215758   2.863   2.171   4.106
 5265TIP3    H115759   2.926   2.228   4.152
 5265TIP3    H215760   2.917   2.115   4.051
 5266TIP3   OH215761   3.796   2.646   5.004
 5266TIP3    H115762   3.715   2.696   5.001
 5266TIP3    H215763   3.828   2.645   4.914
 5267TIP3   OH215764   3.254   2.461   4.364
 5267TIP3    H115765   3.199   2.489   4.438
 5267TIP3    H215766   3.338   2.439   4.404
 5268TIP3   OH215767   3.480   2.508   5.287
 5268TIP3    H115768   3.480   2.591   5.335
 5268TIP3    H215769   3.399   2.509   5.236
 5269TIP3   OH215770   2.485   2.456   4.770
 5269TIP3    H115771   2.454   2.398   4.701
 5269TIP3    H215772   2.561   2.410   4.807
 5270TIP3   OH215773   2.618   2.870   4.911
 5270TIP3    H115774   2.600   2.856   4.818
 5270TIP3    H215775   2.707   2.837   4.923
 5271TIP3   OH215776   2.604   2.448   5.130
 5271TIP3    H115777   2.641   2.417   5.047
 5271TIP3    H215778   2.650   2.530   5.147
 5272TIP3   OH215779   3.061   3.091   4.915
 5272TIP3    H115780   3.103   3.165   4.959
 5272TIP3    H215781   3.090   3.014   4.964
 5273TIP3   OH215782   2.755   2.989   5.462
 5273TIP3    H115783   2.697   3.051   5.507
 5273TIP3    H215784   2.697   2.939   5.405
 5274TIP3   OH215785   3.086   2.329   4.189
 5274TIP3    H115786   3.146   2.386   4.238
 5274TIP3    H215787   3.111   2.341   4.097
 5275TIP3   OH215788   2.512   2.535   5.588
 5275TIP3    H115789   2.518   2.627   5.613
 5275TIP3    H215790   2.418   2.517   5.587
 5276TIP3   OH215791   2.845   2.996   4.446
 5276TIP3    H115792   2.924   3.050   4.454
 5276TIP3    H215793   2.776   3.048   4.487
 5277TIP3   OH215794   2.549   3.153   5.546
 5277TIP3    H115795   2.522   3.161   5.454
 5277TIP3    H215796   2.467   3.133   5.592
 5278TIP3   OH215797   3.601   1.563   4.247
 5278TIP3    H115798   3.523   1.584   4.297
 5278TIP3    H215799   3.616   1.640   4.192
 5279TIP3   OH215800   2.354   2.297   4.558
 5279TIP3    H115801   2.287   2.352   4.517
 5279TIP3    H215802   2.305   2.240   4.618
 5280TIP3   OH215803   3.424   2.928   3.801
 5280TIP3    H115804   3.426   3.018   3.766
 5280TIP3    H215805   3.514   2.898   3.792
 5281TIP3   OH215806   2.138   2.698   5.494
 5281TIP3    H115807   2.069   2.688   5.429
 5281TIP3    H215808   2.170   2.609   5.510
 5282TIP3   OH215809   1.979   2.899   5.133
 5282TIP3    H115810   2.071   2.919   5.149
 5282TIP3    H215811   1.931   2.975   5.167
 5283TIP3   OH215812   3.845   3.347   5.191
 5283TIP3    H115813   3.848   3.251   5.198
 5283TIP3    H215814   3.765   3.372   5.236
 5284TIP3   OH215815   2.950   3.121   5.319
 5284TIP3    H115816   2.944   3.214   5.343
 5284TIP3    H215817   2.880   3.079   5.370
 5285TIP3   OH215818   2.164   3.089   4.644
 5285TIP3    H115819   2.203   3.086   4.731
 5285TIP3    H215820   2.107   3.013   4.641
 5286TIP3   OH215821   3.069   3.172   3.964
 5286TIP3    H115822   3.038   3.119   3.891
 5286TIP3    H215823   2.989   3.192   4.014
 5287TIP3   OH215824   2.900   3.206   4.206
 5287TIP3    H115825   2.849   3.127   4.224
 5287TIP3    H215826   2.980   3.194   4.257
 5288TIP3   OH215827   3.734   2.464   5.460
 5288TIP3    H115828   3.651   2.478   5.414
 5288TIP3    H215829   3.751   2.370   5.451
 5289TIP3   OH215830   2.341   2.881   5.466
 5289TIP3    H115831   2.387   2.872   5.548
 5289TIP3    H215832   2.267   2.821   5.473
 5290TIP3   OH215833   2.728   1.701   5.273
 5290TIP3    H115834   2.644   1.668   5.241
 5290TIP3    H215835   2.706   1.780   5.322
 5291TIP3   OH215836   3.268   1.811   5.470
 5291TIP3    H115837   3.337   1.789   5.533
 5291TIP3    H215838   3.186   1.796   5.518
 5292TIP3   OH215839   3.494   2.248   5.387
 5292TIP3    H115840   3.448   2.244   5.471
 5292TIP3    H215841   3.473   2.335   5.353
 5293TIP3   OH215842   3.166   2.328   3.926
 5293TIP3    H115843   3.123   2.330   3.840
 5293TIP3    H215844   3.246   2.379   3.915
 5294TIP3   OH215845   2.842   1.746   4.230
 5294TIP3    H115846   2.829   1.752   4.325
 5294TIP3    H215847   2.810   1.658   4.207
 5295TIP3   OH215848   2.665   2.227   5.284
 5295TIP3    H115849   2.617   2.238   5.366
 5295TIP3    H215850   2.645   2.306   5.234
 5296TIP3   OH215851   2.549   2.102   4.791
 5296TIP3    H115852   2.460   2.080   4.819
 5296TIP3    H215853   2.555   2.068   4.701
 5297TIP3   OH215854   3.026   2.180   4.525
 5297TIP3    H115855   2.979   2.253   4.484
 5297TIP3    H215856   3.087   2.151   4.457
 5298TIP3   OH215857   3.212   2.455   5.607
 5298TIP3    H115858   3.185   2.387   5.669
 5298TIP3    H215859   3.304   2.471   5.628
 5299TIP3   OH215860   3.183   2.196   4.763
 5299TIP3    H115861   3.119   2.228   4.698
 5299TIP3    H215862   3.229   2.125   4.718
 5300TIP3   OH215863   2.495   2.243   5.501
 5300TIP3    H115864   2.502   2.312   5.567
 5300TIP3    H215865   2.477   2.163   5.550
 5301TIP3   OH215866   2.085   1.763   5.081
 5301TIP3    H115867   2.156   1.798   5.135
 5301TIP3    H215868   2.127   1.741   4.997
 5302TIP3   OH215869   2.020   1.746   4.582
 5302TIP3    H115870   2.071   1.790   4.515
 5302TIP3    H215871   1.953   1.809   4.608
 5303TIP3   OH215872   3.212   2.448   5.183
 5303TIP3    H115873   3.245   2.383   5.121
 5303TIP3    H215874   3.177   2.396   5.256
 5304TIP3   OH215875   2.901   1.902   4.857
 5304TIP3    H115876   2.823   1.904   4.912
 5304TIP3    H215877   2.975   1.899   4.918
 5305TIP3   OH215878   2.311   1.984   4.862
 5305TIP3    H115879   2.220   1.989   4.832
 5305TIP3    H215880   2.336   1.893   4.851
 5306TIP3   OH215881   2.570   1.975   4.541
 5306TIP3    H115882   2.664   1.986   4.553
 5306TIP3    H215883   2.554   2.000   4.450
 5307TIP3   OH215884   3.369   1.988   5.058
 5307TIP3    H115885   3.352   2.003   5.150
 5307TIP3    H215886   3.298   1.930   5.029
 5308TIP3   OH215887   2.383   1.960   4.275
 5308TIP3    H115888   2.341   2.035   4.316
 5308TIP3    H215889   2.457   1.997   4.227
 5309TIP3   OH215890   3.553   3.690   5.285
 5309TIP3    H115891   3.548   3.706   5.191
 5309TIP3    H215892   3.630   3.738   5.314
 5310TIP3   OH215893   2.499   2.794   5.700
 5310TIP3    H115894   2.578   2.820   5.747
 5310TIP3    H215895   2.429   2.803   5.764
 5311TIP3   OH215896   2.958   2.256   4.961
 5311TIP3    H115897   3.030   2.214   4.914
 5311TIP3    H215898   2.960   2.217   5.048
 5312TIP3   OH215899   2.455   1.736   4.848
 5312TIP3    H115900   2.425   1.661   4.900
 5312TIP3    H215901   2.495   1.696   4.770
 5313TIP3   OH215902   2.933   2.166   5.234
 5313TIP3    H115903   2.845   2.199   5.253
 5313TIP3    H215904   2.991   2.220   5.288
 5314TIP3   OH215905   2.669   2.540   4.340
 5314TIP3    H115906   2.594   2.486   4.315
 5314TIP3    H215907   2.645   2.575   4.426
 5315TIP3   OH215908   3.554   2.772   4.971
 5315TIP3    H115909   3.585   2.806   4.887
 5315TIP3    H215910   3.472   2.727   4.950
 5316TIP3   OH215911   3.112   1.840   4.239
 5316TIP3    H115912   3.017   1.832   4.229
 5316TIP3    H215913   3.127   1.934   4.248
 5317TIP3   OH215914   3.069   2.858   5.343
 5317TIP3    H115915   3.114   2.856   5.428
 5317TIP3    H215916   3.028   2.945   5.340
 5318TIP3   OH215917   3.193   2.099   4.309
 5318TIP3    H115918   3.287   2.107   4.320
 5318TIP3    H215919   3.168   2.177   4.258
 5319TIP3   OH215920   2.356   2.534   5.004
 5319TIP3    H115921   2.396   2.522   4.918
 5319TIP3    H215922   2.421   2.502   5.066
 5320TIP3   OH215923   2.807   2.712   4.172
 5320TIP3    H115924   2.755   2.789   4.153
 5320TIP3    H215925   2.751   2.657   4.227
 5321TIP3   OH215926   2.245   2.462   5.622
 5321TIP3    H115927   2.244   2.442   5.716
 5321TIP3    H215928   2.167   2.418   5.587
 5322TIP3   OH215929   2.974   2.603   5.649
 5322TIP3    H115930   2.906   2.544   5.616
 5322TIP3    H215931   3.056   2.565   5.617
 5323TIP3   OH215932   3.223   3.129   5.246
 5323TIP3    H115933   3.128   3.124   5.249
 5323TIP3    H215934   3.247   3.179   5.324
 5324TIP3   OH215935   3.617   2.200   4.139
 5324TIP3    H115936   3.563   2.153   4.075
 5324TIP3    H215937   3.620   2.290   4.107
 5325TIP3   OH215938   3.858   3.061   5.207
 5325TIP3    H115939   3.763   3.053   5.201
 5325TIP3    H215940   3.889   3.030   5.122
 5326TIP3   OH215941   3.373   2.998   4.072
 5326TIP3    H115942   3.296   2.962   4.115
 5326TIP3    H215943   3.369   2.965   3.982
 5327TIP3   OH215944   3.328   2.621   4.908
 5327TIP3    H115945   3.233   2.606   4.911
 5327TIP3    H215946   3.360   2.558   4.844
 5328TIP3   OH215947   2.472   2.879   4.649
 5328TIP3    H115948   2.468   2.956   4.591
 5328TIP3    H215949   2.383   2.869   4.682
 5329TIP3   OH215950   2.055   2.151   4.371
 5329TIP3    H115951   2.092   2.238   4.382
 5329TIP3    H215952   1.971   2.154   4.417
 5330TIP3   OH215953   2.578   2.635   4.577
 5330TIP3    H115954   2.551   2.724   4.596
 5330TIP3    H215955   2.549   2.584   4.652
 5331TIP3   OH215956   2.756   3.204   5.109
 5331TIP3    H115957   2.792   3.277   5.058
 5331TIP3    H215958   2.833   3.162   5.148
 5332TIP3   OH215959   2.398   3.111   4.495
 5332TIP3    H115960   2.310   3.109   4.533
 5332TIP3    H215961   2.413   3.204   4.476
 5333TIP3   OH215962   3.125   2.858   5.070
 5333TIP3    H115963   3.113   2.853   5.165
 5333TIP3    H215964   3.206   2.811   5.053
 5334TIP3   OH215965   3.098   2.743   3.947
 5334TIP3    H115966   3.141   2.712   4.026
 5334TIP3    H215967   3.006   2.720   3.958
 5335TIP3   OH215968   3.375   3.377   5.120
 5335TIP3    H115969   3.295   3.325   5.119
 5335TIP3    H215970   3.360   3.446   5.056
 5336TIP3   OH215971   3.459   3.193   3.726
 5336TIP3    H115972   3.461   3.220   3.634
 5336TIP3    H215973   3.376   3.226   3.759
 5337TIP3   OH215974   2.446   1.989   5.629
 5337TIP3    H115975   2.351   1.997   5.636
 5337TIP3    H215976   2.472   1.941   5.708
 5338TIP3   OH215977   3.253   2.642   4.154
 5338TIP3    H115978   3.246   2.588   4.233
 5338TIP3    H215979   3.347   2.653   4.141
 5339TIP3   OH215980   2.188   3.083   5.269
 5339TIP3    H115981   2.239   3.020   5.320
 5339TIP3    H215982   2.200   3.166   5.315
 5340TIP3   OH215983   2.401   2.692   3.955
 5340TIP3    H115984   2.460   2.623   3.926
 5340TIP3    H215985   2.418   2.701   4.049
 5341TIP3   OH215986   2.420   2.708   4.234
 5341TIP3    H115987   2.484   2.693   4.303
 5341TIP3    H215988   2.411   2.803   4.229
 5342TIP3   OH215989   2.137   2.414   4.432
 5342TIP3    H115990   2.072   2.458   4.487
 5342TIP3    H215991   2.153   2.476   4.360
 5343TIP3   OH215992   3.316   2.038   5.319
 5343TIP3    H115993   3.384   2.090   5.362
 5343TIP3    H215994   3.300   1.965   5.378
 5344TIP3   OH215995   3.184   1.795   4.507
 5344TIP3    H115996   3.161   1.814   4.416
 5344TIP3    H215997   3.226   1.875   4.538
 5345TIP3   OH215998   2.841   1.990   4.600
 5345TIP3    H115999   2.903   2.058   4.573
 5345TIP3    H216000   2.861   1.973   4.692
 5346TIP3   OH216001   3.135   2.286   5.392
 5346TIP3    H116002   3.156   2.342   5.467
 5346TIP3    H216003   3.188   2.208   5.406
 5347TIP3   OH216004   3.002   1.695   4.691
 5347TIP3    H116005   2.979   1.771   4.745
 5347TIP3    H216006   3.070   1.727   4.632
 5348TIP3   OH216007   2.413   2.973   4.231
 5348TIP3    H116008   2.464   3.010   4.159
 5348TIP3    H216009   2.413   3.042   4.298
 5349TIP3   OH216010   2.518   1.703   4.496
 5349TIP3    H116011   2.517   1.795   4.525
 5349TIP3    H216012   2.611   1.681   4.492
 5350TIP3   OH216013   3.757   2.190   5.368
 5350TIP3    H116014   3.663   2.201   5.382
 5350TIP3    H216015   3.763   2.136   5.289
 5351TIP3   OH216016   3.424   2.377   4.758
 5351TIP3    H116017   3.343   2.331   4.780
 5351TIP3    H216018   3.489   2.340   4.817
 5352TIP3   OH216019   2.147   2.609   4.227
 5352TIP3    H116020   2.208   2.681   4.239
 5352TIP3    H216021   2.188   2.553   4.161
 5353TIP3   OH216022   2.095   1.878   4.320
 5353TIP3    H116023   2.077   1.970   4.340
 5353TIP3    H216024   2.014   1.845   4.282
 5354TIP3   OH216025   3.400   3.379   4.730
 5354TIP3    H116026   3.349   3.413   4.657
 5354TIP3    H216027   3.491   3.394   4.704
 5355TIP3   OH216028   2.468   1.612   5.232
 5355TIP3    H116029   2.437   1.579   5.148
 5355TIP3    H216030   2.458   1.538   5.292
 5356TIP3   OH216031   1.988   2.846   4.630
 5356TIP3    H116032   1.946   2.887   4.705
 5356TIP3    H216033   1.951   2.891   4.554
 5357TIP3   OH216034   2.176   3.393   5.690
 5357TIP3    H116035   2.260   3.391   5.736
 5357TIP3    H216036   2.148   3.302   5.688
 5358TIP3   OH216037   2.649   3.319   5.741
 5358TIP3    H116038   2.743   3.303   5.744
 5358TIP3    H216039   2.617   3.265   5.669
 5359TIP3   OH216040   3.274   3.255   5.487
 5359TIP3    H116041   3.284   3.185   5.551
 5359TIP3    H216042   3.349   3.313   5.501
 5360TIP3   OH216043   3.047   2.960   3.766
 5360TIP3    H116044   3.085   2.894   3.824
 5360TIP3    H216045   3.098   2.954   3.685
 5361TIP3   OH216046   2.291   2.795   5.887
 5361TIP3    H116047   2.307   2.702   5.895
 5361TIP3    H216048   2.205   2.801   5.845
 5362TIP3   OH216049   2.285   2.414   4.089
 5362TIP3    H116050   2.342   2.404   4.165
 5362TIP3    H216051   2.345   2.430   4.016
 5363TIP3   OH216052   2.907   2.881   5.665
 5363TIP3    H116053   2.862   2.904   5.583
 5363TIP3    H216054   2.940   2.792   5.650
 5364TIP3   OH216055   2.814   2.631   3.903
 5364TIP3    H116056   2.796   2.653   3.994
 5364TIP3    H216057   2.801   2.536   3.898
 5365TIP3   OH216058   3.394   2.910   5.278
 5365TIP3    H116059   3.468   2.942   5.227
 5365TIP3    H216060   3.326   2.976   5.265
 5366TIP3   OH216061   2.410   2.540   5.887
 5366TIP3    H116062   2.483   2.516   5.831
 5366TIP3    H216063   2.450   2.568   5.969
 5367TIP3   OH216064   2.467   2.349   4.298
 5367TIP3    H116065   2.447   2.322   4.388
 5367TIP3    H216066   2.512   2.274   4.260
 5368TIP3   OH216067   2.769   2.424   5.544
 5368TIP3    H116068   2.683   2.467   5.551
 5368TIP3    H216069   2.804   2.454   5.460
 5369TIP3   OH216070   2.585   2.131   4.156
 5369TIP3    H116071   2.556   2.145   4.066
 5369TIP3    H216072   2.679   2.144   4.153
 5370TIP3   OH216073   3.268   2.804   5.653
 5370TIP3    H116074   3.332   2.761   5.596
 5370TIP3    H216075   3.263   2.746   5.729
 5371TIP3   OH216076   3.394   2.452   3.824
 5371TIP3    H116077   3.379   2.407   3.741
 5371TIP3    H216078   3.366   2.542   3.809
 5372TIP3   OH216079   2.874   2.196   5.654
 5372TIP3    H116080   2.874   2.123   5.592
 5372TIP3    H216081   2.838   2.270   5.605
 5373TIP3   OH216082   2.879   1.989   5.458
 5373TIP3    H116083   2.905   2.031   5.375
 5373TIP3    H216084   2.787   1.967   5.445
 5374TIP3   OH216085   2.898   2.524   5.326
 5374TIP3    H116086   2.985   2.557   5.307
 5374TIP3    H216087   2.839   2.586   5.283
 5375TIP3   OH216088   3.479   2.484   5.707
 5375TIP3    H116089   3.527   2.402   5.719
 5375TIP3    H216090   3.546   2.548   5.682
 5376TIP3   OH216091   3.515   2.740   5.449
 5376TIP3    H116092   3.460   2.800   5.398
 5376TIP3    H216093   3.604   2.756   5.418
 5377TIP3   OH216094   2.757   2.288   5.894
 5377TIP3    H116095   2.680   2.235   5.915
 5377TIP3    H216096   2.781   2.261   5.806
 5378TIP3   OH216097   3.002   1.755   5.549
 5378TIP3    H116098   2.961   1.836   5.519
 5378TIP3    H216099   2.935   1.688   5.537
 5379TIP3   OH216100   3.130   2.239   5.753
 5379TIP3    H116101   3.118   2.228   5.847
 5379TIP3    H216102   3.044   2.219   5.715
 5380TIP3   OH216103   3.369   2.186   5.617
 5380TIP3    H116104   3.292   2.192   5.674
 5380TIP3    H216105   3.441   2.165   5.676
 5381TIP3   OH216106   3.609   2.153   5.766
 5381TIP3    H116107   3.622   2.058   5.777
 5381TIP3    H216108   3.602   2.186   5.855
 5382TIP3   OH216109   2.587   2.063   5.957
 5382TIP3    H116110   2.593   1.975   5.921
 5382TIP3    H216111   2.635   2.059   6.040
 5383TIP3   OH216112   3.077   1.744   5.812
 5383TIP3    H116113   3.146   1.678   5.808
 5383TIP3    H216114   3.044   1.751   5.723
 5384TIP3   OH216115   3.166   1.967   5.946
 5384TIP3    H116116   3.136   1.894   5.893
 5384TIP3    H216117   3.092   2.028   5.947
 5385TIP3   OH216118   1.875   2.583   4.264
 5385TIP3    H116119   1.968   2.604   4.251
 5385TIP3    H216120   1.863   2.500   4.219
 5386TIP3   OH216121   1.773   3.176   4.709
 5386TIP3    H116122   1.705   3.123   4.668
 5386TIP3    H216123   1.821   3.115   4.764
 5387TIP3   OH216124   1.932   3.013   4.869
 5387TIP3    H116125   1.920   2.949   4.939
 5387TIP3    H216126   1.980   3.085   4.910
 5388TIP3   OH216127   3.656   3.454   4.681
 5388TIP3    H116128   3.696   3.469   4.767
 5388TIP3    H216129   3.729   3.462   4.619
 5389TIP3   OH216130   3.693   3.450   4.968
 5389TIP3    H116131   3.642   3.371   4.953
 5389TIP3    H216132   3.760   3.423   5.031
 5390TIP3   OH216133   3.735   3.141   5.538
 5390TIP3    H116134   3.661   3.150   5.599
 5390TIP3    H216135   3.778   3.227   5.540
 5391TIP3   OH216136   3.533   2.665   4.156
 5391TIP3    H116137   3.537   2.758   4.176
 5391TIP3    H216138   3.583   2.623   4.226
 5392TIP3   OH216139   3.672   2.527   4.346
 5392TIP3    H116140   3.614   2.484   4.409
 5392TIP3    H216141   3.748   2.555   4.398
 5393TIP3   OH216142   3.539   3.215   4.962
 5393TIP3    H116143   3.472   3.259   5.014
 5393TIP3    H216144   3.501   3.208   4.875
 5394TIP3   OH216145   3.602   2.443   4.002
 5394TIP3    H116146   3.530   2.437   3.939
 5394TIP3    H216147   3.582   2.519   4.055
 5395TIP3   OH216148   3.467   2.089   3.940
 5395TIP3    H116149   3.418   2.131   3.869
 5395TIP3    H216150   3.452   1.995   3.928
 5396TIP3   OH216151   3.486   2.373   4.490
 5396TIP3    H116152   3.492   2.279   4.475
 5396TIP3    H216153   3.470   2.383   4.583
 5397TIP3   OH216154   2.104   2.428   5.255
 5397TIP3    H116155   2.095   2.405   5.163
 5397TIP3    H216156   2.199   2.435   5.269
 5398TIP3   OH216157   3.768   2.797   5.350
 5398TIP3    H116158   3.836   2.733   5.330
 5398TIP3    H216159   3.776   2.863   5.282
 5399TIP3   OH216160   3.949   2.588   5.347
 5399TIP3    H116161   3.874   2.548   5.389
 5399TIP3    H216162   4.021   2.528   5.364
 5400TIP3   OH216163   3.417   1.820   3.919
 5400TIP3    H116164   3.482   1.790   3.983
 5400TIP3    H216165   3.336   1.775   3.944
 5401TIP3   OH216166   3.480   2.099   4.375
 5401TIP3    H116167   3.524   2.015   4.388
 5401TIP3    H216168   3.526   2.139   4.301
 5402TIP3   OH216169   3.646   2.256   4.898
 5402TIP3    H116170   3.717   2.293   4.846
 5402TIP3    H216171   3.652   2.301   4.982
 5403TIP3   OH216172   3.704   2.415   5.120
 5403TIP3    H116173   3.628   2.442   5.173
 5403TIP3    H216174   3.736   2.497   5.082
 5404TIP3   OH216175   2.327   2.126   5.900
 5404TIP3    H116176   2.421   2.125   5.919
 5404TIP3    H216177   2.293   2.047   5.941
 5405TIP3   OH216178   4.169   2.015   5.666
 5405TIP3    H116179   4.228   1.953   5.624
 5405TIP3    H216180   4.130   2.064   5.594
 5406TIP3   OH216181   3.593   1.847   4.426
 5406TIP3    H116182   3.638   1.832   4.509
 5406TIP3    H216183   3.530   1.776   4.419
 5407TIP3   OH216184   2.297   1.832   5.244
 5407TIP3    H116185   2.354   1.755   5.254
 5407TIP3    H216186   2.357   1.906   5.236
 5408TIP3   OH216187   2.083   2.100   5.316
 5408TIP3    H116188   2.135   2.095   5.236
 5408TIP3    H216189   2.090   2.191   5.343
 5409TIP3   OH216190   4.019   2.136   5.475
 5409TIP3    H116191   3.944   2.178   5.515
 5409TIP3    H216192   3.982   2.071   5.416
 5410TIP3   OH216193   3.652   1.767   4.068
 5410TIP3    H116194   3.696   1.706   4.010
 5410TIP3    H216195   3.707   1.846   4.067
 5411TIP3   OH216196   2.061   1.605   4.817
 5411TIP3    H116197   1.974   1.598   4.858
 5411TIP3    H216198   2.047   1.663   4.742
 5412TIP3   OH216199   3.231   3.323   4.331
 5412TIP3    H116200   3.277   3.318   4.248
 5412TIP3    H216201   3.276   3.392   4.380
 5413TIP3   OH216202   2.292   1.667   5.628
 5413TIP3    H116203   2.242   1.663   5.710
 5413TIP3    H216204   2.236   1.717   5.569
 5414TIP3   OH216205   2.329   3.109   5.711
 5414TIP3    H116206   2.234   3.098   5.698
 5414TIP3    H216207   2.341   3.104   5.806
 5415TIP3   OH216208   2.531   3.162   5.262
 5415TIP3    H116209   2.476   3.233   5.228
 5415TIP3    H216210   2.615   3.173   5.217
 5416TIP3   OH216211   2.938   3.389   5.396
 5416TIP3    H116212   2.976   3.386   5.484
 5416TIP3    H216213   2.998   3.445   5.346
 5417TIP3   OH216214   3.118   3.552   5.267
 5417TIP3    H116215   3.176   3.506   5.206
 5417TIP3    H216216   3.178   3.605   5.321
 5418TIP3   OH216217   3.928   1.891   5.355
 5418TIP3    H116218   3.838   1.885   5.321
 5418TIP3    H216219   3.961   1.802   5.350
 5419TIP3   OH216220   2.189   3.407   5.303
 5419TIP3    H116221   2.099   3.426   5.278
 5419TIP3    H216222   2.210   3.471   5.371
 5420TIP3   OH216223   2.420   3.390   5.153
 5420TIP3    H116224   2.336   3.397   5.198
 5420TIP3    H216225   2.402   3.418   5.063
 5421TIP3   OH216226   2.852   3.411   4.952
 5421TIP3    H116227   2.782   3.420   4.887
 5421TIP3    H216228   2.862   3.499   4.988
 5422TIP3   OH216229   3.119   3.357   5.003
 5422TIP3    H116230   3.025   3.364   4.986
 5422TIP3    H216231   3.160   3.418   4.941
 5423TIP3   OH216232   3.329   3.562   4.918
 5423TIP3    H116233   3.308   3.644   4.872
 5423TIP3    H216234   3.353   3.501   4.848
 5424TIP3   OH216235   2.102   3.191   5.027
 5424TIP3    H116236   2.126   3.160   5.114
 5424TIP3    H216237   2.171   3.157   4.970
 5425TIP3   OH216238   2.300   3.069   4.885
 5425TIP3    H116239   2.310   2.986   4.933
 5425TIP3    H216240   2.387   3.109   4.887
 5426TIP3   OH216241   2.566   3.148   4.907
 5426TIP3    H116242   2.589   3.055   4.901
 5426TIP3    H216243   2.621   3.181   4.979
 5427TIP3   OH216244   3.138   1.815   4.989
 5427TIP3    H116245   3.099   1.744   5.039
 5427TIP3    H216246   3.207   1.773   4.937
 5428TIP3   OH216247   3.643   1.712   4.880
 5428TIP3    H116248   3.679   1.762   4.807
 5428TIP3    H216249   3.550   1.736   4.882
 5429TIP3   OH216250   3.756   1.798   4.646
 5429TIP3    H116251   3.823   1.737   4.614
 5429TIP3    H216252   3.797   1.884   4.636
 5430TIP3   OH216253   2.379   1.510   4.990
 5430TIP3    H116254   2.289   1.478   5.000
 5430TIP3    H216255   2.432   1.431   4.985
 5431TIP3   OH216256   2.176   1.405   4.662
 5431TIP3    H116257   2.200   1.464   4.591
 5431TIP3    H216258   2.138   1.462   4.729
 5432TIP3   OH216259   2.842   1.553   4.882
 5432TIP3    H116260   2.893   1.600   4.816
 5432TIP3    H216261   2.880   1.582   4.965
 5433TIP3   OH216262   3.355   1.699   4.859
 5433TIP3    H116263   3.364   1.664   4.770
 5433TIP3    H216264   3.355   1.622   4.915
 5434TIP3   OH216265   3.404   1.639   4.427
 5434TIP3    H116266   3.324   1.686   4.450
 5434TIP3    H216267   3.393   1.552   4.466
 5435TIP3   OH216268   1.879   2.979   4.418
 5435TIP3    H116269   1.795   2.945   4.389
 5435TIP3    H216270   1.881   3.069   4.387
 5436TIP3   OH216271   2.328   1.624   4.319
 5436TIP3    H116272   2.338   1.534   4.289
 5436TIP3    H216273   2.392   1.632   4.391
 5437TIP3   OH216274   2.797   1.739   4.500
 5437TIP3    H116275   2.854   1.686   4.556
 5437TIP3    H216276   2.811   1.828   4.530
 5438TIP3   OH216277   3.352   3.275   4.081
 5438TIP3    H116278   3.365   3.181   4.081
 5438TIP3    H216279   3.271   3.289   4.033
 5439TIP3   OH216280   2.599   1.791   5.872
 5439TIP3    H116281   2.571   1.715   5.922
 5439TIP3    H216282   2.691   1.803   5.895
 5440TIP3   OH216283   2.850   1.803   5.988
 5440TIP3    H116284   2.931   1.781   5.941
 5440TIP3    H216285   2.839   1.732   6.051
 5441TIP3   OH216286   1.960   2.974   4.062
 5441TIP3    H116287   1.976   3.006   4.151
 5441TIP3    H216288   2.045   2.938   4.034
 5442TIP3   OH216289   3.671   1.881   5.785
 5442TIP3    H116290   3.685   1.852   5.875
 5442TIP3    H216291   3.758   1.876   5.744
 5443TIP3   OH216292   3.595   3.416   5.289
 5443TIP3    H116293   3.522   3.385   5.236
 5443TIP3    H216294   3.581   3.511   5.296
 5444TIP3   OH216295   4.861   2.796   4.036
 5444TIP3    H116296   4.839   2.885   4.009
 5444TIP3    H216297   4.789   2.742   4.003
 5445TIP3   OH216298   4.870   2.800   4.441
 5445TIP3    H116299   4.908   2.782   4.527
 5445TIP3    H216300   4.829   2.718   4.415
 5446TIP3   OH216301   4.212   2.654   4.824
 5446TIP3    H116302   4.214   2.727   4.886
 5446TIP3    H216303   4.275   2.678   4.756
 5447TIP3   OH216304   5.127   3.097   4.120
 5447TIP3    H116305   5.114   3.036   4.193
 5447TIP3    H216306   5.148   3.180   4.162
 5448TIP3   OH216307   4.160   3.092   4.499
 5448TIP3    H116308   4.140   3.000   4.514
 5448TIP3    H216309   4.255   3.094   4.485
 5449TIP3   OH216310   3.840   2.287   4.293
 5449TIP3    H116311   3.817   2.378   4.314
 5449TIP3    H216312   3.764   2.252   4.248
 5450TIP3   OH216313   3.926   2.571   4.452
 5450TIP3    H116314   3.963   2.518   4.523
 5450TIP3    H216315   3.966   2.657   4.464
 5451TIP3   OH216316   4.779   3.549   4.138
 5451TIP3    H116317   4.820   3.484   4.080
 5451TIP3    H216318   4.757   3.500   4.217
 5452TIP3   OH216319   4.670   3.012   4.473
 5452TIP3    H116320   4.715   2.939   4.430
 5452TIP3    H216321   4.740   3.068   4.505
 5453TIP3   OH216322   5.695   2.339   4.475
 5453TIP3    H116323   5.715   2.421   4.521
 5453TIP3    H216324   5.726   2.353   4.386
 5454TIP3   OH216325   5.052   2.497   4.502
 5454TIP3    H116326   5.105   2.420   4.524
 5454TIP3    H216327   5.036   2.490   4.408
 5455TIP3   OH216328   4.433   2.172   4.494
 5455TIP3    H116329   4.412   2.248   4.439
 5455TIP3    H216330   4.378   2.102   4.461
 5456TIP3   OH216331   5.129   2.274   4.088
 5456TIP3    H116332   5.196   2.266   4.156
 5456TIP3    H216333   5.175   2.311   4.013
 5457TIP3   OH216334   4.070   2.354   4.591
 5457TIP3    H116335   4.102   2.276   4.636
 5457TIP3    H216336   4.075   2.332   4.498
 5458TIP3   OH216337   4.497   2.564   4.400
 5458TIP3    H116338   4.592   2.547   4.398
 5458TIP3    H216339   4.459   2.486   4.361
 5459TIP3   OH216340   5.754   2.548   4.652
 5459TIP3    H116341   5.675   2.600   4.638
 5459TIP3    H216342   5.799   2.592   4.724
 5460TIP3   OH216343   4.767   3.011   3.887
 5460TIP3    H116344   4.726   3.004   3.801
 5460TIP3    H216345   4.761   3.104   3.909
 5461TIP3   OH216346   4.518   2.929   4.693
 5461TIP3    H116347   4.460   2.999   4.724
 5461TIP3    H216348   4.565   2.968   4.619
 5462TIP3   OH216349   5.299   2.290   4.300
 5462TIP3    H116350   5.263   2.265   4.385
 5462TIP3    H216351   5.358   2.363   4.320
 5463TIP3   OH216352   4.352   2.379   4.750
 5463TIP3    H116353   4.312   2.439   4.688
 5463TIP3    H216354   4.359   2.296   4.703
 5464TIP3   OH216355   4.355   3.137   4.786
 5464TIP3    H116356   4.340   3.223   4.748
 5464TIP3    H216357   4.277   3.119   4.837
 5465TIP3   OH216358   5.176   3.343   4.265
 5465TIP3    H116359   5.091   3.334   4.308
 5465TIP3    H216360   5.170   3.427   4.219
 5466TIP3   OH216361   5.492   2.216   4.631
 5466TIP3    H116362   5.408   2.252   4.602
 5466TIP3    H216363   5.556   2.253   4.570
 5467TIP3   OH216364   4.762   1.860   4.631
 5467TIP3    H116365   4.757   1.767   4.653
 5467TIP3    H216366   4.684   1.899   4.669
 5468TIP3   OH216367   4.909   3.383   3.963
 5468TIP3    H116368   4.949   3.302   3.931
 5468TIP3    H216369   4.935   3.450   3.900
 5469TIP3   OH216370   5.039   3.161   3.861
 5469TIP3    H116371   5.018   3.081   3.812
 5469TIP3    H216372   5.073   3.129   3.945
 5470TIP3   OH216373   5.403   3.246   4.615
 5470TIP3    H116374   5.392   3.171   4.556
 5470TIP3    H216375   5.386   3.322   4.560
 5471TIP3   OH216376   4.689   2.648   3.875
 5471TIP3    H116377   4.612   2.702   3.858
 5471TIP3    H216378   4.737   2.647   3.792
 5472TIP3   OH216379   4.667   2.435   3.583
 5472TIP3    H116380   4.731   2.488   3.631
 5472TIP3    H216381   4.720   2.374   3.532
 5473TIP3   OH216382   5.594   2.892   4.473
 5473TIP3    H116383   5.512   2.941   4.475
 5473TIP3    H216384   5.632   2.912   4.388
 5474TIP3   OH216385   5.048   2.729   3.846
 5474TIP3    H116386   4.991   2.757   3.919
 5474TIP3    H216387   5.132   2.712   3.888
 5475TIP3   OH216388   5.279   2.762   4.781
 5475TIP3    H116389   5.284   2.843   4.831
 5475TIP3    H216390   5.197   2.768   4.732
 5476TIP3   OH216391   4.299   2.715   4.275
 5476TIP3    H116392   4.259   2.650   4.218
 5476TIP3    H216393   4.375   2.671   4.314
 5477TIP3   OH216394   4.420   3.132   4.396
 5477TIP3    H116395   4.401   3.117   4.303
 5477TIP3    H216396   4.507   3.093   4.409
 5478TIP3   OH216397   4.401   2.687   4.630
 5478TIP3    H116398   4.441   2.650   4.552
 5478TIP3    H216399   4.450   2.768   4.646
 5479TIP3   OH216400   4.947   3.335   4.410
 5479TIP3    H116401   4.927   3.417   4.453
 5479TIP3    H216402   4.923   3.267   4.473
 5480TIP3   OH216403   4.551   3.245   4.949
 5480TIP3    H116404   4.493   3.306   4.994
 5480TIP3    H216405   4.494   3.194   4.892
 5481TIP3   OH216406   4.885   2.587   3.676
 5481TIP3    H116407   4.942   2.646   3.724
 5481TIP3    H216408   4.910   2.599   3.584
 5482TIP3   OH216409   4.295   2.798   5.060
 5482TIP3    H116410   4.308   2.888   5.092
 5482TIP3    H216411   4.207   2.775   5.087
 5483TIP3   OH216412   4.344   3.407   5.033
 5483TIP3    H116413   4.318   3.415   4.941
 5483TIP3    H216414   4.263   3.389   5.080
 5484TIP3   OH216415   5.218   3.195   3.284
 5484TIP3    H116416   5.218   3.288   3.262
 5484TIP3    H216417   5.307   3.165   3.264
 5485TIP3   OH216418   3.933   2.949   4.970
 5485TIP3    H116419   3.870   2.942   4.898
 5485TIP3    H216420   3.955   2.859   4.992
 5486TIP3   OH216421   3.798   3.151   4.570
 5486TIP3    H116422   3.864   3.184   4.630
 5486TIP3    H216423   3.763   3.073   4.614
 5487TIP3   OH216424   5.638   3.602   4.677
 5487TIP3    H116425   5.643   3.507   4.690
 5487TIP3    H216426   5.558   3.628   4.722
 5488TIP3   OH216427   4.743   3.381   4.805
 5488TIP3    H116428   4.738   3.472   4.832
 5488TIP3    H216429   4.673   3.338   4.856
 5489TIP3   OH216430   3.948   3.346   4.152
 5489TIP3    H116431   4.009   3.344   4.226
 5489TIP3    H216432   3.866   3.313   4.189
 5490TIP3   OH216433   5.527   2.724   4.960
 5490TIP3    H116434   5.447   2.733   4.909
 5490TIP3    H216435   5.547   2.631   4.958
 5491TIP3   OH216436   4.135   3.134   4.949
 5491TIP3    H116437   4.178   3.124   5.034
 5491TIP3    H216438   4.061   3.073   4.953
 5492TIP3   OH216439   4.523   1.968   4.732
 5492TIP3    H116440   4.435   1.930   4.729
 5492TIP3    H216441   4.516   2.049   4.682
 5493TIP3   OH216442   5.071   2.066   4.964
 5493TIP3    H116443   5.142   2.042   5.024
 5493TIP3    H216444   4.991   2.046   5.013
 5494TIP3   OH216445   5.284   2.494   4.860
 5494TIP3    H116446   5.246   2.492   4.948
 5494TIP3    H216447   5.274   2.585   4.832
 5495TIP3   OH216448   4.964   2.588   3.414
 5495TIP3    H116449   4.921   2.587   3.329
 5495TIP3    H216450   5.045   2.637   3.399
 5496TIP3   OH216451   4.680   1.989   3.729
 5496TIP3    H116452   4.640   1.998   3.815
 5496TIP3    H216453   4.638   1.911   3.691
 5497TIP3   OH216454   4.351   2.352   4.296
 5497TIP3    H116455   4.260   2.332   4.316
 5497TIP3    H216456   4.364   2.317   4.207
 5498TIP3   OH216457   4.824   2.446   4.010
 5498TIP3    H116458   4.774   2.516   3.968
 5498TIP3    H216459   4.880   2.412   3.941
 5499TIP3   OH216460   5.018   2.713   5.091
 5499TIP3    H116461   4.990   2.649   5.157
 5499TIP3    H216462   5.109   2.731   5.112
 5500TIP3   OH216463   4.988   2.465   4.235
 5500TIP3    H116464   4.929   2.495   4.166
 5500TIP3    H216465   5.032   2.388   4.198
 5501TIP3   OH216466   4.340   1.980   3.700
 5501TIP3    H116467   4.328   1.981   3.795
 5501TIP3    H216468   4.263   2.025   3.665
 5502TIP3   OH216469   3.902   2.013   4.571
 5502TIP3    H116470   3.979   2.067   4.588
 5502TIP3    H216471   3.909   1.989   4.479
 5503TIP3   OH216472   3.809   2.001   4.079
 5503TIP3    H116473   3.854   2.035   4.001
 5503TIP3    H216474   3.749   2.071   4.104
 5504TIP3   OH216475   4.999   2.702   4.673
 5504TIP3    H116476   5.028   2.635   4.611
 5504TIP3    H216477   4.971   2.654   4.750
 5505TIP3   OH216478   4.691   2.165   4.345
 5505TIP3    H116479   4.614   2.168   4.401
 5505TIP3    H216480   4.764   2.157   4.406
 5506TIP3   OH216481   4.105   2.241   4.345
 5506TIP3    H116482   4.015   2.250   4.315
 5506TIP3    H216483   4.129   2.150   4.326
 5507TIP3   OH216484   4.364   2.239   4.044
 5507TIP3    H116485   4.458   2.251   4.027
 5507TIP3    H216486   4.322   2.261   3.961
 5508TIP3   OH216487   5.166   2.247   4.545
 5508TIP3    H116488   5.146   2.260   4.638
 5508TIP3    H216489   5.101   2.184   4.515
 5509TIP3   OH216490   4.237   2.277   3.803
 5509TIP3    H116491   4.172   2.225   3.754
 5509TIP3    H216492   4.293   2.315   3.735
 5510TIP3   OH216493   5.348   3.947   4.772
 5510TIP3    H116494   5.343   3.968   4.679
 5510TIP3    H216495   5.426   3.993   4.803
 5511TIP3   OH216496   4.297   3.050   5.186
 5511TIP3    H116497   4.375   3.076   5.233
 5511TIP3    H216498   4.226   3.058   5.250
 5512TIP3   OH216499   4.773   2.517   4.423
 5512TIP3    H116500   4.823   2.490   4.346
 5512TIP3    H216501   4.831   2.495   4.497
 5513TIP3   OH216502   4.267   1.995   4.350
 5513TIP3    H116503   4.232   1.917   4.394
 5513TIP3    H216504   4.295   1.963   4.265
 5514TIP3   OH216505   4.687   2.425   4.849
 5514TIP3    H116506   4.649   2.460   4.769
 5514TIP3    H216507   4.774   2.465   4.854
 5515TIP3   OH216508   4.457   2.802   3.825
 5515TIP3    H116509   4.387   2.739   3.807
 5515TIP3    H216510   4.437   2.836   3.913
 5516TIP3   OH216511   5.360   3.036   4.440
 5516TIP3    H116512   5.393   3.086   4.366
 5516TIP3    H216513   5.277   2.998   4.409
 5517TIP3   OH216514   4.933   2.091   3.728
 5517TIP3    H116515   4.840   2.070   3.726
 5517TIP3    H216516   4.936   2.186   3.741
 5518TIP3   OH216517   4.861   3.113   4.849
 5518TIP3    H116518   4.915   3.114   4.928
 5518TIP3    H216519   4.822   3.200   4.845
 5519TIP3   OH216520   4.989   2.360   3.797
 5519TIP3    H116521   5.084   2.370   3.803
 5519TIP3    H216522   4.960   2.434   3.744
 5520TIP3   OH216523   4.162   2.798   4.503
 5520TIP3    H116524   4.198   2.784   4.415
 5520TIP3    H216525   4.226   2.758   4.561
 5521TIP3   OH216526   4.614   3.005   3.647
 5521TIP3    H116527   4.589   3.098   3.645
 5521TIP3    H216528   4.546   2.963   3.700
 5522TIP3   OH216529   4.039   2.716   5.114
 5522TIP3    H116530   4.037   2.694   5.207
 5522TIP3    H216531   3.961   2.676   5.078
 5523TIP3   OH216532   4.782   2.865   5.117
 5523TIP3    H116533   4.730   2.836   5.042
 5523TIP3    H216534   4.869   2.829   5.100
 5524TIP3   OH216535   5.015   3.383   4.736
 5524TIP3    H116536   4.920   3.380   4.741
 5524TIP3    H216537   5.042   3.434   4.812
 5525TIP3   OH216538   5.410   2.453   3.628
 5525TIP3    H116539   5.355   2.406   3.566
 5525TIP3    H216540   5.415   2.542   3.592
 5526TIP3   OH216541   5.652   3.316   4.707
 5526TIP3    H116542   5.557   3.307   4.700
 5526TIP3    H216543   5.685   3.288   4.621
 5527TIP3   OH216544   5.151   3.278   3.548
 5527TIP3    H116545   5.108   3.219   3.610
 5527TIP3    H216546   5.160   3.226   3.468
 5528TIP3   OH216547   5.125   2.905   4.345
 5528TIP3    H116548   5.034   2.885   4.367
 5528TIP3    H216549   5.159   2.824   4.306
 5529TIP3   OH216550   4.276   3.138   4.145
 5529TIP3    H116551   4.274   3.210   4.081
 5529TIP3    H216552   4.191   3.143   4.189
 5530TIP3   OH216553   3.821   2.422   3.834
 5530TIP3    H116554   3.838   2.514   3.814
 5530TIP3    H216555   3.750   2.425   3.898
 5531TIP3   OH216556   4.374   2.890   4.069
 5531TIP3    H116557   4.346   2.980   4.087
 5531TIP3    H216558   4.349   2.842   4.148
 5532TIP3   OH216559   4.552   3.462   4.600
 5532TIP3    H116560   4.586   3.535   4.549
 5532TIP3    H216561   4.628   3.429   4.648
 5533TIP3   OH216562   4.184   3.361   3.997
 5533TIP3    H116563   4.094   3.364   4.032
 5533TIP3    H216564   4.211   3.453   3.993
 5534TIP3   OH216565   4.908   3.111   4.577
 5534TIP3    H116566   4.897   3.106   4.672
 5534TIP3    H216567   4.995   3.073   4.561
 5535TIP3   OH216568   4.896   3.020   3.448
 5535TIP3    H116569   4.944   2.993   3.526
 5535TIP3    H216570   4.804   3.015   3.475
 5536TIP3   OH216571   5.162   3.629   4.607
 5536TIP3    H116572   5.084   3.574   4.608
 5536TIP3    H216573   5.147   3.692   4.536
 5537TIP3   OH216574   5.212   3.476   3.255
 5537TIP3    H116575   5.208   3.528   3.174
 5537TIP3    H216576   5.127   3.490   3.296
 5538TIP3   OH216577   4.275   2.322   5.058
 5538TIP3    H116578   4.182   2.320   5.080
 5538TIP3    H216579   4.314   2.254   5.113
 5539TIP3   OH216580   5.064   2.938   3.661
 5539TIP3    H116581   5.051   2.866   3.723
 5539TIP3    H216582   5.158   2.936   3.644
 5540TIP3   OH216583   3.985   3.335   4.759
 5540TIP3    H116584   4.034   3.269   4.807
 5540TIP3    H216585   4.002   3.416   4.805
 5541TIP3   OH216586   4.219   2.966   3.439
 5541TIP3    H116587   4.255   2.881   3.415
 5541TIP3    H216588   4.229   2.971   3.534
 5542TIP3   OH216589   4.230   2.978   3.716
 5542TIP3    H116590   4.310   2.958   3.764
 5542TIP3    H216591   4.220   3.073   3.724
 5543TIP3   OH216592   5.098   2.295   4.806
 5543TIP3    H116593   5.173   2.346   4.837
 5543TIP3    H216594   5.093   2.221   4.868
 5544TIP3   OH216595   4.970   2.058   4.008
 5544TIP3    H116596   4.967   2.059   3.912
 5544TIP3    H216597   5.021   2.135   4.031
 5545TIP3   OH216598   4.645   2.246   4.081
 5545TIP3    H116599   4.707   2.315   4.055
 5545TIP3    H216600   4.661   2.234   4.174
 5546TIP3   OH216601   4.937   2.538   4.885
 5546TIP3    H116602   4.966   2.592   4.959
 5546TIP3    H216603   4.995   2.462   4.886
 5547TIP3   OH216604   4.791   1.956   4.184
 5547TIP3    H116605   4.761   2.033   4.232
 5547TIP3    H216606   4.855   1.990   4.121
 5548TIP3   OH216607   4.180   3.240   3.746
 5548TIP3    H116608   4.231   3.294   3.686
 5548TIP3    H216609   4.186   3.287   3.830
 5549TIP3   OH216610   4.310   1.968   3.978
 5549TIP3    H116611   4.299   2.058   4.008
 5549TIP3    H216612   4.404   1.953   3.983
 5550TIP3   OH216613   5.555   2.459   4.870
 5550TIP3    H116614   5.460   2.451   4.864
 5550TIP3    H216615   5.586   2.446   4.781
 5551TIP3   OH216616   5.214   2.648   4.252
 5551TIP3    H116617   5.139   2.589   4.257
 5551TIP3    H216618   5.282   2.604   4.302
 5552TIP3   OH216619   3.967   2.904   3.769
 5552TIP3    H116620   4.042   2.963   3.758
 5552TIP3    H216621   3.986   2.830   3.711
 5553TIP3   OH216622   3.868   2.147   3.854
 5553TIP3    H116623   3.876   2.243   3.858
 5553TIP3    H216624   3.803   2.131   3.786
 5554TIP3   OH216625   5.195   3.615   4.191
 5554TIP3    H116626   5.151   3.660   4.118
 5554TIP3    H216627   5.288   3.627   4.174
 5555TIP3   OH216628   4.264   1.872   4.722
 5555TIP3    H116629   4.233   1.839   4.638
 5555TIP3    H216630   4.252   1.799   4.783
 5556TIP3   OH216631   3.786   3.022   4.043
 5556TIP3    H116632   3.792   3.025   4.138
 5556TIP3    H216633   3.743   3.104   4.019
 5557TIP3   OH216634   3.971   3.654   5.181
 5557TIP3    H116635   4.055   3.654   5.228
 5557TIP3    H216636   3.950   3.561   5.171
 5558TIP3   OH216637   4.443   3.578   5.226
 5558TIP3    H116638   4.537   3.562   5.231
 5558TIP3    H216639   4.413   3.521   5.155
 5559TIP3   OH216640   5.072   3.513   4.971
 5559TIP3    H116641   5.078   3.443   5.036
 5559TIP3    H216642   5.148   3.568   4.989
 5560TIP3   OH216643   4.852   3.229   3.251
 5560TIP3    H116644   4.874   3.171   3.324
 5560TIP3    H216645   4.910   3.202   3.181
 5561TIP3   OH216646   4.085   3.051   5.369
 5561TIP3    H116647   4.103   2.957   5.379
 5561TIP3    H216648   4.000   3.055   5.326
 5562TIP3   OH216649   4.068   2.695   3.606
 5562TIP3    H116650   4.130   2.668   3.674
 5562TIP3    H216651   4.122   2.706   3.527
 5563TIP3   OH216652   4.706   3.140   5.152
 5563TIP3    H116653   4.660   3.163   5.071
 5563TIP3    H216654   4.743   3.054   5.135
 5564TIP3   OH216655   4.595   2.898   3.381
 5564TIP3    H116656   4.588   2.929   3.472
 5564TIP3    H216657   4.594   2.802   3.389
 5565TIP3   OH216658   5.182   3.161   4.759
 5565TIP3    H116659   5.260   3.195   4.714
 5565TIP3    H216660   5.117   3.231   4.749
 5566TIP3   OH216661   4.208   2.795   5.377
 5566TIP3    H116662   4.287   2.762   5.334
 5566TIP3    H216663   4.238   2.821   5.465
 5567TIP3   OH216664   4.266   2.590   3.783
 5567TIP3    H116665   4.228   2.524   3.842
 5567TIP3    H216666   4.318   2.539   3.721
 5568TIP3   OH216667   4.464   2.601   4.974
 5568TIP3    H116668   4.412   2.673   5.009
 5568TIP3    H216669   4.535   2.644   4.926
 5569TIP3   OH216670   4.394   2.408   3.620
 5569TIP3    H116671   4.364   2.412   3.530
 5569TIP3    H216672   4.489   2.413   3.615
 5570TIP3   OH216673   5.060   3.059   5.138
 5570TIP3    H116674   5.137   3.029   5.090
 5570TIP3    H216675   5.058   3.003   5.216
 5571TIP3   OH216676   5.189   2.714   3.307
 5571TIP3    H116677   5.174   2.673   3.222
 5571TIP3    H216678   5.160   2.804   3.295
 5572TIP3   OH216679   4.668   2.472   5.132
 5572TIP3    H116680   4.697   2.416   5.060
 5572TIP3    H216681   4.609   2.535   5.090
 5573TIP3   OH216682   4.671   2.775   4.865
 5573TIP3    H116683   4.758   2.788   4.828
 5573TIP3    H216684   4.615   2.833   4.814
 5574TIP3   OH216685   5.281   2.746   5.195
 5574TIP3    H116686   5.334   2.667   5.207
 5574TIP3    H216687   5.345   2.815   5.176
 5575TIP3   OH216688   5.315   2.998   4.929
 5575TIP3    H116689   5.258   3.056   4.878
 5575TIP3    H216690   5.403   3.018   4.898
 5576TIP3   OH216691   4.552   2.542   5.383
 5576TIP3    H116692   4.480   2.482   5.403
 5576TIP3    H216693   4.579   2.517   5.295
 5577TIP3   OH216694   4.797   1.999   5.025
 5577TIP3    H116695   4.760   2.068   4.969
 5577TIP3    H216696   4.734   1.928   5.021
 5578TIP3   OH216697   4.930   2.505   5.247
 5578TIP3    H116698   4.926   2.495   5.342
 5578TIP3    H216699   4.840   2.492   5.217
 5579TIP3   OH216700   5.164   2.443   5.098
 5579TIP3    H116701   5.090   2.452   5.158
 5579TIP3    H216702   5.238   2.421   5.155
 5580TIP3   OH216703   5.393   2.399   5.254
 5580TIP3    H116704   5.415   2.307   5.269
 5580TIP3    H216705   5.392   2.438   5.342
 5581TIP3   OH216706   4.387   2.320   5.442
 5581TIP3    H116707   4.386   2.230   5.412
 5581TIP3    H216708   4.422   2.316   5.531
 5582TIP3   OH216709   4.884   2.003   5.288
 5582TIP3    H116710   4.950   1.933   5.285
 5582TIP3    H216711   4.846   2.004   5.201
 5583TIP3   OH216712   4.958   2.215   5.445
 5583TIP3    H116713   4.933   2.148   5.381
 5583TIP3    H216714   4.884   2.277   5.444
 5584TIP3   OH216715   3.689   2.831   3.759
 5584TIP3    H116716   3.708   2.860   3.670
 5584TIP3    H216717   3.657   2.741   3.748
 5585TIP3   OH216718   3.585   3.416   4.133
 5585TIP3    H116719   3.500   3.376   4.115
 5585TIP3    H216720   3.619   3.367   4.208
 5586TIP3   OH216721   3.741   3.296   4.337
 5586TIP3    H116722   3.743   3.225   4.402
 5586TIP3    H216723   3.765   3.374   4.387
 5587TIP3   OH216724   5.464   3.673   4.172
 5587TIP3    H116725   5.481   3.704   4.261
 5587TIP3    H216726   5.513   3.733   4.116
 5588TIP3   OH216727   5.478   3.706   4.454
 5588TIP3    H116728   5.430   3.624   4.448
 5588TIP3    H216729   5.549   3.688   4.515
 5589TIP3   OH216730   5.525   3.398   5.025
 5589TIP3    H116731   5.454   3.408   5.089
 5589TIP3    H216732   5.571   3.482   5.028
 5590TIP3   OH216733   5.345   2.912   3.638
 5590TIP3    H116734   5.403   2.981   3.605
 5590TIP3    H216735   5.392   2.874   3.712
 5591TIP3   OH216736   5.480   2.772   3.837
 5591TIP3    H116737   5.411   2.741   3.896
 5591TIP3    H216738   5.545   2.811   3.895
 5592TIP3   OH216739   5.530   3.174   4.269
 5592TIP3    H116740   5.582   3.107   4.225
 5592TIP3    H216741   5.527   3.247   4.206
 5593TIP3   OH216742   5.337   3.465   4.461
 5593TIP3    H116743   5.267   3.508   4.510
 5593TIP3    H216744   5.292   3.422   4.388
 5594TIP3   OH216745   5.397   2.690   3.484
 5594TIP3    H116746   5.327   2.688   3.418
 5594TIP3    H216747   5.378   2.767   3.537
 5595TIP3   OH216748   5.255   2.347   3.432
 5595TIP3    H116749   5.212   2.389   3.358
 5595TIP3    H216750   5.241   2.253   3.418
 5596TIP3   OH216751   5.277   2.649   3.983
 5596TIP3    H116752   5.282   2.554   3.969
 5596TIP3    H216753   5.260   2.658   4.076
 5597TIP3   OH216754   3.915   2.634   4.757
 5597TIP3    H116755   3.861   2.708   4.727
 5597TIP3    H216756   4.004   2.667   4.750
 5598TIP3   OH216757   5.570   3.056   4.837
 5598TIP3    H116758   5.635   2.988   4.819
 5598TIP3    H216759   5.591   3.127   4.776
 5599TIP3   OH216760   5.738   2.840   4.829
 5599TIP3    H116761   5.668   2.801   4.880
 5599TIP3    H216762   5.815   2.786   4.848
 5600TIP3   OH216763   5.212   2.077   3.408
 5600TIP3    H116764   5.276   2.050   3.474
 5600TIP3    H216765   5.131   2.032   3.433
 5601TIP3   OH216766   5.291   2.379   3.878
 5601TIP3    H116767   5.363   2.324   3.908
 5601TIP3    H216768   5.320   2.413   3.793
 5602TIP3   OH216769   5.430   2.522   4.382
 5602TIP3    H116770   5.510   2.542   4.333
 5602TIP3    H216771   5.444   2.561   4.468
 5603TIP3   OH216772   5.502   2.671   4.611
 5603TIP3    H116773   5.429   2.705   4.663
 5603TIP3    H216774   5.535   2.748   4.565
 5604TIP3   OH216775   4.122   2.376   5.383
 5604TIP3    H116776   4.215   2.376   5.403
 5604TIP3    H216777   4.089   2.296   5.424
 5605TIP3   OH216778   5.957   2.267   5.151
 5605TIP3    H116779   6.021   2.208   5.113
 5605TIP3    H216780   5.925   2.319   5.077
 5606TIP3   OH216781   4.135   2.120   4.720
 5606TIP3    H116782   4.183   2.037   4.716
 5606TIP3    H216783   4.090   2.118   4.804
 5607TIP3   OH216784   3.877   2.362   4.793
 5607TIP3    H116785   3.933   2.346   4.717
 5607TIP3    H216786   3.876   2.457   4.803
 5608TIP3   OH216787   5.815   2.391   4.955
 5608TIP3    H116788   5.734   2.433   4.985
 5608TIP3    H216789   5.786   2.317   4.902
 5609TIP3   OH216790   5.445   2.031   3.561
 5609TIP3    H116791   5.485   1.962   3.508
 5609TIP3    H216792   5.506   2.105   3.553
 5610TIP3   OH216793   3.864   1.876   4.315
 5610TIP3    H116794   3.775   1.855   4.343
 5610TIP3    H216795   3.853   1.926   4.234
 5611TIP3   OH216796   5.001   3.586   3.804
 5611TIP3    H116797   5.063   3.573   3.732
 5611TIP3    H216798   5.048   3.643   3.865
 5612TIP3   OH216799   4.083   1.927   5.116
 5612TIP3    H116800   4.038   1.925   5.201
 5612TIP3    H216801   4.023   1.976   5.060
 5613TIP3   OH216802   4.122   3.367   5.197
 5613TIP3    H116803   4.028   3.352   5.185
 5613TIP3    H216804   4.136   3.360   5.291
 5614TIP3   OH216805   4.325   3.415   4.749
 5614TIP3    H116806   4.269   3.486   4.716
 5614TIP3    H216807   4.409   3.427   4.705
 5615TIP3   OH216808   4.736   3.648   4.881
 5615TIP3    H116809   4.773   3.644   4.969
 5615TIP3    H216810   4.798   3.702   4.831
 5616TIP3   OH216811   4.922   3.807   4.754
 5616TIP3    H116812   4.987   3.758   4.703
 5616TIP3    H216813   4.975   3.864   4.810
 5617TIP3   OH216814   5.723   2.148   4.843
 5617TIP3    H116815   5.638   2.145   4.799
 5617TIP3    H216816   5.757   2.059   4.834
 5618TIP3   OH216817   3.988   3.669   4.791
 5618TIP3    H116818   3.897   3.688   4.766
 5618TIP3    H216819   4.008   3.733   4.858
 5619TIP3   OH216820   4.217   3.646   4.639
 5619TIP3    H116821   4.134   3.654   4.685
 5619TIP3    H216822   4.198   3.675   4.549
 5620TIP3   OH216823   4.640   3.667   4.433
 5620TIP3    H116824   4.570   3.678   4.369
 5620TIP3    H216825   4.652   3.753   4.472
 5621TIP3   OH216826   4.904   3.602   4.484
 5621TIP3    H116827   4.812   3.619   4.466
 5621TIP3    H216828   4.951   3.667   4.431
 5622TIP3   OH216829   5.112   3.790   4.388
 5622TIP3    H116830   5.100   3.875   4.345
 5622TIP3    H216831   5.139   3.731   4.317
 5623TIP3   OH216832   3.901   3.454   4.521
 5623TIP3    H116833   3.921   3.415   4.606
 5623TIP3    H216834   3.966   3.417   4.462
 5624TIP3   OH216835   4.100   3.330   4.377
 5624TIP3    H116836   4.108   3.248   4.426
 5624TIP3    H216837   4.188   3.369   4.381
 5625TIP3   OH216838   4.366   3.410   4.394
 5625TIP3    H116839   4.388   3.317   4.384
 5625TIP3    H216840   4.418   3.439   4.469
 5626TIP3   OH216841   4.915   2.073   4.490
 5626TIP3    H116842   4.877   1.999   4.537
 5626TIP3    H216843   4.986   2.035   4.438
 5627TIP3   OH216844   5.415   1.924   4.328
 5627TIP3    H116845   5.462   1.984   4.270
 5627TIP3    H216846   5.333   1.968   4.349
 5628TIP3   OH216847   5.545   2.035   4.117
 5628TIP3    H116848   5.612   1.977   4.081
 5628TIP3    H216849   5.579   2.124   4.102
 5629TIP3   OH216850   4.176   1.768   4.482
 5629TIP3    H116851   4.085   1.739   4.487
 5629TIP3    H216852   4.227   1.688   4.474
 5630TIP3   OH216853   3.989   1.672   4.138
 5630TIP3    H116854   4.013   1.721   4.059
 5630TIP3    H216855   3.954   1.739   4.197
 5631TIP3   OH216856   4.646   1.804   4.371
 5631TIP3    H116857   4.690   1.854   4.302
 5631TIP3    H216858   4.687   1.833   4.452
 5632TIP3   OH216859   5.129   1.962   4.357
 5632TIP3    H116860   5.106   1.934   4.268
 5632TIP3    H216861   5.132   1.881   4.408
 5633TIP3   OH216862   3.661   3.227   3.921
 5633TIP3    H116863   3.596   3.218   3.851
 5633TIP3    H216864   3.633   3.304   3.970
 5634TIP3   OH216865   4.094   1.803   3.897
 5634TIP3    H116866   4.139   1.742   3.838
 5634TIP3    H216867   4.164   1.859   3.930
 5635TIP3   OH216868   4.585   1.995   3.989
 5635TIP3    H116869   4.643   1.943   4.046
 5635TIP3    H216870   4.603   2.086   4.013
 5636TIP3   OH216871   5.156   3.548   3.572
 5636TIP3    H116872   5.157   3.452   3.567
 5636TIP3    H216873   5.094   3.575   3.505
 5637TIP3   OH216874   4.399   2.045   5.368
 5637TIP3    H116875   4.361   1.978   5.424
 5637TIP3    H216876   4.490   2.052   5.397
 5638TIP3   OH216877   4.646   2.052   5.493
 5638TIP3    H116878   4.725   2.023   5.447
 5638TIP3    H216879   4.630   1.984   5.558
 5639TIP3   OH216880   3.797   3.174   3.587
 5639TIP3    H116881   3.801   3.262   3.625
 5639TIP3    H216882   3.876   3.168   3.532
 5640TIP3   OH216883   5.482   2.132   5.284
 5640TIP3    H116884   5.516   2.101   5.367
 5640TIP3    H216885   5.558   2.136   5.226
 5641TIP3   OH216886   5.387   3.673   4.772
 5641TIP3    H116887   5.312   3.643   4.722
 5641TIP3    H216888   5.374   3.767   4.781
 5642TIP3   OH216889   6.640   3.064   3.547
 5642TIP3    H116890   6.613   3.150   3.516
 5642TIP3    H216891   6.573   3.004   3.514
 5643TIP3   OH216892   6.628   3.053   3.949
 5643TIP3    H116893   6.680   3.033   4.026
 5643TIP3    H216894   6.599   2.968   3.917
 5644TIP3   OH216895   5.962   2.926   4.292
 5644TIP3    H116896   5.995   2.868   4.361
 5644TIP3    H216897   6.041   2.957   4.248
 5645TIP3   OH216898   6.942   3.334   3.605
 5645TIP3    H116899   6.900   3.277   3.669
 5645TIP3    H216900   6.948   3.419   3.648
 5646TIP3   OH216901   5.948   3.347   3.989
 5646TIP3    H116902   5.933   3.253   3.994
 5646TIP3    H216903   6.043   3.355   3.976
 5647TIP3   OH216904   5.635   2.542   3.775
 5647TIP3    H116905   5.600   2.628   3.797
 5647TIP3    H216906   5.565   2.500   3.724
 5648TIP3   OH216907   5.711   2.851   3.973
 5648TIP3    H116908   5.761   2.774   4.002
 5648TIP3    H216909   5.777   2.911   3.939
 5649TIP3   OH216910   6.574   3.801   3.620
 5649TIP3    H116911   6.606   3.732   3.561
 5649TIP3    H216912   6.556   3.756   3.702
 5650TIP3   OH216913   6.460   3.280   3.954
 5650TIP3    H116914   6.499   3.196   3.930
 5650TIP3    H216915   6.535   3.334   3.981
 5651TIP3   OH216916   6.847   2.762   4.022
 5651TIP3    H116917   6.874   2.671   4.017
 5651TIP3    H216918   6.870   2.798   3.936
 5652TIP3   OH216919   6.225   2.428   3.950
 5652TIP3    H116920   6.209   2.502   3.891
 5652TIP3    H216921   6.173   2.357   3.913
 5653TIP3   OH216922   6.850   2.497   3.603
 5653TIP3    H116923   6.916   2.520   3.669
 5653TIP3    H216924   6.881   2.539   3.523
 5654TIP3   OH216925   5.851   2.633   4.070
 5654TIP3    H116926   5.935   2.619   4.115
 5654TIP3    H216927   5.860   2.584   3.989
 5655TIP3   OH216928   6.281   2.834   3.881
 5655TIP3    H116929   6.374   2.816   3.891
 5655TIP3    H216930   6.245   2.753   3.844
 5656TIP3   OH216931   6.211   2.423   4.396
 5656TIP3    H116932   6.159   2.459   4.324
 5656TIP3    H216933   6.158   2.440   4.474
 5657TIP3   OH216934   6.541   3.273   3.400
 5657TIP3    H116935   6.514   3.252   3.310
 5657TIP3    H216936   6.493   3.353   3.421
 5658TIP3   OH216937   6.312   3.198   4.172
 5658TIP3    H116938   6.256   3.267   4.206
 5658TIP3    H216939   6.358   3.239   4.099
 5659TIP3   OH216940   7.049   2.548   3.776
 5659TIP3    H116941   7.035   2.519   3.866
 5659TIP3    H216942   7.141   2.573   3.773
 5660TIP3   OH216943   6.092   2.531   4.170
 5660TIP3    H116944   6.147   2.606   4.194
 5660TIP3    H216945   6.139   2.489   4.098
 5661TIP3   OH216946   6.150   3.399   4.273
 5661TIP3    H116947   6.132   3.487   4.239
 5661TIP3    H216948   6.073   3.378   4.326
 5662TIP3   OH216949   5.526   3.091   3.519
 5662TIP3    H116950   5.491   3.108   3.431
 5662TIP3    H216951   5.556   3.177   3.549
 5663TIP3   OH216952   6.977   3.572   3.747
 5663TIP3    H116953   6.891   3.580   3.789
 5663TIP3    H216954   6.979   3.642   3.682
 5664TIP3   OH216955   7.187   2.503   4.098
 5664TIP3    H116956   7.092   2.509   4.095
 5664TIP3    H216957   7.209   2.433   4.037
 5665TIP3   OH216958   6.545   2.124   4.112
 5665TIP3    H116959   6.543   2.032   4.138
 5665TIP3    H216960   6.470   2.164   4.156
 5666TIP3   OH216961   6.673   3.632   3.421
 5666TIP3    H116962   6.727   3.554   3.407
 5666TIP3    H216963   6.729   3.705   3.393
 5667TIP3   OH216964   6.836   3.421   3.362
 5667TIP3    H116965   6.808   3.347   3.307
 5667TIP3    H216966   6.871   3.379   3.441
 5668TIP3   OH216967   7.167   3.508   4.082
 5668TIP3    H116968   7.134   3.439   4.025
 5668TIP3    H216969   7.144   3.589   4.037
 5669TIP3   OH216970   6.480   2.911   3.374
 5669TIP3    H116971   6.400   2.960   3.353
 5669TIP3    H216972   6.525   2.904   3.291
 5670TIP3   OH216973   6.448   2.695   3.067
 5670TIP3    H116974   6.512   2.748   3.115
 5670TIP3    H216975   6.500   2.630   3.022
 5671TIP3   OH216976   0.047   3.233   3.867
 5671TIP3    H116977  -0.008   3.205   3.939
 5671TIP3    H216978   0.109   3.161   3.854
 5672TIP3   OH216979   6.803   2.995   3.338
 5672TIP3    H116980   6.756   3.021   3.417
 5672TIP3    H216981   6.880   2.948   3.371
 5673TIP3   OH216982   7.037   3.019   4.270
 5673TIP3    H116983   7.038   3.087   4.338
 5673TIP3    H216984   6.948   3.022   4.234
 5674TIP3   OH216985   6.075   2.971   3.746
 5674TIP3    H116986   6.039   2.913   3.680
 5674TIP3    H216987   6.150   2.923   3.781
 5675TIP3   OH216988   6.207   3.394   3.882
 5675TIP3    H116989   6.186   3.375   3.791
 5675TIP3    H216990   6.294   3.355   3.895
 5676TIP3   OH216991   6.186   2.963   4.110
 5676TIP3    H116992   6.223   2.928   4.029
 5676TIP3    H216993   6.236   3.043   4.127
 5677TIP3   OH216994   6.750   3.593   3.891
 5677TIP3    H116995   6.725   3.673   3.936
 5677TIP3    H216996   6.727   3.523   3.952
 5678TIP3   OH216997   6.349   3.506   4.432
 5678TIP3    H116998   6.290   3.564   4.479
 5678TIP3    H216999   6.292   3.453   4.377
 5679TIP3   OH217000   6.653   2.856   3.162
 5679TIP3    H117001   6.710   2.912   3.216
 5679TIP3    H217002   6.676   2.879   3.072
 5680TIP3   OH217003   6.108   3.063   4.559
 5680TIP3    H117004   6.110   3.154   4.587
 5680TIP3    H217005   6.015   3.041   4.554
 5681TIP3   OH217006   6.420   3.523   3.432
 5681TIP3    H117007   6.506   3.566   3.434
 5681TIP3    H217008   6.367   3.580   3.377
 5682TIP3   OH217009   6.139   3.666   4.518
 5682TIP3    H117010   6.112   3.671   4.426
 5682TIP3    H217011   6.058   3.647   4.565
 5683TIP3   OH217012   5.949   2.817   3.544
 5683TIP3    H117013   5.876   2.865   3.504
 5683TIP3    H217014   5.915   2.728   3.556
 5684TIP3   OH217015   6.964   3.445   2.754
 5684TIP3    H117016   6.951   3.540   2.755
 5684TIP3    H217017   7.051   3.434   2.715
 5685TIP3   OH217018   5.727   3.215   4.466
 5685TIP3    H117019   5.660   3.196   4.401
 5685TIP3    H217020   5.763   3.129   4.489
 5686TIP3   OH217021   5.574   3.408   4.106
 5686TIP3    H117022   5.669   3.419   4.108
 5686TIP3    H217023   5.539   3.487   4.146
 5687TIP3   OH217024   7.377   3.903   4.140
 5687TIP3    H117025   7.395   3.810   4.150
 5687TIP3    H217026   7.299   3.919   4.194
 5688TIP3   OH217027   6.541   3.641   4.289
 5688TIP3    H117028   6.536   3.732   4.319
 5688TIP3    H217029   6.473   3.596   4.340
 5689TIP3   OH217030   6.316   3.750   3.247
 5689TIP3    H117031   6.271   3.728   3.166
 5689TIP3    H217032   6.279   3.834   3.273
 5690TIP3   OH217033   5.751   3.599   3.627
 5690TIP3    H117034   5.797   3.591   3.711
 5690TIP3    H217035   5.705   3.515   3.617
 5691TIP3   OH217036   6.516   3.679   2.882
 5691TIP3    H117037   6.566   3.606   2.844
 5691TIP3    H217038   6.552   3.689   2.970
 5692TIP3   OH217039   6.571   3.720   3.150
 5692TIP3    H117040   6.484   3.724   3.190
 5692TIP3    H217041   6.627   3.682   3.219
 5693TIP3   OH217042   7.240   2.885   4.491
 5693TIP3    H117043   7.244   2.974   4.456
 5693TIP3    H217044   7.331   2.865   4.515
 5694TIP3   OH217045   5.933   3.396   4.442
 5694TIP3    H117046   5.981   3.384   4.523
 5694TIP3    H217047   5.859   3.335   4.448
 5695TIP3   OH217048   6.315   2.211   4.247
 5695TIP3    H117049   6.229   2.182   4.216
 5695TIP3    H217050   6.298   2.292   4.294
 5696TIP3   OH217051   6.852   2.327   4.445
 5696TIP3    H117052   6.922   2.308   4.506
 5696TIP3    H217053   6.771   2.309   4.494
 5697TIP3   OH217054   7.062   2.742   4.337
 5697TIP3    H117055   7.042   2.732   4.430
 5697TIP3    H217056   7.061   2.836   4.322
 5698TIP3   OH217057   6.722   2.906   2.909
 5698TIP3    H117058   6.677   2.877   2.829
 5698TIP3    H217059   6.810   2.929   2.880
 5699TIP3   OH217060   6.464   2.244   3.216
 5699TIP3    H117061   6.430   2.252   3.305
 5699TIP3    H217062   6.425   2.163   3.182
 5700TIP3   OH217063   6.253   2.738   4.255
 5700TIP3    H117064   6.211   2.751   4.340
 5700TIP3    H217065   6.234   2.818   4.206
 5701TIP3   OH217066   6.139   2.620   3.775
 5701TIP3    H117067   6.049   2.597   3.798
 5701TIP3    H217068   6.150   2.585   3.686
 5702TIP3   OH217069   6.602   2.700   3.493
 5702TIP3    H117070   6.555   2.776   3.459
 5702TIP3    H217071   6.645   2.662   3.416
 5703TIP3   OH217072   6.808   2.976   4.583
 5703TIP3    H117073   6.780   2.906   4.642
 5703TIP3    H217074   6.899   2.992   4.606
 5704TIP3   OH217075   6.734   2.713   3.733
 5704TIP3    H117076   6.683   2.740   3.657
 5704TIP3    H217077   6.767   2.626   3.711
 5705TIP3   OH217078   6.084   2.752   4.478
 5705TIP3    H117079   6.133   2.808   4.538
 5705TIP3    H217080   6.071   2.671   4.527
 5706TIP3   OH217081   6.130   2.233   3.186
 5706TIP3    H117082   6.122   2.239   3.281
 5706TIP3    H217083   6.055   2.281   3.152
 5707TIP3   OH217084   5.678   2.264   4.048
 5707TIP3    H117085   5.734   2.304   4.114
 5707TIP3    H217086   5.728   2.271   3.967
 5708TIP3   OH217087   5.610   2.262   3.567
 5708TIP3    H117088   5.650   2.296   3.487
 5708TIP3    H217089   5.545   2.328   3.590
 5709TIP3   OH217090   6.782   2.974   4.170
 5709TIP3    H117091   6.812   2.906   4.110
 5709TIP3    H217092   6.752   2.927   4.247
 5710TIP3   OH217093   6.490   2.419   3.830
 5710TIP3    H117094   6.413   2.422   3.888
 5710TIP3    H217095   6.564   2.413   3.890
 5711TIP3   OH217096   5.900   2.496   3.838
 5711TIP3    H117097   5.811   2.498   3.802
 5711TIP3    H217098   5.932   2.408   3.816
 5712TIP3   OH217099   6.153   2.493   3.532
 5712TIP3    H117100   6.248   2.504   3.521
 5712TIP3    H217101   6.116   2.513   3.446
 5713TIP3   OH217102   6.918   2.496   4.046
 5713TIP3    H117103   6.891   2.518   4.135
 5713TIP3    H217104   6.850   2.436   4.014
 5714TIP3   OH217105   6.030   2.520   3.289
 5714TIP3    H117106   5.965   2.474   3.237
 5714TIP3    H217107   6.084   2.567   3.226
 5715TIP3   OH217108   7.112   4.205   4.261
 5715TIP3    H117109   7.110   4.220   4.167
 5715TIP3    H217110   7.192   4.248   4.291
 5716TIP3   OH217111   6.089   3.317   4.675
 5716TIP3    H117112   6.170   3.338   4.721
 5716TIP3    H217113   6.021   3.321   4.742
 5717TIP3   OH217114   6.547   2.774   3.935
 5717TIP3    H117115   6.619   2.745   3.879
 5717TIP3    H217116   6.562   2.729   4.018
 5718TIP3   OH217117   6.049   2.252   3.818
 5718TIP3    H117118   6.023   2.175   3.869
 5718TIP3    H217119   6.085   2.217   3.737
 5719TIP3   OH217120   6.523   2.672   4.214
 5719TIP3    H117121   6.436   2.709   4.229
 5719TIP3    H217122   6.582   2.728   4.264
 5720TIP3   OH217123   6.248   3.052   3.312
 5720TIP3    H117124   6.177   2.990   3.293
 5720TIP3    H217125   6.227   3.085   3.399
 5721TIP3   OH217126   7.094   3.317   3.896
 5721TIP3    H117127   7.074   3.373   3.821
 5721TIP3    H217128   7.023   3.253   3.898
 5722TIP3   OH217129   6.713   2.344   3.192
 5722TIP3    H117130   6.621   2.317   3.193
 5722TIP3    H217131   6.710   2.440   3.199
 5723TIP3   OH217132   6.663   3.373   4.327
 5723TIP3    H117133   6.708   3.359   4.410
 5723TIP3    H217134   6.623   3.460   4.336
 5724TIP3   OH217135   6.719   2.608   3.260
 5724TIP3    H117136   6.810   2.604   3.291
 5724TIP3    H217137   6.714   2.691   3.213
 5725TIP3   OH217138   5.951   3.060   3.976
 5725TIP3    H117139   5.988   3.041   3.890
 5725TIP3    H217140   6.016   3.026   4.038
 5726TIP3   OH217141   6.410   3.204   3.155
 5726TIP3    H117142   6.365   3.288   3.153
 5726TIP3    H217143   6.354   3.147   3.208
 5727TIP3   OH217144   5.838   2.997   4.604
 5727TIP3    H117145   5.860   2.984   4.697
 5727TIP3    H217146   5.770   2.932   4.587
 5728TIP3   OH217147   6.574   3.122   4.615
 5728TIP3    H117148   6.513   3.070   4.562
 5728TIP3    H217149   6.660   3.087   4.595
 5729TIP3   OH217150   6.813   3.651   4.211
 5729TIP3    H117151   6.719   3.638   4.218
 5729TIP3    H217152   6.839   3.692   4.293
 5730TIP3   OH217153   7.399   3.641   4.179
 5730TIP3    H117154   7.314   3.600   4.196
 5730TIP3    H217155   7.449   3.574   4.132
 5731TIP3   OH217156   6.916   3.518   3.039
 5731TIP3    H117157   6.866   3.449   3.082
 5731TIP3    H217158   6.935   3.484   2.952
 5732TIP3   OH217159   6.867   3.170   3.848
 5732TIP3    H117160   6.774   3.155   3.863
 5732TIP3    H217161   6.901   3.083   3.824
 5733TIP3   OH217162   6.069   3.392   3.630
 5733TIP3    H117163   6.070   3.469   3.573
 5733TIP3    H217164   5.976   3.371   3.641
 5734TIP3   OH217165   5.634   2.682   3.338
 5734TIP3    H117166   5.677   2.765   3.357
 5734TIP3    H217167   5.553   2.684   3.389
 5735TIP3   OH217168   6.171   3.146   3.552
 5735TIP3    H117169   6.150   3.236   3.577
 5735TIP3    H217170   6.141   3.093   3.626
 5736TIP3   OH217171   6.348   3.719   4.087
 5736TIP3    H117172   6.384   3.791   4.036
 5736TIP3    H217173   6.422   3.683   4.135
 5737TIP3   OH217174   5.983   3.620   3.477
 5737TIP3    H117175   5.897   3.624   3.519
 5737TIP3    H217176   6.015   3.710   3.481
 5738TIP3   OH217177   6.706   3.370   4.054
 5738TIP3    H117178   6.695   3.366   4.149
 5738TIP3    H217179   6.776   3.307   4.035
 5739TIP3   OH217180   6.676   3.261   2.935
 5739TIP3    H117181   6.709   3.243   3.023
 5739TIP3    H217182   6.593   3.214   2.930
 5740TIP3   OH217183   6.947   3.886   4.097
 5740TIP3    H117184   6.875   3.823   4.103
 5740TIP3    H217185   6.923   3.941   4.022
 5741TIP3   OH217186   6.980   3.715   2.786
 5741TIP3    H117187   7.041   3.772   2.738
 5741TIP3    H217188   6.902   3.769   2.798
 5742TIP3   OH217189   6.047   2.497   4.609
 5742TIP3    H117190   5.952   2.497   4.620
 5742TIP3    H217191   6.080   2.449   4.685
 5743TIP3   OH217192   6.812   3.213   3.169
 5743TIP3    H117193   6.806   3.138   3.227
 5743TIP3    H217194   6.897   3.204   3.126
 5744TIP3   OH217195   5.777   3.601   4.242
 5744TIP3    H117196   5.828   3.535   4.290
 5744TIP3    H217197   5.795   3.682   4.288
 5745TIP3   OH217198   6.054   3.226   2.935
 5745TIP3    H117199   6.062   3.135   2.907
 5745TIP3    H217200   6.033   3.220   3.029
 5746TIP3   OH217201   5.995   3.240   3.208
 5746TIP3    H117202   6.071   3.211   3.258
 5746TIP3    H217203   5.996   3.335   3.214
 5747TIP3   OH217204   5.730   2.932   3.417
 5747TIP3    H117205   5.663   2.975   3.468
 5747TIP3    H217206   5.749   2.992   3.345
 5748TIP3   OH217207   6.862   2.562   4.303
 5748TIP3    H117208   6.941   2.611   4.325
 5748TIP3    H217209   6.864   2.486   4.361
 5749TIP3   OH217210   6.737   2.289   3.463
 5749TIP3    H117211   6.730   2.311   3.370
 5749TIP3    H217212   6.768   2.370   3.504
 5750TIP3   OH217213   6.267   3.433   3.154
 5750TIP3    H117214   6.180   3.456   3.189
 5750TIP3    H217215   6.286   3.503   3.090
 5751TIP3   OH217216   6.431   2.501   3.572
 5751TIP3    H117217   6.491   2.571   3.545
 5751TIP3    H217218   6.453   2.486   3.664
 5752TIP3   OH217219   6.719   2.801   4.370
 5752TIP3    H117220   6.757   2.843   4.447
 5752TIP3    H217221   6.770   2.721   4.359
 5753TIP3   OH217222   6.579   2.202   3.669
 5753TIP3    H117223   6.562   2.281   3.722
 5753TIP3    H217224   6.642   2.231   3.603
 5754TIP3   OH217225   6.013   3.513   3.225
 5754TIP3    H117226   5.989   3.582   3.163
 5754TIP3    H217227   6.000   3.553   3.311
 5755TIP3   OH217228   6.104   2.222   3.466
 5755TIP3    H117229   6.094   2.313   3.495
 5755TIP3    H217230   6.199   2.206   3.470
 5756TIP3   OH217231   7.317   2.660   4.283
 5756TIP3    H117232   7.237   2.699   4.318
 5756TIP3    H217233   7.286   2.591   4.224
 5757TIP3   OH217234   6.927   2.907   3.804
 5757TIP3    H117235   6.873   2.854   3.745
 5757TIP3    H217236   7.017   2.883   3.783
 5758TIP3   OH217237   5.744   3.118   3.206
 5758TIP3    H117238   5.814   3.182   3.215
 5758TIP3    H217239   5.776   3.054   3.142
 5759TIP3   OH217240   5.660   2.405   3.338
 5759TIP3    H117241   5.672   2.500   3.345
 5759TIP3    H217242   5.606   2.393   3.260
 5760TIP3   OH217243   6.995   3.864   3.680
 5760TIP3    H117244   6.950   3.913   3.612
 5760TIP3    H217245   7.088   3.870   3.656
 5761TIP3   OH217246   6.051   2.130   4.211
 5761TIP3    H117247   6.025   2.097   4.125
 5761TIP3    H217248   6.044   2.053   4.269
 5762TIP3   OH217249   5.591   3.363   3.594
 5762TIP3    H117250   5.533   3.387   3.666
 5762TIP3    H217251   5.548   3.400   3.516
 5763TIP3   OH217252   5.771   3.911   4.668
 5763TIP3    H117253   5.854   3.914   4.715
 5763TIP3    H217254   5.752   3.817   4.659
 5764TIP3   OH217255   6.242   3.836   4.709
 5764TIP3    H117256   6.333   3.810   4.720
 5764TIP3    H217257   6.209   3.780   4.638
 5765TIP3   OH217258   6.212   3.428   2.835
 5765TIP3    H117259   6.163   3.356   2.875
 5765TIP3    H217260   6.285   3.385   2.790
 5766TIP3   OH217261   6.866   3.765   4.455
 5766TIP3    H117262   6.873   3.694   4.519
 5766TIP3    H217263   6.939   3.824   4.477
 5767TIP3   OH217264   6.644   3.471   2.761
 5767TIP3    H117265   6.676   3.404   2.821
 5767TIP3    H217266   6.698   3.461   2.683
 5768TIP3   OH217267   5.883   3.306   4.862
 5768TIP3    H117268   5.902   3.213   4.871
 5768TIP3    H217269   5.797   3.309   4.821
 5769TIP3   OH217270   5.873   2.925   3.063
 5769TIP3    H117271   5.927   2.902   3.139
 5769TIP3    H217272   5.936   2.937   2.992
 5770TIP3   OH217273   6.500   3.396   4.637
 5770TIP3    H117274   6.457   3.415   4.554
 5770TIP3    H217275   6.537   3.309   4.626
 5771TIP3   OH217276   6.427   3.141   2.887
 5771TIP3    H117277   6.408   3.154   2.980
 5771TIP3    H217278   6.413   3.048   2.871
 5772TIP3   OH217279   6.976   3.418   4.254
 5772TIP3    H117280   7.058   3.450   4.216
 5772TIP3    H217281   6.912   3.486   4.233
 5773TIP3   OH217282   6.001   3.044   4.855
 5773TIP3    H117283   6.081   3.024   4.807
 5773TIP3    H217284   6.031   3.068   4.943
 5774TIP3   OH217285   6.053   2.859   3.270
 5774TIP3    H117286   6.033   2.824   3.357
 5774TIP3    H217287   6.098   2.788   3.225
 5775TIP3   OH217288   6.333   2.914   4.506
 5775TIP3    H117289   6.263   2.977   4.522
 5775TIP3    H217290   6.384   2.952   4.434
 5776TIP3   OH217291   6.179   2.667   3.114
 5776TIP3    H117292   6.150   2.671   3.023
 5776TIP3    H217293   6.274   2.672   3.109
 5777TIP3   OH217294   6.848   3.316   4.620
 5777TIP3    H117295   6.915   3.278   4.564
 5777TIP3    H217296   6.846   3.258   4.697
 5778TIP3   OH217297   6.965   2.964   2.798
 5778TIP3    H117298   6.948   2.931   2.710
 5778TIP3    H217299   6.946   3.058   2.792
 5779TIP3   OH217300   6.460   2.708   4.633
 5779TIP3    H117301   6.468   2.633   4.574
 5779TIP3    H217302   6.421   2.777   4.580
 5780TIP3   OH217303   6.471   2.502   4.437
 5780TIP3    H117304   6.502   2.543   4.356
 5780TIP3    H217305   6.380   2.479   4.419
 5781TIP3   OH217306   6.484   3.041   4.320
 5781TIP3    H117307   6.572   3.054   4.285
 5781TIP3    H217308   6.429   3.100   4.269
 5782TIP3   OH217309   7.067   2.996   4.697
 5782TIP3    H117310   7.097   2.915   4.655
 5782TIP3    H217311   7.145   3.052   4.700
 5783TIP3   OH217312   7.063   3.249   4.447
 5783TIP3    H117313   7.030   3.311   4.383
 5783TIP3    H217314   7.153   3.232   4.420
 5784TIP3   OH217315   6.342   2.807   4.871
 5784TIP3    H117316   6.275   2.741   4.892
 5784TIP3    H217317   6.375   2.780   4.785
 5785TIP3   OH217318   6.591   2.269   4.529
 5785TIP3    H117319   6.550   2.349   4.498
 5785TIP3    H217320   6.525   2.201   4.513
 5786TIP3   OH217321   6.719   2.759   4.726
 5786TIP3    H117322   6.712   2.747   4.821
 5786TIP3    H217323   6.632   2.737   4.693
 5787TIP3   OH217324   6.947   2.703   4.579
 5787TIP3    H117325   6.870   2.709   4.635
 5787TIP3    H217326   7.019   2.680   4.638
 5788TIP3   OH217327   7.155   2.654   4.743
 5788TIP3    H117328   7.185   2.563   4.749
 5788TIP3    H217329   7.160   2.687   4.832
 5789TIP3   OH217330   6.180   2.582   4.934
 5789TIP3    H117331   6.189   2.493   4.900
 5789TIP3    H217332   6.217   2.578   5.022
 5790TIP3   OH217333   6.665   2.256   4.792
 5790TIP3    H117334   6.734   2.190   4.787
 5790TIP3    H217335   6.633   2.265   4.702
 5791TIP3   OH217336   6.750   2.476   4.938
 5791TIP3    H117337   6.725   2.405   4.878
 5791TIP3    H217338   6.679   2.540   4.930
 5792TIP3   OH217339   6.000   3.721   3.042
 5792TIP3    H117340   6.091   3.703   3.016
 5792TIP3    H217341   5.962   3.765   2.966
 5793TIP3   OH217342   5.472   3.095   3.235
 5793TIP3    H117343   5.566   3.112   3.224
 5793TIP3    H217344   5.458   3.010   3.194
 5794TIP3   OH217345   5.384   3.681   3.636
 5794TIP3    H117346   5.303   3.634   3.615
 5794TIP3    H217347   5.422   3.634   3.709
 5795TIP3   OH217348   5.505   3.547   3.847
 5795TIP3    H117349   5.488   3.479   3.911
 5795TIP3    H217350   5.562   3.609   3.892
 5796TIP3   OH217351   7.263   3.930   3.651
 5796TIP3    H117352   7.264   3.967   3.739
 5796TIP3    H217353   7.271   4.006   3.593
 5797TIP3   OH217354   7.233   3.971   3.920
 5797TIP3    H117355   7.187   3.888   3.908
 5797TIP3    H217356   7.302   3.951   3.984
 5798TIP3   OH217357   7.283   3.649   4.509
 5798TIP3    H117358   7.217   3.660   4.578
 5798TIP3    H217359   7.331   3.732   4.507
 5799TIP3   OH217360   7.067   3.215   3.083
 5799TIP3    H117361   7.108   3.301   3.073
 5799TIP3    H217362   7.091   3.187   3.171
 5800TIP3   OH217363   7.233   3.229   3.414
 5800TIP3    H117364   7.144   3.208   3.441
 5800TIP3    H217365   7.258   3.158   3.355
 5801TIP3   OH217366   7.113   3.726   3.935
 5801TIP3    H117367   7.049   3.770   3.992
 5801TIP3    H217368   7.060   3.693   3.862
 5802TIP3   OH217369   7.143   2.941   3.000
 5802TIP3    H117370   7.081   2.931   2.927
 5802TIP3    H217371   7.169   3.033   2.997
 5803TIP3   OH217372   6.894   2.621   2.939
 5803TIP3    H117373   6.961   2.678   2.903
 5803TIP3    H217374   6.882   2.553   2.873
 5804TIP3   OH217375   6.993   2.835   3.476
 5804TIP3    H117376   7.053   2.769   3.509
 5804TIP3    H217377   7.030   2.918   3.506
 5805TIP3   OH217378   5.699   2.955   4.228
 5805TIP3    H117379   5.691   2.924   4.138
 5805TIP3    H217380   5.793   2.956   4.245
 5806TIP3   OH217381   7.310   3.380   4.303
 5806TIP3    H117382   7.312   3.302   4.246
 5806TIP3    H217383   7.388   3.429   4.278
 5807TIP3   OH217384   0.177   3.155   4.297
 5807TIP3    H117385   0.171   3.071   4.251
 5807TIP3    H217386   0.269   3.163   4.322
 5808TIP3   OH217387   7.002   2.265   2.883
 5808TIP3    H117388   7.007   2.209   2.805
 5808TIP3    H217389   6.917   2.309   2.875
 5809TIP3   OH217390   6.963   2.577   3.369
 5809TIP3    H117391   7.027   2.506   3.364
 5809TIP3    H217392   7.013   2.656   3.349
 5810TIP3   OH217393   7.195   2.833   3.831
 5810TIP3    H117394   7.267   2.769   3.831
 5810TIP3    H217395   7.184   2.857   3.923
 5811TIP3   OH217396   7.214   2.906   4.094
 5811TIP3    H117397   7.140   2.926   4.151
 5811TIP3    H217398   7.290   2.907   4.152
 5812TIP3   OH217399   5.916   2.635   4.872
 5812TIP3    H117400   6.010   2.637   4.888
 5812TIP3    H217401   5.886   2.554   4.913
 5813TIP3   OH217402   7.122   2.362   3.393
 5813TIP3    H117403   7.113   2.314   3.476
 5813TIP3    H217404   7.083   2.304   3.328
 5814TIP3   OH217405   5.875   2.346   4.233
 5814TIP3    H117406   5.933   2.270   4.236
 5814TIP3    H217407   5.933   2.420   4.216
 5815TIP3   OH217408   5.672   2.615   4.286
 5815TIP3    H117409   5.725   2.608   4.207
 5815TIP3    H217410   5.693   2.701   4.323
 5816TIP3   OH217411   5.699   2.105   3.774
 5816TIP3    H117412   5.615   2.095   3.818
 5816TIP3    H217413   5.681   2.168   3.704
 5817TIP3   OH217414   6.810   3.838   3.316
 5817TIP3    H117415   6.855   3.825   3.233
 5817TIP3    H217416   6.862   3.904   3.361
 5818TIP3   OH217417   5.885   2.188   4.612
 5818TIP3    H117418   5.837   2.185   4.694
 5818TIP3    H217419   5.825   2.231   4.551
 5819TIP3   OH217420   5.915   3.630   4.684
 5819TIP3    H117421   5.822   3.611   4.674
 5819TIP3    H217422   5.933   3.616   4.777
 5820TIP3   OH217423   6.118   3.674   4.234
 5820TIP3    H117424   6.066   3.747   4.201
 5820TIP3    H217425   6.203   3.684   4.191
 5821TIP3   OH217426   6.532   3.907   4.371
 5821TIP3    H117427   6.570   3.900   4.459
 5821TIP3    H217428   6.595   3.959   4.322
 5822TIP3   OH217429   6.718   4.061   4.239
 5822TIP3    H117430   6.785   4.009   4.193
 5822TIP3    H217431   6.768   4.116   4.299
 5823TIP3   OH217432   5.782   3.923   4.276
 5823TIP3    H117433   5.691   3.940   4.253
 5823TIP3    H217434   5.803   3.987   4.344
 5824TIP3   OH217435   6.013   3.905   4.126
 5824TIP3    H117436   5.930   3.912   4.173
 5824TIP3    H217437   5.992   3.932   4.036
 5825TIP3   OH217438   6.432   3.925   3.917
 5825TIP3    H117439   6.360   3.937   3.855
 5825TIP3    H217440   6.444   4.011   3.957
 5826TIP3   OH217441   6.694   3.856   3.966
 5826TIP3    H117442   6.602   3.876   3.948
 5826TIP3    H217443   6.743   3.923   3.917
 5827TIP3   OH217444   6.894   4.035   3.871
 5827TIP3    H117445   6.883   4.120   3.829
 5827TIP3    H217446   6.929   3.979   3.802
 5828TIP3   OH217447   5.695   3.705   3.995
 5828TIP3    H117448   5.715   3.678   4.084
 5828TIP3    H217449   5.766   3.670   3.942
 5829TIP3   OH217450   5.897   3.584   3.860
 5829TIP3    H117451   5.907   3.501   3.906
 5829TIP3    H217452   5.984   3.623   3.862
 5830TIP3   OH217453   6.164   3.672   3.878
 5830TIP3    H117454   6.183   3.580   3.864
 5830TIP3    H217455   6.215   3.696   3.956
 5831TIP3   OH217456   6.711   2.322   3.971
 5831TIP3    H117457   6.663   2.256   4.020
 5831TIP3    H217458   6.772   2.273   3.916
 5832TIP3   OH217459   7.186   2.309   3.904
 5832TIP3    H117460   7.281   2.310   3.890
 5832TIP3    H217461   7.149   2.294   3.817
 5833TIP3   OH217462   5.970   2.028   3.966
 5833TIP3    H117463   5.879   2.003   3.955
 5833TIP3    H217464   6.018   1.945   3.964
 5834TIP3   OH217465   5.786   1.904   3.601
 5834TIP3    H117466   5.818   1.950   3.523
 5834TIP3    H217467   5.759   1.974   3.660
 5835TIP3   OH217468   6.430   2.063   3.859
 5835TIP3    H117469   6.478   2.109   3.790
 5835TIP3    H217470   6.472   2.092   3.940
 5836TIP3   OH217471   6.888   2.165   3.838
 5836TIP3    H117472   6.949   2.140   3.769
 5836TIP3    H217473   6.890   2.092   3.900
 5837TIP3   OH217474   6.962   2.130   3.463
 5837TIP3    H117475   6.875   2.168   3.447
 5837TIP3    H217476   6.945   2.038   3.483
 5838TIP3   OH217477   5.455   3.493   3.394
 5838TIP3    H117478   5.376   3.474   3.345
 5838TIP3    H217479   5.436   3.575   3.440
 5839TIP3   OH217480   5.896   2.049   3.382
 5839TIP3    H117481   5.942   1.996   3.316
 5839TIP3    H217482   5.963   2.110   3.415
 5840TIP3   OH217483   6.378   2.250   3.479
 5840TIP3    H117484   6.437   2.200   3.536
 5840TIP3    H217485   6.395   2.341   3.502
 5841TIP3   OH217486   6.260   3.655   2.977
 5841TIP3    H117487   6.343   3.684   2.941
 5841TIP3    H217488   6.231   3.584   2.920
 5842TIP3   OH217489   6.933   3.789   3.077
 5842TIP3    H117490   6.933   3.694   3.065
 5842TIP3    H217491   6.896   3.824   2.996
 5843TIP3   OH217492   6.187   2.307   4.845
 5843TIP3    H117493   6.151   2.241   4.905
 5843TIP3    H217494   6.279   2.313   4.869
 5844TIP3   OH217495   6.437   2.309   4.963
 5844TIP3    H117496   6.518   2.292   4.915
 5844TIP3    H217497   6.433   2.240   5.029
 5845TIP3   OH217498   5.571   3.489   3.034
 5845TIP3    H117499   5.579   3.492   3.130
 5845TIP3    H217500   5.652   3.446   3.006
 5846TIP3   OH217501   7.238   2.394   4.786
 5846TIP3    H117502   7.237   2.359   4.875
 5846TIP3    H217503   7.329   2.384   4.758
 5847TIP3   OH217504   7.149   3.935   4.275
 5847TIP3    H117505   7.078   3.902   4.220
 5847TIP3    H217506   7.131   4.029   4.282
 5848TIP3   OH217507   0.048   3.401   3.028
 5848TIP3    H117508   0.052   3.369   2.938
 5848TIP3    H217509  -0.042   3.430   3.040
 5849TIP3   OH217510   0.120   3.434   4.043
 5849TIP3    H117511   0.056   3.385   3.992
 5849TIP3    H217512   0.156   3.498   3.982
 5850TIP3   OH217513   0.476   5.235   5.151
 5850TIP3    H117514   0.563   5.233   5.190
 5850TIP3    H217515   0.461   5.328   5.133
 5851TIP3   OH217516   0.037   3.660   3.186
 5851TIP3    H117517  -0.025   3.704   3.128
 5851TIP3    H217518   0.116   3.649   3.133
 5852TIP3   OH217519   0.077   4.160   4.096
 5852TIP3    H117520   0.165   4.160   4.133
 5852TIP3    H217521   0.039   4.077   4.124
 5853TIP3   OH217522   7.129   3.958   3.155
 5853TIP3    H117523   7.065   3.894   3.123
 5853TIP3    H217524   7.179   3.912   3.222
 5854TIP3   OH217525   7.267   3.844   3.354
 5854TIP3    H117526   7.214   3.786   3.410
 5854TIP3    H217527   7.284   3.920   3.409
 5855TIP3   OH217528   0.253   3.873   4.130
 5855TIP3    H117529   0.171   3.856   4.085
 5855TIP3    H217530   0.310   3.800   4.104
 5856TIP3   OH217531   0.116   4.235   3.704
 5856TIP3    H117532   0.021   4.228   3.688
 5856TIP3    H217533   0.125   4.311   3.761
 5857TIP3   OH217534   0.181   4.013   3.530
 5857TIP3    H117535   0.238   3.992   3.603
 5857TIP3    H217536   0.225   3.976   3.453
 5858TIP3   OH217537   7.232   3.702   2.979
 5858TIP3    H117538   7.166   3.662   2.922
 5858TIP3    H217539   7.235   3.794   2.952
 5859TIP3   OH217540   0.912   4.102   4.701
 5859TIP3    H117541   0.866   4.185   4.694
 5859TIP3    H217542   0.848   4.036   4.673
 5860TIP3   OH217543   0.912   4.087   5.108
 5860TIP3    H117544   0.959   4.070   5.190
 5860TIP3    H217545   0.873   4.004   5.084
 5861TIP3   OH217546   1.163   4.402   4.788
 5861TIP3    H117547   1.159   4.333   4.854
 5861TIP3    H217548   1.193   4.480   4.836
 5862TIP3   OH217549   0.831   4.841   4.807
 5862TIP3    H117550   0.864   4.776   4.745
 5862TIP3    H217551   0.837   4.797   4.893
 5863TIP3   OH217552   0.752   4.314   5.135
 5863TIP3    H117553   0.784   4.231   5.100
 5863TIP3    H217554   0.830   4.366   5.152
 5864TIP3   OH217555   1.740   3.640   5.131
 5864TIP3    H117556   1.761   3.722   5.176
 5864TIP3    H217557   1.773   3.651   5.042
 5865TIP3   OH217558   1.129   3.819   5.165
 5865TIP3    H117559   1.179   3.741   5.189
 5865TIP3    H217560   1.092   3.797   5.080
 5866TIP3   OH217561   0.520   3.458   5.157
 5866TIP3    H117562   0.502   3.530   5.098
 5866TIP3    H217563   0.471   3.384   5.121
 5867TIP3   OH217564   1.170   3.569   4.749
 5867TIP3    H117565   1.235   3.559   4.819
 5867TIP3    H217566   1.221   3.600   4.674
 5868TIP3   OH217567   0.543   3.858   5.033
 5868TIP3    H117568   0.637   3.845   5.052
 5868TIP3    H217569   0.508   3.770   5.024
 5869TIP3   OH217570   1.806   3.857   5.303
 5869TIP3    H117571   1.716   3.890   5.294
 5869TIP3    H217572   1.834   3.888   5.389
 5870TIP3   OH217573   0.447   3.368   5.591
 5870TIP3    H117574   0.442   3.440   5.528
 5870TIP3    H217575   0.438   3.410   5.676
 5871TIP3   OH217576   0.783   4.325   4.576
 5871TIP3    H117577   0.769   4.291   4.488
 5871TIP3    H217578   0.868   4.370   4.572
 5872TIP3   OH217579   0.587   4.265   5.345
 5872TIP3    H117580   0.517   4.330   5.338
 5872TIP3    H217581   0.651   4.290   5.278
 5873TIP3   OH217582   1.356   3.587   4.945
 5873TIP3    H117583   1.399   3.513   4.988
 5873TIP3    H217584   1.402   3.664   4.979
 5874TIP3   OH217585   0.434   3.568   5.399
 5874TIP3    H117586   0.479   3.652   5.391
 5874TIP3    H217587   0.448   3.526   5.314
 5875TIP3   OH217588   1.212   4.648   4.932
 5875TIP3    H117589   1.123   4.641   4.967
 5875TIP3    H217590   1.214   4.732   4.887
 5876TIP3   OH217591   1.528   3.546   5.306
 5876TIP3    H117592   1.441   3.562   5.272
 5876TIP3    H217593   1.587   3.566   5.233
 5877TIP3   OH217594   0.824   3.154   5.274
 5877TIP3    H117595   0.826   3.062   5.300
 5877TIP3    H217596   0.748   3.190   5.319
 5878TIP3   OH217597   0.917   4.674   4.611
 5878TIP3    H117598   0.956   4.588   4.595
 5878TIP3    H217599   0.978   4.735   4.571
 5879TIP3   OH217600   1.034   4.433   4.548
 5879TIP3    H117601   1.077   4.381   4.480
 5879TIP3    H217602   1.086   4.418   4.627
 5880TIP3   OH217603   1.444   4.552   5.277
 5880TIP3    H117604   1.435   4.473   5.223
 5880TIP3    H217605   1.437   4.624   5.215
 5881TIP3   OH217606   0.755   3.940   4.540
 5881TIP3    H117607   0.671   3.976   4.513
 5881TIP3    H217608   0.805   3.932   4.459
 5882TIP3   OH217609   0.729   3.735   4.247
 5882TIP3    H117610   0.795   3.785   4.294
 5882TIP3    H217611   0.779   3.670   4.198
 5883TIP3   OH217612   1.633   4.198   5.142
 5883TIP3    H117613   1.550   4.247   5.143
 5883TIP3    H217614   1.669   4.213   5.054
 5884TIP3   OH217615   1.099   4.040   4.510
 5884TIP3    H117616   1.044   4.062   4.586
 5884TIP3    H217617   1.180   4.006   4.549
 5885TIP3   OH217618   1.328   4.054   5.443
 5885TIP3    H117619   1.331   4.136   5.493
 5885TIP3    H217620   1.244   4.059   5.395
 5886TIP3   OH217621   0.275   3.969   4.977
 5886TIP3    H117622   0.254   3.970   4.883
 5886TIP3    H217623   0.370   3.960   4.980
 5887TIP3   OH217624   0.510   4.442   5.117
 5887TIP3    H117625   0.517   4.506   5.046
 5887TIP3    H217626   0.592   4.393   5.112
 5888TIP3   OH217627   0.482   4.021   5.252
 5888TIP3    H117628   0.505   3.981   5.168
 5888TIP3    H217629   0.537   4.099   5.257
 5889TIP3   OH217630   0.969   4.645   5.056
 5889TIP3    H117631   0.963   4.722   5.113
 5889TIP3    H217632   0.971   4.571   5.116
 5890TIP3   OH217633   0.583   4.552   5.590
 5890TIP3    H117634   0.542   4.562   5.676
 5890TIP3    H217635   0.517   4.505   5.538
 5891TIP3   OH217636   0.940   3.894   4.340
 5891TIP3    H117637   0.999   3.950   4.390
 5891TIP3    H217638   0.964   3.909   4.249
 5892TIP3   OH217639   0.644   4.667   4.571
 5892TIP3    H117640   0.729   4.678   4.614
 5892TIP3    H217641   0.642   4.575   4.545
 5893TIP3   OH217642   1.437   3.116   4.391
 5893TIP3    H117643   1.360   3.136   4.445
 5893TIP3    H217644   1.451   3.196   4.341
 5894TIP3   OH217645   0.200   3.906   4.714
 5894TIP3    H117646   0.147   3.902   4.635
 5894TIP3    H217647   0.167   3.834   4.768
 5895TIP3   OH217648   1.263   4.495   3.948
 5895TIP3    H117649   1.264   4.588   3.924
 5895TIP3    H217650   1.352   4.465   3.932
 5896TIP3   OH217651   1.678   4.898   5.340
 5896TIP3    H117652   1.682   4.804   5.354
 5896TIP3    H217653   1.599   4.927   5.386
 5897TIP3   OH217654   0.794   4.673   5.459
 5897TIP3    H117655   0.793   4.766   5.482
 5897TIP3    H217656   0.716   4.637   5.502
 5898TIP3   OH217657   0.796   4.724   4.051
 5898TIP3    H117658   0.843   4.649   4.015
 5898TIP3    H217659   0.825   4.729   4.142
 5899TIP3   OH217660   0.820   4.761   4.332
 5899TIP3    H117661   0.755   4.740   4.398
 5899TIP3    H217662   0.903   4.763   4.379
 5900TIP3   OH217663   1.556   4.011   5.625
 5900TIP3    H117664   1.490   4.019   5.556
 5900TIP3    H217665   1.587   3.921   5.618
 5901TIP3   OH217666   0.591   3.225   5.402
 5901TIP3    H117667   0.508   3.205   5.358
 5901TIP3    H217668   0.569   3.291   5.467
 5902TIP3   OH217669   1.095   3.376   5.616
 5902TIP3    H117670   1.156   3.400   5.686
 5902TIP3    H217671   1.015   3.351   5.661
 5903TIP3   OH217672   1.333   3.795   5.546
 5903TIP3    H117673   1.298   3.799   5.635
 5903TIP3    H217674   1.320   3.883   5.511
 5904TIP3   OH217675   1.011   3.924   4.083
 5904TIP3    H117676   0.966   3.903   4.001
 5904TIP3    H217677   1.096   3.957   4.056
 5905TIP3   OH217678   0.726   3.301   4.396
 5905TIP3    H117679   0.698   3.303   4.488
 5905TIP3    H217680   0.699   3.215   4.365
 5906TIP3   OH217681   0.542   3.818   5.422
 5906TIP3    H117682   0.542   3.850   5.513
 5906TIP3    H217683   0.536   3.897   5.369
 5907TIP3   OH217684   0.411   3.632   4.976
 5907TIP3    H117685   0.342   3.596   5.032
 5907TIP3    H217686   0.404   3.582   4.895
 5908TIP3   OH217687   0.876   3.740   4.683
 5908TIP3    H117688   0.827   3.810   4.638
 5908TIP3    H217689   0.934   3.705   4.616
 5909TIP3   OH217690   1.075   4.045   5.792
 5909TIP3    H117691   1.050   3.964   5.838
 5909TIP3    H217692   1.170   4.051   5.804
 5910TIP3   OH217693   1.037   3.759   4.910
 5910TIP3    H117694   0.971   3.777   4.844
 5910TIP3    H217695   1.085   3.683   4.876
 5911TIP3   OH217696   0.419   3.916   5.686
 5911TIP3    H117697   0.334   3.929   5.645
 5911TIP3    H217698   0.419   3.824   5.713
 5912TIP3   OH217699   0.419   3.286   4.358
 5912TIP3    H117700   0.420   3.272   4.453
 5912TIP3    H217701   0.360   3.361   4.345
 5913TIP3   OH217702   1.049   4.010   5.338
 5913TIP3    H117703   1.083   3.946   5.276
 5913TIP3    H217704   1.025   3.959   5.415
 5914TIP3   OH217705   0.760   3.510   5.019
 5914TIP3    H117706   0.693   3.483   5.082
 5914TIP3    H217707   0.838   3.462   5.046
 5915TIP3   OH217708   0.096   3.451   4.965
 5915TIP3    H117709   0.044   3.398   4.904
 5915TIP3    H217710   0.174   3.398   4.982
 5916TIP3   OH217711   0.410   3.529   4.723
 5916TIP3    H117712   0.503   3.550   4.722
 5916TIP3    H217713   0.377   3.562   4.640
 5917TIP3   OH217714   1.231   3.569   5.235
 5917TIP3    H117715   1.185   3.575   5.319
 5917TIP3    H217716   1.189   3.497   5.190
 5918TIP3   OH217717   0.290   3.592   4.489
 5918TIP3    H117718   0.227   3.540   4.440
 5918TIP3    H217719   0.352   3.623   4.423
 5919TIP3   OH217720   1.390   5.261   5.432
 5919TIP3    H117721   1.385   5.281   5.338
 5919TIP3    H217722   1.470   5.304   5.461
 5920TIP3   OH217723   0.809   3.817   5.108
 5920TIP3    H117724   0.864   3.764   5.050
 5920TIP3    H217725   0.815   3.774   5.193
 5921TIP3   OH217726   0.336   3.318   4.997
 5921TIP3    H117727   0.330   3.231   5.037
 5921TIP3    H217728   0.357   3.300   4.905
 5922TIP3   OH217729   0.798   3.721   5.375
 5922TIP3    H117730   0.712   3.760   5.391
 5922TIP3    H217731   0.858   3.770   5.431
 5923TIP3   OH217732   0.520   4.084   4.462
 5923TIP3    H117733   0.464   4.007   4.467
 5923TIP3    H217734   0.530   4.113   4.553
 5924TIP3   OH217735   1.396   4.341   5.104
 5924TIP3    H117736   1.432   4.387   5.029
 5924TIP3    H217737   1.319   4.296   5.069
 5925TIP3   OH217738   0.973   3.409   4.370
 5925TIP3    H117739   0.881   3.385   4.380
 5925TIP3    H217740   0.977   3.501   4.397
 5926TIP3   OH217741   0.897   4.410   5.480
 5926TIP3    H117742   0.938   4.398   5.566
 5926TIP3    H217743   0.864   4.500   5.481
 5927TIP3   OH217744   1.036   3.662   4.465
 5927TIP3    H117745   1.131   3.660   4.476
 5927TIP3    H217746   1.020   3.740   4.412
 5928TIP3   OH217747   0.208   4.010   5.237
 5928TIP3    H117748   0.192   3.990   5.145
 5928TIP3    H217749   0.304   4.008   5.246
 5929TIP3   OH217750   0.681   4.248   4.317
 5929TIP3    H117751   0.644   4.334   4.335
 5929TIP3    H217752   0.625   4.188   4.367
 5930TIP3   OH217753   0.841   4.182   5.801
 5930TIP3    H117754   0.778   4.116   5.772
 5930TIP3    H217755   0.927   4.142   5.784
 5931TIP3   OH217756   1.063   4.713   5.387
 5931TIP3    H117757   0.969   4.692   5.395
 5931TIP3    H217758   1.088   4.743   5.474
 5932TIP3   OH217759   1.457   3.750   4.286
 5932TIP3    H117760   1.400   3.704   4.224
 5932TIP3    H217761   1.459   3.840   4.254
 5933TIP3   OH217762   1.694   4.614   5.378
 5933TIP3    H117763   1.600   4.597   5.370
 5933TIP3    H217764   1.730   4.584   5.295
 5934TIP3   OH217765   1.175   4.560   4.205
 5934TIP3    H117766   1.153   4.480   4.252
 5934TIP3    H217767   1.203   4.531   4.118
 5935TIP3   OH217768   1.165   4.201   5.001
 5935TIP3    H117769   1.076   4.175   5.023
 5935TIP3    H217770   1.206   4.121   4.966
 5936TIP3   OH217771   0.379   4.434   4.770
 5936TIP3    H117772   0.358   4.463   4.681
 5936TIP3    H217773   0.307   4.376   4.794
 5937TIP3   OH217774   0.524   4.194   4.705
 5937TIP3    H117775   0.557   4.282   4.725
 5937TIP3    H217776   0.429   4.202   4.711
 5938TIP3   OH217777   0.599   4.790   5.237
 5938TIP3    H117778   0.644   4.849   5.178
 5938TIP3    H217779   0.669   4.735   5.274
 5939TIP3   OH217780   0.990   4.420   5.221
 5939TIP3    H117781   0.966   4.408   5.313
 5939TIP3    H217782   1.064   4.362   5.207
 5940TIP3   OH217783   0.955   4.300   4.116
 5940TIP3    H117784   0.999   4.282   4.199
 5940TIP3    H217785   0.870   4.257   4.124
 5941TIP3   OH217786   1.205   4.937   5.277
 5941TIP3    H117787   1.137   4.870   5.285
 5941TIP3    H217788   1.182   4.985   5.197
 5942TIP3   OH217789   1.272   4.768   3.911
 5942TIP3    H117790   1.303   4.830   3.845
 5942TIP3    H217791   1.199   4.812   3.954
 5943TIP3   OH217792   0.348   3.619   5.856
 5943TIP3    H117793   0.259   3.637   5.826
 5943TIP3    H217794   0.336   3.559   5.930
 5944TIP3   OH217795   1.123   4.258   4.340
 5944TIP3    H117796   1.104   4.182   4.396
 5944TIP3    H217797   1.215   4.249   4.318
 5945TIP3   OH217798   0.365   4.260   4.089
 5945TIP3    H117799   0.394   4.181   4.044
 5945TIP3    H217800   0.371   4.239   4.182
 5946TIP3   OH217801   0.336   4.272   4.366
 5946TIP3    H117802   0.394   4.208   4.406
 5946TIP3    H217803   0.248   4.246   4.395
 5947TIP3   OH217804   1.128   3.616   5.487
 5947TIP3    H117805   1.214   3.649   5.513
 5947TIP3    H217806   1.119   3.533   5.534
 5948TIP3   OH217807   1.024   3.354   4.645
 5948TIP3    H117808   1.014   3.375   4.552
 5948TIP3    H217809   1.069   3.431   4.682
 5949TIP3   OH217810   0.575   4.494   4.366
 5949TIP3    H117811   0.505   4.531   4.420
 5949TIP3    H217812   0.598   4.565   4.305
 5950TIP3   OH217813   0.683   3.560   4.760
 5950TIP3    H117814   0.746   3.625   4.728
 5950TIP3    H217815   0.709   3.544   4.850
 5951TIP3   OH217816   0.984   3.843   5.545
 5951TIP3    H117817   1.012   3.871   5.632
 5951TIP3    H217818   1.033   3.761   5.530
 5952TIP3   OH217819   0.861   3.249   4.839
 5952TIP3    H117820   0.894   3.287   4.920
 5952TIP3    H217821   0.919   3.283   4.771
 5953TIP3   OH217822   0.311   4.597   4.484
 5953TIP3    H117823   0.308   4.586   4.389
 5953TIP3    H217824   0.242   4.661   4.503
 5954TIP3   OH217825   0.401   3.225   4.618
 5954TIP3    H117826   0.346   3.286   4.668
 5954TIP3    H217827   0.491   3.246   4.646
 5955TIP3   OH217828   1.599   3.744   5.520
 5955TIP3    H117829   1.504   3.749   5.535
 5955TIP3    H217830   1.609   3.684   5.447
 5956TIP3   OH217831   1.258   3.949   4.909
 5956TIP3    H117832   1.184   3.890   4.921
 5956TIP3    H217833   1.329   3.908   4.958
 5957TIP3   OH217834   1.239   4.913   4.850
 5957TIP3    H117835   1.198   4.959   4.777
 5957TIP3    H217836   1.333   4.928   4.839
 5958TIP3   OH217837   0.321   3.177   5.347
 5958TIP3    H117838   0.308   3.131   5.264
 5958TIP3    H217839   0.329   3.108   5.412
 5959TIP3   OH217840   0.601   4.938   5.865
 5959TIP3    H117841   0.660   4.863   5.871
 5959TIP3    H217842   0.518   4.900   5.838
 5960TIP3   OH217843   0.524   4.467   4.008
 5960TIP3    H117844   0.476   4.391   4.041
 5960TIP3    H217845   0.597   4.429   3.960
 5961TIP3   OH217846   1.150   4.783   5.645
 5961TIP3    H117847   1.208   4.707   5.652
 5961TIP3    H217848   1.207   4.859   5.657
 5962TIP3   OH217849   0.911   4.506   3.934
 5962TIP3    H117850   0.948   4.442   3.995
 5962TIP3    H217851   0.971   4.504   3.859
 5963TIP3   OH217852   0.177   4.039   4.327
 5963TIP3    H117853   0.231   4.001   4.397
 5963TIP3    H217854   0.192   3.981   4.252
 5964TIP3   OH217855   0.765   4.442   5.784
 5964TIP3    H117856   0.723   4.444   5.698
 5964TIP3    H217857   0.796   4.352   5.793
 5965TIP3   OH217858   0.684   4.187   4.052
 5965TIP3    H117859   0.675   4.199   4.146
 5965TIP3    H217860   0.670   4.093   4.039
 5966TIP3   OH217861   1.230   4.490   5.438
 5966TIP3    H117862   1.310   4.510   5.389
 5966TIP3    H217863   1.165   4.552   5.405
 5967TIP3   OH217864   0.346   3.879   4.460
 5967TIP3    H117865   0.349   3.830   4.542
 5967TIP3    H217866   0.379   3.818   4.394
 5968TIP3   OH217867   0.675   3.992   5.704
 5968TIP3    H117868   0.580   3.983   5.705
 5968TIP3    H217869   0.697   4.012   5.613
 5969TIP3   OH217870   0.461   3.689   4.298
 5969TIP3    H117871   0.438   3.676   4.206
 5969TIP3    H217872   0.557   3.699   4.298
 5970TIP3   OH217873   1.241   4.017   3.962
 5970TIP3    H117874   1.225   3.971   3.880
 5970TIP3    H217875   1.213   4.107   3.946
 5971TIP3   OH217876   0.724   3.757   5.832
 5971TIP3    H117877   0.702   3.686   5.772
 5971TIP3    H217878   0.712   3.836   5.780
 5972TIP3   OH217879   0.756   3.525   5.582
 5972TIP3    H117880   0.790   3.570   5.505
 5972TIP3    H217881   0.671   3.566   5.597
 5973TIP3   OH217882   0.742   4.063   5.453
 5973TIP3    H117883   0.832   4.071   5.423
 5973TIP3    H217884   0.699   4.142   5.421
 5974TIP3   OH217885   1.352   4.026   5.853
 5974TIP3    H117886   1.341   3.931   5.847
 5974TIP3    H217887   1.429   4.045   5.801
 5975TIP3   OH217888   1.358   4.293   5.579
 5975TIP3    H117889   1.304   4.358   5.533
 5975TIP3    H217890   1.447   4.312   5.551
 5976TIP3   OH217891   0.587   3.839   6.066
 5976TIP3    H117892   0.504   3.793   6.078
 5976TIP3    H217893   0.615   3.816   5.977
 5977TIP3   OH217894   0.844   3.301   5.707
 5977TIP3    H117895   0.810   3.378   5.662
 5977TIP3    H217896   0.778   3.233   5.689
 5978TIP3   OH217897   0.978   3.822   5.916
 5978TIP3    H117898   0.983   3.793   6.008
 5978TIP3    H217899   0.894   3.789   5.886
 5979TIP3   OH217900   1.221   3.773   5.793
 5979TIP3    H117901   1.139   3.779   5.842
 5979TIP3    H217902   1.249   3.682   5.807
 5980TIP3   OH217903   1.498   3.676   5.932
 5980TIP3    H117904   1.442   3.603   5.906
 5980TIP3    H217905   1.464   3.702   6.018
 5981TIP3   OH217906   5.325   0.163   0.130
 5981TIP3    H117907   5.331   0.080   0.083
 5981TIP3    H217908   5.388   0.154   0.202
 5982TIP3   OH217909   0.919   3.296   5.968
 5982TIP3    H117910   1.003   3.251   5.959
 5982TIP3    H217911   0.886   3.301   5.878
 5983TIP3   OH217912   5.928   0.028   0.082
 5983TIP3    H117913   5.929  -0.030   0.006
 5983TIP3    H217914   5.859   0.091   0.063
 5984TIP3   OH217915   0.338   4.819   4.290
 5984TIP3    H117916   0.412   4.781   4.242
 5984TIP3    H217917   0.268   4.825   4.226
 5985TIP3   OH217918   1.502   4.987   4.835
 5985TIP3    H117919   1.528   5.018   4.921
 5985TIP3    H217920   1.564   5.028   4.774
 5986TIP3   OH217921   1.522   5.012   5.119
 5986TIP3    H117922   1.475   4.929   5.108
 5986TIP3    H217923   1.593   4.992   5.179
 5987TIP3   OH217924   1.507   4.742   5.678
 5987TIP3    H117925   1.523   4.670   5.739
 5987TIP3    H217926   1.586   4.796   5.683
 5988TIP3   OH217927   1.395   4.218   4.303
 5988TIP3    H117928   1.462   4.278   4.270
 5988TIP3    H217929   1.436   4.177   4.380
 5989TIP3   OH217930   1.520   4.079   4.507
 5989TIP3    H117931   1.456   4.034   4.563
 5989TIP3    H217932   1.587   4.110   4.568
 5990TIP3   OH217933   1.565   4.477   4.932
 5990TIP3    H117934   1.621   4.407   4.897
 5990TIP3    H217935   1.570   4.547   4.867
 5991TIP3   OH217936   1.383   4.771   5.119
 5991TIP3    H117937   1.313   4.806   5.174
 5991TIP3    H217938   1.337   4.724   5.049
 5992TIP3   OH217939   1.440   3.991   4.150
 5992TIP3    H117940   1.370   3.989   4.085
 5992TIP3    H217941   1.420   4.067   4.205
 5993TIP3   OH217942   1.298   3.654   4.084
 5993TIP3    H117943   1.254   3.682   4.004
 5993TIP3    H217944   1.288   3.559   4.086
 5994TIP3   OH217945   1.321   3.930   4.639
 5994TIP3    H117946   1.331   3.836   4.628
 5994TIP3    H217947   1.305   3.942   4.732
 5995TIP3   OH217948   1.609   4.360   5.505
 5995TIP3    H117949   1.674   4.290   5.503
 5995TIP3    H217950   1.658   4.438   5.480
 5996TIP3   OH217951   1.768   4.133   5.489
 5996TIP3    H117952   1.701   4.097   5.548
 5996TIP3    H217953   1.848   4.086   5.513
 5997TIP3   OH217954   1.254   3.386   4.076
 5997TIP3    H117955   1.325   3.353   4.131
 5997TIP3    H217956   1.178   3.332   4.098
 5998TIP3   OH217957   1.321   3.651   4.522
 5998TIP3    H117958   1.362   3.567   4.541
 5998TIP3    H217959   1.371   3.687   4.449
 5999TIP3   OH217960   1.475   3.827   5.035
 5999TIP3    H117961   1.556   3.846   4.989
 5999TIP3    H217962   1.489   3.858   5.124
 6000TIP3   OH217963   1.548   3.967   5.267
 6000TIP3    H117964   1.475   3.996   5.322
 6000TIP3    H217965   1.582   4.048   5.229
 6001TIP3   OH217966   2.035   3.590   5.816
 6001TIP3    H117967   2.082   3.519   5.772
 6001TIP3    H217968   1.978   3.627   5.748
 6002TIP3   OH217969   1.425   3.402   4.586
 6002TIP3    H117970   1.473   3.390   4.668
 6002TIP3    H217971   1.367   3.326   4.581
 6003TIP3   OH217972   0.204   3.415   5.427
 6003TIP3    H117973   0.253   3.335   5.409
 6003TIP3    H217974   0.266   3.486   5.412
 6004TIP3   OH217975   1.859   3.686   5.628
 6004TIP3    H117976   1.776   3.729   5.650
 6004TIP3    H217977   1.834   3.615   5.569
 6005TIP3   OH217978   1.487   3.325   4.215
 6005TIP3    H117979   1.530   3.259   4.160
 6005TIP3    H217980   1.551   3.395   4.222
 6006TIP3   OH217981   1.059   4.859   4.475
 6006TIP3    H117982   1.120   4.855   4.401
 6006TIP3    H217983   1.095   4.927   4.532
 6007TIP3   OH217984   0.814   4.938   5.530
 6007TIP3    H117985   0.851   4.930   5.618
 6007TIP3    H217986   0.877   4.991   5.481
 6008TIP3   OH217987   0.985   5.108   5.398
 6008TIP3    H117988   1.053   5.060   5.351
 6008TIP3    H217989   1.033   5.164   5.459
 6009TIP3   OH217990   1.766   3.452   5.496
 6009TIP3    H117991   1.676   3.439   5.465
 6009TIP3    H217992   1.804   3.364   5.497
 6010TIP3   OH217993   0.696   5.003   5.067
 6010TIP3    H117994   0.691   5.047   4.982
 6010TIP3    H217995   0.699   5.074   5.131
 6011TIP3   OH217996   0.946   4.909   5.142
 6011TIP3    H117997   0.858   4.934   5.114
 6011TIP3    H217998   1.004   4.971   5.099
 6012TIP3   OH217999   1.145   5.080   5.047
 6012TIP3    H118000   1.144   5.168   5.009
 6012TIP3    H218001   1.179   5.024   4.977
 6013TIP3   OH218002   0.343   4.684   5.176
 6013TIP3    H118003   0.377   4.603   5.138
 6013TIP3    H218004   0.421   4.737   5.194
 6014TIP3   OH218005   0.960   3.331   5.087
 6014TIP3    H118006   0.935   3.270   5.156
 6014TIP3    H218007   1.048   3.303   5.061
 6015TIP3   OH218008   1.477   3.320   5.045
 6015TIP3    H118009   1.520   3.325   4.960
 6015TIP3    H218010   1.392   3.280   5.026
 6016TIP3   OH218011   1.597   3.370   4.800
 6016TIP3    H118012   1.660   3.304   4.773
 6016TIP3    H218013   1.639   3.454   4.778
 6017TIP3   OH218014   0.301   3.065   5.086
 6017TIP3    H118015   0.246   3.026   5.018
 6017TIP3    H218016   0.361   2.995   5.112
 6018TIP3   OH218017   0.116   2.980   4.900
 6018TIP3    H118018   0.138   2.969   4.808
 6018TIP3    H218019   0.023   3.004   4.900
 6019TIP3   OH218020   0.682   3.124   5.025
 6019TIP3    H118021   0.736   3.166   4.958
 6019TIP3    H218022   0.729   3.140   5.107
 6020TIP3   OH218023   1.205   3.232   4.996
 6020TIP3    H118024   1.252   3.198   4.919
 6020TIP3    H218025   1.197   3.157   5.054
 6021TIP3   OH218026   1.241   3.188   4.575
 6021TIP3    H118027   1.162   3.236   4.600
 6021TIP3    H218028   1.236   3.105   4.623
 6022TIP3   OH218029   0.193   3.049   4.598
 6022TIP3    H118030   0.222   3.000   4.521
 6022TIP3    H218031   0.263   3.111   4.616
 6023TIP3   OH218032   0.655   3.308   4.664
 6023TIP3    H118033   0.716   3.262   4.721
 6023TIP3    H218034   0.663   3.400   4.688
 6024TIP3   OH218035   0.543   4.689   4.160
 6024TIP3    H118036   0.615   4.748   4.138
 6024TIP3    H218037   0.544   4.623   4.091
 6025TIP3   OH218038   1.216   4.829   4.250
 6025TIP3    H118039   1.209   4.734   4.238
 6025TIP3    H218040   1.178   4.866   4.170
 6026TIP3   OH218041   2.908   6.890   0.017
 6026TIP3    H118042   2.885   6.814   0.071
 6026TIP3    H218043   3.003   6.895   0.021
 6027TIP3   OH218044   3.173   6.882   0.084
 6027TIP3    H118045   3.249   6.856   0.032
 6027TIP3    H218046   3.168   6.815   0.153
 6028TIP3   OH218047   1.430   4.990   5.430
 6028TIP3    H118048   1.357   4.959   5.377
 6028TIP3    H218049   1.421   5.086   5.428
 6029TIP3   OH218050   2.712   4.366   4.182
 6029TIP3    H118051   2.671   4.450   4.160
 6029TIP3    H218052   2.645   4.300   4.161
 6030TIP3   OH218053   2.700   4.349   4.604
 6030TIP3    H118054   2.752   4.332   4.683
 6030TIP3    H218055   2.664   4.264   4.580
 6031TIP3   OH218056   2.007   4.244   4.945
 6031TIP3    H118057   2.024   4.172   5.004
 6031TIP3    H218058   2.084   4.301   4.953
 6032TIP3   OH218059   2.966   4.660   4.273
 6032TIP3    H118060   2.951   4.593   4.339
 6032TIP3    H218061   2.992   4.738   4.323
 6033TIP3   OH218062   1.988   4.638   4.647
 6033TIP3    H118063   1.975   4.544   4.658
 6033TIP3    H218064   2.083   4.648   4.639
 6034TIP3   OH218065   1.689   3.878   4.394
 6034TIP3    H118066   1.645   3.953   4.434
 6034TIP3    H218067   1.620   3.814   4.380
 6035TIP3   OH218068   1.757   4.148   4.645
 6035TIP3    H118069   1.803   4.066   4.665
 6035TIP3    H218070   1.826   4.208   4.619
 6036TIP3   OH218071   2.623   5.099   4.285
 6036TIP3    H118072   2.653   5.033   4.222
 6036TIP3    H218073   2.621   5.053   4.369
 6037TIP3   OH218074   2.511   4.575   4.612
 6037TIP3    H118075   2.552   4.493   4.585
 6037TIP3    H218076   2.584   4.631   4.638
 6038TIP3   OH218077   3.534   3.896   4.621
 6038TIP3    H118078   3.557   3.980   4.660
 6038TIP3    H218079   3.558   3.905   4.529
 6039TIP3   OH218080   2.935   4.074   4.655
 6039TIP3    H118081   2.967   3.986   4.675
 6039TIP3    H218082   2.884   4.064   4.575
 6040TIP3   OH218083   2.252   3.720   4.600
 6040TIP3    H118084   2.243   3.788   4.533
 6040TIP3    H218085   2.220   3.641   4.557
 6041TIP3   OH218086   2.978   3.836   4.242
 6041TIP3    H118087   3.044   3.832   4.311
 6041TIP3    H218088   2.967   3.930   4.226
 6042TIP3   OH218089   1.898   3.921   4.716
 6042TIP3    H118090   1.981   3.903   4.760
 6042TIP3    H218091   1.900   3.866   4.637
 6043TIP3   OH218092   2.326   4.135   4.534
 6043TIP3    H118093   2.418   4.110   4.546
 6043TIP3    H218094   2.288   4.062   4.485
 6044TIP3   OH218095   3.600   4.115   4.791
 6044TIP3    H118096   3.513   4.151   4.776
 6044TIP3    H218097   3.620   4.134   4.882
 6045TIP3   OH218098   2.255   3.728   5.059
 6045TIP3    H118099   2.204   3.757   4.984
 6045TIP3    H218100   2.199   3.743   5.134
 6046TIP3   OH218101   2.560   4.567   4.071
 6046TIP3    H118102   2.549   4.556   3.976
 6046TIP3    H218103   2.524   4.654   4.089
 6047TIP3   OH218104   2.364   4.504   4.835
 6047TIP3    H118105   2.305   4.572   4.868
 6047TIP3    H218106   2.409   4.545   4.762
 6048TIP3   OH218107   3.155   3.848   4.448
 6048TIP3    H118108   3.124   3.810   4.530
 6048TIP3    H218109   3.207   3.924   4.474
 6049TIP3   OH218110   2.138   3.830   4.827
 6049TIP3    H118111   2.197   3.902   4.848
 6049TIP3    H218112   2.180   3.786   4.752
 6050TIP3   OH218113   2.192   4.700   4.936
 6050TIP3    H118114   2.174   4.788   4.905
 6050TIP3    H218115   2.117   4.678   4.991
 6051TIP3   OH218116   1.593   4.380   4.182
 6051TIP3    H118117   1.558   4.396   4.094
 6051TIP3    H218118   1.614   4.468   4.215
 6052TIP3   OH218119   3.015   4.906   4.422
 6052TIP3    H118120   2.928   4.897   4.460
 6052TIP3    H218121   3.013   4.989   4.375
 6053TIP3   OH218122   3.321   3.812   4.792
 6053TIP3    H118123   3.235   3.827   4.755
 6053TIP3    H218124   3.382   3.831   4.721
 6054TIP3   OH218125   2.619   3.434   4.800
 6054TIP3    H118126   2.597   3.341   4.798
 6054TIP3    H218127   2.539   3.477   4.829
 6055TIP3   OH218128   2.716   4.937   4.077
 6055TIP3    H118129   2.764   4.855   4.064
 6055TIP3    H218130   2.776   5.005   4.047
 6056TIP3   OH218131   2.864   4.715   4.019
 6056TIP3    H118132   2.870   4.638   3.962
 6056TIP3    H218133   2.901   4.688   4.102
 6057TIP3   OH218134   3.249   4.800   4.766
 6057TIP3    H118135   3.232   4.725   4.709
 6057TIP3    H218136   3.233   4.877   4.711
 6058TIP3   OH218137   2.528   4.207   4.035
 6058TIP3    H118138   2.455   4.263   4.009
 6058TIP3    H218139   2.581   4.198   3.956
 6059TIP3   OH218140   2.497   3.998   3.734
 6059TIP3    H118141   2.562   4.048   3.783
 6059TIP3    H218142   2.547   3.930   3.688
 6060TIP3   OH218143   3.435   4.460   4.625
 6060TIP3    H118144   3.350   4.504   4.625
 6060TIP3    H218145   3.469   4.474   4.537
 6061TIP3   OH218146   2.895   4.285   3.994
 6061TIP3    H118147   2.839   4.312   4.067
 6061TIP3    H218148   2.975   4.254   4.035
 6062TIP3   OH218149   3.122   4.323   4.928
 6062TIP3    H118150   3.117   4.405   4.978
 6062TIP3    H218151   3.039   4.319   4.880
 6063TIP3   OH218152   2.253   4.693   4.547
 6063TIP3    H118153   2.233   4.678   4.455
 6063TIP3    H218154   2.340   4.656   4.559
 6064TIP3   OH218155   2.253   4.260   4.767
 6064TIP3    H118156   2.287   4.225   4.684
 6064TIP3    H218157   2.302   4.340   4.782
 6065TIP3   OH218158   2.776   4.900   4.550
 6065TIP3    H118159   2.765   4.977   4.606
 6065TIP3    H218160   2.764   4.825   4.610
 6066TIP3   OH218161   2.393   4.806   5.097
 6066TIP3    H118162   2.333   4.864   5.144
 6066TIP3    H218163   2.336   4.752   5.042
 6067TIP3   OH218164   2.706   4.158   3.830
 6067TIP3    H118165   2.778   4.192   3.883
 6067TIP3    H218166   2.740   4.160   3.740
 6068TIP3   OH218167   2.148   4.368   5.196
 6068TIP3    H118168   2.154   4.453   5.241
 6068TIP3    H218169   2.057   4.340   5.210
 6069TIP3   OH218170   2.462   4.829   4.092
 6069TIP3    H118171   2.549   4.869   4.095
 6069TIP3    H218172   2.410   4.890   4.039
 6070TIP3   OH218173   2.182   4.967   5.180
 6070TIP3    H118174   2.157   4.973   5.088
 6070TIP3    H218175   2.100   4.950   5.226
 6071TIP3   OH218176   3.054   4.751   3.434
 6071TIP3    H118177   3.054   4.845   3.413
 6071TIP3    H218178   3.143   4.722   3.415
 6072TIP3   OH218179   1.770   4.511   5.136
 6072TIP3    H118180   1.702   4.489   5.073
 6072TIP3    H218181   1.806   4.427   5.164
 6073TIP3   OH218182   1.631   4.699   4.765
 6073TIP3    H118183   1.726   4.697   4.757
 6073TIP3    H218184   1.614   4.776   4.820
 6074TIP3   OH218185   3.480   5.165   4.825
 6074TIP3    H118186   3.486   5.070   4.835
 6074TIP3    H218187   3.400   5.189   4.872
 6075TIP3   OH218188   2.584   4.943   4.954
 6075TIP3    H118189   2.579   5.034   4.983
 6075TIP3    H218190   2.517   4.898   5.005
 6076TIP3   OH218191   2.360   5.050   3.911
 6076TIP3    H118192   2.316   5.030   3.828
 6076TIP3    H218193   2.325   5.135   3.937
 6077TIP3   OH218194   1.794   4.903   4.292
 6077TIP3    H118195   1.839   4.894   4.375
 6077TIP3    H218196   1.746   4.820   4.281
 6078TIP3   OH218197   2.562   4.972   3.539
 6078TIP3    H118198   2.613   4.899   3.503
 6078TIP3    H218199   2.598   4.985   3.627
 6079TIP3   OH218200   2.614   5.020   3.809
 6079TIP3    H118201   2.528   5.024   3.851
 6079TIP3    H218202   2.672   4.983   3.875
 6080TIP3   OH218203   3.366   4.278   5.094
 6080TIP3    H118204   3.286   4.288   5.043
 6080TIP3    H218205   3.386   4.184   5.089
 6081TIP3   OH218206   1.975   4.694   5.107
 6081TIP3    H118207   2.024   4.681   5.188
 6081TIP3    H218208   1.902   4.632   5.113
 6082TIP3   OH218209   2.367   3.516   4.912
 6082TIP3    H118210   2.283   3.483   4.881
 6082TIP3    H218211   2.346   3.597   4.959
 6083TIP3   OH218212   2.901   3.637   5.109
 6083TIP3    H118213   2.968   3.609   5.171
 6083TIP3    H218214   2.818   3.614   5.151
 6084TIP3   OH218215   3.136   4.062   5.030
 6084TIP3    H118216   3.089   4.060   5.114
 6084TIP3    H218217   3.112   4.146   4.992
 6085TIP3   OH218218   2.801   4.160   3.573
 6085TIP3    H118219   2.762   4.143   3.487
 6085TIP3    H218220   2.885   4.202   3.553
 6086TIP3   OH218221   2.294   4.039   4.923
 6086TIP3    H118222   2.241   4.050   5.001
 6086TIP3    H218223   2.278   4.118   4.871
 6087TIP3   OH218224   2.182   3.915   4.411
 6087TIP3    H118225   2.095   3.907   4.449
 6087TIP3    H218226   2.187   3.844   4.347
 6088TIP3   OH218227   2.701   4.027   4.164
 6088TIP3    H118228   2.635   4.082   4.122
 6088TIP3    H218229   2.689   3.940   4.124
 6089TIP3   OH218230   2.847   4.272   5.250
 6089TIP3    H118231   2.820   4.201   5.308
 6089TIP3    H218232   2.940   4.284   5.268
 6090TIP3   OH218233   2.842   4.033   4.399
 6090TIP3    H118234   2.782   4.060   4.330
 6090TIP3    H218235   2.849   3.938   4.390
 6091TIP3   OH218236   2.115   4.058   5.133
 6091TIP3    H118237   2.137   4.118   5.203
 6091TIP3    H218238   2.103   3.973   5.177
 6092TIP3   OH218239   2.148   3.512   3.887
 6092TIP3    H118240   2.146   3.513   3.983
 6092TIP3    H218241   2.083   3.578   3.861
 6093TIP3   OH218242   1.734   3.586   4.704
 6093TIP3    H118243   1.802   3.617   4.764
 6093TIP3    H218244   1.782   3.550   4.630
 6094TIP3   OH218245   1.653   3.551   4.233
 6094TIP3    H118246   1.714   3.583   4.167
 6094TIP3    H218247   1.594   3.625   4.249
 6095TIP3   OH218248   2.862   4.272   4.822
 6095TIP3    H118249   2.892   4.206   4.760
 6095TIP3    H218250   2.822   4.221   4.893
 6096TIP3   OH218251   2.542   3.806   4.550
 6096TIP3    H118252   2.462   3.759   4.573
 6096TIP3    H218253   2.613   3.744   4.565
 6097TIP3   OH218254   1.942   3.785   4.475
 6097TIP3    H118255   1.856   3.800   4.435
 6097TIP3    H218256   1.989   3.730   4.412
 6098TIP3   OH218257   3.004   3.809   4.709
 6098TIP3    H118258   2.976   3.828   4.799
 6098TIP3    H218259   2.937   3.750   4.675
 6099TIP3   OH218260   1.962   3.894   3.960
 6099TIP3    H118261   1.934   3.803   3.948
 6099TIP3    H218262   2.043   3.901   3.909
 6100TIP3   OH218263   3.189   5.506   4.923
 6100TIP3    H118264   3.185   5.523   4.829
 6100TIP3    H218265   3.268   5.552   4.952
 6101TIP3   OH218266   2.126   4.613   5.343
 6101TIP3    H118267   2.207   4.633   5.389
 6101TIP3    H218268   2.061   4.603   5.412
 6102TIP3   OH218269   2.592   4.074   4.611
 6102TIP3    H118270   2.597   3.995   4.558
 6102TIP3    H218271   2.590   4.042   4.701
 6103TIP3   OH218272   2.563   3.981   4.882
 6103TIP3    H118273   2.474   4.012   4.900
 6103TIP3    H218274   2.619   4.040   4.932
 6104TIP3   OH218275   2.287   4.362   3.968
 6104TIP3    H118276   2.219   4.297   3.951
 6104TIP3    H218277   2.271   4.390   4.059
 6105TIP3   OH218278   3.195   4.593   4.591
 6105TIP3    H118279   3.227   4.642   4.514
 6105TIP3    H218280   3.114   4.553   4.562
 6106TIP3   OH218281   2.708   4.678   4.983
 6106TIP3    H118282   2.749   4.663   5.069
 6106TIP3    H218283   2.666   4.763   4.991
 6107TIP3   OH218284   1.988   4.341   4.672
 6107TIP3    H118285   2.072   4.317   4.633
 6107TIP3    H218286   1.994   4.310   4.763
 6108TIP3   OH218287   2.455   4.507   3.810
 6108TIP3    H118288   2.409   4.591   3.810
 6108TIP3    H218289   2.400   4.450   3.864
 6109TIP3   OH218290   1.887   4.295   5.267
 6109TIP3    H118291   1.924   4.295   5.355
 6109TIP3    H218292   1.815   4.232   5.271
 6110TIP3   OH218293   2.610   4.418   5.284
 6110TIP3    H118294   2.542   4.360   5.250
 6110TIP3    H218295   2.693   4.379   5.256
 6111TIP3   OH218296   2.858   4.956   4.875
 6111TIP3    H118297   2.763   4.943   4.882
 6111TIP3    H218298   2.882   4.997   4.958
 6112TIP3   OH218299   3.321   4.039   3.804
 6112TIP3    H118300   3.293   3.954   3.770
 6112TIP3    H218301   3.285   4.103   3.742
 6113TIP3   OH218302   3.496   4.885   4.852
 6113TIP3    H118303   3.402   4.869   4.852
 6113TIP3    H218304   3.527   4.850   4.769
 6114TIP3   OH218305   2.981   4.823   3.696
 6114TIP3    H118306   2.952   4.750   3.752
 6114TIP3    H218307   2.999   4.782   3.611
 6115TIP3   OH218308   2.960   4.460   4.497
 6115TIP3    H118309   2.870   4.435   4.515
 6115TIP3    H218310   3.000   4.380   4.461
 6116TIP3   OH218311   2.120   4.688   4.293
 6116TIP3    H118312   2.124   4.764   4.235
 6116TIP3    H218313   2.027   4.674   4.308
 6117TIP3   OH218314   1.672   3.996   4.010
 6117TIP3    H118315   1.639   4.057   3.944
 6117TIP3    H218316   1.599   3.984   4.070
 6118TIP3   OH218317   2.222   4.438   4.220
 6118TIP3    H118318   2.194   4.526   4.243
 6118TIP3    H218319   2.278   4.411   4.294
 6119TIP3   OH218320   2.392   5.019   4.750
 6119TIP3    H118321   2.430   5.091   4.699
 6119TIP3    H218322   2.466   4.983   4.799
 6120TIP3   OH218323   2.027   4.920   4.141
 6120TIP3    H118324   1.941   4.925   4.183
 6120TIP3    H218325   2.061   5.009   4.144
 6121TIP3   OH218326   2.754   4.672   4.712
 6121TIP3    H118327   2.743   4.668   4.807
 6121TIP3    H218328   2.824   4.610   4.693
 6122TIP3   OH218329   2.744   4.559   3.603
 6122TIP3    H118330   2.794   4.540   3.683
 6122TIP3    H218331   2.659   4.517   3.617
 6123TIP3   OH218332   3.007   5.185   4.761
 6123TIP3    H118333   2.934   5.124   4.769
 6123TIP3    H218334   2.982   5.243   4.689
 6124TIP3   OH218335   3.064   5.026   3.401
 6124TIP3    H118336   3.094   5.091   3.337
 6124TIP3    H218337   2.990   5.068   3.445
 6125TIP3   OH218338   2.081   3.806   5.264
 6125TIP3    H118339   1.986   3.813   5.270
 6125TIP3    H218340   2.106   3.749   5.337
 6126TIP3   OH218341   2.912   4.505   3.822
 6126TIP3    H118342   2.894   4.428   3.877
 6126TIP3    H218343   3.004   4.496   3.799
 6127TIP3   OH218344   1.816   4.900   4.913
 6127TIP3    H118345   1.865   4.833   4.961
 6127TIP3    H218346   1.839   4.982   4.956
 6128TIP3   OH218347   2.093   4.527   3.599
 6128TIP3    H118348   2.104   4.436   3.571
 6128TIP3    H218349   2.076   4.521   3.693
 6129TIP3   OH218350   2.043   4.536   3.874
 6129TIP3    H118351   2.126   4.511   3.914
 6129TIP3    H218352   2.042   4.632   3.880
 6130TIP3   OH218353   1.827   4.214   4.098
 6130TIP3    H118354   1.760   4.250   4.156
 6130TIP3    H218355   1.849   4.285   4.039
 6131TIP3   OH218356   2.931   3.875   4.972
 6131TIP3    H118357   3.015   3.909   5.003
 6131TIP3    H218358   2.919   3.793   5.020
 6132TIP3   OH218359   2.307   4.733   3.815
 6132TIP3    H118360   2.222   4.758   3.852
 6132TIP3    H218361   2.330   4.805   3.756
 6133TIP3   OH218362   2.773   4.107   5.021
 6133TIP3    H118363   2.801   4.144   5.105
 6133TIP3    H218364   2.821   4.024   5.014
 6134TIP3   OH218365   2.053   4.811   3.889
 6134TIP3    H118366   2.031   4.881   3.827
 6134TIP3    H218367   2.042   4.851   3.975
 6135TIP3   OH218368   3.397   4.001   5.006
 6135TIP3    H118369   3.304   4.013   5.022
 6135TIP3    H218370   3.401   3.943   4.930
 6136TIP3   OH218371   3.058   4.211   4.406
 6136TIP3    H118372   2.980   4.155   4.413
 6136TIP3    H218373   3.125   4.165   4.459
 6137TIP3   OH218374   1.793   4.409   3.885
 6137TIP3    H118375   1.861   4.477   3.890
 6137TIP3    H218376   1.824   4.348   3.819
 6138TIP3   OH218377   1.713   3.712   4.007
 6138TIP3    H118378   1.674   3.800   4.006
 6138TIP3    H218379   1.658   3.662   3.947
 6139TIP3   OH218380   3.034   5.175   4.340
 6139TIP3    H118381   2.990   5.223   4.270
 6139TIP3    H218382   3.127   5.189   4.324
 6140TIP3   OH218383   2.101   3.435   4.888
 6140TIP3    H118384   2.069   3.405   4.803
 6140TIP3    H218385   2.094   3.359   4.945
 6141TIP3   OH218386   1.628   4.662   4.260
 6141TIP3    H118387   1.580   4.696   4.335
 6141TIP3    H218388   1.589   4.707   4.184
 6142TIP3   OH218389   1.819   5.213   5.334
 6142TIP3    H118390   1.902   5.220   5.382
 6142TIP3    H218391   1.806   5.118   5.321
 6143TIP3   OH218392   2.284   5.139   5.370
 6143TIP3    H118393   2.377   5.116   5.381
 6143TIP3    H218394   2.254   5.081   5.300
 6144TIP3   OH218395   2.255   4.728   3.498
 6144TIP3    H118396   2.207   4.656   3.538
 6144TIP3    H218397   2.329   4.686   3.455
 6145TIP3   OH218398   2.911   5.068   5.121
 6145TIP3    H118399   2.919   4.998   5.185
 6145TIP3    H218400   2.987   5.124   5.137
 6146TIP3   OH218401   2.694   4.763   3.420
 6146TIP3    H118402   2.728   4.699   3.482
 6146TIP3    H218403   2.752   4.757   3.344
 6147TIP3   OH218404   1.924   4.611   5.544
 6147TIP3    H118405   1.921   4.535   5.601
 6147TIP3    H218406   1.841   4.607   5.495
 6148TIP3   OH218407   1.917   4.220   3.733
 6148TIP3    H118408   1.977   4.197   3.805
 6148TIP3    H218409   1.974   4.232   3.657
 6149TIP3   OH218410   2.544   4.695   5.301
 6149TIP3    H118411   2.500   4.714   5.218
 6149TIP3    H218412   2.577   4.605   5.290
 6150TIP3   OH218413   2.460   4.444   3.543
 6150TIP3    H118414   2.450   4.457   3.637
 6150TIP3    H218415   2.455   4.349   3.532
 6151TIP3   OH218416   3.028   4.730   4.920
 6151TIP3    H118417   3.104   4.760   4.870
 6151TIP3    H218418   2.960   4.793   4.899
 6152TIP3   OH218419   2.027   4.313   5.505
 6152TIP3    H118420   2.117   4.305   5.534
 6152TIP3    H218421   1.976   4.316   5.586
 6153TIP3   OH218422   2.105   4.151   3.941
 6153TIP3    H118423   2.142   4.121   4.025
 6153TIP3    H218424   2.147   4.096   3.876
 6154TIP3   OH218425   2.393   4.235   5.184
 6154TIP3    H118426   2.311   4.284   5.186
 6154TIP3    H218427   2.434   4.262   5.102
 6155TIP3   OH218428   2.217   3.969   3.779
 6155TIP3    H118429   2.192   3.962   3.687
 6155TIP3    H218430   2.313   3.965   3.778
 6156TIP3   OH218431   2.908   4.618   5.288
 6156TIP3    H118432   2.973   4.576   5.231
 6156TIP3    H218433   2.901   4.560   5.364
 6157TIP3   OH218434   3.024   4.275   3.452
 6157TIP3    H118435   3.012   4.227   3.370
 6157TIP3    H218436   2.995   4.364   3.432
 6158TIP3   OH218437   2.510   4.012   5.293
 6158TIP3    H118438   2.511   3.937   5.233
 6158TIP3    H218439   2.469   4.082   5.243
 6159TIP3   OH218440   2.516   3.804   5.101
 6159TIP3    H118441   2.544   3.843   5.018
 6159TIP3    H218442   2.424   3.779   5.086
 6160TIP3   OH218443   2.530   4.334   4.973
 6160TIP3    H118444   2.619   4.348   4.942
 6160TIP3    H218445   2.477   4.398   4.927
 6161TIP3   OH218446   3.117   4.297   5.345
 6161TIP3    H118447   3.145   4.206   5.344
 6161TIP3    H218448   3.192   4.346   5.313
 6162TIP3   OH218449   3.151   4.558   5.091
 6162TIP3    H118450   3.097   4.619   5.039
 6162TIP3    H218451   3.240   4.572   5.058
 6163TIP3   OH218452   2.394   4.100   5.536
 6163TIP3    H118453   2.323   4.039   5.554
 6163TIP3    H218454   2.421   4.079   5.447
 6164TIP3   OH218455   2.640   3.570   5.189
 6164TIP3    H118456   2.598   3.650   5.158
 6164TIP3    H218457   2.575   3.501   5.174
 6165TIP3   OH218458   2.765   4.052   5.393
 6165TIP3    H118459   2.751   4.040   5.487
 6165TIP3    H218460   2.681   4.032   5.353
 6166TIP3   OH218461   3.016   4.022   5.269
 6166TIP3    H118462   2.936   4.013   5.320
 6166TIP3    H218463   3.084   3.983   5.324
 6167TIP3   OH218464   3.250   3.963   5.412
 6167TIP3    H118465   3.262   3.868   5.419
 6167TIP3    H218466   3.244   3.993   5.503
 6168TIP3   OH218467   2.224   3.882   5.601
 6168TIP3    H118468   2.226   3.795   5.562
 6168TIP3    H218469   2.266   3.871   5.687
 6169TIP3   OH218470   2.715   3.557   5.453
 6169TIP3    H118471   2.783   3.490   5.446
 6169TIP3    H218472   2.681   3.566   5.364
 6170TIP3   OH218473   2.801   3.775   5.599
 6170TIP3    H118474   2.774   3.703   5.541
 6170TIP3    H218475   2.728   3.836   5.596
 6171TIP3   OH218476   2.045   5.018   3.703
 6171TIP3    H118477   2.136   5.002   3.679
 6171TIP3    H218478   2.009   5.066   3.628
 6172TIP3   OH218479   1.518   4.392   3.902
 6172TIP3    H118480   1.612   4.407   3.895
 6172TIP3    H218481   1.504   4.308   3.858
 6173TIP3   OH218482   1.423   4.990   4.339
 6173TIP3    H118483   1.359   4.934   4.295
 6173TIP3    H218484   1.469   4.931   4.399
 6174TIP3   OH218485   1.563   4.828   4.515
 6174TIP3    H118486   1.555   4.761   4.583
 6174TIP3    H218487   1.615   4.898   4.557
 6175TIP3   OH218488   3.299   5.241   4.321
 6175TIP3    H118489   3.325   5.271   4.408
 6175TIP3    H218490   3.361   5.284   4.261
 6176TIP3   OH218491   3.322   5.265   4.604
 6176TIP3    H118492   3.274   5.183   4.596
 6176TIP3    H218493   3.393   5.245   4.666
 6177TIP3   OH218494   3.369   4.957   5.176
 6177TIP3    H118495   3.297   4.965   5.239
 6177TIP3    H218496   3.413   5.042   5.179
 6178TIP3   OH218497   3.185   4.470   3.779
 6178TIP3    H118498   3.247   4.537   3.748
 6178TIP3    H218499   3.228   4.432   3.856
 6179TIP3   OH218500   3.307   4.346   3.991
 6179TIP3    H118501   3.240   4.302   4.043
 6179TIP3    H218502   3.368   4.382   4.055
 6180TIP3   OH218503   3.369   4.731   4.419
 6180TIP3    H118504   3.422   4.662   4.379
 6180TIP3    H218505   3.368   4.801   4.354
 6181TIP3   OH218506   3.183   5.022   4.614
 6181TIP3    H118507   3.114   5.066   4.665
 6181TIP3    H218508   3.136   4.979   4.542
 6182TIP3   OH218509   3.230   4.239   3.628
 6182TIP3    H118510   3.161   4.242   3.563
 6182TIP3    H218511   3.213   4.315   3.685
 6183TIP3   OH218512   3.124   4.200   4.139
 6183TIP3    H118513   3.166   4.114   4.140
 6183TIP3    H218514   3.100   4.216   4.230
 6184TIP3   OH218515   1.738   4.268   4.894
 6184TIP3    H118516   1.730   4.223   4.809
 6184TIP3    H218517   1.832   4.266   4.913
 6185TIP3   OH218518   3.404   4.610   4.989
 6185TIP3    H118519   3.472   4.544   4.974
 6185TIP3    H218520   3.412   4.670   4.915
 6186TIP3   OH218521   3.585   4.403   4.986
 6186TIP3    H118522   3.509   4.360   5.025
 6186TIP3    H218523   3.659   4.347   5.009
 6187TIP3   OH218524   3.275   4.082   4.534
 6187TIP3    H118525   3.357   4.103   4.489
 6187TIP3    H218526   3.286   4.119   4.622
 6188TIP3   OH218527   3.346   4.234   4.759
 6188TIP3    H118528   3.269   4.262   4.809
 6188TIP3    H218529   3.376   4.313   4.715
 6189TIP3   OH218530   1.957   3.936   5.551
 6189TIP3    H118531   2.052   3.933   5.561
 6189TIP3    H218532   1.926   3.854   5.590
 6190TIP3   OH218533   3.801   3.831   5.301
 6190TIP3    H118534   3.861   3.771   5.258
 6190TIP3    H218535   3.762   3.881   5.228
 6191TIP3   OH218536   1.927   3.651   4.900
 6191TIP3    H118537   1.980   3.571   4.907
 6191TIP3    H218538   1.990   3.720   4.878
 6192TIP3   OH218539   1.719   3.915   4.940
 6192TIP3    H118540   1.770   3.902   4.860
 6192TIP3    H218541   1.772   3.973   4.994
 6193TIP3   OH218542   3.655   3.947   5.100
 6193TIP3    H118543   3.568   3.985   5.112
 6193TIP3    H218544   3.640   3.869   5.046
 6194TIP3   OH218545   1.701   3.402   4.458
 6194TIP3    H118546   1.615   3.401   4.500
 6194TIP3    H218547   1.692   3.464   4.385
 6195TIP3   OH218548   2.866   5.134   3.968
 6195TIP3    H118549   2.920   5.121   3.890
 6195TIP3    H218550   2.912   5.200   4.018
 6196TIP3   OH218551   1.929   3.488   5.269
 6196TIP3    H118552   1.878   3.482   5.350
 6196TIP3    H218553   1.870   3.531   5.207
 6197TIP3   OH218554   1.955   4.936   5.341
 6197TIP3    H118555   1.863   4.910   5.335
 6197TIP3    H218556   1.982   4.905   5.427
 6198TIP3   OH218557   2.162   4.975   4.897
 6198TIP3    H118558   2.112   5.049   4.864
 6198TIP3    H218559   2.248   4.983   4.855
 6199TIP3   OH218560   2.576   5.210   5.034
 6199TIP3    H118561   2.615   5.203   5.121
 6199TIP3    H218562   2.640   5.262   4.984
 6200TIP3   OH218563   2.763   5.365   4.903
 6200TIP3    H118564   2.826   5.311   4.854
 6200TIP3    H218565   2.818   5.420   4.959
 6201TIP3   OH218566   3.572   3.696   4.999
 6201TIP3    H118567   3.482   3.679   4.970
 6201TIP3    H218568   3.616   3.612   4.991
 6202TIP3   OH218569   1.829   5.221   4.940
 6202TIP3    H118570   1.738   5.242   4.917
 6202TIP3    H218571   1.851   5.285   5.009
 6203TIP3   OH218572   2.058   5.206   4.788
 6203TIP3    H118573   1.975   5.213   4.835
 6203TIP3    H218574   2.038   5.233   4.699
 6204TIP3   OH218575   2.479   5.225   4.583
 6204TIP3    H118576   2.411   5.237   4.517
 6204TIP3    H218577   2.490   5.311   4.623
 6205TIP3   OH218578   2.746   5.166   4.638
 6205TIP3    H118579   2.654   5.181   4.616
 6205TIP3    H218580   2.793   5.232   4.587
 6206TIP3   OH218581   2.949   5.346   4.539
 6206TIP3    H118582   2.942   5.432   4.496
 6206TIP3    H218583   2.978   5.287   4.469
 6207TIP3   OH218584   1.738   5.003   4.665
 6207TIP3    H118585   1.761   4.976   4.754
 6207TIP3    H218586   1.809   4.969   4.611
 6208TIP3   OH218587   1.939   4.882   4.526
 6208TIP3    H118588   1.950   4.797   4.569
 6208TIP3    H218589   2.025   4.922   4.528
 6209TIP3   OH218590   2.206   4.972   4.544
 6209TIP3    H118591   2.227   4.880   4.531
 6209TIP3    H218592   2.258   4.998   4.620
 6210TIP3   OH218593   2.784   3.636   4.631
 6210TIP3    H118594   2.736   3.567   4.677
 6210TIP3    H218595   2.845   3.589   4.574
 6211TIP3   OH218596   3.279   3.526   4.530
 6211TIP3    H118597   3.323   3.570   4.457
 6211TIP3    H218598   3.186   3.544   4.516
 6212TIP3   OH218599   3.407   3.595   4.295
 6212TIP3    H118600   3.456   3.549   4.227
 6212TIP3    H218601   3.418   3.688   4.273
 6213TIP3   OH218602   2.004   3.327   4.661
 6213TIP3    H118603   1.915   3.293   4.655
 6213TIP3    H218604   2.059   3.256   4.628
 6214TIP3   OH218605   1.810   3.211   4.278
 6214TIP3    H118606   1.849   3.263   4.208
 6214TIP3    H218607   1.784   3.275   4.345
 6215TIP3   OH218608   2.995   3.502   4.500
 6215TIP3    H118609   2.998   3.464   4.412
 6215TIP3    H218610   2.991   3.427   4.559
 6216TIP3   OH218611   1.512   4.798   4.052
 6216TIP3    H118612   1.429   4.764   4.017
 6216TIP3    H218613   1.516   4.888   4.020
 6217TIP3   OH218614   1.930   3.352   4.056
 6217TIP3    H118615   1.986   3.302   3.997
 6217TIP3    H218616   1.990   3.413   4.100
 6218TIP3   OH218617   2.305   4.955   3.640
 6218TIP3    H118618   2.390   4.983   3.603
 6218TIP3    H218619   2.277   4.883   3.583
 6219TIP3   OH218620   3.014   5.091   3.737
 6219TIP3    H118621   3.008   4.996   3.728
 6219TIP3    H218622   2.971   5.125   3.658
 6220TIP3   OH218623   2.231   3.609   5.515
 6220TIP3    H118624   2.193   3.541   5.571
 6220TIP3    H218625   2.322   3.614   5.541
 6221TIP3   OH218626   2.482   3.613   5.636
 6221TIP3    H118627   2.561   3.590   5.587
 6221TIP3    H218628   2.471   3.542   5.699
 6222TIP3   OH218629   1.607   4.795   3.694
 6222TIP3    H118630   1.614   4.815   3.787
 6222TIP3    H218631   1.688   4.750   3.673
 6223TIP3   OH218632   3.309   3.691   5.422
 6223TIP3    H118633   3.325   3.662   5.512
 6223TIP3    H218634   3.394   3.686   5.379
 6224TIP3   OH218635   3.230   5.232   4.925
 6224TIP3    H118636   3.156   5.201   4.874
 6224TIP3    H218637   3.216   5.326   4.934
 6225TIP3   OH218638   4.507   4.621   3.672
 6225TIP3    H118639   4.470   4.705   3.645
 6225TIP3    H218640   4.438   4.557   3.652
 6226TIP3   OH218641   4.509   4.615   4.088
 6226TIP3    H118642   4.554   4.595   4.170
 6226TIP3    H218643   4.466   4.533   4.064
 6227TIP3   OH218644   3.809   4.490   4.435
 6227TIP3    H118645   3.835   4.427   4.502
 6227TIP3    H218646   3.891   4.520   4.396
 6228TIP3   OH218647   4.768   4.915   3.760
 6228TIP3    H118648   4.749   4.851   3.829
 6228TIP3    H218649   4.791   4.995   3.808
 6229TIP3   OH218650   3.790   4.917   4.147
 6229TIP3    H118651   3.775   4.823   4.153
 6229TIP3    H218652   3.884   4.925   4.131
 6230TIP3   OH218653   3.513   4.132   3.976
 6230TIP3    H118654   3.455   4.207   3.979
 6230TIP3    H218655   3.472   4.071   3.914
 6231TIP3   OH218656   3.539   4.416   4.126
 6231TIP3    H118657   3.584   4.336   4.151
 6231TIP3    H218658   3.597   4.458   4.062
 6232TIP3   OH218659   4.419   5.359   3.771
 6232TIP3    H118660   4.450   5.293   3.709
 6232TIP3    H218661   4.406   5.311   3.853
 6233TIP3   OH218662   4.305   4.835   4.102
 6233TIP3    H118663   4.346   4.757   4.064
 6233TIP3    H218664   4.379   4.888   4.131
 6234TIP3   OH218665   5.335   4.156   4.114
 6234TIP3    H118666   5.354   4.239   4.158
 6234TIP3    H218667   5.361   4.170   4.023
 6235TIP3   OH218668   4.734   4.327   4.146
 6235TIP3    H118669   4.769   4.240   4.166
 6235TIP3    H218670   4.686   4.316   4.064
 6236TIP3   OH218671   4.019   3.972   4.102
 6236TIP3    H118672   4.108   3.998   4.074
 6236TIP3    H218673   4.021   3.877   4.100
 6237TIP3   OH218674   4.750   4.102   3.764
 6237TIP3    H118675   4.838   4.077   3.792
 6237TIP3    H218676   4.748   4.082   3.670
 6238TIP3   OH218677   3.663   4.185   4.207
 6238TIP3    H118678   3.749   4.146   4.224
 6238TIP3    H218679   3.632   4.141   4.127
 6239TIP3   OH218680   4.134   4.383   4.019
 6239TIP3    H118681   4.228   4.388   4.039
 6239TIP3    H218682   4.123   4.297   3.979
 6240TIP3   OH218683   5.399   4.373   4.282
 6240TIP3    H118684   5.311   4.410   4.273
 6240TIP3    H218685   5.432   4.409   4.364
 6241TIP3   OH218686   4.049   3.990   4.544
 6241TIP3    H118687   3.995   4.020   4.471
 6241TIP3    H218688   3.995   4.004   4.622
 6242TIP3   OH218689   4.380   4.828   3.545
 6242TIP3    H118690   4.350   4.810   3.456
 6242TIP3    H218691   4.336   4.909   3.570
 6243TIP3   OH218692   4.152   4.757   4.319
 6243TIP3    H118693   4.095   4.826   4.353
 6243TIP3    H218694   4.198   4.798   4.246
 6244TIP3   OH218695   4.978   4.089   3.919
 6244TIP3    H118696   4.927   4.059   3.995
 6244TIP3    H218697   5.016   4.172   3.948
 6245TIP3   OH218698   3.916   4.095   4.319
 6245TIP3    H118699   3.974   4.168   4.338
 6245TIP3    H218700   3.953   4.054   4.240
 6246TIP3   OH218701   3.991   4.958   4.423
 6246TIP3    H118702   3.973   5.045   4.389
 6246TIP3    H218703   3.913   4.936   4.475
 6247TIP3   OH218704   3.368   4.654   3.667
 6247TIP3    H118705   3.332   4.672   3.580
 6247TIP3    H218706   3.394   4.740   3.700
 6248TIP3   OH218707   4.814   5.162   3.906
 6248TIP3    H118708   4.727   5.153   3.946
 6248TIP3    H218709   4.810   5.245   3.860
 6249TIP3   OH218710   5.122   4.049   4.276
 6249TIP3    H118711   5.035   4.069   4.242
 6249TIP3    H218712   5.182   4.078   4.207
 6250TIP3   OH218713   4.407   3.688   4.272
 6250TIP3    H118714   4.389   3.594   4.278
 6250TIP3    H218715   4.329   3.729   4.309
 6251TIP3   OH218716   4.514   5.198   3.564
 6251TIP3    H118717   4.563   5.116   3.552
 6251TIP3    H218718   4.574   5.266   3.534
 6252TIP3   OH218719   4.666   4.979   3.508
 6252TIP3    H118720   4.648   4.898   3.459
 6252TIP3    H218721   4.704   4.949   3.591
 6253TIP3   OH218722   5.043   5.058   4.252
 6253TIP3    H118723   5.028   4.983   4.195
 6253TIP3    H218724   5.027   5.134   4.197
 6254TIP3   OH218725   4.328   4.462   3.516
 6254TIP3    H118726   4.249   4.513   3.496
 6254TIP3    H218727   4.373   4.455   3.432
 6255TIP3   OH218728   4.312   4.250   3.207
 6255TIP3    H118729   4.375   4.299   3.261
 6255TIP3    H218730   4.366   4.188   3.158
 6256TIP3   OH218731   5.232   4.712   4.111
 6256TIP3    H118732   5.148   4.757   4.113
 6256TIP3    H218733   5.267   4.729   4.023
 6257TIP3   OH218734   4.686   4.551   3.480
 6257TIP3    H118735   4.629   4.577   3.552
 6257TIP3    H218736   4.767   4.523   3.521
 6258TIP3   OH218737   4.918   4.578   4.417
 6258TIP3    H118738   4.916   4.660   4.466
 6258TIP3    H218739   4.835   4.576   4.370
 6259TIP3   OH218740   3.926   4.544   3.915
 6259TIP3    H118741   3.868   4.491   3.861
 6259TIP3    H218742   3.998   4.485   3.939
 6260TIP3   OH218743   4.048   4.954   4.032
 6260TIP3    H118744   4.023   4.934   3.942
 6260TIP3    H218745   4.134   4.914   4.043
 6261TIP3   OH218746   4.036   4.514   4.259
 6261TIP3    H118747   4.069   4.484   4.175
 6261TIP3    H218748   4.081   4.597   4.274
 6262TIP3   OH218749   4.578   5.154   4.040
 6262TIP3    H118750   4.563   5.233   4.092
 6262TIP3    H218751   4.562   5.082   4.100
 6263TIP3   OH218752   4.190   5.062   4.584
 6263TIP3    H118753   4.131   5.122   4.630
 6263TIP3    H218754   4.133   5.010   4.528
 6264TIP3   OH218755   4.523   4.397   3.319
 6264TIP3    H118756   4.580   4.455   3.369
 6264TIP3    H218757   4.546   4.413   3.227
 6265TIP3   OH218758   3.945   4.608   4.717
 6265TIP3    H118759   3.949   4.701   4.740
 6265TIP3    H218760   3.851   4.589   4.713
 6266TIP3   OH218761   4.264   5.080   3.582
 6266TIP3    H118762   4.348   5.126   3.582
 6266TIP3    H218763   4.207   5.135   3.527
 6267TIP3   OH218764   3.980   5.223   4.668
 6267TIP3    H118765   3.955   5.230   4.576
 6267TIP3    H218766   3.899   5.205   4.715
 6268TIP3   OH218767   3.744   4.402   3.762
 6268TIP3    H118768   3.690   4.445   3.694
 6268TIP3    H218769   3.704   4.316   3.774
 6269TIP3   OH218770   4.848   5.008   2.919
 6269TIP3    H118771   4.846   5.101   2.900
 6269TIP3    H218772   4.939   4.982   2.905
 6270TIP3   OH218773   3.568   4.769   4.617
 6270TIP3    H118774   3.500   4.753   4.552
 6270TIP3    H218775   3.603   4.682   4.637
 6271TIP3   OH218776   3.425   4.956   4.253
 6271TIP3    H118777   3.520   4.958   4.245
 6271TIP3    H218778   3.404   5.035   4.304
 6272TIP3   OH218779   5.278   5.420   4.316
 6272TIP3    H118780   5.283   5.325   4.326
 6272TIP3    H218781   5.197   5.444   4.361
 6273TIP3   OH218782   4.381   5.198   4.441
 6273TIP3    H118783   4.376   5.289   4.469
 6273TIP3    H218784   4.313   5.154   4.492
 6274TIP3   OH218785   4.157   5.310   3.395
 6274TIP3    H118786   4.110   5.289   3.314
 6274TIP3    H218787   4.120   5.394   3.422
 6275TIP3   OH218788   3.590   5.161   3.776
 6275TIP3    H118789   3.635   5.152   3.860
 6275TIP3    H218790   3.542   5.079   3.766
 6276TIP3   OH218791   4.360   5.229   3.028
 6276TIP3    H118792   4.411   5.156   2.993
 6276TIP3    H218793   4.394   5.241   3.117
 6277TIP3   OH218794   4.411   5.277   3.298
 6277TIP3    H118795   4.324   5.283   3.337
 6277TIP3    H218796   4.466   5.239   3.367
 6278TIP3   OH218797   5.163   4.535   4.586
 6278TIP3    H118798   5.082   4.545   4.536
 6278TIP3    H218799   5.182   4.441   4.581
 6279TIP3   OH218800   3.772   4.952   4.590
 6279TIP3    H118801   3.821   4.940   4.671
 6279TIP3    H218802   3.699   4.890   4.596
 6280TIP3   OH218803   4.167   3.780   4.399
 6280TIP3    H118804   4.081   3.744   4.374
 6280TIP3    H218805   4.146   3.860   4.447
 6281TIP3   OH218806   4.701   3.887   4.594
 6281TIP3    H118807   4.770   3.861   4.656
 6281TIP3    H218808   4.619   3.868   4.640
 6282TIP3   OH218809   4.928   4.314   4.512
 6282TIP3    H118810   4.884   4.312   4.596
 6282TIP3    H218811   4.908   4.401   4.477
 6283TIP3   OH218812   4.595   4.434   3.061
 6283TIP3    H118813   4.559   4.403   2.977
 6283TIP3    H218814   4.680   4.470   3.038
 6284TIP3   OH218815   4.097   4.291   4.408
 6284TIP3    H118816   4.047   4.301   4.489
 6284TIP3    H218817   4.079   4.371   4.359
 6285TIP3   OH218818   4.478   4.292   3.672
 6285TIP3    H118819   4.416   4.343   3.618
 6285TIP3    H218820   4.532   4.245   3.608
 6286TIP3   OH218821   4.645   4.526   4.732
 6286TIP3    H118822   4.618   4.457   4.792
 6286TIP3    H218823   4.738   4.540   4.751
 6287TIP3   OH218824   4.616   4.289   3.904
 6287TIP3    H118825   4.556   4.315   3.834
 6287TIP3    H218826   4.661   4.212   3.870
 6288TIP3   OH218827   3.925   4.314   4.623
 6288TIP3    H118828   3.938   4.379   4.693
 6288TIP3    H218829   3.907   4.233   4.669
 6289TIP3   OH218830   3.935   3.765   3.366
 6289TIP3    H118831   3.897   3.752   3.453
 6289TIP3    H218832   3.877   3.830   3.325
 6290TIP3   OH218833   3.504   3.838   4.209
 6290TIP3    H118834   3.576   3.869   4.263
 6290TIP3    H218835   3.515   3.884   4.125
 6291TIP3   OH218836   4.657   4.526   4.311
 6291TIP3    H118837   4.689   4.460   4.250
 6291TIP3    H218838   4.615   4.476   4.381
 6292TIP3   OH218839   4.285   4.017   4.056
 6292TIP3    H118840   4.334   4.019   4.139
 6292TIP3    H218841   4.352   4.000   3.990
 6293TIP3   OH218842   4.805   4.062   4.192
 6293TIP3    H118843   4.777   4.079   4.282
 6293TIP3    H218844   4.737   4.004   4.156
 6294TIP3   OH218845   4.985   5.762   4.409
 6294TIP3    H118846   4.981   5.780   4.316
 6294TIP3    H218847   5.063   5.808   4.439
 6295TIP3   OH218848   3.930   4.872   4.822
 6295TIP3    H118849   4.010   4.894   4.870
 6295TIP3    H218850   3.861   4.875   4.889
 6296TIP3   OH218851   4.401   4.348   4.089
 6296TIP3    H118852   4.465   4.305   4.031
 6296TIP3    H218853   4.402   4.294   4.168
 6297TIP3   OH218854   4.364   4.228   4.357
 6297TIP3    H118855   4.276   4.260   4.376
 6297TIP3    H218856   4.421   4.286   4.408
 6298TIP3   OH218857   4.093   4.610   3.462
 6298TIP3    H118858   4.021   4.550   3.441
 6298TIP3    H218859   4.073   4.643   3.549
 6299TIP3   OH218860   4.994   4.849   4.078
 6299TIP3    H118861   5.025   4.899   4.002
 6299TIP3    H218862   4.911   4.811   4.049
 6300TIP3   OH218863   4.503   4.932   4.474
 6300TIP3    H118864   4.547   4.924   4.559
 6300TIP3    H218865   4.462   5.019   4.476
 6301TIP3   OH218866   4.652   4.197   3.467
 6301TIP3    H118867   4.697   4.136   3.408
 6301TIP3    H218868   4.603   4.255   3.409
 6302TIP3   OH218869   3.796   4.639   4.139
 6302TIP3    H118870   3.838   4.617   4.056
 6302TIP3    H218871   3.842   4.585   4.204
 6303TIP3   OH218872   4.250   4.764   3.300
 6303TIP3    H118873   4.205   4.848   3.300
 6303TIP3    H218874   4.195   4.707   3.354
 6304TIP3   OH218875   3.674   4.540   4.751
 6304TIP3    H118876   3.677   4.516   4.844
 6304TIP3    H218877   3.600   4.491   4.716
 6305TIP3   OH218878   4.408   4.674   4.770
 6305TIP3    H118879   4.340   4.615   4.737
 6305TIP3    H218880   4.490   4.635   4.740
 6306TIP3   OH218881   4.654   5.209   4.365
 6306TIP3    H118882   4.559   5.199   4.371
 6306TIP3    H218883   4.679   5.253   4.446
 6307TIP3   OH218884   5.291   5.137   4.341
 6307TIP3    H118885   5.196   5.125   4.337
 6307TIP3    H218886   5.322   5.105   4.256
 6308TIP3   OH218887   4.781   5.079   3.185
 6308TIP3    H118888   4.748   5.011   3.243
 6308TIP3    H218889   4.793   5.035   3.101
 6309TIP3   OH218890   4.759   4.720   3.985
 6309TIP3    H118891   4.668   4.697   4.006
 6309TIP3    H218892   4.796   4.640   3.948
 6310TIP3   OH218893   3.908   4.950   3.780
 6310TIP3    H118894   3.908   5.027   3.724
 6310TIP3    H218895   3.816   4.927   3.790
 6311TIP3   OH218896   3.473   4.223   3.496
 6311TIP3    H118897   3.513   4.308   3.513
 6311TIP3    H218898   3.392   4.224   3.546
 6312TIP3   OH218899   4.012   4.704   3.703
 6312TIP3    H118900   3.992   4.795   3.724
 6312TIP3    H218901   3.987   4.654   3.780
 6313TIP3   OH218902   4.188   5.276   4.237
 6313TIP3    H118903   4.225   5.348   4.186
 6313TIP3    H218904   4.263   5.239   4.284
 6314TIP3   OH218905   3.823   5.178   3.627
 6314TIP3    H118906   3.737   5.183   3.668
 6314TIP3    H218907   3.856   5.268   3.630
 6315TIP3   OH218908   4.549   4.929   4.202
 6315TIP3    H118909   4.539   4.924   4.297
 6315TIP3    H218910   4.621   4.868   4.183
 6316TIP3   OH218911   4.538   4.814   3.082
 6316TIP3    H118912   4.586   4.795   3.163
 6316TIP3    H218913   4.453   4.773   3.094
 6317TIP3   OH218914   4.802   5.442   4.247
 6317TIP3    H118915   4.728   5.383   4.253
 6317TIP3    H218916   4.780   5.501   4.175
 6318TIP3   OH218917   4.858   5.283   2.887
 6318TIP3    H118918   4.882   5.347   2.820
 6318TIP3    H218919   4.785   5.322   2.934
 6319TIP3   OH218920   3.876   4.064   4.753
 6319TIP3    H118921   3.781   4.074   4.755
 6319TIP3    H218922   3.896   4.001   4.822
 6320TIP3   OH218923   4.704   4.761   3.301
 6320TIP3    H118924   4.686   4.687   3.359
 6320TIP3    H218925   4.799   4.758   3.286
 6321TIP3   OH218926   3.614   5.156   4.397
 6321TIP3    H118927   3.666   5.087   4.440
 6321TIP3    H218928   3.636   5.236   4.445
 6322TIP3   OH218929   3.893   4.782   3.085
 6322TIP3    H118930   3.903   4.691   3.058
 6322TIP3    H218931   3.872   4.778   3.178
 6323TIP3   OH218932   3.834   4.800   3.356
 6323TIP3    H118933   3.908   4.770   3.409
 6323TIP3    H218934   3.836   4.895   3.364
 6324TIP3   OH218935   3.565   4.487   3.565
 6324TIP3    H118936   3.496   4.532   3.613
 6324TIP3    H218937   3.585   4.545   3.491
 6325TIP3   OH218938   4.730   4.124   4.453
 6325TIP3    H118939   4.810   4.164   4.485
 6325TIP3    H218940   4.720   4.044   4.505
 6326TIP3   OH218941   4.108   4.994   3.304
 6326TIP3    H118942   4.022   5.016   3.339
 6326TIP3    H218943   4.127   5.064   3.242
 6327TIP3   OH218944   4.567   4.357   4.508
 6327TIP3    H118945   4.594   4.400   4.589
 6327TIP3    H218946   4.619   4.276   4.505
 6328TIP3   OH218947   3.854   5.073   3.374
 6328TIP3    H118948   3.830   5.142   3.312
 6328TIP3    H218949   3.840   5.112   3.460
 6329TIP3   OH218950   5.192   4.262   4.498
 6329TIP3    H118951   5.097   4.269   4.509
 6329TIP3    H218952   5.204   4.212   4.417
 6330TIP3   OH218953   4.848   4.468   3.894
 6330TIP3    H118954   4.769   4.415   3.905
 6330TIP3    H218955   4.915   4.421   3.944
 6331TIP3   OH218956   3.582   4.676   3.354
 6331TIP3    H118957   3.653   4.740   3.364
 6331TIP3    H218958   3.614   4.614   3.289
 6332TIP3   OH218959   3.502   3.933   3.431
 6332TIP3    H118960   3.498   4.026   3.455
 6332TIP3    H218961   3.540   3.890   3.507
 6333TIP3   OH218962   4.830   5.432   3.827
 6333TIP3    H118963   4.787   5.480   3.757
 6333TIP3    H218964   4.924   5.444   3.810
 6334TIP3   OH218965   3.904   3.698   4.381
 6334TIP3    H118966   3.870   3.664   4.297
 6334TIP3    H218967   3.894   3.624   4.441
 6335TIP3   OH218968   3.426   4.929   3.746
 6335TIP3    H118969   3.373   4.959   3.819
 6335TIP3    H218970   3.387   4.970   3.669
 6336TIP3   OH218971   3.611   5.468   4.817
 6336TIP3    H118972   3.694   5.471   4.864
 6336TIP3    H218973   3.591   5.375   4.808
 6337TIP3   OH218974   4.080   5.393   4.861
 6337TIP3    H118975   4.174   5.374   4.868
 6337TIP3    H218976   4.049   5.337   4.790
 6338TIP3   OH218977   4.054   4.983   2.984
 6338TIP3    H118978   4.004   4.912   3.025
 6338TIP3    H218979   4.127   4.939   2.941
 6339TIP3   OH218980   4.708   5.326   4.608
 6339TIP3    H118981   4.716   5.255   4.672
 6339TIP3    H218982   4.784   5.382   4.625
 6340TIP3   OH218983   4.492   5.022   2.906
 6340TIP3    H118984   4.523   4.956   2.967
 6340TIP3    H218985   4.551   5.015   2.830
 6341TIP3   OH218986   3.724   4.867   5.012
 6341TIP3    H118987   3.743   4.774   5.019
 6341TIP3    H218988   3.638   4.871   4.969
 6342TIP3   OH218989   3.712   4.489   3.205
 6342TIP3    H118990   3.765   4.464   3.281
 6342TIP3    H218991   3.776   4.499   3.134
 6343TIP3   OH218992   4.341   4.951   4.787
 6343TIP3    H118993   4.296   4.973   4.705
 6343TIP3    H218994   4.373   4.862   4.774
 6344TIP3   OH218995   4.265   4.703   3.032
 6344TIP3    H118996   4.248   4.716   3.126
 6344TIP3    H218997   4.254   4.609   3.019
 6345TIP3   OH218998   4.823   4.984   4.405
 6345TIP3    H118999   4.900   5.015   4.356
 6345TIP3    H219000   4.755   5.049   4.387
 6346TIP3   OH219001   3.844   4.613   5.012
 6346TIP3    H119002   3.919   4.587   4.959
 6346TIP3    H219003   3.881   4.633   5.098
 6347TIP3   OH219004   3.891   4.425   3.412
 6347TIP3    H119005   3.856   4.377   3.486
 6347TIP3    H219006   3.943   4.362   3.363
 6348TIP3   OH219007   4.198   4.494   4.673
 6348TIP3    H119008   4.113   4.537   4.679
 6348TIP3    H219009   4.233   4.523   4.589
 6349TIP3   OH219010   4.038   4.249   3.268
 6349TIP3    H119011   3.999   4.234   3.182
 6349TIP3    H219012   4.132   4.241   3.253
 6350TIP3   OH219013   4.703   4.875   4.775
 6350TIP3    H119014   4.768   4.834   4.719
 6350TIP3    H219015   4.697   4.817   4.851
 6351TIP3   OH219016   4.825   4.534   2.941
 6351TIP3    H119017   4.808   4.481   2.863
 6351TIP3    H219018   4.794   4.621   2.918
 6352TIP3   OH219019   4.307   4.268   4.782
 6352TIP3    H119020   4.307   4.194   4.722
 6352TIP3    H219021   4.269   4.340   4.732
 6353TIP3   OH219022   4.311   4.061   4.587
 6353TIP3    H119023   4.340   4.099   4.504
 6353TIP3    H219024   4.219   4.040   4.573
 6354TIP3   OH219025   4.326   4.594   4.456
 6354TIP3    H119026   4.414   4.620   4.431
 6354TIP3    H219027   4.269   4.656   4.410
 6355TIP3   OH219028   4.914   4.554   4.831
 6355TIP3    H119029   4.953   4.467   4.836
 6355TIP3    H219030   4.985   4.611   4.803
 6356TIP3   OH219031   4.948   4.814   4.575
 6356TIP3    H119032   4.893   4.873   4.524
 6356TIP3    H219033   5.036   4.829   4.543
 6357TIP3   OH219034   4.189   4.360   5.023
 6357TIP3    H119035   4.120   4.296   5.042
 6357TIP3    H219036   4.217   4.339   4.934
 6358TIP3   OH219037   4.437   3.826   4.675
 6358TIP3    H119038   4.394   3.906   4.645
 6358TIP3    H219039   4.371   3.758   4.661
 6359TIP3   OH219040   4.564   4.310   4.879
 6359TIP3    H119041   4.551   4.297   4.974
 6359TIP3    H219042   4.478   4.289   4.841
 6360TIP3   OH219043   4.809   4.269   4.749
 6360TIP3    H119044   4.730   4.267   4.803
 6360TIP3    H219045   4.879   4.239   4.807
 6361TIP3   OH219046   5.044   4.222   4.897
 6361TIP3    H119047   5.056   4.127   4.905
 6361TIP3    H219048   5.038   4.253   4.987
 6362TIP3   OH219049   4.026   4.138   5.085
 6362TIP3    H119050   4.028   4.051   5.046
 6362TIP3    H219051   4.065   4.126   5.172
 6363TIP3   OH219052   4.513   3.815   4.938
 6363TIP3    H119053   4.581   3.748   4.931
 6363TIP3    H219054   4.478   3.823   4.850
 6364TIP3   OH219055   4.597   4.032   5.085
 6364TIP3    H119056   4.570   3.961   5.027
 6364TIP3    H219057   4.524   4.094   5.082
 6365TIP3   OH219058   3.841   5.280   3.187
 6365TIP3    H119059   3.932   5.262   3.161
 6365TIP3    H219060   3.804   5.327   3.112
 6366TIP3   OH219061   3.310   4.656   3.385
 6366TIP3    H119062   3.404   4.674   3.375
 6366TIP3    H219063   3.296   4.572   3.343
 6367TIP3   OH219064   3.218   5.251   3.827
 6367TIP3    H119065   3.155   5.195   3.782
 6367TIP3    H219066   3.264   5.192   3.887
 6368TIP3   OH219067   3.357   5.089   4.003
 6368TIP3    H119068   3.346   5.020   4.068
 6368TIP3    H219069   3.409   5.156   4.047
 6369TIP3   OH219070   5.099   5.491   3.809
 6369TIP3    H119071   5.120   5.523   3.896
 6369TIP3    H219072   5.156   5.541   3.750
 6370TIP3   OH219073   5.119   5.520   4.091
 6370TIP3    H119074   5.070   5.438   4.084
 6370TIP3    H219075   5.189   5.501   4.154
 6371TIP3   OH219076   5.164   5.213   4.663
 6371TIP3    H119077   5.093   5.222   4.727
 6371TIP3    H219078   5.208   5.298   4.665
 6372TIP3   OH219079   4.982   4.732   3.284
 6372TIP3    H119080   5.045   4.797   3.252
 6372TIP3    H219081   5.028   4.687   3.355
 6373TIP3   OH219082   5.108   4.570   3.480
 6373TIP3    H119083   5.040   4.535   3.537
 6373TIP3    H219084   5.171   4.610   3.539
 6374TIP3   OH219085   5.166   4.988   3.906
 6374TIP3    H119086   5.218   4.920   3.864
 6374TIP3    H219087   5.164   5.060   3.843
 6375TIP3   OH219088   4.978   5.279   4.100
 6375TIP3    H119089   4.909   5.323   4.150
 6375TIP3    H219090   4.931   5.237   4.028
 6376TIP3   OH219091   5.038   4.518   3.116
 6376TIP3    H119092   4.963   4.507   3.058
 6376TIP3    H219093   5.012   4.587   3.176
 6377TIP3   OH219094   4.900   4.435   3.625
 6377TIP3    H119095   4.847   4.355   3.624
 6377TIP3    H219096   4.894   4.467   3.715
 6378TIP3   OH219097   3.542   4.518   4.379
 6378TIP3    H119098   3.532   4.487   4.289
 6378TIP3    H219099   3.637   4.518   4.393
 6379TIP3   OH219100   5.201   4.869   4.476
 6379TIP3    H119101   5.268   4.802   4.459
 6379TIP3    H219102   5.214   4.934   4.407
 6380TIP3   OH219103   5.378   4.659   4.469
 6380TIP3    H119104   5.303   4.617   4.512
 6380TIP3    H219105   5.452   4.602   4.490
 6381TIP3   OH219106   4.969   4.136   3.519
 6381TIP3    H119107   5.024   4.148   3.597
 6381TIP3    H219108   4.967   4.222   3.478
 6382TIP3   OH219109   5.068   4.335   4.017
 6382TIP3    H119110   5.150   4.358   3.972
 6382TIP3    H219111   5.078   4.372   4.105
 6383TIP3   OH219112   5.141   4.486   4.246
 6383TIP3    H119113   5.066   4.515   4.297
 6383TIP3    H219114   5.172   4.565   4.202
 6384TIP3   OH219115   3.761   4.202   5.051
 6384TIP3    H119116   3.856   4.193   5.056
 6384TIP3    H219117   3.727   4.118   5.083
 6385TIP3   OH219118   5.599   4.085   4.790
 6385TIP3    H119119   5.660   4.025   4.748
 6385TIP3    H219120   5.561   4.135   4.717
 6386TIP3   OH219121   3.716   3.907   4.378
 6386TIP3    H119122   3.773   3.831   4.389
 6386TIP3    H219123   3.776   3.981   4.369
 6387TIP3   OH219124   3.518   4.177   4.445
 6387TIP3    H119125   3.563   4.169   4.362
 6387TIP3    H219126   3.548   4.260   4.481
 6388TIP3   OH219127   5.452   4.202   4.593
 6388TIP3    H119128   5.369   4.244   4.615
 6388TIP3    H219129   5.427   4.129   4.537
 6389TIP3   OH219130   4.667   5.390   3.455
 6389TIP3    H119131   4.719   5.378   3.376
 6389TIP3    H219132   4.711   5.461   3.502
 6390TIP3   OH219133   3.729   3.759   4.768
 6390TIP3    H119134   3.673   3.739   4.844
 6390TIP3    H219135   3.668   3.791   4.702
 6391TIP3   OH219136   3.757   5.189   4.832
 6391TIP3    H119137   3.664   5.170   4.821
 6391TIP3    H219138   3.774   5.172   4.925
 6392TIP3   OH219139   3.959   5.233   4.385
 6392TIP3    H119140   3.907   5.306   4.352
 6392TIP3    H219141   4.044   5.242   4.342
 6393TIP3   OH219142   4.373   5.465   4.520
 6393TIP3    H119143   4.411   5.459   4.608
 6393TIP3    H219144   4.436   5.518   4.470
 6394TIP3   OH219145   4.559   5.622   4.390
 6394TIP3    H119146   4.622   5.569   4.340
 6394TIP3    H219147   4.614   5.677   4.446
 6395TIP3   OH219148   5.361   3.959   4.480
 6395TIP3    H119149   5.272   3.952   4.444
 6395TIP3    H219150   5.396   3.870   4.475
 6396TIP3   OH219151   3.624   5.484   4.426
 6396TIP3    H119152   3.533   5.502   4.404
 6396TIP3    H219153   3.645   5.547   4.495
 6397TIP3   OH219154   3.854   5.464   4.276
 6397TIP3    H119155   3.771   5.471   4.323
 6397TIP3    H219156   3.834   5.489   4.186
 6398TIP3   OH219157   4.275   5.481   4.069
 6398TIP3    H119158   4.206   5.492   4.005
 6398TIP3    H219159   4.286   5.568   4.109
 6399TIP3   OH219160   4.542   5.421   4.123
 6399TIP3    H119161   4.449   5.436   4.103
 6399TIP3    H219162   4.589   5.486   4.071
 6400TIP3   OH219163   4.748   5.604   4.026
 6400TIP3    H119164   4.738   5.689   3.983
 6400TIP3    H219165   4.776   5.545   3.955
 6401TIP3   OH219166   3.533   5.261   4.152
 6401TIP3    H119167   3.558   5.233   4.240
 6401TIP3    H219168   3.604   5.229   4.096
 6402TIP3   OH219169   3.735   5.147   4.011
 6402TIP3    H119170   3.746   5.065   4.058
 6402TIP3    H219171   3.822   5.187   4.010
 6403TIP3   OH219172   4.004   5.232   4.027
 6403TIP3    H119173   4.023   5.139   4.012
 6403TIP3    H219174   4.056   5.254   4.105
 6404TIP3   OH219175   4.578   3.893   4.122
 6404TIP3    H119176   4.531   3.821   4.164
 6404TIP3    H219177   4.639   3.850   4.062
 6405TIP3   OH219178   5.081   3.773   3.998
 6405TIP3    H119179   5.118   3.824   3.927
 6405TIP3    H219180   4.988   3.797   4.000
 6406TIP3   OH219181   5.200   3.860   3.765
 6406TIP3    H119182   5.266   3.805   3.722
 6406TIP3    H219183   5.225   3.950   3.742
 6407TIP3   OH219184   3.812   3.589   4.149
 6407TIP3    H119185   3.724   3.553   4.139
 6407TIP3    H219186   3.870   3.516   4.127
 6408TIP3   OH219187   4.245   3.631   3.985
 6408TIP3    H119188   4.238   3.673   3.900
 6408TIP3    H219189   4.315   3.679   4.029
 6409TIP3   OH219190   4.796   3.773   3.987
 6409TIP3    H119191   4.788   3.735   3.900
 6409TIP3    H219192   4.792   3.698   4.046
 6410TIP3   OH219193   3.309   5.054   3.533
 6410TIP3    H119194   3.225   5.019   3.503
 6410TIP3    H219195   3.309   5.144   3.501
 6411TIP3   OH219196   4.101   5.212   3.125
 6411TIP3    H119197   4.185   5.240   3.088
 6411TIP3    H219198   4.073   5.139   3.068
 6412TIP3   OH219199   4.813   5.348   3.222
 6412TIP3    H119200   4.806   5.253   3.214
 6412TIP3    H219201   4.766   5.382   3.146
 6413TIP3   OH219202   4.029   3.864   5.003
 6413TIP3    H119203   3.992   3.796   5.060
 6413TIP3    H219204   4.121   3.869   5.029
 6414TIP3   OH219205   4.280   3.869   5.123
 6414TIP3    H119206   4.359   3.846   5.075
 6414TIP3    H219207   4.270   3.798   5.188
 6415TIP3   OH219208   3.403   5.053   3.182
 6415TIP3    H119209   3.407   5.064   3.277
 6415TIP3    H219210   3.484   5.008   3.160
 6416TIP3   OH219211   5.105   3.950   4.911
 6416TIP3    H119212   5.121   3.921   5.001
 6416TIP3    H219213   5.191   3.945   4.869
 6417TIP3   OH219214   5.026   5.488   4.411
 6417TIP3    H119215   4.951   5.458   4.360
 6417TIP3    H219216   5.013   5.583   4.420
 6418TIP3   OH219217   6.301   4.870   3.161
 6418TIP3    H119218   6.270   4.958   3.139
 6418TIP3    H219219   6.231   4.811   3.133
 6419TIP3   OH219220   6.302   4.866   3.572
 6419TIP3    H119221   6.347   4.847   3.654
 6419TIP3    H219222   6.257   4.784   3.549
 6420TIP3   OH219223   5.600   4.741   3.923
 6420TIP3    H119224   5.632   4.683   3.992
 6420TIP3    H219225   5.679   4.772   3.879
 6421TIP3   OH219226   6.561   5.172   3.249
 6421TIP3    H119227   6.547   5.107   3.318
 6421TIP3    H219228   6.586   5.252   3.295
 6422TIP3   OH219229   5.586   5.166   3.629
 6422TIP3    H119230   5.571   5.071   3.633
 6422TIP3    H219231   5.680   5.174   3.614
 6423TIP3   OH219232   5.269   4.357   3.379
 6423TIP3    H119233   5.221   4.432   3.415
 6423TIP3    H219234   5.229   4.341   3.294
 6424TIP3   OH219235   5.339   4.660   3.612
 6424TIP3    H119236   5.393   4.586   3.641
 6424TIP3    H219237   5.400   4.717   3.565
 6425TIP3   OH219238   6.214   5.614   3.259
 6425TIP3    H119239   6.245   5.548   3.197
 6425TIP3    H219240   6.206   5.567   3.342
 6426TIP3   OH219241   6.101   5.091   3.589
 6426TIP3    H119242   6.141   5.012   3.551
 6426TIP3    H219243   6.176   5.145   3.617
 6427TIP3   OH219244   7.087   4.421   3.622
 6427TIP3    H119245   7.109   4.503   3.665
 6427TIP3    H219246   7.118   4.431   3.532
 6428TIP3   OH219247   6.514   4.578   3.623
 6428TIP3    H119248   6.557   4.495   3.646
 6428TIP3    H219249   6.479   4.564   3.536
 6429TIP3   OH219250   5.864   4.240   3.584
 6429TIP3    H119251   5.845   4.314   3.526
 6429TIP3    H219252   5.811   4.168   3.549
 6430TIP3   OH219253   6.559   4.341   3.214
 6430TIP3    H119254   6.626   4.330   3.282
 6430TIP3    H219255   6.606   4.375   3.138
 6431TIP3   OH219256   5.490   4.448   3.707
 6431TIP3    H119257   5.573   4.432   3.753
 6431TIP3    H219258   5.497   4.399   3.625
 6432TIP3   OH219259   5.920   4.649   3.517
 6432TIP3    H119260   6.014   4.632   3.524
 6432TIP3    H219261   5.883   4.568   3.481
 6433TIP3   OH219262   7.157   4.633   3.784
 6433TIP3    H119263   7.078   4.685   3.768
 6433TIP3    H219264   7.202   4.679   3.855
 6434TIP3   OH219265   5.847   4.238   4.033
 6434TIP3    H119266   5.795   4.271   3.961
 6434TIP3    H219267   5.793   4.254   4.111
 6435TIP3   OH219268   6.180   5.081   3.033
 6435TIP3    H119269   6.149   5.064   2.945
 6435TIP3    H219270   6.137   5.163   3.059
 6436TIP3   OH219271   5.948   5.015   3.806
 6436TIP3    H119272   5.892   5.084   3.841
 6436TIP3    H219273   5.994   5.056   3.733
 6437TIP3   OH219274   6.731   4.352   3.425
 6437TIP3    H119275   6.697   4.320   3.508
 6437TIP3    H219276   6.782   4.430   3.448
 6438TIP3   OH219277   5.732   4.345   3.805
 6438TIP3    H119278   5.788   4.419   3.829
 6438TIP3    H219279   5.778   4.302   3.733
 6439TIP3   OH219280   5.788   5.215   3.910
 6439TIP3    H119281   5.770   5.303   3.876
 6439TIP3    H219282   5.709   5.193   3.961
 6440TIP3   OH219283   5.166   4.909   3.161
 6440TIP3    H119284   5.129   4.924   3.073
 6440TIP3    H219285   5.191   4.997   3.191
 6441TIP3   OH219286   6.608   5.417   3.393
 6441TIP3    H119287   6.521   5.410   3.431
 6441TIP3    H219288   6.607   5.501   3.346
 6442TIP3   OH219289   6.895   4.293   3.772
 6442TIP3    H119290   6.808   4.314   3.738
 6442TIP3    H219291   6.955   4.333   3.710
 6443TIP3   OH219292   6.192   3.934   3.755
 6443TIP3    H119293   6.183   3.842   3.779
 6443TIP3    H219294   6.116   3.977   3.796
 6444TIP3   OH219295   6.310   5.454   3.052
 6444TIP3    H119296   6.360   5.373   3.039
 6444TIP3    H219297   6.368   5.524   3.022
 6445TIP3   OH219298   6.461   5.235   2.996
 6445TIP3    H119299   6.439   5.153   2.951
 6445TIP3    H219300   6.500   5.206   3.079
 6446TIP3   OH219301   6.836   5.311   3.738
 6446TIP3    H119302   6.821   5.237   3.680
 6446TIP3    H219303   6.820   5.388   3.684
 6447TIP3   OH219304   6.128   4.714   3.007
 6447TIP3    H119305   6.048   4.763   2.989
 6447TIP3    H219306   6.174   4.712   2.923
 6448TIP3   OH219307   6.098   4.513   2.706
 6448TIP3    H119308   6.164   4.563   2.754
 6448TIP3    H219309   6.149   4.449   2.656
 6449TIP3   OH219310   7.021   4.970   3.597
 6449TIP3    H119311   6.939   5.018   3.591
 6449TIP3    H219312   7.057   4.973   3.509
 6450TIP3   OH219313   6.484   4.804   2.969
 6450TIP3    H119314   6.428   4.831   3.043
 6450TIP3    H219315   6.566   4.776   3.010
 6451TIP3   OH219316   6.707   4.838   3.906
 6451TIP3    H119317   6.704   4.921   3.953
 6451TIP3    H219318   6.624   4.834   3.858
 6452TIP3   OH219319   5.711   4.785   3.383
 6452TIP3    H119320   5.673   4.727   3.317
 6452TIP3    H219321   5.786   4.736   3.417
 6453TIP3   OH219322   5.845   5.209   3.519
 6453TIP3    H119323   5.822   5.189   3.428
 6453TIP3    H219324   5.932   5.170   3.530
 6454TIP3   OH219325   5.825   4.776   3.748
 6454TIP3    H119326   5.862   4.742   3.666
 6454TIP3    H219327   5.873   4.857   3.764
 6455TIP3   OH219328   6.371   5.412   3.524
 6455TIP3    H119329   6.357   5.490   3.577
 6455TIP3    H219330   6.356   5.339   3.585
 6456TIP3   OH219331   5.985   5.319   4.074
 6456TIP3    H119332   5.925   5.379   4.117
 6456TIP3    H219333   5.929   5.266   4.017
 6457TIP3   OH219334   6.317   4.662   2.803
 6457TIP3    H119335   6.376   4.719   2.852
 6457TIP3    H219336   6.343   4.674   2.711
 6458TIP3   OH219337   5.743   4.866   4.199
 6458TIP3    H119338   5.746   4.959   4.223
 6458TIP3    H219339   5.649   4.846   4.195
 6459TIP3   OH219340   6.062   5.333   3.068
 6459TIP3    H119341   6.146   5.380   3.070
 6459TIP3    H219342   6.004   5.390   3.017
 6460TIP3   OH219343   5.778   5.481   4.154
 6460TIP3    H119344   5.751   5.488   4.062
 6460TIP3    H219345   5.696   5.464   4.201
 6461TIP3   OH219346   6.810   3.913   2.857
 6461TIP3    H119347   6.733   3.932   2.911
 6461TIP3    H219348   6.818   3.989   2.800
 6462TIP3   OH219349   5.583   4.630   3.183
 6462TIP3    H119350   5.512   4.680   3.143
 6462TIP3    H219351   5.550   4.541   3.189
 6463TIP3   OH219352   6.619   5.273   2.402
 6463TIP3    H119353   6.625   5.367   2.384
 6463TIP3    H219354   6.710   5.242   2.398
 6464TIP3   OH219355   5.364   5.025   4.104
 6464TIP3    H119356   5.295   5.009   4.039
 6464TIP3    H219357   5.399   4.939   4.123
 6465TIP3   OH219358   5.217   5.216   3.743
 6465TIP3    H119359   5.312   5.225   3.742
 6465TIP3    H219360   5.186   5.295   3.788
 6466TIP3   OH219361   7.075   5.688   3.791
 6466TIP3    H119362   7.081   5.593   3.793
 6466TIP3    H219363   6.993   5.708   3.837
 6467TIP3   OH219364   6.176   5.453   3.928
 6467TIP3    H119365   6.173   5.545   3.955
 6467TIP3    H219366   6.107   5.411   3.980
 6468TIP3   OH219367   5.953   5.566   2.883
 6468TIP3    H119368   5.905   5.545   2.803
 6468TIP3    H219369   5.917   5.650   2.911
 6469TIP3   OH219370   5.388   5.416   3.263
 6469TIP3    H119371   5.431   5.408   3.348
 6469TIP3    H219372   5.338   5.335   3.253
 6470TIP3   OH219373   6.154   5.485   2.514
 6470TIP3    H119374   6.205   5.412   2.478
 6470TIP3    H219375   6.188   5.498   2.602
 6471TIP3   OH219376   6.206   5.531   2.783
 6471TIP3    H119377   6.120   5.537   2.825
 6471TIP3    H219378   6.263   5.496   2.852
 6472TIP3   OH219379   6.955   4.796   4.074
 6472TIP3    H119380   6.876   4.808   4.022
 6472TIP3    H219381   6.973   4.702   4.071
 6473TIP3   OH219382   5.565   5.210   4.073
 6473TIP3    H119383   5.615   5.198   4.154
 6473TIP3    H219384   5.493   5.148   4.080
 6474TIP3   OH219385   5.956   4.027   3.884
 6474TIP3    H119386   5.871   3.995   3.851
 6474TIP3    H219387   5.934   4.106   3.933
 6475TIP3   OH219388   6.498   4.142   4.081
 6475TIP3    H119389   6.567   4.114   4.141
 6475TIP3    H219390   6.417   4.122   4.127
 6476TIP3   OH219391   6.714   4.570   3.992
 6476TIP3    H119392   6.675   4.572   4.079
 6476TIP3    H219393   6.700   4.658   3.957
 6477TIP3   OH219394   6.396   4.678   2.544
 6477TIP3    H119395   6.350   4.667   2.461
 6477TIP3    H219396   6.479   4.720   2.521
 6478TIP3   OH219397   6.108   4.064   2.851
 6478TIP3    H119398   6.070   4.071   2.939
 6478TIP3    H219399   6.070   3.985   2.815
 6479TIP3   OH219400   5.892   4.552   3.895
 6479TIP3    H119401   5.845   4.562   3.978
 6479TIP3    H219402   5.874   4.632   3.847
 6480TIP3   OH219403   5.774   4.435   3.414
 6480TIP3    H119404   5.683   4.415   3.435
 6480TIP3    H219405   5.786   4.400   3.325
 6481TIP3   OH219406   6.259   4.512   3.141
 6481TIP3    H119407   6.210   4.583   3.100
 6481TIP3    H219408   6.316   4.479   3.072
 6482TIP3   OH219409   6.439   4.799   4.243
 6482TIP3    H119410   6.410   4.721   4.291
 6482TIP3    H219411   6.533   4.802   4.258
 6483TIP3   OH219412   6.421   4.530   3.369
 6483TIP3    H119413   6.354   4.555   3.305
 6483TIP3    H219414   6.466   4.455   3.329
 6484TIP3   OH219415   5.724   4.570   4.112
 6484TIP3    H119416   5.739   4.635   4.181
 6484TIP3    H219417   5.706   4.489   4.159
 6485TIP3   OH219418   5.772   4.049   2.825
 6485TIP3    H119419   5.758   4.049   2.920
 6485TIP3    H219420   5.695   4.092   2.789
 6486TIP3   OH219421   5.329   4.089   3.676
 6486TIP3    H119422   5.379   4.115   3.753
 6486TIP3    H219423   5.367   4.138   3.604
 6487TIP3   OH219424   6.453   4.779   3.794
 6487TIP3    H119425   6.480   4.712   3.731
 6487TIP3    H219426   6.412   4.730   3.866
 6488TIP3   OH219427   6.133   4.232   3.469
 6488TIP3    H119428   6.055   4.232   3.524
 6488TIP3    H219429   6.206   4.225   3.530
 6489TIP3   OH219430   5.529   4.310   3.474
 6489TIP3    H119431   5.445   4.315   3.429
 6489TIP3    H219432   5.564   4.225   3.448
 6490TIP3   OH219433   5.793   4.310   3.170
 6490TIP3    H119434   5.887   4.321   3.157
 6490TIP3    H219435   5.754   4.329   3.084
 6491TIP3   OH219436   6.598   4.315   3.680
 6491TIP3    H119437   6.569   4.335   3.769
 6491TIP3    H219438   6.530   4.257   3.645
 6492TIP3   OH219439   5.670   4.339   2.927
 6492TIP3    H119440   5.607   4.291   2.874
 6492TIP3    H219441   5.726   4.384   2.863
 6493TIP3   OH219442   6.782   6.018   3.895
 6493TIP3    H119443   6.776   6.038   3.801
 6493TIP3    H219444   6.858   6.068   3.925
 6494TIP3   OH219445   5.720   5.129   4.304
 6494TIP3    H119446   5.799   5.156   4.351
 6494TIP3    H219447   5.651   5.131   4.371
 6495TIP3   OH219448   6.190   4.590   3.571
 6495TIP3    H119449   6.258   4.544   3.522
 6495TIP3    H219450   6.191   4.548   3.657
 6496TIP3   OH219451   5.682   4.066   3.452
 6496TIP3    H119452   5.659   3.988   3.504
 6496TIP3    H219453   5.718   4.031   3.370
 6497TIP3   OH219454   6.161   4.495   3.844
 6497TIP3    H119455   6.072   4.525   3.863
 6497TIP3    H219456   6.217   4.551   3.896
 6498TIP3   OH219457   5.895   4.860   2.952
 6498TIP3    H119458   5.822   4.801   2.932
 6498TIP3    H219459   5.873   4.896   3.038
 6499TIP3   OH219460   6.785   5.106   3.562
 6499TIP3    H119461   6.815   5.159   3.489
 6499TIP3    H219462   6.704   5.065   3.531
 6500TIP3   OH219463   6.359   4.168   2.850
 6500TIP3    H119464   6.266   4.146   2.846
 6500TIP3    H219465   6.362   4.263   2.859
 6501TIP3   OH219466   6.295   5.189   3.956
 6501TIP3    H119467   6.321   5.176   4.047
 6501TIP3    H219468   6.253   5.275   3.956
 6502TIP3   OH219469   6.419   4.432   2.924
 6502TIP3    H119470   6.515   4.437   2.932
 6502TIP3    H219471   6.396   4.508   2.871
 6503TIP3   OH219472   5.593   4.883   3.614
 6503TIP3    H119473   5.627   4.860   3.527
 6503TIP3    H219474   5.654   4.842   3.675
 6504TIP3   OH219475   6.047   5.017   2.789
 6504TIP3    H119476   6.000   5.101   2.789
 6504TIP3    H219477   5.993   4.960   2.843
 6505TIP3   OH219478   5.473   4.798   4.236
 6505TIP3    H119479   5.480   4.780   4.330
 6505TIP3    H219480   5.398   4.745   4.208
 6506TIP3   OH219481   6.205   4.948   4.235
 6506TIP3    H119482   6.134   4.885   4.223
 6506TIP3    H219483   6.285   4.895   4.230
 6507TIP3   OH219484   6.450   5.464   3.853
 6507TIP3    H119485   6.355   5.454   3.858
 6507TIP3    H219486   6.474   5.509   3.934
 6508TIP3   OH219487   6.830   4.520   2.753
 6508TIP3    H119488   6.776   4.471   2.691
 6508TIP3    H219489   6.830   4.610   2.719
 6509TIP3   OH219490   7.079   5.409   3.816
 6509TIP3    H119491   6.985   5.388   3.813
 6509TIP3    H219492   7.115   5.370   3.736
 6510TIP3   OH219493   6.571   5.333   2.672
 6510TIP3    H119494   6.541   5.263   2.730
 6510TIP3    H219495   6.577   5.293   2.586
 6511TIP3   OH219496   6.554   4.972   3.467
 6511TIP3    H119497   6.464   4.949   3.488
 6511TIP3    H219498   6.590   4.893   3.427
 6512TIP3   OH219499   5.703   5.205   3.266
 6512TIP3    H119500   5.703   5.283   3.210
 6512TIP3    H219501   5.610   5.186   3.281
 6513TIP3   OH219502   5.226   4.533   2.919
 6513TIP3    H119503   5.290   4.594   2.956
 6513TIP3    H219504   5.167   4.512   2.991
 6514TIP3   OH219505   5.808   4.961   3.188
 6514TIP3    H119506   5.786   5.051   3.212
 6514TIP3    H219507   5.777   4.908   3.261
 6515TIP3   OH219508   5.985   5.533   3.723
 6515TIP3    H119509   6.021   5.605   3.672
 6515TIP3    H219510   6.060   5.497   3.770
 6516TIP3   OH219511   5.619   5.435   3.113
 6516TIP3    H119512   5.533   5.438   3.155
 6516TIP3    H219513   5.651   5.525   3.117
 6517TIP3   OH219514   6.346   5.186   3.686
 6517TIP3    H119515   6.335   5.181   3.781
 6517TIP3    H219516   6.419   5.127   3.668
 6518TIP3   OH219517   6.332   5.071   2.570
 6518TIP3    H119518   6.379   5.052   2.651
 6518TIP3    H219519   6.245   5.033   2.584
 6519TIP3   OH219520   6.598   5.698   3.733
 6519TIP3    H119521   6.523   5.639   3.739
 6519TIP3    H219522   6.577   5.757   3.661
 6520TIP3   OH219523   6.653   5.544   2.372
 6520TIP3    H119524   6.669   5.604   2.300
 6520TIP3    H219525   6.582   5.585   2.422
 6521TIP3   OH219526   5.676   4.318   4.240
 6521TIP3    H119527   5.581   4.326   4.246
 6521TIP3    H219528   5.700   4.265   4.316
 6522TIP3   OH219529   6.496   5.013   2.787
 6522TIP3    H119530   6.481   4.941   2.849
 6522TIP3    H219531   6.590   5.012   2.771
 6523TIP3   OH219532   5.414   5.411   3.884
 6523TIP3    H119533   5.464   5.344   3.930
 6523TIP3    H219534   5.432   5.492   3.932
 6524TIP3   OH219535   5.686   5.040   2.572
 6524TIP3    H119536   5.696   4.949   2.545
 6524TIP3    H219537   5.668   5.036   2.666
 6525TIP3   OH219538   5.632   5.058   2.844
 6525TIP3    H119539   5.703   5.028   2.901
 6525TIP3    H219540   5.633   5.153   2.851
 6526TIP3   OH219541   5.368   4.747   3.053
 6526TIP3    H119542   5.299   4.788   3.107
 6526TIP3    H219543   5.384   4.809   2.983
 6527TIP3   OH219544   6.521   4.378   3.938
 6527TIP3    H119545   6.601   4.421   3.967
 6527TIP3    H219546   6.515   4.299   3.992
 6528TIP3   OH219547   6.406   4.126   3.121
 6528TIP3    H119548   6.389   4.142   3.028
 6528TIP3    H219549   6.450   4.205   3.151
 6529TIP3   OH219550   5.904   5.247   2.789
 6529TIP3    H119551   5.818   5.271   2.825
 6529TIP3    H219552   5.925   5.319   2.729
 6530TIP3   OH219553   6.074   4.318   3.210
 6530TIP3    H119554   6.136   4.386   3.184
 6530TIP3    H219555   6.094   4.301   3.302
 6531TIP3   OH219556   6.367   4.616   3.997
 6531TIP3    H119557   6.391   4.650   4.083
 6531TIP3    H219558   6.414   4.532   3.991
 6532TIP3   OH219559   6.228   4.021   3.303
 6532TIP3    H119560   6.205   4.098   3.355
 6532TIP3    H219561   6.294   4.052   3.242
 6533TIP3   OH219562   5.651   5.331   2.859
 6533TIP3    H119563   5.625   5.401   2.799
 6533TIP3    H219564   5.637   5.369   2.946
 6534TIP3   OH219565   5.744   4.038   3.107
 6534TIP3    H119566   5.737   4.130   3.133
 6534TIP3    H219567   5.838   4.020   3.108
 6535TIP3   OH219568   6.981   4.528   3.996
 6535TIP3    H119569   6.885   4.523   3.995
 6535TIP3    H219570   7.006   4.511   3.905
 6536TIP3   OH219571   6.640   4.718   3.370
 6536TIP3    H119572   6.562   4.663   3.377
 6536TIP3    H219573   6.704   4.676   3.428
 6537TIP3   OH219574   5.381   4.934   2.843
 6537TIP3    H119575   5.453   4.997   2.851
 6537TIP3    H219576   5.412   4.870   2.780
 6538TIP3   OH219577   6.627   5.686   3.313
 6538TIP3    H119578   6.584   5.735   3.243
 6538TIP3    H219579   6.721   5.699   3.296
 6539TIP3   OH219580   5.691   3.944   3.844
 6539TIP3    H119581   5.665   3.910   3.759
 6539TIP3    H219582   5.685   3.868   3.903
 6540TIP3   OH219583   5.222   5.186   3.231
 6540TIP3    H119584   5.167   5.216   3.304
 6540TIP3    H219585   5.183   5.226   3.153
 6541TIP3   OH219586   5.407   5.725   4.305
 6541TIP3    H119587   5.490   5.728   4.352
 6541TIP3    H219588   5.387   5.632   4.296
 6542TIP3   OH219589   5.878   5.656   4.343
 6542TIP3    H119590   5.971   5.633   4.351
 6542TIP3    H219591   5.845   5.598   4.274
 6543TIP3   OH219592   5.848   5.240   2.470
 6543TIP3    H119593   5.798   5.169   2.512
 6543TIP3    H219594   5.922   5.196   2.429
 6544TIP3   OH219595   6.501   5.580   4.099
 6544TIP3    H119596   6.512   5.510   4.163
 6544TIP3    H219597   6.578   5.636   4.109
 6545TIP3   OH219598   6.285   5.278   2.392
 6545TIP3    H119599   6.319   5.213   2.454
 6545TIP3    H219600   6.346   5.275   2.318
 6546TIP3   OH219601   5.520   5.121   4.498
 6546TIP3    H119602   5.537   5.027   4.506
 6546TIP3    H219603   5.433   5.125   4.457
 6547TIP3   OH219604   5.511   4.743   2.699
 6547TIP3    H119605   5.563   4.717   2.774
 6547TIP3    H219606   5.575   4.753   2.628
 6548TIP3   OH219607   6.135   5.212   4.278
 6548TIP3    H119608   6.087   5.235   4.198
 6548TIP3    H219609   6.163   5.121   4.264
 6549TIP3   OH219610   6.059   4.960   2.520
 6549TIP3    H119611   6.042   4.972   2.614
 6549TIP3    H219612   6.049   4.866   2.506
 6550TIP3   OH219613   6.618   5.240   3.892
 6550TIP3    H119614   6.693   5.270   3.842
 6550TIP3    H219615   6.550   5.305   3.874
 6551TIP3   OH219616   5.638   4.862   4.495
 6551TIP3    H119617   5.717   4.840   4.445
 6551TIP3    H219618   5.670   4.883   4.582
 6552TIP3   OH219619   5.692   4.675   2.907
 6552TIP3    H119620   5.668   4.638   2.992
 6552TIP3    H219621   5.737   4.603   2.862
 6553TIP3   OH219622   5.995   4.748   4.155
 6553TIP3    H119623   5.911   4.794   4.163
 6553TIP3    H219624   6.030   4.777   4.070
 6554TIP3   OH219625   5.824   4.484   2.752
 6554TIP3    H119626   5.793   4.487   2.661
 6554TIP3    H219627   5.919   4.489   2.746
 6555TIP3   OH219628   6.509   5.128   4.272
 6555TIP3    H119629   6.570   5.094   4.207
 6555TIP3    H219630   6.453   5.053   4.294
 6556TIP3   OH219631   6.623   4.785   2.427
 6556TIP3    H119632   6.605   4.742   2.344
 6556TIP3    H219633   6.597   4.876   2.413
 6557TIP3   OH219634   6.109   4.520   4.256
 6557TIP3    H119635   6.106   4.448   4.193
 6557TIP3    H219636   6.068   4.593   4.209
 6558TIP3   OH219637   6.109   4.314   4.064
 6558TIP3    H119638   6.135   4.354   3.981
 6558TIP3    H219639   6.017   4.290   4.052
 6559TIP3   OH219640   6.119   4.842   3.932
 6559TIP3    H119641   6.208   4.874   3.918
 6559TIP3    H219642   6.063   4.907   3.890
 6560TIP3   OH219643   6.701   4.822   4.340
 6560TIP3    H119644   6.740   4.736   4.324
 6560TIP3    H219645   6.769   4.884   4.314
 6561TIP3   OH219646   6.739   5.072   4.064
 6561TIP3    H119647   6.686   5.132   4.011
 6561TIP3    H219648   6.829   5.086   4.032
 6562TIP3   OH219649   5.984   4.607   4.492
 6562TIP3    H119650   5.915   4.544   4.514
 6562TIP3    H219651   6.015   4.579   4.405
 6563TIP3   OH219652   6.234   4.082   4.161
 6563TIP3    H119653   6.192   4.162   4.129
 6563TIP3    H219654   6.167   4.014   4.149
 6564TIP3   OH219655   6.358   4.565   4.363
 6564TIP3    H119656   6.340   4.554   4.456
 6564TIP3    H219657   6.275   4.544   4.320
 6565TIP3   OH219658   6.608   4.544   4.239
 6565TIP3    H119659   6.528   4.531   4.290
 6565TIP3    H219660   6.677   4.504   4.291
 6566TIP3   OH219661   6.834   4.472   4.384
 6566TIP3    H119662   6.843   4.377   4.394
 6566TIP3    H219663   6.829   4.505   4.474
 6567TIP3   OH219664   5.816   4.393   4.567
 6567TIP3    H119665   5.821   4.303   4.533
 6567TIP3    H219666   5.854   4.388   4.655
 6568TIP3   OH219667   6.310   4.076   4.425
 6568TIP3    H119668   6.378   4.008   4.420
 6568TIP3    H219669   6.276   4.082   4.336
 6569TIP3   OH219670   6.390   4.295   4.573
 6569TIP3    H119671   6.365   4.222   4.516
 6569TIP3    H219672   6.317   4.356   4.568
 6570TIP3   OH219673   5.638   5.541   2.672
 6570TIP3    H119674   5.728   5.519   2.649
 6570TIP3    H219675   5.605   5.588   2.595
 6571TIP3   OH219676   5.109   4.921   2.880
 6571TIP3    H119677   5.202   4.939   2.869
 6571TIP3    H219678   5.094   4.839   2.834
 6572TIP3   OH219679   5.016   5.508   3.313
 6572TIP3    H119680   4.951   5.453   3.268
 6572TIP3    H219681   5.060   5.448   3.373
 6573TIP3   OH219682   5.154   5.347   3.489
 6573TIP3    H119683   5.141   5.277   3.554
 6573TIP3    H219684   5.206   5.413   3.535
 6574TIP3   OH219685   6.896   5.743   3.292
 6574TIP3    H119686   6.915   5.779   3.378
 6574TIP3    H219687   6.956   5.789   3.233
 6575TIP3   OH219688   6.908   5.777   3.573
 6575TIP3    H119689   6.864   5.692   3.568
 6575TIP3    H219690   6.984   5.761   3.628
 6576TIP3   OH219691   6.965   5.467   4.146
 6576TIP3    H119692   6.891   5.475   4.206
 6576TIP3    H219693   7.005   5.554   4.145
 6577TIP3   OH219694   6.770   4.989   2.765
 6577TIP3    H119695   6.828   5.061   2.738
 6577TIP3    H219696   6.814   4.950   2.841
 6578TIP3   OH219697   6.893   4.851   2.967
 6578TIP3    H119698   6.827   4.810   3.023
 6578TIP3    H219699   6.954   4.892   3.028
 6579TIP3   OH219700   6.948   5.256   3.397
 6579TIP3    H119701   6.999   5.187   3.355
 6579TIP3    H219702   6.951   5.329   3.335
 6580TIP3   OH219703   6.773   5.533   3.588
 6580TIP3    H119704   6.704   5.578   3.636
 6580TIP3    H219705   6.727   5.491   3.515
 6581TIP3   OH219706   6.808   4.759   2.624
 6581TIP3    H119707   6.742   4.759   2.555
 6581TIP3    H219708   6.791   4.839   2.674
 6582TIP3   OH219709   6.676   4.417   2.555
 6582TIP3    H119710   6.643   4.458   2.476
 6582TIP3    H219711   6.661   4.323   2.542
 6583TIP3   OH219712   6.706   4.702   3.103
 6583TIP3    H119713   6.711   4.607   3.091
 6583TIP3    H219714   6.689   4.714   3.196
 6584TIP3   OH219715   5.336   4.771   3.864
 6584TIP3    H119716   5.326   4.738   3.775
 6584TIP3    H219717   5.430   4.771   3.879
 6585TIP3   OH219718   6.991   5.127   3.962
 6585TIP3    H119719   7.061   5.063   3.947
 6585TIP3    H219720   6.998   5.188   3.889
 6586TIP3   OH219721   7.172   4.922   3.967
 6586TIP3    H119722   7.098   4.878   4.008
 6586TIP3    H219723   7.246   4.863   3.982
 6587TIP3   OH219724   6.636   4.150   2.519
 6587TIP3    H119725   6.703   4.123   2.581
 6587TIP3    H219726   6.557   4.104   2.548
 6588TIP3   OH219727   6.706   4.429   2.989
 6588TIP3    H119728   6.749   4.344   3.003
 6588TIP3    H219729   6.748   4.466   2.912
 6589TIP3   OH219730   6.840   4.591   3.517
 6589TIP3    H119731   6.913   4.622   3.464
 6589TIP3    H219732   6.855   4.628   3.604
 6590TIP3   OH219733   6.918   4.754   3.735
 6590TIP3    H119734   6.843   4.789   3.783
 6590TIP3    H219735   6.950   4.828   3.683
 6591TIP3   OH219736   5.552   4.451   4.518
 6591TIP3    H119737   5.647   4.448   4.530
 6591TIP3    H219738   5.520   4.370   4.558
 6592TIP3   OH219739   7.362   4.311   4.301
 6592TIP3    H119740   7.405   4.251   4.240
 6592TIP3    H219741   7.351   4.392   4.251
 6593TIP3   OH219742   6.810   4.178   3.044
 6593TIP3    H119743   6.851   4.167   3.130
 6593TIP3    H219744   6.747   4.106   3.039
 6594TIP3   OH219745   5.515   4.159   3.871
 6594TIP3    H119746   5.573   4.083   3.874
 6594TIP3    H219747   5.574   4.233   3.856
 6595TIP3   OH219748   5.311   4.429   3.925
 6595TIP3    H119749   5.365   4.426   3.846
 6595TIP3    H219750   5.331   4.514   3.964
 6596TIP3   OH219751   7.229   4.442   4.072
 6596TIP3    H119752   7.147   4.490   4.081
 6596TIP3    H219753   7.205   4.359   4.032
 6597TIP3   OH219754   6.867   4.106   2.666
 6597TIP3    H119755   6.904   4.028   2.625
 6597TIP3    H219756   6.941   4.166   2.675
 6598TIP3   OH219757   6.456   5.650   2.940
 6598TIP3    H119758   6.510   5.636   2.862
 6598TIP3    H219759   6.503   5.717   2.990
 6599TIP3   OH219760   5.519   3.995   4.246
 6599TIP3    H119761   5.470   3.990   4.328
 6599TIP3    H219762   5.461   4.043   4.186
 6600TIP3   OH219763   5.556   5.447   4.317
 6600TIP3    H119764   5.463   5.427   4.315
 6600TIP3    H219765   5.582   5.434   4.409
 6601TIP3   OH219766   5.757   5.489   3.871
 6601TIP3    H119767   5.703   5.561   3.838
 6601TIP3    H219768   5.841   5.499   3.827
 6602TIP3   OH219769   6.170   5.720   4.006
 6602TIP3    H119770   6.207   5.717   4.094
 6602TIP3    H219771   6.233   5.773   3.956
 6603TIP3   OH219772   6.356   5.877   3.876
 6603TIP3    H119773   6.418   5.826   3.823
 6603TIP3    H219774   6.411   5.930   3.933
 6604TIP3   OH219775   7.120   4.210   3.979
 6604TIP3    H119776   7.032   4.210   3.943
 6604TIP3    H219777   7.154   4.122   3.962
 6605TIP3   OH219778   5.420   5.740   3.913
 6605TIP3    H119779   5.329   5.758   3.890
 6605TIP3    H219780   5.441   5.803   3.982
 6606TIP3   OH219781   5.650   5.720   3.763
 6606TIP3    H119782   5.567   5.727   3.810
 6606TIP3    H219783   5.629   5.746   3.673
 6607TIP3   OH219784   6.071   5.738   3.556
 6607TIP3    H119785   6.002   5.750   3.491
 6607TIP3    H219786   6.082   5.825   3.595
 6608TIP3   OH219787   6.336   5.677   3.612
 6608TIP3    H119788   6.245   5.694   3.590
 6608TIP3    H219789   6.386   5.741   3.562
 6609TIP3   OH219790   6.537   5.855   3.511
 6609TIP3    H119791   6.530   5.941   3.470
 6609TIP3    H219792   6.568   5.797   3.441
 6610TIP3   OH219793   5.331   5.518   3.639
 6610TIP3    H119794   5.355   5.489   3.727
 6610TIP3    H219795   5.402   5.484   3.583
 6611TIP3   OH219796   5.532   5.400   3.498
 6611TIP3    H119797   5.543   5.317   3.544
 6611TIP3    H219798   5.619   5.440   3.499
 6612TIP3   OH219799   5.800   5.487   3.515
 6612TIP3    H119800   5.819   5.394   3.500
 6612TIP3    H219801   5.852   5.510   3.592
 6613TIP3   OH219802   6.369   4.142   3.602
 6613TIP3    H119803   6.328   4.069   3.649
 6613TIP3    H219804   6.436   4.101   3.548
 6614TIP3   OH219805   6.871   4.041   3.509
 6614TIP3    H119806   6.904   4.094   3.437
 6614TIP3    H219807   6.776   4.055   3.508
 6615TIP3   OH219808   6.963   4.139   3.271
 6615TIP3    H119809   7.026   4.078   3.232
 6615TIP3    H219810   6.997   4.225   3.251
 6616TIP3   OH219811   5.613   3.837   3.599
 6616TIP3    H119812   5.524   3.801   3.606
 6616TIP3    H219813   5.670   3.759   3.597
 6617TIP3   OH219814   6.071   3.881   3.495
 6617TIP3    H119815   6.120   3.925   3.426
 6617TIP3    H219816   6.114   3.908   3.576
 6618TIP3   OH219817   6.587   4.027   3.472
 6618TIP3    H119818   6.600   3.995   3.383
 6618TIP3    H219819   6.584   3.949   3.526
 6619TIP3   OH219820   6.625   3.971   3.049
 6619TIP3    H119821   6.542   4.014   3.070
 6619TIP3    H219822   6.615   3.883   3.084
 6620TIP3   OH219823   5.107   5.309   3.014
 6620TIP3    H119824   5.022   5.274   2.986
 6620TIP3    H219825   5.106   5.400   2.986
 6621TIP3   OH219826   5.518   3.883   3.022
 6621TIP3    H119827   5.557   3.820   2.962
 6621TIP3    H219828   5.592   3.933   3.056
 6622TIP3   OH219829   6.020   4.067   3.115
 6622TIP3    H119830   6.079   4.015   3.169
 6622TIP3    H219831   6.037   4.158   3.141
 6623TIP3   OH219832   5.896   5.468   2.611
 6623TIP3    H119833   5.981   5.494   2.576
 6623TIP3    H219834   5.868   5.395   2.555
 6624TIP3   OH219835   6.603   5.601   2.709
 6624TIP3    H119836   6.596   5.506   2.700
 6624TIP3    H219837   6.558   5.636   2.632
 6625TIP3   OH219838   5.824   4.119   4.487
 6625TIP3    H119839   5.788   4.052   4.546
 6625TIP3    H219840   5.917   4.124   4.512
 6626TIP3   OH219841   6.076   4.121   4.606
 6626TIP3    H119842   6.156   4.100   4.558
 6626TIP3    H219843   6.068   4.052   4.672
 6627TIP3   OH219844   5.201   5.311   2.669
 6627TIP3    H119845   5.199   5.315   2.765
 6627TIP3    H219846   5.283   5.265   2.649
 6628TIP3   OH219847   6.885   4.203   4.410
 6628TIP3    H119848   6.908   4.176   4.499
 6628TIP3    H219849   6.968   4.201   4.362
 6629TIP3   OH219850   6.824   5.745   3.893
 6629TIP3    H119851   6.749   5.715   3.842
 6629TIP3    H219852   6.812   5.840   3.901
 6630TIP3   OH219853  -0.005   5.092   3.403
 6630TIP3    H119854   0.044   5.013   3.424
 6630TIP3    H219855   0.004   5.148   3.480
 6631TIP3   OH219856   7.325   5.415   3.160
 6631TIP3    H119857   7.327   5.320   3.155
 6631TIP3    H219858   7.389   5.436   3.228
 6632TIP3   OH219859   7.040   4.627   2.903
 6632TIP3    H119860   6.997   4.709   2.928
 6632TIP3    H219861   6.972   4.578   2.856
 6633TIP3   OH219862   7.121   4.932   3.098
 6633TIP3    H119863   7.160   4.848   3.122
 6633TIP3    H219864   7.180   4.967   3.031
 6634TIP3   OH219865   7.247   4.703   3.174
 6634TIP3    H119866   7.308   4.679   3.244
 6634TIP3    H219867   7.292   4.678   3.093
 6635TIP3   OH219868   0.180   4.487   3.556
 6635TIP3    H119869   0.139   4.538   3.485
 6635TIP3    H219870   0.113   4.484   3.624
 6636TIP3   OH219871   0.057   4.609   3.340
 6636TIP3    H119872   0.081   4.702   3.336
 6636TIP3    H219873   0.134   4.563   3.309
 6637TIP3   OH219874   0.098   5.480   3.361
 6637TIP3    H119875   0.129   5.571   3.364
 6637TIP3    H219876   0.055   5.467   3.446
 6638TIP3   OH219877   6.941   5.180   2.663
 6638TIP3    H119878   6.900   5.195   2.578
 6638TIP3    H219879   6.967   5.267   2.693
 6639TIP3   OH219880   0.129   4.971   2.932
 6639TIP3    H119881   0.048   4.955   2.882
 6639TIP3    H219882   0.184   5.021   2.872
 6640TIP3   OH219883   0.079   5.165   3.647
 6640TIP3    H119884   0.141   5.195   3.714
 6640TIP3    H219885  -0.001   5.144   3.696
 6641TIP3   OH219886   0.079   5.854   3.660
 6641TIP3    H119887   0.145   5.807   3.609
 6641TIP3    H219888   0.043   5.789   3.720
 6642TIP3   OH219889   7.315   4.928   2.772
 6642TIP3    H119890   7.281   4.960   2.688
 6642TIP3    H219891   7.305   4.833   2.767
 6643TIP3   OH219892   7.155   5.281   3.589
 6643TIP3    H119893   7.085   5.268   3.525
 6643TIP3    H219894   7.178   5.192   3.618
 6644TIP3   OH219895   7.008   5.480   3.235
 6644TIP3    H119896   7.103   5.492   3.239
 6644TIP3    H219897   6.972   5.561   3.271
 6645TIP3   OH219898   7.175   5.672   2.753
 6645TIP3    H119899   7.224   5.663   2.835
 6645TIP3    H219900   7.132   5.588   2.741
 6646TIP3   OH219901   7.338   5.486   3.583
 6646TIP3    H119902   7.392   5.474   3.661
 6646TIP3    H219903   7.277   5.412   3.585
 6647TIP3   OH219904   0.141   4.865   3.299
 6647TIP3    H119905   0.202   4.870   3.372
 6647TIP3    H219906   0.196   4.858   3.222
 6648TIP3   OH219907   0.166   4.715   2.832
 6648TIP3    H119908   0.080   4.699   2.871
 6648TIP3    H219909   0.189   4.803   2.860
 6649TIP3   OH219910   0.116   4.898   3.586
 6649TIP3    H119911   0.122   4.987   3.622
 6649TIP3    H219912   0.142   4.841   3.658
 6650TIP3   OH219913   7.094   4.355   3.172
 6650TIP3    H119914   7.135   4.402   3.244
 6650TIP3    H219915   7.168   4.326   3.118
 6651TIP3   OH219916   7.047   4.356   2.712
 6651TIP3    H119917   7.072   4.373   2.622
 6651TIP3    H219918   6.969   4.410   2.727
 6652TIP3   OH219919   7.309   4.665   2.900
 6652TIP3    H119920   7.214   4.661   2.892
 6652TIP3    H219921   7.335   4.576   2.925
 6653TIP3   OH219922   0.130   4.542   2.329
 6653TIP3    H119923   0.076   4.558   2.406
 6653TIP3    H219924   0.068   4.533   2.257
 6654TIP3   OH219925   0.075   5.436   3.823
 6654TIP3    H119926   0.154   5.384   3.837
 6654TIP3    H219927   0.015   5.409   3.891
 6655TIP3   OH219928   7.378   5.119   3.135
 6655TIP3    H119929   7.430   5.047   3.099
 6655TIP3    H219930   7.389   5.111   3.230
 6656TIP3   OH219931   7.244   5.059   3.736
 6656TIP3    H119932   7.249   5.030   3.827
 6656TIP3    H219933   7.176   5.004   3.697
 6657TIP3   OH219934   7.022   4.785   2.458
 6657TIP3    H119935   7.056   4.871   2.482
 6657TIP3    H219936   6.949   4.771   2.518
 6658TIP3   OH219937   7.398   4.512   3.753
 6658TIP3    H119938   7.307   4.543   3.761
 6658TIP3    H219939   7.414   4.466   3.835
 6659TIP3   OH219940   7.213   5.671   3.377
 6659TIP3    H119941   7.260   5.608   3.431
 6659TIP3    H219942   7.236   5.756   3.415
 6660TIP3   OH219943   7.129   5.031   2.535
 6660TIP3    H119944   7.071   5.070   2.600
 6660TIP3    H219945   7.130   5.093   2.462
 6661TIP3   OH219946   7.126   5.211   2.318
 6661TIP3    H119947   7.204   5.263   2.334
 6661TIP3    H219948   7.157   5.135   2.268
 6662TIP3   OH219949   7.019   4.480   2.456
 6662TIP3    H119950   7.056   4.568   2.463
 6662TIP3    H219951   6.971   4.481   2.373
 6663TIP3   OH219952   7.326   4.101   3.451
 6663TIP3    H119953   7.329   4.161   3.377
 6663TIP3    H219954   7.417   4.088   3.475
 6664TIP3   OH219955   7.008   5.443   2.724
 6664TIP3    H119956   6.965   5.485   2.798
 6664TIP3    H219957   6.971   5.486   2.647
 6665TIP3   OH219958   7.190   5.960   3.775
 6665TIP3    H119959   7.283   5.946   3.792
 6665TIP3    H219960   7.152   5.872   3.775
 6666TIP3   OH219961   7.268   5.406   4.012
 6666TIP3    H119962   7.294   5.314   4.010
 6666TIP3    H219963   7.190   5.410   3.957
 6667TIP3   OH219964   7.225   4.979   2.222
 6667TIP3    H119965   7.250   4.887   2.232
 6667TIP3    H219966   7.298   5.018   2.173
 6668TIP3   OH219967  -0.007   5.173   3.986
 6668TIP3    H119968   0.072   5.161   3.934
 6668TIP3    H219969   0.023   5.167   4.077
 6669TIP3   OH219970   0.433   4.872   3.932
 6669TIP3    H119971   0.375   4.801   3.958
 6669TIP3    H219972   0.467   4.846   3.846
 6670TIP3   OH219973   0.266   4.672   4.014
 6670TIP3    H119974   0.275   4.610   3.941
 6670TIP3    H219975   0.239   4.618   4.088
 6671TIP3   OH219976   6.870   5.173   2.393
 6671TIP3    H119977   6.958   5.199   2.364
 6671TIP3    H219978   6.852   5.093   2.344
 6672TIP3   OH219979   6.806   5.758   2.801
 6672TIP3    H119980   6.742   5.703   2.757
 6672TIP3    H219981   6.852   5.699   2.860
 6673TIP3   OH219982   6.949   5.596   2.974
 6673TIP3    H119983   6.941   5.531   3.044
 6673TIP3    H219984   7.002   5.665   3.011
 6674TIP3   OH219985   7.120   5.052   3.345
 6674TIP3    H119986   7.113   5.013   3.258
 6674TIP3    H219987   7.213   5.070   3.355
 6675TIP3   OH219988   7.326   4.700   3.999
 6675TIP3    H119989   7.413   4.723   4.031
 6675TIP3    H219990   7.303   4.620   4.047
 6676TIP3   OH219991   7.231   4.457   3.394
 6676TIP3    H119992   7.289   4.388   3.363
 6676TIP3    H219993   7.286   4.534   3.400
 6677TIP3   OH219994   7.050   4.701   3.388
 6677TIP3    H119995   7.083   4.673   3.303
 6677TIP3    H219996   7.122   4.750   3.427
 6678TIP3   OH219997   7.056   4.150   2.903
 6678TIP3    H119998   6.978   4.153   2.960
 6678TIP3    H219999   7.054   4.233   2.855
 6679TIP3   OH220000   7.250   4.230   3.731
 6679TIP3    H120001   7.206   4.231   3.817
 6679TIP3    H220002   7.194   4.284   3.675
 6680TIP3   OH220003   7.344   5.720   3.865
 6680TIP3    H120004   7.265   5.700   3.815
 6680TIP3    H220005   7.342   5.659   3.939
 6681TIP3   OH220006   0.153   5.746   3.385
 6681TIP3    H120007   0.101   5.810   3.337
 6681TIP3    H220008   0.241   5.783   3.388
 6682TIP3   OH220009   7.213   5.983   3.400
 6682TIP3    H120010   7.123   6.008   3.379
 6682TIP3    H220011   7.240   6.045   3.468
 6683TIP3   OH220012   7.414   5.923   3.221
 6683TIP3    H120013   7.346   5.942   3.286
 6683TIP3    H220014   7.388   5.973   3.143
 6684TIP3   OH220015   7.130   5.770   3.128
 6684TIP3    H120016   7.157   5.744   3.216
 6684TIP3    H220017   7.198   5.736   3.070
 6685TIP3   OH220018   7.318   5.630   2.987
 6685TIP3    H120019   7.308   5.556   3.046
 6685TIP3    H220020   7.409   5.625   2.957
 6686TIP3   OH220021   0.063   4.195   3.028
 6686TIP3    H120022   0.070   4.116   3.082
 6686TIP3    H220023   0.123   4.180   2.955
 6687TIP3   OH220024   7.133   3.944   2.725
 6687TIP3    H120025   7.200   4.011   2.715
 6687TIP3    H220026   7.081   3.973   2.800
 6688TIP3   OH220027   6.904   5.557   2.497
 6688TIP3    H120028   6.816   5.530   2.469
 6688TIP3    H220029   6.907   5.651   2.478
 6689TIP3   OH220030   7.316   4.029   2.400
 6689TIP3    H120031   7.223   4.008   2.408
 6689TIP3    H220032   7.321   4.123   2.416
 6690TIP3   OH220033   0.146   4.378   3.944
 6690TIP3    H120034   0.114   4.299   3.989
 6690TIP3    H220035   0.241   4.367   3.944
 6691TIP3   OH220036   6.976   5.564   2.185
 6691TIP3    H120037   6.949   5.610   2.265
 6691TIP3    H220038   7.016   5.483   2.216
 6692TIP3   OH220039   0.582   5.874   4.375
 6692TIP3    H120040   0.554   5.941   4.437
 6692TIP3    H220041   0.504   5.856   4.322
 6693TIP3   OH220042   0.610   5.897   4.717
 6693TIP3    H120043   0.639   5.890   4.808
 6693TIP3    H220044   0.596   5.806   4.689
 6694TIP3   OH220045   0.809   6.202   4.419
 6694TIP3    H120046   0.818   6.134   4.485
 6694TIP3    H220047   0.836   6.283   4.463
 6695TIP3   OH220048   1.379   5.452   4.776
 6695TIP3    H120049   1.401   5.535   4.818
 6695TIP3    H220050   1.402   5.464   4.684
 6696TIP3   OH220051   0.810   5.631   4.813
 6696TIP3    H120052   0.846   5.542   4.818
 6696TIP3    H220053   0.717   5.617   4.793
 6697TIP3   OH220054   0.814   5.400   4.385
 6697TIP3    H120055   0.875   5.384   4.457
 6697TIP3    H220056   0.870   5.423   4.311
 6698TIP3   OH220057   1.449   5.666   4.948
 6698TIP3    H120058   1.364   5.708   4.936
 6698TIP3    H220059   1.484   5.706   5.027
 6699TIP3   OH220060   0.985   5.397   4.599
 6699TIP3    H120061   0.952   5.371   4.685
 6699TIP3    H220062   1.043   5.471   4.618
 6700TIP3   OH220063   0.835   6.442   4.573
 6700TIP3    H120064   0.740   6.430   4.569
 6700TIP3    H220065   0.851   6.527   4.533
 6701TIP3   OH220066   1.175   5.338   4.941
 6701TIP3    H120067   1.088   5.362   4.908
 6701TIP3    H220068   1.235   5.370   4.874
 6702TIP3   OH220069   0.409   4.995   4.988
 6702TIP3    H120070   0.492   4.956   5.014
 6702TIP3    H220071   0.406   5.078   5.036
 6703TIP3   OH220072   0.619   6.496   4.297
 6703TIP3    H120073   0.639   6.412   4.255
 6703TIP3    H220074   0.620   6.559   4.225
 6704TIP3   OH220075   0.701   6.261   4.172
 6704TIP3    H120076   0.723   6.193   4.108
 6704TIP3    H220077   0.742   6.232   4.253
 6705TIP3   OH220078   1.092   6.361   4.925
 6705TIP3    H120079   1.075   6.282   4.872
 6705TIP3    H220080   1.070   6.434   4.867
 6706TIP3   OH220081   0.405   5.779   4.182
 6706TIP3    H120082   0.319   5.767   4.142
 6706TIP3    H220083   0.466   5.777   4.109
 6707TIP3   OH220084   0.432   5.565   3.864
 6707TIP3    H120085   0.494   5.628   3.901
 6707TIP3    H220086   0.485   5.510   3.807
 6708TIP3   OH220087   1.282   6.010   4.774
 6708TIP3    H120088   1.199   6.057   4.779
 6708TIP3    H220089   1.314   6.026   4.685
 6709TIP3   OH220090   0.761   5.874   4.169
 6709TIP3    H120091   0.707   5.882   4.247
 6709TIP3    H220092   0.844   5.836   4.200
 6710TIP3   OH220093   0.990   5.869   5.086
 6710TIP3    H120094   0.992   5.951   5.136
 6710TIP3    H220095   0.910   5.875   5.035
 6711TIP3   OH220096   0.610   5.731   3.995
 6711TIP3    H120097   0.669   5.784   4.049
 6711TIP3    H220098   0.637   5.750   3.905
 6712TIP3   OH220099   1.088   4.934   4.028
 6712TIP3    H120100   1.009   4.953   4.079
 6712TIP3    H220101   1.100   5.012   3.974
 6713TIP3   OH220102   0.896   6.291   3.584
 6713TIP3    H120103   0.896   6.385   3.569
 6713TIP3    H220104   0.986   6.263   3.567
 6714TIP3   OH220105   1.334   6.716   4.980
 6714TIP3    H120106   1.340   6.621   4.992
 6714TIP3    H220107   1.250   6.740   5.020
 6715TIP3   OH220108   0.463   6.553   3.684
 6715TIP3    H120109   0.488   6.467   3.651
 6715TIP3    H220110   0.420   6.536   3.768
 6716TIP3   OH220111   1.222   5.836   5.256
 6716TIP3    H120112   1.140   5.850   5.209
 6716TIP3    H220113   1.237   5.742   5.253
 6717TIP3   OH220114   0.735   5.183   5.288
 6717TIP3    H120115   0.824   5.161   5.313
 6717TIP3    H220116   0.684   5.173   5.368
 6718TIP3   OH220117   0.960   5.603   5.177
 6718TIP3    H120118   0.923   5.603   5.265
 6718TIP3    H220119   0.954   5.694   5.149
 6719TIP3   OH220120   0.667   5.756   3.735
 6719TIP3    H120121   0.620   5.724   3.658
 6719TIP3    H220122   0.752   5.785   3.702
 6720TIP3   OH220123   0.505   5.550   4.304
 6720TIP3    H120124   0.467   5.630   4.268
 6720TIP3    H220125   0.563   5.517   4.235
 6721TIP3   OH220126   0.729   5.826   5.413
 6721TIP3    H120127   0.812   5.805   5.456
 6721TIP3    H220128   0.721   5.921   5.421
 6722TIP3   OH220129   0.679   5.603   4.519
 6722TIP3    H120130   0.623   5.636   4.449
 6722TIP3    H220131   0.723   5.527   4.481
 6723TIP3   OH220132   0.744   5.851   4.957
 6723TIP3    H120133   0.776   5.776   4.906
 6723TIP3    H220134   0.701   5.812   5.033
 6724TIP3   OH220135   0.863   5.358   4.856
 6724TIP3    H120136   0.836   5.378   4.946
 6724TIP3    H220137   0.797   5.296   4.825
 6725TIP3   OH220138   3.488   0.072   5.089
 6725TIP3    H120139   3.473   0.074   4.994
 6725TIP3    H220140   3.517   0.161   5.110
 6726TIP3   OH220141   0.539   5.615   4.765
 6726TIP3    H120142   0.547   5.581   4.676
 6726TIP3    H220143   0.445   5.612   4.783
 6727TIP3   OH220144   1.049   6.156   4.746
 6727TIP3    H120145   1.085   6.206   4.673
 6727TIP3    H220146   0.971   6.113   4.710
 6728TIP3   OH220147   0.596   5.255   3.957
 6728TIP3    H120148   0.503   5.235   3.968
 6728TIP3    H220149   0.612   5.328   4.016
 6729TIP3   OH220150   0.680   5.480   4.101
 6729TIP3    H120151   0.774   5.472   4.115
 6729TIP3    H220152   0.669   5.561   4.053
 6730TIP3   OH220153   1.096   5.568   3.926
 6730TIP3    H120154   1.039   5.523   3.864
 6730TIP3    H220155   1.102   5.657   3.891
 6731TIP3   OH220156   1.342   6.438   5.003
 6731TIP3    H120157   1.247   6.425   5.005
 6731TIP3    H220158   1.369   6.406   4.917
 6732TIP3   OH220159   0.811   6.362   3.841
 6732TIP3    H120160   0.791   6.288   3.899
 6732TIP3    H220161   0.838   6.321   3.758
 6733TIP3   OH220162   0.838   6.018   4.625
 6733TIP3    H120163   0.752   5.991   4.656
 6733TIP3    H220164   0.878   5.937   4.593
 6734TIP3   OH220165   0.704   6.220   4.935
 6734TIP3    H120166   0.618   6.202   4.972
 6734TIP3    H220167   0.722   6.146   4.877
 6735TIP3   OH220168   0.594   6.115   3.757
 6735TIP3    H120169   0.651   6.101   3.833
 6735TIP3    H220170   0.515   6.064   3.777
 6736TIP3   OH220171   0.856   6.734   4.918
 6736TIP3    H120172   0.788   6.725   4.985
 6736TIP3    H220173   0.825   6.804   4.861
 6737TIP3   OH220174   0.898   6.563   3.579
 6737TIP3    H120175   0.952   6.640   3.559
 6737TIP3    H220176   0.810   6.598   3.591
 6738TIP3   OH220177   0.766   6.068   3.972
 6738TIP3    H120178   0.753   6.001   4.039
 6738TIP3    H220179   0.858   6.060   3.948
 6739TIP3   OH220180   0.777   5.406   5.115
 6739TIP3    H120181   0.845   5.469   5.138
 6739TIP3    H220182   0.776   5.344   5.188
 6740TIP3   OH220183   0.693   5.156   4.301
 6740TIP3    H120184   0.629   5.146   4.230
 6740TIP3    H220185   0.710   5.250   4.305
 6741TIP3   OH220186   0.409   5.326   4.435
 6741TIP3    H120187   0.466   5.394   4.397
 6741TIP3    H220188   0.321   5.361   4.424
 6742TIP3   OH220189   0.658   5.708   5.174
 6742TIP3    H120190   0.673   5.747   5.260
 6742TIP3    H220191   0.676   5.615   5.186
 6743TIP3   OH220192   0.548   5.104   4.529
 6743TIP3    H120193   0.502   5.187   4.516
 6743TIP3    H220194   0.611   5.100   4.457
 6744TIP3   OH220195   1.232   5.568   5.169
 6744TIP3    H120196   1.136   5.564   5.176
 6744TIP3    H220197   1.250   5.533   5.081
 6745TIP3   OH220198   0.913   5.761   4.549
 6745TIP3    H120199   0.831   5.712   4.561
 6745TIP3    H220200   0.976   5.716   4.606
 6746TIP3   OH220201   0.882   6.702   4.506
 6746TIP3    H120202   0.834   6.757   4.445
 6746TIP3    H220203   0.974   6.723   4.491
 6747TIP3   OH220204   0.752   6.671   5.222
 6747TIP3    H120205   0.762   6.579   5.246
 6747TIP3    H220206   0.820   6.717   5.271
 6748TIP3   OH220207   0.543   6.319   3.571
 6748TIP3    H120208   0.575   6.254   3.633
 6748TIP3    H220209   0.598   6.307   3.494
 6749TIP3   OH220210   0.895   6.309   5.114
 6749TIP3    H120211   0.965   6.341   5.058
 6749TIP3    H220212   0.824   6.287   5.053
 6750TIP3   OH220213   0.783   6.098   5.473
 6750TIP3    H120214   0.863   6.149   5.461
 6750TIP3    H220215   0.789   6.066   5.563
 6751TIP3   OH220216   0.889   5.839   3.597
 6751TIP3    H120217   0.877   5.790   3.516
 6751TIP3    H220218   0.853   5.926   3.578
 6752TIP3   OH220219   0.999   5.832   5.504
 6752TIP3    H120220   1.077   5.778   5.513
 6752TIP3    H220221   1.031   5.914   5.467
 6753TIP3   OH220222   1.028   6.100   5.225
 6753TIP3    H120223   0.967   6.170   5.199
 6753TIP3    H220224   1.112   6.128   5.190
 6754TIP3   OH220225   0.860   5.537   5.424
 6754TIP3    H120226   0.806   5.560   5.500
 6754TIP3    H220227   0.948   5.526   5.460
 6755TIP3   OH220228   1.107   5.509   5.546
 6755TIP3    H120229   1.113   5.414   5.556
 6755TIP3    H220230   1.094   5.542   5.635
 6756TIP3   OH220231   0.604   5.111   5.531
 6756TIP3    H120232   0.675   5.047   5.541
 6756TIP3    H220233   0.527   5.058   5.512
 6757TIP3   OH220234   0.617   5.308   5.728
 6757TIP3    H120235   0.628   5.231   5.673
 6757TIP3    H220236   0.546   5.358   5.686
 6758TIP3   OH220237   1.132   6.800   4.464
 6758TIP3    H120238   1.171   6.809   4.551
 6758TIP3    H220239   1.204   6.819   4.403
 6759TIP3   OH220240   1.188   6.781   4.740
 6759TIP3    H120241   1.134   6.701   4.741
 6759TIP3    H220242   1.259   6.762   4.801
 6760TIP3   OH220243   1.197   6.501   5.315
 6760TIP3    H120244   1.128   6.517   5.380
 6760TIP3    H220245   1.245   6.584   5.312
 6761TIP3   OH220246   1.035   6.033   3.937
 6761TIP3    H120247   1.098   6.097   3.904
 6761TIP3    H220248   1.079   5.992   4.011
 6762TIP3   OH220249   1.159   5.892   4.138
 6762TIP3    H120250   1.097   5.846   4.196
 6762TIP3    H220251   1.226   5.925   4.197
 6763TIP3   OH220252   1.212   6.287   4.566
 6763TIP3    H120253   1.265   6.217   4.529
 6763TIP3    H220254   1.215   6.358   4.501
 6764TIP3   OH220255   1.014   6.566   4.762
 6764TIP3    H120256   0.950   6.615   4.814
 6764TIP3    H220257   0.961   6.520   4.697
 6765TIP3   OH220258   1.084   5.807   3.786
 6765TIP3    H120259   1.018   5.808   3.717
 6765TIP3    H220260   1.065   5.884   3.839
 6766TIP3   OH220261   0.940   5.468   3.728
 6766TIP3    H120262   0.898   5.503   3.649
 6766TIP3    H220263   0.928   5.373   3.722
 6767TIP3   OH220264   0.975   5.741   4.282
 6767TIP3    H120265   0.980   5.647   4.268
 6767TIP3    H220266   0.960   5.751   4.376
 6768TIP3   OH220267   1.273   6.176   5.133
 6768TIP3    H120268   1.336   6.106   5.116
 6768TIP3    H220269   1.292   6.242   5.066
 6769TIP3   OH220270   1.432   5.956   5.129
 6769TIP3    H120271   1.358   5.918   5.176
 6769TIP3    H220272   1.506   5.899   5.150
 6770TIP3   OH220273   0.900   5.201   3.705
 6770TIP3    H120274   0.968   5.168   3.764
 6770TIP3    H220275   0.823   5.148   3.726
 6771TIP3   OH220276   0.964   5.468   4.158
 6771TIP3    H120277   1.007   5.384   4.171
 6771TIP3    H220278   1.009   5.508   4.084
 6772TIP3   OH220279   1.121   5.628   4.682
 6772TIP3    H120280   1.201   5.650   4.635
 6772TIP3    H220281   1.132   5.667   4.768
 6773TIP3   OH220282   1.197   5.780   4.908
 6773TIP3    H120283   1.127   5.809   4.966
 6773TIP3    H220284   1.225   5.860   4.863
 6774TIP3   OH220285   1.642   5.386   5.450
 6774TIP3    H120286   1.704   5.325   5.411
 6774TIP3    H220287   1.607   5.436   5.375
 6775TIP3   OH220288   1.072   5.218   4.210
 6775TIP3    H120289   1.117   5.204   4.293
 6775TIP3    H220290   1.014   5.143   4.201
 6776TIP3   OH220291   1.495   5.506   5.253
 6776TIP3    H120292   1.411   5.547   5.276
 6776TIP3    H220293   1.471   5.432   5.198
 6777TIP3   OH220294   1.131   5.141   3.851
 6777TIP3    H120295   1.174   5.078   3.793
 6777TIP3    H220296   1.190   5.217   3.852
 6778TIP3   OH220297   0.668   6.680   4.086
 6778TIP3    H120298   0.704   6.640   4.007
 6778TIP3    H220299   0.739   6.734   4.121
 6779TIP3   OH220300   1.404   5.265   5.142
 6779TIP3    H120301   1.320   5.262   5.097
 6779TIP3    H220302   1.438   5.176   5.136
 6780TIP3   OH220303   0.821   6.901   4.692
 6780TIP3    H120304   0.733   6.932   4.674
 6780TIP3    H220305   0.829   6.822   4.638
 6781TIP3   OH220306   0.655   5.162   4.805
 6781TIP3    H120307   0.579   5.157   4.746
 6781TIP3    H220308   0.728   5.128   4.753
 6782TIP3   OH220309   1.127   5.068   4.658
 6782TIP3    H120310   1.165   5.120   4.587
 6782TIP3    H220311   1.036   5.095   4.662
 6783TIP3   OH220312   1.232   5.168   4.429
 6783TIP3    H120313   1.301   5.109   4.400
 6783TIP3    H220314   1.268   5.256   4.418
 6784TIP3   OH220315   0.854   5.066   4.651
 6784TIP3    H120316   0.831   5.042   4.562
 6784TIP3    H220317   0.848   4.984   4.701
 6785TIP3   OH220318   0.893   5.000   4.207
 6785TIP3    H120319   0.821   5.058   4.234
 6785TIP3    H220320   0.870   4.915   4.245
 6786TIP3   OH220321   0.297   5.084   4.372
 6786TIP3    H120322   0.226   5.116   4.316
 6786TIP3    H220323   0.350   5.161   4.390
 6787TIP3   OH220324   0.833   6.629   3.870
 6787TIP3    H120325   0.832   6.533   3.862
 6787TIP3    H220326   0.792   6.660   3.789
 6788TIP3   OH220327   1.153   5.240   5.572
 6788TIP3    H120328   1.170   5.212   5.662
 6788TIP3    H220329   1.239   5.243   5.531
 6789TIP3   OH220330   1.086   6.783   5.069
 6789TIP3    H120331   1.010   6.751   5.021
 6789TIP3    H220332   1.066   6.875   5.088
 6790TIP3   OH220333   2.347   6.173   3.827
 6790TIP3    H120334   2.320   6.260   3.797
 6790TIP3    H220335   2.277   6.114   3.798
 6791TIP3   OH220336   2.348   6.168   4.236
 6791TIP3    H120337   2.394   6.146   4.317
 6791TIP3    H220338   2.305   6.087   4.210
 6792TIP3   OH220339   1.644   6.042   4.589
 6792TIP3    H120340   1.678   5.984   4.658
 6792TIP3    H220341   1.721   6.066   4.538
 6793TIP3   OH220342   2.605   6.463   3.910
 6793TIP3    H120343   2.593   6.395   3.976
 6793TIP3    H220344   2.630   6.541   3.960
 6794TIP3   OH220345   1.619   6.460   4.294
 6794TIP3    H120346   1.606   6.365   4.295
 6794TIP3    H220347   1.713   6.471   4.278
 6795TIP3   OH220348   1.320   5.665   4.071
 6795TIP3    H120349   1.280   5.749   4.092
 6795TIP3    H220350   1.250   5.615   4.029
 6796TIP3   OH220351   1.390   5.963   4.275
 6796TIP3    H120352   1.439   5.886   4.304
 6796TIP3    H220353   1.456   6.019   4.234
 6797TIP3   OH220354   2.257   6.893   3.944
 6797TIP3    H120355   2.284   6.832   3.876
 6797TIP3    H220356   2.261   6.842   4.025
 6798TIP3   OH220357   2.148   6.389   4.249
 6798TIP3    H120358   2.189   6.310   4.213
 6798TIP3    H220359   2.221   6.443   4.278
 6799TIP3   OH220360   3.174   5.711   4.259
 6799TIP3    H120361   3.195   5.795   4.300
 6799TIP3    H220362   3.199   5.721   4.168
 6800TIP3   OH220363   2.561   5.882   4.286
 6800TIP3    H120364   2.601   5.798   4.311
 6800TIP3    H220365   2.525   5.866   4.199
 6801TIP3   OH220366   1.910   5.543   4.247
 6801TIP3    H120367   1.891   5.615   4.188
 6801TIP3    H220368   1.858   5.470   4.214
 6802TIP3   OH220369   2.606   5.640   3.875
 6802TIP3    H120370   2.672   5.631   3.944
 6802TIP3    H220371   2.654   5.674   3.800
 6803TIP3   OH220372   1.536   5.749   4.371
 6803TIP3    H120373   1.619   5.732   4.415
 6803TIP3    H220374   1.541   5.698   4.290
 6804TIP3   OH220375   1.961   5.949   4.185
 6804TIP3    H120376   2.056   5.933   4.190
 6804TIP3    H220377   1.925   5.869   4.147
 6805TIP3   OH220378   3.240   5.928   4.430
 6805TIP3    H120379   3.152   5.965   4.421
 6805TIP3    H220380   3.272   5.963   4.514
 6806TIP3   OH220381   1.893   5.538   4.696
 6806TIP3    H120382   1.842   5.573   4.623
 6806TIP3    H220383   1.839   5.554   4.773
 6807TIP3   OH220384   2.252   6.386   3.679
 6807TIP3    H120385   2.205   6.362   3.599
 6807TIP3    H220386   2.196   6.453   3.720
 6808TIP3   OH220387   1.997   6.309   4.468
 6808TIP3    H120388   1.940   6.376   4.504
 6808TIP3    H220389   2.040   6.352   4.394
 6809TIP3   OH220390   2.777   5.657   4.088
 6809TIP3    H120391   2.742   5.632   4.173
 6809TIP3    H220392   2.835   5.731   4.106
 6810TIP3   OH220393   1.779   5.647   4.468
 6810TIP3    H120394   1.835   5.721   4.492
 6810TIP3    H220395   1.824   5.605   4.396
 6811TIP3   OH220396   1.831   6.495   4.584
 6811TIP3    H120397   1.815   6.584   4.551
 6811TIP3    H220398   1.753   6.474   4.635
 6812TIP3   OH220399   1.214   6.209   3.821
 6812TIP3    H120400   1.184   6.229   3.732
 6812TIP3    H220401   1.250   6.291   3.854
 6813TIP3   OH220402   2.648   6.692   4.066
 6813TIP3    H120403   2.559   6.689   4.101
 6813TIP3    H220404   2.654   6.777   4.023
 6814TIP3   OH220405   2.970   5.608   4.430
 6814TIP3    H120406   2.883   5.629   4.395
 6814TIP3    H220407   3.030   5.634   4.360
 6815TIP3   OH220408   2.237   5.236   4.417
 6815TIP3    H120409   2.229   5.143   4.441
 6815TIP3    H220410   2.162   5.278   4.458
 6816TIP3   OH220411   2.344   6.753   3.719
 6816TIP3    H120412   2.391   6.670   3.713
 6816TIP3    H220413   2.404   6.818   3.683
 6817TIP3   OH220414   2.492   6.529   3.666
 6817TIP3    H120415   2.424   6.463   3.656
 6817TIP3    H220416   2.543   6.501   3.742
 6818TIP3   OH220417   2.884   6.605   4.407
 6818TIP3    H120418   2.869   6.529   4.350
 6818TIP3    H220419   2.869   6.681   4.350
 6819TIP3   OH220420   2.178   6.014   3.673
 6819TIP3    H120421   2.095   6.058   3.655
 6819TIP3    H220422   2.222   6.011   3.588
 6820TIP3   OH220423   2.141   5.816   3.368
 6820TIP3    H120424   2.206   5.866   3.417
 6820TIP3    H220425   2.191   5.751   3.319
 6821TIP3   OH220426   3.074   6.271   4.263
 6821TIP3    H120427   2.989   6.315   4.262
 6821TIP3    H220428   3.109   6.286   4.175
 6822TIP3   OH220429   2.529   6.106   3.632
 6822TIP3    H120430   2.475   6.133   3.707
 6822TIP3    H220431   2.611   6.078   3.671
 6823TIP3   OH220432   2.759   6.135   4.568
 6823TIP3    H120433   2.757   6.217   4.617
 6823TIP3    H220434   2.676   6.133   4.520
 6824TIP3   OH220435   1.755   6.087   4.048
 6824TIP3    H120436   1.718   6.031   3.980
 6824TIP3    H220437   1.829   6.037   4.083
 6825TIP3   OH220438   1.882   6.483   4.191
 6825TIP3    H120439   1.853   6.466   4.101
 6825TIP3    H220440   1.972   6.450   4.193
 6826TIP3   OH220441   1.863   6.077   4.412
 6826TIP3    H120442   1.900   6.041   4.331
 6826TIP3    H220443   1.915   6.156   4.429
 6827TIP3   OH220444   2.406   6.709   4.189
 6827TIP3    H120445   2.414   6.784   4.248
 6827TIP3    H220446   2.396   6.634   4.247
 6828TIP3   OH220447   2.027   6.618   4.738
 6828TIP3    H120448   1.967   6.678   4.783
 6828TIP3    H220449   1.969   6.562   4.686
 6829TIP3   OH220450   2.363   5.963   3.465
 6829TIP3    H120451   2.422   6.021   3.514
 6829TIP3    H220452   2.389   5.974   3.373
 6830TIP3   OH220453   1.788   6.169   4.865
 6830TIP3    H120454   1.791   6.261   4.890
 6830TIP3    H220455   1.694   6.149   4.860
 6831TIP3   OH220456   2.102   6.606   3.751
 6831TIP3    H120457   2.168   6.675   3.740
 6831TIP3    H220458   2.040   6.620   3.679
 6832TIP3   OH220459   1.822   6.784   4.830
 6832TIP3    H120460   1.794   6.781   4.738
 6832TIP3    H220461   1.743   6.761   4.879
 6833TIP3   OH220462   2.876   5.193   3.519
 6833TIP3    H120463   2.797   5.213   3.570
 6833TIP3    H220464   2.890   5.270   3.464
 6834TIP3   OH220465   1.632   5.934   3.846
 6834TIP3    H120466   1.559   5.980   3.804
 6834TIP3    H220467   1.602   5.844   3.854
 6835TIP3   OH220468   2.692   6.540   3.069
 6835TIP3    H120469   2.695   6.634   3.057
 6835TIP3    H220470   2.782   6.511   3.054
 6836TIP3   OH220471   1.410   6.327   4.765
 6836TIP3    H120472   1.342   6.309   4.700
 6836TIP3    H220473   1.446   6.242   4.788
 6837TIP3   OH220474   1.279   6.506   4.400
 6837TIP3    H120475   1.371   6.492   4.376
 6837TIP3    H220476   1.280   6.576   4.464
 6838TIP3   OH220477   3.123   6.967   4.470
 6838TIP3    H120478   3.130   6.874   4.488
 6838TIP3    H220479   3.043   6.995   4.516
 6839TIP3   OH220480   2.230   6.739   4.601
 6839TIP3    H120481   2.225   6.832   4.625
 6839TIP3    H220482   2.159   6.698   4.652
 6840TIP3   OH220483   1.978   6.910   3.516
 6840TIP3    H120484   1.959   6.856   3.438
 6840TIP3    H220485   1.892   6.940   3.545
 6841TIP3   OH220486   1.427   6.715   3.924
 6841TIP3    H120487   1.477   6.708   4.005
 6841TIP3    H220488   1.392   6.628   3.909
 6842TIP3   OH220489   2.200   6.780   3.185
 6842TIP3    H120490   2.258   6.709   3.157
 6842TIP3    H220491   2.220   6.792   3.277
 6843TIP3   OH220492   2.234   6.807   3.461
 6843TIP3    H120493   2.150   6.842   3.491
 6843TIP3    H220494   2.273   6.767   3.540
 6844TIP3   OH220495   3.004   6.093   4.736
 6844TIP3    H120496   2.924   6.102   4.685
 6844TIP3    H220497   3.024   5.999   4.732
 6845TIP3   OH220498   1.609   6.515   4.749
 6845TIP3    H120499   1.661   6.497   4.828
 6845TIP3    H220500   1.538   6.450   4.753
 6846TIP3   OH220501   2.001   5.327   4.546
 6846TIP3    H120502   1.917   5.295   4.514
 6846TIP3    H220503   1.979   5.407   4.595
 6847TIP3   OH220504   2.543   5.444   4.744
 6847TIP3    H120505   2.613   5.418   4.804
 6847TIP3    H220506   2.462   5.425   4.792
 6848TIP3   OH220507   2.767   5.871   4.660
 6848TIP3    H120508   2.725   5.869   4.746
 6848TIP3    H220509   2.750   5.959   4.627
 6849TIP3   OH220510   2.441   5.976   3.205
 6849TIP3    H120511   2.401   5.964   3.119
 6849TIP3    H220512   2.525   6.018   3.186
 6850TIP3   OH220513   2.149   5.370   3.514
 6850TIP3    H120514   2.114   5.375   3.604
 6850TIP3    H220515   2.113   5.288   3.479
 6851TIP3   OH220516   1.939   5.854   4.559
 6851TIP3    H120517   1.892   5.863   4.642
 6851TIP3    H220518   1.918   5.934   4.511
 6852TIP3   OH220519   1.821   5.736   4.076
 6852TIP3    H120520   1.731   5.712   4.099
 6852TIP3    H220521   1.832   5.702   3.987
 6853TIP3   OH220522   2.306   5.811   3.806
 6853TIP3    H120523   2.258   5.883   3.765
 6853TIP3    H220524   2.364   5.778   3.737
 6854TIP3   OH220525   2.486   6.085   4.884
 6854TIP3    H120526   2.459   6.015   4.943
 6854TIP3    H220527   2.579   6.097   4.903
 6855TIP3   OH220528   2.469   5.830   4.033
 6855TIP3    H120529   2.402   5.854   3.969
 6855TIP3    H220530   2.514   5.755   3.994
 6856TIP3   OH220531   1.768   5.870   4.776
 6856TIP3    H120532   1.796   5.931   4.845
 6856TIP3    H220533   1.752   5.788   4.822
 6857TIP3   OH220534   1.813   5.350   3.487
 6857TIP3    H120535   1.804   5.353   3.582
 6857TIP3    H220536   1.736   5.398   3.454
 6858TIP3   OH220537   1.359   5.394   4.357
 6858TIP3    H120538   1.431   5.428   4.410
 6858TIP3    H220539   1.398   5.371   4.273
 6859TIP3   OH220540   1.288   5.373   3.866
 6859TIP3    H120541   1.333   5.407   3.788
 6859TIP3    H220542   1.225   5.441   3.890
 6860TIP3   OH220543   2.498   6.080   4.459
 6860TIP3    H120544   2.526   6.014   4.396
 6860TIP3    H220545   2.458   6.030   4.530
 6861TIP3   OH220546   2.178   5.533   4.131
 6861TIP3    H120547   2.101   5.533   4.188
 6861TIP3    H220548   2.252   5.525   4.192
 6862TIP3   OH220549   1.583   5.611   4.139
 6862TIP3    H120550   1.494   5.615   4.104
 6862TIP3    H220551   1.612   5.521   4.120
 6863TIP3   OH220552   1.838   5.610   3.832
 6863TIP3    H120553   1.932   5.622   3.819
 6863TIP3    H220554   1.799   5.629   3.747
 6864TIP3   OH220555   2.642   5.620   4.340
 6864TIP3    H120556   2.618   5.637   4.431
 6864TIP3    H220557   2.575   5.559   4.308
 6865TIP3   OH220558   1.712   5.636   3.591
 6865TIP3    H120559   1.647   5.590   3.538
 6865TIP3    H220560   1.766   5.683   3.527
 6866TIP3   OH220561   5.306   0.337   4.561
 6866TIP3    H120562   5.295   0.343   4.467
 6866TIP3    H220563   5.376   0.399   4.581
 6867TIP3   OH220564   1.771   6.430   4.972
 6867TIP3    H120565   1.852   6.450   5.019
 6867TIP3    H220566   1.704   6.429   5.041
 6868TIP3   OH220567   2.234   5.892   4.236
 6868TIP3    H120568   2.300   5.844   4.186
 6868TIP3    H220569   2.234   5.849   4.321
 6869TIP3   OH220570   1.731   5.365   4.122
 6869TIP3    H120571   1.701   5.289   4.172
 6869TIP3    H220572   1.765   5.328   4.040
 6870TIP3   OH220573   2.206   5.794   4.506
 6870TIP3    H120574   2.118   5.825   4.528
 6870TIP3    H220575   2.264   5.847   4.560
 6871TIP3   OH220576   1.945   6.152   3.616
 6871TIP3    H120577   1.862   6.114   3.588
 6871TIP3    H220578   1.927   6.192   3.701
 6872TIP3   OH220579   2.834   6.404   4.227
 6872TIP3    H120580   2.865   6.454   4.152
 6872TIP3    H220581   2.752   6.364   4.196
 6873TIP3   OH220582   2.403   5.470   3.510
 6873TIP3    H120583   2.309   5.450   3.508
 6873TIP3    H220584   2.407   5.565   3.523
 6874TIP3   OH220585   2.348   6.484   4.624
 6874TIP3    H120586   2.396   6.475   4.707
 6874TIP3    H220587   2.310   6.571   4.627
 6875TIP3   OH220588   2.466   5.732   3.587
 6875TIP3    H120589   2.561   5.736   3.595
 6875TIP3    H220590   2.443   5.809   3.535
 6876TIP3   OH220591   1.631   6.179   4.276
 6876TIP3    H120592   1.667   6.161   4.190
 6876TIP3    H220593   1.696   6.144   4.337
 6877TIP3   OH220594   2.084   6.326   3.458
 6877TIP3    H120595   2.037   6.409   3.468
 6877TIP3    H220596   2.033   6.262   3.507
 6878TIP3   OH220597   1.516   6.105   4.901
 6878TIP3    H120598   1.527   6.079   4.993
 6878TIP3    H220599   1.445   6.049   4.869
 6879TIP3   OH220600   2.251   6.233   4.920
 6879TIP3    H120601   2.185   6.175   4.883
 6879TIP3    H220602   2.335   6.196   4.893
 6880TIP3   OH220603   2.498   6.773   4.514
 6880TIP3    H120604   2.404   6.754   4.523
 6880TIP3    H220605   2.521   6.815   4.597
 6881TIP3   OH220606   2.891   5.824   3.412
 6881TIP3    H120607   2.834   5.777   3.351
 6881TIP3    H220608   2.896   5.913   3.378
 6882TIP3   OH220609   3.130   6.688   4.493
 6882TIP3    H120610   3.035   6.675   4.490
 6882TIP3    H220611   3.161   6.658   4.407
 6883TIP3   OH220612   2.614   6.614   3.334
 6883TIP3    H120613   2.583   6.551   3.399
 6883TIP3    H220614   2.629   6.562   3.255
 6884TIP3   OH220615   2.601   6.270   4.129
 6884TIP3    H120616   2.511   6.246   4.151
 6884TIP3    H220617   2.639   6.191   4.092
 6885TIP3   OH220618   1.750   6.472   3.944
 6885TIP3    H120619   1.749   6.553   3.893
 6885TIP3    H220620   1.671   6.425   3.918
 6886TIP3   OH220621   1.316   5.797   3.636
 6886TIP3    H120622   1.361   5.879   3.654
 6886TIP3    H220623   1.238   5.799   3.691
 6887TIP3   OH220624   1.890   6.248   3.863
 6887TIP3    H120625   1.864   6.339   3.879
 6887TIP3    H220626   1.846   6.199   3.932
 6888TIP3   OH220627   2.026   6.786   4.410
 6888TIP3    H120628   2.064   6.858   4.360
 6888TIP3    H220629   2.101   6.746   4.455
 6889TIP3   OH220630   1.687   6.702   3.810
 6889TIP3    H120631   1.594   6.718   3.826
 6889TIP3    H220632   1.731   6.781   3.841
 6890TIP3   OH220633   2.392   6.484   4.352
 6890TIP3    H120634   2.382   6.477   4.447
 6890TIP3    H220635   2.460   6.421   4.330
 6891TIP3   OH220636   2.374   6.370   3.232
 6891TIP3    H120637   2.425   6.344   3.308
 6891TIP3    H220638   2.288   6.330   3.246
 6892TIP3   OH220639   5.130   0.007   4.396
 6892TIP3    H120640   5.058  -0.053   4.417
 6892TIP3    H220641   5.093   0.068   4.332
 6893TIP3   OH220642   2.721   6.809   3.051
 6893TIP3    H120643   2.776   6.886   3.042
 6893TIP3    H220644   2.633   6.843   3.070
 6894TIP3   OH220645   1.726   5.617   4.905
 6894TIP3    H120646   1.630   5.621   4.911
 6894TIP3    H220647   1.752   5.563   4.979
 6895TIP3   OH220648   2.550   6.296   3.428
 6895TIP3    H120649   2.533   6.239   3.503
 6895TIP3    H220650   2.646   6.298   3.421
 6896TIP3   OH220651   1.451   6.693   4.556
 6896TIP3    H120652   1.509   6.636   4.607
 6896TIP3    H220653   1.477   6.782   4.580
 6897TIP3   OH220654   1.753   6.327   3.207
 6897TIP3    H120655   1.751   6.231   3.208
 6897TIP3    H220656   1.720   6.352   3.293
 6898TIP3   OH220657   1.414   6.046   3.715
 6898TIP3    H120658   1.348   6.091   3.768
 6898TIP3    H220659   1.435   6.108   3.645
 6899TIP3   OH220660   2.571   5.680   4.601
 6899TIP3    H120661   2.650   5.722   4.634
 6899TIP3    H220662   2.562   5.601   4.655
 6900TIP3   OH220663   2.458   5.422   3.781
 6900TIP3    H120664   2.439   5.440   3.688
 6900TIP3    H220665   2.501   5.502   3.812
 6901TIP3   OH220666   1.942   6.559   3.500
 6901TIP3    H120667   1.854   6.523   3.506
 6901TIP3    H220668   1.938   6.620   3.426
 6902TIP3   OH220669   2.118   5.619   3.873
 6902TIP3    H120670   2.182   5.687   3.848
 6902TIP3    H220671   2.138   5.602   3.965
 6903TIP3   OH220672   2.409   5.915   4.660
 6903TIP3    H120673   2.436   5.958   4.741
 6903TIP3    H220674   2.460   5.834   4.658
 6904TIP3   OH220675   2.275   5.322   3.964
 6904TIP3    H120676   2.254   5.399   4.016
 6904TIP3    H220677   2.343   5.352   3.904
 6905TIP3   OH220678   1.790   5.339   3.766
 6905TIP3    H120679   1.780   5.429   3.796
 6905TIP3    H220680   1.884   5.322   3.771
 6906TIP3   OH220681   3.033   5.820   4.648
 6906TIP3    H120682   2.938   5.826   4.658
 6906TIP3    H220683   3.045   5.766   4.571
 6907TIP3   OH220684   2.693   6.018   4.035
 6907TIP3    H120685   2.617   5.961   4.044
 6907TIP3    H220686   2.762   5.975   4.086
 6908TIP3   OH220687   1.421   6.240   3.509
 6908TIP3    H120688   1.479   6.316   3.514
 6908TIP3    H220689   1.463   6.181   3.446
 6909TIP3   OH220690   1.343   5.520   3.642
 6909TIP3    H120691   1.355   5.615   3.646
 6909TIP3    H220692   1.283   5.506   3.569
 6910TIP3   OH220693   5.147  -0.023   3.997
 6910TIP3    H120694   5.101   0.031   3.933
 6910TIP3    H220695   5.240  -0.006   3.980
 6911TIP3   OH220696   1.738   5.241   4.510
 6911TIP3    H120697   1.709   5.208   4.424
 6911TIP3    H220698   1.729   5.165   4.568
 6912TIP3   OH220699   1.286   6.470   3.915
 6912TIP3    H120700   1.228   6.497   3.986
 6912TIP3    H220701   1.242   6.500   3.835
 6913TIP3   OH220702   1.448   6.981   5.009
 6913TIP3    H120703   1.534   6.954   5.040
 6913TIP3    H220704   1.400   6.898   4.997
 6914TIP3   OH220705   1.935   6.957   5.007
 6914TIP3    H120706   2.024   6.924   5.015
 6914TIP3    H220707   1.894   6.901   4.942
 6915TIP3   OH220708   1.903   6.538   3.136
 6915TIP3    H120709   1.849   6.465   3.169
 6915TIP3    H220710   1.979   6.495   3.097
 6916TIP3   OH220711   2.547   6.886   4.760
 6916TIP3    H120712   2.555   6.815   4.823
 6916TIP3    H220713   2.625   6.941   4.775
 6917TIP3   OH220714   2.344   6.580   3.062
 6917TIP3    H120715   2.365   6.512   3.126
 6917TIP3    H220716   2.403   6.565   2.989
 6918TIP3   OH220717   1.568   6.419   5.162
 6918TIP3    H120718   1.587   6.325   5.171
 6918TIP3    H220719   1.482   6.422   5.120
 6919TIP3   OH220720   1.548   6.046   3.363
 6919TIP3    H120721   1.600   6.022   3.440
 6919TIP3    H220722   1.613   6.054   3.293
 6920TIP3   OH220723   2.183   6.509   4.937
 6920TIP3    H120724   2.137   6.528   4.855
 6920TIP3    H220725   2.218   6.421   4.925
 6921TIP3   OH220726   2.109   6.267   3.188
 6921TIP3    H120727   2.084   6.282   3.279
 6921TIP3    H220728   2.093   6.174   3.174
 6922TIP3   OH220729   2.662   6.544   4.558
 6922TIP3    H120730   2.740   6.570   4.510
 6922TIP3    H220731   2.597   6.610   4.537
 6923TIP3   OH220732   1.686   6.165   5.160
 6923TIP3    H120733   1.763   6.138   5.111
 6923TIP3    H220734   1.720   6.186   5.248
 6924TIP3   OH220735   1.726   5.976   3.566
 6924TIP3    H120736   1.716   5.946   3.656
 6924TIP3    H220737   1.777   5.907   3.523
 6925TIP3   OH220738   2.033   6.045   4.819
 6925TIP3    H120739   1.952   6.095   4.827
 6925TIP3    H220740   2.073   6.076   4.738
 6926TIP3   OH220741   1.866   5.784   3.417
 6926TIP3    H120742   1.837   5.786   3.326
 6926TIP3    H220743   1.961   5.790   3.412
 6927TIP3   OH220744   2.544   6.431   4.923
 6927TIP3    H120745   2.613   6.393   4.869
 6927TIP3    H220746   2.539   6.375   5.000
 6928TIP3   OH220747   2.669   6.087   3.089
 6928TIP3    H120748   2.657   6.040   3.006
 6928TIP3    H220749   2.636   6.175   3.073
 6929TIP3   OH220750   2.146   5.824   4.933
 6929TIP3    H120751   2.149   5.750   4.872
 6929TIP3    H220752   2.108   5.895   4.882
 6930TIP3   OH220753   2.153   5.620   4.735
 6930TIP3    H120754   2.182   5.657   4.651
 6930TIP3    H220755   2.062   5.594   4.720
 6931TIP3   OH220756   2.169   6.151   4.611
 6931TIP3    H120757   2.258   6.172   4.584
 6931TIP3    H220758   2.114   6.211   4.561
 6932TIP3   OH220759   2.755   6.110   4.983
 6932TIP3    H120760   2.790   6.021   4.993
 6932TIP3    H220761   2.829   6.162   4.953
 6933TIP3   OH220762   2.789   6.372   4.726
 6933TIP3    H120763   2.734   6.432   4.675
 6933TIP3    H220764   2.878   6.387   4.693
 6934TIP3   OH220765   2.028   5.918   5.172
 6934TIP3    H120766   1.960   5.854   5.192
 6934TIP3    H220767   2.058   5.893   5.085
 6935TIP3   OH220768   2.278   5.385   4.824
 6935TIP3    H120769   2.235   5.465   4.794
 6935TIP3    H220770   2.212   5.316   4.811
 6936TIP3   OH220771   2.403   5.868   5.030
 6936TIP3    H120772   2.393   5.856   5.124
 6936TIP3    H220773   2.317   5.847   4.994
 6937TIP3   OH220774   2.649   5.828   4.898
 6937TIP3    H120775   2.571   5.824   4.953
 6937TIP3    H220776   2.719   5.796   4.955
 6938TIP3   OH220777   2.882   5.779   5.047
 6938TIP3    H120778   2.896   5.685   5.055
 6938TIP3    H220779   2.878   5.810   5.137
 6939TIP3   OH220780   1.866   5.695   5.236
 6939TIP3    H120781   1.871   5.606   5.200
 6939TIP3    H220782   1.904   5.688   5.323
 6940TIP3   OH220783   2.353   5.376   5.088
 6940TIP3    H120784   2.422   5.309   5.084
 6940TIP3    H220785   2.320   5.382   4.999
 6941TIP3   OH220786   2.438   5.592   5.235
 6941TIP3    H120787   2.412   5.520   5.178
 6941TIP3    H220788   2.364   5.652   5.233
 6942TIP3   OH220789   1.655   6.810   3.389
 6942TIP3    H120790   1.698   6.727   3.407
 6942TIP3    H220791   1.639   6.810   3.294
 6943TIP3   OH220792   1.152   6.206   3.538
 6943TIP3    H120793   1.245   6.228   3.529
 6943TIP3    H220794   1.143   6.120   3.497
 6944TIP3   OH220795   1.065   6.759   3.926
 6944TIP3    H120796   0.992   6.702   3.902
 6944TIP3    H220797   1.112   6.712   3.995
 6945TIP3   OH220798   1.174   6.641   4.158
 6945TIP3    H120799   1.177   6.570   4.222
 6945TIP3    H220800   1.232   6.708   4.194
 6946TIP3   OH220801   5.407   0.050   3.955
 6946TIP3    H120802   5.432   0.076   4.044
 6946TIP3    H220803   5.463   0.102   3.898
 6947TIP3   OH220804   5.462   0.050   4.230
 6947TIP3    H120805   5.410  -0.030   4.227
 6947TIP3    H220806   5.518   0.038   4.307
 6948TIP3   OH220807   2.988   6.763   4.806
 6948TIP3    H120808   2.922   6.772   4.875
 6948TIP3    H220809   3.039   6.844   4.811
 6949TIP3   OH220810   2.828   6.286   3.424
 6949TIP3    H120811   2.890   6.352   3.393
 6949TIP3    H220812   2.870   6.247   3.500
 6950TIP3   OH220813   2.949   6.145   3.627
 6950TIP3    H120814   2.882   6.104   3.681
 6950TIP3    H220815   3.014   6.178   3.690
 6951TIP3   OH220816   3.006   6.543   4.056
 6951TIP3    H120817   3.059   6.473   4.017
 6951TIP3    H220818   3.004   6.611   3.989
 6952TIP3   OH220819   2.823   6.816   4.247
 6952TIP3    H120820   2.760   6.869   4.295
 6952TIP3    H220821   2.770   6.772   4.180
 6953TIP3   OH220822   2.875   6.062   3.271
 6953TIP3    H120823   2.804   6.060   3.206
 6953TIP3    H220824   2.855   6.138   3.325
 6954TIP3   OH220825   2.734   5.720   3.215
 6954TIP3    H120826   2.694   5.756   3.136
 6954TIP3    H220827   2.720   5.626   3.209
 6955TIP3   OH220828   2.753   6.004   3.764
 6955TIP3    H120829   2.759   5.909   3.751
 6955TIP3    H220830   2.737   6.014   3.857
 6956TIP3   OH220831   1.381   6.074   4.526
 6956TIP3    H120832   1.373   6.039   4.437
 6956TIP3    H220833   1.475   6.073   4.543
 6957TIP3   OH220834   3.043   6.423   4.626
 6957TIP3    H120835   3.109   6.357   4.609
 6957TIP3    H220836   3.056   6.488   4.557
 6958TIP3   OH220837   3.220   6.215   4.620
 6958TIP3    H120838   3.146   6.172   4.663
 6958TIP3    H220839   3.295   6.160   4.640
 6959TIP3   OH220840   2.687   5.453   3.197
 6959TIP3    H120841   2.755   5.419   3.255
 6959TIP3    H220842   2.608   5.403   3.220
 6960TIP3   OH220843   2.755   5.729   3.649
 6960TIP3    H120844   2.798   5.644   3.663
 6960TIP3    H220845   2.801   5.767   3.574
 6961TIP3   OH220846   2.909   5.892   4.166
 6961TIP3    H120847   2.990   5.910   4.119
 6961TIP3    H220848   2.922   5.930   4.253
 6962TIP3   OH220849   2.983   6.044   4.394
 6962TIP3    H120850   2.908   6.074   4.446
 6962TIP3    H220851   3.015   6.122   4.350
 6963TIP3   OH220852   1.603   5.750   5.180
 6963TIP3    H120853   1.697   5.747   5.196
 6963TIP3    H220854   1.569   5.669   5.219
 6964TIP3   OH220855   3.439   5.644   4.939
 6964TIP3    H120856   3.500   5.583   4.898
 6964TIP3    H220857   3.402   5.693   4.865
 6965TIP3   OH220858   2.864   5.477   3.701
 6965TIP3    H120859   2.909   5.461   3.784
 6965TIP3    H220860   2.802   5.405   3.693
 6966TIP3   OH220861   1.568   5.461   4.529
 6966TIP3    H120862   1.624   5.383   4.533
 6966TIP3    H220863   1.629   5.533   4.513
 6967TIP3   OH220864   1.360   5.728   4.590
 6967TIP3    H120865   1.410   5.719   4.509
 6967TIP3    H220866   1.388   5.812   4.626
 6968TIP3   OH220867   3.292   5.760   4.740
 6968TIP3    H120868   3.207   5.800   4.759
 6968TIP3    H220869   3.271   5.684   4.686
 6969TIP3   OH220870   2.924   5.396   3.340
 6969TIP3    H120871   2.966   5.333   3.281
 6969TIP3    H220872   2.983   5.472   3.340
 6970TIP3   OH220873   1.346   5.235   4.094
 6970TIP3    H120874   1.258   5.223   4.130
 6970TIP3    H220875   1.334   5.290   4.017
 6971TIP3   OH220876   2.521   6.910   3.587
 6971TIP3    H120877   2.547   6.884   3.499
 6971TIP3    H220878   2.580   6.982   3.610
 6972TIP3   OH220879   1.569   5.303   4.913
 6972TIP3    H120880   1.519   5.298   4.995
 6972TIP3    H220881   1.509   5.346   4.851
 6973TIP3   OH220882   1.611   6.742   5.006
 6973TIP3    H120883   1.521   6.722   4.980
 6973TIP3    H220884   1.617   6.708   5.096
 6974TIP3   OH220885   1.800   6.765   4.555
 6974TIP3    H120886   1.743   6.819   4.500
 6974TIP3    H220887   1.887   6.773   4.516
 6975TIP3   OH220888   4.683   0.025   4.678
 6975TIP3    H120889   4.721   0.026   4.766
 6975TIP3    H220890   4.746   0.073   4.624
 6976TIP3   OH220891   4.864   0.161   4.534
 6976TIP3    H120892   4.909   0.119   4.460
 6976TIP3    H220893   4.935   0.193   4.590
 6977TIP3   OH220894   3.203   5.515   4.632
 6977TIP3    H120895   3.114   5.505   4.597
 6977TIP3    H220896   3.241   5.427   4.626
 6978TIP3   OH220897   3.962  -0.011   4.577
 6978TIP3    H120898   3.874   0.021   4.559
 6978TIP3    H220899   3.994   0.044   4.649
 6979TIP3   OH220900   1.687   6.939   4.386
 6979TIP3    H120901   1.620   6.960   4.450
 6979TIP3    H220902   1.684   7.011   4.323
 6980TIP3   OH220903   4.609   0.007   4.270
 6980TIP3    H120904   4.554   0.010   4.191
 6980TIP3    H220905   4.612   0.098   4.301
 6981TIP3   OH220906   4.874  -0.002   4.283
 6981TIP3    H120907   4.779  -0.015   4.293
 6981TIP3    H220908   4.882   0.058   4.209
 6982TIP3   OH220909   5.070   0.179   4.171
 6982TIP3    H120910   4.985   0.217   4.150
 6982TIP3    H220911   5.078   0.104   4.113
 6983TIP3   OH220912   1.371   6.795   4.310
 6983TIP3    H120913   1.399   6.768   4.397
 6983TIP3    H220914   1.441   6.765   4.251
 6984TIP3   OH220915   1.570   6.694   4.157
 6984TIP3    H120916   1.579   6.608   4.198
 6984TIP3    H220917   1.657   6.732   4.162
 6985TIP3   OH220918   1.837   6.754   4.192
 6985TIP3    H120919   1.860   6.662   4.177
 6985TIP3    H220920   1.877   6.774   4.277
 6986TIP3   OH220921   2.412   5.441   4.263
 6986TIP3    H120922   2.372   5.369   4.311
 6986TIP3    H220923   2.481   5.401   4.211
 6987TIP3   OH220924   2.915   5.343   4.158
 6987TIP3    H120925   2.952   5.391   4.084
 6987TIP3    H220926   2.821   5.363   4.155
 6988TIP3   OH220927   3.025   5.425   3.921
 6988TIP3    H120928   3.094   5.366   3.890
 6988TIP3    H220929   3.060   5.513   3.908
 6989TIP3   OH220930   1.651   5.140   4.266
 6989TIP3    H120931   1.561   5.108   4.271
 6989TIP3    H220932   1.704   5.061   4.260
 6990TIP3   OH220933   1.464   5.038   3.920
 6990TIP3    H120934   1.492   5.089   3.844
 6990TIP3    H220935   1.431   5.104   3.981
 6991TIP3   OH220936   2.118   5.181   4.157
 6991TIP3    H120937   2.168   5.225   4.088
 6991TIP3    H220938   2.160   5.208   4.238
 6992TIP3   OH220939   2.629   5.326   4.134
 6992TIP3    H120940   2.641   5.291   4.046
 6992TIP3    H220941   2.630   5.248   4.191
 6993TIP3   OH220942   2.679   5.266   3.700
 6993TIP3    H120943   2.598   5.312   3.722
 6993TIP3    H220944   2.668   5.180   3.739
 6994TIP3   OH220945   1.147   6.560   3.705
 6994TIP3    H120946   1.067   6.529   3.663
 6994TIP3    H220947   1.152   6.653   3.682
 6995TIP3   OH220948   1.575   5.173   3.684
 6995TIP3    H120949   1.620   5.113   3.624
 6995TIP3    H220950   1.645   5.230   3.718
 6996TIP3   OH220951   2.065   5.368   3.779
 6996TIP3    H120952   2.125   5.316   3.833
 6996TIP3    H220953   2.081   5.458   3.805
 6997TIP3   OH220954   1.940   6.757   3.290
 6997TIP3    H120955   2.016   6.792   3.244
 6997TIP3    H220956   1.910   6.684   3.236
 6998TIP3   OH220957   2.655   6.880   3.345
 6998TIP3    H120958   2.643   6.785   3.339
 6998TIP3    H220959   2.603   6.915   3.272
 6999TIP3   OH220960   1.870   5.421   5.152
 6999TIP3    H120961   1.836   5.353   5.211
 6999TIP3    H220962   1.963   5.427   5.176
 7000TIP3   OH220963   2.121   5.428   5.271
 7000TIP3    H120964   2.201   5.406   5.223
 7000TIP3    H220965   2.114   5.359   5.338
 7001TIP3   OH220966   1.241   6.600   3.354
 7001TIP3    H120967   1.276   6.655   3.424
 7001TIP3    H220968   1.318   6.559   3.315
 7002TIP3   OH220969   2.946   5.508   5.061
 7002TIP3    H120970   2.962   5.479   5.150
 7002TIP3    H220971   3.032   5.503   5.018
 7003TIP3   OH220972   5.343   0.065   4.565
 7003TIP3    H120973   5.269   0.035   4.513
 7003TIP3    H220974   5.336   0.160   4.564
 7004TIP3   OH220975   4.142   6.428   3.313
 7004TIP3    H120976   4.108   6.515   3.292
 7004TIP3    H220977   4.074   6.368   3.282
 7005TIP3   OH220978   4.142   6.426   3.724
 7005TIP3    H120979   4.189   6.403   3.805
 7005TIP3    H220980   4.099   6.344   3.698
 7006TIP3   OH220981   3.442   6.300   4.075
 7006TIP3    H120982   3.473   6.242   4.144
 7006TIP3    H220983   3.520   6.324   4.026
 7007TIP3   OH220984   4.399   6.726   3.399
 7007TIP3    H120985   4.387   6.659   3.466
 7007TIP3    H220986   4.425   6.805   3.447
 7008TIP3   OH220987   3.426   6.718   3.792
 7008TIP3    H120988   3.407   6.624   3.792
 7008TIP3    H220989   3.520   6.724   3.775
 7009TIP3   OH220990   3.116   5.925   3.556
 7009TIP3    H120991   3.072   6.007   3.579
 7009TIP3    H220992   3.048   5.872   3.515
 7010TIP3   OH220993   3.182   6.215   3.765
 7010TIP3    H120994   3.231   6.138   3.794
 7010TIP3    H220995   3.244   6.265   3.712
 7011TIP3   OH220996   6.514   0.174   3.428
 7011TIP3    H120997   6.542   0.115   3.357
 7011TIP3    H220998   6.534   0.125   3.508
 7012TIP3   OH220999   3.945   6.646   3.736
 7012TIP3    H121000   3.986   6.566   3.703
 7012TIP3    H221001   4.019   6.701   3.763
 7013TIP3   OH221002   4.971   5.968   3.746
 7013TIP3    H121003   4.992   6.052   3.787
 7013TIP3    H221004   4.992   5.980   3.654
 7014TIP3   OH221005   4.358   6.138   3.772
 7014TIP3    H121006   4.396   6.054   3.796
 7014TIP3    H221007   4.320   6.124   3.685
 7015TIP3   OH221008   3.707   5.799   3.733
 7015TIP3    H121009   3.687   5.871   3.674
 7015TIP3    H221010   3.656   5.725   3.699
 7016TIP3   OH221011   4.402   5.899   3.364
 7016TIP3    H121012   4.470   5.889   3.430
 7016TIP3    H221013   4.449   5.932   3.287
 7017TIP3   OH221014   3.332   6.003   3.858
 7017TIP3    H121015   3.415   5.986   3.902
 7017TIP3    H221016   3.337   5.953   3.777
 7018TIP3   OH221017   3.758   6.206   3.671
 7018TIP3    H121018   3.852   6.189   3.676
 7018TIP3    H221019   3.721   6.126   3.634
 7019TIP3   OH221020   5.037   6.184   3.918
 7019TIP3    H121021   4.949   6.221   3.907
 7019TIP3    H221022   5.066   6.218   4.003
 7020TIP3   OH221023   3.689   5.795   4.183
 7020TIP3    H121024   3.638   5.828   4.110
 7020TIP3    H221025   3.634   5.811   4.260
 7021TIP3   OH221026   4.007   6.636   3.195
 7021TIP3    H121027   3.989   6.622   3.102
 7021TIP3    H221028   3.965   6.720   3.215
 7022TIP3   OH221029   3.796   6.565   3.955
 7022TIP3    H121030   3.738   6.631   3.991
 7022TIP3    H221031   3.839   6.608   3.881
 7023TIP3   OH221032   4.577   5.912   3.574
 7023TIP3    H121033   4.540   5.887   3.659
 7023TIP3    H221034   4.633   5.987   3.594
 7024TIP3   OH221035   3.576   5.903   3.954
 7024TIP3    H121036   3.632   5.976   3.978
 7024TIP3    H221037   3.621   5.860   3.882
 7025TIP3   OH221038   3.630   6.751   4.068
 7025TIP3    H121039   3.612   6.841   4.040
 7025TIP3    H221040   3.554   6.727   4.122
 7026TIP3   OH221041   3.010   6.463   3.308
 7026TIP3    H121042   2.976   6.485   3.221
 7026TIP3    H221043   3.042   6.546   3.343
 7027TIP3   OH221044   6.909  -0.008   3.547
 7027TIP3    H121045   6.819  -0.014   3.579
 7027TIP3    H221046   6.913   0.076   3.501
 7028TIP3   OH221047   4.765   5.866   3.916
 7028TIP3    H121048   4.678   5.886   3.882
 7028TIP3    H221049   4.825   5.892   3.847
 7029TIP3   OH221050   4.035   5.493   3.905
 7029TIP3    H121051   4.025   5.400   3.928
 7029TIP3    H221052   3.959   5.535   3.945
 7030TIP3   OH221053   6.615   0.036   3.204
 7030TIP3    H121054   6.661  -0.047   3.194
 7030TIP3    H221055   6.675   0.101   3.166
 7031TIP3   OH221056   4.294   6.791   3.148
 7031TIP3    H121057   4.302   6.718   3.087
 7031TIP3    H221058   4.333   6.759   3.229
 7032TIP3   OH221059   4.683   6.864   3.893
 7032TIP3    H121060   4.667   6.789   3.835
 7032TIP3    H221061   4.665   6.941   3.838
 7033TIP3   OH221062   3.969   6.274   3.156
 7033TIP3    H121063   3.890   6.323   3.134
 7033TIP3    H221064   4.017   6.268   3.073
 7034TIP3   OH221065   3.936   6.073   2.870
 7034TIP3    H121066   4.006   6.124   2.910
 7034TIP3    H221067   3.982   6.004   2.821
 7035TIP3   OH221068   4.869   6.529   3.753
 7035TIP3    H121069   4.783   6.573   3.752
 7035TIP3    H221070   4.904   6.543   3.665
 7036TIP3   OH221071   4.326   6.366   3.119
 7036TIP3    H121072   4.271   6.391   3.193
 7036TIP3    H221073   4.408   6.337   3.158
 7037TIP3   OH221074   4.555   6.392   4.055
 7037TIP3    H121075   4.551   6.474   4.104
 7037TIP3    H221076   4.472   6.390   4.006
 7038TIP3   OH221077   3.552   6.343   3.536
 7038TIP3    H121078   3.513   6.285   3.471
 7038TIP3    H221079   3.626   6.294   3.572
 7039TIP3   OH221080   3.684   6.738   3.677
 7039TIP3    H121081   3.659   6.723   3.586
 7039TIP3    H221082   3.774   6.705   3.683
 7040TIP3   OH221083   3.663   6.332   3.900
 7040TIP3    H121084   3.698   6.296   3.819
 7040TIP3    H221085   3.714   6.411   3.916
 7041TIP3   OH221086   4.197   6.968   3.670
 7041TIP3    H121087   4.209   7.041   3.730
 7041TIP3    H221088   4.192   6.891   3.726
 7042TIP3   OH221089   3.826   6.871   4.223
 7042TIP3    H121090   3.766   6.929   4.271
 7042TIP3    H221091   3.768   6.815   4.171
 7043TIP3   OH221092   4.160   6.222   2.953
 7043TIP3    H121093   4.219   6.279   3.001
 7043TIP3    H221094   4.185   6.232   2.862
 7044TIP3   OH221095   3.586   6.430   4.349
 7044TIP3    H121096   3.591   6.521   4.378
 7044TIP3    H221097   3.493   6.411   4.345
 7045TIP3   OH221098   3.898   6.895   3.224
 7045TIP3    H121099   3.983   6.937   3.223
 7045TIP3    H221100   3.844   6.947   3.163
 7046TIP3   OH221101   6.089   0.058   4.319
 7046TIP3    H121102   6.061   0.055   4.227
 7046TIP3    H221103   6.010   0.038   4.369
 7047TIP3   OH221104   4.672   5.450   3.006
 7047TIP3    H121105   4.592   5.468   3.056
 7047TIP3    H221106   4.685   5.527   2.952
 7048TIP3   OH221107   3.424   6.188   3.338
 7048TIP3    H121108   3.350   6.232   3.295
 7048TIP3    H221109   3.396   6.097   3.348
 7049TIP3   OH221110   4.491   6.819   2.544
 7049TIP3    H121111   4.488   6.914   2.531
 7049TIP3    H221112   4.583   6.796   2.529
 7050TIP3   OH221113   3.204   6.585   4.253
 7050TIP3    H121114   3.137   6.566   4.188
 7050TIP3    H221115   3.241   6.499   4.275
 7051TIP3   OH221116   3.057   6.764   3.883
 7051TIP3    H121117   3.153   6.766   3.884
 7051TIP3    H221118   3.031   6.842   3.931
 7052TIP3   OH221119   7.382   0.251   3.962
 7052TIP3    H121120   7.384   0.156   3.973
 7052TIP3    H221121   7.298   0.277   4.002
 7053TIP3   OH221122   6.494   0.022   4.092
 7053TIP3    H121123   6.482   0.115   4.110
 7053TIP3    H221124   6.425  -0.022   4.141
 7054TIP3   OH221125   6.247   0.144   3.031
 7054TIP3    H121126   6.227   0.119   2.941
 7054TIP3    H221127   6.179   0.206   3.055
 7055TIP3   OH221128   3.224   6.956   3.429
 7055TIP3    H121129   3.273   6.952   3.512
 7055TIP3    H221130   3.179   6.871   3.424
 7056TIP3   OH221131   6.461   0.049   2.668
 7056TIP3    H121132   6.518  -0.021   2.638
 7056TIP3    H221133   6.489   0.066   2.758
 7057TIP3   OH221134   6.506   0.087   2.939
 7057TIP3    H121135   6.425   0.118   2.980
 7057TIP3    H221136   6.557   0.051   3.012
 7058TIP3   OH221137   4.799   6.349   4.222
 7058TIP3    H121138   4.719   6.358   4.170
 7058TIP3    H221139   4.819   6.255   4.218
 7059TIP3   OH221140   3.413   6.762   4.236
 7059TIP3    H121141   3.461   6.752   4.318
 7059TIP3    H221142   3.339   6.702   4.243
 7060TIP3   OH221143   3.798   5.584   4.033
 7060TIP3    H121144   3.715   5.551   4.000
 7060TIP3    H221145   3.775   5.663   4.082
 7061TIP3   OH221146   4.338   5.701   4.231
 7061TIP3    H121147   4.408   5.675   4.291
 7061TIP3    H221148   4.257   5.681   4.277
 7062TIP3   OH221149   4.564   6.128   4.149
 7062TIP3    H121150   4.520   6.126   4.234
 7062TIP3    H221151   4.545   6.216   4.114
 7063TIP3   OH221152   4.241   6.241   2.696
 7063TIP3    H121153   4.195   6.223   2.613
 7063TIP3    H221154   4.323   6.281   2.669
 7064TIP3   OH221155   3.950   5.621   3.005
 7064TIP3    H121156   3.911   5.627   3.092
 7064TIP3    H221157   3.905   5.547   2.964
 7065TIP3   OH221158   3.735   6.109   4.048
 7065TIP3    H121159   3.687   6.118   4.130
 7065TIP3    H221160   3.715   6.189   3.999
 7066TIP3   OH221161   3.616   5.994   3.563
 7066TIP3    H121162   3.527   5.967   3.586
 7066TIP3    H221163   3.628   5.960   3.474
 7067TIP3   OH221164   4.099   6.072   3.292
 7067TIP3    H121165   4.050   6.142   3.250
 7067TIP3    H221166   4.157   6.038   3.224
 7068TIP3   OH221167   4.281   6.340   4.370
 7068TIP3    H121168   4.255   6.271   4.430
 7068TIP3    H221169   4.374   6.354   4.389
 7069TIP3   OH221170   4.265   6.089   3.518
 7069TIP3    H121171   4.198   6.114   3.454
 7069TIP3    H221172   4.309   6.014   3.478
 7070TIP3   OH221173   3.563   6.127   4.263
 7070TIP3    H121174   3.585   6.188   4.333
 7070TIP3    H221175   3.546   6.044   4.308
 7071TIP3   OH221176   3.583   5.584   2.974
 7071TIP3    H121177   3.576   5.602   3.068
 7071TIP3    H221178   3.526   5.649   2.934
 7072TIP3   OH221179   3.153   5.650   3.844
 7072TIP3    H121180   3.228   5.682   3.894
 7072TIP3    H221181   3.189   5.622   3.760
 7073TIP3   OH221182   3.084   5.627   3.354
 7073TIP3    H121183   3.130   5.661   3.277
 7073TIP3    H221184   3.021   5.696   3.376
 7074TIP3   OH221185   4.294   6.336   3.945
 7074TIP3    H121186   4.322   6.270   3.881
 7074TIP3    H221187   4.255   6.286   4.016
 7075TIP3   OH221188   3.975   5.792   3.619
 7075TIP3    H121189   3.897   5.791   3.674
 7075TIP3    H221190   4.048   5.782   3.681
 7076TIP3   OH221191   3.378   5.867   3.624
 7076TIP3    H121192   3.289   5.872   3.590
 7076TIP3    H221193   3.406   5.778   3.606
 7077TIP3   OH221194   3.634   5.872   3.319
 7077TIP3    H121195   3.729   5.879   3.304
 7077TIP3    H221196   3.595   5.888   3.232
 7078TIP3   OH221197   4.438   5.877   3.827
 7078TIP3    H121198   4.413   5.894   3.918
 7078TIP3    H221199   4.371   5.816   3.795
 7079TIP3   OH221200   3.507   5.896   3.077
 7079TIP3    H121201   3.442   5.849   3.025
 7079TIP3    H221202   3.563   5.939   3.013
 7080TIP3   OH221203   7.095   0.601   4.041
 7080TIP3    H121204   7.083   0.607   3.946
 7080TIP3    H221205   7.170   0.656   4.060
 7081TIP3   OH221206   3.575   6.689   4.465
 7081TIP3    H121207   3.651   6.719   4.514
 7081TIP3    H221208   3.504   6.687   4.530
 7082TIP3   OH221209   4.030   6.149   3.723
 7082TIP3    H121210   4.093   6.099   3.672
 7082TIP3    H221211   4.029   6.107   3.808
 7083TIP3   OH221212   3.528   5.621   3.607
 7083TIP3    H121213   3.498   5.545   3.657
 7083TIP3    H221214   3.556   5.585   3.523
 7084TIP3   OH221215   4.002   6.051   3.992
 7084TIP3    H121216   3.914   6.081   4.014
 7084TIP3    H221217   4.060   6.105   4.046
 7085TIP3   OH221218   3.729   6.421   3.095
 7085TIP3    H121219   3.661   6.355   3.080
 7085TIP3    H221220   3.713   6.452   3.184
 7086TIP3   OH221221   4.629   6.661   3.716
 7086TIP3    H121222   4.662   6.710   3.641
 7086TIP3    H221223   4.548   6.621   3.684
 7087TIP3   OH221224   4.202   5.723   3.001
 7087TIP3    H121225   4.110   5.699   2.994
 7087TIP3    H221226   4.201   5.819   3.003
 7088TIP3   OH221227   4.146   6.737   4.107
 7088TIP3    H121228   4.187   6.723   4.192
 7088TIP3    H221229   4.106   6.824   4.114
 7089TIP3   OH221230   4.262   5.992   3.078
 7089TIP3    H121231   4.358   5.995   3.081
 7089TIP3    H221232   4.238   6.065   3.021
 7090TIP3   OH221233   3.432   6.442   3.765
 7090TIP3    H121234   3.467   6.419   3.679
 7090TIP3    H221235   3.492   6.400   3.827
 7091TIP3   OH221236   3.896   6.570   2.937
 7091TIP3    H121237   3.851   6.654   2.938
 7091TIP3    H221238   3.840   6.512   2.990
 7092TIP3   OH221239   3.314   6.364   4.390
 7092TIP3    H121240   3.328   6.342   4.482
 7092TIP3    H221241   3.242   6.307   4.362
 7093TIP3   OH221242   4.045   6.487   4.409
 7093TIP3    H121243   3.979   6.427   4.374
 7093TIP3    H221244   4.128   6.449   4.380
 7094TIP3   OH221245   6.758   0.029   3.990
 7094TIP3    H121246   6.665   0.023   4.010
 7094TIP3    H221247   6.793   0.090   4.055
 7095TIP3   OH221248   4.690   6.082   2.896
 7095TIP3    H121249   4.633   6.035   2.834
 7095TIP3    H221250   4.691   6.172   2.865
 7096TIP3   OH221251   4.927   6.950   3.978
 7096TIP3    H121252   4.834   6.932   3.974
 7096TIP3    H221253   4.962   6.919   3.895
 7097TIP3   OH221254   4.400   6.896   2.805
 7097TIP3    H121255   4.396   6.825   2.869
 7097TIP3    H221256   4.438   6.855   2.727
 7098TIP3   OH221257   4.396   6.528   3.618
 7098TIP3    H121258   4.306   6.504   3.637
 7098TIP3    H221259   4.434   6.449   3.579
 7099TIP3   OH221260   3.544   6.744   3.431
 7099TIP3    H121261   3.537   6.817   3.369
 7099TIP3    H221262   3.453   6.715   3.443
 7100TIP3   OH221263   3.106   6.051   3.121
 7100TIP3    H121264   3.152   6.132   3.143
 7100TIP3    H221265   3.028   6.052   3.176
 7101TIP3   OH221266   3.653   6.510   3.338
 7101TIP3    H121267   3.634   6.599   3.365
 7101TIP3    H221268   3.623   6.456   3.411
 7102TIP3   OH221269   6.290   0.073   3.898
 7102TIP3    H121270   6.329   0.141   3.844
 7102TIP3    H221271   6.364   0.030   3.940
 7103TIP3   OH221272   5.911  -0.025   3.272
 7103TIP3    H121273   5.826  -0.018   3.314
 7103TIP3    H221274   5.960   0.052   3.301
 7104TIP3   OH221275   4.189   6.740   3.833
 7104TIP3    H121276   4.181   6.734   3.928
 7104TIP3    H221277   4.255   6.674   3.810
 7105TIP3   OH221278   4.179   6.626   2.728
 7105TIP3    H121279   4.231   6.614   2.807
 7105TIP3    H221280   4.094   6.587   2.749
 7106TIP3   OH221281   6.920   0.281   3.872
 7106TIP3    H121282   6.835   0.239   3.863
 7106TIP3    H221283   6.917   0.354   3.809
 7107TIP3   OH221284   6.967   0.113   2.516
 7107TIP3    H121285   7.038   0.173   2.494
 7107TIP3    H221286   6.893   0.169   2.539
 7108TIP3   OH221287   3.518   5.875   4.390
 7108TIP3    H121288   3.422   5.881   4.395
 7108TIP3    H221289   3.542   5.820   4.464
 7109TIP3   OH221290   4.348   6.583   2.946
 7109TIP3    H121291   4.332   6.507   3.002
 7109TIP3    H221292   4.441   6.577   2.924
 7110TIP3   OH221293   3.260   6.934   4.036
 7110TIP3    H121294   3.331   6.871   4.049
 7110TIP3    H221295   3.244   6.972   4.122
 7111TIP3   OH221296   3.520   6.595   2.723
 7111TIP3    H121297   3.534   6.507   2.690
 7111TIP3    H221298   3.507   6.584   2.817
 7112TIP3   OH221299   3.482   6.580   2.996
 7112TIP3    H121300   3.559   6.544   3.040
 7112TIP3    H221301   3.487   6.674   3.013
 7113TIP3   OH221302   3.208   6.298   3.203
 7113TIP3    H121303   3.141   6.343   3.255
 7113TIP3    H221304   3.227   6.359   3.132
 7114TIP3   OH221305   4.367   5.937   4.089
 7114TIP3    H121306   4.447   5.978   4.122
 7114TIP3    H221307   4.357   5.858   4.142
 7115TIP3   OH221308   4.255   5.680   3.270
 7115TIP3    H121309   4.234   5.696   3.178
 7115TIP3    H221310   4.297   5.760   3.300
 7116TIP3   OH221311   3.754   6.798   2.948
 7116TIP3    H121312   3.667   6.813   2.985
 7116TIP3    H221313   3.769   6.874   2.891
 7117TIP3   OH221314   3.916   5.876   3.360
 7117TIP3    H121315   3.978   5.944   3.334
 7117TIP3    H221316   3.935   5.860   3.452
 7118TIP3   OH221317   4.206   6.172   4.146
 7118TIP3    H121318   4.232   6.215   4.227
 7118TIP3    H221319   4.256   6.090   4.144
 7119TIP3   OH221320   4.071   5.580   3.452
 7119TIP3    H121321   4.048   5.659   3.502
 7119TIP3    H221322   4.138   5.610   3.390
 7120TIP3   OH221323   3.496   6.846   3.031
 7120TIP3    H121324   3.471   6.916   2.971
 7120TIP3    H221325   3.476   6.880   3.118
 7121TIP3   OH221326   3.580   5.599   3.257
 7121TIP3    H121327   3.573   5.690   3.286
 7121TIP3    H221328   3.674   5.581   3.257
 7122TIP3   OH221329   4.829   6.075   4.135
 7122TIP3    H121330   4.734   6.083   4.146
 7122TIP3    H221331   4.840   6.021   4.057
 7123TIP3   OH221332   4.489   6.275   3.522
 7123TIP3    H121333   4.413   6.218   3.530
 7123TIP3    H221334   4.557   6.231   3.573
 7124TIP3   OH221335   3.221   6.486   2.991
 7124TIP3    H121336   3.296   6.544   3.005
 7124TIP3    H221337   3.253   6.420   2.929
 7125TIP3   OH221338   3.142   5.775   3.130
 7125TIP3    H121339   3.148   5.870   3.131
 7125TIP3    H221340   3.080   5.755   3.060
 7126TIP3   OH221341   6.940   0.258   3.469
 7126TIP3    H121342   6.900   0.298   3.392
 7126TIP3    H221343   7.033   0.277   3.460
 7127TIP3   OH221344   3.535   5.498   3.996
 7127TIP3    H121345   3.506   5.465   3.910
 7127TIP3    H221346   3.525   5.423   4.054
 7128TIP3   OH221347   3.076   6.723   3.406
 7128TIP3    H121348   3.007   6.742   3.469
 7128TIP3    H221349   3.043   6.755   3.322
 7129TIP3   OH221350   5.716   0.283   4.469
 7129TIP3    H121351   5.798   0.284   4.519
 7129TIP3    H221352   5.689   0.192   4.469
 7130TIP3   OH221353   6.180   0.259   4.482
 7130TIP3    H121354   6.265   0.230   4.514
 7130TIP3    H221355   6.152   0.189   4.422
 7131TIP3   OH221356   3.689   6.794   2.629
 7131TIP3    H121357   3.641   6.721   2.668
 7131TIP3    H221358   3.765   6.754   2.589
 7132TIP3   OH221359   4.133   6.828   2.543
 7132TIP3    H121360   4.166   6.765   2.608
 7132TIP3    H221361   4.197   6.823   2.472
 7133TIP3   OH221362   3.363   6.662   4.640
 7133TIP3    H121363   3.382   6.568   4.649
 7133TIP3    H221364   3.276   6.666   4.602
 7134TIP3   OH221365   3.349   6.293   2.849
 7134TIP3    H121366   3.402   6.269   2.925
 7134TIP3    H221367   3.413   6.305   2.778
 7135TIP3   OH221368   3.978   6.760   4.425
 7135TIP3    H121369   3.931   6.780   4.344
 7135TIP3    H221370   4.010   6.671   4.414
 7136TIP3   OH221371   3.886   6.515   2.667
 7136TIP3    H121372   3.881   6.526   2.762
 7136TIP3    H221373   3.885   6.420   2.654
 7137TIP3   OH221374   4.463   6.789   4.042
 7137TIP3    H121375   4.538   6.820   3.993
 7137TIP3    H221376   4.391   6.847   4.016
 7138TIP3   OH221377   3.483   6.408   4.644
 7138TIP3    H121378   3.565   6.386   4.600
 7138TIP3    H221379   3.509   6.432   4.733
 7139TIP3   OH221380   3.531   6.230   3.058
 7139TIP3    H121381   3.511   6.191   3.143
 7139TIP3    H221382   3.577   6.160   3.010
 7140TIP3   OH221383   3.831   6.305   4.308
 7140TIP3    H121384   3.749   6.354   4.315
 7140TIP3    H221385   3.870   6.334   4.225
 7141TIP3   OH221386   3.660   6.041   2.902
 7141TIP3    H121387   3.632   6.039   2.810
 7141TIP3    H221388   3.756   6.044   2.898
 7142TIP3   OH221389   4.340   6.697   4.414
 7142TIP3    H121390   4.417   6.667   4.366
 7142TIP3    H221391   4.337   6.641   4.491
 7143TIP3   OH221392   4.469   6.346   2.577
 7143TIP3    H121393   4.452   6.301   2.494
 7143TIP3    H221394   4.440   6.436   2.561
 7144TIP3   OH221395   3.943   6.081   4.418
 7144TIP3    H121396   3.945   6.008   4.356
 7144TIP3    H221397   3.905   6.153   4.368
 7145TIP3   OH221398   3.950   5.877   4.220
 7145TIP3    H121399   3.977   5.913   4.136
 7145TIP3    H221400   3.858   5.851   4.206
 7146TIP3   OH221401   3.966   6.404   4.095
 7146TIP3    H121402   4.055   6.424   4.068
 7146TIP3    H221403   3.911   6.466   4.047
 7147TIP3   OH221404   4.550   6.364   4.471
 7147TIP3    H121405   4.583   6.275   4.481
 7147TIP3    H221406   4.623   6.413   4.434
 7148TIP3   OH221407   4.589   6.627   4.218
 7148TIP3    H121408   4.533   6.684   4.165
 7148TIP3    H221409   4.677   6.641   4.184
 7149TIP3   OH221410   3.824   6.174   4.657
 7149TIP3    H121411   3.756   6.109   4.677
 7149TIP3    H221412   3.854   6.149   4.569
 7150TIP3   OH221413   4.074   5.642   4.311
 7150TIP3    H121414   4.031   5.722   4.281
 7150TIP3    H221415   4.008   5.573   4.299
 7151TIP3   OH221416   4.199   6.124   4.517
 7151TIP3    H121417   4.187   6.112   4.611
 7151TIP3    H221418   4.114   6.103   4.479
 7152TIP3   OH221419   4.444   6.084   4.386
 7152TIP3    H121420   4.366   6.080   4.440
 7152TIP3    H221421   4.514   6.052   4.443
 7153TIP3   OH221422   4.678   6.036   4.534
 7153TIP3    H121423   4.692   5.941   4.542
 7153TIP3    H221424   4.674   6.066   4.625
 7154TIP3   OH221425   3.660   5.953   4.722
 7154TIP3    H121426   3.664   5.864   4.686
 7154TIP3    H221427   3.698   5.945   4.809
 7155TIP3   OH221428   4.150   5.631   4.575
 7155TIP3    H121429   4.218   5.565   4.570
 7155TIP3    H221430   4.115   5.638   4.486
 7156TIP3   OH221431   4.234   5.848   4.722
 7156TIP3    H121432   4.207   5.776   4.665
 7156TIP3    H221433   4.160   5.909   4.720
 7157TIP3   OH221434   5.943   0.076   2.863
 7157TIP3    H121435   6.036   0.074   2.845
 7157TIP3    H221436   5.902   0.087   2.777
 7158TIP3   OH221437   2.952   6.464   3.023
 7158TIP3    H121438   3.045   6.483   3.014
 7158TIP3    H221439   2.940   6.378   2.984
 7159TIP3   OH221440   5.347   0.034   3.403
 7159TIP3    H121441   5.273  -0.021   3.377
 7159TIP3    H221442   5.379  -0.006   3.485
 7160TIP3   OH221443   2.971   6.914   3.651
 7160TIP3    H121444   2.971   6.838   3.710
 7160TIP3    H221445   3.037   6.973   3.689
 7161TIP3   OH221446   7.194   0.355   3.446
 7161TIP3    H121447   7.233   0.355   3.533
 7161TIP3    H221448   7.268   0.363   3.386
 7162TIP3   OH221449   7.246   0.325   3.721
 7162TIP3    H121450   7.196   0.243   3.717
 7162TIP3    H221451   7.316   0.308   3.783
 7163TIP3   OH221452   7.260   0.049   4.305
 7163TIP3    H121453   7.171   0.075   4.325
 7163TIP3    H221454   7.310   0.130   4.305
 7164TIP3   OH221455   4.621   6.551   2.909
 7164TIP3    H121456   4.673   6.623   2.874
 7164TIP3    H221457   4.673   6.517   2.982
 7165TIP3   OH221458   4.748   6.399   3.110
 7165TIP3    H121459   4.678   6.361   3.163
 7165TIP3    H221460   4.808   6.437   3.174
 7166TIP3   OH221461   4.801   6.799   3.546
 7166TIP3    H121462   4.853   6.730   3.504
 7166TIP3    H221463   4.805   6.872   3.484
 7167TIP3   OH221464   7.083   0.101   3.737
 7167TIP3    H121465   7.017   0.155   3.782
 7167TIP3    H221466   7.035   0.060   3.665
 7168TIP3   OH221467   4.673   6.324   2.760
 7168TIP3    H121468   4.602   6.323   2.695
 7168TIP3    H221469   4.655   6.402   2.813
 7169TIP3   OH221470   4.539   5.972   2.698
 7169TIP3    H121471   4.491   6.014   2.626
 7169TIP3    H221472   4.527   5.878   2.683
 7170TIP3   OH221473   4.549   6.262   3.251
 7170TIP3    H121474   4.555   6.167   3.237
 7170TIP3    H221475   4.533   6.272   3.344
 7171TIP3   OH221476   3.177   6.331   4.014
 7171TIP3    H121477   3.168   6.294   3.926
 7171TIP3    H221478   3.272   6.330   4.030
 7172TIP3   OH221479   4.839   6.680   4.111
 7172TIP3    H121480   4.906   6.613   4.097
 7172TIP3    H221481   4.846   6.738   4.035
 7173TIP3   OH221482   5.017   6.472   4.109
 7173TIP3    H121483   4.942   6.429   4.150
 7173TIP3    H221484   5.091   6.416   4.130
 7174TIP3   OH221485   4.503   5.700   2.662
 7174TIP3    H121486   4.565   5.679   2.732
 7174TIP3    H221487   4.420   5.664   2.691
 7175TIP3   OH221488   4.554   5.986   3.137
 7175TIP3    H121489   4.596   5.901   3.150
 7175TIP3    H221490   4.599   6.024   3.061
 7176TIP3   OH221491   4.706   6.148   3.653
 7176TIP3    H121492   4.787   6.167   3.605
 7176TIP3    H221493   4.720   6.186   3.740
 7177TIP3   OH221494   4.779   6.299   3.881
 7177TIP3    H121495   4.704   6.329   3.932
 7177TIP3    H221496   4.811   6.378   3.838
 7178TIP3   OH221497   3.394   6.009   4.671
 7178TIP3    H121498   3.489   6.006   4.683
 7178TIP3    H221499   3.362   5.927   4.709
 7179TIP3   OH221500   5.234   5.901   4.425
 7179TIP3    H121501   5.295   5.840   4.385
 7179TIP3    H221502   5.197   5.950   4.351
 7180TIP3   OH221503   4.663   5.733   3.186
 7180TIP3    H121504   4.706   5.716   3.270
 7180TIP3    H221505   4.599   5.662   3.177
 7181TIP3   OH221506   3.365   5.717   4.014
 7181TIP3    H121507   3.420   5.639   4.019
 7181TIP3    H221508   3.426   5.788   3.998
 7182TIP3   OH221509   3.153   5.983   4.076
 7182TIP3    H121510   3.203   5.973   3.995
 7182TIP3    H221511   3.185   6.066   4.113
 7183TIP3   OH221512   5.088   6.017   4.224
 7183TIP3    H121513   5.003   6.057   4.241
 7183TIP3    H221514   5.069   5.939   4.172
 7184TIP3   OH221515   4.726   5.655   2.828
 7184TIP3    H121516   4.767   5.591   2.770
 7184TIP3    H221517   4.784   5.731   2.825
 7185TIP3   OH221518   3.141   5.496   3.586
 7185TIP3    H121519   3.053   5.481   3.618
 7185TIP3    H221520   3.129   5.548   3.507
 7186TIP3   OH221521   6.776   0.210   3.073
 7186TIP3    H121522   6.828   0.197   2.994
 7186TIP3    H221523   6.832   0.261   3.131
 7187TIP3   OH221524   3.362   5.562   4.401
 7187TIP3    H121525   3.310   5.553   4.481
 7187TIP3    H221526   3.303   5.604   4.339
 7188TIP3   OH221527   5.865   0.020   4.475
 7188TIP3    H121528   5.773  -0.000   4.460
 7188TIP3    H221529   5.878   0.008   4.569
 7189TIP3   OH221530   6.062   0.043   4.044
 7189TIP3    H121531   6.002   0.097   3.993
 7189TIP3    H221532   6.148   0.057   4.003
 7190TIP3   OH221533   6.472   0.289   4.156
 7190TIP3    H121534   6.506   0.289   4.245
 7190TIP3    H221535   6.539   0.336   4.105
 7191TIP3   OH221536   6.670   0.421   4.028
 7191TIP3    H121537   6.717   0.409   3.945
 7191TIP3    H221538   6.737   0.452   4.089
 7192TIP3   OH221539   4.999   5.771   4.119
 7192TIP3    H121540   4.911   5.761   4.084
 7192TIP3    H221541   5.037   5.683   4.113
 7193TIP3   OH221542   5.768   0.316   4.082
 7193TIP3    H121543   5.675   0.319   4.061
 7193TIP3    H221544   5.771   0.288   4.173
 7194TIP3   OH221545   5.937   0.220   3.889
 7194TIP3    H121546   5.883   0.263   3.955
 7194TIP3    H221547   5.944   0.284   3.818
 7195TIP3   OH221548   6.404   0.259   3.739
 7195TIP3    H121549   6.351   0.259   3.659
 7195TIP3    H221550   6.394   0.348   3.774
 7196TIP3   OH221551   6.671   0.255   3.765
 7196TIP3    H121552   6.576   0.246   3.770
 7196TIP3    H221553   6.685   0.316   3.693
 7197TIP3   OH221554   6.878   0.453   3.655
 7197TIP3    H121555   6.792   0.488   3.632
 7197TIP3    H221556   6.896   0.388   3.586
 7198TIP3   OH221557   5.644   0.079   3.802
 7198TIP3    H121558   5.668   0.054   3.892
 7198TIP3    H221559   5.714   0.044   3.748
 7199TIP3   OH221560   3.374   6.947   3.654
 7199TIP3    H121561   3.383   6.864   3.701
 7199TIP3    H221562   3.461   6.986   3.659
 7200TIP3   OH221563   6.109   0.030   3.685
 7200TIP3    H121564   6.126  -0.064   3.672
 7200TIP3    H221565   6.149   0.049   3.770
 7201TIP3   OH221566   4.208   5.699   3.753
 7201TIP3    H121567   4.167   5.625   3.800
 7201TIP3    H221568   4.276   5.658   3.700
 7202TIP3   OH221569   4.711   5.601   3.647
 7202TIP3    H121570   4.747   5.649   3.572
 7202TIP3    H221571   4.617   5.618   3.643
 7203TIP3   OH221572   4.821   5.680   3.409
 7203TIP3    H121573   4.891   5.622   3.377
 7203TIP3    H221574   4.855   5.768   3.396
 7204TIP3   OH221575   3.447   5.397   3.753
 7204TIP3    H121576   3.357   5.366   3.759
 7204TIP3    H221577   3.500   5.318   3.746
 7205TIP3   OH221578   3.257   5.296   3.407
 7205TIP3    H121579   3.285   5.345   3.330
 7205TIP3    H221580   3.226   5.363   3.468
 7206TIP3   OH221581   3.915   5.438   3.644
 7206TIP3    H121582   3.964   5.483   3.575
 7206TIP3    H221583   3.957   5.466   3.725
 7207TIP3   OH221584   4.426   5.586   3.622
 7207TIP3    H121585   4.430   5.552   3.532
 7207TIP3    H221586   4.426   5.507   3.677
 7208TIP3   OH221587   4.476   5.523   3.189
 7208TIP3    H121588   4.395   5.570   3.208
 7208TIP3    H221589   4.464   5.437   3.228
 7209TIP3   OH221590   2.968   6.812   3.178
 7209TIP3    H121591   2.889   6.774   3.141
 7209TIP3    H221592   2.960   6.906   3.161
 7210TIP3   OH221593   3.367   5.432   3.171
 7210TIP3    H121594   3.412   5.373   3.110
 7210TIP3    H221595   3.437   5.488   3.205
 7211TIP3   OH221596   3.857   5.625   3.267
 7211TIP3    H121597   3.916   5.572   3.319
 7211TIP3    H221598   3.876   5.715   3.292
 7212TIP3   OH221599   6.203   0.044   2.773
 7212TIP3    H121600   6.282   0.076   2.731
 7212TIP3    H221601   6.176  -0.031   2.719
 7213TIP3   OH221602   6.917   0.185   2.836
 7213TIP3    H121603   6.907   0.090   2.827
 7213TIP3    H221604   6.887   0.221   2.752
 7214TIP3   OH221605   3.666   5.679   4.640
 7214TIP3    H121606   3.630   5.611   4.697
 7214TIP3    H221607   3.758   5.685   4.664
 7215TIP3   OH221608   3.917   5.684   4.758
 7215TIP3    H121609   3.997   5.661   4.710
 7215TIP3    H221610   3.908   5.615   4.823
 7216TIP3   OH221611   3.050   6.867   2.833
 7216TIP3    H121612   3.075   6.907   2.917
 7216TIP3    H221613   3.129   6.822   2.803
 7217TIP3   OH221614   4.742   5.765   4.548
 7217TIP3    H121615   4.758   5.735   4.637
 7217TIP3    H221616   4.828   5.760   4.505
 7218TIP3   OH221617   7.128   0.327   4.051
 7218TIP3    H121618   7.056   0.298   3.995
 7218TIP3    H221619   7.127   0.422   4.044
 7219TIP3   OH221620   5.924   6.673   2.808
 7219TIP3    H121621   5.892   6.761   2.791
 7219TIP3    H221622   5.861   6.615   2.764
 7220TIP3   OH221623   5.919   6.683   3.207
 7220TIP3    H121624   5.964   6.663   3.289
 7220TIP3    H221625   5.879   6.600   3.181
 7221TIP3   OH221626   5.238   6.557   3.564
 7221TIP3    H121627   5.272   6.497   3.631
 7221TIP3    H221628   5.315   6.583   3.513
 7222TIP3   OH221629   6.175   6.949   2.874
 7222TIP3    H121630   6.163   6.886   2.945
 7222TIP3    H221631   6.204   7.029   2.917
 7223TIP3   OH221632   5.215   6.978   3.266
 7223TIP3    H121633   5.205   6.883   3.269
 7223TIP3    H221634   5.308   6.992   3.253
 7224TIP3   OH221635   4.914   6.182   3.040
 7224TIP3    H121636   4.871   6.263   3.064
 7224TIP3    H221637   4.846   6.130   2.998
 7225TIP3   OH221638   4.975   6.477   3.254
 7225TIP3    H121639   5.029   6.402   3.278
 7225TIP3    H221640   5.033   6.533   3.202
 7226TIP3   OH221641   0.842   0.425   2.872
 7226TIP3    H121642   0.905   0.381   2.816
 7226TIP3    H221643   0.895   0.467   2.940
 7227TIP3   OH221644   5.736   6.905   3.228
 7227TIP3    H121645   5.782   6.826   3.198
 7227TIP3    H221646   5.806   6.966   3.250
 7228TIP3   OH221647   6.761   6.218   3.240
 7228TIP3    H121648   6.780   6.302   3.282
 7228TIP3    H221649   6.783   6.232   3.148
 7229TIP3   OH221650   6.148   6.394   3.262
 7229TIP3    H121651   6.192   6.312   3.286
 7229TIP3    H221652   6.113   6.377   3.174
 7230TIP3   OH221653   5.503   6.057   3.221
 7230TIP3    H121654   5.482   6.129   3.160
 7230TIP3    H221655   5.450   5.983   3.190
 7231TIP3   OH221656   6.195   6.152   2.848
 7231TIP3    H121657   6.262   6.142   2.916
 7231TIP3    H221658   6.243   6.184   2.772
 7232TIP3   OH221659   5.128   6.264   3.341
 7232TIP3    H121660   5.210   6.246   3.387
 7232TIP3    H221661   5.134   6.212   3.261
 7233TIP3   OH221662   5.554   6.458   3.153
 7233TIP3    H121663   5.648   6.442   3.161
 7233TIP3    H221664   5.518   6.377   3.115
 7234TIP3   OH221665   6.825   6.434   3.409
 7234TIP3    H121666   6.733   6.462   3.408
 7234TIP3    H221667   6.862   6.480   3.484
 7235TIP3   OH221668   5.485   6.052   3.670
 7235TIP3    H121669   5.433   6.086   3.597
 7235TIP3    H221670   5.431   6.068   3.747
 7236TIP3   OH221671   5.814   6.895   2.666
 7236TIP3    H121672   5.899   6.937   2.650
 7236TIP3    H221673   5.756   6.967   2.690
 7237TIP3   OH221674   5.582   6.821   3.442
 7237TIP3    H121675   5.524   6.889   3.477
 7237TIP3    H221676   5.630   6.864   3.371
 7238TIP3   OH221677   6.368   6.162   3.058
 7238TIP3    H121678   6.333   6.141   3.145
 7238TIP3    H221679   6.425   6.237   3.073
 7239TIP3   OH221680   5.371   6.161   3.442
 7239TIP3    H121681   5.427   6.234   3.466
 7239TIP3    H221682   5.417   6.119   3.369
 7240TIP3   OH221683   0.487   0.036   3.552
 7240TIP3    H121684   0.474   0.123   3.513
 7240TIP3    H221685   0.408   0.021   3.603
 7241TIP3   OH221686   1.318   0.198   3.010
 7241TIP3    H121687   1.230   0.216   3.044
 7241TIP3    H221688   1.357   0.285   2.999
 7242TIP3   OH221689   6.554   6.111   3.396
 7242TIP3    H121690   6.468   6.134   3.360
 7242TIP3    H221691   6.617   6.138   3.330
 7243TIP3   OH221692   5.829   5.748   3.390
 7243TIP3    H121693   5.820   5.656   3.415
 7243TIP3    H221694   5.754   5.791   3.432
 7244TIP3   OH221695   1.010   0.292   2.684
 7244TIP3    H121696   1.049   0.206   2.669
 7244TIP3    H221697   1.083   0.353   2.680
 7245TIP3   OH221698   1.125   0.048   2.637
 7245TIP3    H121699   1.157  -0.006   2.564
 7245TIP3    H221700   1.174   0.017   2.713
 7246TIP3   OH221701   1.583   0.066   3.407
 7246TIP3    H121702   1.555   0.028   3.323
 7246TIP3    H221703   1.618   0.152   3.384
 7247TIP3   OH221704   5.775   6.520   2.632
 7247TIP3    H121705   5.698   6.572   2.609
 7247TIP3    H221706   5.824   6.512   2.551
 7248TIP3   OH221707   6.648   6.738   3.234
 7248TIP3    H121708   6.564   6.785   3.239
 7248TIP3    H221709   6.693   6.778   3.160
 7249TIP3   OH221710   6.109   6.619   2.611
 7249TIP3    H121711   6.053   6.641   2.686
 7249TIP3    H221712   6.186   6.578   2.650
 7250TIP3   OH221713   6.318   6.599   3.529
 7250TIP3    H121714   6.371   6.679   3.535
 7250TIP3    H221715   6.236   6.627   3.488
 7251TIP3   OH221716   5.356   6.605   3.020
 7251TIP3    H121717   5.313   6.546   2.957
 7251TIP3    H221718   5.427   6.553   3.057
 7252TIP3   OH221719   0.542   0.034   3.158
 7252TIP3    H121720   0.522   0.014   3.066
 7252TIP3    H221721   0.631   0.002   3.170
 7253TIP3   OH221722   5.458   6.585   3.384
 7253TIP3    H121723   5.495   6.550   3.302
 7253TIP3    H221724   5.507   6.666   3.399
 7254TIP3   OH221725   1.077   0.202   3.139
 7254TIP3    H121726   1.041   0.284   3.173
 7254TIP3    H221727   1.075   0.142   3.214
 7255TIP3   OH221728   0.669   0.118   3.743
 7255TIP3    H121729   0.610   0.184   3.778
 7255TIP3    H221730   0.618   0.073   3.676
 7256TIP3   OH221731   5.957   6.477   2.427
 7256TIP3    H121732   6.020   6.538   2.465
 7256TIP3    H221733   5.976   6.478   2.333
 7257TIP3   OH221734   5.380   6.680   3.839
 7257TIP3    H121735   5.384   6.772   3.863
 7257TIP3    H221736   5.287   6.660   3.833
 7258TIP3   OH221737   0.759   0.161   2.706
 7258TIP3    H121738   0.841   0.210   2.706
 7258TIP3    H221739   0.691   0.226   2.725
 7259TIP3   OH221740   0.470   0.303   3.786
 7259TIP3    H121741   0.446   0.323   3.696
 7259TIP3    H221742   0.387   0.289   3.831
 7260TIP3   OH221743   6.466   5.706   2.492
 7260TIP3    H121744   6.387   5.727   2.543
 7260TIP3    H221745   6.481   5.783   2.438
 7261TIP3   OH221746   5.215   6.453   2.827
 7261TIP3    H121747   5.147   6.503   2.782
 7261TIP3    H221748   5.169   6.377   2.863
 7262TIP3   OH221749   5.002   6.839   3.742
 7262TIP3    H121750   4.934   6.823   3.676
 7262TIP3    H221751   5.038   6.752   3.760
 7263TIP3   OH221752   7.344   0.043   3.387
 7263TIP3    H121753   7.431   0.028   3.351
 7263TIP3    H221754   7.354   0.117   3.446
 7264TIP3   OH221755   0.739   0.322   3.563
 7264TIP3    H121756   0.821   0.369   3.581
 7264TIP3    H221757   0.735   0.255   3.632
 7265TIP3   OH221758   0.607   0.420   2.532
 7265TIP3    H121759   0.547   0.449   2.463
 7265TIP3    H221760   0.566   0.451   2.613
 7266TIP3   OH221761   0.084   0.262   2.889
 7266TIP3    H121762   0.125   0.251   2.974
 7266TIP3    H221763   0.022   0.189   2.882
 7267TIP3   OH221764   0.854   0.326   2.437
 7267TIP3    H121765   0.770   0.359   2.470
 7267TIP3    H221766   0.907   0.314   2.516
 7268TIP3   OH221767   6.639   6.559   3.655
 7268TIP3    H121768   6.580   6.578   3.728
 7268TIP3    H221769   6.637   6.464   3.646
 7269TIP3   OH221770   0.269   0.048   3.719
 7269TIP3    H121771   0.319   0.034   3.799
 7269TIP3    H221772   0.197  -0.015   3.724
 7270TIP3   OH221773   5.594   5.841   3.520
 7270TIP3    H121774   5.511   5.807   3.488
 7270TIP3    H221775   5.572   5.920   3.569
 7271TIP3   OH221776   6.135   5.957   3.718
 7271TIP3    H121777   6.204   5.930   3.778
 7271TIP3    H221778   6.054   5.937   3.765
 7272TIP3   OH221779   6.360   6.358   3.645
 7272TIP3    H121780   6.324   6.370   3.732
 7272TIP3    H221781   6.345   6.441   3.601
 7273TIP3   OH221782   5.735   5.911   2.463
 7273TIP3    H121783   5.709   5.917   2.555
 7273TIP3    H221784   5.707   5.824   2.435
 7274TIP3   OH221785   5.531   6.366   3.535
 7274TIP3    H121786   5.482   6.375   3.616
 7274TIP3    H221787   5.512   6.445   3.486
 7275TIP3   OH221788   5.412   6.244   3.042
 7275TIP3    H121789   5.324   6.219   3.067
 7275TIP3    H221790   5.422   6.211   2.952
 7276TIP3   OH221791   5.899   6.320   2.773
 7276TIP3    H121792   5.852   6.393   2.731
 7276TIP3    H221793   5.960   6.290   2.705
 7277TIP3   OH221794   6.066   6.598   3.858
 7277TIP3    H121795   6.045   6.528   3.919
 7277TIP3    H221796   6.161   6.609   3.864
 7278TIP3   OH221797   6.059   6.342   3.007
 7278TIP3    H121798   5.995   6.373   2.943
 7278TIP3    H221799   6.101   6.267   2.964
 7279TIP3   OH221800   5.362   6.384   3.751
 7279TIP3    H121801   5.374   6.448   3.821
 7279TIP3    H221802   5.344   6.302   3.796
 7280TIP3   OH221803   5.417   5.872   2.455
 7280TIP3    H121804   5.403   5.866   2.550
 7280TIP3    H221805   5.334   5.908   2.422
 7281TIP3   OH221806   4.948   5.905   3.331
 7281TIP3    H121807   5.023   5.938   3.379
 7281TIP3    H221808   4.983   5.879   3.246
 7282TIP3   OH221809   4.885   5.889   2.835
 7282TIP3    H121810   4.934   5.926   2.763
 7282TIP3    H221811   4.819   5.955   2.857
 7283TIP3   OH221812   6.053   6.588   3.427
 7283TIP3    H121813   6.093   6.526   3.367
 7283TIP3    H221814   6.027   6.535   3.503
 7284TIP3   OH221815   5.768   6.047   3.104
 7284TIP3    H121816   5.691   6.049   3.160
 7284TIP3    H221817   5.842   6.039   3.164
 7285TIP3   OH221818   5.175   6.123   3.108
 7285TIP3    H121819   5.084   6.129   3.077
 7285TIP3    H221820   5.199   6.032   3.094
 7286TIP3   OH221821   5.434   6.126   2.791
 7286TIP3    H121822   5.529   6.140   2.790
 7286TIP3    H221823   5.405   6.158   2.705
 7287TIP3   OH221824   6.235   6.132   3.313
 7287TIP3    H121825   6.208   6.149   3.403
 7287TIP3    H221826   6.169   6.071   3.279
 7288TIP3   OH221827   5.276   6.177   2.557
 7288TIP3    H121828   5.195   6.160   2.605
 7288TIP3    H221829   5.265   6.128   2.475
 7289TIP3   OH221830   5.364   6.941   3.947
 7289TIP3    H121831   5.444   6.966   3.992
 7289TIP3    H221832   5.296   6.944   4.014
 7290TIP3   OH221833   5.823   6.401   3.207
 7290TIP3    H121834   5.893   6.356   3.160
 7290TIP3    H221835   5.824   6.362   3.294
 7291TIP3   OH221836   5.328   5.874   3.100
 7291TIP3    H121837   5.294   5.801   3.151
 7291TIP3    H221838   5.365   5.833   3.021
 7292TIP3   OH221839   5.796   6.305   3.477
 7292TIP3    H121840   5.709   6.337   3.498
 7292TIP3    H221841   5.855   6.358   3.532
 7293TIP3   OH221842   5.538   6.659   2.581
 7293TIP3    H121843   5.470   6.593   2.568
 7293TIP3    H221844   5.517   6.699   2.665
 7294TIP3   OH221845   6.420   6.885   3.177
 7294TIP3    H121846   6.422   6.939   3.098
 7294TIP3    H221847   6.337   6.839   3.172
 7295TIP3   OH221848   5.999   5.986   2.481
 7295TIP3    H121849   5.904   5.974   2.479
 7295TIP3    H221850   6.012   6.080   2.494
 7296TIP3   OH221851   5.850   6.915   3.595
 7296TIP3    H121852   5.787   6.890   3.663
 7296TIP3    H221853   5.856   7.010   3.601
 7297TIP3   OH221854   6.057   6.247   2.550
 7297TIP3    H121855   6.152   6.256   2.559
 7297TIP3    H221856   6.029   6.322   2.499
 7298TIP3   OH221857   5.232   6.699   3.250
 7298TIP3    H121858   5.267   6.679   3.163
 7298TIP3    H221859   5.294   6.657   3.310
 7299TIP3   OH221860   5.620   6.861   2.410
 7299TIP3    H121861   5.695   6.902   2.453
 7299TIP3    H221862   5.596   6.789   2.468
 7300TIP3   OH221863   5.110   6.613   3.876
 7300TIP3    H121864   5.117   6.593   3.969
 7300TIP3    H221865   5.036   6.561   3.845
 7301TIP3   OH221866   5.837   6.751   3.882
 7301TIP3    H121867   5.768   6.688   3.860
 7301TIP3    H221868   5.918   6.705   3.860
 7302TIP3   OH221869   1.182   0.336   3.423
 7302TIP3    H121870   1.121   0.377   3.362
 7302TIP3    H221871   1.158   0.371   3.509
 7303TIP3   OH221872   6.481   6.333   2.396
 7303TIP3    H121873   6.424   6.285   2.335
 7303TIP3    H221874   6.474   6.424   2.368
 7304TIP3   OH221875   6.176   6.773   3.102
 7304TIP3    H121876   6.086   6.752   3.127
 7304TIP3    H221877   6.211   6.692   3.067
 7305TIP3   OH221878   0.403   0.028   2.905
 7305TIP3    H121879   0.396   0.107   2.852
 7305TIP3    H221880   0.312   0.004   2.924
 7306TIP3   OH221881   4.910   6.319   2.618
 7306TIP3    H121882   4.950   6.405   2.629
 7306TIP3    H221883   4.829   6.323   2.668
 7307TIP3   OH221884   5.445   6.771   2.813
 7307TIP3    H121885   5.424   6.859   2.841
 7307TIP3    H221886   5.422   6.715   2.887
 7308TIP3   OH221887   0.658   0.385   3.315
 7308TIP3    H121888   0.714   0.448   3.270
 7308TIP3    H221889   0.706   0.363   3.394
 7309TIP3   OH221890   0.334   0.252   2.762
 7309TIP3    H121891   0.243   0.266   2.786
 7309TIP3    H221892   0.369   0.341   2.751
 7310TIP3   OH221893   5.983   6.987   3.352
 7310TIP3    H121894   5.940   6.945   3.427
 7310TIP3    H221895   6.063   6.937   3.339
 7311TIP3   OH221896   5.884   6.880   2.195
 7311TIP3    H121897   5.970   6.920   2.211
 7311TIP3    H221898   5.877   6.810   2.260
 7312TIP3   OH221899   5.313   6.132   3.877
 7312TIP3    H121900   5.218   6.139   3.882
 7312TIP3    H221901   5.337   6.077   3.952
 7313TIP3   OH221902   6.116   6.832   2.442
 7313TIP3    H121903   6.109   6.760   2.504
 7313TIP3    H221904   6.190   6.809   2.386
 7314TIP3   OH221905   0.108   0.239   3.530
 7314TIP3    H121906   0.171   0.185   3.577
 7314TIP3    H221907   0.128   0.328   3.558
 7315TIP3   OH221908   5.346   6.895   2.229
 7315TIP3    H121909   5.419   6.860   2.179
 7315TIP3    H221910   5.298   6.818   2.260
 7316TIP3   OH221911   5.319   6.937   2.516
 7316TIP3    H121912   5.366   6.899   2.590
 7316TIP3    H221913   5.231   6.900   2.522
 7317TIP3   OH221914   5.023   6.573   2.672
 7317TIP3    H121915   4.953   6.619   2.718
 7317TIP3    H221916   5.060   6.639   2.613
 7318TIP3   OH221917   6.157   6.191   3.573
 7318TIP3    H121918   6.238   6.232   3.602
 7318TIP3    H221919   6.150   6.111   3.626
 7319TIP3   OH221920   6.050   5.935   2.752
 7319TIP3    H121921   6.035   5.954   2.660
 7319TIP3    H221922   6.093   6.014   2.786
 7320TIP3   OH221923   5.709   6.136   2.846
 7320TIP3    H121924   5.774   6.202   2.821
 7320TIP3    H221925   5.728   6.118   2.938
 7321TIP3   OH221926   5.996   6.421   3.635
 7321TIP3    H121927   6.027   6.465   3.715
 7321TIP3    H221928   6.050   6.343   3.628
 7322TIP3   OH221929   5.867   5.837   2.937
 7322TIP3    H121930   5.846   5.914   2.990
 7322TIP3    H221931   5.936   5.867   2.877
 7323TIP3   OH221932   5.391   5.854   2.731
 7323TIP3    H121933   5.382   5.943   2.765
 7323TIP3    H221934   5.485   5.836   2.736
 7324TIP3   OH221935   6.619   6.287   3.613
 7324TIP3    H121936   6.526   6.298   3.631
 7324TIP3    H221937   6.622   6.241   3.529
 7325TIP3   OH221938   6.281   6.527   3.014
 7325TIP3    H121939   6.208   6.467   3.025
 7325TIP3    H221940   6.353   6.485   3.062
 7326TIP3   OH221941   5.075   6.795   2.488
 7326TIP3    H121942   4.983   6.817   2.500
 7326TIP3    H221943   5.075   6.730   2.418
 7327TIP3   OH221944   4.957   6.046   2.616
 7327TIP3    H121945   4.942   6.141   2.623
 7327TIP3    H221946   4.888   6.016   2.558
 7328TIP3   OH221947   5.333   5.754   3.483
 7328TIP3    H121948   5.303   5.721   3.398
 7328TIP3    H221949   5.322   5.680   3.542
 7329TIP3   OH221950   0.103   0.538   3.983
 7329TIP3    H121951   0.193   0.542   4.016
 7329TIP3    H221952   0.088   0.444   3.968
 7330TIP3   OH221953   0.572   0.465   3.981
 7330TIP3    H121954   0.654   0.417   3.989
 7330TIP3    H221955   0.528   0.425   3.906
 7331TIP3   OH221956   1.208   0.394   3.698
 7331TIP3    H121957   1.175   0.333   3.763
 7331TIP3    H221958   1.303   0.391   3.707
 7332TIP3   OH221959   5.157   6.934   4.135
 7332TIP3    H121960   5.177   6.841   4.143
 7332TIP3    H221961   5.071   6.936   4.092
 7333TIP3   OH221962   5.148   6.576   2.327
 7333TIP3    H121963   5.194   6.537   2.401
 7333TIP3    H221964   5.207   6.564   2.253
 7334TIP3   OH221965   0.858   0.048   3.923
 7334TIP3    H121966   0.799   0.063   3.850
 7334TIP3    H221967   0.887  -0.043   3.912
 7335TIP3   OH221968   5.575   6.772   2.147
 7335TIP3    H121969   5.609   6.799   2.233
 7335TIP3    H221970   5.610   6.684   2.134
 7336TIP3   OH221971   1.374   0.164   3.556
 7336TIP3    H121972   1.443   0.126   3.502
 7336TIP3    H221973   1.310   0.198   3.493
 7337TIP3   OH221974   5.275   6.679   4.133
 7337TIP3    H121975   5.352   6.655   4.082
 7337TIP3    H221976   5.309   6.699   4.220
 7338TIP3   OH221977   5.336   6.460   2.571
 7338TIP3    H121978   5.306   6.467   2.661
 7338TIP3    H221979   5.330   6.367   2.550
 7339TIP3   OH221980   5.634   6.569   3.799
 7339TIP3    H121981   5.547   6.609   3.804
 7339TIP3    H221982   5.664   6.587   3.710
 7340TIP3   OH221983   6.134   6.960   3.958
 7340TIP3    H121984   6.177   6.931   3.878
 7340TIP3    H221985   6.138   6.884   4.017
 7341TIP3   OH221986   5.740   6.337   3.902
 7341TIP3    H121987   5.741   6.265   3.840
 7341TIP3    H221988   5.704   6.411   3.853
 7342TIP3   OH221989   5.746   6.133   3.706
 7342TIP3    H121990   5.773   6.170   3.622
 7342TIP3    H221991   5.654   6.107   3.692
 7343TIP3   OH221992   5.749   6.642   3.566
 7343TIP3    H121993   5.840   6.664   3.542
 7343TIP3    H221994   5.697   6.709   3.522
 7344TIP3   OH221995   6.351   6.581   4.024
 7344TIP3    H121996   6.334   6.498   3.978
 7344TIP3    H221997   6.415   6.626   3.968
 7345TIP3   OH221998   6.373   6.935   3.765
 7345TIP3    H121999   6.298   6.964   3.713
 7345TIP3    H222000   6.449   6.973   3.721
 7346TIP3   OH222001   5.619   6.427   4.141
 7346TIP3    H122002   5.551   6.363   4.162
 7346TIP3    H222003   5.649   6.403   4.053
 7347TIP3   OH222004   5.870   5.898   3.796
 7347TIP3    H122005   5.828   5.978   3.766
 7347TIP3    H222006   5.803   5.830   3.784
 7348TIP3   OH222007   5.995   6.377   4.004
 7348TIP3    H122008   5.980   6.365   4.097
 7348TIP3    H222009   5.911   6.357   3.963
 7349TIP3   OH222010   6.251   6.359   3.893
 7349TIP3    H122011   6.166   6.343   3.936
 7349TIP3    H222012   6.313   6.307   3.944
 7350TIP3   OH222013   6.464   6.272   4.046
 7350TIP3    H122014   6.482   6.178   4.046
 7350TIP3    H222015   6.464   6.297   4.138
 7351TIP3   OH222016   5.457   6.208   4.208
 7351TIP3    H122017   5.460   6.119   4.173
 7351TIP3    H222018   5.495   6.200   4.296
 7352TIP3   OH222019   5.947   5.886   4.059
 7352TIP3    H122020   6.015   5.820   4.053
 7352TIP3    H222021   5.912   5.894   3.971
 7353TIP3   OH222022   6.026   6.101   4.210
 7353TIP3    H122023   6.000   6.030   4.151
 7353TIP3    H222024   5.953   6.163   4.206
 7354TIP3   OH222025   0.387   0.221   2.289
 7354TIP3    H122026   0.414   0.296   2.236
 7354TIP3    H222027   0.292   0.221   2.283
 7355TIP3   OH222028   4.760   6.736   2.467
 7355TIP3    H122029   4.773   6.741   2.562
 7355TIP3    H222030   4.746   6.643   2.451
 7356TIP3   OH222031   7.109   0.352   2.934
 7356TIP3    H122032   7.048   0.291   2.892
 7356TIP3    H222033   7.157   0.299   2.997
 7357TIP3   OH222034   7.246   0.209   3.121
 7357TIP3    H122035   7.232   0.124   3.161
 7357TIP3    H222036   7.300   0.257   3.183
 7358TIP3   OH222037   6.505   6.689   2.665
 7358TIP3    H122038   6.422   6.644   2.685
 7358TIP3    H222039   6.567   6.618   2.649
 7359TIP3   OH222040   6.439   6.567   2.263
 7359TIP3    H122041   6.374   6.537   2.199
 7359TIP3    H222042   6.472   6.649   2.226
 7360TIP3   OH222043   6.317   6.235   2.201
 7360TIP3    H122044   6.266   6.283   2.135
 7360TIP3    H222045   6.308   6.143   2.177
 7361TIP3   OH222046   6.315   6.498   2.741
 7361TIP3    H122047   6.342   6.406   2.730
 7361TIP3    H222048   6.312   6.511   2.836
 7362TIP3   OH222049   4.973   6.583   3.506
 7362TIP3    H122050   4.962   6.550   3.417
 7362TIP3    H222051   5.067   6.584   3.520
 7363TIP3   OH222052   1.703   0.007   3.681
 7363TIP3    H122053   1.791  -0.029   3.696
 7363TIP3    H222054   1.719   0.098   3.654
 7364TIP3   OH222055   6.819   6.760   3.675
 7364TIP3    H122056   6.756   6.690   3.654
 7364TIP3    H222057   6.903   6.726   3.645
 7365TIP3   OH222058   6.278   5.964   2.171
 7365TIP3    H122059   6.349   5.935   2.229
 7365TIP3    H222060   6.203   5.910   2.196
 7366TIP3   OH222061   6.345   6.231   2.624
 7366TIP3    H122062   6.390   6.147   2.636
 7366TIP3    H222063   6.391   6.272   2.551
 7367TIP3   OH222064   6.498   6.394   3.132
 7367TIP3    H122065   6.582   6.414   3.090
 7367TIP3    H222066   6.508   6.425   3.222
 7368TIP3   OH222067   6.555   6.517   3.369
 7368TIP3    H122068   6.482   6.544   3.424
 7368TIP3    H222069   6.585   6.598   3.326
 7369TIP3   OH222070   5.192   6.267   4.161
 7369TIP3    H122071   5.286   6.263   4.173
 7369TIP3    H222072   5.159   6.185   4.198
 7370TIP3   OH222073   7.047   6.148   3.910
 7370TIP3    H122074   7.101   6.086   3.861
 7370TIP3    H222075   7.004   6.200   3.842
 7371TIP3   OH222076   6.459   5.982   2.673
 7371TIP3    H122077   6.505   5.968   2.756
 7371TIP3    H222078   6.396   5.911   2.668
 7372TIP3   OH222079   5.162   5.973   3.496
 7372TIP3    H122080   5.218   5.896   3.503
 7372TIP3    H222081   5.223   6.046   3.484
 7373TIP3   OH222082   4.950   6.241   3.561
 7373TIP3    H122083   4.999   6.231   3.480
 7373TIP3    H222084   4.973   6.329   3.592
 7374TIP3   OH222085   6.886   6.273   3.732
 7374TIP3    H122086   6.810   6.304   3.782
 7374TIP3    H222087   6.848   6.215   3.666
 7375TIP3   OH222088   6.515   5.909   2.312
 7375TIP3    H122089   6.559   5.848   2.253
 7375TIP3    H222090   6.570   5.988   2.312
 7376TIP3   OH222091   4.935   5.754   3.069
 7376TIP3    H122092   4.846   5.739   3.103
 7376TIP3    H222093   4.922   5.808   2.991
 7377TIP3   OH222094   5.157   5.815   3.886
 7377TIP3    H122095   5.106   5.807   3.966
 7377TIP3    H222096   5.099   5.860   3.824
 7378TIP3   OH222097   0.257   0.275   3.962
 7378TIP3    H122098   0.164   0.254   3.950
 7378TIP3    H222099   0.274   0.255   4.054
 7379TIP3   OH222100   0.442   0.299   3.495
 7379TIP3    H122101   0.396   0.365   3.442
 7379TIP3    H222102   0.535   0.319   3.482
 7380TIP3   OH222103   0.904   0.665   3.740
 7380TIP3    H122104   0.926   0.621   3.822
 7380TIP3    H222105   0.926   0.601   3.672
 7381TIP3   OH222106   6.794   6.027   3.608
 7381TIP3    H122107   6.706   6.023   3.570
 7381TIP3    H222108   6.829   5.939   3.596
 7382TIP3   OH222109   0.120   0.521   3.543
 7382TIP3    H122110   0.032   0.554   3.522
 7382TIP3    H222111   0.150   0.575   3.615
 7383TIP3   OH222112   0.341   0.538   3.382
 7383TIP3    H122113   0.256   0.536   3.426
 7383TIP3    H222114   0.322   0.575   3.295
 7384TIP3   OH222115   0.777   0.580   3.153
 7384TIP3    H122116   0.705   0.578   3.090
 7384TIP3    H222117   0.787   0.673   3.175
 7385TIP3   OH222118   1.007   0.452   3.230
 7385TIP3    H122119   0.922   0.489   3.208
 7385TIP3    H222120   1.067   0.491   3.166
 7386TIP3   OH222121   0.028   0.345   3.287
 7386TIP3    H122122   0.061   0.317   3.372
 7386TIP3    H222123   0.093   0.313   3.224
 7387TIP3   OH222124   0.215   0.229   3.129
 7387TIP3    H122125   0.230   0.147   3.176
 7387TIP3    H222126   0.302   0.269   3.123
 7388TIP3   OH222127   0.477   0.306   3.135
 7388TIP3    H122128   0.503   0.215   3.126
 7388TIP3    H222129   0.534   0.340   3.204
 7389TIP3   OH222130   5.999   5.952   3.235
 7389TIP3    H122131   5.960   5.879   3.283
 7389TIP3    H222132   6.069   5.912   3.184
 7390TIP3   OH222133   6.508   5.855   3.133
 7390TIP3    H122134   6.546   5.903   3.060
 7390TIP3    H222135   6.415   5.878   3.131
 7391TIP3   OH222136   6.618   5.935   2.896
 7391TIP3    H122137   6.686   5.876   2.864
 7391TIP3    H222138   6.653   6.023   2.881
 7392TIP3   OH222139   5.244   5.652   3.241
 7392TIP3    H122140   5.153   5.621   3.248
 7392TIP3    H222141   5.296   5.572   3.234
 7393TIP3   OH222142   5.056   5.556   2.898
 7393TIP3    H122143   5.080   5.607   2.821
 7393TIP3    H222144   5.020   5.619   2.960
 7394TIP3   OH222145   5.709   5.696   3.128
 7394TIP3    H122146   5.758   5.742   3.061
 7394TIP3    H222147   5.749   5.723   3.211
 7395TIP3   OH222148   6.220   5.840   3.109
 7395TIP3    H122149   6.235   5.806   3.021
 7395TIP3    H222150   6.221   5.763   3.165
 7396TIP3   OH222151   6.270   5.777   2.675
 7396TIP3    H122152   6.190   5.824   2.698
 7396TIP3    H222153   6.259   5.690   2.715
 7397TIP3   OH222154   7.276   0.107   2.595
 7397TIP3    H122155   7.257   0.033   2.653
 7397TIP3    H222156   7.209   0.171   2.616
 7398TIP3   OH222157   5.169   5.693   2.655
 7398TIP3    H122158   5.212   5.627   2.601
 7398TIP3    H222159   5.241   5.745   2.690
 7399TIP3   OH222160   5.670   5.889   2.735
 7399TIP3    H122161   5.724   5.833   2.791
 7399TIP3    H222162   5.681   5.977   2.771
 7400TIP3   OH222163   5.463   5.934   4.126
 7400TIP3    H122164   5.427   5.867   4.184
 7400TIP3    H222165   5.555   5.940   4.151
 7401TIP3   OH222166   5.713   5.940   4.247
 7401TIP3    H122167   5.793   5.915   4.200
 7401TIP3    H222168   5.703   5.871   4.313
 7402TIP3   OH222169   7.318   0.148   2.324
 7402TIP3    H122170   7.304   0.136   2.418
 7402TIP3    H222171   7.400   0.102   2.306
 7403TIP3   OH222172   6.540   6.010   4.036
 7403TIP3    H122173   6.557   5.977   4.124
 7403TIP3    H222174   6.626   6.009   3.993
 7404TIP3   OH222175   6.658   6.473   2.580
 7404TIP3    H122176   6.701   6.522   2.511
 7404TIP3    H222177   6.607   6.407   2.534
 7405TIP3   OH222178   6.747   6.159   2.817
 7405TIP3    H122179   6.817   6.192   2.874
 7405TIP3    H222180   6.790   6.141   2.734
 7406TIP3   OH222181   6.676   6.143   2.322
 7406TIP3    H122182   6.721   6.169   2.242
 7406TIP3    H222183   6.617   6.216   2.341
 7407TIP3   OH222184   7.113   6.394   3.393
 7407TIP3    H122185   7.017   6.394   3.389
 7407TIP3    H222186   7.134   6.313   3.439
 7408TIP3   OH222187   7.110   6.022   3.000
 7408TIP3    H122188   7.093   5.993   2.910
 7408TIP3    H222189   7.113   5.941   3.051
 7409TIP3   OH222190   7.243   6.461   3.669
 7409TIP3    H122191   7.238   6.368   3.647
 7409TIP3    H222192   7.297   6.464   3.748
 7410TIP3   OH222193   6.970   6.520   3.637
 7410TIP3    H122194   7.065   6.520   3.643
 7410TIP3    H222195   6.942   6.438   3.678
 7411TIP3   OH222196   6.941   6.237   3.002
 7411TIP3    H122197   6.994   6.157   3.003
 7411TIP3    H222198   6.997   6.303   3.041
 7412TIP3   OH222199   6.750   6.472   3.054
 7412TIP3    H122200   6.790   6.444   2.971
 7412TIP3    H222201   6.780   6.563   3.065
 7413TIP3   OH222202   6.722   5.986   2.543
 7413TIP3    H122203   6.635   5.982   2.584
 7413TIP3    H222204   6.712   6.050   2.472
 7414TIP3   OH222205   6.955   6.076   3.379
 7414TIP3    H122206   6.907   6.071   3.462
 7414TIP3    H222207   6.894   6.117   3.318
 7415TIP3   OH222208   7.036   5.914   2.760
 7415TIP3    H122209   6.947   5.879   2.753
 7415TIP3    H222210   7.092   5.839   2.739
 7416TIP3   OH222211   6.856   5.800   2.376
 7416TIP3    H122212   6.875   5.855   2.300
 7416TIP3    H222213   6.815   5.859   2.439
 7417TIP3   OH222214   6.942   5.937   2.143
 7417TIP3    H122215   6.984   5.872   2.087
 7417TIP3    H222216   7.007   6.006   2.152
 7418TIP3   OH222217   7.242   6.182   3.612
 7418TIP3    H122218   7.206   6.109   3.662
 7418TIP3    H222219   7.334   6.186   3.639
 7419TIP3   OH222220   0.089   6.167   3.728
 7419TIP3    H122221   0.139   6.104   3.676
 7419TIP3    H222222   0.076   6.123   3.812
 7420TIP3   OH222223   0.674   6.715   3.651
 7420TIP3    H122224   0.600   6.659   3.676
 7420TIP3    H222225   0.647   6.803   3.680
 7421TIP3   OH222226   3.821   0.209   5.168
 7421TIP3    H122227   3.864   0.141   5.116
 7421TIP3    H222228   3.767   0.256   5.105
 7422TIP3   OH222229   3.522   0.034   4.810
 7422TIP3    H122230   3.431   0.012   4.787
 7422TIP3    H222231   3.572  -0.045   4.789
 7423TIP3   OH222232   0.778   6.919   4.378
 7423TIP3    H122233   0.824   6.993   4.418
 7423TIP3    H222234   0.687   6.947   4.371
 7424TIP3   OH222235   3.366   0.142   4.094
 7424TIP3    H122236   3.359   0.046   4.086
 7424TIP3    H222237   3.363   0.173   4.004
 7425TIP3   OH222238   1.946   6.996   4.089
 7425TIP3    H122239   1.921   6.928   4.027
 7425TIP3    H222240   1.891   6.979   4.166
 7426TIP3   OH222241   4.983   0.006   3.114
 7426TIP3    H122242   4.923   0.016   3.188
 7426TIP3    H222243   4.929   0.024   3.037
 7427TIP3   OH222244   4.105   0.160   4.204
 7427TIP3    H122245   4.021   0.116   4.191
 7427TIP3    H222246   4.086   0.234   4.261
 7428TIP3   OH222247   4.682   0.258   4.358
 7428TIP3    H122248   4.742   0.242   4.430
 7428TIP3    H222249   4.596   0.262   4.399
 7429TIP3   OH222250   3.875   0.043   4.149
 7429TIP3    H122251   3.815   0.034   4.076
 7429TIP3    H222252   3.849  -0.025   4.210
 7430TIP3   OH222253   4.415   0.204   4.400
 7430TIP3    H122254   4.400   0.275   4.337
 7430TIP3    H222255   4.328   0.176   4.426
 7431TIP3   OH222256   4.457   0.175   4.675
 7431TIP3    H122257   4.527   0.109   4.679
 7431TIP3    H222258   4.424   0.170   4.586
 7432TIP3   OH222259   4.538   0.301   4.902
 7432TIP3    H122260   4.512   0.248   4.826
 7432TIP3    H222261   4.467   0.365   4.911
 7433TIP3   OH222262   5.563   0.478   4.626
 7433TIP3    H122263   5.600   0.391   4.637
 7433TIP3    H222264   5.636   0.538   4.644
 7434TIP3   OH222265   3.711   0.085   4.555
 7434TIP3    H122266   3.671   0.116   4.636
 7434TIP3    H222267   3.638   0.076   4.494
 7435TIP3   OH222268   5.306   0.271   4.286
 7435TIP3    H122269   5.217   0.248   4.262
 7435TIP3    H222270   5.357   0.191   4.270
 7436TIP3   OH222271   4.570   0.201   3.944
 7436TIP3    H122272   4.529   0.126   3.987
 7436TIP3    H222273   4.554   0.188   3.851
 7437TIP3   OH222274   5.024   0.165   3.852
 7437TIP3    H122275   5.018   0.255   3.882
 7437TIP3    H222276   4.936   0.144   3.820
 7438TIP3   OH222277   5.163   0.403   3.585
 7438TIP3    H122278   5.167   0.307   3.583
 7438TIP3    H222279   5.166   0.429   3.493
 7439TIP3   OH222280   1.290   6.951   3.909
 7439TIP3    H122281   1.228   6.953   3.836
 7439TIP3    H222282   1.337   6.869   3.898
 7440TIP3   OH222283   1.045   6.797   3.550
 7440TIP3    H122284   1.137   6.787   3.529
 7440TIP3    H222285   1.031   6.892   3.551
 7441TIP3   OH222286   1.784   6.948   3.868
 7441TIP3    H122287   1.799   6.973   3.777
 7441TIP3    H222288   1.698   6.984   3.889
 7442TIP3   OH222289   4.779   0.111   3.754
 7442TIP3    H122290   4.726   0.094   3.676
 7442TIP3    H222291   4.747   0.048   3.819
 7443TIP3   OH222292   4.837   0.028   3.333
 7443TIP3    H122293   4.764   0.089   3.344
 7443TIP3    H222294   4.814  -0.048   3.386
 7444TIP3   OH222295   4.006   0.151   4.794
 7444TIP3    H122296   3.976   0.101   4.871
 7444TIP3    H222297   4.090   0.188   4.820
 7445TIP3   OH222298   4.243   0.232   4.901
 7445TIP3    H122299   4.314   0.179   4.867
 7445TIP3    H222300   4.227   0.199   4.989
 7446TIP3   OH222301   5.077   0.243   4.680
 7446TIP3    H122302   5.084   0.232   4.775
 7446TIP3    H222303   5.167   0.254   4.651
 7447TIP3   OH222304   6.190   0.259   3.569
 7447TIP3    H122305   6.171   0.166   3.583
 7447TIP3    H222306   6.153   0.303   3.646
 7448TIP3   OH222307   6.809   0.322   2.602
 7448TIP3    H122308   6.735   0.318   2.664
 7448TIP3    H222309   6.772   0.360   2.523
 7449TIP3   OH222310   5.914   0.404   3.686
 7449TIP3    H122311   5.824   0.371   3.677
 7449TIP3    H222312   5.905   0.483   3.740
 7450TIP3   OH222313   6.482   0.506   3.849
 7450TIP3    H122314   6.536   0.493   3.927
 7450TIP3    H222315   6.392   0.510   3.882
 7451TIP3   OH222316   5.669   0.304   3.652
 7451TIP3    H122317   5.583   0.302   3.610
 7451TIP3    H222318   5.668   0.230   3.713
 7452TIP3   OH222319   6.212   0.454   3.841
 7452TIP3    H122320   6.198   0.534   3.790
 7452TIP3    H222321   6.132   0.442   3.891
 7453TIP3   OH222322   6.239   0.437   4.153
 7453TIP3    H122323   6.310   0.373   4.146
 7453TIP3    H222324   6.177   0.411   4.086
 7454TIP3   OH222325   6.336   0.557   4.376
 7454TIP3    H122326   6.304   0.505   4.302
 7454TIP3    H222327   6.266   0.619   4.394
 7455TIP3   OH222328   7.334   0.737   4.060
 7455TIP3    H122329   7.386   0.662   4.033
 7455TIP3    H222330   7.368   0.810   4.007
 7456TIP3   OH222331   5.498   0.317   4.045
 7456TIP3    H122332   5.447   0.321   4.126
 7456TIP3    H222333   5.459   0.385   3.990
 7457TIP3   OH222334   7.110   0.562   3.763
 7457TIP3    H122335   7.023   0.541   3.727
 7457TIP3    H222336   7.161   0.482   3.750
 7458TIP3   OH222337   6.363   0.451   3.437
 7458TIP3    H122338   6.350   0.359   3.460
 7458TIP3    H222339   6.352   0.454   3.341
 7459TIP3   OH222340   6.850   0.402   3.260
 7459TIP3    H122341   6.882   0.464   3.195
 7459TIP3    H222342   6.754   0.409   3.254
 7460TIP3   OH222343   6.944   0.540   3.043
 7460TIP3    H122344   7.001   0.472   3.007
 7460TIP3    H222345   6.980   0.622   3.011
 7461TIP3   OH222346   5.558   0.196   3.341
 7461TIP3    H122347   5.476   0.152   3.321
 7461TIP3    H222348   5.617   0.126   3.367
 7462TIP3   OH222349   5.319   0.073   3.058
 7462TIP3    H122350   5.409   0.093   3.034
 7462TIP3    H222351   5.278   0.158   3.072
 7463TIP3   OH222352   6.033   0.202   3.341
 7463TIP3    H122353   5.986   0.285   3.345
 7463TIP3    H222354   6.112   0.217   3.393
 7464TIP3   OH222355   6.574   0.376   3.239
 7464TIP3    H122356   6.549   0.338   3.154
 7464TIP3    H222357   6.547   0.311   3.303
 7465TIP3   OH222358   6.614   0.295   2.785
 7465TIP3    H122359   6.538   0.337   2.825
 7465TIP3    H222360   6.623   0.212   2.832
 7466TIP3   OH222361   5.761   0.544   4.381
 7466TIP3    H122362   5.746   0.456   4.417
 7466TIP3    H222363   5.857   0.553   4.380
 7467TIP3   OH222364   6.035   0.507   4.386
 7467TIP3    H122365   6.092   0.451   4.335
 7467TIP3    H222366   6.023   0.460   4.469
 7468TIP3   OH222367   6.884   0.487   4.180
 7468TIP3    H122368   6.895   0.482   4.275
 7468TIP3    H222369   6.970   0.510   4.147
 7469TIP3   OH222370   0.518   0.558   3.020
 7469TIP3    H122371   0.506   0.468   3.050
 7469TIP3    H222372   0.453   0.609   3.069
 7470TIP3   OH222373   0.307   0.690   3.152
 7470TIP3    H122374   0.221   0.654   3.134
 7470TIP3    H222375   0.296   0.785   3.141
 7471TIP3   OH222376   0.879   0.831   3.301
 7471TIP3    H122377   0.930   0.898   3.346
 7471TIP3    H222378   0.792   0.870   3.291
 7472TIP3   OH222379   0.064   0.579   3.123
 7472TIP3    H122380   0.019   0.562   3.041
 7472TIP3    H222381   0.034   0.509   3.182
 7473TIP3   OH222382   0.558   0.744   3.323
 7473TIP3    H122383   0.531   0.831   3.295
 7473TIP3    H222384   0.475   0.699   3.342
 7474TIP3   OH222385   0.650   0.764   3.709
 7474TIP3    H122386   0.733   0.720   3.727
 7474TIP3    H222387   0.595   0.696   3.669
 7475TIP3   OH222388   0.871   0.936   3.810
 7475TIP3    H122389   0.876   0.849   3.771
 7475TIP3    H222390   0.779   0.946   3.835
 7476TIP3   OH222391   7.268   0.630   3.533
 7476TIP3    H122392   7.228   0.635   3.620
 7476TIP3    H222393   7.197   0.602   3.475
 7477TIP3   OH222394   7.343   2.019   5.794
 7477TIP3    H122395   7.324   1.948   5.733
 7477TIP3    H222396   7.409   2.072   5.750
 7478TIP3   OH222397   7.340   0.498   2.891
 7478TIP3    H122398   7.253   0.459   2.895
 7478TIP3    H222399   7.399   0.425   2.873
 7479TIP3   OH222400   7.123   0.344   2.516
 7479TIP3    H122401   7.192   0.392   2.471
 7479TIP3    H222402   7.073   0.411   2.562
 7480TIP3   OH222403   0.443   0.515   2.751
 7480TIP3    H122404   0.391   0.594   2.743
 7480TIP3    H222405   0.486   0.523   2.836
 7481TIP3   OH222406   0.164   0.686   3.753
 7481TIP3    H122407   0.130   0.639   3.829
 7481TIP3    H222408   0.248   0.722   3.782
 7482TIP3   OH222409   0.397   0.760   3.869
 7482TIP3    H122410   0.488   0.769   3.840
 7482TIP3    H222411   0.403   0.709   3.949
 7483TIP3   OH222412   4.884   4.820   0.356
 7483TIP3    H122413   4.900   4.909   0.325
 7483TIP3    H222414   4.970   4.779   0.355
 7484TIP3   OH222415   4.347   5.037   0.605
 7484TIP3    H122416   4.386   4.954   0.579
 7484TIP3    H222417   4.420   5.089   0.640
 7485TIP3   OH222418   4.743   4.176   0.484
 7485TIP3    H122419   4.665   4.127   0.459
 7485TIP3    H222420   4.779   4.128   0.559
 7486TIP3   OH222421   4.784   4.838   0.620
 7486TIP3    H122422   4.816   4.776   0.686
 7486TIP3    H222423   4.847   4.831   0.549
 7487TIP3   OH222424   4.574   4.617   0.572
 7487TIP3    H122425   4.625   4.597   0.650
 7487TIP3    H222426   4.517   4.541   0.560
 7488TIP3   OH222427   4.920   5.072   0.291
 7488TIP3    H122428   4.922   5.130   0.214
 7488TIP3    H222429   4.858   5.113   0.351
 7489TIP3   OH222430   4.052   4.691   0.415
 7489TIP3    H122431   4.085   4.660   0.499
 7489TIP3    H222432   4.104   4.770   0.398
 7490TIP3   OH222433   4.630   4.931   0.346
 7490TIP3    H122434   4.715   4.908   0.382
 7490TIP3    H222435   4.632   4.899   0.255
 7491TIP3   OH222436   4.348   4.477   0.518
 7491TIP3    H122437   4.369   4.465   0.611
 7491TIP3    H222438   4.294   4.401   0.496
 7492TIP3   OH222439   4.795   4.438   0.495
 7492TIP3    H122440   4.792   4.343   0.487
 7492TIP3    H222441   4.814   4.469   0.406
 7493TIP3   OH222442   3.778   4.980   0.678
 7493TIP3    H122443   3.845   4.992   0.746
 7493TIP3    H222444   3.729   5.063   0.678
 7494TIP3   OH222445   5.034   4.142   0.605
 7494TIP3    H122446   5.106   4.156   0.544
 7494TIP3    H222447   5.013   4.230   0.637
 7495TIP3   OH222448   4.917   3.948   0.436
 7495TIP3    H122449   4.947   4.037   0.455
 7495TIP3    H222450   4.895   3.912   0.522
 7496TIP3   OH222451   4.118   5.092   0.491
 7496TIP3    H122452   4.204   5.092   0.532
 7496TIP3    H222453   4.074   5.014   0.526
 7497TIP3   OH222454   4.923   5.093   0.589
 7497TIP3    H122455   4.907   5.071   0.681
 7497TIP3    H222456   4.898   5.185   0.581
 7498TIP3   OH222457   6.357   4.659   0.624
 7498TIP3    H122458   6.335   4.742   0.667
 7498TIP3    H222459   6.285   4.601   0.645
 7499TIP3   OH222460   6.646   4.940   0.648
 7499TIP3    H122461   6.690   4.866   0.690
 7499TIP3    H222462   6.681   5.017   0.692
 7500TIP3   OH222463   6.250   5.398   0.676
 7500TIP3    H122464   6.295   5.318   0.652
 7500TIP3    H222465   6.212   5.380   0.762
 7501TIP3   OH222466   7.318   4.326   1.040
 7501TIP3    H122467   7.314   4.256   1.106
 7501TIP3    H222468   7.299   4.282   0.957
 7502TIP3   OH222469   6.482   4.116   0.763
 7502TIP3    H122470   6.575   4.133   0.780
 7502TIP3    H222471   6.468   4.146   0.673
 7503TIP3   OH222472   6.302   4.909   0.393
 7503TIP3    H122473   6.250   4.868   0.324
 7503TIP3    H222474   6.250   4.984   0.421
 7504TIP3   OH222475   5.212   4.656   0.582
 7504TIP3    H122476   5.160   4.734   0.562
 7504TIP3    H222477   5.207   4.648   0.678
 7505TIP3   OH222478   6.628   5.197   0.767
 7505TIP3    H122479   6.652   5.207   0.859
 7505TIP3    H222480   6.659   5.277   0.726
 7506TIP3   OH222481   6.384   5.233   0.484
 7506TIP3    H122482   6.449   5.166   0.461
 7506TIP3    H222483   6.429   5.316   0.473
 7507TIP3   OH222484   6.547   5.028   0.413
 7507TIP3    H122485   6.478   4.964   0.396
 7507TIP3    H222486   6.595   4.992   0.487
 7508TIP3   OH222487   7.033   5.124   1.123
 7508TIP3    H122488   6.984   5.043   1.121
 7508TIP3    H222489   6.991   5.180   1.058
 7509TIP3   OH222490   6.169   4.478   0.412
 7509TIP3    H122491   6.107   4.549   0.396
 7509TIP3    H222492   6.247   4.503   0.362
 7510TIP3   OH222493   6.123   4.293   0.203
 7510TIP3    H122494   6.167   4.340   0.274
 7510TIP3    H222495   6.192   4.245   0.158
 7511TIP3   OH222496   7.116   4.802   1.062
 7511TIP3    H122497   7.028   4.836   1.076
 7511TIP3    H222498   7.131   4.812   0.968
 7512TIP3   OH222499   6.535   4.604   0.427
 7512TIP3    H122500   6.476   4.619   0.501
 7512TIP3    H222501   6.615   4.571   0.467
 7513TIP3   OH222502   5.796   4.513   0.809
 7513TIP3    H122503   5.738   4.461   0.752
 7513TIP3    H222504   5.846   4.448   0.858
 7514TIP3   OH222505   5.924   4.981   1.019
 7514TIP3    H122506   5.918   4.900   0.969
 7514TIP3    H222507   5.982   4.961   1.093
 7515TIP3   OH222508   6.405   5.085   1.071
 7515TIP3    H122509   6.494   5.117   1.084
 7515TIP3    H222510   6.369   5.078   1.160
 7516TIP3   OH222511   6.400   4.433   0.267
 7516TIP3    H122512   6.452   4.497   0.316
 7516TIP3    H222513   6.422   4.448   0.176
 7517TIP3   OH222514   6.147   5.102   0.523
 7517TIP3    H122515   6.228   5.153   0.517
 7517TIP3    H222516   6.083   5.163   0.559
 7518TIP3   OH222517   5.661   4.399   0.591
 7518TIP3    H122518   5.573   4.436   0.590
 7518TIP3    H222519   5.653   4.316   0.638
 7519TIP3   OH222520   4.223   1.566   5.929
 7519TIP3    H122521   4.221   1.661   5.920
 7519TIP3    H222522   4.314   1.543   5.910
 7520TIP3   OH222523   7.148   5.492   1.244
 7520TIP3    H122524   7.128   5.408   1.203
 7520TIP3    H222525   7.084   5.501   1.315
 7521TIP3   OH222526   6.001   5.360   0.361
 7521TIP3    H122527   5.949   5.337   0.285
 7521TIP3    H222528   5.958   5.437   0.398
 7522TIP3   OH222529   5.442   5.226   0.706
 7522TIP3    H122530   5.521   5.173   0.720
 7522TIP3    H222531   5.371   5.162   0.700
 7523TIP3   OH222532   6.198   5.279  -0.005
 7523TIP3    H122533   6.251   5.207  -0.040
 7523TIP3    H222534   6.231   5.292   0.084
 7524TIP3   OH222535   6.249   5.324   0.260
 7524TIP3    H122536   6.162   5.333   0.300
 7524TIP3    H222537   6.303   5.285   0.329
 7525TIP3   OH222538   4.000   0.958   6.049
 7525TIP3    H122539   3.944   0.958   5.971
 7525TIP3    H222540   4.070   1.019   6.028
 7526TIP3   OH222541   6.441   4.336   0.573
 7526TIP3    H122542   6.353   4.358   0.602
 7526TIP3    H222543   6.427   4.275   0.500
 7527TIP3   OH222544   6.510   4.371   0.866
 7527TIP3    H122545   6.432   4.420   0.894
 7527TIP3    H222546   6.477   4.284   0.846
 7528TIP3   OH222547   5.788   3.875   0.365
 7528TIP3    H122548   5.770   3.927   0.443
 7528TIP3    H222549   5.730   3.912   0.298
 7529TIP3   OH222550   5.310   3.833   0.685
 7529TIP3    H122551   5.372   3.830   0.613
 7529TIP3    H222552   5.224   3.825   0.643
 7530TIP3   OH222553   5.836   4.033   0.637
 7530TIP3    H122554   5.931   4.045   0.648
 7530TIP3    H222555   5.813   4.086   0.561
 7531TIP3   OH222556   5.697   4.143   0.429
 7531TIP3    H122557   5.612   4.098   0.437
 7531TIP3    H222558   5.712   4.149   0.335
 7532TIP3   OH222559   6.757   5.892   1.364
 7532TIP3    H122560   6.777   5.806   1.328
 7532TIP3    H222561   6.841   5.925   1.397
 7533TIP3   OH222562   5.955   4.652   0.389
 7533TIP3    H122563   5.887   4.591   0.360
 7533TIP3    H222564   5.932   4.672   0.479
 7534TIP3   OH222565   6.861   4.908   1.061
 7534TIP3    H122566   6.856   4.928   0.968
 7534TIP3    H222567   6.787   4.850   1.077
 7535TIP3   OH222568   6.373   3.991   0.227
 7535TIP3    H122569   6.358   3.923   0.292
 7535TIP3    H222570   6.423   4.059   0.274
 7536TIP3   OH222571   6.513   4.191   0.346
 7536TIP3    H122572   6.605   4.199   0.371
 7536TIP3    H222573   6.486   4.279   0.321
 7537TIP3   OH222574   6.097   4.821   0.240
 7537TIP3    H122575   6.048   4.903   0.249
 7537TIP3    H222576   6.047   4.757   0.290
 7538TIP3   OH222577   6.934   4.315   0.200
 7538TIP3    H122578   6.875   4.267   0.142
 7538TIP3    H222579   6.921   4.407   0.177
 7539TIP3   OH222580   6.619   5.134   0.160
 7539TIP3    H122581   6.598   5.080   0.237
 7539TIP3    H222582   6.627   5.071   0.089
 7540TIP3   OH222583   6.657   4.726   1.115
 7540TIP3    H122584   6.562   4.735   1.122
 7540TIP3    H222585   6.670   4.649   1.059
 7541TIP3   OH222586   5.690   4.812   0.827
 7541TIP3    H122587   5.690   4.900   0.790
 7541TIP3    H222588   5.598   4.788   0.832
 7542TIP3   OH222589   5.314   4.290   0.516
 7542TIP3    H122590   5.367   4.369   0.522
 7542TIP3    H222591   5.225   4.321   0.499
 7543TIP3   OH222592   5.861   4.703   0.635
 7543TIP3    H122593   5.836   4.776   0.692
 7543TIP3    H222594   5.844   4.625   0.687
 7544TIP3   OH222595   5.650   5.255   0.529
 7544TIP3    H122596   5.571   5.275   0.580
 7544TIP3    H222597   5.711   5.326   0.551
 7545TIP3   OH222598   6.369   4.865   0.047
 7545TIP3    H122599   6.427   4.840   0.119
 7545TIP3    H222600   6.285   4.825   0.071
 7546TIP3   OH222601   6.627   5.418   1.178
 7546TIP3    H122602   6.624   5.388   1.269
 7546TIP3    H222603   6.543   5.463   1.165
 7547TIP3   OH222604   4.234   1.842   5.905
 7547TIP3    H122605   4.264   1.911   5.846
 7547TIP3    H222606   4.158   1.880   5.950
 7548TIP3   OH222607   6.554   4.785   0.226
 7548TIP3    H122608   6.537   4.729   0.302
 7548TIP3    H222609   6.649   4.795   0.225
 7549TIP3   OH222610   5.744   4.828   0.029
 7549TIP3    H122611   5.761   4.737   0.004
 7549TIP3    H222612   5.722   4.823   0.122
 7550TIP3   OH222613   5.676   4.846   0.290
 7550TIP3    H122614   5.728   4.817   0.366
 7550TIP3    H222615   5.674   4.942   0.299
 7551TIP3   OH222616   5.432   4.527   0.504
 7551TIP3    H122617   5.361   4.572   0.550
 7551TIP3    H222618   5.475   4.596   0.453
 7552TIP3   OH222619   5.949   5.042   0.278
 7552TIP3    H122620   5.857   5.059   0.299
 7552TIP3    H222621   5.977   5.120   0.229
 7553TIP3   OH222622   6.093   4.060   0.737
 7553TIP3    H122623   6.154   4.090   0.671
 7553TIP3    H222624   6.094   4.129   0.804
 7554TIP3   OH222625   5.687   5.112   0.310
 7554TIP3    H122626   5.666   5.179   0.245
 7554TIP3    H222627   5.670   5.155   0.394
 7555TIP3   OH222628   6.718   4.508   0.964
 7555TIP3    H122629   6.640   4.461   0.935
 7555TIP3    H222630   6.782   4.438   0.981
 7556TIP3   OH222631   5.438   4.719   0.288
 7556TIP3    H122632   5.517   4.773   0.297
 7556TIP3    H222633   5.457   4.658   0.217
 7557TIP3   OH222634   5.438   4.062   0.433
 7557TIP3    H122635   5.381   4.123   0.481
 7557TIP3    H222636   5.402   4.059   0.345
 7558TIP3   OH222637   6.724   5.436   0.656
 7558TIP3    H122638   6.658   5.503   0.673
 7558TIP3    H222639   6.805   5.471   0.694
 7559TIP3   OH222640   5.258   5.009   0.702
 7559TIP3    H122641   5.178   4.958   0.688
 7559TIP3    H222642   5.312   4.990   0.626
 7560TIP3   OH222643   3.434   1.547   5.993
 7560TIP3    H122644   3.384   1.473   6.028
 7560TIP3    H222645   3.508   1.507   5.948
 7561TIP3   OH222646   3.868   1.586   5.918
 7561TIP3    H122647   3.895   1.519   5.981
 7561TIP3    H222648   3.930   1.578   5.846
 7562TIP3   OH222649   5.562   4.540   0.135
 7562TIP3    H122650   5.592   4.482   0.206
 7562TIP3    H222651   5.639   4.555   0.081
 7563TIP3   OH222652   6.093   4.745  -0.019
 7563TIP3    H122653   6.080   4.767   0.073
 7563TIP3    H222654   6.088   4.649  -0.022
 7564TIP3   OH222655   5.758   4.473   0.347
 7564TIP3    H122656   5.727   4.441   0.431
 7564TIP3    H222657   5.784   4.394   0.299
 7565TIP3   OH222658   5.854   4.253   0.215
 7565TIP3    H122659   5.822   4.261   0.125
 7565TIP3    H222660   5.948   4.265   0.208
 7566TIP3   OH222661   4.214   1.093   5.939
 7566TIP3    H122662   4.189   1.052   5.856
 7566TIP3    H222663   4.183   1.183   5.932
 7567TIP3   OH222664   5.679   5.325   0.142
 7567TIP3    H122665   5.773   5.312   0.125
 7567TIP3    H222666   5.648   5.375   0.066
 7568TIP3   OH222667   5.151   4.767   0.275
 7568TIP3    H122668   5.240   4.794   0.297
 7568TIP3    H222669   5.151   4.672   0.284
 7569TIP3   OH222670   5.062   5.303   0.871
 7569TIP3    H122671   5.074   5.274   0.781
 7569TIP3    H222672   5.086   5.227   0.924
 7570TIP3   OH222673   6.946   5.551   0.774
 7570TIP3    H122674   6.957   5.590   0.861
 7570TIP3    H222675   6.994   5.610   0.715
 7571TIP3   OH222676   6.988   5.612   1.043
 7571TIP3    H122677   6.946   5.525   1.042
 7571TIP3    H222678   7.062   5.602   1.102
 7572TIP3   OH222679   6.829   4.788   0.231
 7572TIP3    H122680   6.886   4.857   0.199
 7572TIP3    H222681   6.876   4.752   0.307
 7573TIP3   OH222682   6.974   4.662   0.423
 7573TIP3    H122683   6.907   4.620   0.476
 7573TIP3    H222684   7.039   4.692   0.486
 7574TIP3   OH222685   6.959   5.037   0.828
 7574TIP3    H122686   7.034   4.979   0.818
 7574TIP3    H222687   6.984   5.117   0.782
 7575TIP3   OH222688   6.882   5.363   1.039
 7575TIP3    H122689   6.803   5.358   1.093
 7575TIP3    H222690   6.855   5.329   0.954
 7576TIP3   OH222691   6.872   4.557   0.090
 7576TIP3    H122692   6.803   4.561   0.023
 7576TIP3    H222693   6.856   4.633   0.145
 7577TIP3   OH222694   6.761   4.221   0.013
 7577TIP3    H122695   6.694   4.285  -0.011
 7577TIP3    H222696   6.718   4.136   0.003
 7578TIP3   OH222697   6.771   4.494   0.520
 7578TIP3    H122698   6.751   4.411   0.478
 7578TIP3    H222699   6.825   4.471   0.595
 7579TIP3   OH222700   6.782   4.216   0.402
 7579TIP3    H122701   6.837   4.178   0.471
 7579TIP3    H222702   6.843   4.242   0.333
 7580TIP3   OH222703   6.953   4.352   1.009
 7580TIP3    H122704   7.026   4.400   0.970
 7580TIP3    H222705   6.952   4.380   1.100
 7581TIP3   OH222706   6.507   5.460   0.417
 7581TIP3    H122707   6.563   5.444   0.340
 7581TIP3    H222708   6.564   5.507   0.478
 7582TIP3   OH222709   6.060   5.689   1.066
 7582TIP3    H122710   6.016   5.606   1.048
 7582TIP3    H222711   6.042   5.706   1.158
 7583TIP3   OH222712   6.419   5.580   1.123
 7583TIP3    H122713   6.374   5.536   1.051
 7583TIP3    H222714   6.485   5.635   1.080
 7584TIP3   OH222715   6.632   5.706   0.996
 7584TIP3    H122716   6.606   5.784   0.946
 7584TIP3    H222717   6.625   5.634   0.934
 7585TIP3   OH222718   5.900   5.300   1.092
 7585TIP3    H122719   5.952   5.224   1.067
 7585TIP3    H222720   5.811   5.277   1.066
 7586TIP3   OH222721   5.169   5.118   0.384
 7586TIP3    H122722   5.083   5.084   0.358
 7586TIP3    H222723   5.162   5.212   0.370
 7587TIP3   OH222724   5.942   5.261   0.097
 7587TIP3    H122725   6.026   5.290   0.060
 7587TIP3    H222726   5.916   5.186   0.043
 7588TIP3   OH222727   6.657   5.400   0.192
 7588TIP3    H122728   6.649   5.305   0.185
 7588TIP3    H222729   6.610   5.433   0.116
 7589TIP3   OH222730   5.251   5.089   0.124
 7589TIP3    H122731   5.242   5.094   0.220
 7589TIP3    H222732   5.337   5.050   0.110
 7590TIP3   OH222733   0.736   4.915   0.144
 7590TIP3    H122734   0.710   5.005   0.123
 7590TIP3    H222735   0.667   4.861   0.106
 7591TIP3   OH222736   0.710   4.914   0.519
 7591TIP3    H122737   0.714   4.872   0.605
 7591TIP3    H222738   0.680   4.845   0.460
 7592TIP3   OH222739   0.033   4.805   0.879
 7592TIP3    H122740   0.047   4.746   0.953
 7592TIP3    H222741   0.119   4.810   0.836
 7593TIP3   OH222742   1.001   5.229   0.216
 7593TIP3    H122743   0.977   5.171   0.288
 7593TIP3    H222744   1.027   5.311   0.259
 7594TIP3   OH222745   0.025   5.209   0.597
 7594TIP3    H122746   0.007   5.115   0.602
 7594TIP3    H222747   0.120   5.215   0.594
 7595TIP3   OH222748   7.121   4.431   0.381
 7595TIP3    H122749   7.079   4.517   0.391
 7595TIP3    H222750   7.055   4.378   0.336
 7596TIP3   OH222751   7.201   4.719   0.571
 7596TIP3    H122752   7.247   4.641   0.603
 7596TIP3    H222753   7.271   4.781   0.550
 7597TIP3   OH222754   0.659   5.658   0.240
 7597TIP3    H122755   0.690   5.588   0.182
 7597TIP3    H222756   0.675   5.625   0.329
 7598TIP3   OH222757   0.543   5.141   0.558
 7598TIP3    H122758   0.582   5.059   0.529
 7598TIP3    H222759   0.618   5.198   0.578
 7599TIP3   OH222760   1.068   4.584   0.455
 7599TIP3    H122761   1.106   4.596   0.542
 7599TIP3    H222762   0.974   4.587   0.470
 7600TIP3   OH222763   0.284   4.288   0.564
 7600TIP3    H122764   0.254   4.363   0.512
 7600TIP3    H222765   0.220   4.220   0.547
 7601TIP3   OH222766   0.981   4.383   0.203
 7601TIP3    H122767   1.013   4.322   0.268
 7601TIP3    H222768   1.056   4.439   0.182
 7602TIP3   OH222769   7.326   4.492   0.672
 7602TIP3    H122770   7.406   4.478   0.722
 7602TIP3    H222771   7.333   4.432   0.598
 7603TIP3   OH222772   0.345   4.695   0.485
 7603TIP3    H122773   0.437   4.673   0.494
 7603TIP3    H222774   0.303   4.613   0.459
 7604TIP3   OH222775   5.579   1.654   6.053
 7604TIP3    H122776   5.533   1.624   5.975
 7604TIP3    H222777   5.530   1.731   6.082
 7605TIP3   OH222778   0.394   5.057   0.780
 7605TIP3    H122779   0.337   5.125   0.815
 7605TIP3    H222780   0.446   5.102   0.713
 7606TIP3   OH222781   0.164   4.416   0.785
 7606TIP3    H122782   0.223   4.480   0.824
 7606TIP3    H222783   0.220   4.365   0.726
 7607TIP3   OH222784   0.229   5.261   0.878
 7607TIP3    H122785   0.210   5.347   0.842
 7607TIP3    H222786   0.150   5.238   0.928
 7608TIP3   OH222787   7.009   4.966   0.122
 7608TIP3    H122788   6.972   4.992   0.037
 7608TIP3    H222789   7.035   5.049   0.163
 7609TIP3   OH222790   1.040   5.471   0.349
 7609TIP3    H122791   0.954   5.461   0.390
 7609TIP3    H222792   1.040   5.561   0.315
 7610TIP3   OH222793   0.754   5.498   0.030
 7610TIP3    H122794   0.808   5.420   0.016
 7610TIP3    H222795   0.809   5.570  -0.002
 7611TIP3   OH222796   5.826   1.781   6.011
 7611TIP3    H122797   5.752   1.721   6.018
 7611TIP3    H222798   5.878   1.764   6.090
 7612TIP3   OH222799   5.503   1.283   6.016
 7612TIP3    H122800   5.419   1.323   5.996
 7612TIP3    H222801   5.549   1.279   5.932
 7613TIP3   OH222802   5.469   1.084   5.716
 7613TIP3    H122803   5.534   1.125   5.773
 7613TIP3    H222804   5.518   1.022   5.663
 7614TIP3   OH222805   5.853   1.368   5.989
 7614TIP3    H122806   5.803   1.392   6.067
 7614TIP3    H222807   5.936   1.334   6.024
 7615TIP3   OH222808   0.156   4.841   0.347
 7615TIP3    H122809   0.116   4.782   0.284
 7615TIP3    H222810   0.226   4.790   0.389
 7616TIP3   OH222811   0.290   5.255   0.494
 7616TIP3    H122812   0.274   5.229   0.404
 7616TIP3    H222813   0.377   5.220   0.515
 7617TIP3   OH222814   0.261   4.824   0.717
 7617TIP3    H122815   0.298   4.791   0.635
 7617TIP3    H222816   0.313   4.902   0.738
 7618TIP3   OH222817   0.796   5.460   0.468
 7618TIP3    H122818   0.790   5.537   0.524
 7618TIP3    H222819   0.796   5.386   0.529
 7619TIP3   OH222820   0.428   5.370   1.039
 7619TIP3    H122821   0.364   5.433   1.072
 7619TIP3    H222822   0.379   5.315   0.978
 7620TIP3   OH222823   5.693   1.229   5.818
 7620TIP3    H122824   5.750   1.283   5.872
 7620TIP3    H222825   5.715   1.254   5.728
 7621TIP3   OH222826   0.158   4.969   1.131
 7621TIP3    H122827   0.149   5.052   1.177
 7621TIP3    H222828   0.074   4.956   1.088
 7622TIP3   OH222829   0.506   5.382   0.026
 7622TIP3    H122830   0.589   5.427   0.040
 7622TIP3    H222831   0.446   5.450  -0.004
 7623TIP3   OH222832   0.224   5.534   1.104
 7623TIP3    H122833   0.192   5.536   1.014
 7623TIP3    H222834   0.148   5.506   1.156
 7624TIP3   OH222835   7.430   4.684   0.148
 7624TIP3    H122836   7.348   4.720   0.117
 7624TIP3    H222837   7.410   4.593   0.169
 7625TIP3   OH222838   6.027   1.825   5.430
 7625TIP3    H122839   6.025   1.918   5.409
 7625TIP3    H222840   6.116   1.797   5.406
 7626TIP3   OH222841   7.283   5.026   1.074
 7626TIP3    H122842   7.201   5.069   1.097
 7626TIP3    H222843   7.261   4.933   1.068
 7627TIP3   OH222844   7.056   5.278   0.722
 7627TIP3    H122845   7.151   5.272   0.720
 7627TIP3    H222846   7.038   5.364   0.759
 7628TIP3   OH222847   0.621   5.507   0.903
 7628TIP3    H122848   0.610   5.600   0.919
 7628TIP3    H222849   0.554   5.465   0.957
 7629TIP3   OH222850   5.322   2.121   5.924
 7629TIP3    H122851   5.246   2.098   5.870
 7629TIP3    H222852   5.303   2.211   5.953
 7630TIP3   OH222853   7.231   5.462   0.236
 7630TIP3    H122854   7.275   5.457   0.321
 7630TIP3    H222855   7.179   5.382   0.231
 7631TIP3   OH222856   5.570   2.100   5.803
 7631TIP3    H122857   5.485   2.096   5.849
 7631TIP3    H222858   5.633   2.066   5.867
 7632TIP3   OH222859   7.396   5.273   1.039
 7632TIP3    H122860   7.439   5.279   1.125
 7632TIP3    H222861   7.356   5.186   1.038
 7633TIP3   OH222862   5.754   1.298   5.562
 7633TIP3    H122863   5.717   1.259   5.483
 7633TIP3    H222864   5.846   1.316   5.538
 7634TIP3   OH222865   0.342   4.603   0.869
 7634TIP3    H122866   0.366   4.642   0.953
 7634TIP3    H222867   0.319   4.677   0.813
 7635TIP3   OH222868   0.191   4.481   0.395
 7635TIP3    H122869   0.104   4.444   0.407
 7635TIP3    H222870   0.215   4.456   0.306
 7636TIP3   OH222871   0.681   4.551   0.094
 7636TIP3    H122872   0.639   4.626   0.053
 7636TIP3    H222873   0.746   4.522   0.030
 7637TIP3   OH222874   0.813   4.565   0.334
 7637TIP3    H122875   0.747   4.588   0.268
 7637TIP3    H222876   0.871   4.503   0.290
 7638TIP3   OH222877   0.103   4.635   1.082
 7638TIP3    H122878   0.193   4.663   1.098
 7638TIP3    H222879   0.105   4.540   1.087
 7639TIP3   OH222880   5.145   0.641   5.865
 7639TIP3    H122881   5.132   0.681   5.950
 7639TIP3    H222882   5.059   0.640   5.824
 7640TIP3   OH222883   7.169   4.158   0.201
 7640TIP3    H122884   7.185   4.173   0.108
 7640TIP3    H222885   7.086   4.203   0.219
 7641TIP3   OH222886   0.526   4.325   0.429
 7641TIP3    H122887   0.443   4.307   0.475
 7641TIP3    H222888   0.592   4.324   0.498
 7642TIP3   OH222889   7.361   4.329   0.442
 7642TIP3    H122890   7.278   4.370   0.419
 7642TIP3    H222891   7.355   4.241   0.406
 7643TIP3   OH222892   0.238   4.390   0.147
 7643TIP3    H122893   0.330   4.368   0.131
 7643TIP3    H222894   0.198   4.387   0.060
 7644TIP3   OH222895   5.042   0.903   5.946
 7644TIP3    H122896   4.979   0.856   5.891
 7644TIP3    H222897   5.095   0.953   5.885
 7645TIP3   OH222898   1.201   6.036   0.867
 7645TIP3    H122899   1.217   6.074   0.781
 7645TIP3    H222900   1.259   6.083   0.926
 7646TIP3   OH222901   0.155   5.200   1.274
 7646TIP3    H122902   0.251   5.207   1.272
 7646TIP3    H222903   0.131   5.228   1.363
 7647TIP3   OH222904   0.610   4.639   0.535
 7647TIP3    H122905   0.680   4.603   0.480
 7647TIP3    H222906   0.624   4.600   0.621
 7648TIP3   OH222907   7.171   3.766   1.210
 7648TIP3    H122908   7.152   3.860   1.212
 7648TIP3    H222909   7.262   3.759   1.238
 7649TIP3   OH222910   5.266   1.418   5.963
 7649TIP3    H122911   5.193   1.359   5.943
 7649TIP3    H222912   5.246   1.454   6.049
 7650TIP3   OH222913   1.157   5.210   0.559
 7650TIP3    H122914   1.231   5.237   0.504
 7650TIP3    H222915   1.096   5.169   0.498
 7651TIP3   OH222916   5.701   0.790   5.790
 7651TIP3    H122917   5.685   0.710   5.839
 7651TIP3    H222918   5.733   0.853   5.855
 7652TIP3   OH222919   0.683   5.232   0.864
 7652TIP3    H122920   0.732   5.201   0.940
 7652TIP3    H222921   0.661   5.323   0.885
 7653TIP3   OH222922   5.802   0.996   5.939
 7653TIP3    H122923   5.894   0.999   5.966
 7653TIP3    H222924   5.788   1.078   5.892
 7654TIP3   OH222925   0.023   4.922   0.577
 7654TIP3    H122926   0.069   4.905   0.495
 7654TIP3    H222927   0.082   4.889   0.645
 7655TIP3   OH222928   5.420   1.596   5.832
 7655TIP3    H122929   5.366   1.675   5.838
 7655TIP3    H222930   5.368   1.529   5.875
 7656TIP3   OH222931   0.871   5.527   0.776
 7656TIP3    H122932   0.784   5.514   0.815
 7656TIP3    H222933   0.929   5.473   0.829
 7657TIP3   OH222934   6.228   1.087   5.763
 7657TIP3    H122935   6.165   1.038   5.709
 7657TIP3    H222936   6.231   1.174   5.723
 7658TIP3   OH222937   5.939   1.895   5.691
 7658TIP3    H122938   5.922   1.824   5.753
 7658TIP3    H222939   5.964   1.850   5.610
 7659TIP3   OH222940   0.952   5.050   0.430
 7659TIP3    H122941   0.862   5.035   0.457
 7659TIP3    H222942   0.971   4.978   0.369
 7660TIP3   OH222943   0.138   5.253   0.231
 7660TIP3    H122944   0.132   5.331   0.177
 7660TIP3    H222945   0.052   5.245   0.272
 7661TIP3   OH222946   4.637   1.053   5.985
 7661TIP3    H122947   4.686   1.133   6.004
 7661TIP3    H222948   4.559   1.058   6.040
 7662TIP3   OH222949   0.250   5.014   0.152
 7662TIP3    H122950   0.222   5.102   0.178
 7662TIP3    H222951   0.223   4.958   0.225
 7663TIP3   OH222952   0.428   5.583   0.692
 7663TIP3    H122953   0.461   5.659   0.643
 7663TIP3    H222954   0.506   5.547   0.735
 7664TIP3   OH222955   0.055   5.484   0.077
 7664TIP3    H122956  -0.028   5.485   0.123
 7664TIP3    H222957   0.089   5.573   0.087
 7665TIP3   OH222958   0.804   5.231   0.624
 7665TIP3    H122959   0.768   5.226   0.713
 7665TIP3    H222960   0.894   5.199   0.633
 7666TIP3   OH222961   5.666   1.563   5.623
 7666TIP3    H122962   5.741   1.583   5.679
 7666TIP3    H222963   5.686   1.476   5.588
 7667TIP3   OH222964   0.987   5.774   0.727
 7667TIP3    H122965   0.941   5.690   0.724
 7667TIP3    H222966   0.984   5.807   0.637
 7668TIP3   OH222967   6.037   2.101   5.395
 7668TIP3    H122968   6.080   2.170   5.346
 7668TIP3    H222969   5.958   2.142   5.431
 7669TIP3   OH222970   5.883   1.556   5.782
 7669TIP3    H122971   5.871   1.505   5.862
 7669TIP3    H222972   5.978   1.560   5.771
 7670TIP3   OH222973   7.255   5.463   0.857
 7670TIP3    H122974   7.304   5.400   0.909
 7670TIP3    H222975   7.274   5.547   0.898
 7671TIP3   OH222976   5.064   1.603   5.581
 7671TIP3    H122977   5.058   1.511   5.557
 7671TIP3    H222978   5.050   1.604   5.676
 7672TIP3   OH222979   5.010   1.614   5.854
 7672TIP3    H122980   5.063   1.577   5.925
 7672TIP3    H222981   5.017   1.709   5.867
 7673TIP3   OH222982   7.202   4.789   0.026
 7673TIP3    H122983   7.138   4.835   0.080
 7673TIP3    H222984   7.223   4.851  -0.044
 7674TIP3   OH222985   5.286   1.816   5.761
 7674TIP3    H122986   5.205   1.835   5.808
 7674TIP3    H222987   5.295   1.888   5.699
 7675TIP3   OH222988   0.510   4.342   0.151
 7675TIP3    H122989   0.573   4.411   0.130
 7675TIP3    H222990   0.519   4.329   0.245
 7676TIP3   OH222991   5.043   1.888   5.872
 7676TIP3    H122992   5.014   1.956   5.812
 7676TIP3    H222993   5.022   1.922   5.959
 7677TIP3   OH222994   1.020   4.821   0.296
 7677TIP3    H122995   0.967   4.746   0.322
 7677TIP3    H222996   1.105   4.807   0.338
 7678TIP3   OH222997   4.755   1.491   5.858
 7678TIP3    H122998   4.825   1.556   5.867
 7678TIP3    H222999   4.790   1.427   5.796
 7679TIP3   OH223000   4.661   0.772   5.977
 7679TIP3    H123001   4.684   0.865   5.985
 7679TIP3    H223002   4.568   0.768   5.998
 7680TIP3   OH223003   1.059   5.737   0.272
 7680TIP3    H123004   1.016   5.788   0.203
 7680TIP3    H223005   1.153   5.749   0.255
 7681TIP3   OH223006   7.060   5.232   0.210
 7681TIP3    H123007   7.014   5.268   0.286
 7681TIP3    H223008   7.019   5.276   0.135
 7682TIP3   OH223009   7.252   5.768   1.237
 7682TIP3    H123010   7.332   5.766   1.290
 7682TIP3    H223011   7.224   5.677   1.233
 7683TIP3   OH223012   0.326   5.718   1.277
 7683TIP3    H123013   0.406   5.680   1.312
 7683TIP3    H223014   0.299   5.659   1.207
 7684TIP3   OH223015   4.887   1.300   5.713
 7684TIP3    H123016   4.936   1.276   5.792
 7684TIP3    H223017   4.954   1.313   5.646
 7685TIP3   OH223018   0.428   5.191   1.247
 7685TIP3    H123019   0.435   5.253   1.174
 7685TIP3    H223020   0.514   5.149   1.251
 7686TIP3   OH223021   5.368   1.528   5.538
 7686TIP3    H123022   5.272   1.532   5.535
 7686TIP3    H223023   5.388   1.437   5.515
 7687TIP3   OH223024   5.056   1.244   5.928
 7687TIP3    H123025   5.037   1.215   6.017
 7687TIP3    H223026   5.103   1.170   5.888
 7688TIP3   OH223027   0.347   4.780   1.082
 7688TIP3    H123028   0.286   4.851   1.099
 7688TIP3    H223029   0.425   4.823   1.047
 7689TIP3   OH223030   5.192   1.060   5.777
 7689TIP3    H123031   5.160   1.050   5.687
 7689TIP3    H223032   5.287   1.059   5.769
 7690TIP3   OH223033   5.997   1.349   5.443
 7690TIP3    H123034   5.978   1.311   5.357
 7690TIP3    H223035   5.971   1.441   5.435
 7691TIP3   OH223036   0.553   4.903   0.951
 7691TIP3    H123037   0.647   4.911   0.933
 7691TIP3    H223038   0.512   4.966   0.893
 7692TIP3   OH223039   5.028   2.112   5.692
 7692TIP3    H123040   5.014   2.197   5.733
 7692TIP3    H223041   4.989   2.121   5.605
 7693TIP3   OH223042   4.482   1.478   5.872
 7693TIP3    H123043   4.577   1.491   5.872
 7693TIP3    H223044   4.469   1.389   5.839
 7694TIP3   OH223045   6.860   5.555   0.287
 7694TIP3    H123046   6.794   5.501   0.243
 7694TIP3    H223047   6.903   5.496   0.348
 7695TIP3   OH223048   7.002   5.392   0.457
 7695TIP3    H123049   6.976   5.331   0.526
 7695TIP3    H223050   7.055   5.457   0.502
 7696TIP3   OH223051   1.328   5.805   0.244
 7696TIP3    H123052   1.330   5.823   0.338
 7696TIP3    H223053   1.337   5.891   0.203
 7697TIP3   OH223054   1.321   5.840   0.515
 7697TIP3    H123055   1.271   5.759   0.528
 7697TIP3    H223056   1.392   5.834   0.580
 7698TIP3   OH223057   6.157   1.548   5.763
 7698TIP3    H123058   6.218   1.617   5.735
 7698TIP3    H223059   6.197   1.512   5.843
 7699TIP3   OH223060   6.261   1.420   5.979
 7699TIP3    H123061   6.197   1.364   6.022
 7699TIP3    H223062   6.293   1.478   6.049
 7700TIP3   OH223063   1.356   5.275   0.366
 7700TIP3    H123064   1.429   5.227   0.326
 7700TIP3    H223065   1.345   5.352   0.310
 7701TIP3   OH223066   1.214   5.593   0.531
 7701TIP3    H123067   1.221   5.545   0.614
 7701TIP3    H223068   1.160   5.536   0.475
 7702TIP3   OH223069   6.204   1.321   5.618
 7702TIP3    H123070   6.133   1.322   5.554
 7702TIP3    H223071   6.187   1.397   5.673
 7703TIP3   OH223072   6.046   0.984   5.581
 7703TIP3    H123073   6.020   1.060   5.529
 7703TIP3    H223074   6.050   0.912   5.518
 7704TIP3   OH223075   1.148   4.750   0.065
 7704TIP3    H123076   1.169   4.659   0.084
 7704TIP3    H223077   1.116   4.785   0.148
 7705TIP3   OH223078   7.175   4.862   0.804
 7705TIP3    H123079   7.168   4.815   0.721
 7705TIP3    H223080   7.267   4.858   0.827
 7706TIP3   OH223081   6.077   0.996   5.981
 7706TIP3    H123082   6.124   0.913   5.976
 7706TIP3    H223083   6.127   1.056   5.926
 7707TIP3   OH223084   7.147   4.501   0.885
 7707TIP3    H123085   7.198   4.504   0.804
 7707TIP3    H223086   7.213   4.497   0.954
 7708TIP3   OH223087   5.824   2.209   5.953
 7708TIP3    H123088   5.881   2.198   5.877
 7708TIP3    H223089   5.866   2.276   6.006
 7709TIP3   OH223090   7.420   5.482   1.280
 7709TIP3    H123091   7.326   5.478   1.266
 7709TIP3    H223092   7.432   5.548   1.348
 7710TIP3   OH223093   0.195   5.532   0.828
 7710TIP3    H123094   0.143   5.606   0.797
 7710TIP3    H223095   0.281   5.544   0.788
 7711TIP3   OH223096   0.604   5.776   0.955
 7711TIP3    H123097   0.634   5.776   1.046
 7711TIP3    H223098   0.670   5.826   0.908
 7712TIP3   OH223099   0.801   5.936   0.853
 7712TIP3    H123100   0.865   5.882   0.806
 7712TIP3    H223101   0.852   5.986   0.916
 7713TIP3   OH223102   7.262   5.778   0.884
 7713TIP3    H123103   7.174   5.798   0.852
 7713TIP3    H223104   7.282   5.847   0.947
 7714TIP3   OH223105   0.089   5.765   0.731
 7714TIP3    H123106   0.007   5.772   0.781
 7714TIP3    H223107   0.066   5.795   0.643
 7715TIP3   OH223108   0.495   5.798   0.528
 7715TIP3    H123109   0.424   5.814   0.466
 7715TIP3    H223110   0.508   5.882   0.572
 7716TIP3   OH223111   0.759   5.722   0.544
 7716TIP3    H123112   0.668   5.753   0.536
 7716TIP3    H223113   0.812   5.797   0.518
 7717TIP3   OH223114   0.967   5.902   0.476
 7717TIP3    H123115   0.973   5.988   0.434
 7717TIP3    H223116   1.001   5.841   0.410
 7718TIP3   OH223117   7.178   5.566   0.605
 7718TIP3    H123118   7.196   5.540   0.695
 7718TIP3    H223119   7.251   5.530   0.555
 7719TIP3   OH223120  -0.022   5.444   0.468
 7719TIP3    H123121  -0.013   5.362   0.516
 7719TIP3    H223122   0.065   5.485   0.473
 7720TIP3   OH223123   0.243   5.533   0.487
 7720TIP3    H123124   0.263   5.440   0.476
 7720TIP3    H223125   0.297   5.561   0.561
 7721TIP3   OH223126   4.482   1.866   6.032
 7721TIP3    H123127   4.395   1.833   6.007
 7721TIP3    H223128   4.481   1.957   6.004
 7722TIP3   OH223129   5.275   2.028   5.588
 7722TIP3    H123130   5.323   2.109   5.571
 7722TIP3    H223131   5.186   2.057   5.612
 7723TIP3   OH223132   5.979   2.164   5.725
 7723TIP3    H123133   5.968   2.069   5.717
 7723TIP3    H223134   5.938   2.199   5.646
 7724TIP3   OH223135   4.574   1.865   5.687
 7724TIP3    H123136   4.568   1.874   5.782
 7724TIP3    H223137   4.657   1.821   5.672
 7725TIP3   OH223138   1.247   5.763   0.816
 7725TIP3    H123139   1.159   5.750   0.782
 7725TIP3    H223140   1.245   5.849   0.857
 7726TIP3   OH223141   6.426   1.190   5.959
 7726TIP3    H123142   6.376   1.271   5.947
 7726TIP3    H223143   6.396   1.133   5.888
 7727TIP3   OH223144   6.578   1.513   6.018
 7727TIP3    H123145   6.658   1.476   6.055
 7727TIP3    H223146   6.595   1.517   5.924
 7728TIP3   OH223147  -0.022   2.377   5.719
 7728TIP3    H123148   0.074   2.375   5.710
 7728TIP3    H223149  -0.037   2.414   5.806
 7729TIP3   OH223150   7.375   1.947   5.490
 7729TIP3    H123151   7.324   1.909   5.418
 7729TIP3    H223152   7.336   2.033   5.504
 7730TIP3   OH223153   6.334   1.732   5.656
 7730TIP3    H123154   6.299   1.750   5.569
 7730TIP3    H223155   6.358   1.818   5.691
 7731TIP3   OH223156   7.255   1.299   5.214
 7731TIP3    H123157   7.311   1.343   5.279
 7731TIP3    H223158   7.272   1.206   5.227
 7732TIP3   OH223159   7.260   2.199   5.540
 7732TIP3    H123160   7.290   2.256   5.610
 7732TIP3    H223161   7.186   2.245   5.501
 7733TIP3   OH223162   6.725   1.413   5.694
 7733TIP3    H123163   6.665   1.473   5.650
 7733TIP3    H223164   6.726   1.335   5.638
 7734TIP3   OH223165   1.415   5.536   0.199
 7734TIP3    H123166   1.498   5.549   0.244
 7734TIP3    H223167   1.363   5.613   0.221
 7735TIP3   OH223168   7.106   2.386   5.388
 7735TIP3    H123169   7.055   2.374   5.307
 7735TIP3    H223170   7.077   2.471   5.422
 7736TIP3   OH223171   6.550   2.227   5.765
 7736TIP3    H123172   6.528   2.230   5.858
 7736TIP3    H223173   6.511   2.145   5.734
 7737TIP3   OH223174   7.303   2.284   5.033
 7737TIP3    H123175   7.380   2.249   4.989
 7737TIP3    H223176   7.331   2.300   5.123
 7738TIP3   OH223177   7.359   2.329   5.298
 7738TIP3    H123178   7.274   2.342   5.341
 7738TIP3    H223179   7.406   2.268   5.355
 7739TIP3   OH223180   6.988   0.908   5.396
 7739TIP3    H123181   6.982   0.870   5.484
 7739TIP3    H223182   6.898   0.926   5.371
 7740TIP3   OH223183   6.482   0.966   5.734
 7740TIP3    H123184   6.478   0.983   5.640
 7740TIP3    H223185   6.391   0.973   5.764
 7741TIP3   OH223186   6.795   1.227   5.473
 7741TIP3    H123187   6.769   1.135   5.469
 7741TIP3    H223188   6.854   1.239   5.398
 7742TIP3   OH223189   7.021   1.717   5.433
 7742TIP3    H123190   6.967   1.638   5.427
 7742TIP3    H223191   7.030   1.732   5.527
 7743TIP3   OH223192   7.212   1.838   5.285
 7743TIP3    H123193   7.170   1.924   5.281
 7743TIP3    H223194   7.153   1.784   5.338
 7744TIP3   OH223195   6.833   2.020   5.777
 7744TIP3    H123196   6.848   2.105   5.735
 7744TIP3    H223197   6.761   1.982   5.729
 7745TIP3   OH223198   6.427   1.354   5.457
 7745TIP3    H123199   6.472   1.433   5.487
 7745TIP3    H223200   6.351   1.347   5.515
 7746TIP3   OH223201   7.014   1.783   5.694
 7746TIP3    H123202   7.020   1.878   5.706
 7746TIP3    H223203   6.953   1.754   5.761
 7747TIP3   OH223204   6.788   2.250   5.623
 7747TIP3    H123205   6.702   2.259   5.665
 7747TIP3    H223206   6.823   2.340   5.622
 7748TIP3   OH223207   1.599   5.681   0.368
 7748TIP3    H123208   1.528   5.666   0.431
 7748TIP3    H223209   1.662   5.735   0.416
 7749TIP3   OH223210   6.862   1.855   5.073
 7749TIP3    H123211   6.873   1.763   5.048
 7749TIP3    H223212   6.839   1.852   5.165
 7750TIP3   OH223213   6.802   1.868   5.342
 7750TIP3    H123214   6.882   1.831   5.379
 7750TIP3    H223215   6.811   1.963   5.357
 7751TIP3   OH223216   6.542   1.580   5.558
 7751TIP3    H123217   6.475   1.626   5.609
 7751TIP3    H223218   6.562   1.640   5.485
 7752TIP3   OH223219   7.075   2.070   5.294
 7752TIP3    H123220   6.989   2.090   5.333
 7752TIP3    H223221   7.091   2.143   5.234
 7753TIP3   OH223222   6.820   2.141   5.371
 7753TIP3    H123223   6.791   2.206   5.307
 7753TIP3    H223224   6.807   2.183   5.456
 7754TIP3   OH223225   6.549   1.755   5.338
 7754TIP3    H123226   6.620   1.819   5.345
 7754TIP3    H223227   6.582   1.690   5.276
 7755TIP3   OH223228   6.452   1.082   5.477
 7755TIP3    H123229   6.477   1.170   5.504
 7755TIP3    H223230   6.429   1.090   5.385
 7756TIP3   OH223231   6.392   1.993   5.738
 7756TIP3    H123232   6.353   2.031   5.817
 7756TIP3    H223233   6.349   2.038   5.665
 7757TIP3   OH223234   7.020   2.056   4.971
 7757TIP3    H123235   6.974   1.982   5.012
 7757TIP3    H223236   7.096   2.017   4.930
 7758TIP3   OH223237   6.678   1.557   5.201
 7758TIP3    H123238   6.729   1.536   5.280
 7758TIP3    H223239   6.744   1.569   5.133
 7759TIP3   OH223240   7.204   1.762   5.020
 7759TIP3    H123241   7.207   1.786   5.112
 7759TIP3    H223242   7.180   1.669   5.020
 7760TIP3   OH223243   6.860   1.497   5.409
 7760TIP3    H123244   6.829   1.445   5.483
 7760TIP3    H223245   6.905   1.435   5.353
 7761TIP3   OH223246   6.967   1.301   5.253
 7761TIP3    H123247   6.935   1.298   5.162
 7761TIP3    H223248   7.061   1.287   5.245
 7762TIP3   OH223249   6.786   2.339   5.179
 7762TIP3    H123250   6.879   2.327   5.157
 7762TIP3    H223251   6.751   2.390   5.106
 7763TIP3   OH223252   6.279   1.728   5.371
 7763TIP3    H123253   6.372   1.747   5.360
 7763TIP3    H223254   6.267   1.643   5.329
 7764TIP3   OH223255   6.189   2.318   5.817
 7764TIP3    H123256   6.125   2.264   5.773
 7764TIP3    H223257   6.238   2.258   5.873
 7765TIP3   OH223258   6.349   2.157   5.980
 7765TIP3    H123259   6.326   2.093   6.047
 7765TIP3    H223260   6.400   2.223   6.026
 7766TIP3   OH223261   1.614   6.018   0.308
 7766TIP3    H123262   1.530   6.063   0.299
 7766TIP3    H223263   1.621   5.996   0.401
 7767TIP3   OH223264   1.821   5.925   0.154
 7767TIP3    H123265   1.762   5.964   0.218
 7767TIP3    H223266   1.851   5.999   0.100
 7768TIP3   OH223267   1.587   5.806   0.082
 7768TIP3    H123268   1.554   5.787   0.169
 7768TIP3    H223269   1.674   5.843   0.097
 7769TIP3   OH223270   6.966   2.221   6.043
 7769TIP3    H123271   7.011   2.210   5.959
 7769TIP3    H223272   6.986   2.311   6.069
 7770TIP3   OH223273   6.276   2.126   5.535
 7770TIP3    H123274   6.192   2.091   5.505
 7770TIP3    H223275   6.280   2.214   5.497
 7771TIP3   OH223276   7.046   2.285   5.117
 7771TIP3    H123277   7.133   2.309   5.086
 7771TIP3    H223278   7.020   2.212   5.060
 7772TIP3   OH223279   6.367   2.126   5.169
 7772TIP3    H123280   6.373   2.155   5.260
 7772TIP3    H223281   6.450   2.082   5.152
 7773TIP3   OH223282   4.131   6.098   0.890
 7773TIP3    H123283   4.154   6.176   0.941
 7773TIP3    H223284   4.054   6.125   0.839
 7774TIP3   OH223285   4.475   6.510   0.873
 7774TIP3    H123286   4.535   6.477   0.940
 7774TIP3    H223287   4.493   6.604   0.869
 7775TIP3   OH223288   6.517   0.058   0.930
 7775TIP3    H123289   6.452  -0.009   0.908
 7775TIP3    H223290   6.541   0.039   1.021
 7776TIP3   OH223291   4.112   6.450   0.575
 7776TIP3    H123292   4.062   6.426   0.497
 7776TIP3    H223293   4.048   6.493   0.632
 7777TIP3   OH223294   4.533   6.770   0.908
 7777TIP3    H123295   4.445   6.757   0.943
 7777TIP3    H223296   4.538   6.864   0.889
 7778TIP3   OH223297   4.186   6.765   0.611
 7778TIP3    H123298   4.248   6.692   0.599
 7778TIP3    H223299   4.241   6.838   0.639
 7779TIP3   OH223300   4.377   6.577   0.619
 7779TIP3    H123301   4.344   6.506   0.565
 7779TIP3    H223302   4.400   6.536   0.703
 7780TIP3   OH223303   4.048   6.037   0.611
 7780TIP3    H123304   3.978   6.103   0.616
 7780TIP3    H223305   4.083   6.045   0.522
 7781TIP3   OH223306   4.012   5.807   0.305
 7781TIP3    H123307   4.026   5.902   0.302
 7781TIP3    H223308   4.073   5.772   0.241
 7782TIP3   OH223309   4.440   6.186   0.511
 7782TIP3    H123310   4.409   6.134   0.585
 7782TIP3    H223311   4.514   6.136   0.476
 7783TIP3   OH223312   4.233   6.032   0.404
 7783TIP3    H123313   4.302   6.089   0.438
 7783TIP3    H223314   4.245   6.034   0.309
 7784TIP3   OH223315   3.821   6.730   0.635
 7784TIP3    H123316   3.911   6.701   0.616
 7784TIP3    H223317   3.805   6.801   0.573
 7785TIP3   OH223318   4.735   5.232   0.405
 7785TIP3    H123319   4.710   5.266   0.491
 7785TIP3    H223320   4.770   5.308   0.359
 7786TIP3   OH223321   4.534   6.615   0.045
 7786TIP3    H123322   4.530   6.707   0.019
 7786TIP3    H223323   4.622   6.587   0.023
 7787TIP3   OH223324   3.817   6.944   0.475
 7787TIP3    H123325   3.787   6.934   0.385
 7787TIP3    H223326   3.788   7.032   0.500
 7788TIP3   OH223327   4.021   6.818   0.160
 7788TIP3    H123328   4.078   6.767   0.102
 7788TIP3    H223329   4.078   6.844   0.233
 7789TIP3   OH223330   4.083   6.913   0.413
 7789TIP3    H123331   3.990   6.915   0.436
 7789TIP3    H223332   4.123   6.851   0.474
 7790TIP3   OH223333   4.261   6.067   0.143
 7790TIP3    H123334   4.228   6.028   0.062
 7790TIP3    H223335   4.351   6.093   0.122
 7791TIP3   OH223336   4.006   5.458   0.500
 7791TIP3    H123337   3.956   5.524   0.548
 7791TIP3    H223338   4.001   5.380   0.554
 7792TIP3   OH223339   4.123   5.822   0.815
 7792TIP3    H123340   4.130   5.909   0.777
 7792TIP3    H223341   4.162   5.764   0.749
 7793TIP3   OH223342   3.565   5.351   0.400
 7793TIP3    H123343   3.613   5.428   0.430
 7793TIP3    H223344   3.544   5.371   0.308
 7794TIP3   OH223345   3.492   5.737   0.601
 7794TIP3    H123346   3.434   5.666   0.573
 7794TIP3    H223347   3.579   5.710   0.570
 7795TIP3   OH223348   3.807   6.186   0.505
 7795TIP3    H123349   3.716   6.156   0.510
 7795TIP3    H223350   3.826   6.219   0.593
 7796TIP3   OH223351   4.238   5.553   0.386
 7796TIP3    H123352   4.167   5.499   0.422
 7796TIP3    H223353   4.234   5.635   0.436
 7797TIP3   OH223354   4.228   5.790   0.546
 7797TIP3    H123355   4.321   5.769   0.541
 7797TIP3    H223356   4.220   5.872   0.497
 7798TIP3   OH223357   3.958   6.370   0.358
 7798TIP3    H123358   3.925   6.460   0.352
 7798TIP3    H223359   3.898   6.326   0.418
 7799TIP3   OH223360   4.773   5.833   0.337
 7799TIP3    H123361   4.723   5.807   0.259
 7799TIP3    H223362   4.726   5.909   0.371
 7800TIP3   OH223363   4.458   6.682   0.304
 7800TIP3    H123364   4.427   6.606   0.354
 7800TIP3    H223365   4.476   6.648   0.217
 7801TIP3   OH223366   3.045   5.782   0.633
 7801TIP3    H123367   3.130   5.824   0.625
 7801TIP3    H223368   2.985   5.854   0.657
 7802TIP3   OH223369   3.455   6.880   0.826
 7802TIP3    H123370   3.370   6.913   0.853
 7802TIP3    H223371   3.503   6.958   0.796
 7803TIP3   OH223372   4.203   6.422   0.194
 7803TIP3    H123373   4.267   6.422   0.266
 7803TIP3    H223374   4.121   6.396   0.234
 7804TIP3   OH223375   2.074   3.401   6.044
 7804TIP3    H123376   2.089   3.459   5.969
 7804TIP3    H223377   2.002   3.442   6.092
 7805TIP3   OH223378   4.401   6.414   0.382
 7805TIP3    H123379   4.384   6.335   0.433
 7805TIP3    H223380   4.495   6.412   0.365
 7806TIP3   OH223381   3.589   6.388   0.187
 7806TIP3    H123382   3.612   6.303   0.151
 7806TIP3    H223383   3.579   6.373   0.281
 7807TIP3   OH223384   3.564   6.392   0.463
 7807TIP3    H123385   3.508   6.376   0.539
 7807TIP3    H223386   3.558   6.486   0.449
 7808TIP3   OH223387   3.226   6.107   0.725
 7808TIP3    H123388   3.197   6.118   0.815
 7808TIP3    H223389   3.266   6.191   0.703
 7809TIP3   OH223390   4.408   5.524   0.730
 7809TIP3    H123391   4.392   5.488   0.642
 7809TIP3    H223392   4.323   5.559   0.757
 7810TIP3   OH223393   3.856   6.623   0.358
 7810TIP3    H123394   3.764   6.642   0.375
 7810TIP3    H223395   3.875   6.671   0.277
 7811TIP3   OH223396   3.582   6.660   0.444
 7811TIP3    H123397   3.553   6.738   0.396
 7811TIP3    H223398   3.555   6.675   0.534
 7812TIP3   OH223399   3.273   6.257   0.450
 7812TIP3    H123400   3.277   6.352   0.454
 7812TIP3    H223401   3.298   6.236   0.360
 7813TIP3   OH223402   7.023   0.057   0.868
 7813TIP3    H123403   6.946   0.113   0.871
 7813TIP3    H223404   7.097   0.117   0.857
 7814TIP3   OH223405   3.731   6.605   0.098
 7814TIP3    H123406   3.688   6.525   0.129
 7814TIP3    H223407   3.807   6.573   0.048
 7815TIP3   OH223408   4.175   6.638   0.025
 7815TIP3    H123409   4.205   6.565   0.079
 7815TIP3    H223410   4.226   6.631  -0.056
 7816TIP3   OH223411   3.381   6.121   0.244
 7816TIP3    H123412   3.427   6.049   0.287
 7816TIP3    H223413   3.444   6.155   0.180
 7817TIP3   OH223414   3.909   6.296   0.097
 7817TIP3    H123415   3.917   6.300   0.193
 7817TIP3    H223416   3.900   6.203   0.078
 7818TIP3   OH223417   3.684   5.958   0.625
 7818TIP3    H123418   3.600   6.005   0.629
 7818TIP3    H223419   3.703   5.950   0.532
 7819TIP3   OH223420   3.748   5.785   0.344
 7819TIP3    H123421   3.712   5.800   0.257
 7819TIP3    H223422   3.843   5.792   0.332
 7820TIP3   OH223423   4.513   6.132   0.052
 7820TIP3    H123424   4.497   6.088  -0.031
 7820TIP3    H223425   4.486   6.223   0.037
 7821TIP3   OH223426   3.517   6.893   0.322
 7821TIP3    H123427   3.607   6.889   0.289
 7821TIP3    H223428   3.466   6.933   0.251
 7822TIP3   OH223429   2.907   6.288   0.557
 7822TIP3    H123430   2.983   6.333   0.591
 7822TIP3    H223431   2.938   6.199   0.538
 7823TIP3   OH223432   7.214   0.247   0.843
 7823TIP3    H123433   7.248   0.221   0.929
 7823TIP3    H223434   7.288   0.235   0.783
 7824TIP3   OH223435   4.672   6.359   0.384
 7824TIP3    H123436   4.730   6.425   0.345
 7824TIP3    H223437   4.723   6.323   0.456
 7825TIP3   OH223438   4.812   6.216   0.573
 7825TIP3    H123439   4.780   6.188   0.659
 7825TIP3    H223440   4.899   6.253   0.591
 7826TIP3   OH223441   4.737   6.539   0.990
 7826TIP3    H123442   4.776   6.498   0.913
 7826TIP3    H223443   4.752   6.632   0.979
 7827TIP3   OH223444   4.735   6.149   0.210
 7827TIP3    H123445   4.660   6.126   0.155
 7827TIP3    H223446   4.702   6.219   0.266
 7828TIP3   OH223447   4.612   5.777   0.130
 7828TIP3    H123448   4.528   5.819   0.113
 7828TIP3    H223449   4.593   5.684   0.131
 7829TIP3   OH223450   4.607   6.022   0.737
 7829TIP3    H123451   4.663   5.945   0.729
 7829TIP3    H223452   4.642   6.070   0.811
 7830TIP3   OH223453   4.553   5.515   0.154
 7830TIP3    H123454   4.618   5.459   0.197
 7830TIP3    H223455   4.472   5.465   0.157
 7831TIP3   OH223456   4.707   5.809   0.611
 7831TIP3    H123457   4.693   5.724   0.652
 7831TIP3    H223458   4.736   5.788   0.523
 7832TIP3   OH223459   4.669   5.590   0.747
 7832TIP3    H123460   4.730   5.534   0.795
 7832TIP3    H223461   4.594   5.533   0.728
 7833TIP3   OH223462   4.813   5.452   0.257
 7833TIP3    H123463   4.848   5.383   0.200
 7833TIP3    H223464   4.874   5.524   0.249
 7834TIP3   OH223465   6.833   0.031   0.587
 7834TIP3    H123466   6.863  -0.010   0.506
 7834TIP3    H223467   6.879   0.114   0.590
 7835TIP3   OH223468   6.867   0.316   1.160
 7835TIP3    H123469   6.878   0.373   1.083
 7835TIP3    H223470   6.867   0.228   1.124
 7836TIP3   OH223471   4.887   5.514   0.870
 7836TIP3    H123472   4.977   5.481   0.861
 7836TIP3    H223473   4.897   5.600   0.910
 7837TIP3   OH223474   4.424   5.251   0.792
 7837TIP3    H123475   4.423   5.346   0.807
 7837TIP3    H223476   4.476   5.216   0.864
 7838TIP3   OH223477   3.054   6.703   0.560
 7838TIP3    H123478   2.984   6.645   0.590
 7838TIP3    H223479   3.011   6.788   0.549
 7839TIP3   OH223480   3.762   6.863   0.213
 7839TIP3    H123481   3.853   6.874   0.185
 7839TIP3    H223482   3.726   6.798   0.154
 7840TIP3   OH223483   4.487   6.947   0.344
 7840TIP3    H123484   4.482   6.852   0.334
 7840TIP3    H223485   4.445   6.982   0.265
 7841TIP3   OH223486   3.122   6.711   0.288
 7841TIP3    H123487   3.114   6.708   0.384
 7841TIP3    H223488   3.196   6.653   0.269
 7842TIP3   OH223489   5.982   6.476   0.285
 7842TIP3    H123490   5.955   6.565   0.263
 7842TIP3    H223491   5.910   6.421   0.256
 7843TIP3   OH223492   6.002   6.485   0.675
 7843TIP3    H123493   6.011   6.468   0.769
 7843TIP3    H223494   5.930   6.428   0.647
 7844TIP3   OH223495   5.246   6.468   1.104
 7844TIP3    H123496   5.230   6.480   1.198
 7844TIP3    H223497   5.279   6.379   1.097
 7845TIP3   OH223498   6.243   6.780   0.374
 7845TIP3    H123499   6.234   6.713   0.443
 7845TIP3    H223500   6.268   6.859   0.421
 7846TIP3   OH223501   5.269   6.781   0.704
 7846TIP3    H123502   5.238   6.693   0.683
 7846TIP3    H223503   5.361   6.781   0.679
 7847TIP3   OH223504   4.969   6.017   0.448
 7847TIP3    H123505   4.939   6.099   0.486
 7847TIP3    H223506   4.906   5.997   0.380
 7848TIP3   OH223507   5.057   6.294   0.626
 7848TIP3    H123508   5.105   6.219   0.661
 7848TIP3    H223509   5.122   6.365   0.623
 7849TIP3   OH223510   0.963   0.243   0.384
 7849TIP3    H123511   0.994   0.178   0.321
 7849TIP3    H223512   0.959   0.196   0.468
 7850TIP3   OH223513   5.798   6.770   0.690
 7850TIP3    H123514   5.793   6.676   0.673
 7850TIP3    H223515   5.890   6.785   0.715
 7851TIP3   OH223516   6.815   6.026   0.711
 7851TIP3    H123517   6.838   6.103   0.764
 7851TIP3    H223518   6.832   6.052   0.621
 7852TIP3   OH223519   6.287   6.184   0.726
 7852TIP3    H123520   6.308   6.092   0.744
 7852TIP3    H223521   6.213   6.180   0.665
 7853TIP3   OH223522   5.437   5.856   0.709
 7853TIP3    H123523   5.475   5.924   0.653
 7853TIP3    H223524   5.407   5.789   0.648
 7854TIP3   OH223525   6.243   5.950   0.335
 7854TIP3    H123526   6.311   5.939   0.402
 7854TIP3    H223527   6.290   5.985   0.260
 7855TIP3   OH223528   5.147   6.040   0.735
 7855TIP3    H123529   5.220   6.040   0.796
 7855TIP3    H223530   5.178   5.988   0.661
 7856TIP3   OH223531   5.605   6.275   0.575
 7856TIP3    H123532   5.698   6.257   0.587
 7856TIP3    H223533   5.566   6.190   0.557
 7857TIP3   OH223534   6.880   6.235   0.883
 7857TIP3    H123535   6.790   6.268   0.880
 7857TIP3    H223536   6.917   6.271   0.963
 7858TIP3   OH223537   5.881   6.696   0.147
 7858TIP3    H123538   5.840   6.670   0.064
 7858TIP3    H223539   5.828   6.770   0.178
 7859TIP3   OH223540   5.727   6.673   0.974
 7859TIP3    H123541   5.647   6.683   1.025
 7859TIP3    H223542   5.730   6.751   0.918
 7860TIP3   OH223543   6.428   5.959   0.532
 7860TIP3    H123544   6.393   5.935   0.617
 7860TIP3    H223545   6.483   6.036   0.549
 7861TIP3   OH223546   5.382   6.048   0.886
 7861TIP3    H123547   5.474   6.069   0.900
 7861TIP3    H223548   5.383   5.970   0.831
 7862TIP3   OH223549   5.490   6.729   1.118
 7862TIP3    H123550   5.484   6.776   1.035
 7862TIP3    H223551   5.400   6.726   1.151
 7863TIP3   OH223552   4.853   6.527   0.271
 7863TIP3    H123553   4.819   6.543   0.182
 7863TIP3    H223554   4.878   6.614   0.302
 7864TIP3   OH223555   1.357   0.049   0.514
 7864TIP3    H123556   1.270   0.040   0.554
 7864TIP3    H223557   1.354   0.133   0.468
 7865TIP3   OH223558   6.598   5.948   0.870
 7865TIP3    H123559   6.515   5.958   0.823
 7865TIP3    H223560   6.665   5.970   0.805
 7866TIP3   OH223561   5.887   5.582   0.806
 7866TIP3    H123562   5.852   5.522   0.740
 7866TIP3    H223563   5.811   5.605   0.860
 7867TIP3   OH223564   1.059   0.084   0.176
 7867TIP3    H123565   1.109   0.003   0.165
 7867TIP3    H223566   1.118   0.153   0.146
 7868TIP3   OH223567   6.136   6.834   0.125
 7868TIP3    H123568   6.071   6.765   0.113
 7868TIP3    H223569   6.183   6.810   0.205
 7869TIP3   OH223570   6.519   6.928   0.861
 7869TIP3    H123571   6.505   6.850   0.806
 7869TIP3    H223572   6.504   7.001   0.802
 7870TIP3   OH223573   5.810   6.321   0.128
 7870TIP3    H123574   5.728   6.367   0.111
 7870TIP3    H223575   5.857   6.321   0.045
 7871TIP3   OH223576   3.310   2.628   5.875
 7871TIP3    H123577   3.375   2.679   5.923
 7871TIP3    H223578   3.361   2.564   5.826
 7872TIP3   OH223579   6.711   6.573   0.722
 7872TIP3    H123580   6.628   6.619   0.726
 7872TIP3    H223581   6.745   6.591   0.634
 7873TIP3   OH223582   6.165   6.406   0.094
 7873TIP3    H123583   6.112   6.434   0.168
 7873TIP3    H223584   6.249   6.381   0.133
 7874TIP3   OH223585   6.410   6.452   0.998
 7874TIP3    H123586   6.417   6.531   1.051
 7874TIP3    H223587   6.325   6.460   0.954
 7875TIP3   OH223588   5.390   6.406   0.473
 7875TIP3    H123589   5.356   6.336   0.417
 7875TIP3    H223590   5.465   6.366   0.518
 7876TIP3   OH223591   5.533   6.815   0.614
 7876TIP3    H123592   5.508   6.799   0.523
 7876TIP3    H223593   5.627   6.798   0.617
 7877TIP3   OH223594   5.556   6.338   0.907
 7877TIP3    H123595   5.594   6.380   0.830
 7877TIP3    H223596   5.603   6.375   0.981
 7878TIP3   OH223597   1.122   0.043   0.648
 7878TIP3    H123598   1.108   0.119   0.704
 7878TIP3    H223599   1.118  -0.032   0.709
 7879TIP3   OH223600   5.688   6.937   1.185
 7879TIP3    H123601   5.633   7.004   1.225
 7879TIP3    H223602   5.637   6.857   1.191
 7880TIP3   OH223603   3.533   2.777   5.967
 7880TIP3    H123604   3.591   2.835   6.016
 7880TIP3    H223605   3.560   2.788   5.876
 7881TIP3   OH223606   5.745   6.937   0.194
 7881TIP3    H123607   5.827   6.987   0.195
 7881TIP3    H223608   5.686   6.990   0.141
 7882TIP3   OH223609   0.576   0.155   1.263
 7882TIP3    H123610   0.567   0.161   1.168
 7882TIP3    H223611   0.503   0.205   1.298
 7883TIP3   OH223612   4.045   2.008   6.020
 7883TIP3    H123613   3.968   2.028   6.074
 7883TIP3    H223614   4.058   2.087   5.967
 7884TIP3   OH223615   5.264   6.228   0.297
 7884TIP3    H123616   5.191   6.279   0.262
 7884TIP3    H223617   5.224   6.146   0.326
 7885TIP3   OH223618   3.861   3.382   5.574
 7885TIP3    H123619   3.860   3.475   5.555
 7885TIP3    H223620   3.951   3.354   5.555
 7886TIP3   OH223621   4.977   6.834   0.794
 7886TIP3    H123622   5.069   6.809   0.805
 7886TIP3    H223623   4.938   6.824   0.881
 7887TIP3   OH223624   1.820   0.302   0.925
 7887TIP3    H123625   1.826   0.207   0.938
 7887TIP3    H223626   1.740   0.327   0.971
 7888TIP3   OH223627   0.927   0.100   1.030
 7888TIP3    H123628   0.926   0.190   1.062
 7888TIP3    H223629   0.864   0.053   1.084
 7889TIP3   OH223630   3.169   3.684   6.049
 7889TIP3    H123631   3.122   3.662   5.968
 7889TIP3    H223632   3.131   3.767   6.076
 7890TIP3   OH223633   0.129   0.046   0.375
 7890TIP3    H123634   0.173   0.044   0.460
 7890TIP3    H223635   0.077  -0.034   0.372
 7891TIP3   OH223636   3.371   3.605   5.680
 7891TIP3    H123637   3.421   3.532   5.643
 7891TIP3    H223638   3.405   3.616   5.768
 7892TIP3   OH223639   3.422   3.650   5.950
 7892TIP3    H123640   3.335   3.656   5.990
 7892TIP3    H223641   3.477   3.612   6.019
 7893TIP3   OH223642   6.663   6.397   1.200
 7893TIP3    H123643   6.576   6.427   1.171
 7893TIP3    H223644   6.667   6.305   1.172
 7894TIP3   OH223645   5.623   5.620   0.890
 7894TIP3    H123646   5.556   5.640   0.956
 7894TIP3    H223647   5.651   5.706   0.858
 7895TIP3   OH223648   6.412   6.234   1.157
 7895TIP3    H123649   6.368   6.270   1.234
 7895TIP3    H223650   6.408   6.304   1.092
 7896TIP3   OH223651   3.616   2.779   5.707
 7896TIP3    H123652   3.570   2.778   5.623
 7896TIP3    H223653   3.696   2.828   5.689
 7897TIP3   OH223654   3.325   2.183   6.016
 7897TIP3    H123655   3.288   2.188   6.104
 7897TIP3    H223656   3.286   2.105   5.977
 7898TIP3   OH223657   5.636   6.112   1.138
 7898TIP3    H123658   5.552   6.152   1.161
 7898TIP3    H223659   5.670   6.166   1.067
 7899TIP3   OH223660   5.472   6.048   0.514
 7899TIP3    H123661   5.377   6.037   0.519
 7899TIP3    H223662   5.496   6.008   0.430
 7900TIP3   OH223663   5.946   6.125   0.263
 7900TIP3    H123664   5.897   6.195   0.221
 7900TIP3    H223665   6.003   6.091   0.193
 7901TIP3   OH223666   6.109   6.143   0.489
 7901TIP3    H123667   6.050   6.169   0.418
 7901TIP3    H223668   6.154   6.065   0.456
 7902TIP3   OH223669   2.987   2.167   5.982
 7902TIP3    H123670   2.977   2.167   6.077
 7902TIP3    H223671   2.909   2.214   5.950
 7903TIP3   OH223672   5.124   5.616   0.758
 7903TIP3    H123673   5.174   5.674   0.816
 7903TIP3    H223674   5.063   5.674   0.712
 7904TIP3   OH223675   4.980   5.674   0.264
 7904TIP3    H123676   5.017   5.712   0.184
 7904TIP3    H223677   4.912   5.736   0.291
 7905TIP3   OH223678   6.140   6.440   0.926
 7905TIP3    H123679   6.145   6.370   0.861
 7905TIP3    H223680   6.120   6.396   1.008
 7906TIP3   OH223681   5.832   5.842   0.554
 7906TIP3    H123682   5.768   5.840   0.626
 7906TIP3    H223683   5.917   5.842   0.598
 7907TIP3   OH223684   5.227   5.941   0.494
 7907TIP3    H123685   5.141   5.941   0.452
 7907TIP3    H223686   5.264   5.856   0.472
 7908TIP3   OH223687   5.485   5.910   0.276
 7908TIP3    H123688   5.577   5.930   0.257
 7908TIP3    H223689   5.438   5.935   0.197
 7909TIP3   OH223690   6.304   5.913   0.773
 7909TIP3    H123691   6.312   5.896   0.867
 7909TIP3    H223692   6.240   5.849   0.742
 7910TIP3   OH223693   5.343   5.941   0.048
 7910TIP3    H123694   5.279   5.894  -0.005
 7910TIP3    H223695   5.397   5.987  -0.016
 7911TIP3   OH223696   1.528   0.649   1.024
 7911TIP3    H123697   1.522   0.669   0.931
 7911TIP3    H223698   1.607   0.695   1.053
 7912TIP3   OH223699   5.858   6.175   0.642
 7912TIP3    H123700   5.917   6.150   0.572
 7912TIP3    H223701   5.916   6.190   0.718
 7913TIP3   OH223702   5.374   5.712   0.484
 7913TIP3    H123703   5.330   5.629   0.501
 7913TIP3    H223704   5.447   5.689   0.427
 7914TIP3   OH223705   5.812   6.279   0.995
 7914TIP3    H123706   5.859   6.199   1.018
 7914TIP3    H223707   5.861   6.349   1.037
 7915TIP3   OH223708   5.577   6.459   0.071
 7915TIP3    H123709   5.502   6.403   0.054
 7915TIP3    H223710   5.557   6.502   0.154
 7916TIP3   OH223711   6.474   6.715   0.690
 7916TIP3    H123712   6.508   6.763   0.615
 7916TIP3    H223713   6.394   6.674   0.658
 7917TIP3   OH223714   3.574   2.292   6.001
 7917TIP3    H123715   3.481   2.268   6.006
 7917TIP3    H223716   3.576   2.386   6.020
 7918TIP3   OH223717   5.984   6.808   1.071
 7918TIP3    H123718   5.954   6.756   1.146
 7918TIP3    H223719   5.929   6.886   1.072
 7919TIP3   OH223720   6.104   6.037   0.047
 7919TIP3    H123721   6.199   6.042   0.057
 7919TIP3    H223722   6.081   6.115  -0.004
 7920TIP3   OH223723   5.214   6.524   0.641
 7920TIP3    H123724   5.273   6.492   0.572
 7920TIP3    H223725   5.250   6.487   0.721
 7921TIP3   OH223726   3.263   3.136   5.960
 7921TIP3    H123727   3.216   3.219   5.958
 7921TIP3    H223728   3.207   3.077   6.010
 7922TIP3   OH223729   1.204   0.109   0.974
 7922TIP3    H123730   1.110   0.094   0.977
 7922TIP3    H223731   1.226   0.141   1.062
 7923TIP3   OH223732   4.062   2.637   5.914
 7923TIP3    H123733   4.007   2.590   5.851
 7923TIP3    H223734   4.063   2.727   5.882
 7924TIP3   OH223735   1.836   0.020   0.950
 7924TIP3    H123736   1.741   0.010   0.947
 7924TIP3    H223737   1.866  -0.009   0.864
 7925TIP3   OH223738   3.793   3.454   5.841
 7925TIP3    H123739   3.759   3.386   5.900
 7925TIP3    H223740   3.804   3.409   5.757
 7926TIP3   OH223741   6.247   6.584   0.585
 7926TIP3    H123742   6.158   6.560   0.609
 7926TIP3    H223743   6.283   6.505   0.545
 7927TIP3   OH223744   5.377   6.813   0.380
 7927TIP3    H123745   5.373   6.891   0.325
 7927TIP3    H223746   5.285   6.786   0.391
 7928TIP3   OH223747   4.971   6.108   0.092
 7928TIP3    H123748   5.015   6.191   0.111
 7928TIP3    H223749   4.886   6.116   0.134
 7929TIP3   OH223750   5.501   6.581   0.297
 7929TIP3    H123751   5.470   6.668   0.323
 7929TIP3    H223752   5.468   6.522   0.365
 7930TIP3   OH223753   0.737   0.146   0.830
 7930TIP3    H123754   0.768   0.222   0.781
 7930TIP3    H223755   0.812   0.118   0.882
 7931TIP3   OH223756   0.367   0.064   0.237
 7931TIP3    H123757   0.279   0.069   0.273
 7931TIP3    H223758   0.400   0.154   0.241
 7932TIP3   OH223759   6.054   6.790   0.807
 7932TIP3    H123760   6.039   6.791   0.902
 7932TIP3    H223761   6.121   6.723   0.794
 7933TIP3   OH223762   3.547   3.189   5.731
 7933TIP3    H123763   3.596   3.163   5.809
 7933TIP3    H223764   3.461   3.149   5.742
 7934TIP3   OH223765   1.349   0.330   0.860
 7934TIP3    H123766   1.278   0.266   0.872
 7934TIP3    H223767   1.320   0.384   0.787
 7935TIP3   OH223768   3.870   3.656   5.539
 7935TIP3    H123769   3.892   3.719   5.471
 7935TIP3    H223770   3.797   3.697   5.586
 7936TIP3   OH223771   3.717   3.108   5.932
 7936TIP3    H123772   3.703   3.051   6.008
 7936TIP3    H223773   3.812   3.115   5.925
 7937TIP3   OH223774   0.192   0.058   0.975
 7937TIP3    H123775   0.218  -0.034   0.972
 7937TIP3    H223776   0.227   0.090   1.058
 7938TIP3   OH223777   2.908   3.156   5.739
 7938TIP3    H123778   2.916   3.065   5.712
 7938TIP3    H223779   2.886   3.152   5.832
 7939TIP3   OH223780   2.846   3.172   6.010
 7939TIP3    H123781   2.918   3.145   6.068
 7939TIP3    H223782   2.846   3.268   6.017
 7940TIP3   OH223783   5.053   6.359   0.178
 7940TIP3    H123784   4.985   6.403   0.229
 7940TIP3    H223785   5.070   6.418   0.105
 7941TIP3   OH223786   6.224   6.078   1.035
 7941TIP3    H123787   6.298   6.124   1.075
 7941TIP3    H223788   6.249   5.985   1.041
 7942TIP3   OH223789   6.110   5.734   0.225
 7942TIP3    H123790   6.090   5.756   0.134
 7942TIP3    H223791   6.148   5.814   0.261
 7943TIP3   OH223792   3.119   3.366   5.958
 7943TIP3    H123793   3.033   3.388   5.992
 7943TIP3    H223794   3.139   3.435   5.895
 7944TIP3   OH223795   5.759   5.929   0.306
 7944TIP3    H123796   5.820   6.000   0.286
 7944TIP3    H223797   5.776   5.909   0.398
 7945TIP3   OH223798   6.085   6.284   1.143
 7945TIP3    H123799   6.018   6.258   1.207
 7945TIP3    H223800   6.124   6.201   1.115
 7946TIP3   OH223801   5.923   5.637   0.395
 7946TIP3    H123802   5.902   5.717   0.443
 7946TIP3    H223803   5.995   5.662   0.337
 7947TIP3   OH223804   2.865   3.444   6.028
 7947TIP3    H123805   2.842   3.513   5.966
 7947TIP3    H223806   2.851   3.484   6.114
 7948TIP3   OH223807   5.432   5.643   0.211
 7948TIP3    H123808   5.420   5.734   0.238
 7948TIP3    H223809   5.526   5.627   0.219
 7949TIP3   OH223810   6.664   6.133   1.102
 7949TIP3    H123811   6.570   6.142   1.119
 7949TIP3    H223812   6.669   6.074   1.026
 7950TIP3   OH223813   6.335   6.331   0.484
 7950TIP3    H123814   6.253   6.283   0.495
 7950TIP3    H223815   6.397   6.289   0.543
 7951TIP3   OH223816   2.594   3.050   6.007
 7951TIP3    H123817   2.663   3.116   6.014
 7951TIP3    H223818   2.628   2.987   5.943
 7952TIP3   OH223819   4.990   5.838   0.052
 7952TIP3    H123820   5.004   5.930   0.073
 7952TIP3    H223821   4.902   5.835   0.013
 7953TIP3   OH223822   1.374   0.319   0.437
 7953TIP3    H123823   1.332   0.368   0.366
 7953TIP3    H223824   1.468   0.332   0.422
 7954TIP3   OH223825   5.400   5.571   1.035
 7954TIP3    H123826   5.372   5.535   0.951
 7954TIP3    H223827   5.380   5.503   1.098
 7955TIP3   OH223828   4.899   6.792   0.353
 7955TIP3    H123829   4.835   6.806   0.423
 7955TIP3    H223830   4.860   6.834   0.277
 7956TIP3   OH223831   3.064   3.359   5.637
 7956TIP3    H123832   3.016   3.287   5.677
 7956TIP3    H223833   3.137   3.317   5.592
 7957TIP3   OH223834   1.270   0.190   1.234
 7957TIP3    H123835   1.315   0.110   1.260
 7957TIP3    H223836   1.335   0.259   1.245
 7958TIP3   OH223837   3.502   3.398   5.557
 7958TIP3    H123838   3.534   3.331   5.618
 7958TIP3    H223839   3.559   3.391   5.481
 7959TIP3   OH223840   2.726   2.857   5.867
 7959TIP3    H123841   2.779   2.834   5.943
 7959TIP3    H223842   2.789   2.869   5.796
 7960TIP3   OH223843   3.284   3.077   5.692
 7960TIP3    H123844   3.263   3.091   5.784
 7960TIP3    H223845   3.268   2.984   5.677
 7961TIP3   OH223846   6.308   6.853   1.024
 7961TIP3    H123847   6.381   6.886   0.971
 7961TIP3    H223848   6.234   6.909   1.002
 7962TIP3   OH223849   5.370   6.278   0.034
 7962TIP3    H123850   5.345   6.245   0.120
 7962TIP3    H223851   5.415   6.205  -0.008
 7963TIP3   OH223852   3.035   2.598   5.921
 7963TIP3    H123853   3.006   2.604   5.830
 7963TIP3    H223854   3.131   2.605   5.916
 7964TIP3   OH223855   3.840   2.899   5.594
 7964TIP3    H123856   3.824   2.858   5.510
 7964TIP3    H223857   3.814   2.990   5.582
 7965TIP3   OH223858   5.783   5.857   1.140
 7965TIP3    H123859   5.814   5.935   1.094
 7965TIP3    H223860   5.707   5.886   1.190
 7966TIP3   OH223861   5.913   6.518   1.101
 7966TIP3    H123862   5.987   6.537   1.044
 7966TIP3    H223863   5.841   6.569   1.065
 7967TIP3   OH223864   6.445   6.665   1.166
 7967TIP3    H123865   6.384   6.728   1.127
 7967TIP3    H223866   6.531   6.693   1.135
 7968TIP3   OH223867   2.854   3.651   5.844
 7968TIP3    H123868   2.944   3.634   5.818
 7968TIP3    H223869   2.815   3.696   5.769
 7969TIP3   OH223870   2.322   3.029   6.034
 7969TIP3    H123871   2.416   3.045   6.023
 7969TIP3    H223872   2.307   2.944   5.995
 7970TIP3   OH223873   7.148   0.152   0.413
 7970TIP3    H123874   7.091   0.086   0.374
 7970TIP3    H223875   7.199   0.104   0.477
 7971TIP3   OH223876   4.817   6.992   0.598
 7971TIP3    H123877   4.782   6.909   0.632
 7971TIP3    H223878   4.885   7.017   0.661
 7972TIP3   OH223879   1.642   0.382   0.420
 7972TIP3    H123880   1.665   0.410   0.509
 7972TIP3    H223881   1.705   0.427   0.364
 7973TIP3   OH223882   1.666   0.407   0.703
 7973TIP3    H123883   1.616   0.325   0.695
 7973TIP3    H223884   1.735   0.387   0.766
 7974TIP3   OH223885   1.710   0.117   1.247
 7974TIP3    H123886   1.640   0.117   1.313
 7974TIP3    H223887   1.757   0.199   1.260
 7975TIP3   OH223888   3.998   3.101   5.926
 7975TIP3    H123889   4.056   3.170   5.897
 7975TIP3    H223890   4.041   3.063   6.003
 7976TIP3   OH223891   6.594   6.448   0.085
 7976TIP3    H123892   6.526   6.409   0.140
 7976TIP3    H223893   6.657   6.485   0.146
 7977TIP3   OH223894   6.642   6.850   0.516
 7977TIP3    H123895   6.695   6.781   0.476
 7977TIP3    H223896   6.641   6.920   0.451
 7978TIP3   OH223897   1.521   0.169   0.705
 7978TIP3    H123898   1.453   0.210   0.758
 7978TIP3    H223899   1.474   0.125   0.634
 7979TIP3   OH223900   4.045   2.876   5.775
 7979TIP3    H123901   3.975   2.875   5.710
 7979TIP3    H223902   4.027   2.952   5.829
 7980TIP3   OH223903   3.917   2.527   5.710
 7980TIP3    H123904   3.863   2.572   5.644
 7980TIP3    H223905   3.899   2.434   5.696
 7981TIP3   OH223906   6.395   6.308   0.218
 7981TIP3    H123907   6.401   6.213   0.210
 7981TIP3    H223908   6.380   6.323   0.312
 7982TIP3   OH223909   5.051   6.550   0.923
 7982TIP3    H123910   5.008   6.486   0.866
 7982TIP3    H223911   5.104   6.496   0.982
 7983TIP3   OH223912   6.691   6.737   1.068
 7983TIP3    H123913   6.757   6.668   1.058
 7983TIP3    H223914   6.715   6.803   1.003
 7984TIP3   OH223915   6.866   6.531   1.081
 7984TIP3    H123916   6.795   6.489   1.129
 7984TIP3    H223917   6.941   6.473   1.093
 7985TIP3   OH223918   3.862   2.256   5.685
 7985TIP3    H123919   3.924   2.234   5.755
 7985TIP3    H223920   3.779   2.219   5.713
 7986TIP3   OH223921   6.391   6.030   0.109
 7986TIP3    H123922   6.436   5.947   0.125
 7986TIP3    H223923   6.438   6.069   0.035
 7987TIP3   OH223924   6.559   6.190   0.611
 7987TIP3    H123925   6.643   6.215   0.573
 7987TIP3    H223926   6.559   6.228   0.699
 7988TIP3   OH223927   6.621   6.343   0.845
 7988TIP3    H123928   6.546   6.373   0.896
 7988TIP3    H223929   6.656   6.421   0.803
 7989TIP3   OH223930   7.043   5.904   1.367
 7989TIP3    H123931   7.120   5.864   1.326
 7989TIP3    H223932   7.026   5.982   1.315
 7990TIP3   OH223933   6.507   5.780   0.162
 7990TIP3    H123934   6.551   5.767   0.246
 7990TIP3    H223935   6.445   5.708   0.156
 7991TIP3   OH223936   5.215   5.798   0.931
 7991TIP3    H123937   5.249   5.777   1.018
 7991TIP3    H223938   5.166   5.878   0.943
 7992TIP3   OH223939   5.090   6.002   1.049
 7992TIP3    H123940   5.096   6.084   1.001
 7992TIP3    H223941   5.094   6.027   1.141
 7993TIP3   OH223942   6.932   6.082   1.185
 7993TIP3    H123943   6.843   6.113   1.203
 7993TIP3    H223944   6.920   6.002   1.134
 7994TIP3   OH223945   4.092   2.214   5.842
 7994TIP3    H123946   4.137   2.151   5.786
 7994TIP3    H223947   4.150   2.290   5.844
 7995TIP3   OH223948   4.946   5.591   0.513
 7995TIP3    H123949   4.851   5.587   0.500
 7995TIP3    H223950   4.981   5.609   0.426
 7996TIP3   OH223951   1.210   0.277   0.066
 7996TIP3    H123952   1.264   0.264  -0.012
 7996TIP3    H223953   1.256   0.344   0.116
 7997TIP3   OH223954   0.520   0.159   0.997
 7997TIP3    H123955   0.462   0.218   0.949
 7997TIP3    H223956   0.601   0.157   0.945
 7998TIP3   OH223957   0.920   0.355   1.138
 7998TIP3    H123958   0.959   0.345   1.225
 7998TIP3    H223959   0.981   0.410   1.090
 7999TIP3   OH223960   1.105   0.507   1.004
 7999TIP3    H123961   1.168   0.458   0.951
 7999TIP3    H223962   1.159   0.562   1.061
 8000TIP3   OH223963   6.865   5.854   1.051
 8000TIP3    H123964   6.774   5.833   1.033
 8000TIP3    H223965   6.908   5.769   1.064
 8001TIP3   OH223966   0.156   0.392   1.003
 8001TIP3    H123967   0.063   0.405   0.987
 8001TIP3    H223968   0.180   0.460   1.065
 8002TIP3   OH223969   0.391   0.361   0.872
 8002TIP3    H123970   0.302   0.367   0.907
 8002TIP3    H223971   0.382   0.387   0.780
 8003TIP3   OH223972   0.816   0.365   0.682
 8003TIP3    H123973   0.751   0.383   0.614
 8003TIP3    H223974   0.830   0.450   0.723
 8004TIP3   OH223975   1.085   0.308   0.734
 8004TIP3    H123976   0.993   0.324   0.714
 8004TIP3    H223977   1.132   0.374   0.683
 8005TIP3   OH223978   1.290   0.488   0.637
 8005TIP3    H123979   1.280   0.574   0.595
 8005TIP3    H223980   1.319   0.430   0.567
 8006TIP3   OH223981   0.078   0.170   0.747
 8006TIP3    H123982   0.112   0.146   0.833
 8006TIP3    H223983   0.140   0.131   0.685
 8007TIP3   OH223984   0.277   0.051   0.606
 8007TIP3    H123985   0.287  -0.036   0.646
 8007TIP3    H223986   0.365   0.088   0.608
 8008TIP3   OH223987   0.550   0.119   0.623
 8008TIP3    H123988   0.568   0.029   0.596
 8008TIP3    H223989   0.610   0.135   0.696
 8009TIP3   OH223990   6.079   5.741   0.653
 8009TIP3    H123991   6.033   5.664   0.686
 8009TIP3    H223992   6.148   5.706   0.596
 8010TIP3   OH223993   6.548   5.658   0.625
 8010TIP3    H123994   6.598   5.702   0.556
 8010TIP3    H223995   6.457   5.672   0.601
 8011TIP3   OH223996   6.667   5.729   0.385
 8011TIP3    H123997   6.737   5.671   0.354
 8011TIP3    H223998   6.701   5.817   0.371
 8012TIP3   OH223999   5.315   5.415   0.842
 8012TIP3    H124000   5.223   5.395   0.827
 8012TIP3    H224001   5.363   5.349   0.792
 8013TIP3   OH224002   5.092   5.375   0.343
 8013TIP3    H124003   5.126   5.413   0.262
 8013TIP3    H224004   5.115   5.438   0.411
 8014TIP3   OH224005   5.801   5.478   0.572
 8014TIP3    H124006   5.834   5.541   0.509
 8014TIP3    H224007   5.711   5.505   0.588
 8015TIP3   OH224008   6.284   5.620   0.523
 8015TIP3    H124009   6.328   5.600   0.440
 8015TIP3    H224010   6.273   5.535   0.566
 8016TIP3   OH224011   6.321   5.570   0.162
 8016TIP3    H124012   6.242   5.620   0.181
 8016TIP3    H224013   6.304   5.483   0.198
 8017TIP3   OH224014   4.783   6.914   0.139
 8017TIP3    H124015   4.699   6.885   0.102
 8017TIP3    H224016   4.789   7.006   0.113
 8018TIP3   OH224017   5.220   5.485   0.127
 8018TIP3    H124018   5.267   5.425   0.068
 8018TIP3    H224019   5.289   5.539   0.165
 8019TIP3   OH224020   5.702   5.671   0.234
 8019TIP3    H124021   5.770   5.626   0.284
 8019TIP3    H224022   5.715   5.764   0.254
 8020TIP3   OH224023   3.113   3.586   5.779
 8020TIP3    H124024   3.197   3.614   5.742
 8020TIP3    H224025   3.085   3.515   5.722
 8021TIP3   OH224026   3.826   3.722   5.877
 8021TIP3    H124027   3.820   3.627   5.869
 8021TIP3    H224028   3.780   3.756   5.800
 8022TIP3   OH224029   2.413   3.423   5.833
 8022TIP3    H124030   2.414   3.440   5.927
 8022TIP3    H224031   2.496   3.379   5.816
 8023TIP3   OH224032   1.572   0.377   1.021
 8023TIP3    H124033   1.498   0.347   0.968
 8023TIP3    H224034   1.560   0.472   1.028
 8024TIP3   OH224035   5.312   3.244   5.813
 8024TIP3    H124036   5.283   3.332   5.789
 8024TIP3    H224037   5.239   3.187   5.788
 8025TIP3   OH224038   0.376   6.726   0.185
 8025TIP3    H124039   0.423   6.710   0.266
 8025TIP3    H224040   0.333   6.643   0.165
 8026TIP3   OH224041   7.073   6.602   0.544
 8026TIP3    H124042   7.104   6.537   0.607
 8026TIP3    H224043   7.144   6.665   0.538
 8027TIP3   OH224044   5.571   3.543   5.903
 8027TIP3    H124045   5.560   3.478   5.973
 8027TIP3    H224046   5.594   3.624   5.948
 8028TIP3   OH224047   2.128   0.046   0.238
 8028TIP3    H124048   2.114  -0.049   0.244
 8028TIP3    H224049   2.223   0.055   0.228
 8029TIP3   OH224050   6.755   6.226   0.014
 8029TIP3    H124051   6.716   6.309   0.039
 8029TIP3    H224052   6.682   6.176  -0.024
 8030TIP3   OH224053   6.824   6.528   0.222
 8030TIP3    H124054   6.874   6.452   0.252
 8030TIP3    H224055   6.890   6.589   0.190
 8031TIP3   OH224056   5.226   3.989   5.913
 8031TIP3    H124057   5.257   3.922   5.852
 8031TIP3    H224058   5.219   3.944   5.997
 8032TIP3   OH224059   0.180   6.952   0.200
 8032TIP3    H124060   0.220   6.872   0.166
 8032TIP3    H224061   0.254   7.006   0.229
 8033TIP3   OH224062   1.203   6.284   0.201
 8033TIP3    H124063   1.219   6.368   0.244
 8033TIP3    H224064   1.240   6.295   0.113
 8034TIP3   OH224065   0.592   6.443   0.233
 8034TIP3    H124066   0.630   6.359   0.260
 8034TIP3    H224067   0.556   6.426   0.146
 8035TIP3   OH224068   7.344   6.105   0.196
 8035TIP3    H124069   7.322   6.178   0.138
 8035TIP3    H224070   7.287   6.033   0.166
 8036TIP3   OH224071   5.574   2.711   5.867
 8036TIP3    H124072   5.639   2.702   5.937
 8036TIP3    H224073   5.623   2.746   5.793
 8037TIP3   OH224074   6.972   6.315   0.317
 8037TIP3    H124075   7.053   6.297   0.363
 8037TIP3    H224076   6.977   6.262   0.237
 8038TIP3   OH224077   0.002   6.512   0.117
 8038TIP3    H124078   0.094   6.492   0.130
 8038TIP3    H224079  -0.037   6.430   0.087
 8039TIP3   OH224080   1.266   6.491   0.378
 8039TIP3    H124081   1.180   6.533   0.373
 8039TIP3    H224082   1.305   6.525   0.459
 8040TIP3   OH224083   7.326   6.097   0.642
 8040TIP3    H124084   7.273   6.135   0.572
 8040TIP3    H224085   7.273   6.111   0.721
 8041TIP3   OH224086   5.205   3.461   5.675
 8041TIP3    H124087   5.165   3.438   5.592
 8041TIP3    H224088   5.156   3.537   5.706
 8042TIP3   OH224089   0.028   6.876   0.419
 8042TIP3    H124090  -0.029   6.944   0.454
 8042TIP3    H224091   0.074   6.918   0.346
 8043TIP3   OH224092   0.813   6.215   0.037
 8043TIP3    H124093   0.770   6.197   0.121
 8043TIP3    H224094   0.869   6.290   0.055
 8044TIP3   OH224095   7.212   6.211   0.417
 8044TIP3    H124096   7.266   6.286   0.442
 8044TIP3    H224097   7.261   6.169   0.346
 8045TIP3   OH224098   2.331   0.098   0.521
 8045TIP3    H124099   2.313   0.187   0.489
 8045TIP3    H224100   2.254   0.077   0.574
 8046TIP3   OH224101   4.177   3.285   5.810
 8046TIP3    H124102   4.138   3.302   5.724
 8046TIP3    H224103   4.201   3.371   5.842
 8047TIP3   OH224104   5.610   3.788   6.038
 8047TIP3    H124105   5.523   3.781   6.077
 8047TIP3    H224106   5.610   3.874   5.995
 8048TIP3   OH224107   1.008   6.169   0.373
 8048TIP3    H124108   0.919   6.190   0.343
 8048TIP3    H224109   1.065   6.200   0.303
 8049TIP3   OH224110   0.261   5.796   0.360
 8049TIP3    H124111   0.258   5.705   0.389
 8049TIP3    H224112   0.187   5.838   0.404
 8050TIP3   OH224113   5.323   3.828   5.707
 8050TIP3    H124114   5.373   3.747   5.695
 8050TIP3    H224115   5.380   3.897   5.676
 8051TIP3   OH224116   5.468   3.602   5.653
 8051TIP3    H124117   5.407   3.530   5.636
 8051TIP3    H224118   5.513   3.578   5.733
 8052TIP3   OH224119   3.375   0.192   0.351
 8052TIP3    H124120   3.363   0.115   0.294
 8052TIP3    H224121   3.355   0.267   0.295
 8053TIP3   OH224122   5.139   3.085   5.659
 8053TIP3    H124123   5.059   3.134   5.642
 8053TIP3    H224124   5.188   3.089   5.577
 8054TIP3   OH224125   5.105   2.885   5.359
 8054TIP3    H124126   5.166   2.935   5.413
 8054TIP3    H224127   5.159   2.823   5.311
 8055TIP3   OH224128   1.105   6.824   0.206
 8055TIP3    H124129   1.022   6.872   0.208
 8055TIP3    H224130   1.143   6.844   0.121
 8056TIP3   OH224131   5.495   3.172   5.623
 8056TIP3    H124132   5.441   3.201   5.697
 8056TIP3    H224133   5.579   3.148   5.663
 8057TIP3   OH224134   0.788   6.695   0.511
 8057TIP3    H124135   0.787   6.777   0.560
 8057TIP3    H224136   0.704   6.692   0.465
 8058TIP3   OH224137   4.725   3.160   6.035
 8058TIP3    H124138   4.689   3.102   5.969
 8058TIP3    H224139   4.800   3.112   6.071
 8059TIP3   OH224140   2.390   0.093   0.131
 8059TIP3    H124141   2.370   0.072   0.040
 8059TIP3    H224142   2.477   0.055   0.145
 8060TIP3   OH224143   7.311   6.637   0.351
 8060TIP3    H124144   7.349   6.606   0.268
 8060TIP3    H224145   7.358   6.718   0.370
 8061TIP3   OH224146   2.909   0.291   0.132
 8061TIP3    H124147   2.900   0.371   0.184
 8061TIP3    H224148   2.899   0.220   0.195
 8062TIP3   OH224149   2.530   0.202   0.682
 8062TIP3    H124150   2.473   0.261   0.730
 8062TIP3    H224151   2.471   0.150   0.628
 8063TIP3   OH224152   5.328   3.033   5.454
 8063TIP3    H124153   5.388   3.090   5.502
 8063TIP3    H224154   5.354   3.044   5.362
 8064TIP3   OH224155   7.221   6.740   0.784
 8064TIP3    H124156   7.230   6.825   0.827
 8064TIP3    H224157   7.130   6.716   0.796
 8065TIP3   OH224158   5.075   3.705   5.719
 8065TIP3    H124159   5.158   3.754   5.723
 8065TIP3    H224160   5.016   3.763   5.672
 8066TIP3   OH224161   2.321   0.364   0.766
 8066TIP3    H124162   2.293   0.370   0.675
 8066TIP3    H224163   2.240   0.346   0.814
 8067TIP3   OH224164   5.840   2.265   5.504
 8067TIP3    H124165   5.765   2.287   5.558
 8067TIP3    H224166   5.856   2.343   5.452
 8068TIP3   OH224167   4.598   3.005   5.828
 8068TIP3    H124168   4.524   3.054   5.792
 8068TIP3    H224169   4.560   2.922   5.858
 8069TIP3   OH224170   5.657   3.636   5.060
 8069TIP3    H124171   5.656   3.730   5.042
 8069TIP3    H224172   5.747   3.609   5.041
 8070TIP3   OH224173   6.842   6.888   0.713
 8070TIP3    H124174   6.773   6.868   0.649
 8070TIP3    H224175   6.878   6.803   0.737
 8071TIP3   OH224176   1.765   0.099   0.351
 8071TIP3    H124177   1.861   0.102   0.348
 8071TIP3    H224178   1.740   0.176   0.402
 8072TIP3   OH224179   3.606   0.511   0.384
 8072TIP3    H124180   3.601   0.416   0.379
 8072TIP3    H224181   3.518   0.539   0.408
 8073TIP3   OH224182   2.716   0.336   0.532
 8073TIP3    H124183   2.715   0.426   0.565
 8073TIP3    H224184   2.650   0.291   0.585
 8074TIP3   OH224185   4.965   3.939   5.537
 8074TIP3    H124186   4.918   3.919   5.456
 8074TIP3    H224187   4.929   4.023   5.566
 8075TIP3   OH224188   4.399   3.790   5.918
 8075TIP3    H124189   4.442   3.781   6.003
 8075TIP3    H224190   4.349   3.709   5.908
 8076TIP3   OH224191   5.167   3.860   5.167
 8076TIP3    H124192   5.218   3.788   5.131
 8076TIP3    H224193   5.200   3.873   5.255
 8077TIP3   OH224194   5.218   3.906   5.437
 8077TIP3    H124195   5.132   3.911   5.478
 8077TIP3    H224196   5.276   3.872   5.505
 8078TIP3   OH224197   1.045   6.652   0.687
 8078TIP3    H124198   0.963   6.677   0.646
 8078TIP3    H224199   1.055   6.559   0.666
 8079TIP3   OH224200   2.112   0.094   0.688
 8079TIP3    H124201   2.162   0.083   0.768
 8079TIP3    H224202   2.040   0.032   0.695
 8080TIP3   OH224203   7.432   5.890   0.492
 8080TIP3    H124204   7.347   5.857   0.462
 8080TIP3    H224205   7.412   5.969   0.541
 8081TIP3   OH224206   0.576   6.007   0.694
 8081TIP3    H124207   0.648   5.986   0.754
 8081TIP3    H224208   0.497   5.987   0.744
 8082TIP3   OH224209   0.795   6.433   0.605
 8082TIP3    H124210   0.750   6.429   0.689
 8082TIP3    H224211   0.779   6.523   0.574
 8083TIP3   OH224212   5.404   3.032   5.190
 8083TIP3    H124213   5.366   3.029   5.102
 8083TIP3    H224214   5.486   3.080   5.179
 8084TIP3   OH224215   5.114   2.440   5.506
 8084TIP3    H124216   5.086   2.442   5.597
 8084TIP3    H224217   5.073   2.361   5.470
 8085TIP3   OH224218   7.370   6.417   0.507
 8085TIP3    H124219   7.323   6.427   0.589
 8085TIP3    H224220   7.349   6.497   0.457
 8086TIP3   OH224221   7.253   6.296   0.022
 8086TIP3    H124222   7.164   6.274   0.049
 8086TIP3    H224223   7.263   6.258  -0.065
 8087TIP3   OH224224   5.269   2.880   5.791
 8087TIP3    H124225   5.222   2.953   5.752
 8087TIP3    H224226   5.329   2.851   5.723
 8088TIP3   OH224227   0.524   6.645   0.826
 8088TIP3    H124228   0.494   6.578   0.889
 8088TIP3    H224229   0.616   6.658   0.847
 8089TIP3   OH224230   5.434   2.901   6.022
 8089TIP3    H124231   5.366   2.927   5.960
 8089TIP3    H224232   5.478   2.827   5.980
 8090TIP3   OH224233   7.200   6.427   0.724
 8090TIP3    H124234   7.226   6.486   0.794
 8090TIP3    H224235   7.182   6.344   0.768
 8091TIP3   OH224236   4.779   2.419   5.479
 8091TIP3    H124237   4.771   2.421   5.574
 8091TIP3    H224238   4.703   2.468   5.447
 8092TIP3   OH224239   6.793   5.951   0.300
 8092TIP3    H124240   6.862   5.988   0.355
 8092TIP3    H224241   6.836   5.930   0.218
 8093TIP3   OH224242   4.255   2.444   5.853
 8093TIP3    H124243   4.299   2.479   5.775
 8093TIP3    H224244   4.194   2.512   5.879
 8094TIP3   OH224245   0.528   6.641   0.406
 8094TIP3    H124246   0.556   6.574   0.343
 8094TIP3    H224247   0.490   6.592   0.478
 8095TIP3   OH224248   0.204   6.092   0.075
 8095TIP3    H124249   0.127   6.096   0.131
 8095TIP3    H224250   0.278   6.086   0.136
 8096TIP3   OH224251   7.016   6.174   0.085
 8096TIP3    H124252   6.926   6.178   0.053
 8096TIP3    H224253   7.041   6.082   0.071
 8097TIP3   OH224254   4.806   2.676   5.823
 8097TIP3    H124255   4.899   2.695   5.811
 8097TIP3    H224256   4.766   2.700   5.739
 8098TIP3   OH224257   0.674   6.177   0.276
 8098TIP3    H124258   0.656   6.192   0.369
 8098TIP3    H224259   0.606   6.117   0.247
 8099TIP3   OH224260   4.683   2.706   5.581
 8099TIP3    H124261   4.612   2.663   5.532
 8099TIP3    H224262   4.733   2.752   5.514
 8100TIP3   OH224263   3.322   0.858   0.488
 8100TIP3    H124264   3.306   0.883   0.397
 8100TIP3    H224265   3.406   0.898   0.510
 8101TIP3   OH224266   2.273   0.016   0.917
 8101TIP3    H124267   2.354   0.034   0.966
 8101TIP3    H224268   2.205   0.013   0.984
 8102TIP3   OH224269   0.267   6.451   0.186
 8102TIP3    H124270   0.338   6.404   0.143
 8102TIP3    H224271   0.264   6.414   0.274
 8103TIP3   OH224272   7.164   5.925   0.076
 8103TIP3    H124273   7.132   5.851   0.127
 8103TIP3    H224274   7.200   5.886  -0.004
 8104TIP3   OH224275   0.239   6.362   0.455
 8104TIP3    H124276   0.151   6.393   0.477
 8104TIP3    H224277   0.297   6.414   0.510
 8105TIP3   OH224278   4.907   3.231   5.605
 8105TIP3    H124279   4.833   3.174   5.584
 8105TIP3    H224280   4.884   3.269   5.690
 8106TIP3   OH224281   0.868   6.965   0.172
 8106TIP3    H124282   0.902   7.014   0.097
 8106TIP3    H224283   0.786   6.926   0.141
 8107TIP3   OH224284   5.369   2.545   5.489
 8107TIP3    H124285   5.274   2.529   5.492
 8107TIP3    H224286   5.378   2.638   5.507
 8108TIP3   OH224287   2.844   0.071   0.573
 8108TIP3    H124288   2.889   0.058   0.657
 8108TIP3    H224289   2.803   0.157   0.582
 8109TIP3   OH224290   5.435   2.801   5.574
 8109TIP3    H124291   5.529   2.808   5.587
 8109TIP3    H224292   5.412   2.881   5.525
 8110TIP3   OH224293   7.069   6.735   0.228
 8110TIP3    H124294   7.107   6.716   0.143
 8110TIP3    H224295   7.129   6.696   0.291
 8111TIP3   OH224296   5.057   3.391   5.442
 8111TIP3    H124297   5.011   3.474   5.441
 8111TIP3    H224298   5.003   3.333   5.496
 8112TIP3   OH224299   6.957   6.672   0.849
 8112TIP3    H124300   6.975   6.663   0.942
 8112TIP3    H224301   6.887   6.608   0.831
 8113TIP3   OH224302   0.282   6.789   0.865
 8113TIP3    H124303   0.216   6.727   0.834
 8113TIP3    H224304   0.366   6.752   0.836
 8114TIP3   OH224305   2.979   0.339   0.429
 8114TIP3    H124306   2.885   0.326   0.439
 8114TIP3    H224307   3.008   0.377   0.512
 8115TIP3   OH224308   5.853   2.896   5.403
 8115TIP3    H124309   5.798   2.848   5.342
 8115TIP3    H224310   5.857   2.985   5.368
 8116TIP3   OH224311   3.626   0.230   0.438
 8116TIP3    H124312   3.532   0.226   0.425
 8116TIP3    H224313   3.663   0.209   0.352
 8117TIP3   OH224314   5.585   3.712   5.326
 8117TIP3    H124315   5.558   3.645   5.387
 8117TIP3    H224316   5.600   3.665   5.244
 8118TIP3   OH224317   0.632   6.835   0.077
 8118TIP3    H124318   0.542   6.812   0.099
 8118TIP3    H224319   0.669   6.755   0.039
 8119TIP3   OH224320   4.713   3.578   5.917
 8119TIP3    H124321   4.712   3.656   5.861
 8119TIP3    H224322   4.621   3.562   5.938
 8120TIP3   OH224323   4.280   2.869   5.632
 8120TIP3    H124324   4.323   2.953   5.650
 8120TIP3    H224325   4.200   2.871   5.684
 8121TIP3   OH224326   4.819   3.335   5.838
 8121TIP3    H124327   4.795   3.425   5.862
 8121TIP3    H224328   4.790   3.282   5.913
 8122TIP3   OH224329   2.528   0.418   0.334
 8122TIP3    H124330   2.566   0.489   0.283
 8122TIP3    H224331   2.601   0.382   0.385
 8123TIP3   OH224332   4.630   3.807   5.767
 8123TIP3    H124333   4.544   3.813   5.808
 8123TIP3    H224334   4.664   3.897   5.770
 8124TIP3   OH224335   2.890   0.067   0.302
 8124TIP3    H124336   2.877   0.064   0.397
 8124TIP3    H224337   2.967   0.013   0.286
 8125TIP3   OH224338   5.343   3.446   5.224
 8125TIP3    H124339   5.397   3.421   5.300
 8125TIP3    H224340   5.256   3.412   5.245
 8126TIP3   OH224341   3.131   0.571   0.336
 8126TIP3    H124342   3.054   0.513   0.336
 8126TIP3    H224343   3.112   0.635   0.267
 8127TIP3   OH224344   5.665   3.911   5.028
 8127TIP3    H124345   5.693   3.977   4.964
 8127TIP3    H224346   5.591   3.952   5.074
 8128TIP3   OH224347   7.157   6.174   0.847
 8128TIP3    H124348   7.062   6.182   0.857
 8128TIP3    H224349   7.187   6.135   0.930
 8129TIP3   OH224350   5.514   3.364   5.422
 8129TIP3    H124351   5.501   3.305   5.496
 8129TIP3    H224352   5.609   3.372   5.414
 8130TIP3   OH224353   1.957   0.293   0.497
 8130TIP3    H124354   2.007   0.224   0.540
 8130TIP3    H224355   1.975   0.371   0.549
 8131TIP3   OH224356   4.703   3.415   5.226
 8131TIP3    H124357   4.712   3.323   5.200
 8131TIP3    H224358   4.683   3.411   5.320
 8132TIP3   OH224359   4.642   3.428   5.497
 8132TIP3    H124360   4.711   3.400   5.558
 8132TIP3    H224361   4.641   3.524   5.504
 8133TIP3   OH224362   4.377   3.121   5.707
 8133TIP3    H124363   4.310   3.164   5.761
 8133TIP3    H224364   4.393   3.181   5.635
 8134TIP3   OH224365   0.616   6.228   0.535
 8134TIP3    H124366   0.685   6.281   0.576
 8134TIP3    H224367   0.602   6.156   0.597
 8135TIP3   OH224368   5.427   2.497   5.765
 8135TIP3    H124369   5.410   2.520   5.673
 8135TIP3    H224370   5.471   2.574   5.801
 8136TIP3   OH224371   4.914   3.620   5.442
 8136TIP3    H124372   4.828   3.642   5.478
 8136TIP3    H224373   4.935   3.693   5.384
 8137TIP3   OH224374   5.084   2.685   5.855
 8137TIP3    H124375   5.146   2.754   5.832
 8137TIP3    H224376   5.100   2.669   5.948
 8138TIP3   OH224377   0.444   6.479   0.612
 8138TIP3    H124378   0.466   6.532   0.688
 8138TIP3    H224379   0.493   6.398   0.623
 8139TIP3   OH224380   5.251   2.397   5.957
 8139TIP3    H124381   5.232   2.473   6.012
 8139TIP3    H224382   5.319   2.428   5.897
 8140TIP3   OH224383   4.660   3.700   5.515
 8140TIP3    H124384   4.637   3.770   5.454
 8140TIP3    H224385   4.647   3.740   5.602
 8141TIP3   OH224386   4.764   2.407   5.757
 8141TIP3    H124387   4.745   2.496   5.788
 8141TIP3    H224388   4.858   2.397   5.769
 8142TIP3   OH224389   1.059   6.386   0.593
 8142TIP3    H124390   0.964   6.390   0.604
 8142TIP3    H224391   1.071   6.340   0.510
 8143TIP3   OH224392   0.726   6.580  -0.016
 8143TIP3    H124393   0.649   6.524  -0.003
 8143TIP3    H224394   0.794   6.539   0.036
 8144TIP3   OH224395   4.389   3.305   5.496
 8144TIP3    H124396   4.458   3.371   5.504
 8144TIP3    H224397   4.424   3.243   5.432
 8145TIP3   OH224398   4.306   2.592   5.625
 8145TIP3    H124399   4.320   2.686   5.635
 8145TIP3    H224400   4.223   2.585   5.578
 8146TIP3   OH224401   5.633   4.057   5.963
 8146TIP3    H124402   5.589   4.108   5.895
 8146TIP3    H224403   5.726   4.067   5.943
 8147TIP3   OH224404   7.173   5.802   0.454
 8147TIP3    H124405   7.142   5.768   0.370
 8147TIP3    H224406   7.165   5.728   0.514
 8148TIP3   OH224407   4.231   3.559   5.885
 8148TIP3    H124408   4.178   3.589   5.959
 8148TIP3    H224409   4.192   3.600   5.809
 8149TIP3   OH224410   1.954   0.613   0.918
 8149TIP3    H124411   2.035   0.619   0.970
 8149TIP3    H224412   1.937   0.519   0.912
 8150TIP3   OH224413   2.420   0.539   0.954
 8150TIP3    H124414   2.510   0.510   0.970
 8150TIP3    H224415   2.388   0.483   0.884
 8151TIP3   OH224416   4.859   3.616   5.122
 8151TIP3    H124417   4.812   3.545   5.164
 8151TIP3    H224418   4.934   3.574   5.079
 8152TIP3   OH224419   3.032   0.431   0.674
 8152TIP3    H124420   3.040   0.364   0.741
 8152TIP3    H224421   3.108   0.488   0.687
 8153TIP3   OH224422   5.300   3.653   5.046
 8153TIP3    H124423   5.333   3.588   5.108
 8153TIP3    H224424   5.358   3.646   4.970
 8154TIP3   OH224425   7.000   6.982   1.107
 8154TIP3    H124426   7.020   6.889   1.113
 8154TIP3    H224427   6.914   6.985   1.065
 8155TIP3   OH224428   4.523   3.114   5.353
 8155TIP3    H124429   4.576   3.092   5.430
 8155TIP3    H224430   4.587   3.127   5.283
 8156TIP3   OH224431   2.682   0.085   0.882
 8156TIP3    H124432   2.636   0.105   0.800
 8156TIP3    H224433   2.713  -0.005   0.871
 8157TIP3   OH224434   5.064   3.333   5.173
 8157TIP3    H124435   5.049   3.348   5.266
 8157TIP3    H224436   5.051   3.239   5.161
 8158TIP3   OH224437   3.155   0.125   0.501
 8158TIP3    H124438   3.232   0.155   0.453
 8158TIP3    H224439   3.086   0.186   0.473
 8159TIP3   OH224440   7.121   6.724   1.098
 8159TIP3    H124441   7.162   6.638   1.090
 8159TIP3    H224442   7.155   6.760   1.180
 8160TIP3   OH224443   4.702   3.047   5.562
 8160TIP3    H124444   4.678   3.018   5.650
 8160TIP3    H224445   4.744   2.971   5.521
 8161TIP3   OH224446   0.065   6.607   0.761
 8161TIP3    H124447  -0.015   6.657   0.767
 8161TIP3    H224448   0.106   6.636   0.679
 8162TIP3   OH224449   4.827   2.851   5.398
 8162TIP3    H124450   4.799   2.859   5.307
 8162TIP3    H224451   4.923   2.861   5.395
 8163TIP3   OH224452   0.571   6.977   0.862
 8163TIP3    H124453   0.646   6.937   0.817
 8163TIP3    H224454   0.561   6.926   0.942
 8164TIP3   OH224455   5.630   3.156   5.085
 8164TIP3    H124456   5.618   3.114   5.000
 8164TIP3    H224457   5.603   3.247   5.071
 8165TIP3   OH224458   0.184   6.385   0.872
 8165TIP3    H124459   0.182   6.311   0.811
 8165TIP3    H224460   0.141   6.456   0.824
 8166TIP3   OH224461   0.185   6.180   0.675
 8166TIP3    H124462   0.211   6.221   0.593
 8166TIP3    H224463   0.093   6.156   0.663
 8167TIP3   OH224464   0.202   6.709   0.549
 8167TIP3    H124465   0.290   6.741   0.531
 8167TIP3    H224466   0.144   6.771   0.506
 8168TIP3   OH224467   0.785   6.671   0.935
 8168TIP3    H124468   0.814   6.610   1.003
 8168TIP3    H224469   0.863   6.719   0.911
 8169TIP3   OH224470   0.820   6.928   0.660
 8169TIP3    H124471   0.763   6.989   0.614
 8169TIP3    H224472   0.906   6.941   0.619
 8170TIP3   OH224473   0.078   6.489   1.117
 8170TIP3    H124474  -0.005   6.450   1.142
 8170TIP3    H224475   0.096   6.454   1.029
 8171TIP3   OH224476   0.306   5.945   0.763
 8171TIP3    H124477   0.264   6.025   0.733
 8171TIP3    H224478   0.239   5.877   0.752
 8172TIP3   OH224479   0.435   6.434   0.975
 8172TIP3    H124480   0.416   6.427   1.069
 8172TIP3    H224481   0.352   6.413   0.932
 8173TIP3   OH224482   0.666   6.371   0.832
 8173TIP3    H124483   0.594   6.380   0.894
 8173TIP3    H224484   0.742   6.348   0.885
 8174TIP3   OH224485   0.906   6.319   0.971
 8174TIP3    H124486   0.922   6.232   1.005
 8174TIP3    H224487   0.891   6.373   1.048
 8175TIP3   OH224488   7.298   6.262   1.143
 8175TIP3    H124489   7.301   6.171   1.116
 8175TIP3    H224490   7.346   6.265   1.225
 8176TIP3   OH224491   0.386   5.942   1.023
 8176TIP3    H124492   0.453   5.874   1.014
 8176TIP3    H224493   0.348   5.949   0.935
 8177TIP3   OH224494   0.479   6.157   1.165
 8177TIP3    H124495   0.445   6.089   1.107
 8177TIP3    H224496   0.409   6.223   1.168
 8178TIP3   OH224497   4.649   3.906   5.329
 8178TIP3    H124498   4.740   3.890   5.304
 8178TIP3    H224499   4.611   3.953   5.255
 8179TIP3   OH224500   4.116   3.284   5.522
 8179TIP3    H124501   4.210   3.300   5.514
 8179TIP3    H224502   4.103   3.199   5.481
 8180TIP3   OH224503   4.027   3.884   5.969
 8180TIP3    H124504   3.964   3.829   5.923
 8180TIP3    H224505   4.073   3.825   6.029
 8181TIP3   OH224506   1.700   0.234   0.102
 8181TIP3    H124507   1.689   0.164   0.167
 8181TIP3    H224508   1.751   0.301   0.147
 8182TIP3   OH224509   5.901   4.113   5.929
 8182TIP3    H124510   5.901   4.147   6.018
 8182TIP3    H224511   5.963   4.170   5.882
 8183TIP3   OH224512   3.411   0.650   0.162
 8183TIP3    H124513   3.382   0.559   0.174
 8183TIP3    H224514   3.504   0.648   0.183
 8184TIP3   OH224515   3.478   0.337   0.746
 8184TIP3    H124516   3.396   0.342   0.796
 8184TIP3    H224517   3.486   0.422   0.703
 8185TIP3   OH224518   5.793   3.361   5.412
 8185TIP3    H124519   5.853   3.429   5.382
 8185TIP3    H224520   5.836   3.323   5.490
 8186TIP3   OH224521   5.917   3.223   5.617
 8186TIP3    H124522   5.852   3.182   5.674
 8186TIP3    H224523   5.985   3.254   5.677
 8187TIP3   OH224524   5.970   3.614   6.041
 8187TIP3    H124525   6.024   3.546   6.000
 8187TIP3    H224526   5.971   3.686   5.978
 8188TIP3   OH224527   3.302   0.401   0.197
 8188TIP3    H124528   3.233   0.447   0.245
 8188TIP3    H224529   3.258   0.361   0.123
 8189TIP3   OH224530   5.838   3.134   5.263
 8189TIP3    H124531   5.766   3.133   5.199
 8189TIP3    H224532   5.822   3.212   5.316
 8190TIP3   OH224533   5.696   2.791   5.205
 8190TIP3    H124534   5.651   2.829   5.130
 8190TIP3    H224535   5.686   2.697   5.194
 8191TIP3   OH224536   5.721   3.080   5.757
 8191TIP3    H124537   5.730   2.985   5.746
 8191TIP3    H224538   5.705   3.092   5.850
 8192TIP3   OH224539   6.812   6.637   0.474
 8192TIP3    H124540   6.803   6.601   0.386
 8192TIP3    H224541   6.906   6.633   0.492
 8193TIP3   OH224542   1.069   6.963   0.547
 8193TIP3    H124543   1.139   6.898   0.537
 8193TIP3    H224544   1.100   7.039   0.497
 8194TIP3   OH224545   1.259   6.771   0.564
 8194TIP3    H124546   1.189   6.728   0.613
 8194TIP3    H224547   1.338   6.720   0.584
 8195TIP3   OH224548   5.657   2.520   5.178
 8195TIP3    H124549   5.728   2.496   5.237
 8195TIP3    H224550   5.582   2.470   5.209
 8196TIP3   OH224551   5.718   2.801   5.639
 8196TIP3    H124552   5.761   2.717   5.652
 8196TIP3    H224553   5.766   2.841   5.566
 8197TIP3   OH224554   0.939   6.453   0.116
 8197TIP3    H124555   1.021   6.471   0.070
 8197TIP3    H224556   0.950   6.491   0.203
 8198TIP3   OH224557   1.010   6.604   0.345
 8198TIP3    H124558   0.936   6.636   0.396
 8198TIP3    H224559   1.043   6.681   0.299
 8199TIP3   OH224560   7.035   6.321   1.103
 8199TIP3    H124561   7.129   6.324   1.121
 8199TIP3    H224562   7.004   6.243   1.149
 8200TIP3   OH224563   5.822   2.551   5.693
 8200TIP3    H124564   5.875   2.535   5.771
 8200TIP3    H224565   5.765   2.474   5.687
 8201TIP3   OH224566   7.003   6.022   0.464
 8201TIP3    H124567   7.059   5.946   0.476
 8201TIP3    H224568   7.064   6.096   0.457
 8202TIP3   OH224569   6.802   6.288   0.538
 8202TIP3    H124570   6.852   6.290   0.456
 8202TIP3    H224571   6.828   6.369   0.583
 8203TIP3   OH224572   1.295   6.328   0.713
 8203TIP3    H124573   1.210   6.360   0.683
 8203TIP3    H224574   1.305   6.243   0.670
 8204TIP3   OH224575   5.887   2.470   5.324
 8204TIP3    H124576   5.934   2.407   5.270
 8204TIP3    H224577   5.948   2.544   5.334
 8205TIP3   OH224578   6.776   5.787   0.036
 8205TIP3    H124579   6.690   5.782   0.079
 8205TIP3    H224580   6.762   5.847  -0.038
 8206TIP3   OH224581   5.469   4.021   5.593
 8206TIP3    H124582   5.525   4.010   5.516
 8206TIP3    H224583   5.513   4.090   5.644
 8207TIP3   OH224584   7.007   5.856   0.817
 8207TIP3    H124585   6.965   5.860   0.903
 8207TIP3    H224586   6.950   5.907   0.760
 8208TIP3   OH224587   2.097   0.332   0.930
 8208TIP3    H124588   2.004   0.311   0.923
 8208TIP3    H224589   2.119   0.314   1.021
 8209TIP3   OH224590   2.299   0.373   0.482
 8209TIP3    H124591   2.247   0.446   0.449
 8209TIP3    H224592   2.384   0.383   0.440
 8210TIP3   OH224593   2.709   0.597   0.624
 8210TIP3    H124594   2.754   0.585   0.707
 8210TIP3    H224595   2.770   0.648   0.570
 8211TIP3   OH224596   2.884   0.735   0.466
 8211TIP3    H124597   2.940   0.676   0.418
 8211TIP3    H224598   2.943   0.798   0.507
 8212TIP3   OH224599   1.223   6.089   0.581
 8212TIP3    H124600   1.133   6.097   0.549
 8212TIP3    H224601   1.246   5.998   0.564
 8213TIP3   OH224602   1.963   0.633   0.516
 8213TIP3    H124603   1.871   0.650   0.498
 8213TIP3    H224604   1.985   0.691   0.588
 8214TIP3   OH224605   2.195   0.604   0.371
 8214TIP3    H124606   2.111   0.614   0.417
 8214TIP3    H224607   2.176   0.630   0.281
 8215TIP3   OH224608   2.615   0.622   0.165
 8215TIP3    H124609   2.545   0.633   0.101
 8215TIP3    H224610   2.624   0.708   0.206
 8216TIP3   OH224611   2.878   0.558   0.213
 8216TIP3    H124612   2.786   0.576   0.195
 8216TIP3    H224613   2.925   0.627   0.165
 8217TIP3   OH224614   3.076   0.739   0.118
 8217TIP3    H124615   3.067   0.823   0.073
 8217TIP3    H224616   3.110   0.680   0.052
 8218TIP3   OH224617   1.878   0.406   0.253
 8218TIP3    H124618   1.902   0.376   0.341
 8218TIP3    H224619   1.947   0.371   0.196
 8219TIP3   OH224620   2.076   0.284   0.111
 8219TIP3    H124621   2.087   0.201   0.156
 8219TIP3    H224622   2.163   0.324   0.112
 8220TIP3   OH224623   2.345   0.370   0.127
 8220TIP3    H124624   2.365   0.277   0.114
 8220TIP3    H224625   2.396   0.395   0.204
 8221TIP3   OH224626   0.437   5.997   0.202
 8221TIP3    H124627   0.400   5.927   0.255
 8221TIP3    H224628   0.509   5.955   0.155
 8222TIP3   OH224629   0.952   5.906   0.086
 8222TIP3    H124630   0.991   5.957   0.015
 8222TIP3    H224631   0.864   5.942   0.096
 8223TIP3   OH224632   6.003   2.505   5.896
 8223TIP3    H124633   6.070   2.442   5.869
 8223TIP3    H224634   6.044   2.591   5.882
 8224TIP3   OH224635   7.086   5.698   0.213
 8224TIP3    H124636   6.996   5.667   0.222
 8224TIP3    H224637   7.138   5.618   0.208
 8225TIP3   OH224638   4.426   2.107   5.907
 8225TIP3    H124639   4.451   2.162   5.832
 8225TIP3    H224640   4.390   2.168   5.971
 8226TIP3   OH224641   0.151   5.742   0.100
 8226TIP3    H124642   0.202   5.797   0.041
 8226TIP3    H224643   0.182   5.766   0.188
 8227TIP3   OH224644   0.657   5.880   0.082
 8227TIP3    H124645   0.684   5.842  -0.001
 8227TIP3    H224646   0.660   5.806   0.144
 8228TIP3   OH224647   5.641   2.334   5.682
 8228TIP3    H124648   5.565   2.385   5.710
 8228TIP3    H224649   5.628   2.248   5.722
 8229TIP3   OH224650   4.116   3.683   5.670
 8229TIP3    H124651   4.031   3.650   5.640
 8229TIP3    H224652   4.117   3.774   5.641
 8230TIP3   OH224653   4.540   2.250   5.672
 8230TIP3    H124654   4.586   2.189   5.615
 8230TIP3    H224655   4.610   2.305   5.709
 8231TIP3   OH224656   5.042   2.423   5.777
 8231TIP3    H124657   5.110   2.391   5.837
 8231TIP3    H224658   5.041   2.517   5.789
 8232TIP3   OH224659   4.909   3.842   5.266
 8232TIP3    H124660   4.993   3.870   5.230
 8232TIP3    H224661   4.881   3.771   5.209
 8233TIP3   OH224662   5.620   3.980   5.363
 8233TIP3    H124663   5.613   3.885   5.355
 8233TIP3    H224664   5.575   4.014   5.285
 8234TIP3   OH224665   7.312   5.988   1.077
 8234TIP3    H124666   7.274   5.922   1.134
 8234TIP3    H224667   7.403   5.995   1.106
 8235TIP3   OH224668   0.164   5.981   1.204
 8235TIP3    H124669   0.241   5.959   1.151
 8235TIP3    H224670   0.158   5.909   1.267
 8236TIP3   OH224671   4.208   3.680   5.322
 8236TIP3    H124672   4.210   3.695   5.417
 8236TIP3    H224673   4.291   3.636   5.303
 8237TIP3   OH224674   0.985   6.056   1.036
 8237TIP3    H124675   1.031   6.043   1.119
 8237TIP3    H224676   1.053   6.043   0.969
 8238TIP3   OH224677   3.364   0.592   0.477
 8238TIP3    H124678   3.283   0.568   0.433
 8238TIP3    H224679   3.358   0.686   0.489
 8239TIP3   OH224680   7.086   3.513   5.322
 8239TIP3    H124681   7.056   3.597   5.287
 8239TIP3    H224682   7.016   3.452   5.299
 8240TIP3   OH224683   7.073   3.504   5.718
 8240TIP3    H124684   7.128   3.489   5.796
 8240TIP3    H224685   7.048   3.416   5.690
 8241TIP3   OH224686   1.475   6.863   0.023
 8241TIP3    H124687   1.507   6.808   0.095
 8241TIP3    H224688   1.554   6.891  -0.023
 8242TIP3   OH224689   7.371   3.776   5.371
 8242TIP3    H124690   7.340   3.718   5.440
 8242TIP3    H224691   7.381   3.861   5.414
 8243TIP3   OH224692   6.395   3.786   5.762
 8243TIP3    H124693   6.383   3.691   5.762
 8243TIP3    H224694   6.489   3.799   5.758
 8244TIP3   OH224695   6.081   3.009   5.530
 8244TIP3    H124696   6.040   3.091   5.557
 8244TIP3    H224697   6.009   2.957   5.495
 8245TIP3   OH224698   6.153   3.289   5.751
 8245TIP3    H124699   6.201   3.212   5.783
 8245TIP3    H224700   6.219   3.341   5.705
 8246TIP3   OH224701   7.017   4.254   5.401
 8246TIP3    H124702   7.045   4.173   5.358
 8246TIP3    H224703   6.989   4.227   5.488
 8247TIP3   OH224704   6.905   3.727   5.729
 8247TIP3    H124705   6.941   3.641   5.704
 8247TIP3    H224706   6.982   3.778   5.756
 8248TIP3   OH224707   7.313   3.214   5.803
 8248TIP3    H124708   7.342   3.123   5.795
 8248TIP3    H224709   7.269   3.233   5.721
 8249TIP3   OH224710   7.301   2.937   5.382
 8249TIP3    H124711   7.359   2.955   5.455
 8249TIP3    H224712   7.329   2.998   5.313
 8250TIP3   OH224713   6.294   3.078   5.859
 8250TIP3    H124714   6.387   3.077   5.883
 8250TIP3    H224715   6.287   3.011   5.791
 8251TIP3   OH224716   1.707   6.367   0.121
 8251TIP3    H124717   1.666   6.401   0.041
 8251TIP3    H224718   1.645   6.386   0.191
 8252TIP3   OH224719   6.993   3.720   5.164
 8252TIP3    H124720   6.956   3.695   5.080
 8252TIP3    H224721   6.943   3.797   5.191
 8253TIP3   OH224722   6.757   3.639   5.945
 8253TIP3    H124723   6.696   3.705   5.977
 8253TIP3    H224724   6.803   3.682   5.873
 8254TIP3   OH224725   0.091   2.978   5.573
 8254TIP3    H124726   0.055   2.964   5.660
 8254TIP3    H224727   0.151   3.052   5.583
 8255TIP3   OH224728   6.555   2.982   5.912
 8255TIP3    H124729   6.611   3.053   5.945
 8255TIP3    H224730   6.580   2.972   5.820
 8256TIP3   OH224731   4.121   0.349  -0.000
 8256TIP3    H124732   4.106   0.438  -0.031
 8256TIP3    H224733   4.045   0.329   0.054
 8257TIP3   OH224734   5.972   3.543   5.295
 8257TIP3    H124735   5.936   3.562   5.209
 8257TIP3    H224736   5.999   3.628   5.329
 8258TIP3   OH224737   7.376   4.026   5.501
 8258TIP3    H124738   7.298   4.027   5.556
 8258TIP3    H224739   7.383   4.116   5.468
 8259TIP3   OH224740   6.993   2.602   5.875
 8259TIP3    H124741   7.035   2.550   5.943
 8259TIP3    H224742   6.916   2.639   5.918
 8260TIP3   OH224743   7.121   4.087   5.196
 8260TIP3    H124744   7.167   4.005   5.184
 8260TIP3    H224745   7.186   4.155   5.178
 8261TIP3   OH224746   7.265   3.868   5.132
 8261TIP3    H124747   7.222   3.793   5.093
 8261TIP3    H224748   7.308   3.834   5.211
 8262TIP3   OH224749   0.232   3.949   5.917
 8262TIP3    H124750   0.260   3.867   5.876
 8262TIP3    H224751   0.251   4.016   5.851
 8263TIP3   OH224752   6.924   3.352   5.152
 8263TIP3    H124753   6.844   3.400   5.133
 8263TIP3    H224754   6.970   3.348   5.068
 8264TIP3   OH224755   6.890   3.145   4.847
 8264TIP3    H124756   6.954   3.198   4.894
 8264TIP3    H224757   6.942   3.076   4.805
 8265TIP3   OH224758   0.521   3.646   5.657
 8265TIP3    H124759   0.466   3.631   5.734
 8265TIP3    H224760   0.462   3.633   5.582
 8266TIP3   OH224761   7.243   3.451   5.110
 8266TIP3    H124762   7.195   3.473   5.191
 8266TIP3    H224763   7.324   3.412   5.141
 8267TIP3   OH224764   0.085   3.501   5.995
 8267TIP3    H124765   0.083   3.553   6.075
 8267TIP3    H224766  -0.007   3.490   5.970
 8268TIP3   OH224767   6.540   3.387   5.521
 8268TIP3    H124768   6.494   3.342   5.450
 8268TIP3    H224769   6.600   3.320   5.556
 8269TIP3   OH224770   6.658   3.845   5.659
 8269TIP3    H124771   6.632   3.817   5.571
 8269TIP3    H224772   6.742   3.803   5.674
 8270TIP3   OH224773   6.637   3.396   5.881
 8270TIP3    H124774   6.675   3.352   5.806
 8270TIP3    H224775   6.690   3.474   5.893
 8271TIP3   OH224776   7.173   4.053   5.680
 8271TIP3    H124777   7.174   4.121   5.747
 8271TIP3    H224778   7.162   3.971   5.729
 8272TIP3   OH224779   4.329   0.442   0.157
 8272TIP3    H124780   4.268   0.500   0.202
 8272TIP3    H224781   4.274   0.386   0.102
 8273TIP3   OH224782   7.101   3.300   4.939
 8273TIP3    H124783   7.153   3.359   4.993
 8273TIP3    H224784   7.121   3.325   4.849
 8274TIP3   OH224785   4.093   0.018   0.276
 8274TIP3    H124786   4.094   0.106   0.313
 8274TIP3    H224787   4.000  -0.006   0.274
 8275TIP3   OH224788   6.871   3.968   5.207
 8275TIP3    H124789   6.954   4.016   5.210
 8275TIP3    H224790   6.813   4.024   5.155
 8276TIP3   OH224791   4.130   0.609   0.235
 8276TIP3    H124792   4.104   0.621   0.144
 8276TIP3    H224793   4.047   0.603   0.283
 8277TIP3   OH224794   6.394   3.263   5.312
 8277TIP3    H124795   6.314   3.302   5.278
 8277TIP3    H224796   6.369   3.174   5.336
 8278TIP3   OH224797   0.015   3.883   4.511
 8278TIP3    H124798  -0.004   3.976   4.521
 8278TIP3    H224799   0.058   3.876   4.425
 8279TIP3   OH224800   3.708   0.165   0.190
 8279TIP3    H124801   3.640   0.145   0.125
 8279TIP3    H224802   3.747   0.080   0.210
 8280TIP3   OH224803   6.024   3.842   5.880
 8280TIP3    H124804   6.119   3.850   5.881
 8280TIP3    H224805   5.992   3.923   5.920
 8281TIP3   OH224806   4.522   0.593   0.037
 8281TIP3    H124807   4.501   0.680   0.072
 8281TIP3    H224808   4.455   0.536   0.075
 8282TIP3   OH224809   6.763   4.206   5.016
 8282TIP3    H124810   6.711   4.177   4.942
 8282TIP3    H224811   6.719   4.286   5.047
 8283TIP3   OH224812   6.194   4.047   5.403
 8283TIP3    H124813   6.238   4.037   5.488
 8283TIP3    H224814   6.144   3.965   5.393
 8284TIP3   OH224815   6.963   4.125   4.664
 8284TIP3    H124816   7.010   4.051   4.625
 8284TIP3    H224817   7.000   4.132   4.753
 8285TIP3   OH224818   7.020   4.167   4.935
 8285TIP3    H124819   6.930   4.174   4.967
 8285TIP3    H224820   7.063   4.107   4.996
 8286TIP3   OH224821   3.904   0.354   0.173
 8286TIP3    H124822   3.959   0.333   0.248
 8286TIP3    H224823   3.833   0.290   0.176
 8287TIP3   OH224824   6.770   2.669   6.039
 8287TIP3    H124825   6.693   2.633   5.996
 8287TIP3    H224826   6.739   2.749   6.082
 8288TIP3   OH224827   7.163   3.363   4.686
 8288TIP3    H124828   7.115   3.330   4.610
 8288TIP3    H224829   7.252   3.377   4.654
 8289TIP3   OH224830   6.912   2.694   5.002
 8289TIP3    H124831   6.880   2.704   5.092
 8289TIP3    H224832   6.869   2.615   4.970
 8290TIP3   OH224833   1.761   6.670  -0.001
 8290TIP3    H124834   1.711   6.685   0.079
 8290TIP3    H224835   1.742   6.745  -0.057
 8291TIP3   OH224836   7.046   3.136   5.271
 8291TIP3    H124837   6.997   3.212   5.241
 8291TIP3    H224838   7.083   3.098   5.191
 8292TIP3   OH224839   7.223   3.180   5.492
 8292TIP3    H124840   7.147   3.207   5.440
 8292TIP3    H224841   7.222   3.084   5.489
 8293TIP3   OH224842   1.597   6.699   0.218
 8293TIP3    H124843   1.630   6.755   0.289
 8293TIP3    H224844   1.577   6.615   0.260
 8294TIP3   OH224845   6.574   2.683   4.957
 8294TIP3    H124846   6.570   2.676   5.053
 8294TIP3    H224847   6.497   2.734   4.933
 8295TIP3   OH224848   6.142   2.729   5.840
 8295TIP3    H124849   6.200   2.756   5.911
 8295TIP3    H224850   6.179   2.772   5.762
 8296TIP3   OH224851   6.049   2.700   5.345
 8296TIP3    H124852   6.096   2.735   5.270
 8296TIP3    H224853   5.990   2.771   5.371
 8297TIP3   OH224854   7.221   3.426   5.943
 8297TIP3    H124855   7.258   3.360   5.885
 8297TIP3    H224856   7.198   3.377   6.023
 8298TIP3   OH224857   6.290   2.887   5.667
 8298TIP3    H124858   6.236   2.924   5.597
 8298TIP3    H224859   6.355   2.834   5.622
 8299TIP3   OH224860   6.591   2.900   5.296
 8299TIP3    H124861   6.661   2.956   5.330
 8299TIP3    H224862   6.549   2.953   5.229
 8300TIP3   OH224863   7.346   2.941   5.803
 8300TIP3    H124864   7.320   2.958   5.893
 8300TIP3    H224865   7.273   2.891   5.766
 8301TIP3   OH224866   6.449   2.990   5.070
 8301TIP3    H124867   6.391   2.933   5.020
 8301TIP3    H224868   6.511   3.024   5.006
 8302TIP3   OH224869   4.062   0.273   0.392
 8302TIP3    H124870   4.144   0.306   0.428
 8302TIP3    H224871   4.003   0.267   0.467
 8303TIP3   OH224872   7.009   3.229   5.728
 8303TIP3    H124873   6.925   3.210   5.687
 8303TIP3    H224874   7.014   3.169   5.802
 8304TIP3   OH224875   6.472   2.707   5.576
 8304TIP3    H124876   6.465   2.623   5.623
 8304TIP3    H224877   6.554   2.700   5.528
 8305TIP3   OH224878   6.961   3.119   6.000
 8305TIP3    H124879   6.871   3.152   5.997
 8305TIP3    H224880   7.012   3.192   6.034
 8306TIP3   OH224881   6.692   3.498   5.089
 8306TIP3    H124882   6.623   3.434   5.070
 8306TIP3    H224883   6.673   3.527   5.178
 8307TIP3   OH224884   0.159   3.747   5.695
 8307TIP3    H124885   0.179   3.784   5.609
 8307TIP3    H224886   0.070   3.713   5.686
 8308TIP3   OH224887   7.163   2.791   4.981
 8308TIP3    H124888   7.070   2.768   4.980
 8308TIP3    H224889   7.164   2.887   4.984
 8309TIP3   OH224890   4.626   0.311   0.048
 8309TIP3    H124891   4.646   0.264   0.128
 8309TIP3    H224892   4.601   0.399   0.077
 8310TIP3   OH224893   7.188   3.057   5.037
 8310TIP3    H124894   7.271   3.073   5.083
 8310TIP3    H224895   7.168   3.140   4.994
 8311TIP3   OH224896   6.415   3.504   5.739
 8311TIP3    H124897   6.452   3.473   5.657
 8311TIP3    H224898   6.471   3.465   5.807
 8312TIP3   OH224899   6.850   3.650   4.929
 8312TIP3    H124900   6.805   3.734   4.929
 8312TIP3    H224901   6.795   3.593   4.982
 8313TIP3   OH224902   1.354   6.929   0.332
 8313TIP3    H124903   1.386   6.917   0.421
 8313TIP3    H224904   1.285   6.863   0.323
 8314TIP3   OH224905   4.524   0.082   0.355
 8314TIP3    H124906   4.475   0.008   0.321
 8314TIP3    H224907   4.615   0.063   0.333
 8315TIP3   OH224908   7.251   4.069   5.986
 8315TIP3    H124909   7.158   4.065   6.008
 8315TIP3    H224910   7.281   4.152   6.023
 8316TIP3   OH224911   7.319   3.947   4.818
 8316TIP3    H124912   7.311   3.891   4.895
 8316TIP3    H224913   7.319   3.887   4.744
 8317TIP3   OH224914   7.308   3.643   5.626
 8317TIP3    H124915   7.214   3.628   5.638
 8317TIP3    H224916   7.344   3.556   5.609
 8318TIP3   OH224917   6.510   3.828   5.410
 8318TIP3    H124918   6.509   3.905   5.353
 8318TIP3    H224919   6.417   3.810   5.428
 8319TIP3   OH224920   6.068   3.125   5.109
 8319TIP3    H124921   6.115   3.205   5.131
 8319TIP3    H224922   5.992   3.125   5.166
 8320TIP3   OH224923   6.619   3.581   5.334
 8320TIP3    H124924   6.590   3.667   5.367
 8320TIP3    H224925   6.601   3.521   5.407
 8321TIP3   OH224926   6.795   4.158   5.859
 8321TIP3    H124927   6.834   4.216   5.793
 8321TIP3    H224928   6.868   4.107   5.892
 8322TIP3   OH224929   6.424   4.064   5.254
 8322TIP3    H124930   6.339   4.065   5.297
 8322TIP3    H224931   6.452   4.156   5.255
 8323TIP3   OH224932   7.152   3.815   5.822
 8323TIP3    H124933   7.138   3.804   5.916
 8323TIP3    H224934   7.231   3.764   5.803
 8324TIP3   OH224935   7.116   3.707   4.714
 8324TIP3    H124936   7.158   3.687   4.797
 8324TIP3    H224937   7.034   3.657   4.715
 8325TIP3   OH224938   7.390   4.147   4.533
 8325TIP3    H124939   7.416   4.185   4.449
 8325TIP3    H224940   7.331   4.212   4.572
 8326TIP3   OH224941   1.541   6.448   0.331
 8326TIP3    H124942   1.446   6.451   0.332
 8326TIP3    H224943   1.566   6.428   0.421
 8327TIP3   OH224944   7.269   3.660   4.935
 8327TIP3    H124945   7.257   3.586   4.995
 8327TIP3    H224946   7.364   3.666   4.924
 8328TIP3   OH224947   3.748   0.538  -0.022
 8328TIP3    H124948   3.809   0.479   0.023
 8328TIP3    H224949   3.718   0.598   0.046
 8329TIP3   OH224950   6.493   3.670   4.714
 8329TIP3    H124951   6.503   3.579   4.686
 8329TIP3    H224952   6.475   3.665   4.808
 8330TIP3   OH224953   6.439   3.684   4.986
 8330TIP3    H124954   6.509   3.651   5.042
 8330TIP3    H224955   6.443   3.779   4.996
 8331TIP3   OH224956   6.167   3.372   5.192
 8331TIP3    H124957   6.103   3.418   5.246
 8331TIP3    H224958   6.188   3.434   5.122
 8332TIP3   OH224959   2.374   6.497   0.040
 8332TIP3    H124960   2.465   6.524   0.052
 8332TIP3    H224961   2.366   6.416   0.090
 8333TIP3   OH224962   7.184   2.733   5.249
 8333TIP3    H124963   7.167   2.756   5.157
 8333TIP3    H224964   7.209   2.816   5.289
 8334TIP3   OH224965   6.714   3.884   4.932
 8334TIP3    H124966   6.627   3.902   4.968
 8334TIP3    H224967   6.727   3.952   4.865
 8335TIP3   OH224968   6.855   2.971   5.393
 8335TIP3    H124969   6.926   3.026   5.360
 8335TIP3    H224970   6.825   3.015   5.472
 8336TIP3   OH224971   2.234   6.737   0.101
 8336TIP3    H124972   2.246   6.740   0.196
 8336TIP3    H224973   2.275   6.655   0.074
 8337TIP3   OH224974   7.037   2.654   5.462
 8337TIP3    H124975   7.059   2.717   5.531
 8337TIP3    H224976   7.092   2.680   5.388
 8338TIP3   OH224977   6.459   3.959   5.003
 8338TIP3    H124978   6.434   4.028   4.942
 8338TIP3    H224979   6.444   3.995   5.090
 8339TIP3   OH224980   6.564   2.640   5.229
 8339TIP3    H124981   6.554   2.730   5.261
 8339TIP3    H224982   6.657   2.621   5.243
 8340TIP3   OH224983   7.374   3.389   5.576
 8340TIP3    H124984   7.322   3.317   5.542
 8340TIP3    H224985   7.459   3.379   5.533
 8341TIP3   OH224986   6.187   3.561   4.983
 8341TIP3    H124987   6.258   3.625   4.993
 8341TIP3    H224988   6.221   3.497   4.920
 8342TIP3   OH224989   6.106   2.847   5.119
 8342TIP3    H124990   6.124   2.941   5.126
 8342TIP3    H224991   6.033   2.842   5.056
 8343TIP3   OH224992   0.050   4.309   5.459
 8343TIP3    H124993   0.035   4.357   5.378
 8343TIP3    H224994   0.141   4.279   5.452
 8344TIP3   OH224995   6.508   2.573   5.981
 8344TIP3    H124996   6.478   2.553   5.893
 8344TIP3    H224997   6.494   2.492   6.030
 8345TIP3   OH224998   6.029   3.816   5.373
 8345TIP3    H124999   5.978   3.847   5.448
 8345TIP3    H225000   5.988   3.857   5.297
 8346TIP3   OH225001   3.760   0.805   0.455
 8346TIP3    H125002   3.847   0.796   0.494
 8346TIP3    H225003   3.731   0.716   0.438
 8347TIP3   OH225004   4.241   0.726   0.464
 8347TIP3    H125005   4.274   0.808   0.427
 8347TIP3    H225006   4.204   0.679   0.389
 8348TIP3   OH225007   6.656   3.868   4.611
 8348TIP3    H125008   6.604   3.798   4.653
 8348TIP3    H225009   6.729   3.822   4.570
 8349TIP3   OH225010   7.083   3.916   4.543
 8349TIP3    H125011   7.110   3.845   4.602
 8349TIP3    H225012   7.137   3.904   4.464
 8350TIP3   OH225013   3.867   0.225   0.586
 8350TIP3    H125014   3.886   0.132   0.574
 8350TIP3    H225015   3.778   0.236   0.552
 8351TIP3   OH225016   6.317   3.370   4.839
 8351TIP3    H125017   6.369   3.345   4.916
 8351TIP3    H225018   6.382   3.381   4.769
 8352TIP3   OH225019   4.513   0.352   0.340
 8352TIP3    H125020   4.450   0.373   0.271
 8352TIP3    H225021   4.515   0.257   0.343
 8353TIP3   OH225022   6.861   3.589   4.661
 8353TIP3    H125023   6.844   3.601   4.754
 8353TIP3    H225024   6.850   3.495   4.647
 8354TIP3   OH225025   0.003   3.837   6.010
 8354TIP3    H125026   0.082   3.876   5.974
 8354TIP3    H225027  -0.064   3.904   5.999
 8355TIP3   OH225028   1.520   6.953   0.565
 8355TIP3    H125029   1.589   6.895   0.533
 8355TIP3    H225030   1.551   6.980   0.651
 8356TIP3   OH225031   6.495   3.308   5.048
 8356TIP3    H125032   6.472   3.277   5.135
 8356TIP3    H225033   6.538   3.233   5.006
 8357TIP3   OH225034   1.874   6.868   0.252
 8357TIP3    H125035   1.790   6.916   0.255
 8357TIP3    H225036   1.911   6.892   0.168
 8358TIP3   OH225037   6.619   3.111   4.892
 8358TIP3    H125038   6.593   3.115   4.800
 8358TIP3    H225039   6.715   3.116   4.890
 8359TIP3   OH225040   4.799   0.117   0.311
 8359TIP3    H125041   4.879   0.128   0.260
 8359TIP3    H225042   4.806   0.183   0.380
 8360TIP3   OH225043   7.398   3.413   4.554
 8360TIP3    H125044   7.371   3.381   4.468
 8360TIP3    H225045   7.374   3.506   4.553
 8361TIP3   OH225046   1.947   6.639   0.382
 8361TIP3    H125047   1.948   6.573   0.312
 8361TIP3    H225048   1.925   6.721   0.337
 8362TIP3   OH225049   1.961   6.457   0.176
 8362TIP3    H125050   1.988   6.505   0.097
 8362TIP3    H225051   1.871   6.431   0.159
 8363TIP3   OH225052   4.468  -0.018   0.029
 8363TIP3    H125053   4.552  -0.008  -0.015
 8363TIP3    H225054   4.411   0.047  -0.013
 8364TIP3   OH225055   5.030   0.190   0.167
 8364TIP3    H125056   4.993   0.250   0.103
 8364TIP3    H225057   5.124   0.202   0.161
 8365TIP3   OH225058   1.729   6.766   0.538
 8365TIP3    H125059   1.728   6.771   0.634
 8365TIP3    H225060   1.822   6.767   0.515
 8366TIP3   OH225061   2.104   6.223   0.151
 8366TIP3    H125062   2.094   6.317   0.167
 8366TIP3    H225063   2.021   6.197   0.111
 8367TIP3   OH225064   1.707   6.494   0.613
 8367TIP3    H125065   1.735   6.562   0.552
 8367TIP3    H225066   1.718   6.533   0.700
 8368TIP3   OH225067   6.448   4.171   4.820
 8368TIP3    H125068   6.536   4.149   4.790
 8368TIP3    H225069   6.407   4.216   4.746
 8369TIP3   OH225070   5.914   3.543   5.007
 8369TIP3    H125071   6.009   3.559   5.001
 8369TIP3    H225072   5.902   3.456   4.970
 8370TIP3   OH225073   5.823   4.139   5.456
 8370TIP3    H125074   5.759   4.084   5.411
 8370TIP3    H225075   5.868   4.080   5.516
 8371TIP3   OH225076   5.963   3.975   5.629
 8371TIP3    H125077   5.950   3.906   5.693
 8371TIP3    H225078   6.014   4.042   5.675
 8372TIP3   OH225079   0.148   3.696   4.875
 8372TIP3    H125080   0.230   3.721   4.918
 8372TIP3    H225081   0.133   3.606   4.901
 8373TIP3   OH225082   0.228   3.582   5.175
 8373TIP3    H125083   0.174   3.507   5.151
 8373TIP3    H225084   0.170   3.637   5.228
 8374TIP3   OH225085   0.254   3.863   5.465
 8374TIP3    H125086   0.328   3.825   5.419
 8374TIP3    H225087   0.206   3.912   5.398
 8375TIP3   OH225088   0.176   4.100   5.678
 8375TIP3    H125089   0.115   4.141   5.739
 8375TIP3    H225090   0.120   4.051   5.617
 8376TIP3   OH225091   0.194   3.358   4.726
 8376TIP3    H125092   0.125   3.375   4.663
 8376TIP3    H225093   0.244   3.439   4.730
 8377TIP3   OH225094   7.335   3.090   4.700
 8377TIP3    H125095   7.422   3.125   4.681
 8377TIP3    H225096   7.345   2.995   4.693
 8378TIP3   OH225097   0.051   3.325   5.227
 8378TIP3    H125098   0.035   3.234   5.253
 8378TIP3    H225099   0.094   3.364   5.304
 8379TIP3   OH225100   6.145   3.402   6.003
 8379TIP3    H125101   6.136   3.366   5.914
 8379TIP3    H225102   6.239   3.401   6.020
 8380TIP3   OH225103   7.384   2.815   4.710
 8380TIP3    H125104   7.435   2.747   4.755
 8380TIP3    H225105   7.303   2.770   4.683
 8381TIP3   OH225106   0.029   3.056   5.170
 8381TIP3    H125107   0.065   2.968   5.165
 8381TIP3    H225108   0.093   3.111   5.126
 8382TIP3   OH225109   0.226   3.204   5.639
 8382TIP3    H125110   0.301   3.248   5.599
 8382TIP3    H225111   0.202   3.260   5.713
 8383TIP3   OH225112   0.257   3.333   5.873
 8383TIP3    H125113   0.180   3.379   5.906
 8383TIP3    H225114   0.326   3.355   5.935
 8384TIP3   OH225115   1.423   6.551   0.607
 8384TIP3    H125116   1.517   6.554   0.623
 8384TIP3    H225117   1.392   6.477   0.660
 8385TIP3   OH225118   0.143   2.810   5.165
 8385TIP3    H125119   0.152   2.794   5.259
 8385TIP3    H225120   0.100   2.731   5.131
 8386TIP3   OH225121   6.340   2.798   6.022
 8386TIP3    H125122   6.398   2.722   6.019
 8386TIP3    H225123   6.389   2.868   5.980
 8387TIP3   OH225124   1.184   6.547   0.031
 8387TIP3    H125125   1.240   6.543  -0.047
 8387TIP3    H225126   1.205   6.631   0.072
 8388TIP3   OH225127   6.097   2.525   5.552
 8388TIP3    H125128   6.022   2.541   5.608
 8388TIP3    H225129   6.098   2.599   5.491
 8389TIP3   OH225130   7.301   4.276   5.104
 8389TIP3    H125131   7.284   4.263   5.011
 8389TIP3    H225132   7.391   4.247   5.117
 8390TIP3   OH225133   1.369   6.123   0.342
 8390TIP3    H125134   1.324   6.122   0.427
 8390TIP3    H225135   1.315   6.179   0.287
 8391TIP3   OH225136   3.907   0.574   0.392
 8391TIP3    H125137   3.845   0.504   0.377
 8391TIP3    H225138   3.960   0.545   0.466
 8392TIP3   OH225139   6.563   4.111   6.000
 8392TIP3    H125140   6.506   4.178   5.963
 8392TIP3    H225141   6.648   4.125   5.958
 8393TIP3   OH225142   6.223   4.395   5.992
 8393TIP3    H125143   6.127   4.402   5.990
 8393TIP3    H225144   6.244   4.392   6.086
 8394TIP3   OH225145   6.458   4.334   5.875
 8394TIP3    H125146   6.376   4.351   5.920
 8394TIP3    H225147   6.443   4.364   5.786
 8395TIP3   OH225148   6.880   4.327   5.651
 8395TIP3    H125149   6.801   4.329   5.597
 8395TIP3    H225150   6.893   4.417   5.679
 8396TIP3   OH225151   7.135   4.322   5.779
 8396TIP3    H125152   7.057   4.313   5.724
 8396TIP3    H225153   7.193   4.380   5.729
 8397TIP3   OH225154   7.311   4.479   5.629
 8397TIP3    H125155   7.383   4.533   5.662
 8397TIP3    H225156   7.353   4.413   5.575
 8398TIP3   OH225157   6.144   4.146   5.777
 8398TIP3    H125158   6.167   4.121   5.866
 8398TIP3    H225159   6.213   4.108   5.722
 8399TIP3   OH225160   6.340   4.023   5.635
 8399TIP3    H125161   6.350   3.939   5.680
 8399TIP3    H225162   6.427   4.063   5.637
 8400TIP3   OH225163   6.606   4.118   5.648
 8400TIP3    H125164   6.627   4.026   5.635
 8400TIP3    H225165   6.649   4.141   5.731
 8401TIP3   OH225166   7.143   2.775   5.704
 8401TIP3    H125167   7.094   2.720   5.765
 8401TIP3    H225168   7.214   2.719   5.673
 8402TIP3   OH225169   0.314   2.667   5.591
 8402TIP3    H125170   0.366   2.722   5.649
 8402TIP3    H225171   0.275   2.728   5.528
 8403TIP3   OH225172   6.421   2.476   5.737
 8403TIP3    H125173   6.327   2.454   5.738
 8403TIP3    H225174   6.465   2.392   5.724
 8404TIP3   OH225175   6.217   2.347   5.377
 8404TIP3    H125176   6.251   2.404   5.308
 8404TIP3    H225177   6.180   2.408   5.441
 8405TIP3   OH225178   6.882   2.505   5.637
 8405TIP3    H125179   6.922   2.558   5.568
 8405TIP3    H225180   6.918   2.540   5.718
 8406TIP3   OH225181   7.348   2.630   5.606
 8406TIP3    H125182   7.429   2.654   5.560
 8406TIP3    H225183   7.362   2.540   5.635
 8407TIP3   OH225184   7.396   2.575   5.186
 8407TIP3    H125185   7.314   2.618   5.210
 8407TIP3    H225186   7.390   2.488   5.225
 8408TIP3   OH225187   5.912   3.938   5.159
 8408TIP3    H125188   5.827   3.904   5.131
 8408TIP3    H225189   5.912   4.029   5.128
 8409TIP3   OH225190   6.335   2.496   5.157
 8409TIP3    H125191   6.379   2.439   5.095
 8409TIP3    H225192   6.405   2.550   5.194
 8410TIP3   OH225193   6.839   2.709   5.270
 8410TIP3    H125194   6.899   2.676   5.336
 8410TIP3    H225195   6.821   2.799   5.297
 8411TIP3   OH225196   6.703   4.098   4.748
 8411TIP3    H125197   6.788   4.124   4.715
 8411TIP3    H225198   6.676   4.025   4.692
 8412TIP3   OH225199   7.363   4.214   4.844
 8412TIP3    H125200   7.356   4.120   4.833
 8412TIP3    H225201   7.330   4.251   4.762
 8413TIP3   OH225202   6.008   3.938   4.809
 8413TIP3    H125203   6.008   3.948   4.904
 8413TIP3    H225204   6.090   3.893   4.790
 8414TIP3   OH225205   0.471   3.846   4.729
 8414TIP3    H125206   0.379   3.872   4.739
 8414TIP3    H225207   0.503   3.837   4.818
 8415TIP3   OH225208   0.316   4.215   5.466
 8415TIP3    H125209   0.391   4.164   5.437
 8415TIP3    H225210   0.285   4.171   5.545
 8416TIP3   OH225211   0.503   4.149   4.978
 8416TIP3    H125212   0.411   4.172   4.962
 8416TIP3    H225213   0.540   4.138   4.890
 8417TIP3   OH225214   0.129   4.399   4.961
 8417TIP3    H125215   0.085   4.327   4.916
 8417TIP3    H225216   0.189   4.356   5.022
 8418TIP3   OH225217   0.284   4.283   5.146
 8418TIP3    H125218   0.296   4.207   5.204
 8418TIP3    H225219   0.371   4.322   5.140
 8419TIP3   OH225220   0.251   4.181   4.712
 8419TIP3    H125221   0.215   4.092   4.710
 8419TIP3    H225222   0.189   4.234   4.662
 8420TIP3   OH225223   6.288   1.059   0.448
 8420TIP3    H125224   6.255   1.146   0.423
 8420TIP3    H225225   6.218   0.999   0.422
 8421TIP3   OH225226   6.314   1.036   0.822
 8421TIP3    H125227   6.353   1.025   0.909
 8421TIP3    H225228   6.265   0.954   0.808
 8422TIP3   OH225229   6.543   1.336   0.516
 8422TIP3    H125230   6.533   1.271   0.585
 8422TIP3    H225231   6.581   1.412   0.560
 8423TIP3   OH225232   6.180   1.803   0.461
 8423TIP3    H125233   6.225   1.726   0.424
 8423TIP3    H225234   6.181   1.788   0.555
 8424TIP3   OH225235   6.093   1.198   0.831
 8424TIP3    H125236   6.168   1.144   0.806
 8424TIP3    H225237   6.130   1.266   0.887
 8425TIP3   OH225238   7.120   0.609   0.841
 8425TIP3    H125239   7.144   0.690   0.884
 8425TIP3    H225240   7.164   0.612   0.756
 8426TIP3   OH225241   6.484   0.759   0.906
 8426TIP3    H125242   6.531   0.681   0.934
 8426TIP3    H225243   6.467   0.745   0.813
 8427TIP3   OH225244   5.885   0.416   0.847
 8427TIP3    H125245   5.850   0.501   0.821
 8427TIP3    H225246   5.819   0.352   0.819
 8428TIP3   OH225247   6.558   0.527   0.489
 8428TIP3    H125248   6.622   0.513   0.559
 8428TIP3    H225249   6.610   0.558   0.415
 8429TIP3   OH225250   5.925   0.828   0.778
 8429TIP3    H125251   6.019   0.809   0.781
 8429TIP3    H225252   5.885   0.745   0.749
 8430TIP3   OH225253   7.182   0.807   1.039
 8430TIP3    H125254   7.101   0.855   1.022
 8430TIP3    H225255   7.215   0.845   1.120
 8431TIP3   OH225256   6.157   1.263   0.312
 8431TIP3    H125257   6.120   1.247   0.225
 8431TIP3    H225258   6.115   1.344   0.342
 8432TIP3   OH225259   5.860   1.171   0.974
 8432TIP3    H125260   5.819   1.256   0.983
 8432TIP3    H225261   5.937   1.187   0.918
 8433TIP3   OH225262   6.740   0.534   0.694
 8433TIP3    H125263   6.802   0.469   0.724
 8433TIP3    H225264   6.781   0.618   0.714
 8434TIP3   OH225265   6.635   1.565   0.643
 8434TIP3    H125266   6.561   1.604   0.690
 8434TIP3    H225267   6.660   1.631   0.579
 8435TIP3   OH225268   6.903   0.548   1.005
 8435TIP3    H125269   6.821   0.567   0.960
 8435TIP3    H225270   6.970   0.563   0.938
 8436TIP3   OH225271   6.299   1.616   0.307
 8436TIP3    H125272   6.349   1.534   0.300
 8436TIP3    H225273   6.358   1.683   0.272
 8437TIP3   OH225274   6.459   1.405   0.264
 8437TIP3    H125275   6.461   1.328   0.208
 8437TIP3    H225276   6.490   1.374   0.349
 8438TIP3   OH225277   6.843   1.490   1.009
 8438TIP3    H125278   6.827   1.414   0.953
 8438TIP3    H225279   6.832   1.565   0.951
 8439TIP3   OH225280   6.129   0.889   0.286
 8439TIP3    H125281   6.046   0.933   0.271
 8439TIP3    H225282   6.177   0.898   0.204
 8440TIP3   OH225283   7.023   1.156   0.863
 8440TIP3    H125284   6.938   1.200   0.870
 8440TIP3    H225285   7.052   1.175   0.774
 8441TIP3   OH225286   6.469   0.990   0.257
 8441TIP3    H125287   6.418   1.016   0.334
 8441TIP3    H225288   6.551   0.957   0.292
 8442TIP3   OH225289   6.732   1.037   1.127
 8442TIP3    H125290   6.725   1.107   1.191
 8442TIP3    H225291   6.647   1.037   1.082
 8443TIP3   OH225292   5.759   0.971   0.605
 8443TIP3    H125293   5.718   0.904   0.549
 8443TIP3    H225294   5.823   0.922   0.657
 8444TIP3   OH225295   5.791   1.386   0.703
 8444TIP3    H125296   5.779   1.292   0.685
 8444TIP3    H225297   5.857   1.389   0.772
 8445TIP3   OH225298   5.824   0.908   1.029
 8445TIP3    H125299   5.866   0.876   0.949
 8445TIP3    H225300   5.843   1.002   1.030
 8446TIP3   OH225301   6.296   1.554   0.834
 8446TIP3    H125302   6.367   1.616   0.817
 8446TIP3    H225303   6.341   1.472   0.854
 8447TIP3   OH225304   6.299   0.906   0.063
 8447TIP3    H125305   6.360   0.937   0.129
 8447TIP3    H225306   6.320   0.813   0.052
 8448TIP3   OH225307   6.041   1.517   0.335
 8448TIP3    H125308   6.129   1.554   0.334
 8448TIP3    H225309   5.983   1.592   0.327
 8449TIP3   OH225310   6.825   0.082   0.126
 8449TIP3    H125311   6.744   0.103   0.172
 8449TIP3    H225312   6.842   0.157   0.070
 8450TIP3   OH225313   5.600   0.814   0.429
 8450TIP3    H125314   5.525   0.866   0.400
 8450TIP3    H225315   5.562   0.733   0.463
 8451TIP3   OH225316   1.705   4.930   5.727
 8451TIP3    H125317   1.704   5.023   5.704
 8451TIP3    H225318   1.795   4.902   5.710
 8452TIP3   OH225319   7.082   1.833   1.070
 8452TIP3    H125320   7.081   1.741   1.098
 8452TIP3    H225321   7.006   1.872   1.113
 8453TIP3   OH225322   6.086   1.611   1.191
 8453TIP3    H125323   6.173   1.629   1.226
 8453TIP3    H225324   6.033   1.592   1.268
 8454TIP3   OH225325   5.934   1.774   0.101
 8454TIP3    H125326   5.888   1.740   0.024
 8454TIP3    H225327   5.894   1.859   0.118
 8455TIP3   OH225328   1.209   5.155   5.827
 8455TIP3    H125329   1.265   5.087   5.790
 8455TIP3    H225330   1.239   5.164   5.917
 8456TIP3   OH225331   6.191   1.716   0.047
 8456TIP3    H125332   6.103   1.717   0.084
 8456TIP3    H225333   6.245   1.677   0.116
 8457TIP3   OH225334   6.972   0.979   1.300
 8457TIP3    H125335   6.882   1.006   1.280
 8457TIP3    H225336   6.971   0.884   1.290
 8458TIP3   OH225337   1.426   4.414   5.818
 8458TIP3    H125338   1.394   4.364   5.743
 8458TIP3    H225339   1.521   4.400   5.817
 8459TIP3   OH225340   6.086   0.255   0.115
 8459TIP3    H125341   6.048   0.251   0.202
 8459TIP3    H225342   6.070   0.169   0.077
 8460TIP3   OH225343   5.775   0.616   0.687
 8460TIP3    H125344   5.684   0.597   0.708
 8460TIP3    H225345   5.788   0.576   0.600
 8461TIP3   OH225346   6.268   0.687   0.400
 8461TIP3    H125347   6.214   0.759   0.369
 8461TIP3    H225348   6.326   0.667   0.326
 8462TIP3   OH225349   6.417   0.715   0.638
 8462TIP3    H125350   6.358   0.740   0.566
 8462TIP3    H225351   6.465   0.639   0.605
 8463TIP3   OH225352   5.762   0.245   0.101
 8463TIP3    H125353   5.748   0.237   0.196
 8463TIP3    H225354   5.680   0.281   0.067
 8464TIP3   OH225355   6.466   0.987   1.051
 8464TIP3    H125356   6.480   0.906   1.002
 8464TIP3    H225357   6.453   0.958   1.142
 8465TIP3   OH225358   6.132   0.429   0.730
 8465TIP3    H125359   6.052   0.435   0.783
 8465TIP3    H225360   6.202   0.418   0.793
 8466TIP3   OH225361   5.536   0.482   0.711
 8466TIP3    H125362   5.446   0.452   0.716
 8466TIP3    H225363   5.589   0.402   0.708
 8467TIP3   OH225364   5.786   0.488   0.443
 8467TIP3    H125365   5.879   0.505   0.426
 8467TIP3    H225366   5.742   0.514   0.361
 8468TIP3   OH225367   6.591   0.516   0.965
 8468TIP3    H125368   6.554   0.462   1.035
 8468TIP3    H225369   6.583   0.462   0.886
 8469TIP3   OH225370   5.646   0.523   0.210
 8469TIP3    H125371   5.585   0.470   0.159
 8469TIP3    H225372   5.701   0.565   0.144
 8470TIP3   OH225373   6.198   0.774   0.812
 8470TIP3    H125374   6.262   0.742   0.749
 8470TIP3    H225375   6.231   0.742   0.897
 8471TIP3   OH225376   5.703   0.258   0.698
 8471TIP3    H125377   5.683   0.165   0.712
 8471TIP3    H225378   5.739   0.261   0.609
 8472TIP3   OH225379   5.913   1.026   0.196
 8472TIP3    H125380   5.833   0.975   0.180
 8472TIP3    H225381   5.893   1.075   0.276
 8473TIP3   OH225382   6.782   1.290   0.832
 8473TIP3    H125383   6.816   1.341   0.759
 8473TIP3    H225384   6.702   1.250   0.798
 8474TIP3   OH225385   6.336   0.360   0.126
 8474TIP3    H125386   6.249   0.322   0.113
 8474TIP3    H225387   6.331   0.446   0.085
 8475TIP3   OH225388   6.442   0.650   0.157
 8475TIP3    H125389   6.522   0.641   0.210
 8475TIP3    H225390   6.470   0.630   0.068
 8476TIP3   OH225391   5.613   0.975   0.835
 8476TIP3    H125392   5.652   0.988   0.749
 8476TIP3    H225393   5.688   0.979   0.896
 8477TIP3   OH225394   6.057   1.168   0.018
 8477TIP3    H125395   6.009   1.251   0.016
 8477TIP3    H225396   6.004   1.111   0.074
 8478TIP3   OH225397   6.476   1.631   1.048
 8478TIP3    H125398   6.393   1.587   1.029
 8478TIP3    H225399   6.451   1.713   1.089
 8479TIP3   OH225400   1.907   4.197   6.066
 8479TIP3    H125401   1.833   4.149   6.029
 8479TIP3    H225402   1.921   4.270   6.005
 8480TIP3   OH225403   7.091   1.551   1.096
 8480TIP3    H125404   6.996   1.546   1.087
 8480TIP3    H225405   7.124   1.527   1.010
 8481TIP3   OH225406   1.619   5.005   5.983
 8481TIP3    H125407   1.627   4.936   6.049
 8481TIP3    H225408   1.645   4.963   5.901
 8482TIP3   OH225409   6.546   1.156   0.737
 8482TIP3    H125410   6.457   1.122   0.751
 8482TIP3    H225411   6.595   1.082   0.701
 8483TIP3   OH225412   5.679   1.376   0.445
 8483TIP3    H125413   5.750   1.431   0.477
 8483TIP3    H225414   5.616   1.373   0.517
 8484TIP3   OH225415   5.838   1.152   0.417
 8484TIP3    H125416   5.789   1.233   0.432
 8484TIP3    H225417   5.818   1.098   0.494
 8485TIP3   OH225418   5.926   1.709   0.990
 8485TIP3    H125419   5.971   1.790   0.965
 8485TIP3    H225420   5.980   1.672   1.059
 8486TIP3   OH225421   6.431   1.328   0.939
 8486TIP3    H125422   6.488   1.315   1.014
 8486TIP3    H225423   6.470   1.275   0.870
 8487TIP3   OH225424   1.366   4.695   5.937
 8487TIP3    H125425   1.439   4.718   5.994
 8487TIP3    H225426   1.293   4.748   5.968
 8488TIP3   OH225427   6.656   1.884   0.972
 8488TIP3    H125428   6.565   1.886   1.001
 8488TIP3    H225429   6.658   1.944   0.897
 8489TIP3   OH225430   1.715   5.206   5.688
 8489TIP3    H125431   1.752   5.271   5.628
 8489TIP3    H225432   1.640   5.250   5.728
 8490TIP3   OH225433   6.493   1.197   0.081
 8490TIP3    H125434   6.484   1.125   0.143
 8490TIP3    H225435   6.587   1.200   0.061
 8491TIP3   OH225436   0.757   4.706   5.875
 8491TIP3    H125437   0.766   4.616   5.845
 8491TIP3    H225438   0.751   4.699   5.971
 8492TIP3   OH225439   5.673   1.227   0.106
 8492TIP3    H125440   5.705   1.190   0.189
 8492TIP3    H225441   5.654   1.318   0.126
 8493TIP3   OH225442   6.405   0.318   0.386
 8493TIP3    H125443   6.381   0.337   0.296
 8493TIP3    H225444   6.451   0.396   0.416
 8494TIP3   OH225445   5.923   1.408   0.038
 8494TIP3    H125446   5.844   1.412   0.091
 8494TIP3    H225447   5.929   1.495  -0.002
 8495TIP3   OH225448   6.066   0.508   0.472
 8495TIP3    H125449   6.135   0.568   0.444
 8495TIP3    H225450   6.085   0.492   0.565
 8496TIP3   OH225451   6.224   0.225   0.564
 8496TIP3    H125452   6.204   0.302   0.617
 8496TIP3    H225453   6.292   0.254   0.503
 8497TIP3   OH225454   5.651   1.503   0.123
 8497TIP3    H125455   5.615   1.542   0.044
 8497TIP3    H225456   5.645   1.572   0.189
 8498TIP3   OH225457   5.737   0.222   0.385
 8498TIP3    H125458   5.733   0.316   0.402
 8498TIP3    H225459   5.831   0.203   0.381
 8499TIP3   OH225460   6.974   0.709   1.233
 8499TIP3    H125461   6.901   0.654   1.205
 8499TIP3    H225462   7.031   0.714   1.156
 8500TIP3   OH225463   6.640   0.906   0.649
 8500TIP3    H125464   6.564   0.848   0.657
 8500TIP3    H225465   6.710   0.861   0.696
 8501TIP3   OH225466   6.655   1.842   0.558
 8501TIP3    H125467   6.610   1.880   0.483
 8501TIP3    H225468   6.745   1.871   0.550
 8502TIP3   OH225469   0.928   4.896   5.771
 8502TIP3    H125470   0.876   4.830   5.817
 8502TIP3    H225471   1.006   4.849   5.742
 8503TIP3   OH225472   6.532   1.693   1.395
 8503TIP3    H125473   6.557   1.631   1.464
 8503TIP3    H225474   6.598   1.762   1.400
 8504TIP3   OH225475   1.351   4.965   5.693
 8504TIP3    H125476   1.404   4.891   5.722
 8504TIP3    H225477   1.384   4.985   5.605
 8505TIP3   OH225478   0.591   4.441   6.006
 8505TIP3    H125479   0.642   4.422   6.084
 8505TIP3    H225480   0.654   4.438   5.934
 8506TIP3   OH225481   6.619   1.428   1.149
 8506TIP3    H125482   6.710   1.436   1.120
 8506TIP3    H225483   6.576   1.506   1.115
 8507TIP3   OH225484   5.699   0.858   0.169
 8507TIP3    H125485   5.677   0.827   0.256
 8507TIP3    H225486   5.737   0.781   0.125
 8508TIP3   OH225487   0.878   4.133   6.071
 8508TIP3    H125488   0.855   4.158   5.981
 8508TIP3    H225489   0.955   4.077   6.061
 8509TIP3   OH225490   6.731   1.237   1.312
 8509TIP3    H125491   6.684   1.309   1.269
 8509TIP3    H225492   6.823   1.262   1.307
 8510TIP3   OH225493   0.691   5.219   5.986
 8510TIP3    H125494   0.772   5.176   5.957
 8510TIP3    H225495   0.646   5.240   5.904
 8511TIP3   OH225496   6.895   1.963   0.565
 8511TIP3    H125497   6.930   1.970   0.654
 8511TIP3    H225498   6.965   1.997   0.509
 8512TIP3   OH225499   6.962   1.919   0.834
 8512TIP3    H125500   6.905   1.843   0.825
 8512TIP3    H225501   7.023   1.894   0.904
 8513TIP3   OH225502   6.964   1.674   1.351
 8513TIP3    H125503   6.873   1.704   1.352
 8513TIP3    H225504   7.014   1.746   1.389
 8514TIP3   OH225505   6.760   1.198   0.050
 8514TIP3    H125506   6.828   1.244   0.002
 8514TIP3    H225507   6.807   1.134   0.103
 8515TIP3   OH225508   6.890   1.028   0.232
 8515TIP3    H125509   6.822   0.988   0.287
 8515TIP3    H225510   6.953   1.063   0.294
 8516TIP3   OH225511   6.948   1.427   0.660
 8516TIP3    H125512   7.003   1.360   0.619
 8516TIP3    H225513   6.952   1.501   0.599
 8517TIP3   OH225514   6.798   1.694   0.834
 8517TIP3    H125515   6.730   1.743   0.881
 8517TIP3    H225516   6.749   1.645   0.767
 8518TIP3   OH225517   1.698   4.105   5.916
 8518TIP3    H125518   1.738   4.165   5.853
 8518TIP3    H225519   1.695   4.021   5.870
 8519TIP3   OH225520   6.696   0.889   0.378
 8519TIP3    H125521   6.709   0.795   0.366
 8519TIP3    H225522   6.684   0.900   0.472
 8520TIP3   OH225523   6.987   1.321   1.244
 8520TIP3    H125524   7.060   1.260   1.237
 8520TIP3    H225525   7.015   1.398   1.194
 8521TIP3   OH225526   7.184   1.132   1.233
 8521TIP3    H125527   7.107   1.084   1.262
 8521TIP3    H225528   7.257   1.072   1.250
 8522TIP3   OH225529   1.707   3.830   5.841
 8522TIP3    H125530   1.778   3.806   5.901
 8522TIP3    H225531   1.634   3.775   5.867
 8523TIP3   OH225532   6.708   0.616   0.268
 8523TIP3    H125533   6.751   0.531   0.279
 8523TIP3    H225534   6.755   0.658   0.196
 8524TIP3   OH225535   6.854   0.775   0.769
 8524TIP3    H125536   6.935   0.791   0.720
 8524TIP3    H225537   6.870   0.814   0.855
 8525TIP3   OH225538   6.939   0.925   0.986
 8525TIP3    H125539   6.868   0.955   1.043
 8525TIP3    H225540   6.971   1.005   0.943
 8526TIP3   OH225541   6.817   0.366   0.315
 8526TIP3    H125542   6.860   0.343   0.397
 8526TIP3    H225543   6.754   0.295   0.299
 8527TIP3   OH225544   1.944   3.777   5.992
 8527TIP3    H125545   1.988   3.715   5.934
 8527TIP3    H225546   2.001   3.854   5.992
 8528TIP3   OH225547   6.432   1.811   0.180
 8528TIP3    H125548   6.495   1.801   0.108
 8528TIP3    H225549   6.475   1.870   0.241
 8529TIP3   OH225550   7.130   0.413   1.219
 8529TIP3    H125551   7.069   0.486   1.215
 8529TIP3    H225552   7.075   0.335   1.222
 8530TIP3   OH225553   6.037   1.934   0.895
 8530TIP3    H125554   6.017   1.968   0.808
 8530TIP3    H225555   6.021   2.007   0.955
 8531TIP3   OH225556   6.374   1.901   0.974
 8531TIP3    H125557   6.279   1.894   0.982
 8531TIP3    H225558   6.394   1.851   0.895
 8532TIP3   OH225559   6.661   2.044   0.757
 8532TIP3    H125560   6.617   2.121   0.721
 8532TIP3    H225561   6.665   1.983   0.684
 8533TIP3   OH225562   5.756   1.648   0.784
 8533TIP3    H125563   5.774   1.562   0.745
 8533TIP3    H225564   5.823   1.659   0.851
 8534TIP3   OH225565   6.356   0.334   0.862
 8534TIP3    H125566   6.355   0.260   0.923
 8534TIP3    H225567   6.424   0.312   0.799
 8535TIP3   OH225568   6.841   0.262   0.794
 8535TIP3    H125569   6.897   0.276   0.718
 8535TIP3    H225570   6.752   0.259   0.758
 8536TIP3   OH225571   6.962   0.300   0.548
 8536TIP3    H125572   7.029   0.245   0.506
 8536TIP3    H225573   6.995   0.389   0.538
 8537TIP3   OH225574   2.927   6.939   0.522
 8537TIP3    H125575   2.972   6.977   0.447
 8537TIP3    H225576   2.834   6.954   0.505
 8538TIP3   OH225577   6.038   0.134   0.752
 8538TIP3    H125578   6.104   0.149   0.685
 8538TIP3    H225579   6.033   0.216   0.801
 8539TIP3   OH225580   6.573   0.228   0.720
 8539TIP3    H125581   6.573   0.182   0.636
 8539TIP3    H225582   6.556   0.159   0.785
 8540TIP3   OH225583   6.626   0.167   0.298
 8540TIP3    H125584   6.543   0.213   0.310
 8540TIP3    H225585   6.611   0.081   0.337
 8541TIP3   OH225586   5.526   0.066   0.300
 8541TIP3    H125587   5.566   0.011   0.232
 8541TIP3    H225588   5.598   0.118   0.335
 8542TIP3   OH225589   6.008   0.253   0.384
 8542TIP3    H125590   6.072   0.203   0.435
 8542TIP3    H225591   6.028   0.345   0.405
 8543TIP3   OH225592   0.942   5.132   5.906
 8543TIP3    H125593   1.028   5.159   5.873
 8543TIP3    H225594   0.922   5.052   5.856
 8544TIP3   OH225595   1.674   5.270   6.012
 8544TIP3    H125596   1.659   5.176   6.003
 8544TIP3    H225597   1.632   5.308   5.934
 8545TIP3   OH225598   6.852   1.971   1.144
 8545TIP3    H125599   6.784   1.932   1.089
 8545TIP3    H225600   6.860   2.061   1.112
 8546TIP3   OH225601   3.154   4.804   5.965
 8546TIP3    H125602   3.124   4.891   5.940
 8546TIP3    H225603   3.084   4.745   5.937
 8547TIP3   OH225604   0.690   1.307   0.334
 8547TIP3    H125605   0.735   1.288   0.417
 8547TIP3    H225606   0.644   1.226   0.312
 8548TIP3   OH225607  -0.014   1.184   0.683
 8548TIP3    H125608   0.017   1.126   0.753
 8548TIP3    H225609   0.065   1.209   0.636
 8549TIP3   OH225610   0.953   1.612   0.011
 8549TIP3    H125611   0.933   1.549   0.080
 8549TIP3    H225612   0.972   1.693   0.058
 8550TIP3   OH225613   7.368   1.609   0.392
 8550TIP3    H125614   7.356   1.514   0.394
 8550TIP3    H225615   7.462   1.621   0.380
 8551TIP3   OH225616   7.058   0.808   0.171
 8551TIP3    H125617   7.017   0.893   0.189
 8551TIP3    H225618   6.992   0.758   0.124
 8552TIP3   OH225619   7.121   1.099   0.371
 8552TIP3    H125620   7.173   1.024   0.400
 8552TIP3    H225621   7.179   1.147   0.312
 8553TIP3   OH225622   0.599   2.059   0.021
 8553TIP3    H125623   0.631   1.991  -0.039
 8553TIP3    H225624   0.588   2.014   0.104
 8554TIP3   OH225625   0.486   1.534   0.351
 8554TIP3    H125626   0.525   1.456   0.311
 8554TIP3    H225627   0.560   1.586   0.381
 8555TIP3   OH225628   1.515   0.865   0.357
 8555TIP3    H125629   1.537   0.939   0.413
 8555TIP3    H225630   1.477   0.904   0.278
 8556TIP3   OH225631   0.906   1.023   0.383
 8556TIP3    H125632   0.941   0.938   0.408
 8556TIP3    H225633   0.865   1.008   0.297
 8557TIP3   OH225634   0.253   0.683   0.343
 8557TIP3    H125635   0.231   0.756   0.285
 8557TIP3    H225636   0.201   0.610   0.310
 8558TIP3   OH225637   3.414   4.272   6.017
 8558TIP3    H125638   3.480   4.261   6.085
 8558TIP3    H225639   3.462   4.305   5.941
 8559TIP3   OH225640   7.277   0.892   0.466
 8559TIP3    H125641   7.361   0.877   0.510
 8559TIP3    H225642   7.282   0.840   0.386
 8560TIP3   OH225643   0.303   1.091   0.283
 8560TIP3    H125644   0.397   1.073   0.288
 8560TIP3    H225645   0.265   1.011   0.245
 8561TIP3   OH225646   1.580   1.072   0.530
 8561TIP3    H125647   1.491   1.109   0.524
 8561TIP3    H225648   1.612   1.101   0.615
 8562TIP3   OH225649   0.234   0.683   0.792
 8562TIP3    H125650   0.182   0.714   0.718
 8562TIP3    H225651   0.179   0.697   0.868
 8563TIP3   OH225652   3.044   5.019   5.830
 8563TIP3    H125653   3.005   4.995   5.746
 8563TIP3    H225654   2.995   5.096   5.858
 8564TIP3   OH225655   0.335   1.456   0.569
 8564TIP3    H125656   0.278   1.525   0.604
 8564TIP3    H225657   0.380   1.497   0.496
 8565TIP3   OH225658   1.119   0.796   0.188
 8565TIP3    H125659   1.078   0.769   0.271
 8565TIP3    H225660   1.172   0.872   0.211
 8566TIP3   OH225661   0.121   0.790   0.563
 8566TIP3    H125662   0.178   0.863   0.587
 8566TIP3    H225663   0.166   0.747   0.490
 8567TIP3   OH225664   0.173   1.656   0.672
 8567TIP3    H125665   0.158   1.745   0.639
 8567TIP3    H225666   0.095   1.636   0.724
 8568TIP3   OH225667   2.016   4.842   5.958
 8568TIP3    H125668   1.986   4.854   5.867
 8568TIP3    H225669   2.047   4.928   5.985
 8569TIP3   OH225670   0.995   1.858   0.152
 8569TIP3    H125671   0.910   1.850   0.194
 8569TIP3    H225672   0.992   1.942   0.106
 8570TIP3   OH225673   1.305   0.751   0.530
 8570TIP3    H125674   1.217   0.770   0.497
 8570TIP3    H225675   1.363   0.775   0.458
 8571TIP3   OH225676   0.582   0.384   0.511
 8571TIP3    H125677   0.570   0.291   0.532
 8571TIP3    H225678   0.505   0.427   0.549
 8572TIP3   OH225679   3.163   5.385   5.858
 8572TIP3    H125680   3.214   5.304   5.846
 8572TIP3    H225681   3.220   5.454   5.826
 8573TIP3   OH225682   3.314   5.164   5.804
 8573TIP3    H125683   3.266   5.087   5.773
 8573TIP3    H225684   3.357   5.136   5.884
 8574TIP3   OH225685   1.220   1.754   0.499
 8574TIP3    H125686   1.204   1.679   0.441
 8574TIP3    H225687   1.202   1.831   0.445
 8575TIP3   OH225688   2.982   4.647   5.811
 8575TIP3    H125689   2.900   4.694   5.793
 8575TIP3    H225690   3.026   4.643   5.727
 8576TIP3   OH225691   2.949   4.443   5.511
 8576TIP3    H125692   3.015   4.494   5.558
 8576TIP3    H225693   2.999   4.379   5.461
 8577TIP3   OH225694   1.416   1.415   0.354
 8577TIP3    H125695   1.331   1.461   0.354
 8577TIP3    H225696   1.446   1.422   0.264
 8578TIP3   OH225697   3.336   4.736   5.772
 8578TIP3    H125698   3.280   4.763   5.846
 8578TIP3    H225699   3.417   4.706   5.814
 8579TIP3   OH225700   1.100   1.277   0.664
 8579TIP3    H125701   1.097   1.359   0.714
 8579TIP3    H225702   1.016   1.275   0.618
 8580TIP3   OH225703   0.099   1.230   0.148
 8580TIP3    H125704   0.061   1.172   0.082
 8580TIP3    H225705   0.173   1.181   0.183
 8581TIP3   OH225706   0.229   1.653   0.282
 8581TIP3    H125707   0.205   1.632   0.192
 8581TIP3    H225708   0.315   1.614   0.294
 8582TIP3   OH225709   0.209   1.218   0.513
 8582TIP3    H125710   0.245   1.184   0.431
 8582TIP3    H225711   0.258   1.299   0.528
 8583TIP3   OH225712   0.762   1.851   0.288
 8583TIP3    H125713   0.744   1.931   0.337
 8583TIP3    H225714   0.743   1.780   0.350
 8584TIP3   OH225715   0.371   1.760   0.835
 8584TIP3    H125716   0.312   1.821   0.880
 8584TIP3    H225717   0.314   1.707   0.779
 8585TIP3   OH225718   3.169   4.593   5.606
 8585TIP3    H125719   3.228   4.651   5.655
 8585TIP3    H225720   3.195   4.604   5.514
 8586TIP3   OH225721   0.128   1.306   0.966
 8586TIP3    H125722   0.133   1.399   0.986
 8586TIP3    H225723   0.034   1.287   0.962
 8587TIP3   OH225724   2.915   5.264   5.872
 8587TIP3    H125725   2.998   5.312   5.874
 8587TIP3    H225726   2.857   5.320   5.821
 8588TIP3   OH225727   0.163   1.922   0.916
 8588TIP3    H125728   0.132   1.927   0.825
 8588TIP3    H225729   0.084   1.904   0.967
 8589TIP3   OH225730   3.684   3.822   5.662
 8589TIP3    H125731   3.604   3.842   5.711
 8589TIP3    H225732   3.697   3.899   5.606
 8590TIP3   OH225733   2.444   4.562   5.990
 8590TIP3    H125734   2.377   4.618   5.952
 8590TIP3    H225735   2.403   4.475   5.995
 8591TIP3   OH225736   3.499   5.196   5.211
 8591TIP3    H125737   3.499   5.290   5.192
 8591TIP3    H225738   3.588   5.168   5.193
 8592TIP3   OH225739   7.159   1.466   0.847
 8592TIP3    H125740   7.087   1.449   0.787
 8592TIP3    H225741   7.194   1.379   0.868
 8593TIP3   OH225742   7.017   1.657   0.505
 8593TIP3    H125743   7.109   1.643   0.482
 8593TIP3    H225744   7.018   1.731   0.565
 8594TIP3   OH225745   1.457   2.107   0.566
 8594TIP3    H125746   1.460   2.013   0.579
 8594TIP3    H225747   1.373   2.134   0.604
 8595TIP3   OH225748   0.562   1.893   0.689
 8595TIP3    H125749   0.559   1.984   0.718
 8595TIP3    H225750   0.494   1.850   0.740
 8596TIP3   OH225751   2.806   5.497   5.687
 8596TIP3    H125752   2.758   5.476   5.606
 8596TIP3    H225753   2.770   5.581   5.715
 8597TIP3   OH225754   7.175   1.861   0.024
 8597TIP3    H125755   7.220   1.851   0.108
 8597TIP3    H225756   7.127   1.778   0.013
 8598TIP3   OH225757   3.006   5.418   5.317
 8598TIP3    H125758   3.057   5.345   5.281
 8598TIP3    H225759   3.040   5.430   5.405
 8599TIP3   OH225760   3.059   5.464   5.586
 8599TIP3    H125761   2.973   5.469   5.628
 8599TIP3    H225762   3.117   5.429   5.654
 8600TIP3   OH225763   1.347   1.235   0.834
 8600TIP3    H125764   1.264   1.242   0.788
 8600TIP3    H225765   1.366   1.141   0.836
 8601TIP3   OH225766   7.352   1.660   0.836
 8601TIP3    H125767   7.402   1.645   0.916
 8601TIP3    H225768   7.282   1.595   0.838
 8602TIP3   OH225769   0.345   0.479   0.629
 8602TIP3    H125770   0.261   0.447   0.596
 8602TIP3    H225771   0.322   0.557   0.680
 8603TIP3   OH225772   0.884   0.582   0.843
 8603TIP3    H125773   0.954   0.560   0.904
 8603TIP3    H225774   0.803   0.568   0.893
 8604TIP3   OH225775   1.105   1.016   0.760
 8604TIP3    H125776   1.061   1.012   0.845
 8604TIP3    H225777   1.086   1.105   0.728
 8605TIP3   OH225778   3.252   4.609   5.348
 8605TIP3    H125779   3.206   4.598   5.264
 8605TIP3    H225780   3.335   4.650   5.325
 8606TIP3   OH225781   2.961   3.995   5.655
 8606TIP3    H125782   2.923   4.002   5.743
 8606TIP3    H225783   2.922   3.916   5.619
 8607TIP3   OH225784   0.281   0.995   0.659
 8607TIP3    H125785   0.232   1.003   0.741
 8607TIP3    H225786   0.261   1.075   0.611
 8608TIP3   OH225787   0.161   0.877   0.175
 8608TIP3    H125788   0.071   0.854   0.198
 8608TIP3    H225789   0.172   0.844   0.086
 8609TIP3   OH225790   3.112   4.445   5.946
 8609TIP3    H125791   3.063   4.516   5.904
 8609TIP3    H225792   3.169   4.412   5.876
 8610TIP3   OH225793   0.830   1.227   0.979
 8610TIP3    H125794   0.801   1.160   1.040
 8610TIP3    H225795   0.923   1.239   1.000
 8611TIP3   OH225796   0.809   0.973   0.131
 8611TIP3    H125797   0.741   0.998   0.068
 8611TIP3    H225798   0.852   0.898   0.090
 8612TIP3   OH225799   0.107   1.011   0.873
 8612TIP3    H125800   0.120   1.077   0.941
 8612TIP3    H225801   0.089   0.931   0.921
 8613TIP3   OH225802   2.625   3.982   5.629
 8613TIP3    H125803   2.613   3.983   5.724
 8613TIP3    H225804   2.547   4.026   5.595
 8614TIP3   OH225805   7.086   0.527   0.465
 8614TIP3    H125806   7.162   0.566   0.507
 8614TIP3    H225807   7.116   0.504   0.377
 8615TIP3   OH225808   2.103   4.007   6.002
 8615TIP3    H125809   2.152   4.042   5.927
 8615TIP3    H225810   2.038   4.074   6.022
 8616TIP3   OH225811   0.840   1.221   0.557
 8616TIP3    H125812   0.868   1.154   0.494
 8616TIP3    H225813   0.800   1.171   0.628
 8617TIP3   OH225814   0.519   0.676   0.230
 8617TIP3    H125815   0.440   0.675   0.284
 8617TIP3    H225816   0.591   0.668   0.293
 8618TIP3   OH225817   7.321   0.752   0.236
 8618TIP3    H125818   7.232   0.757   0.202
 8618TIP3    H225819   7.349   0.662   0.217
 8619TIP3   OH225820   2.647   4.241   5.974
 8619TIP3    H125821   2.741   4.253   5.957
 8619TIP3    H225822   2.605   4.261   5.890
 8620TIP3   OH225823   0.982   0.759   0.435
 8620TIP3    H125824   0.961   0.777   0.527
 8620TIP3    H225825   0.913   0.700   0.405
 8621TIP3   OH225826   2.518   4.270   5.735
 8621TIP3    H125827   2.450   4.222   5.687
 8621TIP3    H225828   2.571   4.310   5.666
 8622TIP3   OH225829   1.117   2.435   0.635
 8622TIP3    H125830   1.107   2.447   0.541
 8622TIP3    H225831   1.198   2.482   0.657
 8623TIP3   OH225832   0.115   1.573   1.060
 8623TIP3    H125833   0.194   1.599   1.107
 8623TIP3    H225834   0.045   1.575   1.126
 8624TIP3   OH225835   0.575   1.033   0.336
 8624TIP3    H125836   0.639   0.982   0.286
 8624TIP3    H225837   0.574   0.992   0.422
 8625TIP3   OH225838   0.075   0.506   0.217
 8625TIP3    H125839   0.042   0.431   0.267
 8625TIP3    H225840   0.100   0.470   0.132
 8626TIP3   OH225841   0.549   0.937   0.606
 8626TIP3    H125842   0.460   0.968   0.627
 8626TIP3    H225843   0.607   0.991   0.659
 8627TIP3   OH225844   2.746   4.790   5.758
 8627TIP3    H125845   2.674   4.731   5.738
 8627TIP3    H225846   2.724   4.826   5.843
 8628TIP3   OH225847   1.175   1.548   0.321
 8628TIP3    H125848   1.203   1.597   0.244
 8628TIP3    H225849   1.093   1.507   0.295
 8629TIP3   OH225850   3.212   4.098   5.653
 8629TIP3    H125851   3.119   4.076   5.649
 8629TIP3    H225852   3.214   4.194   5.663
 8630TIP3   OH225853   0.683   1.629   0.724
 8630TIP3    H125854   0.730   1.620   0.807
 8630TIP3    H225855   0.643   1.716   0.728
 8631TIP3   OH225856   3.272   4.363   5.729
 8631TIP3    H125857   3.368   4.368   5.733
 8631TIP3    H225858   3.247   4.439   5.675
 8632TIP3   OH225859  -0.020   1.331   0.376
 8632TIP3    H125860   0.013   1.306   0.290
 8632TIP3    H225861   0.038   1.287   0.438
 8633TIP3   OH225862   2.899   4.949   5.596
 8633TIP3    H125863   2.852   5.032   5.595
 8633TIP3    H225864   2.844   4.891   5.649
 8634TIP3   OH225865   7.258   1.239   0.989
 8634TIP3    H125866   7.252   1.222   1.083
 8634TIP3    H225867   7.182   1.194   0.952
 8635TIP3   OH225868   0.593   1.375   1.018
 8635TIP3    H125869   0.527   1.316   0.982
 8635TIP3    H225870   0.677   1.338   0.989
 8636TIP3   OH225871   0.833   1.905   0.611
 8636TIP3    H125872   0.738   1.895   0.618
 8636TIP3    H225873   0.858   1.952   0.690
 8637TIP3   OH225874   3.704   4.455   5.556
 8637TIP3    H125875   3.647   4.408   5.495
 8637TIP3    H225876   3.709   4.544   5.521
 8638TIP3   OH225877   1.466   1.825   0.589
 8638TIP3    H125878   1.370   1.816   0.585
 8638TIP3    H225879   1.496   1.798   0.502
 8639TIP3   OH225880   3.428   5.267   5.476
 8639TIP3    H125881   3.396   5.198   5.534
 8639TIP3    H225882   3.442   5.224   5.392
 8640TIP3   OH225883   0.943   1.412   0.230
 8640TIP3    H125884   0.853   1.390   0.253
 8640TIP3    H225885   0.978   1.332   0.190
 8641TIP3   OH225886   0.089   1.647   0.029
 8641TIP3    H125887   0.088   1.725  -0.027
 8641TIP3    H225888  -0.004   1.624   0.038
 8642TIP3   OH225889   2.665   4.892   5.995
 8642TIP3    H125890   2.641   4.982   6.019
 8642TIP3    H225891   2.632   4.838   6.066
 8643TIP3   OH225892   0.371   1.974   0.485
 8643TIP3    H125893   0.407   2.046   0.434
 8643TIP3    H225894   0.446   1.939   0.534
 8644TIP3   OH225895   2.473   5.366   5.918
 8644TIP3    H125896   2.387   5.370   5.960
 8644TIP3    H225897   2.506   5.456   5.921
 8645TIP3   OH225898   0.729   1.626   0.453
 8645TIP3    H125899   0.717   1.623   0.548
 8645TIP3    H225900   0.805   1.570   0.436
 8646TIP3   OH225901   3.182   5.004   5.371
 8646TIP3    H125902   3.231   4.981   5.450
 8646TIP3    H225903   3.097   4.962   5.382
 8647TIP3   OH225904   0.980   2.135   0.489
 8647TIP3    H125905   0.904   2.078   0.497
 8647TIP3    H225906   0.958   2.196   0.419
 8648TIP3   OH225907   3.510   5.471   5.179
 8648TIP3    H125908   3.540   5.537   5.117
 8648TIP3    H225909   3.435   5.512   5.223
 8649TIP3   OH225910   0.058   0.753   0.999
 8649TIP3    H125911  -0.037   0.761   1.001
 8649TIP3    H225912   0.076   0.677   1.055
 8650TIP3   OH225913   3.350   4.936   5.579
 8650TIP3    H125914   3.337   4.870   5.647
 8650TIP3    H225915   3.445   4.937   5.565
 8651TIP3   OH225916   7.201   1.856   0.643
 8651TIP3    H125917   7.253   1.793   0.693
 8651TIP3    H225918   7.213   1.939   0.689
 8652TIP3   OH225919   2.539   4.970   5.375
 8652TIP3    H125920   2.549   4.879   5.348
 8652TIP3    H225921   2.521   4.966   5.469
 8653TIP3   OH225922   2.483   4.988   5.646
 8653TIP3    H125923   2.552   4.955   5.704
 8653TIP3    H225924   2.486   5.083   5.656
 8654TIP3   OH225925   2.248   4.708   5.874
 8654TIP3    H125926   2.165   4.732   5.916
 8654TIP3    H225927   2.249   4.759   5.793
 8655TIP3   OH225928   0.918   0.816   0.696
 8655TIP3    H125929   0.992   0.863   0.735
 8655TIP3    H225930   0.907   0.739   0.753
 8656TIP3   OH225931   3.266   4.053   5.923
 8656TIP3    H125932   3.245   4.069   5.831
 8656TIP3    H225933   3.308   4.133   5.953
 8657TIP3   OH225934   2.756   5.179   5.595
 8657TIP3    H125935   2.670   5.202   5.630
 8657TIP3    H225936   2.777   5.250   5.534
 8658TIP3   OH225937   2.930   4.249   6.012
 8658TIP3    H125938   2.991   4.318   5.988
 8658TIP3    H225939   2.947   4.233   6.105
 8659TIP3   OH225940   0.752   1.058   0.760
 8659TIP3    H125941   0.776   1.106   0.840
 8659TIP3    H225942   0.802   0.977   0.765
 8660TIP3   OH225943   0.615   0.465   0.064
 8660TIP3    H125944   0.592   0.543   0.114
 8660TIP3    H225945   0.682   0.496   0.003
 8661TIP3   OH225946   2.503   5.260   5.666
 8661TIP3    H125947   2.479   5.330   5.605
 8661TIP3    H225948   2.490   5.299   5.753
 8662TIP3   OH225949   2.597   3.969   5.908
 8662TIP3    H125950   2.587   4.060   5.937
 8662TIP3    H225951   2.692   3.953   5.912
 8663TIP3   OH225952   1.367   0.956   0.740
 8663TIP3    H125953   1.273   0.970   0.755
 8663TIP3    H225954   1.371   0.891   0.670
 8664TIP3   OH225955   1.035   1.155   0.133
 8664TIP3    H125956   0.954   1.104   0.142
 8664TIP3    H225957   1.098   1.111   0.191
 8665TIP3   OH225958   2.231   4.870   5.640
 8665TIP3    H125959   2.305   4.931   5.648
 8665TIP3    H225960   2.263   4.801   5.581
 8666TIP3   OH225961   2.149   4.165   5.778
 8666TIP3    H125962   2.102   4.246   5.798
 8666TIP3    H225963   2.090   4.116   5.720
 8667TIP3   OH225964   1.011   2.126   0.072
 8667TIP3    H125965   0.968   2.175   0.002
 8667TIP3    H225966   1.105   2.139   0.056
 8668TIP3   OH225967   0.081   0.398   0.593
 8668TIP3    H125968   0.050   0.363   0.510
 8668TIP3    H225969   0.074   0.325   0.654
 8669TIP3   OH225970   2.080   5.117   6.034
 8669TIP3    H125971   2.024   5.143   6.107
 8669TIP3    H225972   2.040   5.158   5.957
 8670TIP3   OH225973   7.209   2.160   1.050
 8670TIP3    H125974   7.287   2.178   1.102
 8670TIP3    H225975   7.200   2.065   1.052
 8671TIP3   OH225976   0.277   2.088   1.101
 8671TIP3    H125977   0.366   2.054   1.109
 8671TIP3    H225978   0.237   2.035   1.032
 8672TIP3   OH225979   2.700   5.171   5.274
 8672TIP3    H125980   2.651   5.100   5.315
 8672TIP3    H225981   2.774   5.128   5.232
 8673TIP3   OH225982   0.887   2.027   0.849
 8673TIP3    H125983   0.892   1.954   0.911
 8673TIP3    H225984   0.965   2.079   0.867
 8674TIP3   OH225985   3.138   5.211   5.195
 8674TIP3    H125986   3.169   5.145   5.257
 8674TIP3    H225987   3.197   5.204   5.120
 8675TIP3   OH225988   7.318   1.567   1.253
 8675TIP3    H125989   7.345   1.477   1.272
 8675TIP3    H225990   7.230   1.558   1.215
 8676TIP3   OH225991   2.361   4.673   5.503
 8676TIP3    H125992   2.412   4.646   5.580
 8676TIP3    H225993   2.425   4.682   5.433
 8677TIP3   OH225994   0.524   1.650   1.038
 8677TIP3    H125995   0.479   1.670   0.956
 8677TIP3    H225996   0.558   1.561   1.025
 8678TIP3   OH225997   2.915   4.892   5.327
 8678TIP3    H125998   2.897   4.904   5.420
 8678TIP3    H225999   2.904   4.798   5.312
 8679TIP3   OH226000   1.000   1.682   0.650
 8679TIP3    H126001   1.078   1.714   0.604
 8679TIP3    H226002   0.934   1.748   0.634
 8680TIP3   OH226003   0.048   1.323   1.268
 8680TIP3    H126004   0.121   1.301   1.210
 8680TIP3    H226005   0.075   1.292   1.354
 8681TIP3   OH226006   2.545   4.605   5.711
 8681TIP3    H126007   2.519   4.570   5.796
 8681TIP3    H226008   2.588   4.532   5.667
 8682TIP3   OH226009   0.378   1.189   0.920
 8682TIP3    H126010   0.294   1.234   0.928
 8682TIP3    H226011   0.414   1.220   0.836
 8683TIP3   OH226012   2.673   4.411   5.557
 8683TIP3    H126013   2.643   4.414   5.466
 8683TIP3    H226014   2.769   4.416   5.551
 8684TIP3   OH226015   0.884   1.567   1.019
 8684TIP3    H126016   0.955   1.529   0.967
 8684TIP3    H226017   0.881   1.514   1.098
 8685TIP3   OH226018   3.480   4.716   5.231
 8685TIP3    H126019   3.463   4.672   5.147
 8685TIP3    H226020   3.452   4.806   5.216
 8686TIP3   OH226021   0.491   0.965   1.027
 8686TIP3    H126022   0.495   0.891   0.966
 8686TIP3    H226023   0.454   1.036   0.975
 8687TIP3   OH226024   0.495   0.761   0.831
 8687TIP3    H126025   0.523   0.800   0.748
 8687TIP3    H226026   0.404   0.737   0.817
 8688TIP3   OH226027   0.508   1.293   0.706
 8688TIP3    H126028   0.597   1.321   0.685
 8688TIP3    H226029   0.451   1.355   0.660
 8689TIP3   OH226030   1.097   1.251   1.082
 8689TIP3    H126031   1.137   1.170   1.115
 8689TIP3    H226032   1.171   1.304   1.053
 8690TIP3   OH226033   1.128   1.512   0.818
 8690TIP3    H126034   1.072   1.571   0.768
 8690TIP3    H226035   1.216   1.528   0.784
 8691TIP3   OH226036   0.365   1.064   1.253
 8691TIP3    H126037   0.287   1.009   1.255
 8691TIP3    H226038   0.406   1.045   1.169
 8692TIP3   OH226039   0.616   0.529   0.927
 8692TIP3    H126040   0.580   0.613   0.897
 8692TIP3    H226041   0.547   0.465   0.909
 8693TIP3   OH226042   0.742   1.019   1.131
 8693TIP3    H126043   0.743   0.989   1.221
 8693TIP3    H226044   0.656   0.994   1.097
 8694TIP3   OH226045   0.979   0.958   0.990
 8694TIP3    H126046   0.905   0.961   1.051
 8694TIP3    H226047   1.053   0.930   1.044
 8695TIP3   OH226048   1.224   0.909   1.123
 8695TIP3    H126049   1.236   0.816   1.144
 8695TIP3    H226050   1.214   0.952   1.208
 8696TIP3   OH226051   0.185   0.854   1.284
 8696TIP3    H126052   0.190   0.781   1.222
 8696TIP3    H226053   0.241   0.829   1.357
 8697TIP3   OH226054   0.695   0.517   1.191
 8697TIP3    H126055   0.766   0.453   1.186
 8697TIP3    H226056   0.664   0.525   1.101
 8698TIP3   OH226057   0.787   0.765   1.291
 8698TIP3    H126058   0.765   0.676   1.262
 8698TIP3    H226059   0.704   0.802   1.321
 8699TIP3   OH226060   2.490   5.468   5.481
 8699TIP3    H126061   2.581   5.448   5.456
 8699TIP3    H226062   2.454   5.513   5.405
 8700TIP3   OH226063   1.963   4.848   5.679
 8700TIP3    H126064   2.056   4.867   5.666
 8700TIP3    H226065   1.950   4.762   5.641
 8701TIP3   OH226066   6.812   1.936   0.064
 8701TIP3    H126067   6.749   1.878   0.021
 8701TIP3    H226068   6.853   1.882   0.132
 8702TIP3   OH226069   6.940   1.791   0.260
 8702TIP3    H126070   6.934   1.723   0.327
 8702TIP3    H226071   6.992   1.860   0.301
 8703TIP3   OH226072   1.280   2.181   0.054
 8703TIP3    H126073   1.294   2.211   0.144
 8703TIP3    H226074   1.322   2.246  -0.001
 8704TIP3   OH226075   1.293   2.214   0.332
 8704TIP3    H126076   1.251   2.128   0.333
 8704TIP3    H226077   1.365   2.207   0.394
 8705TIP3   OH226078   1.309   1.892   0.895
 8705TIP3    H126079   1.238   1.902   0.959
 8705TIP3    H226080   1.364   1.969   0.909
 8706TIP3   OH226081   3.628   4.920   5.559
 8706TIP3    H126082   3.690   4.987   5.529
 8706TIP3    H226083   3.668   4.884   5.638
 8707TIP3   OH226084   3.740   4.786   5.772
 8707TIP3    H126085   3.671   4.739   5.820
 8707TIP3    H226086   3.797   4.820   5.841
 8708TIP3   OH226087   1.357   1.681   0.147
 8708TIP3    H126088   1.395   1.618   0.086
 8708TIP3    H226089   1.350   1.763   0.097
 8709TIP3   OH226090   1.157   1.973   0.348
 8709TIP3    H126091   1.089   2.019   0.397
 8709TIP3    H226092   1.110   1.933   0.275
 8710TIP3   OH226093   3.684   4.693   5.413
 8710TIP3    H126094   3.615   4.688   5.347
 8710TIP3    H226095   3.662   4.771   5.464
 8711TIP3   OH226096   3.548   4.349   5.360
 8711TIP3    H126097   3.507   4.390   5.283
 8711TIP3    H226098   3.531   4.256   5.350
 8712TIP3   OH226099   3.558   4.630   5.905
 8712TIP3    H126100   3.561   4.535   5.889
 8712TIP3    H226101   3.540   4.637   5.998
 8713TIP3   OH226102   7.123   1.218   0.618
 8713TIP3    H126103   7.113   1.181   0.530
 8713TIP3    H226104   7.217   1.216   0.634
 8714TIP3   OH226105   1.380   1.564   0.718
 8714TIP3    H126106   1.448   1.498   0.702
 8714TIP3    H226107   1.398   1.633   0.654
 8715TIP3   OH226108   1.560   1.359   0.714
 8715TIP3    H126109   1.487   1.316   0.760
 8715TIP3    H226110   1.636   1.305   0.736
 8716TIP3   OH226111   3.496   4.082   5.337
 8716TIP3    H126112   3.560   4.048   5.399
 8716TIP3    H226113   3.415   4.036   5.359
 8717TIP3   OH226114   3.565   4.360   5.791
 8717TIP3    H126115   3.605   4.274   5.804
 8717TIP3    H226116   3.610   4.397   5.715
 8718TIP3   OH226117   1.249   1.027   0.273
 8718TIP3    H126118   1.326   1.055   0.223
 8718TIP3    H226119   1.259   1.071   0.358
 8719TIP3   OH226120   1.321   1.188   0.490
 8719TIP3    H126121   1.248   1.216   0.546
 8719TIP3    H226122   1.352   1.269   0.450
 8720TIP3   OH226123   7.311   0.890   1.273
 8720TIP3    H126124   7.406   0.882   1.279
 8720TIP3    H226125   7.279   0.854   1.356
 8721TIP3   OH226126   1.772   0.788   1.031
 8721TIP3    H126127   1.838   0.727   0.998
 8721TIP3    H226128   1.742   0.835   0.952
 8722TIP3   OH226129   3.671   4.107   5.842
 8722TIP3    H126130   3.715   4.090   5.925
 8722TIP3    H226131   3.608   4.035   5.833
 8723TIP3   OH226132   7.306   0.610   0.623
 8723TIP3    H126133   7.361   0.531   0.623
 8723TIP3    H226134   7.367   0.681   0.604
 8724TIP3   OH226135   7.095   0.877   0.679
 8724TIP3    H126136   7.149   0.867   0.600
 8724TIP3    H226137   7.122   0.961   0.716
 8725TIP3   OH226138   1.633   0.907   0.829
 8725TIP3    H126139   1.553   0.946   0.864
 8725TIP3    H226140   1.603   0.831   0.779
 8726TIP3   OH226141   3.735   4.026   5.484
 8726TIP3    H126142   3.774   3.964   5.422
 8726TIP3    H226143   3.791   4.103   5.480
 8727TIP3   OH226144   7.088   0.396   0.198
 8727TIP3    H126145   6.999   0.374   0.226
 8727TIP3    H226146   7.076   0.444   0.116
 8728TIP3   OH226147   3.309   5.578   5.742
 8728TIP3    H126148   3.365   5.567   5.666
 8728TIP3    H226149   3.352   5.647   5.794
 8729TIP3   OH226150   7.302   0.483   1.015
 8729TIP3    H126151   7.246   0.455   1.087
 8729TIP3    H226152   7.242   0.502   0.943
 8730TIP3   OH226153   7.348   1.887   1.088
 8730TIP3    H126154   7.260   1.857   1.068
 8730TIP3    H226155   7.357   1.874   1.183
 8731TIP3   OH226156   0.142   1.929   0.632
 8731TIP3    H126157   0.090   2.002   0.599
 8731TIP3    H226158   0.228   1.939   0.589
 8732TIP3   OH226159   0.560   2.156   0.771
 8732TIP3    H126160   0.600   2.151   0.858
 8732TIP3    H226161   0.621   2.209   0.720
 8733TIP3   OH226162   0.736   2.315   0.634
 8733TIP3    H126163   0.804   2.268   0.585
 8733TIP3    H226164   0.785   2.372   0.694
 8734TIP3   OH226165   1.543   0.656   0.730
 8734TIP3    H126166   1.453   0.641   0.700
 8734TIP3    H226167   1.584   0.570   0.727
 8735TIP3   OH226168   7.219   2.162   0.677
 8735TIP3    H126169   7.131   2.192   0.654
 8735TIP3    H226170   7.247   2.221   0.748
 8736TIP3   OH226171   0.043   2.160   0.519
 8736TIP3    H126172  -0.038   2.165   0.568
 8736TIP3    H226173   0.019   2.188   0.430
 8737TIP3   OH226174   0.456   2.179   0.316
 8737TIP3    H126175   0.386   2.193   0.252
 8737TIP3    H226176   0.468   2.264   0.357
 8738TIP3   OH226177   0.720   2.115   0.369
 8738TIP3    H126178   0.628   2.134   0.350
 8738TIP3    H226179   0.769   2.183   0.322
 8739TIP3   OH226180   0.917   2.294   0.269
 8739TIP3    H126181   0.909   2.379   0.227
 8739TIP3    H226182   0.948   2.236   0.199
 8740TIP3   OH226183   7.125   1.965   0.399
 8740TIP3    H126184   7.151   1.935   0.486
 8740TIP3    H226185   7.193   1.930   0.341
 8741TIP3   OH226186   7.320   1.843   0.256
 8741TIP3    H126187   7.331   1.760   0.303
 8741TIP3    H226188   7.407   1.882   0.257
 8742TIP3   OH226189   0.187   1.931   0.276
 8742TIP3    H126190   0.207   1.838   0.263
 8742TIP3    H226191   0.237   1.955   0.354
 8743TIP3   OH226192   0.755   0.585   0.365
 8743TIP3    H126193   0.712   0.512   0.410
 8743TIP3    H226194   0.822   0.542   0.311
 8744TIP3   OH226195   1.257   0.487   0.255
 8744TIP3    H126196   1.292   0.536   0.180
 8744TIP3    H226197   1.163   0.504   0.252
 8745TIP3   OH226198   1.369   0.573   0.019
 8745TIP3    H126199   1.437   0.513  -0.012
 8745TIP3    H226200   1.404   0.660   0.004
 8746TIP3   OH226201   7.389   0.285   0.360
 8746TIP3    H126202   7.297   0.258   0.360
 8746TIP3    H226203   7.438   0.203   0.352
 8747TIP3   OH226204   7.221   0.189   0.030
 8747TIP3    H126205   7.236   0.234  -0.053
 8747TIP3    H226206   7.181   0.256   0.086
 8748TIP3   OH226207   0.461   0.322   0.254
 8748TIP3    H126208   0.508   0.368   0.184
 8748TIP3    H226209   0.501   0.355   0.335
 8749TIP3   OH226210   0.972   0.468   0.232
 8749TIP3    H126211   0.976   0.433   0.143
 8749TIP3    H226212   0.971   0.391   0.289
 8750TIP3   OH226213   3.486   3.897   5.842
 8750TIP3    H126214   3.405   3.942   5.863
 8750TIP3    H226215   3.475   3.810   5.880
 8751TIP3   OH226216   1.959   5.239   5.821
 8751TIP3    H126217   1.876   5.201   5.792
 8751TIP3    H226218   1.957   5.330   5.791
 8752TIP3   OH226219   2.381   3.807   5.824
 8752TIP3    H126220   2.424   3.744   5.765
 8752TIP3    H226221   2.453   3.861   5.858
 8753TIP3   OH226222   2.873   3.998   5.918
 8753TIP3    H126223   2.931   3.946   5.973
 8753TIP3    H226224   2.889   4.088   5.944
 8754TIP3   OH226225   2.749   5.399   5.416
 8754TIP3    H126226   2.833   5.426   5.380
 8754TIP3    H226227   2.721   5.326   5.360
 8755TIP3   OH226228   3.461   5.536   5.513
 8755TIP3    H126229   3.455   5.441   5.505
 8755TIP3    H226230   3.416   5.570   5.436
 8756TIP3   OH226231   0.214   0.583   1.205
 8756TIP3    H126232   0.174   0.521   1.266
 8756TIP3    H226233   0.306   0.585   1.231
 8757TIP3   OH226234   0.456   0.567   1.334
 8757TIP3    H126235   0.542   0.551   1.294
 8757TIP3    H226236   0.451   0.503   1.405
 8758TIP3   OH226237   2.055   5.244   5.475
 8758TIP3    H126238   2.057   5.248   5.570
 8758TIP3    H226239   2.135   5.197   5.451
 8759TIP3   OH226240   1.288   0.642   1.166
 8759TIP3    H126241   1.303   0.617   1.257
 8759TIP3    H226242   1.375   0.640   1.126
 8760TIP3   OH226243   1.205   2.173   0.648
 8760TIP3    H126244   1.128   2.143   0.600
 8760TIP3    H226245   1.190   2.266   0.662
 8761TIP3   OH226246   4.947   5.056   5.455
 8761TIP3    H126247   4.917   5.144   5.433
 8761TIP3    H226248   4.877   4.999   5.424
 8762TIP3   OH226249   4.936   5.055   5.857
 8762TIP3    H126250   4.978   5.036   5.941
 8762TIP3    H226251   4.897   4.972   5.830
 8763TIP3   OH226252   1.798   1.446   0.191
 8763TIP3    H126253   1.759   1.407   0.269
 8763TIP3    H226254   1.823   1.534   0.218
 8764TIP3   OH226255   5.208   5.351   5.535
 8764TIP3    H126256   5.193   5.286   5.604
 8764TIP3    H226257   5.230   5.431   5.583
 8765TIP3   OH226258   4.237   5.354   5.918
 8765TIP3    H126259   4.225   5.259   5.925
 8765TIP3    H226260   4.331   5.364   5.899
 8766TIP3   OH226261   3.916   4.577   5.721
 8766TIP3    H126262   3.856   4.650   5.726
 8766TIP3    H226263   3.867   4.509   5.675
 8767TIP3   OH226264   4.003   4.820   5.885
 8767TIP3    H126265   4.015   4.735   5.842
 8767TIP3    H226266   4.052   4.882   5.831
 8768TIP3   OH226267   4.868   5.801   5.551
 8768TIP3    H126268   4.899   5.736   5.488
 8768TIP3    H226269   4.846   5.750   5.629
 8769TIP3   OH226270   4.733   5.265   5.879
 8769TIP3    H126271   4.779   5.188   5.845
 8769TIP3    H226272   4.803   5.325   5.903
 8770TIP3   OH226273   5.771   4.584   5.881
 8770TIP3    H126274   5.777   4.673   5.916
 8770TIP3    H226275   5.803   4.590   5.792
 8771TIP3   OH226276   5.156   4.760   5.914
 8771TIP3    H126277   5.202   4.679   5.937
 8771TIP3    H226278   5.124   4.744   5.825
 8772TIP3   OH226279   4.528   4.442   5.886
 8772TIP3    H126280   4.498   4.516   5.834
 8772TIP3    H226281   4.463   4.374   5.871
 8773TIP3   OH226282   5.208   4.527   5.502
 8773TIP3    H126283   5.274   4.514   5.570
 8773TIP3    H226284   5.257   4.561   5.427
 8774TIP3   OH226285   4.573   4.834   5.798
 8774TIP3    H126286   4.668   4.817   5.799
 8774TIP3    H226287   4.536   4.754   5.760
 8775TIP3   OH226288   3.345   1.322   0.016
 8775TIP3    H126289   3.253   1.345   0.003
 8775TIP3    H226290   3.393   1.404   0.005
 8776TIP3   OH226291   2.018   0.932   0.266
 8776TIP3    H126292   1.948   0.906   0.206
 8776TIP3    H226293   1.972   0.954   0.348
 8777TIP3   OH226294   4.821   5.267   5.330
 8777TIP3    H126295   4.795   5.253   5.239
 8777TIP3    H226296   4.779   5.350   5.354
 8778TIP3   OH226297   2.112   1.694   0.052
 8778TIP3    H126298   2.058   1.765   0.087
 8778TIP3    H226299   2.161   1.734  -0.020
 8779TIP3   OH226300   5.381   4.529   5.711
 8779TIP3    H126301   5.342   4.511   5.797
 8779TIP3    H226302   5.436   4.606   5.725
 8780TIP3   OH226303   1.951   1.904   0.148
 8780TIP3    H126304   1.934   1.988   0.104
 8780TIP3    H226305   1.872   1.888   0.200
 8781TIP3   OH226306   3.814   5.098   5.447
 8781TIP3    H126307   3.777   5.114   5.360
 8781TIP3    H226308   3.838   5.185   5.479
 8782TIP3   OH226309   5.235   5.603   5.671
 8782TIP3    H126310   5.145   5.591   5.702
 8782TIP3    H226311   5.233   5.685   5.621
 8783TIP3   OH226312   5.560   4.481   6.041
 8783TIP3    H126313   5.475   4.500   6.001
 8783TIP3    H226314   5.623   4.506   5.974
 8784TIP3   OH226315   2.380   0.628  -0.001
 8784TIP3    H126316   2.372   0.536   0.023
 8784TIP3    H226317   2.305   0.671   0.040
 8785TIP3   OH226318   4.958   5.637   5.344
 8785TIP3    H126319   5.006   5.556   5.331
 8785TIP3    H226320   5.016   5.705   5.311
 8786TIP3   OH226321   5.109   5.419   5.285
 8786TIP3    H126322   5.101   5.339   5.232
 8786TIP3    H226323   5.146   5.388   5.368
 8787TIP3   OH226324   5.426   5.520   5.989
 8787TIP3    H126325   5.421   5.447   5.927
 8787TIP3    H226326   5.428   5.598   5.934
 8788TIP3   OH226327   4.776   4.902   5.297
 8788TIP3    H126328   4.696   4.952   5.279
 8788TIP3    H226329   4.822   4.901   5.213
 8789TIP3   OH226330   4.745   4.700   4.997
 8789TIP3    H126331   4.810   4.750   5.046
 8789TIP3    H226332   4.796   4.635   4.948
 8790TIP3   OH226333   5.638   5.071   5.758
 8790TIP3    H126334   5.640   5.131   5.833
 8790TIP3    H226335   5.673   5.121   5.685
 8791TIP3   OH226336   5.129   4.990   5.262
 8791TIP3    H126337   5.075   5.017   5.336
 8791TIP3    H226338   5.212   4.963   5.301
 8792TIP3   OH226339   2.880   1.537   0.048
 8792TIP3    H126340   2.881   1.607   0.112
 8792TIP3    H226341   2.787   1.524   0.028
 8793TIP3   OH226342   4.356   4.971   5.679
 8793TIP3    H126343   4.317   4.916   5.611
 8793TIP3    H226344   4.434   4.923   5.706
 8794TIP3   OH226345   4.491   5.394   5.807
 8794TIP3    H126346   4.469   5.375   5.716
 8794TIP3    H226347   4.576   5.351   5.821
 8795TIP3   OH226348   4.497   4.921   6.047
 8795TIP3    H126349   4.526   4.893   5.960
 8795TIP3    H226350   4.535   5.008   6.058
 8796TIP3   OH226351   4.986   5.587   5.785
 8796TIP3    H126352   4.995   5.663   5.843
 8796TIP3    H226353   4.981   5.512   5.844
 8797TIP3   OH226354   2.153   2.046   0.271
 8797TIP3    H126355   2.106   2.105   0.330
 8797TIP3    H226356   2.085   1.991   0.232
 8798TIP3   OH226357   4.965   4.849   5.092
 8798TIP3    H126358   5.024   4.906   5.142
 8798TIP3    H226359   4.992   4.860   5.001
 8799TIP3   OH226360   1.912   1.587   0.405
 8799TIP3    H126361   1.919   1.675   0.440
 8799TIP3    H226362   1.833   1.551   0.446
 8800TIP3   OH226363   4.707   5.523   5.361
 8800TIP3    H126364   4.793   5.566   5.362
 8800TIP3    H226365   4.652   5.579   5.307
 8801TIP3   OH226366   1.949   2.208   0.391
 8801TIP3    H126367   1.933   2.212   0.297
 8801TIP3    H226368   1.864   2.183   0.429
 8802TIP3   OH226369   5.479   4.079   5.146
 8802TIP3    H126370   5.400   4.098   5.197
 8802TIP3    H226371   5.492   4.156   5.092
 8803TIP3   OH226372   4.228   4.820   5.479
 8803TIP3    H126373   4.155   4.865   5.435
 8803TIP3    H226374   4.200   4.729   5.485
 8804TIP3   OH226375   5.294   5.452   4.698
 8804TIP3    H126376   5.296   5.546   4.677
 8804TIP3    H226377   5.384   5.422   4.685
 8805TIP3   OH226378   1.543   1.716   0.351
 8805TIP3    H126379   1.474   1.701   0.286
 8805TIP3    H226380   1.572   1.629   0.377
 8806TIP3   OH226381   1.393   1.925   0.004
 8806TIP3    H126382   1.485   1.947   0.015
 8806TIP3    H226383   1.346   2.003   0.032
 8807TIP3   OH226384   2.352   2.139   0.107
 8807TIP3    H126385   2.342   2.233   0.123
 8807TIP3    H226386   2.291   2.098   0.169
 8808TIP3   OH226387   4.602   5.752   5.175
 8808TIP3    H126388   4.555   5.731   5.094
 8808TIP3    H226389   4.566   5.837   5.202
 8809TIP3   OH226390   4.034   5.604   5.552
 8809TIP3    H126391   4.077   5.596   5.637
 8809TIP3    H226392   3.984   5.522   5.542
 8810TIP3   OH226393   4.803   5.674   4.803
 8810TIP3    H126394   4.854   5.602   4.767
 8810TIP3    H226395   4.837   5.687   4.891
 8811TIP3   OH226396   4.855   5.721   5.072
 8811TIP3    H126397   4.770   5.725   5.115
 8811TIP3    H226398   4.914   5.687   5.139
 8812TIP3   OH226399   3.103   1.497   0.282
 8812TIP3    H126400   3.077   1.454   0.201
 8812TIP3    H226401   3.113   1.426   0.345
 8813TIP3   OH226402   1.727   1.916   0.311
 8813TIP3    H126403   1.782   1.899   0.387
 8813TIP3    H226404   1.656   1.852   0.317
 8814TIP3   OH226405   2.148   0.721   0.123
 8814TIP3    H126406   2.061   0.691   0.096
 8814TIP3    H226407   2.134   0.810   0.156
 8815TIP3   OH226408   2.671   0.840   0.326
 8815TIP3    H126409   2.741   0.807   0.382
 8815TIP3    H226410   2.591   0.822   0.374
 8816TIP3   OH226411   2.890   1.259   0.232
 8816TIP3    H126412   2.851   1.250   0.319
 8816TIP3    H226413   2.864   1.347   0.203
 8817TIP3   OH226414   5.047   4.858   4.833
 8817TIP3    H126415   5.002   4.851   4.749
 8817TIP3    H226416   5.129   4.902   4.813
 8818TIP3   OH226417   4.756   4.253   5.143
 8818TIP3    H126418   4.720   4.260   5.232
 8818TIP3    H226419   4.717   4.174   5.107
 8819TIP3   OH226420   4.430   4.623   5.701
 8819TIP3    H126421   4.340   4.602   5.727
 8819TIP3    H226422   4.439   4.582   5.614
 8820TIP3   OH226423   4.908   4.701   5.431
 8820TIP3    H126424   4.858   4.772   5.389
 8820TIP3    H226425   4.965   4.668   5.362
 8821TIP3   OH226426   2.597   1.474   0.489
 8821TIP3    H126427   2.590   1.392   0.538
 8821TIP3    H226428   2.690   1.484   0.470
 8822TIP3   OH226429   5.068   4.714   5.658
 8822TIP3    H126430   5.005   4.741   5.592
 8822TIP3    H226431   5.113   4.639   5.618
 8823TIP3   OH226432   1.932   1.233   0.319
 8823TIP3    H126433   1.993   1.279   0.376
 8823TIP3    H226434   1.900   1.160   0.371
 8824TIP3   OH226435   4.420   4.239   5.113
 8824TIP3    H126436   4.409   4.238   5.208
 8824TIP3    H226437   4.342   4.283   5.080
 8825TIP3   OH226438   3.963   4.286   5.978
 8825TIP3    H126439   4.048   4.319   6.009
 8825TIP3    H226440   3.983   4.249   5.892
 8826TIP3   OH226441   3.894   4.259   5.494
 8826TIP3    H126442   3.938   4.291   5.415
 8826TIP3    H226443   3.830   4.327   5.516
 8827TIP3   OH226444   2.609   1.471   0.034
 8827TIP3    H126445   2.637   1.401  -0.025
 8827TIP3    H226446   2.587   1.426   0.116
 8828TIP3   OH226447   4.778   4.425   5.758
 8828TIP3    H126448   4.699   4.429   5.812
 8828TIP3    H226449   4.849   4.410   5.820
 8829TIP3   OH226450   4.188   4.521   5.770
 8829TIP3    H126451   4.094   4.521   5.751
 8829TIP3    H226452   4.212   4.429   5.772
 8830TIP3   OH226453   4.443   4.495   5.458
 8830TIP3    H126454   4.537   4.508   5.443
 8830TIP3    H226455   4.403   4.516   5.373
 8831TIP3   OH226456   5.253   4.499   5.958
 8831TIP3    H126457   5.226   4.516   6.048
 8831TIP3    H226458   5.190   4.436   5.925
 8832TIP3   OH226459   4.314   4.530   5.219
 8832TIP3    H126460   4.249   4.479   5.169
 8832TIP3    H226461   4.368   4.571   5.152
 8833TIP3   OH226462   1.874   1.837   0.527
 8833TIP3    H126463   1.960   1.858   0.562
 8833TIP3    H226464   1.821   1.817   0.604
 8834TIP3   OH226465   4.844   4.779   5.846
 8834TIP3    H126466   4.911   4.737   5.792
 8834TIP3    H226467   4.850   4.736   5.931
 8835TIP3   OH226468   4.334   4.266   5.777
 8835TIP3    H126469   4.304   4.185   5.820
 8835TIP3    H226470   4.374   4.236   5.696
 8836TIP3   OH226471   2.332   1.233   0.129
 8836TIP3    H126472   2.303   1.324   0.124
 8836TIP3    H226473   2.421   1.239   0.166
 8837TIP3   OH226474   4.541   5.048   5.243
 8837TIP3    H126475   4.469   4.989   5.223
 8837TIP3    H226476   4.519   5.084   5.329
 8838TIP3   OH226477   5.401   5.304   5.837
 8838TIP3    H126478   5.454   5.326   5.760
 8838TIP3    H226479   5.334   5.245   5.804
 8839TIP3   OH226480   5.007   4.357   5.137
 8839TIP3    H126481   4.914   4.336   5.136
 8839TIP3    H226482   5.010   4.452   5.150
 8840TIP3   OH226483   2.464   1.817   0.191
 8840TIP3    H126484   2.524   1.772   0.250
 8840TIP3    H226485   2.470   1.909   0.218
 8841TIP3   OH226486   5.069   4.619   5.215
 8841TIP3    H126487   5.165   4.624   5.223
 8841TIP3    H226488   5.046   4.696   5.162
 8842TIP3   OH226489   4.258   5.073   5.916
 8842TIP3    H126490   4.281   5.048   5.827
 8842TIP3    H226491   4.328   5.037   5.970
 8843TIP3   OH226492   4.695   5.205   5.080
 8843TIP3    H126493   4.649   5.289   5.080
 8843TIP3    H226494   4.641   5.148   5.135
 8844TIP3   OH226495   1.662   1.485   0.478
 8844TIP3    H126496   1.681   1.472   0.571
 8844TIP3    H226497   1.580   1.438   0.463
 8845TIP3   OH226498   2.363   1.597   0.428
 8845TIP3    H126499   2.319   1.551   0.500
 8845TIP3    H226500   2.455   1.572   0.436
 8846TIP3   OH226501   2.620   2.135   0.014
 8846TIP3    H126502   2.526   2.114   0.021
 8846TIP3    H226503   2.634   2.205   0.077
 8847TIP3   OH226504   5.494   4.709   5.042
 8847TIP3    H126505   5.438   4.663   4.979
 8847TIP3    H226506   5.499   4.799   5.008
 8848TIP3   OH226507   5.684   5.491   6.029
 8848TIP3    H126508   5.594   5.519   6.011
 8848TIP3    H226509   5.730   5.504   5.946
 8849TIP3   OH226510   5.219   5.527   4.960
 8849TIP3    H126511   5.194   5.456   5.019
 8849TIP3    H226512   5.238   5.484   4.877
 8850TIP3   OH226513   5.188   5.151   5.743
 8850TIP3    H126514   5.098   5.126   5.765
 8850TIP3    H226515   5.228   5.071   5.710
 8851TIP3   OH226516   4.353   5.394   5.557
 8851TIP3    H126517   4.356   5.470   5.500
 8851TIP3    H226518   4.260   5.377   5.571
 8852TIP3   OH226519   3.919   4.682   5.268
 8852TIP3    H126520   3.961   4.766   5.286
 8852TIP3    H226521   3.838   4.684   5.319
 8853TIP3   OH226522   4.453   5.146   5.480
 8853TIP3    H126523   4.433   5.237   5.503
 8853TIP3    H226524   4.422   5.094   5.554
 8854TIP3   OH226525   4.609   5.718   5.995
 8854TIP3    H126526   4.650   5.788   5.944
 8854TIP3    H226527   4.683   5.669   6.032
 8855TIP3   OH226528   4.268   5.621   5.405
 8855TIP3    H126529   4.181   5.626   5.445
 8855TIP3    H226530   4.299   5.712   5.406
 8856TIP3   OH226531   4.974   5.363   5.966
 8856TIP3    H126532   4.955   5.338   6.056
 8856TIP3    H226533   5.042   5.302   5.938
 8857TIP3   OH226534   4.982   5.260   4.863
 8857TIP3    H126535   5.028   5.241   4.944
 8857TIP3    H226536   4.895   5.221   4.875
 8858TIP3   OH226537   5.216   5.903   6.008
 8858TIP3    H126538   5.146   5.843   5.981
 8858TIP3    H226539   5.223   5.965   5.935
 8859TIP3   OH226540   5.306   5.728   4.666
 8859TIP3    H126541   5.339   5.797   4.608
 8859TIP3    H226542   5.229   5.767   4.709
 8860TIP3   OH226543   1.861   1.013   0.483
 8860TIP3    H126544   1.767   1.023   0.498
 8860TIP3    H226545   1.892   0.964   0.559
 8861TIP3   OH226546   5.144   5.202   5.083
 8861TIP3    H126547   5.129   5.129   5.143
 8861TIP3    H226548   5.238   5.198   5.063
 8862TIP3   OH226549   1.594   2.106   0.125
 8862TIP3    H126550   1.647   2.053   0.184
 8862TIP3    H226551   1.602   2.195   0.159
 8863TIP3   OH226552   4.337   5.227   4.862
 8863TIP3    H126553   4.347   5.136   4.835
 8863TIP3    H226554   4.317   5.223   4.956
 8864TIP3   OH226555   4.279   5.243   5.134
 8864TIP3    H126556   4.352   5.214   5.189
 8864TIP3    H226557   4.280   5.338   5.142
 8865TIP3   OH226558   4.014   4.934   5.344
 8865TIP3    H126559   3.947   4.979   5.396
 8865TIP3    H226560   4.032   4.993   5.272
 8866TIP3   OH226561   2.703   1.063   0.170
 8866TIP3    H126562   2.777   1.111   0.205
 8866TIP3    H226563   2.691   0.989   0.230
 8867TIP3   OH226564   5.063   4.309   5.407
 8867TIP3    H126565   5.043   4.326   5.315
 8867TIP3    H226566   5.104   4.389   5.438
 8868TIP3   OH226567   4.551   5.435   5.081
 8868TIP3    H126568   4.465   5.458   5.117
 8868TIP3    H226569   4.572   5.507   5.021
 8869TIP3   OH226570   4.724   4.506   5.498
 8869TIP3    H126571   4.787   4.574   5.475
 8869TIP3    H226572   4.739   4.490   5.592
 8870TIP3   OH226573   2.564   1.311   0.253
 8870TIP3    H126574   2.585   1.360   0.333
 8870TIP3    H226575   2.617   1.232   0.259
 8871TIP3   OH226576   4.880   4.211   5.593
 8871TIP3    H126577   4.859   4.289   5.644
 8871TIP3    H226578   4.947   4.241   5.531
 8872TIP3   OH226579   4.298   5.515   5.153
 8872TIP3    H126580   4.274   5.585   5.091
 8872TIP3    H226581   4.284   5.554   5.239
 8873TIP3   OH226582   4.394   4.225   5.389
 8873TIP3    H126583   4.383   4.314   5.422
 8873TIP3    H226584   4.488   4.208   5.397
 8874TIP3   OH226585   3.142   1.172   0.205
 8874TIP3    H126586   3.051   1.196   0.220
 8874TIP3    H226587   3.138   1.109   0.132
 8875TIP3   OH226588   5.293   4.900   5.661
 8875TIP3    H126589   5.218   4.842   5.674
 8875TIP3    H226590   5.364   4.859   5.709
 8876TIP3   OH226591   4.027   5.119   5.133
 8876TIP3    H126592   4.097   5.184   5.141
 8876TIP3    H226593   4.061   5.056   5.069
 8877TIP3   OH226594   3.947   4.404   5.268
 8877TIP3    H126595   3.954   4.500   5.271
 8877TIP3    H226596   3.882   4.387   5.200
 8878TIP3   OH226597   5.265   5.867   5.588
 8878TIP3    H126598   5.223   5.916   5.517
 8878TIP3    H226599   5.358   5.885   5.578
 8879TIP3   OH226600   1.877   0.647   0.102
 8879TIP3    H126601   1.851   0.612   0.017
 8879TIP3    H226602   1.870   0.573   0.162
 8880TIP3   OH226603   3.868   5.370   5.525
 8880TIP3    H126604   3.817   5.404   5.599
 8880TIP3    H226605   3.829   5.412   5.449
 8881TIP3   OH226606   1.527   2.386   0.562
 8881TIP3    H126607   1.622   2.396   0.559
 8881TIP3    H226608   1.513   2.291   0.565
 8882TIP3   OH226609   1.995   2.381   0.607
 8882TIP3    H126610   2.089   2.388   0.623
 8882TIP3    H226611   1.989   2.350   0.516
 8883TIP3   OH226612   4.496   5.429   4.760
 8883TIP3    H126613   4.448   5.357   4.802
 8883TIP3    H226614   4.571   5.386   4.718
 8884TIP3   OH226615   2.638   2.289   0.469
 8884TIP3    H126616   2.666   2.218   0.527
 8884TIP3    H226617   2.718   2.313   0.421
 8885TIP3   OH226618   4.936   5.466   4.683
 8885TIP3    H126619   4.969   5.402   4.745
 8885TIP3    H226620   4.995   5.460   4.608
 8886TIP3   OH226621   1.698   1.788   0.728
 8886TIP3    H126622   1.719   1.695   0.737
 8886TIP3    H226623   1.609   1.789   0.694
 8887TIP3   OH226624   4.159   4.928   4.990
 8887TIP3    H126625   4.212   4.904   5.066
 8887TIP3    H226626   4.222   4.939   4.919
 8888TIP3   OH226627   2.287   1.857   0.427
 8888TIP3    H126628   2.263   1.895   0.343
 8888TIP3    H226629   2.318   1.769   0.406
 8889TIP3   OH226630   4.709   5.148   4.812
 8889TIP3    H126631   4.691   5.161   4.905
 8889TIP3    H226632   4.698   5.054   4.798
 8890TIP3   OH226633   2.758   1.893   0.060
 8890TIP3    H126634   2.829   1.917   0.001
 8890TIP3    H226635   2.684   1.947   0.032
 8891TIP3   OH226636   1.838   1.530   0.730
 8891TIP3    H126637   1.922   1.492   0.704
 8891TIP3    H226638   1.852   1.558   0.821
 8892TIP3   OH226639   4.340   4.861   5.197
 8892TIP3    H126640   4.318   4.823   5.282
 8892TIP3    H226641   4.385   4.791   5.150
 8893TIP3   OH226642   2.130   1.416   0.353
 8893TIP3    H126643   2.077   1.488   0.388
 8893TIP3    H226644   2.199   1.460   0.304
 8894TIP3   OH226645   4.470   4.670   5.042
 8894TIP3    H126646   4.441   4.673   4.951
 8894TIP3    H226647   4.566   4.675   5.037
 8895TIP3   OH226648   2.655   1.759   0.389
 8895TIP3    H126649   2.746   1.786   0.375
 8895TIP3    H226650   2.632   1.796   0.475
 8896TIP3   OH226651   5.273   4.972   4.719
 8896TIP3    H126652   5.257   4.929   4.635
 8896TIP3    H226653   5.246   5.063   4.705
 8897TIP3   OH226654   2.277   1.220   0.500
 8897TIP3    H126655   2.286   1.143   0.445
 8897TIP3    H226656   2.237   1.286   0.442
 8898TIP3   OH226657   2.278   1.015   0.310
 8898TIP3    H126658   2.300   1.072   0.237
 8898TIP3    H226659   2.188   0.988   0.294
 8899TIP3   OH226660   2.296   1.513   0.153
 8899TIP3    H126661   2.377   1.554   0.185
 8899TIP3    H226662   2.243   1.587   0.121
 8900TIP3   OH226663   2.974   1.633   0.528
 8900TIP3    H126664   2.975   1.544   0.494
 8900TIP3    H226665   3.060   1.644   0.570
 8901TIP3   OH226666   2.907   1.757   0.239
 8901TIP3    H126667   2.857   1.804   0.172
 8901TIP3    H226668   2.998   1.769   0.213
 8902TIP3   OH226669   2.101   1.300   0.698
 8902TIP3    H126670   2.065   1.221   0.739
 8902TIP3    H226671   2.166   1.267   0.636
 8903TIP3   OH226672   2.411   0.783   0.408
 8903TIP3    H126673   2.367   0.862   0.376
 8903TIP3    H226674   2.346   0.714   0.396
 8904TIP3   OH226675   2.530   1.244   0.608
 8904TIP3    H126676   2.524   1.235   0.704
 8904TIP3    H226677   2.440   1.231   0.578
 8905TIP3   OH226678   2.753   1.212   0.458
 8905TIP3    H126679   2.677   1.209   0.518
 8905TIP3    H226680   2.827   1.183   0.512
 8906TIP3   OH226681   2.967   1.137   0.597
 8906TIP3    H126682   3.003   1.050   0.578
 8906TIP3    H226683   2.962   1.140   0.693
 8907TIP3   OH226684   1.995   1.075   0.818
 8907TIP3    H126685   1.999   0.985   0.787
 8907TIP3    H226686   2.036   1.072   0.904
 8908TIP3   OH226687   2.486   0.763   0.672
 8908TIP3    H126688   2.556   0.697   0.668
 8908TIP3    H226689   2.455   0.771   0.582
 8909TIP3   OH226690   2.571   0.984   0.808
 8909TIP3    H126691   2.547   0.905   0.759
 8909TIP3    H226692   2.494   1.040   0.802
 8910TIP3   OH226693   4.286   5.722   4.967
 8910TIP3    H126694   4.377   5.704   4.942
 8910TIP3    H226695   4.249   5.768   4.892
 8911TIP3   OH226696   3.755   5.097   5.165
 8911TIP3    H126697   3.848   5.114   5.154
 8911TIP3    H226698   3.740   5.013   5.123
 8912TIP3   OH226699   3.665   5.695   5.604
 8912TIP3    H126700   3.601   5.640   5.559
 8912TIP3    H226701   3.710   5.635   5.664
 8913TIP3   OH226702   3.803   5.531   5.779
 8913TIP3    H126703   3.791   5.464   5.846
 8913TIP3    H226704   3.855   5.599   5.822
 8914TIP3   OH226705   5.525   5.949   5.571
 8914TIP3    H126706   5.566   5.954   5.657
 8914TIP3    H226707   5.591   5.984   5.511
 8915TIP3   OH226708   5.615   5.935   5.833
 8915TIP3    H126709   5.569   5.852   5.839
 8915TIP3    H226710   5.659   5.945   5.917
 8916TIP3   OH226711   5.418   5.171   5.052
 8916TIP3    H126712   5.477   5.240   5.020
 8916TIP3    H226713   5.464   5.132   5.126
 8917TIP3   OH226714   5.546   5.028   5.250
 8917TIP3    H126715   5.480   4.989   5.306
 8917TIP3    H226716   5.611   5.064   5.311
 8918TIP3   OH226717   5.581   5.414   5.655
 8918TIP3    H126718   5.639   5.353   5.610
 8918TIP3    H226719   5.576   5.490   5.596
 8919TIP3   OH226720   5.434   5.729   5.818
 8919TIP3    H126721   5.382   5.774   5.884
 8919TIP3    H226722   5.370   5.689   5.759
 8920TIP3   OH226723   5.478   4.949   4.900
 8920TIP3    H126724   5.408   4.946   4.834
 8920TIP3    H226725   5.458   5.025   4.954
 8921TIP3   OH226726   5.341   4.603   4.842
 8921TIP3    H126727   5.296   4.644   4.769
 8921TIP3    H226728   5.326   4.509   4.831
 8922TIP3   OH226729   5.355   4.890   5.392
 8922TIP3    H126730   5.362   4.795   5.382
 8922TIP3    H226731   5.338   4.902   5.486
 8923TIP3   OH226732   1.528   1.432   0.099
 8923TIP3    H126733   1.517   1.401   0.009
 8923TIP3    H226734   1.620   1.459   0.104
 8924TIP3   OH226735   3.169   1.790   0.183
 8924TIP3    H126736   3.227   1.725   0.223
 8924TIP3    H226737   3.226   1.865   0.166
 8925TIP3   OH226738   3.361   1.583   0.207
 8925TIP3    H126739   3.290   1.541   0.256
 8925TIP3    H226740   3.439   1.533   0.229
 8926TIP3   OH226741   5.293   4.334   4.817
 8926TIP3    H126742   5.357   4.305   4.881
 8926TIP3    H226743   5.212   4.291   4.843
 8927TIP3   OH226744   5.358   4.614   5.278
 8927TIP3    H126745   5.402   4.530   5.291
 8927TIP3    H226746   5.404   4.654   5.204
 8928TIP3   OH226747   5.510   4.760   5.779
 8928TIP3    H126748   5.595   4.770   5.737
 8928TIP3    H226749   5.519   4.804   5.864
 8929TIP3   OH226750   5.573   4.920   5.994
 8929TIP3    H126751   5.490   4.956   6.025
 8929TIP3    H226752   5.600   4.980   5.924
 8930TIP3   OH226753   1.737   1.154   0.767
 8930TIP3    H126754   1.832   1.146   0.776
 8930TIP3    H226755   1.702   1.073   0.803
 8931TIP3   OH226756   3.557   0.993   0.487
 8931TIP3    H126757   3.600   0.923   0.537
 8931TIP3    H226758   3.629   1.039   0.443
 8932TIP3   OH226759   5.469   4.361   5.326
 8932TIP3    H126760   5.512   4.345   5.410
 8932TIP3    H226761   5.405   4.290   5.318
 8933TIP3   OH226762   1.718   0.874   0.099
 8933TIP3    H126763   1.772   0.795   0.094
 8933TIP3    H226764   1.683   0.873   0.188
 8934TIP3   OH226765   1.488   1.108   0.166
 8934TIP3    H126766   1.526   1.084   0.081
 8934TIP3    H226767   1.506   1.202   0.174
 8935TIP3   OH226768   3.490   1.110   0.226
 8935TIP3    H126769   3.427   1.183   0.224
 8935TIP3    H226770   3.435   1.032   0.234
 8936TIP3   OH226771   5.527   4.283   4.968
 8936TIP3    H126772   5.570   4.221   4.909
 8936TIP3    H226773   5.585   4.360   4.968
 8937TIP3   OH226774   3.944   4.135   5.732
 8937TIP3    H126775   3.854   4.113   5.757
 8937TIP3    H226776   3.934   4.182   5.649
 8938TIP3   OH226777   5.102   5.831   5.227
 8938TIP3    H126778   5.159   5.822   5.151
 8938TIP3    H226779   5.143   5.900   5.280
 8939TIP3   OH226780   1.698   0.705   0.495
 8939TIP3    H126781   1.651   0.693   0.578
 8939TIP3    H226782   1.635   0.747   0.437
 8940TIP3   OH226783   1.731   2.138   0.560
 8940TIP3    H126784   1.639   2.117   0.549
 8940TIP3    H226785   1.771   2.058   0.592
 8941TIP3   OH226786   1.927   2.184   0.114
 8941TIP3    H126787   1.869   2.251   0.076
 8941TIP3    H226788   2.010   2.194   0.068
 8942TIP3   OH226789   2.323   2.411   0.146
 8942TIP3    H126790   2.341   2.379   0.234
 8942TIP3    H226791   2.404   2.456   0.120
 8943TIP3   OH226792   2.530   2.583   0.059
 8943TIP3    H126793   2.579   2.548  -0.016
 8943TIP3    H226794   2.597   2.597   0.127
 8944TIP3   OH226795   3.317   0.897   0.211
 8944TIP3    H126796   3.226   0.901   0.180
 8944TIP3    H226797   3.344   0.806   0.197
 8945TIP3   OH226798   1.575   2.391   0.138
 8945TIP3    H126799   1.486   2.412   0.111
 8945TIP3    H226800   1.598   2.459   0.201
 8946TIP3   OH226801   4.276   5.887   6.036
 8946TIP3    H126802   4.192   5.888   6.082
 8946TIP3    H226803   4.255   5.919   5.948
 8947TIP3   OH226804   4.709   5.902   5.814
 8947TIP3    H126805   4.636   5.909   5.753
 8947TIP3    H226806   4.721   5.992   5.847
 8948TIP3   OH226807   4.976   5.860   5.872
 8948TIP3    H126808   4.882   5.862   5.851
 8948TIP3    H226809   5.017   5.911   5.802
 8949TIP3   OH226810   5.194   6.048   5.781
 8949TIP3    H126811   5.173   6.132   5.741
 8949TIP3    H226812   5.214   5.991   5.707
 8950TIP3   OH226813   3.977   5.707   5.921
 8950TIP3    H126814   3.996   5.681   6.011
 8950TIP3    H226815   4.049   5.670   5.869
 8951TIP3   OH226816   4.176   5.585   5.786
 8951TIP3    H126817   4.188   5.503   5.835
 8951TIP3    H226818   4.263   5.624   5.783
 8952TIP3   OH226819   4.438   5.671   5.788
 8952TIP3    H126820   4.461   5.580   5.773
 8952TIP3    H226821   4.486   5.696   5.867
 8953TIP3   OH226822   5.003   4.323   5.889
 8953TIP3    H126823   4.966   4.250   5.939
 8953TIP3    H226824   5.074   4.283   5.838
 8954TIP3   OH226825   5.515   4.228   5.786
 8954TIP3    H126826   5.553   4.277   5.712
 8954TIP3    H226827   5.422   4.252   5.784
 8955TIP3   OH226828   5.626   4.309   5.549
 8955TIP3    H126829   5.697   4.253   5.520
 8955TIP3    H226830   5.657   4.398   5.534
 8956TIP3   OH226831   4.258   4.029   5.904
 8956TIP3    H126832   4.168   3.998   5.908
 8956TIP3    H226833   4.311   3.950   5.893
 8957TIP3   OH226834   4.070   3.929   5.550
 8957TIP3    H126835   4.096   3.977   5.472
 8957TIP3    H226836   4.036   3.996   5.610
 8958TIP3   OH226837   4.725   4.066   5.783
 8958TIP3    H126838   4.773   4.114   5.715
 8958TIP3    H226839   4.766   4.092   5.865
 8959TIP3   OH226840   5.229   4.217   5.766
 8959TIP3    H126841   5.237   4.184   5.676
 8959TIP3    H226842   5.231   4.139   5.821
 8960TIP3   OH226843   5.282   4.152   5.327
 8960TIP3    H126844   5.202   4.199   5.349
 8960TIP3    H226845   5.271   4.066   5.367
 8961TIP3   OH226846   3.754   5.497   5.311
 8961TIP3    H126847   3.670   5.463   5.282
 8961TIP3    H226848   3.756   5.587   5.280
 8962TIP3   OH226849   4.177   4.060   5.312
 8962TIP3    H126850   4.221   3.999   5.253
 8962TIP3    H226851   4.247   4.117   5.345
 8963TIP3   OH226852   4.669   4.254   5.407
 8963TIP3    H126853   4.728   4.202   5.462
 8963TIP3    H226854   4.685   4.344   5.433
 8964TIP3   OH226855   4.546   5.655   4.904
 8964TIP3    H126856   4.630   5.683   4.867
 8964TIP3    H226857   4.518   5.583   4.847
 8965TIP3   OH226858   5.255   5.795   4.998
 8965TIP3    H126859   5.248   5.699   4.990
 8965TIP3    H226860   5.210   5.828   4.920
 8966TIP3   OH226861   2.010   0.811   0.733
 8966TIP3    H126862   1.973   0.746   0.792
 8966TIP3    H226863   2.102   0.817   0.757
 8967TIP3   OH226864   2.257   0.817   0.858
 8967TIP3    H126865   2.336   0.794   0.811
 8967TIP3    H226866   2.249   0.750   0.926
 8968TIP3   OH226867   3.847   5.498   4.958
 8968TIP3    H126868   3.849   5.511   5.053
 8968TIP3    H226869   3.929   5.452   4.939
 8969TIP3   OH226870   3.070   0.890   0.582
 8969TIP3    H126871   3.069   0.856   0.672
 8969TIP3    H226872   3.161   0.879   0.553
 8970TIP3   OH226873   6.737   5.312   4.921
 8970TIP3    H126874   6.713   5.401   4.893
 8970TIP3    H226875   6.655   5.273   4.950
 8971TIP3   OH226876   6.687   5.290   5.355
 8971TIP3    H126877   6.781   5.274   5.369
 8971TIP3    H226878   6.649   5.202   5.349
 8972TIP3   OH226879   6.048   5.196   5.684
 8972TIP3    H126880   6.073   5.129   5.749
 8972TIP3    H226881   6.125   5.205   5.628
 8973TIP3   OH226882   6.011   5.606   5.422
 8973TIP3    H126883   5.995   5.511   5.422
 8973TIP3    H226884   6.105   5.613   5.403
 8974TIP3   OH226885   5.719   4.811   5.187
 8974TIP3    H126886   5.674   4.893   5.208
 8974TIP3    H226887   5.651   4.757   5.146
 8975TIP3   OH226888   5.782   5.096   5.375
 8975TIP3    H126889   5.830   5.021   5.409
 8975TIP3    H226890   5.842   5.135   5.311
 8976TIP3   OH226891   6.514   5.497   5.287
 8976TIP3    H126892   6.567   5.424   5.319
 8976TIP3    H226893   6.555   5.522   5.204
 8977TIP3   OH226894   6.943   5.026   5.395
 8977TIP3    H126895   6.969   4.940   5.427
 8977TIP3    H226896   6.904   5.009   5.309
 8978TIP3   OH226897   6.306   4.680   5.345
 8978TIP3    H126898   6.282   4.760   5.299
 8978TIP3    H226899   6.252   4.612   5.304
 8979TIP3   OH226900   7.021   4.797   5.003
 8979TIP3    H126901   7.054   4.708   5.014
 8979TIP3    H226902   7.061   4.829   4.923
 8980TIP3   OH226903   5.923   4.883   5.475
 8980TIP3    H126904   6.000   4.853   5.525
 8980TIP3    H226905   5.928   4.835   5.393
 8981TIP3   OH226906   6.365   5.100   5.283
 8981TIP3    H126907   6.454   5.067   5.299
 8981TIP3    H226908   6.318   5.025   5.247
 8982TIP3   OH226909   6.296   4.682   5.793
 8982TIP3    H126910   6.238   4.698   5.718
 8982TIP3    H226911   6.239   4.690   5.870
 8983TIP3   OH226912   6.648   5.544   4.799
 8983TIP3    H126913   6.608   5.516   4.716
 8983TIP3    H226914   6.605   5.627   4.819
 8984TIP3   OH226915   6.396   5.425   5.614
 8984TIP3    H126916   6.351   5.482   5.677
 8984TIP3    H226917   6.430   5.486   5.548
 8985TIP3   OH226918   7.218   4.782   5.240
 8985TIP3    H126919   7.149   4.771   5.306
 8985TIP3    H226920   7.183   4.848   5.180
 8986TIP3   OH226921   6.147   4.744   5.570
 8986TIP3    H126922   6.197   4.826   5.574
 8986TIP3    H226923   6.189   4.694   5.500
 8987TIP3   OH226924   5.591   5.354   4.943
 8987TIP3    H126925   5.576   5.358   4.848
 8987TIP3    H226926   5.630   5.439   4.964
 8988TIP3   OH226927   6.627   4.368   5.518
 8988TIP3    H126928   6.613   4.278   5.546
 8988TIP3    H226929   6.557   4.417   5.559
 8989TIP3   OH226930   6.921   5.647   4.764
 8989TIP3    H126931   6.920   5.586   4.690
 8989TIP3    H226932   6.833   5.641   4.801
 8990TIP3   OH226933   6.537   5.127   4.753
 8990TIP3    H126934   6.479   5.203   4.761
 8990TIP3    H226935   6.609   5.157   4.697
 8991TIP3   OH226936   6.537   4.930   4.551
 8991TIP3    H126937   6.609   4.992   4.552
 8991TIP3    H226938   6.559   4.870   4.480
 8992TIP3   OH226939   6.927   5.242   4.740
 8992TIP3    H126940   6.871   5.268   4.814
 8992TIP3    H226941   7.009   5.216   4.781
 8993TIP3   OH226942   6.268   5.628   5.299
 8993TIP3    H126943   6.236   5.627   5.209
 8993TIP3    H226944   6.352   5.581   5.295
 8994TIP3   OH226945   6.254   5.225   5.496
 8994TIP3    H126946   6.297   5.196   5.416
 8994TIP3    H226947   6.310   5.295   5.530
 8995TIP3   OH226948   6.758   5.102   4.577
 8995TIP3    H126949   6.820   5.159   4.624
 8995TIP3    H226950   6.782   5.112   4.485
 8996TIP3   OH226951   6.222   5.275   5.943
 8996TIP3    H126952   6.250   5.355   5.988
 8996TIP3    H226953   6.127   5.273   5.956
 8997TIP3   OH226954   6.527   5.789   4.834
 8997TIP3    H126955   6.511   5.843   4.912
 8997TIP3    H226956   6.466   5.823   4.769
 8998TIP3   OH226957   7.241   4.350   4.634
 8998TIP3    H126958   7.167   4.375   4.690
 8998TIP3    H226959   7.260   4.428   4.583
 8999TIP3   OH226960   7.084   5.711   4.181
 8999TIP3    H126961   7.083   5.804   4.157
 8999TIP3    H226962   7.175   5.684   4.168
 9000TIP3   OH226963   5.825   5.463   5.799
 9000TIP3    H126964   5.755   5.439   5.738
 9000TIP3    H226965   5.872   5.381   5.816
 9001TIP3   OH226966   5.638   5.647   5.505
 9001TIP3    H126967   5.734   5.650   5.497
 9001TIP3    H226968   5.617   5.719   5.565
 9002TIP3   OH226969   6.396   6.006   4.664
 9002TIP3    H126970   6.350   5.986   4.583
 9002TIP3    H226971   6.363   6.092   4.690
 9003TIP3   OH226972   5.831   5.856   5.024
 9003TIP3    H126973   5.863   5.847   5.113
 9003TIP3    H226974   5.779   5.778   5.008
 9004TIP3   OH226975   6.593   5.911   4.288
 9004TIP3    H126976   6.646   5.842   4.248
 9004TIP3    H226977   6.629   5.921   4.376
 9005TIP3   OH226978   6.645   5.965   4.554
 9005TIP3    H126979   6.566   5.972   4.606
 9005TIP3    H226980   6.708   5.921   4.612
 9006TIP3   OH226981   6.402   4.471   5.644
 9006TIP3    H126982   6.314   4.440   5.624
 9006TIP3    H226983   6.389   4.550   5.695
 9007TIP3   OH226984   6.916   4.576   5.759
 9007TIP3    H126985   6.981   4.581   5.829
 9007TIP3    H226986   6.833   4.561   5.804
 9008TIP3   OH226987   6.843   5.110   4.320
 9008TIP3    H126988   6.795   5.106   4.238
 9008TIP3    H226989   6.926   5.154   4.298
 9009TIP3   OH226990   6.549   4.515   4.636
 9009TIP3    H126991   6.507   4.522   4.722
 9009TIP3    H226992   6.510   4.436   4.597
 9010TIP3   OH226993   6.303   4.958   5.558
 9010TIP3    H126994   6.332   4.981   5.646
 9010TIP3    H226995   6.282   5.041   5.516
 9011TIP3   OH226996   6.214   4.888   5.178
 9011TIP3    H126997   6.128   4.851   5.198
 9011TIP3    H226998   6.211   4.907   5.084
 9012TIP3   OH226999   6.703   4.963   4.911
 9012TIP3    H127000   6.648   5.028   4.866
 9012TIP3    H227001   6.760   4.930   4.842
 9013TIP3   OH227002   6.854   4.968   5.142
 9013TIP3    H127003   6.788   4.986   5.075
 9013TIP3    H227004   6.910   4.901   5.103
 9014TIP3   OH227005   6.209   4.998   5.830
 9014TIP3    H127006   6.204   5.049   5.911
 9014TIP3    H227007   6.186   4.909   5.856
 9015TIP3   OH227008   6.217   4.510   4.599
 9015TIP3    H127009   6.201   4.500   4.692
 9015TIP3    H227010   6.139   4.554   4.565
 9016TIP3   OH227011   5.742   4.537   5.464
 9016TIP3    H127012   5.815   4.559   5.522
 9016TIP3    H227013   5.784   4.506   5.383
 9017TIP3   OH227014   5.687   4.515   4.983
 9017TIP3    H127015   5.727   4.549   4.903
 9017TIP3    H227016   5.623   4.582   5.008
 9018TIP3   OH227017   6.570   4.678   5.248
 9018TIP3    H127018   6.488   4.678   5.296
 9018TIP3    H227019   6.637   4.664   5.315
 9019TIP3   OH227020   5.982   4.747   5.238
 9019TIP3    H127021   5.891   4.761   5.210
 9019TIP3    H227022   6.000   4.655   5.219
 9020TIP3   OH227023   7.013   4.750   5.431
 9020TIP3    H127024   7.034   4.719   5.519
 9020TIP3    H227025   6.937   4.699   5.404
 9021TIP3   OH227026   6.623   5.019   5.351
 9021TIP3    H127027   6.691   4.968   5.306
 9021TIP3    H227028   6.625   4.987   5.441
 9022TIP3   OH227029   6.151   4.487   5.223
 9022TIP3    H127030   6.103   4.425   5.278
 9022TIP3    H227031   6.218   4.433   5.180
 9023TIP3   OH227032   6.623   4.962   5.630
 9023TIP3    H127033   6.555   5.022   5.662
 9023TIP3    H227034   6.691   4.965   5.698
 9024TIP3   OH227035   6.339   5.320   4.742
 9024TIP3    H127036   6.280   5.245   4.746
 9024TIP3    H227037   6.327   5.364   4.827
 9025TIP3   OH227038   6.801   4.610   4.622
 9025TIP3    H127039   6.708   4.588   4.621
 9025TIP3    H227040   6.803   4.705   4.629
 9026TIP3   OH227041   6.866   4.875   4.703
 9026TIP3    H127042   6.962   4.878   4.707
 9026TIP3    H227043   6.843   4.947   4.644
 9027TIP3   OH227044   6.020   5.329   5.385
 9027TIP3    H127045   6.060   5.306   5.301
 9027TIP3    H227046   6.078   5.291   5.451
 9028TIP3   OH227047   6.493   5.467   4.574
 9028TIP3    H127048   6.449   5.552   4.570
 9028TIP3    H227049   6.434   5.412   4.626
 9029TIP3   OH227050   5.956   5.296   5.997
 9029TIP3    H127051   5.951   5.309   6.091
 9029TIP3    H227052   5.889   5.230   5.978
 9030TIP3   OH227053   7.273   4.968   4.531
 9030TIP3    H127054   7.222   4.916   4.468
 9030TIP3    H227055   7.276   5.056   4.493
 9031TIP3   OH227056   6.981   5.750   4.436
 9031TIP3    H127057   6.963   5.667   4.479
 9031TIP3    H227058   7.010   5.726   4.348
 9032TIP3   OH227059   6.134   5.642   5.048
 9032TIP3    H127060   6.138   5.721   4.995
 9032TIP3    H227061   6.040   5.629   5.066
 9033TIP3   OH227062   5.710   4.934   4.750
 9033TIP3    H127063   5.765   5.006   4.779
 9033TIP3    H227064   5.631   4.941   4.804
 9034TIP3   OH227065   6.291   5.423   4.986
 9034TIP3    H127066   6.239   5.502   5.004
 9034TIP3    H227067   6.255   5.357   5.046
 9035TIP3   OH227068   6.075   5.873   4.897
 9035TIP3    H127069   5.986   5.878   4.932
 9035TIP3    H227070   6.107   5.963   4.900
 9036TIP3   OH227071   6.775   5.507   4.336
 9036TIP3    H127072   6.814   5.484   4.421
 9036TIP3    H227073   6.687   5.470   4.339
 9037TIP3   OH227074   7.094   5.978   4.127
 9037TIP3    H127075   7.090   6.035   4.051
 9037TIP3    H227076   7.030   6.014   4.188
 9038TIP3   OH227077   6.090   4.756   5.964
 9038TIP3    H127078   6.002   4.718   5.973
 9038TIP3    H227079   6.135   4.731   6.045
 9039TIP3   OH227080   6.937   5.452   4.558
 9039TIP3    H127081   6.921   5.380   4.620
 9039TIP3    H227082   7.031   5.446   4.539
 9040TIP3   OH227083   5.826   5.832   5.630
 9040TIP3    H127084   5.897   5.769   5.643
 9040TIP3    H227085   5.826   5.886   5.709
 9041TIP3   OH227086   6.136   5.485   4.350
 9041TIP3    H127087   6.142   5.393   4.324
 9041TIP3    H227088   6.110   5.481   4.442
 9042TIP3   OH227089   6.069   5.500   4.617
 9042TIP3    H127090   6.135   5.467   4.678
 9042TIP3    H227091   6.072   5.595   4.629
 9043TIP3   OH227092   6.849   4.579   4.892
 9043TIP3    H127093   6.828   4.578   4.798
 9043TIP3    H227094   6.862   4.672   4.912
 9044TIP3   OH227095   6.354   5.699   4.576
 9044TIP3    H127096   6.265   5.716   4.606
 9044TIP3    H227097   6.370   5.765   4.508
 9045TIP3   OH227098   6.531   4.760   4.986
 9045TIP3    H127099   6.588   4.836   4.969
 9045TIP3    H227100   6.535   4.749   5.081
 9046TIP3   OH227101   6.668   4.472   5.079
 9046TIP3    H127102   6.643   4.548   5.131
 9046TIP3    H227103   6.734   4.504   5.018
 9047TIP3   OH227104   6.097   5.772   4.641
 9047TIP3    H127105   6.070   5.841   4.580
 9047TIP3    H227106   6.085   5.810   4.728
 9048TIP3   OH227107   6.182   4.468   4.871
 9048TIP3    H127108   6.151   4.530   4.938
 9048TIP3    H227109   6.277   4.470   4.879
 9049TIP3   OH227110   7.085   5.131   5.125
 9049TIP3    H127111   6.997   5.093   5.133
 9049TIP3    H227112   7.098   5.179   5.207
 9050TIP3   OH227113   5.802   5.405   4.581
 9050TIP3    H127114   5.877   5.460   4.604
 9050TIP3    H227115   5.841   5.330   4.537
 9051TIP3   OH227116   5.737   4.656   4.756
 9051TIP3    H127117   5.751   4.751   4.759
 9051TIP3    H227118   5.674   4.643   4.685
 9052TIP3   OH227119   6.141   4.380   5.624
 9052TIP3    H127120   6.111   4.345   5.540
 9052TIP3    H227121   6.136   4.306   5.684
 9053TIP3   OH227122   5.671   5.627   5.006
 9053TIP3    H127123   5.618   5.655   5.080
 9053TIP3    H227124   5.627   5.666   4.930
 9054TIP3   OH227125   6.291   5.687   4.249
 9054TIP3    H127126   6.242   5.614   4.287
 9054TIP3    H227127   6.365   5.645   4.204
 9055TIP3   OH227128   6.733   5.717   4.159
 9055TIP3    H127129   6.771   5.653   4.220
 9055TIP3    H227130   6.792   5.715   4.083
 9056TIP3   OH227131   5.941   5.192   4.473
 9056TIP3    H127132   5.983   5.149   4.548
 9056TIP3    H227133   6.011   5.202   4.409
 9057TIP3   OH227134   6.516   5.403   4.306
 9057TIP3    H127135   6.493   5.419   4.398
 9057TIP3    H227136   6.505   5.309   4.294
 9058TIP3   OH227137   6.433   5.132   5.749
 9058TIP3    H127138   6.364   5.089   5.800
 9058TIP3    H227139   6.396   5.217   5.725
 9059TIP3   OH227140   7.067   5.225   4.205
 9059TIP3    H127141   7.052   5.182   4.121
 9059TIP3    H227142   7.043   5.317   4.190
 9060TIP3   OH227143   2.182   0.916   1.776
 9060TIP3    H127144   2.157   0.885   1.863
 9060TIP3    H227145   2.127   0.993   1.761
 9061TIP3   OH227146   6.569   4.724   5.789
 9061TIP3    H127147   6.574   4.788   5.718
 9061TIP3    H227148   6.477   4.725   5.815
 9062TIP3   OH227149   6.684   4.498   5.887
 9062TIP3    H127150   6.642   4.579   5.858
 9062TIP3    H227151   6.614   4.432   5.887
 9063TIP3   OH227152   3.880   1.381   0.304
 9063TIP3    H127153   3.860   1.306   0.248
 9063TIP3    H227154   3.841   1.359   0.388
 9064TIP3   OH227155   4.255   0.983   0.116
 9064TIP3    H127156   4.343   0.956   0.141
 9064TIP3    H227157   4.255   0.978   0.020
 9065TIP3   OH227158   6.079   5.980   4.457
 9065TIP3    H127159   6.169   5.964   4.431
 9065TIP3    H227160   6.039   6.024   4.382
 9066TIP3   OH227161   5.548   5.349   4.660
 9066TIP3    H127162   5.638   5.376   4.638
 9066TIP3    H227163   5.537   5.265   4.615
 9067TIP3   OH227164   5.460   5.953   5.085
 9067TIP3    H127165   5.394   5.899   5.041
 9067TIP3    H227166   5.503   5.893   5.146
 9068TIP3   OH227167   5.590   5.787   5.261
 9068TIP3    H127168   5.575   5.720   5.328
 9068TIP3    H227169   5.638   5.856   5.305
 9069TIP3   OH227170   7.212   5.426   4.537
 9069TIP3    H127171   7.266   5.496   4.501
 9069TIP3    H227172   7.258   5.397   4.616
 9070TIP3   OH227173   7.342   5.312   4.755
 9070TIP3    H127174   7.273   5.257   4.793
 9070TIP3    H227175   7.378   5.361   4.829
 9071TIP3   OH227176   7.262   5.202   4.391
 9071TIP3    H127177   7.194   5.200   4.323
 9071TIP3    H227178   7.242   5.281   4.442
 9072TIP3   OH227179   7.122   4.862   4.333
 9072TIP3    H127180   7.087   4.901   4.253
 9072TIP3    H227181   7.105   4.768   4.322
 9073TIP3   OH227182   7.157   5.140   4.862
 9073TIP3    H127183   7.162   5.047   4.839
 9073TIP3    H227184   7.139   5.141   4.956
 9074TIP3   OH227185   5.788   5.241   5.603
 9074TIP3    H127186   5.785   5.203   5.516
 9074TIP3    H227187   5.879   5.231   5.631
 9075TIP3   OH227188   7.076   4.596   4.314
 9075TIP3    H127189   7.141   4.559   4.373
 9075TIP3    H227190   6.997   4.545   4.329
 9076TIP3   OH227191   7.151   4.871   4.762
 9076TIP3    H127192   7.193   4.787   4.778
 9076TIP3    H227193   7.192   4.905   4.683
 9077TIP3   OH227194   3.593   1.424   0.240
 9077TIP3    H127195   3.673   1.470   0.215
 9077TIP3    H227196   3.610   1.333   0.217
 9078TIP3   OH227197   7.255   4.626   4.834
 9078TIP3    H127198   7.314   4.611   4.908
 9078TIP3    H227199   7.200   4.548   4.830
 9079TIP3   OH227200   5.944   4.572   5.652
 9079TIP3    H127201   6.004   4.498   5.656
 9079TIP3    H227202   6.000   4.648   5.635
 9080TIP3   OH227203   5.770   4.838   5.712
 9080TIP3    H127204   5.814   4.849   5.627
 9080TIP3    H227205   5.733   4.924   5.731
 9081TIP3   OH227206   7.315   4.552   4.459
 9081TIP3    H127207   7.366   4.477   4.428
 9081TIP3    H227208   7.357   4.628   4.417
 9082TIP3   OH227209   5.744   4.379   5.212
 9082TIP3    H127210   5.656   4.364   5.246
 9082TIP3    H227211   5.731   4.433   5.133
 9083TIP3   OH227212   5.949   4.421   6.015
 9083TIP3    H127213   5.904   4.425   6.099
 9083TIP3    H227214   5.892   4.468   5.955
 9084TIP3   OH227215   5.758   5.965   5.404
 9084TIP3    H127216   5.781   5.931   5.491
 9084TIP3    H227217   5.825   5.930   5.346
 9085TIP3   OH227218   5.944   5.822   5.269
 9085TIP3    H127219   5.953   5.745   5.324
 9085TIP3    H227220   6.031   5.862   5.269
 9086TIP3   OH227221   6.203   5.899   5.294
 9086TIP3    H127222   6.240   5.812   5.308
 9086TIP3    H227223   6.260   5.958   5.345
 9087TIP3   OH227224   6.802   4.570   5.376
 9087TIP3    H127225   6.757   4.504   5.428
 9087TIP3    H227226   6.865   4.521   5.322
 9088TIP3   OH227227   7.310   4.492   5.271
 9088TIP3    H127228   7.315   4.420   5.208
 9088TIP3    H227229   7.222   4.486   5.308
 9089TIP3   OH227230   0.042   4.638   5.047
 9089TIP3    H127231   0.084   4.557   5.018
 9089TIP3    H227232   0.095   4.707   5.008
 9090TIP3   OH227233   6.050   4.282   5.381
 9090TIP3    H127234   5.960   4.252   5.388
 9090TIP3    H227235   6.102   4.202   5.375
 9091TIP3   OH227236   5.860   4.180   5.035
 9091TIP3    H127237   5.885   4.230   4.957
 9091TIP3    H227238   5.827   4.246   5.096
 9092TIP3   OH227239   6.503   4.330   5.262
 9092TIP3    H127240   6.558   4.375   5.199
 9092TIP3    H227241   6.542   4.350   5.347
 9093TIP3   OH227242   7.030   4.459   5.231
 9093TIP3    H127243   7.040   4.415   5.147
 9093TIP3    H227244   7.024   4.388   5.295
 9094TIP3   OH227245   7.072   4.419   4.841
 9094TIP3    H127246   6.987   4.460   4.854
 9094TIP3    H227247   7.059   4.328   4.867
 9095TIP3   OH227248   5.552   5.753   4.794
 9095TIP3    H127249   5.467   5.717   4.768
 9095TIP3    H227250   5.551   5.844   4.765
 9096TIP3   OH227251   5.966   4.308   4.793
 9096TIP3    H127252   6.007   4.245   4.734
 9096TIP3    H227253   6.038   4.363   4.823
 9097TIP3   OH227254   6.451   4.517   4.897
 9097TIP3    H127255   6.511   4.465   4.950
 9097TIP3    H227256   6.469   4.608   4.921
 9098TIP3   OH227257   6.338   5.913   4.392
 9098TIP3    H127258   6.422   5.939   4.355
 9098TIP3    H227259   6.307   5.842   4.336
 9099TIP3   OH227260   7.014   6.020   4.488
 9099TIP3    H127261   7.005   5.925   4.481
 9099TIP3    H227262   6.978   6.054   4.406
 9100TIP3   OH227263   3.824   0.933   0.215
 9100TIP3    H127264   3.786   0.919   0.301
 9100TIP3    H227265   3.918   0.923   0.227
 9101TIP3   OH227266   4.070   0.908   0.306
 9101TIP3    H127267   4.140   0.928   0.244
 9101TIP3    H227268   4.074   0.980   0.369
 9102TIP3   OH227269   5.644   5.752   4.447
 9102TIP3    H127270   5.643   5.759   4.542
 9102TIP3    H227271   5.726   5.708   4.426
 9103TIP3   OH227272   0.082   5.083   4.677
 9103TIP3    H127273   0.055   5.172   4.701
 9103TIP3    H227274   0.003   5.043   4.642
 9104TIP3   OH227275   7.369   5.621   4.422
 9104TIP3    H127276   7.348   5.626   4.329
 9104TIP3    H227277   7.346   5.708   4.456
 9105TIP3   OH227278   0.179   4.834   4.924
 9105TIP3    H127279   0.255   4.883   4.955
 9105TIP3    H227280   0.211   4.787   4.847
 9106TIP3   OH227281   0.112   4.821   4.482
 9106TIP3    H127282   0.100   4.839   4.389
 9106TIP3    H227283   0.043   4.872   4.525
 9107TIP3   OH227284   0.319   4.947   4.657
 9107TIP3    H127285   0.240   4.996   4.680
 9107TIP3    H227286   0.381   4.968   4.726
 9108TIP3   OH227287   0.495   5.035   4.146
 9108TIP3    H127288   0.420   5.011   4.200
 9108TIP3    H227289   0.479   4.992   4.062
 9109TIP3   OH227290   0.088   5.206   4.245
 9109TIP3    H127291   0.131   5.291   4.256
 9109TIP3    H227292   0.008   5.213   4.297
 9110TIP3   OH227293   0.182   5.447   4.336
 9110TIP3    H127294   0.124   5.516   4.367
 9110TIP3    H227295   0.232   5.487   4.265
 9111TIP3   OH227296   0.185   5.677   4.044
 9111TIP3    H127297   0.177   5.691   3.950
 9111TIP3    H227298   0.228   5.592   4.051
 9112TIP3   OH227299   0.061   4.925   4.238
 9112TIP3    H127300   0.043   5.018   4.254
 9112TIP3    H227301   0.071   4.918   4.144
 9113TIP3   OH227302   0.309   5.437   4.071
 9113TIP3    H127303   0.293   5.347   4.041
 9113TIP3    H227304   0.363   5.475   4.002
 9114TIP3   OH227305   7.342   5.620   4.153
 9114TIP3    H127306   7.429   5.642   4.120
 9114TIP3    H227307   7.320   5.537   4.112
 9115TIP3   OH227308   0.104   4.645   4.703
 9115TIP3    H127309   0.015   4.643   4.738
 9115TIP3    H227310   0.103   4.716   4.639
 9116TIP3   OH227311   0.507   4.623   4.913
 9116TIP3    H127312   0.465   4.556   4.860
 9116TIP3    H227313   0.517   4.698   4.854
 9117TIP3   OH227314   0.150   4.399   4.577
 9117TIP3    H127315   0.218   4.443   4.525
 9117TIP3    H227316   0.120   4.466   4.638
 9118TIP3   OH227317   0.332   4.516   4.229
 9118TIP3    H127318   0.368   4.433   4.260
 9118TIP3    H227319   0.408   4.563   4.193
 9119TIP3   OH227320   0.032   6.012   3.950
 9119TIP3    H127321  -0.014   6.031   4.032
 9119TIP3    H227322   0.042   5.917   3.950
 9120TIP3   OH227323   6.774   2.426   0.542
 9120TIP3    H127324   6.779   2.522   0.546
 9120TIP3    H227325   6.784   2.405   0.450
 9121TIP3   OH227326   6.376   2.378   0.160
 9121TIP3    H127327   6.379   2.300   0.216
 9121TIP3    H227328   6.466   2.412   0.162
 9122TIP3   OH227329   6.559   2.260   0.629
 9122TIP3    H127330   6.482   2.304   0.665
 9122TIP3    H227331   6.626   2.327   0.625
 9123TIP3   OH227332   5.918   1.846   0.650
 9123TIP3    H127333   5.960   1.763   0.674
 9123TIP3    H227334   5.837   1.847   0.701
 9124TIP3   OH227335   0.863   5.987   5.710
 9124TIP3    H127336   0.920   6.031   5.773
 9124TIP3    H227337   0.922   5.928   5.663
 9125TIP3   OH227338   1.533   5.380   5.802
 9125TIP3    H127339   1.454   5.401   5.852
 9125TIP3    H227340   1.549   5.457   5.748
 9126TIP3   OH227341   1.340   6.731   5.338
 9126TIP3    H127342   1.339   6.827   5.334
 9126TIP3    H227343   1.430   6.707   5.319
 9127TIP3   OH227344   1.064   6.173   5.486
 9127TIP3    H127345   1.053   6.146   5.394
 9127TIP3    H227346   1.150   6.213   5.489
 9128TIP3   OH227347   0.804   5.523   5.735
 9128TIP3    H127348   0.812   5.525   5.830
 9128TIP3    H227349   0.745   5.450   5.717
 9129TIP3   OH227350   5.986   2.525   0.287
 9129TIP3    H127351   5.956   2.571   0.209
 9129TIP3    H227352   6.050   2.584   0.327
 9130TIP3   OH227353   6.272   2.303   0.616
 9130TIP3    H127354   6.243   2.384   0.660
 9130TIP3    H227355   6.276   2.327   0.523
 9131TIP3   OH227356   1.068   5.628   5.788
 9131TIP3    H127357   0.974   5.630   5.770
 9131TIP3    H227358   1.093   5.720   5.795
 9132TIP3   OH227359   1.147   5.892   5.794
 9132TIP3    H127360   1.242   5.892   5.805
 9132TIP3    H227361   1.117   5.965   5.848
 9133TIP3   OH227362   1.541   6.013   5.701
 9133TIP3    H127363   1.489   5.967   5.636
 9133TIP3    H227364   1.546   6.103   5.669
 9134TIP3   OH227365   1.345   6.812   5.614
 9134TIP3    H127366   1.283   6.774   5.676
 9134TIP3    H227367   1.328   6.767   5.532
 9135TIP3   OH227368   1.031   6.569   5.524
 9135TIP3    H127369   1.090   6.544   5.595
 9135TIP3    H227370   0.947   6.528   5.547
 9136TIP3   OH227371   3.804   0.024   5.364
 9136TIP3    H127372   3.809   0.096   5.301
 9136TIP3    H227373   3.719   0.036   5.407
 9137TIP3   OH227374   1.194   6.479   5.722
 9137TIP3    H127375   1.176   6.405   5.781
 9137TIP3    H227376   1.290   6.481   5.717
 9138TIP3   OH227377   5.787   2.347   0.106
 9138TIP3    H127378   5.800   2.436   0.074
 9138TIP3    H227379   5.762   2.357   0.198
 9139TIP3   OH227380   5.867   2.063   0.167
 9139TIP3    H127381   5.956   2.045   0.197
 9139TIP3    H227382   5.873   2.152   0.131
 9140TIP3   OH227383   6.277   2.639   0.190
 9140TIP3    H127384   6.208   2.704   0.204
 9140TIP3    H227385   6.346   2.664   0.251
 9141TIP3   OH227386   0.983   6.771   5.338
 9141TIP3    H127387   1.012   6.711   5.406
 9141TIP3    H227388   1.044   6.757   5.266
 9142TIP3   OH227389   1.315   6.269   5.387
 9142TIP3    H127390   1.307   6.224   5.303
 9142TIP3    H227391   1.281   6.357   5.371
 9143TIP3   OH227392   1.471   6.483   5.705
 9143TIP3    H127393   1.527   6.551   5.668
 9143TIP3    H227394   1.523   6.446   5.776
 9144TIP3   OH227395   1.634   6.360   5.882
 9144TIP3    H127396   1.574   6.308   5.935
 9144TIP3    H227397   1.703   6.386   5.942
 9145TIP3   OH227398   1.524   6.251   5.563
 9145TIP3    H127399   1.452   6.247   5.500
 9145TIP3    H227400   1.506   6.330   5.615
 9146TIP3   OH227401   1.396   5.907   5.499
 9146TIP3    H127402   1.344   5.945   5.429
 9146TIP3    H227403   1.381   5.813   5.492
 9147TIP3   OH227404   1.462   6.193   5.998
 9147TIP3    H127405   1.418   6.126   5.946
 9147TIP3    H227406   1.421   6.188   6.084
 9148TIP3   OH227407   1.342   5.640   5.482
 9148TIP3    H127408   1.409   5.610   5.543
 9148TIP3    H227409   1.265   5.587   5.503
 9149TIP3   OH227410   1.404   5.919   5.925
 9149TIP3    H127411   1.437   5.831   5.946
 9149TIP3    H227412   1.458   5.948   5.852
 9150TIP3   OH227413   6.485   2.712   0.358
 9150TIP3    H127414   6.575   2.744   0.348
 9150TIP3    H227415   6.449   2.763   0.430
 9151TIP3   OH227416   1.502   5.660   5.973
 9151TIP3    H127417   1.553   5.639   6.051
 9151TIP3    H227418   1.436   5.591   5.968
 9152TIP3   OH227419   1.576   5.586   5.627
 9152TIP3    H127420   1.619   5.524   5.568
 9152TIP3    H227421   1.634   5.663   5.627
 9153TIP3   OH227422   6.854   2.167   0.897
 9153TIP3    H127423   6.780   2.130   0.848
 9153TIP3    H227424   6.921   2.099   0.893
 9154TIP3   OH227425   5.991   2.029   0.464
 9154TIP3    H127426   5.961   1.962   0.525
 9154TIP3    H227427   6.077   2.055   0.496
 9155TIP3   OH227428   6.531   1.982   0.362
 9155TIP3    H127429   6.570   2.047   0.303
 9155TIP3    H227430   6.446   2.018   0.386
 9156TIP3   OH227431   6.617   2.116   0.129
 9156TIP3    H127432   6.687   2.054   0.106
 9156TIP3    H227433   6.659   2.202   0.122
 9157TIP3   OH227434   5.706   1.986   0.502
 9157TIP3    H127435   5.772   1.933   0.457
 9157TIP3    H227436   5.650   1.922   0.546
 9158TIP3   OH227437   6.263   2.052   0.399
 9158TIP3    H127438   6.223   2.068   0.314
 9158TIP3    H227439   6.239   1.962   0.421
 9159TIP3   OH227440   1.313   5.446   5.954
 9159TIP3    H127441   1.232   5.456   5.904
 9159TIP3    H227442   1.303   5.360   5.996
 9160TIP3   OH227443   0.778   5.477   6.003
 9160TIP3    H127444   0.743   5.388   6.015
 9160TIP3    H227445   0.825   5.495   6.084
 9161TIP3   OH227446   2.790   6.614   5.604
 9161TIP3    H127447   2.758   6.702   5.583
 9161TIP3    H227448   2.720   6.555   5.578
 9162TIP3   OH227449   2.780   6.608   6.001
 9162TIP3    H127450   2.821   6.590   6.085
 9162TIP3    H227451   2.738   6.525   5.977
 9163TIP3   OH227452   7.046   3.002   0.339
 9163TIP3    H127453   7.071   2.935   0.404
 9163TIP3    H227454   7.129   3.033   0.304
 9164TIP3   OH227455   3.041   6.903   5.688
 9164TIP3    H127456   3.030   6.834   5.753
 9164TIP3    H227457   3.068   6.980   5.738
 9165TIP3   OH227458   7.032   3.408   0.046
 9165TIP3    H127459   7.014   3.314   0.051
 9165TIP3    H227460   7.122   3.414   0.016
 9166TIP3   OH227461   1.770   6.107   5.843
 9166TIP3    H127462   1.741   6.197   5.859
 9166TIP3    H227463   1.693   6.062   5.808
 9167TIP3   OH227464   1.860   6.405   6.028
 9167TIP3    H127465   1.900   6.330   6.072
 9167TIP3    H227466   1.933   6.464   6.011
 9168TIP3   OH227467   5.135   0.372   5.689
 9168TIP3    H127468   5.176   0.295   5.650
 9168TIP3    H227469   5.161   0.369   5.781
 9169TIP3   OH227470   2.620   6.837   6.021
 9169TIP3    H127471   2.658   6.756   5.986
 9169TIP3    H227472   2.695   6.885   6.056
 9170TIP3   OH227473   3.612   6.142   6.025
 9170TIP3    H127474   3.632   6.225   6.069
 9170TIP3    H227475   3.640   6.156   5.934
 9171TIP3   OH227476   3.001   6.326   6.060
 9171TIP3    H127477   3.043   6.244   6.088
 9171TIP3    H227478   2.968   6.307   5.972
 9172TIP3   OH227479   2.353   5.987   6.028
 9172TIP3    H127480   2.334   6.060   5.969
 9172TIP3    H227481   2.301   5.914   5.994
 9173TIP3   OH227482   3.051   6.084   5.653
 9173TIP3    H127483   3.116   6.073   5.722
 9173TIP3    H227484   3.101   6.118   5.578
 9174TIP3   OH227485   6.916   2.696   0.105
 9174TIP3    H127486   7.000   2.680   0.148
 9174TIP3    H227487   6.921   2.647   0.023
 9175TIP3   OH227488   2.415   6.390   5.946
 9175TIP3    H127489   2.508   6.370   5.956
 9175TIP3    H227490   2.377   6.309   5.914
 9176TIP3   OH227491   1.203   2.870   0.136
 9176TIP3    H127492   1.116   2.909   0.133
 9176TIP3    H227493   1.246   2.912   0.211
 9177TIP3   OH227494   7.278   2.490   0.431
 9177TIP3    H127495   7.221   2.530   0.365
 9177TIP3    H227496   7.230   2.503   0.514
 9178TIP3   OH227497   2.659   6.824   5.482
 9178TIP3    H127498   2.639   6.807   5.390
 9178TIP3    H227499   2.611   6.904   5.504
 9179TIP3   OH227500   7.402   3.262   0.191
 9179TIP3    H127501   7.340   3.332   0.212
 9179TIP3    H227502   7.451   3.295   0.116
 9180TIP3   OH227503   3.221   6.097   5.865
 9180TIP3    H127504   3.182   6.077   5.950
 9180TIP3    H227505   3.278   6.172   5.882
 9181TIP3   OH227506   7.155   2.602   0.209
 9181TIP3    H127507   7.208   2.676   0.236
 9181TIP3    H227508   7.204   2.561   0.138
 9182TIP3   OH227509   1.657   6.657   5.586
 9182TIP3    H127510   1.614   6.684   5.505
 9182TIP3    H227511   1.696   6.737   5.621
 9183TIP3   OH227512   5.550   0.151   5.848
 9183TIP3    H127513   5.468   0.162   5.896
 9183TIP3    H227514   5.560   0.232   5.799
 9184TIP3   OH227515   0.945   2.547   0.154
 9184TIP3    H127516   0.859   2.581   0.127
 9184TIP3    H227517   1.005   2.576   0.085
 9185TIP3   OH227518   0.214   2.191   0.152
 9185TIP3    H127519   0.206   2.099   0.177
 9185TIP3    H227520   0.139   2.233   0.192
 9186TIP3   OH227521   5.260   0.205   5.506
 9186TIP3    H127522   5.307   0.122   5.493
 9186TIP3    H227523   5.317   0.271   5.467
 9187TIP3   OH227524   2.947   6.970   5.437
 9187TIP3    H127525   2.945   6.891   5.383
 9187TIP3    H227526   2.984   6.941   5.520
 9188TIP3   OH227527   0.802   3.550   0.115
 9188TIP3    H127528   0.815   3.471   0.062
 9188TIP3    H227529   0.807   3.622   0.051
 9189TIP3   OH227530   2.616   6.460   5.447
 9189TIP3    H127531   2.537   6.510   5.427
 9189TIP3    H227532   2.664   6.458   5.364
 9190TIP3   OH227533   2.586   6.259   5.146
 9190TIP3    H127534   2.651   6.308   5.196
 9190TIP3    H227535   2.636   6.194   5.098
 9191TIP3   OH227536   3.501   6.675   6.017
 9191TIP3    H127537   3.419   6.725   6.022
 9191TIP3    H227538   3.540   6.703   5.935
 9192TIP3   OH227539   2.973   6.549   5.411
 9192TIP3    H127540   2.918   6.574   5.486
 9192TIP3    H227541   3.055   6.520   5.450
 9193TIP3   OH227542   0.712   3.045   0.247
 9193TIP3    H127543   0.724   3.124   0.299
 9193TIP3    H227544   0.623   3.051   0.212
 9194TIP3   OH227545   2.205   6.526   5.821
 9194TIP3    H127546   2.166   6.467   5.756
 9194TIP3    H227547   2.280   6.477   5.855
 9195TIP3   OH227548   2.351   6.911   5.974
 9195TIP3    H127549   2.328   6.919   5.881
 9195TIP3    H227550   2.445   6.894   5.974
 9196TIP3   OH227551   7.266   3.027   0.138
 9196TIP3    H127552   7.297   2.991   0.056
 9196TIP3    H227553   7.319   3.105   0.152
 9197TIP3   OH227554   5.324   0.188   5.999
 9197TIP3    H127555   5.259   0.237   6.050
 9197TIP3    H227556   5.323   0.100   6.037
 9198TIP3   OH227557   2.805   6.409   5.244
 9198TIP3    H127558   2.866   6.464   5.293
 9198TIP3    H227559   2.832   6.420   5.152
 9199TIP3   OH227560   5.003   0.101   5.511
 9199TIP3    H127561   5.091   0.136   5.522
 9199TIP3    H227562   4.957   0.166   5.457
 9200TIP3   OH227563   3.321   5.637   5.297
 9200TIP3    H127564   3.242   5.657   5.348
 9200TIP3    H227565   3.333   5.715   5.242
 9201TIP3   OH227566   2.076   6.373   5.618
 9201TIP3    H127567   2.000   6.419   5.582
 9201TIP3    H227568   2.044   6.286   5.639
 9202TIP3   OH227569   5.601   0.012   4.846
 9202TIP3    H127570   5.602   0.106   4.828
 9202TIP3    H227571   5.686  -0.020   4.815
 9203TIP3   OH227572   4.888   0.333   5.322
 9203TIP3    H127573   4.875   0.305   5.232
 9203TIP3    H227574   4.893   0.429   5.316
 9204TIP3   OH227575   4.356   0.177   5.737
 9204TIP3    H127576   4.343   0.176   5.831
 9204TIP3    H227577   4.314   0.097   5.705
 9205TIP3   OH227578   5.115   0.243   4.959
 9205TIP3    H127579   5.173   0.173   4.930
 9205TIP3    H227580   5.140   0.259   5.050
 9206TIP3   OH227581   5.152   0.280   5.230
 9206TIP3    H127582   5.074   0.299   5.283
 9206TIP3    H227583   5.219   0.255   5.295
 9207TIP3   OH227584   0.948   3.045   0.449
 9207TIP3    H127585   0.867   3.051   0.498
 9207TIP3    H227586   0.966   2.951   0.443
 9208TIP3   OH227587   7.376   2.280   0.278
 9208TIP3    H127588   7.291   2.250   0.247
 9208TIP3    H227589   7.357   2.360   0.327
 9209TIP3   OH227590   0.518   2.394   0.478
 9209TIP3    H127591   0.589   2.371   0.538
 9209TIP3    H227592   0.438   2.377   0.527
 9210TIP3   OH227593   0.751   2.811   0.387
 9210TIP3    H127594   0.699   2.816   0.467
 9210TIP3    H227595   0.731   2.893   0.341
 9211TIP3   OH227596   2.884   6.423   4.985
 9211TIP3    H127597   2.842   6.410   4.900
 9211TIP3    H227598   2.969   6.463   4.964
 9212TIP3   OH227599   2.594   5.815   5.292
 9212TIP3    H127600   2.560   5.820   5.382
 9212TIP3    H227601   2.558   5.733   5.257
 9213TIP3   OH227602   7.321   2.805   0.293
 9213TIP3    H127603   7.299   2.828   0.383
 9213TIP3    H227604   7.301   2.884   0.243
 9214TIP3   OH227605   2.265   6.178   5.851
 9214TIP3    H127606   2.176   6.153   5.876
 9214TIP3    H227607   2.276   6.141   5.763
 9215TIP3   OH227608   2.748   6.258   5.581
 9215TIP3    H127609   2.698   6.328   5.539
 9215TIP3    H227610   2.806   6.225   5.513
 9216TIP3   OH227611   0.477   3.027   0.601
 9216TIP3    H127612   0.450   2.975   0.676
 9216TIP3    H227613   0.571   3.041   0.614
 9217TIP3   OH227614   2.913   6.273   5.807
 9217TIP3    H127615   2.845   6.297   5.744
 9217TIP3    H227616   2.958   6.199   5.768
 9218TIP3   OH227617   7.141   2.810   0.524
 9218TIP3    H127618   7.187   2.862   0.590
 9218TIP3    H227619   7.122   2.727   0.568
 9219TIP3   OH227620   2.258   5.796   5.264
 9219TIP3    H127621   2.249   5.796   5.360
 9219TIP3    H227622   2.181   5.842   5.233
 9220TIP3   OH227623   6.755   2.343   0.069
 9220TIP3    H127624   6.833   2.370   0.118
 9220TIP3    H227625   6.790   2.313  -0.015
 9221TIP3   OH227626   1.734   5.817   5.641
 9221TIP3    H127627   1.779   5.851   5.563
 9221TIP3    H227628   1.674   5.887   5.666
 9222TIP3   OH227629   0.440   3.028   0.183
 9222TIP3    H127630   0.474   2.962   0.122
 9222TIP3    H227631   0.419   2.978   0.263
 9223TIP3   OH227632   2.620   5.979   5.909
 9223TIP3    H127633   2.543   5.980   5.966
 9223TIP3    H227634   2.695   5.970   5.968
 9224TIP3   OH227635   2.030   6.051   5.913
 9224TIP3    H127636   1.940   6.055   5.878
 9224TIP3    H227637   2.058   5.962   5.893
 9225TIP3   OH227638   2.282   6.053   5.608
 9225TIP3    H127639   2.376   6.065   5.595
 9225TIP3    H227640   2.243   6.073   5.524
 9226TIP3   OH227641   0.619   2.575   0.067
 9226TIP3    H127642   0.599   2.590   0.159
 9226TIP3    H227643   0.550   2.515   0.036
 9227TIP3   OH227644   2.154   6.085   5.368
 9227TIP3    H127645   2.090   6.036   5.317
 9227TIP3    H227646   2.210   6.127   5.302
 9228TIP3   OH227647   2.680   6.332   6.010
 9228TIP3    H127648   2.751   6.285   5.965
 9228TIP3    H227649   2.679   6.294   6.098
 9229TIP3   OH227650   2.177   5.807   5.899
 9229TIP3    H127651   2.147   5.731   5.950
 9229TIP3    H227652   2.214   5.770   5.819
 9230TIP3   OH227653   0.188   2.748   0.237
 9230TIP3    H127654   0.100   2.778   0.260
 9230TIP3    H227655   0.246   2.799   0.294
 9231TIP3   OH227656   2.378   6.607   5.387
 9231TIP3    H127657   2.310   6.541   5.372
 9231TIP3    H227658   2.360   6.640   5.476
 9232TIP3   OH227659   3.272   6.826   5.985
 9232TIP3    H127660   3.302   6.877   5.909
 9232TIP3    H227661   3.188   6.791   5.958
 9233TIP3   OH227662   2.848   5.916   5.286
 9233TIP3    H127663   2.754   5.895   5.286
 9233TIP3    H227664   2.852   6.010   5.301
 9234TIP3   OH227665   2.911   6.177   5.365
 9234TIP3    H127666   3.006   6.180   5.375
 9234TIP3    H227667   2.890   6.254   5.312
 9235TIP3   OH227668   7.021   3.115   0.018
 9235TIP3    H127669   7.059   3.103  -0.069
 9235TIP3    H227670   7.088   3.082   0.078
 9236TIP3   OH227671   2.544   6.756   5.229
 9236TIP3    H127672   2.501   6.841   5.230
 9236TIP3    H227673   2.488   6.699   5.282
 9237TIP3   OH227674   3.334   6.266   5.191
 9237TIP3    H127675   3.278   6.219   5.129
 9237TIP3    H227676   3.337   6.355   5.158
 9238TIP3   OH227677   1.033   3.715   0.143
 9238TIP3    H127678   0.949   3.732   0.185
 9238TIP3    H227679   1.035   3.620   0.129
 9239TIP3   OH227680   5.513   0.084   5.101
 9239TIP3    H127681   5.490   0.013   5.162
 9239TIP3    H227682   5.540   0.039   5.021
 9240TIP3   OH227683   3.028   6.711   5.903
 9240TIP3    H127684   2.939   6.681   5.920
 9240TIP3    H227685   3.073   6.634   5.868
 9241TIP3   OH227686   2.207   6.946   5.721
 9241TIP3    H127687   2.214   7.036   5.691
 9241TIP3    H227688   2.119   6.939   5.758
 9242TIP3   OH227689   1.757   6.239   5.415
 9242TIP3    H127690   1.802   6.321   5.437
 9242TIP3    H227691   1.678   6.241   5.469
 9243TIP3   OH227692   2.297   6.701   5.627
 9243TIP3    H127693   2.278   6.790   5.657
 9243TIP3    H227694   2.270   6.645   5.700
 9244TIP3   OH227695   4.556   0.258   5.521
 9244TIP3    H127696   4.529   0.178   5.476
 9244TIP3    H227697   4.606   0.307   5.456
 9245TIP3   OH227698   0.405   3.430   0.081
 9245TIP3    H127699   0.452   3.443   0.163
 9245TIP3    H227700   0.456   3.364   0.034
 9246TIP3   OH227701   2.822   6.813   5.017
 9246TIP3    H127702   2.871   6.795   5.097
 9246TIP3    H227703   2.735   6.776   5.034
 9247TIP3   OH227704   5.629   0.279   4.815
 9247TIP3    H127705   5.689   0.353   4.822
 9247TIP3    H227706   5.544   0.314   4.841
 9248TIP3   OH227707   7.128   2.543   0.660
 9248TIP3    H127708   7.045   2.494   0.660
 9248TIP3    H227709   7.177   2.507   0.733
 9249TIP3   OH227710   2.990   6.760   5.233
 9249TIP3    H127711   2.973   6.687   5.293
 9249TIP3    H227712   3.084   6.754   5.214
 9250TIP3   OH227713   2.173   6.784   5.015
 9250TIP3    H127714   2.185   6.696   4.980
 9250TIP3    H227715   2.157   6.770   5.109
 9251TIP3   OH227716   2.131   6.770   5.287
 9251TIP3    H127717   2.202   6.728   5.337
 9251TIP3    H227718   2.132   6.861   5.317
 9252TIP3   OH227719   1.856   6.487   5.493
 9252TIP3    H127720   1.788   6.531   5.545
 9252TIP3    H227721   1.875   6.549   5.422
 9253TIP3   OH227722   0.553   2.622   0.326
 9253TIP3    H127723   0.625   2.670   0.366
 9253TIP3    H227724   0.537   2.548   0.384
 9254TIP3   OH227725   2.903   5.867   5.557
 9254TIP3    H127726   2.885   5.885   5.465
 9254TIP3    H227727   2.947   5.946   5.589
 9255TIP3   OH227728   4.868   0.007   5.232
 9255TIP3    H127729   4.773   0.009   5.244
 9255TIP3    H227730   4.886   0.081   5.175
 9256TIP3   OH227731   2.562   6.065   5.651
 9256TIP3    H127732   2.625   6.132   5.626
 9256TIP3    H227733   2.580   6.047   5.743
 9257TIP3   OH227734   0.387   2.867   0.396
 9257TIP3    H127735   0.413   2.922   0.470
 9257TIP3    H227736   0.439   2.788   0.406
 9258TIP3   OH227737   2.720   5.768   5.742
 9258TIP3    H127738   2.700   5.845   5.795
 9258TIP3    H227739   2.788   5.798   5.682
 9259TIP3   OH227740   4.612   0.058   5.341
 9259TIP3    H127741   4.590   0.122   5.273
 9259TIP3    H227742   4.685   0.099   5.388
 9260TIP3   OH227743   2.235   5.782   5.543
 9260TIP3    H127744   2.225   5.872   5.574
 9260TIP3    H227745   2.329   5.765   5.548
 9261TIP3   OH227746   1.017   2.775   0.368
 9261TIP3    H127747   0.922   2.771   0.382
 9261TIP3    H227748   1.029   2.746   0.278
 9262TIP3   OH227749   3.136   6.465   5.812
 9262TIP3    H127750   3.060   6.407   5.824
 9262TIP3    H227751   3.206   6.423   5.862
 9263TIP3   OH227752   1.871   6.673   5.282
 9263TIP3    H127753   1.947   6.730   5.295
 9263TIP3    H227754   1.900   6.608   5.218
 9264TIP3   OH227755   1.789   5.964   5.417
 9264TIP3    H127756   1.799   6.059   5.423
 9264TIP3    H227757   1.717   5.951   5.355
 9265TIP3   OH227758   5.597   0.402   5.762
 9265TIP3    H127759   5.540   0.474   5.735
 9265TIP3    H227760   5.685   0.431   5.742
 9266TIP3   OH227761   7.108   2.201   0.246
 9266TIP3    H127762   7.083   2.166   0.160
 9266TIP3    H227763   7.106   2.125   0.304
 9267TIP3   OH227764   1.735   6.930   5.685
 9267TIP3    H127765   1.667   6.912   5.749
 9267TIP3    H227766   1.687   6.956   5.606
 9268TIP3   OH227767   2.338   6.984   4.921
 9268TIP3    H127768   2.290   6.909   4.957
 9268TIP3    H227769   2.413   6.945   4.876
 9269TIP3   OH227770   5.251   0.041   4.836
 9269TIP3    H127771   5.281  -0.024   4.899
 9269TIP3    H227772   5.308   0.032   4.761
 9270TIP3   OH227773   1.999   6.481   5.138
 9270TIP3    H127774   2.051   6.457   5.215
 9270TIP3    H227775   2.064   6.494   5.069
 9271TIP3   OH227776   2.540   6.705   4.960
 9271TIP3    H127777   2.531   6.715   5.055
 9271TIP3    H227778   2.534   6.610   4.945
 9272TIP3   OH227779   0.594   3.508   0.284
 9272TIP3    H127780   0.667   3.514   0.222
 9272TIP3    H227781   0.588   3.596   0.322
 9273TIP3   OH227782   2.179   6.418   5.350
 9273TIP3    H127783   2.156   6.385   5.436
 9273TIP3    H227784   2.223   6.345   5.306
 9274TIP3   OH227785   0.010   2.953   0.539
 9274TIP3    H127786   0.005   3.027   0.599
 9274TIP3    H227787   0.062   2.985   0.465
 9275TIP3   OH227788   2.311   6.229   5.193
 9275TIP3    H127789   2.282   6.231   5.102
 9275TIP3    H227790   2.406   6.233   5.188
 9276TIP3   OH227791   3.111   6.531   4.868
 9276TIP3    H127792   3.099   6.484   4.786
 9276TIP3    H227793   3.080   6.619   4.851
 9277TIP3   OH227794   0.156   2.750   0.664
 9277TIP3    H127795   0.153   2.675   0.604
 9277TIP3    H227796   0.099   2.815   0.623
 9278TIP3   OH227797   0.141   2.561   0.458
 9278TIP3    H127798   0.167   2.604   0.376
 9278TIP3    H227799   0.048   2.541   0.446
 9279TIP3   OH227800   0.148   3.079   0.341
 9279TIP3    H127801   0.241   3.090   0.323
 9279TIP3    H227802   0.105   3.148   0.290
 9280TIP3   OH227803   0.755   3.029   0.669
 9280TIP3    H127804   0.765   2.973   0.746
 9280TIP3    H227805   0.754   3.118   0.704
 9281TIP3   OH227806   0.720   3.273   0.387
 9281TIP3    H127807   0.667   3.351   0.369
 9281TIP3    H227808   0.789   3.304   0.446
 9282TIP3   OH227809   0.259   2.335   0.565
 9282TIP3    H127810   0.219   2.414   0.529
 9282TIP3    H227811   0.193   2.266   0.550
 9283TIP3   OH227812   0.394   2.822   0.774
 9283TIP3    H127813   0.386   2.780   0.860
 9283TIP3    H227814   0.312   2.802   0.729
 9284TIP3   OH227815   0.599   2.747   0.602
 9284TIP3    H127816   0.532   2.769   0.666
 9284TIP3    H227817   0.677   2.729   0.654
 9285TIP3   OH227818   0.825   2.708   0.750
 9285TIP3    H127819   0.849   2.620   0.777
 9285TIP3    H227820   0.807   2.754   0.832
 9286TIP3   OH227821   0.347   2.328   0.823
 9286TIP3    H127822   0.413   2.258   0.816
 9286TIP3    H227823   0.309   2.334   0.736
 9287TIP3   OH227824   0.364   2.561   0.968
 9287TIP3    H127825   0.379   2.485   0.912
 9287TIP3    H227826   0.269   2.571   0.971
 9288TIP3   OH227827   4.605   0.258   5.165
 9288TIP3    H127828   4.696   0.264   5.134
 9288TIP3    H227829   4.552   0.275   5.087
 9289TIP3   OH227830   1.600   6.658   5.293
 9289TIP3    H127831   1.695   6.670   5.296
 9289TIP3    H227832   1.589   6.567   5.265
 9290TIP3   OH227833   5.842   0.509   5.719
 9290TIP3    H127834   5.873   0.516   5.810
 9290TIP3    H227835   5.892   0.575   5.672
 9291TIP3   OH227836   5.905   0.527   5.986
 9291TIP3    H127837   5.852   0.450   6.010
 9291TIP3    H227838   5.952   0.549   6.066
 9292TIP3   OH227839   3.265   6.732   5.206
 9292TIP3    H127840   3.322   6.807   5.189
 9292TIP3    H227841   3.307   6.686   5.279
 9293TIP3   OH227842   3.394   6.590   5.403
 9293TIP3    H127843   3.330   6.549   5.461
 9293TIP3    H227844   3.461   6.625   5.461
 9294TIP3   OH227845   3.407   6.964   5.792
 9294TIP3    H127846   3.472   6.902   5.758
 9294TIP3    H227847   3.427   7.046   5.747
 9295TIP3   OH227848   5.721   0.312   6.021
 9295TIP3    H127849   5.640   0.349   6.055
 9295TIP3    H227850   5.697   0.272   5.937
 9296TIP3   OH227851   3.311   6.504   5.054
 9296TIP3    H127852   3.242   6.504   4.987
 9296TIP3    H227853   3.296   6.583   5.105
 9297TIP3   OH227854   3.179   6.162   4.992
 9297TIP3    H127855   3.136   6.199   4.914
 9297TIP3    H227856   3.165   6.068   4.984
 9298TIP3   OH227857   3.198   6.450   5.543
 9298TIP3    H127858   3.207   6.355   5.532
 9298TIP3    H227859   3.181   6.462   5.636
 9299TIP3   OH227860   6.785   3.003   0.266
 9299TIP3    H127861   6.768   3.018   0.173
 9299TIP3    H227862   6.878   3.021   0.277
 9300TIP3   OH227863   1.048   3.408   0.271
 9300TIP3    H127864   1.067   3.315   0.265
 9300TIP3    H227865   1.130   3.451   0.249
 9301TIP3   OH227866   1.159   3.154   0.306
 9301TIP3    H127867   1.080   3.111   0.339
 9301TIP3    H227868   1.230   3.092   0.324
 9302TIP3   OH227869   3.132   5.894   4.970
 9302TIP3    H127870   3.199   5.863   5.031
 9302TIP3    H227871   3.053   5.846   4.995
 9303TIP3   OH227872   3.198   6.172   5.426
 9303TIP3    H127873   3.242   6.087   5.441
 9303TIP3    H227874   3.245   6.210   5.352
 9304TIP3   OH227875   3.349   6.332   5.935
 9304TIP3    H127876   3.432   6.351   5.891
 9304TIP3    H227877   3.361   6.366   6.023
 9305TIP3   OH227878   0.951   2.974   0.127
 9305TIP3    H127879   0.873   2.998   0.176
 9305TIP3    H227880   0.976   3.055   0.081
 9306TIP3   OH227881   1.345   2.575   0.664
 9306TIP3    H127882   1.409   2.509   0.637
 9306TIP3    H227883   1.345   2.639   0.593
 9307TIP3   OH227884   3.309   5.921   5.478
 9307TIP3    H127885   3.355   5.905   5.560
 9307TIP3    H227886   3.247   5.848   5.470
 9308TIP3   OH227887   6.938   2.420   0.268
 9308TIP3    H127888   6.993   2.342   0.275
 9308TIP3    H227889   7.000   2.492   0.256
 9309TIP3   OH227890   6.752   2.741   0.322
 9309TIP3    H127891   6.809   2.711   0.251
 9309TIP3    H227892   6.759   2.836   0.320
 9310TIP3   OH227893   1.275   2.696   0.416
 9310TIP3    H127894   1.192   2.742   0.430
 9310TIP3    H227895   1.250   2.607   0.393
 9311TIP3   OH227896   3.367   5.841   5.117
 9311TIP3    H127897   3.410   5.778   5.058
 9311TIP3    H227898   3.426   5.917   5.117
 9312TIP3   OH227899   1.792   5.677   5.866
 9312TIP3    H127900   1.704   5.664   5.900
 9312TIP3    H227901   1.780   5.733   5.789
 9313TIP3   OH227902   5.403   0.375   5.347
 9313TIP3    H127903   5.449   0.348   5.267
 9313TIP3    H227904   5.460   0.440   5.387
 9314TIP3   OH227905   6.970   2.277   0.665
 9314TIP3    H127906   6.937   2.256   0.752
 9314TIP3    H227907   6.896   2.317   0.620
 9315TIP3   OH227908   1.162   2.456   0.354
 9315TIP3    H127909   1.080   2.453   0.306
 9315TIP3    H227910   1.198   2.368   0.345
 9316TIP3   OH227911   2.851   5.885   6.037
 9316TIP3    H127912   2.814   5.813   6.088
 9316TIP3    H227913   2.922   5.845   5.987
 9317TIP3   OH227914   3.361   5.783   5.933
 9317TIP3    H127915   3.398   5.833   5.861
 9317TIP3    H227916   3.269   5.810   5.935
 9318TIP3   OH227917   3.471   5.868   5.697
 9318TIP3    H127918   3.540   5.810   5.666
 9318TIP3    H227919   3.505   5.956   5.684
 9319TIP3   OH227920   7.031   2.095   0.001
 9319TIP3    H127921   6.943   2.059   0.006
 9319TIP3    H227922   7.088   2.018  -0.004
 9320TIP3   OH227923   1.900   5.478   5.693
 9320TIP3    H127924   1.932   5.529   5.619
 9320TIP3    H227925   1.871   5.544   5.756
 9321TIP3   OH227926   2.562   5.627   5.934
 9321TIP3    H127927   2.612   5.672   5.866
 9321TIP3    H227928   2.603   5.653   6.016
 9322TIP3   OH227929   3.072   5.773   5.912
 9322TIP3    H127930   3.085   5.738   5.824
 9322TIP3    H227931   3.073   5.696   5.969
 9323TIP3   OH227932   3.124   5.710   5.478
 9323TIP3    H127933   3.043   5.757   5.501
 9323TIP3    H227934   3.113   5.624   5.517
 9324TIP3   OH227935   4.066   0.034   5.466
 9324TIP3    H127936   3.977   0.000   5.453
 9324TIP3    H227937   4.060   0.126   5.442
 9325TIP3   OH227938   2.018   5.619   5.462
 9325TIP3    H127939   2.062   5.557   5.404
 9325TIP3    H227940   2.088   5.674   5.497
 9326TIP3   OH227941   2.510   5.813   5.556
 9326TIP3    H127942   2.569   5.761   5.611
 9326TIP3    H227943   2.526   5.903   5.584
 9327TIP3   OH227944   4.860   0.231   5.065
 9327TIP3    H127945   4.938   0.266   5.021
 9327TIP3    H227946   4.830   0.161   5.007
 9328TIP3   OH227947   5.554   0.349   5.117
 9328TIP3    H127948   5.546   0.254   5.110
 9328TIP3    H227949   5.511   0.383   5.039
 9329TIP3   OH227950   7.242   2.372   0.866
 9329TIP3    H127951   7.206   2.314   0.933
 9329TIP3    H227952   7.330   2.393   0.898
 9330TIP3   OH227953   0.103   2.382   0.972
 9330TIP3    H127954   0.180   2.342   0.932
 9330TIP3    H227955   0.084   2.326   1.048
 9331TIP3   OH227956   4.186   0.093   5.139
 9331TIP3    H127957   4.161   0.050   5.221
 9331TIP3    H227958   4.259   0.040   5.107
 9332TIP3   OH227959   0.903   2.453   0.805
 9332TIP3    H127960   0.926   2.416   0.890
 9332TIP3    H227961   0.981   2.439   0.751
 9333TIP3   OH227962   4.606   6.863   5.098
 9333TIP3    H127963   4.578   6.952   5.118
 9333TIP3    H227964   4.528   6.822   5.058
 9334TIP3   OH227965   4.539   6.848   5.465
 9334TIP3    H127966   4.588   6.846   5.547
 9334TIP3    H227967   4.507   6.759   5.454
 9335TIP3   OH227968   3.881   6.742   5.817
 9335TIP3    H127969   3.894   6.672   5.882
 9335TIP3    H227970   3.966   6.749   5.773
 9336TIP3   OH227971   7.283   0.172   5.172
 9336TIP3    H127972   7.271   0.108   5.242
 9336TIP3    H227973   7.331   0.244   5.213
 9337TIP3   OH227974   6.321   0.192   5.575
 9337TIP3    H127975   6.307   0.098   5.564
 9337TIP3    H227976   6.416   0.203   5.567
 9338TIP3   OH227977   3.560   6.365   5.336
 9338TIP3    H127978   3.519   6.449   5.357
 9338TIP3    H227979   3.490   6.315   5.294
 9339TIP3   OH227980   3.626   6.670   5.534
 9339TIP3    H127981   3.678   6.595   5.564
 9339TIP3    H227982   3.691   6.730   5.497
 9340TIP3   OH227983   6.973   0.653   5.168
 9340TIP3    H127984   6.993   0.564   5.140
 9340TIP3    H227985   6.895   0.644   5.223
 9341TIP3   OH227986   6.858   0.111   5.494
 9341TIP3    H127987   6.888   0.026   5.461
 9341TIP3    H227988   6.935   0.147   5.539
 9342TIP3   OH227989   5.369   6.413   5.524
 9342TIP3    H127990   5.438   6.367   5.570
 9342TIP3    H227991   5.407   6.436   5.439
 9343TIP3   OH227992   4.804   6.594   5.544
 9343TIP3    H127993   4.843   6.511   5.570
 9343TIP3    H227994   4.763   6.577   5.460
 9344TIP3   OH227995   4.154   6.240   5.506
 9344TIP3    H127996   4.131   6.314   5.450
 9344TIP3    H227997   4.100   6.168   5.474
 9345TIP3   OH227998   4.845   6.343   5.139
 9345TIP3    H127999   4.913   6.330   5.204
 9345TIP3    H228000   4.891   6.375   5.062
 9346TIP3   OH228001   3.771   6.457   5.634
 9346TIP3    H128002   3.851   6.436   5.681
 9346TIP3    H228003   3.775   6.405   5.554
 9347TIP3   OH228004   4.210   6.641   5.443
 9347TIP3    H128005   4.302   6.617   5.450
 9347TIP3    H228006   4.167   6.563   5.408
 9348TIP3   OH228007   4.121   6.229   5.946
 9348TIP3    H128008   4.066   6.262   5.874
 9348TIP3    H228009   4.064   6.235   6.023
 9349TIP3   OH228010   6.839   0.105   4.934
 9349TIP3    H128011   6.823   0.067   5.021
 9349TIP3    H228012   6.848   0.199   4.951
 9350TIP3   OH228013   6.715   0.024   5.709
 9350TIP3    H128014   6.659   0.089   5.752
 9350TIP3    H228015   6.755   0.071   5.636
 9351TIP3   OH228016   5.028   6.354   5.338
 9351TIP3    H128017   4.983   6.339   5.421
 9351TIP3    H228018   5.084   6.430   5.355
 9352TIP3   OH228019   4.007   6.336   5.721
 9352TIP3    H128020   4.060   6.412   5.744
 9352TIP3    H228021   4.055   6.294   5.649
 9353TIP3   OH228022   6.542   0.199   5.805
 9353TIP3    H128023   6.532   0.290   5.779
 9353TIP3    H228024   6.454   0.170   5.827
 9354TIP3   OH228025   5.156   6.287   5.661
 9354TIP3    H128026   5.072   6.310   5.623
 9354TIP3    H228027   5.220   6.332   5.606
 9355TIP3   OH228028   4.468   5.932   5.673
 9355TIP3    H128029   4.454   5.839   5.695
 9355TIP3    H228030   4.395   5.978   5.715
 9356TIP3   OH228031   7.064   0.466   4.971
 9356TIP3    H128032   7.107   0.381   4.959
 9356TIP3    H228033   7.132   0.530   4.948
 9357TIP3   OH228034   7.186   0.233   4.922
 9357TIP3    H128035   7.206   0.167   4.855
 9357TIP3    H228036   7.228   0.199   5.001
 9358TIP3   OH228037   4.421   6.730   4.936
 9358TIP3    H128038   4.334   6.762   4.910
 9358TIP3    H228039   4.466   6.714   4.854
 9359TIP3   OH228040   4.383   6.516   4.635
 9359TIP3    H128041   4.451   6.565   4.680
 9359TIP3    H228042   4.430   6.449   4.584
 9360TIP3   OH228043   4.774   6.796   4.894
 9360TIP3    H128044   4.723   6.821   4.971
 9360TIP3    H228045   4.858   6.768   4.929
 9361TIP3   OH228046   4.025   6.801   5.316
 9361TIP3    H128047   3.978   6.749   5.250
 9361TIP3    H228048   4.090   6.741   5.352
 9362TIP3   OH228049   6.585   0.235   5.441
 9362TIP3    H128050   6.548   0.209   5.357
 9362TIP3    H228051   6.671   0.192   5.444
 9363TIP3   OH228052   4.106   6.773   5.661
 9363TIP3    H128053   4.142   6.739   5.579
 9363TIP3    H228054   4.153   6.856   5.675
 9364TIP3   OH228055   4.599   6.667   4.729
 9364TIP3    H128056   4.662   6.719   4.779
 9364TIP3    H228057   4.625   6.679   4.638
 9365TIP3   OH228058   1.590   3.361   0.055
 9365TIP3    H128059   1.615   3.418   0.127
 9365TIP3    H228060   1.503   3.328   0.079
 9366TIP3   OH228061   6.809   0.370   4.988
 9366TIP3    H128062   6.896   0.410   4.991
 9366TIP3    H228063   6.752   0.438   4.953
 9367TIP3   OH228064   5.115   5.894   4.782
 9367TIP3    H128065   5.036   5.914   4.833
 9367TIP3    H228066   5.128   5.971   4.727
 9368TIP3   OH228067   3.884   6.688   5.102
 9368TIP3    H128068   3.854   6.778   5.089
 9368TIP3    H228069   3.805   6.635   5.095
 9369TIP3   OH228070  -0.006   0.289   4.331
 9369TIP3    H128071   0.002   0.383   4.313
 9369TIP3    H228072   0.081   0.254   4.312
 9370TIP3   OH228073   3.612   6.967   6.004
 9370TIP3    H128074   3.561   6.932   5.932
 9370TIP3    H228075   3.649   6.890   6.047
 9371TIP3   OH228076   5.977   0.212   5.668
 9371TIP3    H128077   6.064   0.214   5.628
 9371TIP3    H228078   5.960   0.303   5.691
 9372TIP3   OH228079   6.693   0.586   4.818
 9372TIP3    H128080   6.667   0.560   4.730
 9372TIP3    H228081   6.644   0.666   4.835
 9373TIP3   OH228082   6.138   0.450   5.205
 9373TIP3    H128083   6.193   0.439   5.282
 9373TIP3    H228084   6.090   0.368   5.198
 9374TIP3   OH228085   6.915   0.469   4.455
 9374TIP3    H128086   6.984   0.408   4.428
 9374TIP3    H228087   6.940   0.497   4.543
 9375TIP3   OH228088   6.953   0.535   4.722
 9375TIP3    H128089   6.871   0.569   4.758
 9375TIP3    H228090   6.999   0.499   4.798
 9376TIP3   OH228091   1.517   3.742   0.036
 9376TIP3    H128092   1.609   3.731   0.060
 9376TIP3    H228093   1.497   3.667  -0.020
 9377TIP3   OH228094   4.239   6.027   5.802
 9377TIP3    H128095   4.156   5.993   5.768
 9377TIP3    H228096   4.214   6.104   5.852
 9378TIP3   OH228097   4.756   6.129   5.959
 9378TIP3    H128098   4.824   6.092   6.016
 9378TIP3    H228099   4.674   6.104   6.001
 9379TIP3   OH228100   4.684   6.685   4.474
 9379TIP3    H128101   4.643   6.669   4.389
 9379TIP3    H228102   4.769   6.724   4.452
 9380TIP3   OH228103   4.392   6.070   4.779
 9380TIP3    H128104   4.356   6.075   4.868
 9380TIP3    H228105   4.354   5.989   4.743
 9381TIP3   OH228106   4.175   6.538   5.785
 9381TIP3    H128107   4.143   6.552   5.874
 9381TIP3    H228108   4.153   6.619   5.739
 9382TIP3   OH228109   4.059   6.436   5.339
 9382TIP3    H128110   3.969   6.414   5.364
 9382TIP3    H228111   4.069   6.400   5.251
 9383TIP3   OH228112   4.545   6.518   5.069
 9383TIP3    H128113   4.499   6.592   5.029
 9383TIP3    H228114   4.602   6.484   5.000
 9384TIP3   OH228115   4.708   6.533   5.295
 9384TIP3    H128116   4.642   6.557   5.230
 9384TIP3    H228117   4.754   6.459   5.256
 9385TIP3   OH228118   3.953   6.522   5.973
 9385TIP3    H128119   3.984   6.556   6.057
 9385TIP3    H228120   3.921   6.434   5.993
 9386TIP3   OH228121   4.054   6.053   4.751
 9386TIP3    H128122   4.045   6.054   4.846
 9386TIP3    H228123   3.977   6.098   4.718
 9387TIP3   OH228124   3.595   6.093   5.619
 9387TIP3    H128125   3.666   6.127   5.674
 9387TIP3    H228126   3.637   6.073   5.536
 9388TIP3   OH228127   3.528   6.072   5.130
 9388TIP3    H128128   3.574   6.105   5.053
 9388TIP3    H228129   3.466   6.141   5.154
 9389TIP3   OH228130   4.687   6.793   5.690
 9389TIP3    H128131   4.746   6.742   5.634
 9389TIP3    H228132   4.668   6.735   5.764
 9390TIP3   OH228133   4.417   6.236   5.394
 9390TIP3    H128134   4.338   6.234   5.447
 9390TIP3    H228135   4.489   6.226   5.457
 9391TIP3   OH228136   3.822   6.312   5.406
 9391TIP3    H128137   3.734   6.317   5.370
 9391TIP3    H228138   3.851   6.223   5.386
 9392TIP3   OH228139   4.079   6.308   5.097
 9392TIP3    H128140   4.173   6.322   5.081
 9392TIP3    H228141   4.037   6.329   5.014
 9393TIP3   OH228142   4.882   6.326   5.574
 9393TIP3    H128143   4.875   6.333   5.669
 9393TIP3    H228144   4.810   6.268   5.549
 9394TIP3   OH228145   3.953   6.337   4.856
 9394TIP3    H128146   3.886   6.290   4.805
 9394TIP3    H228147   4.006   6.382   4.790
 9395TIP3   OH228148   4.476   6.574   5.489
 9395TIP3    H128149   4.545   6.529   5.440
 9395TIP3    H228150   4.473   6.530   5.573
 9396TIP3   OH228151   3.973   6.065   5.386
 9396TIP3    H128152   3.941   5.990   5.436
 9396TIP3    H228153   4.002   6.028   5.303
 9397TIP3   OH228154   4.441   6.479   5.749
 9397TIP3    H128155   4.351   6.509   5.762
 9397TIP3    H228156   4.494   6.538   5.803
 9398TIP3   OH228157   4.183   6.876   4.868
 9398TIP3    H128158   4.111   6.819   4.841
 9398TIP3    H228159   4.163   6.897   4.960
 9399TIP3   OH228160   4.644   6.173   4.774
 9399TIP3    H128161   4.551   6.151   4.772
 9399TIP3    H228162   4.646   6.268   4.788
 9400TIP3   OH228163   4.706   6.436   4.853
 9400TIP3    H128164   4.802   6.436   4.861
 9400TIP3    H228165   4.687   6.511   4.796
 9401TIP3   OH228166   3.867   6.891   5.530
 9401TIP3    H128167   3.916   6.874   5.449
 9401TIP3    H228168   3.918   6.848   5.598
 9402TIP3   OH228169   1.304   3.256   0.071
 9402TIP3    H128170   1.330   3.282   0.160
 9402TIP3    H228171   1.230   3.198   0.083
 9403TIP3   OH228172   5.127   6.522   4.677
 9403TIP3    H128173   5.071   6.476   4.615
 9403TIP3    H228174   5.133   6.611   4.642
 9404TIP3   OH228175   7.309   0.354   4.592
 9404TIP3    H128176   7.282   0.284   4.651
 9404TIP3    H228177   7.346   0.309   4.516
 9405TIP3   OH228178   4.781   6.972   5.387
 9405TIP3    H128179   4.696   6.928   5.388
 9405TIP3    H228180   4.843   6.904   5.362
 9406TIP3   OH228181   6.448   0.202   5.194
 9406TIP3    H128182   6.427   0.282   5.146
 9406TIP3    H228183   6.378   0.140   5.170
 9407TIP3   OH228184   3.540   6.487   4.901
 9407TIP3    H128185   3.580   6.572   4.915
 9407TIP3    H228186   3.462   6.488   4.956
 9408TIP3   OH228187   4.147   6.968   5.123
 9408TIP3    H128188   4.098   7.049   5.136
 9408TIP3    H228189   4.111   6.908   5.188
 9409TIP3   OH228190   6.364   0.435   5.049
 9409TIP3    H128191   6.277   0.442   5.088
 9409TIP3    H228192   6.414   0.506   5.090
 9410TIP3   OH228193   7.116   0.136   5.615
 9410TIP3    H128194   7.169   0.209   5.646
 9410TIP3    H228195   7.170   0.092   5.549
 9411TIP3   OH228196   0.025   0.557   4.299
 9411TIP3    H128197   0.076   0.607   4.235
 9411TIP3    H228198  -0.044   0.618   4.327
 9412TIP3   OH228199   1.475   2.780   0.102
 9412TIP3    H128200   1.383   2.798   0.123
 9412TIP3    H228201   1.510   2.738   0.180
 9413TIP3   OH228202   7.252   0.046   4.732
 9413TIP3    H128203   7.235  -0.035   4.779
 9413TIP3    H228204   7.341   0.037   4.698
 9414TIP3   OH228205   6.128   0.433   5.770
 9414TIP3    H128206   6.128   0.344   5.806
 9414TIP3    H228207   6.203   0.475   5.812
 9415TIP3   OH228208   6.477   0.048   4.514
 9415TIP3    H128209   6.473  -0.042   4.479
 9415TIP3    H228210   6.447   0.040   4.604
 9416TIP3   OH228211   6.409   0.050   4.782
 9416TIP3    H128212   6.370   0.016   4.863
 9416TIP3    H228213   6.406   0.146   4.793
 9417TIP3   OH228214   3.624   6.741   4.947
 9417TIP3    H128215   3.657   6.810   5.005
 9417TIP3    H228216   3.616   6.784   4.862
 9418TIP3   OH228217   4.859   6.355   5.841
 9418TIP3    H128218   4.840   6.418   5.909
 9418TIP3    H228219   4.823   6.273   5.873
 9419TIP3   OH228220   4.699   6.124   5.045
 9419TIP3    H128221   4.680   6.141   4.953
 9419TIP3    H228222   4.741   6.204   5.076
 9420TIP3   OH228223   6.672   0.231   4.714
 9420TIP3    H128224   6.589   0.263   4.749
 9420TIP3    H228225   6.708   0.306   4.665
 9421TIP3   OH228226   4.361   6.321   5.135
 9421TIP3    H128227   4.424   6.389   5.112
 9421TIP3    H228228   4.378   6.303   5.228
 9422TIP3   OH228229   4.615   6.639   5.898
 9422TIP3    H128230   4.585   6.695   5.970
 9422TIP3    H228231   4.684   6.585   5.937
 9423TIP3   OH228232   4.516   6.024   5.229
 9423TIP3    H128233   4.494   6.102   5.280
 9423TIP3    H228234   4.584   6.054   5.168
 9424TIP3   OH228235   6.434   0.316   4.816
 9424TIP3    H128236   6.401   0.382   4.755
 9424TIP3    H228237   6.407   0.347   4.902
 9425TIP3   OH228238   4.031   6.038   5.030
 9425TIP3    H128239   4.021   6.128   5.061
 9425TIP3    H228240   4.125   6.022   5.035
 9426TIP3   OH228241   4.929   6.733   5.302
 9426TIP3    H128242   4.856   6.673   5.311
 9426TIP3    H228243   4.999   6.694   5.354
 9427TIP3   OH228244   3.641   6.953   4.761
 9427TIP3    H128245   3.686   6.990   4.837
 9427TIP3    H228246   3.710   6.911   4.710
 9428TIP3   OH228247   3.586   6.215   4.904
 9428TIP3    H128248   3.593   6.310   4.911
 9428TIP3    H228249   3.519   6.200   4.838
 9429TIP3   OH228250   3.978   5.941   5.769
 9429TIP3    H128251   3.948   5.910   5.684
 9429TIP3    H228252   3.968   5.866   5.828
 9430TIP3   OH228253   6.014   0.209   5.195
 9430TIP3    H128254   5.960   0.223   5.118
 9430TIP3    H228255   6.076   0.141   5.169
 9431TIP3   OH228256   6.599   0.263   4.399
 9431TIP3    H128257   6.553   0.190   4.441
 9431TIP3    H228258   6.686   0.229   4.380
 9432TIP3   OH228259   7.102   0.309   4.329
 9432TIP3    H128260   7.195   0.318   4.351
 9432TIP3    H228261   7.101   0.306   4.233
 9433TIP3   OH228262   3.802   6.763   4.635
 9433TIP3    H128263   3.855   6.738   4.711
 9433TIP3    H228264   3.864   6.762   4.562
 9434TIP3   OH228265   1.484   3.282   0.305
 9434TIP3    H128266   1.482   3.241   0.391
 9434TIP3    H228267   1.442   3.367   0.318
 9435TIP3   OH228268   3.988   6.688   4.834
 9435TIP3    H128269   3.960   6.664   4.922
 9435TIP3    H228270   4.023   6.607   4.797
 9436TIP3   OH228271   4.247   6.682   6.013
 9436TIP3    H128272   4.180   6.744   6.042
 9436TIP3    H228273   4.289   6.725   5.938
 9437TIP3   OH228274   4.107   6.485   4.682
 9437TIP3    H128275   4.076   6.488   4.591
 9437TIP3    H228276   4.202   6.489   4.675
 9438TIP3   OH228277   4.913   6.787   4.353
 9438TIP3    H128278   4.897   6.744   4.268
 9438TIP3    H228279   4.881   6.876   4.341
 9439TIP3   OH228280   1.901   3.008   0.121
 9439TIP3    H128281   1.924   2.938   0.061
 9439TIP3    H228282   1.867   3.078   0.065
 9440TIP3   OH228283   4.378   6.304   5.960
 9440TIP3    H128284   4.400   6.347   5.877
 9440TIP3    H228285   4.284   6.288   5.954
 9441TIP3   OH228286   4.394   6.817   5.832
 9441TIP3    H128287   4.470   6.808   5.774
 9441TIP3    H228288   4.341   6.886   5.793
 9442TIP3   OH228289   1.775   3.099   0.396
 9442TIP3    H128290   1.703   3.050   0.356
 9442TIP3    H228291   1.789   3.174   0.339
 9443TIP3   OH228292   4.490   6.067   6.037
 9443TIP3    H128293   4.445   6.142   5.997
 9443TIP3    H228294   4.426   5.996   6.033
 9444TIP3   OH228295   2.130   3.107   0.233
 9444TIP3    H128296   2.120   3.200   0.214
 9444TIP3    H228297   2.049   3.067   0.199
 9445TIP3   OH228298   1.617   2.877   0.389
 9445TIP3    H128299   1.596   2.787   0.412
 9445TIP3    H228300   1.614   2.924   0.473
 9446TIP3   OH228301   2.119   2.552   0.251
 9446TIP3    H128302   2.190   2.498   0.217
 9446TIP3    H228303   2.051   2.548   0.184
 9447TIP3   OH228304   2.158   2.789   0.392
 9447TIP3    H128305   2.136   2.718   0.332
 9447TIP3    H228306   2.128   2.868   0.347
 9448TIP3   OH228307   6.388   0.510   4.639
 9448TIP3    H128308   6.481   0.517   4.617
 9448TIP3    H228309   6.342   0.521   4.555
 9449TIP3   OH228310   3.374   6.916   4.744
 9449TIP3    H128311   3.466   6.938   4.762
 9449TIP3    H228312   3.375   6.823   4.721
 9450TIP3   OH228313   5.773   0.495   5.177
 9450TIP3    H128314   5.706   0.433   5.147
 9450TIP3    H228315   5.817   0.449   5.248
 9451TIP3   OH228316   5.868   0.400   5.416
 9451TIP3    H128317   5.886   0.308   5.399
 9451TIP3    H228318   5.936   0.427   5.478
 9452TIP3   OH228319   0.116   0.009   4.678
 9452TIP3    H128320   0.180   0.071   4.644
 9452TIP3    H228321   0.159  -0.031   4.754
 9453TIP3   OH228322   5.174   6.846   4.876
 9453TIP3    H128323   5.114   6.802   4.937
 9453TIP3    H228324   5.249   6.871   4.930
 9454TIP3   OH228325   5.115   6.759   4.535
 9454TIP3    H128326   5.047   6.756   4.468
 9454TIP3    H228327   5.093   6.835   4.588
 9455TIP3   OH228328   4.974   6.420   4.477
 9455TIP3    H128329   4.932   6.457   4.399
 9455TIP3    H228330   4.960   6.326   4.470
 9456TIP3   OH228331   4.996   6.702   5.032
 9456TIP3    H128332   5.004   6.607   5.024
 9456TIP3    H228333   4.978   6.718   5.125
 9457TIP3   OH228334   3.612   6.775   5.785
 9457TIP3    H128335   3.604   6.739   5.697
 9457TIP3    H228336   3.706   6.779   5.801
 9458TIP3   OH228337   4.928   6.152   4.457
 9458TIP3    H128338   4.995   6.120   4.518
 9458TIP3    H228339   4.848   6.104   4.482
 9459TIP3   OH228340   4.993   6.427   4.913
 9459TIP3    H128341   5.037   6.343   4.927
 9459TIP3    H228342   5.039   6.466   4.839
 9460TIP3   OH228343   5.153   6.597   5.419
 9460TIP3    H128344   5.227   6.636   5.372
 9460TIP3    H228345   5.190   6.567   5.502
 9461TIP3   OH228346   1.351   2.958   0.344
 9461TIP3    H128347   1.442   2.977   0.321
 9461TIP3    H228348   1.352   2.868   0.375
 9462TIP3   OH228349   5.104   6.178   4.964
 9462TIP3    H128350   5.151   6.162   5.046
 9462TIP3    H228351   5.043   6.105   4.957
 9463TIP3   OH228352   3.803   6.156   5.791
 9463TIP3    H128353   3.860   6.080   5.797
 9463TIP3    H228354   3.862   6.229   5.769
 9464TIP3   OH228355   3.595   6.421   5.852
 9464TIP3    H128356   3.649   6.428   5.773
 9464TIP3    H228357   3.618   6.500   5.903
 9465TIP3   OH228358   5.163   6.098   4.603
 9465TIP3    H128359   5.206   6.035   4.545
 9465TIP3    H228360   5.222   6.174   4.604
 9466TIP3   OH228361   3.585   5.932   5.358
 9466TIP3    H128362   3.497   5.922   5.395
 9466TIP3    H228363   3.572   5.988   5.281
 9467TIP3   OH228364   7.234   0.655   4.868
 9467TIP3    H128365   7.273   0.638   4.783
 9467TIP3    H228366   7.300   0.707   4.915
 9468TIP3   OH228367   1.319   2.482   0.113
 9468TIP3    H128368   1.281   2.493   0.200
 9468TIP3    H228369   1.267   2.539   0.057
 9469TIP3   OH228370   6.539   0.463   5.738
 9469TIP3    H128371   6.471   0.531   5.741
 9469TIP3    H228372   6.605   0.492   5.800
 9470TIP3   OH228373   5.429   6.132   5.905
 9470TIP3    H128374   5.355   6.108   5.849
 9470TIP3    H228375   5.495   6.065   5.887
 9471TIP3   OH228376   6.140   0.753   5.857
 9471TIP3    H128377   6.085   0.798   5.793
 9471TIP3    H228378   6.090   0.675   5.882
 9472TIP3   OH228379   6.355   0.655   5.707
 9472TIP3    H128380   6.300   0.695   5.775
 9472TIP3    H228381   6.359   0.721   5.638
 9473TIP3   OH228382   6.076   0.546   5.536
 9473TIP3    H128383   6.091   0.517   5.626
 9473TIP3    H228384   6.149   0.510   5.487
 9474TIP3   OH228385   6.290   0.423   5.426
 9474TIP3    H128386   6.296   0.339   5.472
 9474TIP3    H228387   6.378   0.459   5.431
 9475TIP3   OH228388   6.557   0.509   5.461
 9475TIP3    H128389   6.579   0.418   5.442
 9475TIP3    H228390   6.550   0.513   5.556
 9476TIP3   OH228391   4.650   6.144   5.526
 9476TIP3    H128392   4.608   6.072   5.574
 9476TIP3    H228393   4.718   6.101   5.474
 9477TIP3   OH228394   5.152   6.038   5.410
 9477TIP3    H128395   5.193   6.089   5.340
 9477TIP3    H228396   5.062   6.071   5.414
 9478TIP3   OH228397   5.268   6.127   5.181
 9478TIP3    H128398   5.338   6.069   5.151
 9478TIP3    H228399   5.303   6.216   5.167
 9479TIP3   OH228400   3.891   5.841   5.527
 9479TIP3    H128401   3.801   5.810   5.534
 9479TIP3    H228402   3.944   5.761   5.521
 9480TIP3   OH228403   3.703   5.738   5.183
 9480TIP3    H128404   3.730   5.789   5.107
 9480TIP3    H228405   3.668   5.802   5.245
 9481TIP3   OH228406   4.356   5.882   5.416
 9481TIP3    H128407   4.407   5.928   5.349
 9481TIP3    H228408   4.395   5.910   5.499
 9482TIP3   OH228409   4.864   6.026   5.398
 9482TIP3    H128410   4.878   5.992   5.310
 9482TIP3    H228411   4.869   5.950   5.455
 9483TIP3   OH228412   4.919   5.968   4.965
 9483TIP3    H128413   4.838   6.014   4.987
 9483TIP3    H228414   4.909   5.881   5.003
 9484TIP3   OH228415   5.872   0.276   4.974
 9484TIP3    H128416   5.804   0.228   4.927
 9484TIP3    H228417   5.859   0.367   4.947
 9485TIP3   OH228418   3.814   5.876   4.948
 9485TIP3    H128419   3.858   5.815   4.889
 9485TIP3    H228420   3.884   5.931   4.982
 9486TIP3   OH228421   4.307   6.069   5.042
 9486TIP3    H128422   4.365   6.017   5.098
 9486TIP3    H228423   4.323   6.159   5.069
 9487TIP3   OH228424   6.651   0.483   4.557
 9487TIP3    H128425   6.730   0.516   4.514
 9487TIP3    H228426   6.618   0.416   4.499
 9488TIP3   OH228427   7.355   0.624   4.627
 9488TIP3    H128428   7.344   0.530   4.609
 9488TIP3    H228429   7.337   0.667   4.544
 9489TIP3   OH228430   1.606   2.599   0.308
 9489TIP3    H128431   1.565   2.597   0.394
 9489TIP3    H228432   1.698   2.577   0.325
 9490TIP3   OH228433   1.857   2.534   0.388
 9490TIP3    H128434   1.899   2.608   0.344
 9490TIP3    H228435   1.863   2.556   0.481
 9491TIP3   OH228436   5.950   0.347   4.608
 9491TIP3    H128437   5.975   0.389   4.690
 9491TIP3    H228438   6.029   0.299   4.581
 9492TIP3   OH228439   5.353   6.618   4.818
 9492TIP3    H128440   5.317   6.704   4.840
 9492TIP3    H228441   5.279   6.571   4.779
 9493TIP3   OH228442   5.420   6.885   4.989
 9493TIP3    H128443   5.475   6.823   5.036
 9493TIP3    H228444   5.482   6.940   4.940
 9494TIP3   OH228445   5.882   6.491   5.056
 9494TIP3    H128446   5.901   6.559   4.991
 9494TIP3    H228447   5.839   6.422   5.007
 9495TIP3   OH228448   5.595   6.705   5.122
 9495TIP3    H128449   5.689   6.717   5.140
 9495TIP3    H228450   5.593   6.647   5.046
 9496TIP3   OH228451   0.300   0.173   4.561
 9496TIP3    H128452   0.270   0.195   4.473
 9496TIP3    H228453   0.320   0.258   4.601
 9497TIP3   OH228454   6.173   6.752   4.138
 9497TIP3    H128455   6.234   6.807   4.187
 9497TIP3    H228456   6.227   6.682   4.103
 9498TIP3   OH228457   6.894   6.119   4.255
 9498TIP3    H128458   6.808   6.134   4.293
 9498TIP3    H228459   6.913   6.199   4.206
 9499TIP3   OH228460   5.666   6.870   4.554
 9499TIP3    H128461   5.585   6.916   4.531
 9499TIP3    H228462   5.638   6.801   4.615
 9500TIP3   OH228463   6.437   6.936   4.030
 9500TIP3    H128464   6.404   6.924   3.941
 9500TIP3    H228465   6.530   6.915   4.024
 9501TIP3   OH228466   6.193   6.310   4.270
 9501TIP3    H128467   6.156   6.319   4.358
 9501TIP3    H228468   6.150   6.233   4.233
 9502TIP3   OH228469   5.866   6.655   4.835
 9502TIP3    H128470   5.774   6.638   4.854
 9502TIP3    H228471   5.877   6.628   4.744
 9503TIP3   OH228472   5.851   6.310   4.237
 9503TIP3    H128473   5.841   6.311   4.332
 9503TIP3    H228474   5.774   6.355   4.204
 9504TIP3   OH228475   5.392   6.354   5.104
 9504TIP3    H128476   5.461   6.388   5.161
 9504TIP3    H228477   5.437   6.329   5.024
 9505TIP3   OH228478   5.324   6.329   4.616
 9505TIP3    H128479   5.369   6.363   4.539
 9505TIP3    H228480   5.261   6.398   4.640
 9506TIP3   OH228481   5.611   6.562   4.890
 9506TIP3    H128482   5.522   6.568   4.855
 9506TIP3    H228483   5.639   6.473   4.870
 9507TIP3   OH228484   5.883   6.562   4.576
 9507TIP3    H128485   5.973   6.584   4.551
 9507TIP3    H228486   5.830   6.584   4.499
 9508TIP3   OH228487   5.745   6.586   4.342
 9508TIP3    H128488   5.677   6.541   4.291
 9508TIP3    H228489   5.796   6.634   4.276
 9509TIP3   OH228490   5.752   6.318   4.868
 9509TIP3    H128491   5.727   6.241   4.918
 9509TIP3    H228492   5.782   6.284   4.783
 9510TIP3   OH228493   1.023   0.146   4.433
 9510TIP3    H128494   0.943   0.093   4.429
 9510TIP3    H228495   1.055   0.147   4.343
 9511TIP3   OH228496   6.417   6.460   4.267
 9511TIP3    H128497   6.335   6.410   4.266
 9511TIP3    H228498   6.412   6.516   4.189
 9512TIP3   OH228499   5.348   6.750   4.388
 9512TIP3    H128500   5.392   6.833   4.406
 9512TIP3    H228501   5.269   6.751   4.442
 9513TIP3   OH228502   0.804   0.319   3.977
 9513TIP3    H128503   0.825   0.232   3.944
 9513TIP3    H228504   0.805   0.309   4.072
 9514TIP3   OH228505   0.775   0.344   4.258
 9514TIP3    H128506   0.853   0.289   4.261
 9514TIP3    H228507   0.808   0.433   4.266
 9515TIP3   OH228508   0.508   0.024   4.461
 9515TIP3    H128509   0.440   0.065   4.514
 9515TIP3    H228510   0.528   0.088   4.393
 9516TIP3   OH228511   6.456   6.439   4.537
 9516TIP3    H128512   6.441   6.440   4.442
 9516TIP3    H228513   6.550   6.449   4.547
 9517TIP3   OH228514   6.179   6.575   4.605
 9517TIP3    H128515   6.271   6.578   4.578
 9517TIP3    H228516   6.175   6.632   4.682
 9518TIP3   OH228517   6.322   6.283   4.722
 9518TIP3    H128518   6.349   6.335   4.797
 9518TIP3    H228519   6.364   6.325   4.647
 9519TIP3   OH228520   5.829   6.292   4.516
 9519TIP3    H128521   5.821   6.384   4.544
 9519TIP3    H228522   5.923   6.274   4.522
 9520TIP3   OH228523   0.523   0.217   4.256
 9520TIP3    H128524   0.593   0.281   4.269
 9520TIP3    H228525   0.559   0.155   4.192
 9521TIP3   OH228526   5.382   6.474   4.391
 9521TIP3    H128527   5.392   6.569   4.397
 9521TIP3    H228528   5.314   6.461   4.326
 9522TIP3   OH228529   5.728   6.206   5.268
 9522TIP3    H128530   5.727   6.172   5.178
 9522TIP3    H228531   5.744   6.129   5.322
 9523TIP3   OH228532   0.342   0.428   4.646
 9523TIP3    H128533   0.316   0.487   4.716
 9523TIP3    H228534   0.334   0.480   4.566
 9524TIP3   OH228535   1.004   0.503   3.928
 9524TIP3    H128536   0.938   0.436   3.946
 9524TIP3    H228537   1.081   0.453   3.899
 9525TIP3   OH228538   0.659   0.028   4.111
 9525TIP3    H128539   0.707   0.001   4.189
 9525TIP3    H228540   0.726   0.039   4.044
 9526TIP3   OH228541   1.151   0.245   3.914
 9526TIP3    H128542   1.183   0.274   3.999
 9526TIP3    H228543   1.156   0.150   3.917
 9527TIP3   OH228544   5.770   6.933   4.311
 9527TIP3    H128545   5.742   6.899   4.396
 9527TIP3    H228546   5.817   6.861   4.271
 9528TIP3   OH228547   5.895   6.732   4.161
 9528TIP3    H128548   5.869   6.739   4.069
 9528TIP3    H228549   5.990   6.732   4.159
 9529TIP3   OH228550   0.250   0.192   4.280
 9529TIP3    H128551   0.343   0.211   4.273
 9529TIP3    H228552   0.240   0.105   4.241
 9530TIP3   OH228553   6.816   6.604   3.922
 9530TIP3    H128554   6.807   6.653   3.841
 9530TIP3    H228555   6.765   6.525   3.908
 9531TIP3   OH228556   6.710   6.351   3.933
 9531TIP3    H128557   6.771   6.341   4.006
 9531TIP3    H228558   6.625   6.325   3.969
 9532TIP3   OH228559   5.582   6.432   5.293
 9532TIP3    H128560   5.631   6.350   5.295
 9532TIP3    H228561   5.647   6.498   5.269
 9533TIP3   OH228562   5.389   6.708   5.326
 9533TIP3    H128563   5.453   6.671   5.264
 9533TIP3    H228564   5.397   6.803   5.314
 9534TIP3   OH228565   6.944   6.334   4.093
 9534TIP3    H128566   7.000   6.285   4.032
 9534TIP3    H228567   6.981   6.422   4.094
 9535TIP3   OH228568   5.380   6.190   4.844
 9535TIP3    H128569   5.293   6.180   4.881
 9535TIP3    H228570   5.368   6.247   4.767
 9536TIP3   OH228571   5.689   6.094   5.013
 9536TIP3    H128572   5.600   6.062   5.023
 9536TIP3    H228573   5.742   6.014   5.005
 9537TIP3   OH228574   5.494   5.994   4.670
 9537TIP3    H128575   5.522   6.046   4.594
 9537TIP3    H228576   5.461   6.058   4.732
 9538TIP3   OH228577   6.148   6.139   4.901
 9538TIP3    H128578   6.199   6.189   4.837
 9538TIP3    H228579   6.112   6.205   4.960
 9539TIP3   OH228580   6.678   6.198   4.408
 9539TIP3    H128581   6.734   6.243   4.471
 9539TIP3    H228582   6.654   6.115   4.451
 9540TIP3   OH228583   0.278   0.568   4.418
 9540TIP3    H128584   0.191   0.533   4.400
 9540TIP3    H228585   0.273   0.660   4.391
 9541TIP3   OH228586   5.610   6.132   4.435
 9541TIP3    H128587   5.654   6.070   4.377
 9541TIP3    H228588   5.680   6.188   4.469
 9542TIP3   OH228589   6.105   6.320   4.534
 9542TIP3    H128590   6.161   6.271   4.593
 9542TIP3    H228591   6.120   6.412   4.557
 9543TIP3   OH228592   0.353   0.580   4.100
 9543TIP3    H128593   0.362   0.579   4.196
 9543TIP3    H228594   0.430   0.534   4.068
 9544TIP3   OH228595   5.424   0.443   4.889
 9544TIP3    H128596   5.356   0.468   4.952
 9544TIP3    H228597   5.394   0.476   4.805
 9545TIP3   OH228598   5.469   0.618   5.658
 9545TIP3    H128599   5.463   0.707   5.693
 9545TIP3    H228600   5.381   0.599   5.624
 9546TIP3   OH228601   5.573   0.808   5.344
 9546TIP3    H128602   5.584   0.716   5.370
 9546TIP3    H228603   5.622   0.858   5.409
 9547TIP3   OH228604   3.996   0.288   5.401
 9547TIP3    H128605   4.001   0.329   5.315
 9547TIP3    H228606   3.906   0.305   5.431
 9548TIP3   OH228607   5.229   0.562   5.521
 9548TIP3    H128608   5.210   0.529   5.433
 9548TIP3    H228609   5.188   0.498   5.580
 9549TIP3   OH228610   5.249   0.497   5.083
 9549TIP3    H128611   5.172   0.550   5.107
 9549TIP3    H228612   5.246   0.422   5.143
 9550TIP3   OH228613   6.729   0.670   5.304
 9550TIP3    H128614   6.673   0.617   5.361
 9550TIP3    H228615   6.725   0.758   5.341
 9551TIP3   OH228616   7.258   0.756   4.382
 9551TIP3    H128617   7.184   0.755   4.443
 9551TIP3    H228618   7.225   0.806   4.306
 9552TIP3   OH228619   6.326   0.845   5.516
 9552TIP3    H128620   6.242   0.833   5.471
 9552TIP3    H228621   6.345   0.938   5.508
 9553TIP3   OH228622   6.097   0.777   5.396
 9553TIP3    H128623   6.018   0.770   5.342
 9553TIP3    H228624   6.096   0.698   5.451
 9554TIP3   OH228625   6.669   1.085   5.124
 9554TIP3    H128626   6.664   0.994   5.095
 9554TIP3    H228627   6.699   1.133   5.047
 9555TIP3   OH228628   5.994   0.651   5.098
 9555TIP3    H128629   5.906   0.614   5.105
 9555TIP3    H228630   6.052   0.583   5.134
 9556TIP3   OH228631   5.765   0.510   4.857
 9556TIP3    H128632   5.848   0.542   4.821
 9556TIP3    H228633   5.722   0.588   4.892
 9557TIP3   OH228634   6.515   0.649   5.125
 9557TIP3    H128635   6.506   0.706   5.049
 9557TIP3    H228636   6.608   0.650   5.145
 9558TIP3   OH228637   7.020   0.819   4.963
 9558TIP3    H128638   7.061   0.758   4.901
 9558TIP3    H228639   7.005   0.767   5.042
 9559TIP3   OH228640   7.057   0.735   4.559
 9559TIP3    H128641   6.989   0.791   4.598
 9559TIP3    H228642   7.054   0.654   4.610
 9560TIP3   OH228643   0.220   0.807   4.291
 9560TIP3    H128644   0.252   0.847   4.210
 9560TIP3    H228645   0.144   0.860   4.315
 9561TIP3   OH228646   0.561   5.549   1.336
 9561TIP3    H128647   0.565   5.458   1.306
 9561TIP3    H228648   0.589   5.545   1.427
 9562TIP3   OH228649   0.684   5.757   1.210
 9562TIP3    H128650   0.622   5.693   1.246
 9562TIP3    H228651   0.744   5.776   1.282
 9563TIP3   OH228652   0.464   6.036   1.434
 9563TIP3    H128653   0.557   6.052   1.415
 9563TIP3    H228654   0.419   6.057   1.352
 9564TIP3   OH228655   0.717   6.067   1.329
 9564TIP3    H128656   0.756   6.154   1.337
 9564TIP3    H228657   0.665   6.072   1.249
 9565TIP3   OH228658   0.082   5.752   1.393
 9565TIP3    H128659   0.094   5.773   1.485
 9565TIP3    H228660   0.171   5.736   1.360
 9566TIP3   OH228661   1.845   0.346   1.314
 9566TIP3    H128662   1.847   0.437   1.285
 9566TIP3    H228663   1.932   0.313   1.294
 9567TIP3   OH228664   1.346   0.547   1.425
 9567TIP3    H128665   1.396   0.483   1.375
 9567TIP3    H228666   1.380   0.539   1.514
 9568TIP3   OH228667   6.480   6.836   1.406
 9568TIP3    H128668   6.443   6.769   1.349
 9568TIP3    H228669   6.575   6.826   1.396
 9569TIP3   OH228670   1.740   0.400   1.564
 9569TIP3    H128671   1.798   0.350   1.622
 9569TIP3    H228672   1.770   0.379   1.476
 9570TIP3   OH228673   1.532   0.137   1.455
 9570TIP3    H128674   1.559   0.159   1.544
 9570TIP3    H228675   1.516   0.043   1.458
 9571TIP3   OH228676   1.856   0.615   1.265
 9571TIP3    H128677   1.907   0.689   1.231
 9571TIP3    H228678   1.782   0.655   1.310
 9572TIP3   OH228679   1.059   0.311   1.370
 9572TIP3    H128680   1.052   0.266   1.454
 9572TIP3    H228681   1.132   0.269   1.326
 9573TIP3   OH228682   1.482   0.358   1.287
 9573TIP3    H128683   1.523   0.293   1.345
 9573TIP3    H228684   1.537   0.356   1.208
 9574TIP3   OH228685   6.744   6.849   1.311
 9574TIP3    H128686   6.731   6.798   1.231
 9574TIP3    H228687   6.720   6.939   1.286
 9575TIP3   OH228688   6.966   6.813   1.467
 9575TIP3    H128689   6.889   6.824   1.410
 9575TIP3    H228690   6.937   6.847   1.552
 9576TIP3   OH228691   6.826   6.441   1.423
 9576TIP3    H128692   6.824   6.536   1.429
 9576TIP3    H228693   6.762   6.420   1.355
 9577TIP3   OH228694   1.072   0.576   1.477
 9577TIP3    H128695   1.165   0.583   1.458
 9577TIP3    H228696   1.045   0.493   1.435
 9578TIP3   OH228697   1.869   0.651   1.576
 9578TIP3    H128698   1.811   0.575   1.581
 9578TIP3    H228699   1.820   0.715   1.524
 9579TIP3   OH228700   2.161   0.206   1.549
 9579TIP3    H128701   2.120   0.234   1.467
 9579TIP3    H228702   2.173   0.287   1.598
 9580TIP3   OH228703   3.122   0.031   1.394
 9580TIP3    H128704   3.042   0.083   1.389
 9580TIP3    H228705   3.158   0.034   1.305
 9581TIP3   OH228706   0.607   6.814   1.092
 9581TIP3    H128707   0.672   6.866   1.139
 9581TIP3    H228708   0.658   6.749   1.044
 9582TIP3   OH228709   3.392   0.178   1.335
 9582TIP3    H128710   3.358   0.155   1.421
 9582TIP3    H228711   3.485   0.156   1.339
 9583TIP3   OH228712   3.290  -0.011   1.171
 9583TIP3    H128713   3.330   0.063   1.216
 9583TIP3    H228714   3.319  -0.004   1.080
 9584TIP3   OH228715   0.115   6.903   1.534
 9584TIP3    H128716   0.038   6.955   1.514
 9584TIP3    H228717   0.083   6.813   1.538
 9585TIP3   OH228718   3.519   0.617   0.753
 9585TIP3    H128719   3.535   0.708   0.729
 9585TIP3    H228720   3.606   0.577   0.759
 9586TIP3   OH228721   2.921   0.941   1.391
 9586TIP3    H128722   2.902   0.953   1.298
 9586TIP3    H228723   2.959   1.024   1.419
 9587TIP3   OH228724   3.080   0.774   0.822
 9587TIP3    H128725   3.136   0.704   0.790
 9587TIP3    H228726   3.070   0.756   0.915
 9588TIP3   OH228727   3.170   0.903   1.285
 9588TIP3    H128728   3.083   0.886   1.321
 9588TIP3    H228729   3.211   0.817   1.279
 9589TIP3   OH228730   3.377  -0.006   0.917
 9589TIP3    H128731   3.336  -0.019   0.831
 9589TIP3    H228732   3.462   0.034   0.897
 9590TIP3   OH228733   0.668   6.341   1.246
 9590TIP3    H128734   0.631   6.364   1.331
 9590TIP3    H228735   0.601   6.287   1.204
 9591TIP3   OH228736   0.805   6.808   1.513
 9591TIP3    H128737   0.746   6.865   1.464
 9591TIP3    H228738   0.851   6.757   1.447
 9592TIP3   OH228739   0.308   6.370   1.210
 9592TIP3    H128740   0.296   6.365   1.305
 9592TIP3    H228741   0.228   6.413   1.178
 9593TIP3   OH228742   0.311   6.601   1.566
 9593TIP3    H128743   0.399   6.639   1.565
 9593TIP3    H228744   0.268   6.639   1.489
 9594TIP3   OH228745   0.176   6.659   1.330
 9594TIP3    H128746   0.111   6.607   1.284
 9594TIP3    H228747   0.233   6.695   1.262
 9595TIP3   OH228748   2.889   0.187   1.374
 9595TIP3    H128749   2.813   0.132   1.356
 9595TIP3    H228750   2.866   0.234   1.454
 9596TIP3   OH228751   0.857   6.520   1.156
 9596TIP3    H128752   0.792   6.466   1.202
 9596TIP3    H228753   0.895   6.575   1.225
 9597TIP3   OH228754   0.971   6.755   1.281
 9597TIP3    H128755   1.064   6.780   1.279
 9597TIP3    H228756   0.926   6.825   1.234
 9598TIP3   OH228757   2.980   0.313   1.148
 9598TIP3    H128758   3.035   0.386   1.178
 9598TIP3    H228759   2.953   0.269   1.228
 9599TIP3   OH228760   1.438   6.763   1.100
 9599TIP3    H128761   1.358   6.739   1.053
 9599TIP3    H228762   1.412   6.760   1.193
 9600TIP3   OH228763   3.635   0.726   0.994
 9600TIP3    H128764   3.629   0.701   1.086
 9600TIP3    H228765   3.561   0.682   0.952
 9601TIP3   OH228766   7.207   6.804   1.345
 9601TIP3    H128767   7.251   6.887   1.367
 9601TIP3    H228768   7.124   6.807   1.393
 9602TIP3   OH228769   3.278   0.379   0.927
 9602TIP3    H128770   3.329   0.342   0.999
 9602TIP3    H228771   3.191   0.338   0.936
 9603TIP3   OH228772   3.572   0.885   0.738
 9603TIP3    H128773   3.653   0.924   0.771
 9603TIP3    H228774   3.514   0.883   0.814
 9604TIP3   OH228775   3.454   0.328   1.122
 9604TIP3    H128776   3.420   0.291   1.204
 9604TIP3    H228777   3.545   0.299   1.119
 9605TIP3   OH228778   2.664   0.351   0.964
 9605TIP3    H128779   2.676   0.261   0.934
 9605TIP3    H228780   2.645   0.343   1.057
 9606TIP3   OH228781   2.620   0.365   1.234
 9606TIP3    H128782   2.703   0.354   1.280
 9606TIP3    H228783   2.602   0.459   1.237
 9607TIP3   OH228784   2.369   0.071   1.430
 9607TIP3    H128785   2.300   0.107   1.487
 9607TIP3    H228786   2.382   0.138   1.363
 9608TIP3   OH228787   0.890   6.510   1.465
 9608TIP3    H128788   0.879   6.423   1.502
 9608TIP3    H228789   0.976   6.538   1.496
 9609TIP3   OH228790   2.846   0.579   1.201
 9609TIP3    H128791   2.754   0.603   1.199
 9609TIP3    H228792   2.858   0.526   1.122
 9610TIP3   OH228793   0.592   6.643   1.587
 9610TIP3    H128794   0.670   6.690   1.559
 9610TIP3    H228795   0.617   6.603   1.670
 9611TIP3   OH228796   2.578   0.632   1.214
 9611TIP3    H128797   2.553   0.694   1.146
 9611TIP3    H228798   2.594   0.686   1.291
 9612TIP3   OH228799   0.284   6.340   1.483
 9612TIP3    H128800   0.263   6.424   1.524
 9612TIP3    H228801   0.379   6.334   1.486
 9613TIP3   OH228802   2.361   0.263   1.221
 9613TIP3    H128803   2.434   0.323   1.237
 9613TIP3    H228804   2.395   0.198   1.160
 9614TIP3   OH228805   7.236   6.533   1.301
 9614TIP3    H128806   7.239   6.625   1.327
 9614TIP3    H228807   7.179   6.492   1.365
 9615TIP3   OH228808   2.189   0.566   1.619
 9615TIP3    H128809   2.107   0.604   1.650
 9615TIP3    H228810   2.186   0.577   1.524
 9616TIP3   OH228811   2.839   0.527   0.855
 9616TIP3    H128812   2.782   0.459   0.892
 9616TIP3    H228813   2.908   0.478   0.810
 9617TIP3   OH228814   3.245   0.581   0.734
 9617TIP3    H128815   3.285   0.534   0.807
 9617TIP3    H228816   3.316   0.593   0.671
 9618TIP3   OH228817   2.501   0.070   1.088
 9618TIP3    H128818   2.551   0.046   1.165
 9618TIP3    H228819   2.566   0.076   1.018
 9619TIP3   OH228820   3.018   0.269   0.887
 9619TIP3    H128821   2.990   0.282   0.977
 9619TIP3    H228822   3.016   0.174   0.875
 9620TIP3   OH228823   0.223   6.983   1.295
 9620TIP3    H128824   0.191   6.946   1.377
 9620TIP3    H228825   0.263   6.909   1.249
 9621TIP3   OH228826   0.336   6.781   1.140
 9621TIP3    H128827   0.307   6.784   1.049
 9621TIP3    H228828   0.432   6.787   1.135
 9622TIP3   OH228829   3.597   0.098   0.787
 9622TIP3    H128830   3.580   0.051   0.705
 9622TIP3    H228831   3.563   0.186   0.771
 9623TIP3   OH228832   2.594   0.876   1.069
 9623TIP3    H128833   2.682   0.847   1.044
 9623TIP3    H228834   2.559   0.918   0.991
 9624TIP3   OH228835   2.092   0.237   1.262
 9624TIP3    H128836   2.185   0.258   1.252
 9624TIP3    H228837   2.082   0.151   1.220
 9625TIP3   OH228838   3.727   0.259   1.114
 9625TIP3    H128839   3.716   0.331   1.051
 9625TIP3    H228840   3.777   0.297   1.186
 9626TIP3   OH228841   3.826   0.082   0.937
 9626TIP3    H128842   3.763   0.067   0.866
 9626TIP3    H228843   3.779   0.137   0.999
 9627TIP3   OH228844   1.181   6.720   0.941
 9627TIP3    H128845   1.147   6.728   0.852
 9627TIP3    H228846   1.174   6.626   0.960
 9628TIP3   OH228847   1.157   6.447   0.973
 9628TIP3    H128848   1.220   6.395   0.923
 9628TIP3    H228849   1.072   6.407   0.954
 9629TIP3   OH228850   2.124   0.627   1.358
 9629TIP3    H128851   2.036   0.590   1.362
 9629TIP3    H228852   2.110   0.720   1.343
 9630TIP3   OH228853   0.072   6.211   1.347
 9630TIP3    H128854   0.117   6.137   1.307
 9630TIP3    H228855   0.137   6.249   1.406
 9631TIP3   OH228856   0.556   6.383   1.496
 9631TIP3    H128857   0.592   6.357   1.580
 9631TIP3    H228858   0.556   6.479   1.498
 9632TIP3   OH228859   2.809   0.784   0.928
 9632TIP3    H128860   2.874   0.830   0.876
 9632TIP3    H228861   2.818   0.692   0.901
 9633TIP3   OH228862   2.188   0.637   1.066
 9633TIP3    H128863   2.182   0.633   1.161
 9633TIP3    H228864   2.271   0.593   1.045
 9634TIP3   OH228865   3.908   0.576   1.043
 9634TIP3    H128866   3.977   0.590   0.978
 9634TIP3    H228867   3.827   0.579   0.992
 9635TIP3   OH228868   4.076   0.055   0.814
 9635TIP3    H128869   4.123   0.138   0.823
 9635TIP3    H228870   3.994   0.069   0.862
 9636TIP3   OH228871   4.206   0.322   0.828
 9636TIP3    H128872   4.171   0.323   0.917
 9636TIP3    H228873   4.150   0.382   0.779
 9637TIP3   OH228874   4.085   0.503   0.591
 9637TIP3    H128875   4.106   0.568   0.658
 9637TIP3    H228876   4.170   0.469   0.562
 9638TIP3   OH228877   1.639   6.756   0.811
 9638TIP3    H128878   1.635   6.851   0.818
 9638TIP3    H228879   1.587   6.724   0.884
 9639TIP3   OH228880   4.307   0.358   0.525
 9639TIP3    H128881   4.334   0.304   0.599
 9639TIP3    H228882   4.384   0.365   0.469
 9640TIP3   OH228883   3.923   0.391   0.801
 9640TIP3    H128884   3.947   0.477   0.767
 9640TIP3    H228885   3.898   0.340   0.724
 9641TIP3   OH228886   7.091   1.893   1.455
 9641TIP3    H128887   7.100   1.988   1.456
 9641TIP3    H228888   7.179   1.861   1.436
 9642TIP3   OH228889   6.753   1.856   1.377
 9642TIP3    H128890   6.775   1.890   1.464
 9642TIP3    H228891   6.808   1.905   1.317
 9643TIP3   OH228892   7.065   1.451   1.478
 9643TIP3    H128893   7.036   1.384   1.415
 9643TIP3    H228894   7.037   1.534   1.439
 9644TIP3   OH228895   0.964   1.609   1.523
 9644TIP3    H128896   0.887   1.659   1.493
 9644TIP3    H228897   1.021   1.605   1.446
 9645TIP3   OH228898   0.931   1.401   1.245
 9645TIP3    H128899   0.996   1.446   1.299
 9645TIP3    H228900   0.981   1.336   1.196
 9646TIP3   OH228901   1.313   1.701   1.538
 9646TIP3    H128902   1.229   1.705   1.583
 9646TIP3    H228903   1.369   1.651   1.597
 9647TIP3   OH228904   1.163   1.555   1.336
 9647TIP3    H128905   1.228   1.612   1.378
 9647TIP3    H228906   1.182   1.562   1.243
 9648TIP3   OH228907   1.677   0.778   1.397
 9648TIP3    H128908   1.603   0.796   1.455
 9648TIP3    H228909   1.684   0.856   1.342
 9649TIP3   OH228910   1.461   2.106   0.955
 9649TIP3    H128911   1.448   2.186   0.904
 9649TIP3    H228912   1.549   2.075   0.930
 9650TIP3   OH228913   0.769   2.493   1.370
 9650TIP3    H128914   0.731   2.455   1.291
 9650TIP3    H228915   0.712   2.567   1.391
 9651TIP3   OH228916   0.976   2.352   1.048
 9651TIP3    H128917   1.031   2.283   1.010
 9651TIP3    H228918   1.004   2.357   1.139
 9652TIP3   OH228919   1.020   2.397   1.316
 9652TIP3    H128920   0.936   2.427   1.351
 9652TIP3    H228921   1.063   2.355   1.390
 9653TIP3   OH228922   1.226   1.555   1.074
 9653TIP3    H128923   1.183   1.547   0.989
 9653TIP3    H228924   1.308   1.601   1.054
 9654TIP3   OH228925   0.938   0.970   1.395
 9654TIP3    H128926   0.898   0.971   1.482
 9654TIP3    H228927   0.906   0.889   1.355
 9655TIP3   OH228928   1.092   1.404   1.664
 9655TIP3    H128929   1.035   1.470   1.624
 9655TIP3    H228930   1.141   1.366   1.591
 9656TIP3   OH228931   0.586   0.937   1.375
 9656TIP3    H128932   0.580   0.967   1.466
 9656TIP3    H228933   0.514   0.981   1.331
 9657TIP3   OH228934   0.462   1.239   1.445
 9657TIP3    H128935   0.415   1.186   1.380
 9657TIP3    H228936   0.537   1.274   1.398
 9658TIP3   OH228937   0.710   1.756   1.495
 9658TIP3    H128938   0.646   1.691   1.467
 9658TIP3    H228939   0.710   1.750   1.590
 9659TIP3   OH228940   1.180   1.075   1.334
 9659TIP3    H128941   1.092   1.048   1.359
 9659TIP3    H228942   1.189   1.164   1.369
 9660TIP3   OH228943   1.251   1.315   1.450
 9660TIP3    H128944   1.346   1.312   1.463
 9660TIP3    H228945   1.236   1.397   1.403
 9661TIP3   OH228946   0.857   1.897   1.307
 9661TIP3    H128947   0.824   1.986   1.318
 9661TIP3    H228948   0.812   1.846   1.375
 9662TIP3   OH228949   1.686   1.390   1.278
 9662TIP3    H128950   1.627   1.351   1.214
 9662TIP3    H228951   1.692   1.482   1.253
 9663TIP3   OH228952   1.320   2.232   1.154
 9663TIP3    H128953   1.321   2.180   1.234
 9663TIP3    H228954   1.363   2.177   1.088
 9664TIP3   OH228955   1.141   1.954   1.103
 9664TIP3    H128956   1.194   1.920   1.174
 9664TIP3    H228957   1.052   1.923   1.121
 9665TIP3   OH228958   1.387   2.343   0.853
 9665TIP3    H128959   1.459   2.403   0.834
 9665TIP3    H228960   1.342   2.383   0.927
 9666TIP3   OH228961   1.301   1.850   1.297
 9666TIP3    H128962   1.291   1.814   1.385
 9666TIP3    H228963   1.396   1.847   1.281
 9667TIP3   OH228964   0.514   1.924   1.112
 9667TIP3    H128965   0.526   1.833   1.084
 9667TIP3    H228966   0.499   1.918   1.206
 9668TIP3   OH228967   0.473   1.944   1.384
 9668TIP3    H128968   0.554   1.913   1.425
 9668TIP3    H228969   0.479   2.039   1.390
 9669TIP3   OH228970   0.254   1.634   1.571
 9669TIP3    H128971   0.181   1.638   1.633
 9669TIP3    H228972   0.237   1.704   1.508
 9670TIP3   OH228973   1.300   1.047   1.591
 9670TIP3    H128974   1.263   1.049   1.502
 9670TIP3    H228975   1.281   1.134   1.626
 9671TIP3   OH228976   0.732   2.139   1.330
 9671TIP3    H128977   0.652   2.174   1.370
 9671TIP3    H228978   0.752   2.200   1.259
 9672TIP3   OH228979   0.474   2.223   1.396
 9672TIP3    H128980   0.459   2.284   1.323
 9672TIP3    H228981   0.427   2.262   1.470
 9673TIP3   OH228982   0.215   1.834   1.379
 9673TIP3    H128983   0.291   1.890   1.389
 9673TIP3    H228984   0.240   1.770   1.313
 9674TIP3   OH228985   0.680   2.120   1.014
 9674TIP3    H128986   0.629   2.049   1.053
 9674TIP3    H228987   0.753   2.077   0.971
 9675TIP3   OH228988   1.117   2.162   0.918
 9675TIP3    H128989   1.150   2.101   0.984
 9675TIP3    H228990   1.179   2.155   0.846
 9676TIP3   OH228991   0.334   1.635   1.234
 9676TIP3    H128992   0.381   1.606   1.313
 9676TIP3    H228993   0.403   1.642   1.167
 9677TIP3   OH228994   0.867   1.841   1.042
 9677TIP3    H128995   0.851   1.854   1.136
 9677TIP3    H228996   0.865   1.746   1.031
 9678TIP3   OH228997   0.527   1.559   1.440
 9678TIP3    H128998   0.463   1.519   1.500
 9678TIP3    H228999   0.570   1.484   1.399
 9679TIP3   OH229000   0.655   1.363   1.291
 9679TIP3    H129001   0.628   1.368   1.199
 9679TIP3    H229002   0.751   1.368   1.288
 9680TIP3   OH229003   1.449   1.671   0.958
 9680TIP3    H129004   1.435   1.624   0.877
 9680TIP3    H229005   1.412   1.758   0.943
 9681TIP3   OH229006   0.457   2.424   1.206
 9681TIP3    H129007   0.544   2.408   1.171
 9681TIP3    H229008   0.409   2.464   1.133
 9682TIP3   OH229009   7.340   1.816   1.366
 9682TIP3    H129010   7.433   1.827   1.382
 9682TIP3    H229011   7.332   1.724   1.339
 9683TIP3   OH229012   1.574   1.850   1.280
 9683TIP3    H129013   1.604   1.922   1.224
 9683TIP3    H229014   1.627   1.857   1.359
 9684TIP3   OH229015   1.640   1.626   1.146
 9684TIP3    H129016   1.574   1.630   1.077
 9684TIP3    H229017   1.619   1.699   1.204
 9685TIP3   OH229018   1.524   1.299   1.077
 9685TIP3    H129019   1.469   1.336   1.007
 9685TIP3    H229020   1.510   1.205   1.071
 9686TIP3   OH229021   1.475   1.029   1.052
 9686TIP3    H129022   1.540   1.005   1.119
 9686TIP3    H229023   1.396   0.983   1.079
 9687TIP3   OH229024   1.524   1.300   1.487
 9687TIP3    H129025   1.568   1.219   1.513
 9687TIP3    H229026   1.585   1.344   1.429
 9688TIP3   OH229027   1.661   1.068   1.570
 9688TIP3    H129028   1.681   1.085   1.662
 9688TIP3    H229029   1.604   0.991   1.571
 9689TIP3   OH229030   1.702   0.984   1.210
 9689TIP3    H129031   1.746   0.919   1.154
 9689TIP3    H229032   1.767   1.053   1.221
 9690TIP3   OH229033   1.481   0.850   1.578
 9690TIP3    H129034   1.415   0.919   1.583
 9690TIP3    H229035   1.440   0.775   1.622
 9691TIP3   OH229036   0.712   2.363   1.128
 9691TIP3    H129037   0.799   2.387   1.097
 9691TIP3    H229038   0.691   2.282   1.081
 9692TIP3   OH229039   1.451   2.453   1.250
 9692TIP3    H129040   1.427   2.361   1.239
 9692TIP3    H229041   1.422   2.495   1.170
 9693TIP3   OH229042   0.049   2.211   1.188
 9693TIP3    H129043   0.058   2.228   1.281
 9693TIP3    H229044   0.126   2.159   1.164
 9694TIP3   OH229045   1.879   1.618   1.368
 9694TIP3    H129046   1.811   1.607   1.436
 9694TIP3    H229047   1.924   1.533   1.367
 9695TIP3   OH229048   1.730   2.066   1.188
 9695TIP3    H129049   1.703   2.050   1.098
 9695TIP3    H229050   1.803   2.128   1.181
 9696TIP3   OH229051   2.771   1.625   0.701
 9696TIP3    H129052   2.788   1.664   0.787
 9696TIP3    H229053   2.844   1.655   0.647
 9697TIP3   OH229054   3.503   1.092   0.936
 9697TIP3    H129055   3.434   1.027   0.927
 9697TIP3    H229056   3.524   1.117   0.845
 9698TIP3   OH229057   2.206   1.803   1.210
 9698TIP3    H129058   2.124   1.847   1.189
 9698TIP3    H229059   2.186   1.748   1.286
 9699TIP3   OH229060   3.021   1.872   0.704
 9699TIP3    H129061   2.935   1.889   0.666
 9699TIP3    H229062   3.083   1.890   0.632
 9700TIP3   OH229063   2.741   1.202   0.816
 9700TIP3    H129064   2.721   1.205   0.910
 9700TIP3    H229065   2.706   1.118   0.786
 9701TIP3   OH229066   2.378   1.173   0.834
 9701TIP3    H129067   2.378   1.162   0.929
 9701TIP3    H229068   2.302   1.229   0.817
 9702TIP3   OH229069   1.882   1.205   1.231
 9702TIP3    H129070   1.920   1.238   1.149
 9702TIP3    H229071   1.821   1.274   1.259
 9703TIP3   OH229072   2.446   1.410   1.122
 9703TIP3    H129073   2.461   1.489   1.173
 9703TIP3    H229074   2.362   1.426   1.078
 9704TIP3   OH229075   2.205   1.336   0.982
 9704TIP3    H129076   2.112   1.315   0.978
 9704TIP3    H229077   2.212   1.421   0.938
 9705TIP3   OH229078   2.614   1.924   0.931
 9705TIP3    H129079   2.573   1.847   0.970
 9705TIP3    H229080   2.598   1.994   0.994
 9706TIP3   OH229081   2.899   1.409   0.982
 9706TIP3    H129082   2.831   1.349   0.951
 9706TIP3    H229083   2.954   1.424   0.906
 9707TIP3   OH229084   1.874   1.591   1.016
 9707TIP3    H129085   1.894   1.675   0.975
 9707TIP3    H229086   1.799   1.609   1.073
 9708TIP3   OH229087   2.253   2.205   0.630
 9708TIP3    H129088   2.317   2.148   0.588
 9708TIP3    H229089   2.272   2.198   0.723
 9709TIP3   OH229090   2.442   2.301   0.935
 9709TIP3    H129091   2.445   2.209   0.910
 9709TIP3    H229092   2.475   2.348   0.858
 9710TIP3   OH229093   1.970   1.907   1.132
 9710TIP3    H129094   1.886   1.943   1.162
 9710TIP3    H229095   1.997   1.966   1.062
 9711TIP3   OH229096   3.040   1.250   1.142
 9711TIP3    H129097   2.984   1.302   1.085
 9711TIP3    H229098   3.075   1.313   1.206
 9712TIP3   OH229099   2.740   1.499   1.195
 9712TIP3    H129100   2.810   1.483   1.132
 9712TIP3    H229101   2.740   1.594   1.208
 9713TIP3   OH229102   2.398   1.135   1.118
 9713TIP3    H129103   2.429   1.225   1.119
 9713TIP3    H229104   2.472   1.084   1.152
 9714TIP3   OH229105   2.106   1.997   0.901
 9714TIP3    H129106   2.165   2.070   0.919
 9714TIP3    H229107   2.060   2.022   0.822
 9715TIP3   OH229108   1.928   1.329   0.990
 9715TIP3    H129109   1.910   1.422   1.005
 9715TIP3    H229110   1.853   1.298   0.938
 9716TIP3   OH229111   1.901   2.286   1.259
 9716TIP3    H129112   1.860   2.348   1.319
 9716TIP3    H229113   1.879   2.318   1.172
 9717TIP3   OH229114   2.369   2.290   0.383
 9717TIP3    H129115   2.313   2.283   0.460
 9717TIP3    H229116   2.457   2.268   0.414
 9718TIP3   OH229117   2.120   1.861   0.631
 9718TIP3    H129118   2.188   1.848   0.698
 9718TIP3    H229119   2.168   1.867   0.549
 9719TIP3   OH229120   2.674   2.130   0.682
 9719TIP3    H129121   2.583   2.099   0.683
 9719TIP3    H229122   2.724   2.055   0.650
 9720TIP3   OH229123   2.419   1.728   0.995
 9720TIP3    H129124   2.351   1.766   1.050
 9720TIP3    H229125   2.394   1.752   0.906
 9721TIP3   OH229126   2.463   1.546   0.716
 9721TIP3    H129127   2.519   1.540   0.638
 9721TIP3    H229128   2.521   1.521   0.788
 9722TIP3   OH229129   1.704   1.993   0.912
 9722TIP3    H129130   1.790   2.034   0.912
 9722TIP3    H229131   1.713   1.917   0.855
 9723TIP3   OH229132   3.217   1.572   0.640
 9723TIP3    H129133   3.284   1.555   0.706
 9723TIP3    H229134   3.188   1.486   0.611
 9724TIP3   OH229135   3.140   1.336   0.519
 9724TIP3    H129136   3.213   1.274   0.517
 9724TIP3    H229137   3.065   1.285   0.550
 9725TIP3   OH229138   3.560   1.194   0.691
 9725TIP3    H129139   3.563   1.119   0.631
 9725TIP3    H229140   3.551   1.270   0.633
 9726TIP3   OH229141   1.912   1.036   1.441
 9726TIP3    H129142   1.829   1.046   1.488
 9726TIP3    H229143   1.913   1.109   1.379
 9727TIP3   OH229144   2.015   0.860   1.256
 9727TIP3    H129145   2.052   0.918   1.190
 9727TIP3    H229146   1.984   0.918   1.326
 9728TIP3   OH229147   3.194   1.041   1.058
 9728TIP3    H129148   3.171   1.129   1.087
 9728TIP3    H229149   3.189   0.988   1.137
 9729TIP3   OH229150   1.812   2.419   1.043
 9729TIP3    H129151   1.747   2.417   0.972
 9729TIP3    H229152   1.805   2.507   1.080
 9730TIP3   OH229153   2.152   1.011   1.041
 9730TIP3    H129154   2.192   0.944   0.985
 9730TIP3    H229155   2.226   1.062   1.074
 9731TIP3   OH229156   2.695   1.233   1.083
 9731TIP3    H129157   2.677   1.165   1.148
 9731TIP3    H229158   2.688   1.315   1.132
 9732TIP3   OH229159   1.781   2.535   0.667
 9732TIP3    H129160   1.739   2.486   0.738
 9732TIP3    H229161   1.861   2.485   0.648
 9733TIP3   OH229162   1.346   2.560   1.030
 9733TIP3    H129163   1.258   2.573   1.065
 9733TIP3    H229164   1.365   2.640   0.981
 9734TIP3   OH229165   0.765   3.286   0.759
 9734TIP3    H129166   0.728   3.356   0.705
 9734TIP3    H229167   0.830   3.330   0.814
 9735TIP3   OH229168   0.574   2.725   1.062
 9735TIP3    H129169   0.514   2.779   1.114
 9735TIP3    H229170   0.517   2.658   1.023
 9736TIP3   OH229171   0.750   2.899   0.936
 9736TIP3    H129172   0.691   2.838   0.981
 9736TIP3    H229173   0.716   2.985   0.960
 9737TIP3   OH229174   1.264   3.249   0.910
 9737TIP3    H129175   1.195   3.255   0.844
 9737TIP3    H229176   1.332   3.196   0.869
 9738TIP3   OH229177   1.097   3.589   0.665
 9738TIP3    H129178   1.056   3.507   0.640
 9738TIP3    H229179   1.124   3.629   0.582
 9739TIP3   OH229180   1.157   3.085   0.614
 9739TIP3    H129181   1.087   3.111   0.554
 9739TIP3    H229182   1.141   2.992   0.631
 9740TIP3   OH229183   1.052   2.843   0.667
 9740TIP3    H129184   1.104   2.786   0.723
 9740TIP3    H229185   0.965   2.803   0.666
 9741TIP3   OH229186   1.217   3.145   1.158
 9741TIP3    H129187   1.293   3.088   1.147
 9741TIP3    H229188   1.217   3.201   1.080
 9742TIP3   OH229189   1.294   2.767   1.240
 9742TIP3    H129190   1.302   2.725   1.326
 9742TIP3    H229191   1.221   2.722   1.198
 9743TIP3   OH229192   1.430   2.755   0.856
 9743TIP3    H129193   1.426   2.691   0.785
 9743TIP3    H229194   1.372   2.826   0.828
 9744TIP3   OH229195   1.101   2.602   1.147
 9744TIP3    H129196   1.018   2.646   1.127
 9744TIP3    H229197   1.077   2.531   1.206
 9745TIP3   OH229198   1.498   3.134   0.837
 9745TIP3    H129199   1.523   3.073   0.767
 9745TIP3    H229200   1.576   3.140   0.892
 9746TIP3   OH229201   1.493   3.175   0.554
 9746TIP3    H129202   1.565   3.227   0.590
 9746TIP3    H229203   1.420   3.190   0.614
 9747TIP3   OH229204   1.633   2.881   1.213
 9747TIP3    H129205   1.537   2.880   1.204
 9747TIP3    H229206   1.653   2.968   1.249
 9748TIP3   OH229207   1.773   2.681   1.099
 9748TIP3    H129208   1.803   2.719   1.016
 9748TIP3    H229209   1.723   2.751   1.140
 9749TIP3   OH229210   1.871   2.916   0.665
 9749TIP3    H129211   1.864   2.843   0.603
 9749TIP3    H229212   1.956   2.955   0.647
   7.40000   6.97679   6.04207   0.00000   0.00000  -2.46667   0.00000  -2.46667  -3.48839
