Title
19927
    1ASP      N    1   1.044   4.047   0.975 -0.5374  0.2187  0.3337
    1ASP    HT1    2   1.102   4.094   1.047 -0.9246  1.1055  0.0833
    1ASP    HT2    3   1.115   4.006   0.912  1.2027  1.8058  1.1508
    1ASP    HT3    4   0.994   3.972   1.028 -0.2516 -0.9938 -1.0383
    1ASP     CA    5   0.946   4.144   0.918 -0.9490 -0.0403  0.3760
    1ASP     HA    6   0.903   4.098   0.831  1.5473 -0.4350 -0.7470
    1ASP     CB    7   0.849   4.177   1.037 -0.6921 -0.2501  0.3527
    1ASP    HB1    8   0.765   4.247   1.016 -1.1970 -1.3637 -1.5235
    1ASP    HB2    9   0.911   4.233   1.110 -2.2515  3.4261 -0.9136
    1ASP     CG   10   0.781   4.055   1.098  1.1097  0.2667 -0.2909
    1ASP    OD1   11   0.690   4.070   1.183 -0.0531 -0.6316  0.2093
    1ASP    OD2   12   0.827   3.944   1.073 -0.6941  0.4240 -0.3213
    1ASP      C   13   1.007   4.276   0.855  0.7719 -0.2925 -0.1042
    1ASP      O   14   1.122   4.315   0.888  0.9943 -0.9578  0.5417
    2ALA      N   15   0.930   4.346   0.770  0.1347 -0.1009  0.3223
    2ALA     HN   16   0.834   4.325   0.754 -0.5626  0.3780  3.2596
    2ALA     CA   17   0.981   4.455   0.687 -0.2904  0.3928  0.7929
    2ALA     HA   18   1.084   4.432   0.665 -1.2312 -3.4135 -0.5037
    2ALA     CB   19   0.912   4.454   0.546 -0.0621  0.0080  0.1636
    2ALA    HB1   20   0.919   4.558   0.509  1.7732 -0.1794 -0.1321
    2ALA    HB2   21   0.804   4.430   0.550  0.2528 -1.3731  2.0289
    2ALA    HB3   22   0.974   4.384   0.485 -0.4014 -1.1148  1.0636
    2ALA      C   23   0.958   4.585   0.756 -0.4063  0.2921 -0.8071
    2ALA      O   24   0.846   4.615   0.796  0.7477  0.4760  0.0051
    3ASP      N   25   1.056   4.669   0.773  0.5654 -0.0603 -0.0658
    3ASP     HN   26   1.149   4.659   0.739  0.0551 -0.8242 -1.2811
    3ASP     CA   27   1.042   4.788   0.846 -0.3061 -0.3653 -0.4255
    3ASP     HA   28   0.973   4.773   0.928  2.3108  0.5906  2.1651
    3ASP     CB   29   1.174   4.813   0.931  0.3798 -0.4912  0.4126
    3ASP    HB1   30   1.192   4.718   0.986 -0.2175 -1.4408 -0.9919
    3ASP    HB2   31   1.159   4.898   1.001 -2.1743  0.6087 -1.3152
    3ASP     CG   32   1.287   4.829   0.834 -0.7077  0.1132  0.2018
    3ASP    OD1   33   1.334   4.725   0.781 -0.0739  0.2766  0.2022
    3ASP    OD2   34   1.323   4.941   0.796  0.1509  0.2319 -0.1917
    3ASP      C   35   0.993   4.911   0.775  0.6591  0.6326 -0.1853
    3ASP      O   36   0.990   4.908   0.658  0.1158 -0.1097 -0.3594
    4GLY      N   37   0.956   5.022   0.845  0.4907  0.0423 -0.4013
    4GLY     HN   38   0.966   5.018   0.945 -0.0096 -0.0035 -0.3504
    4GLY     CA   39   0.921   5.147   0.774 -0.2921 -0.2816 -0.5580
    4GLY    HA1   40   0.837   5.190   0.826  0.2829 -0.2090  0.3291
    4GLY    HA2   41   0.902   5.126   0.670  1.7113  1.7003 -1.4161
    4GLY      C   42   1.020   5.259   0.785  0.0351  0.7320  0.0561
    4GLY      O   43   1.131   5.244   0.837  0.5243  0.2319 -0.7176
    5PRO      N   44   0.984   5.379   0.742 -0.3675  0.0110  0.6555
    5PRO     CD   45   0.860   5.413   0.687  0.4851  0.1274  0.2883
    5PRO    HD1   46   0.767   5.377   0.737 -0.0685  0.4547 -0.4830
    5PRO    HD2   47   0.872   5.390   0.579  2.1794 -1.0924  0.6895
    5PRO     CA   48   1.061   5.506   0.772  1.0539  0.2777  0.3515
    5PRO     HA   49   1.164   5.500   0.740  1.2165  0.3924  0.8441
    5PRO     CB   50   0.991   5.617   0.693  0.5592 -0.2215  0.5662
    5PRO    HB1   51   1.012   5.614   0.585 -0.4305 -2.2238  0.3635
    5PRO    HB2   52   1.014   5.717   0.736 -0.0274 -0.5706  1.7568
    5PRO     CG   53   0.841   5.566   0.704  0.1348  0.2334 -0.2767
    5PRO    HG1   54   0.815   5.597   0.808 -0.4868 -2.0022  0.2844
    5PRO    HG2   55   0.777   5.606   0.622 -0.8823  1.4604  1.0440
    5PRO      C   56   1.069   5.531   0.922 -0.4651  0.3528  0.2666
    5PRO      O   57   0.983   5.485   0.996 -0.0582 -0.1471  0.1077
    6GLY      N   58   1.183   5.590   0.965 -0.0166 -0.2972  0.4419
    6GLY     HN   59   1.259   5.610   0.903 -1.5898  0.7078 -1.2487
    6GLY     CA   60   1.211   5.605   1.107 -0.3645 -0.1872 -0.4505
    6GLY    HA1   61   1.318   5.610   1.124 -0.5719  0.2590  0.8411
    6GLY    HA2   62   1.187   5.507   1.146 -1.5769  0.2629 -0.0440
    6GLY      C   63   1.139   5.716   1.185 -0.1304 -0.1830  0.1040
    6GLY      O   64   1.063   5.787   1.127 -0.0517  0.1168  0.0102
    7ASP      N   65   1.171   5.725   1.313  0.1190  0.3328  0.0702
    7ASP     HN   66   1.242   5.666   1.350  0.2757 -1.1285 -2.3235
    7ASP     CA   67   1.109   5.816   1.401  0.8668 -0.3378 -0.3310
    7ASP     HA   68   1.009   5.839   1.367  0.2734 -2.5529 -0.2176
    7ASP     CB   69   1.106   5.763   1.545 -0.0985 -0.7490 -1.1401
    7ASP    HB1   70   1.094   5.840   1.624  0.6510 -0.3671 -1.3885
    7ASP    HB2   71   1.207   5.725   1.571 -0.0240  0.6081  0.7195
    7ASP     CG   72   1.005   5.654   1.570 -0.6963 -0.4542 -0.2653
    7ASP    OD1   73   0.978   5.631   1.691 -0.0418 -0.0035 -0.1473
    7ASP    OD2   74   0.953   5.595   1.477  0.1351  0.0374  0.6184
    7ASP      C   75   1.192   5.945   1.391 -0.4717 -0.9902 -0.2620
    7ASP      O   76   1.315   5.930   1.370  0.4297 -0.8035 -0.1473
    8PRO      N   77   1.142   6.063   1.410 -0.8076 -0.2719  0.2503
    8PRO     CD   78   0.995   6.086   1.413 -0.6117 -0.3359 -0.2327
    8PRO    HD1   79   0.948   6.048   1.506  1.2436 -1.1364  0.4069
    8PRO    HD2   80   0.947   6.045   1.321  0.4661  0.4828 -1.1952
    8PRO     CA   81   1.223   6.184   1.402  0.3596  0.3122 -0.0156
    8PRO     HA   82   1.301   6.178   1.328 -1.1057 -0.1389 -1.5998
    8PRO     CB   83   1.124   6.289   1.352  0.1119  0.0545  0.3049
    8PRO    HB1   84   1.117   6.302   1.242 -1.3567  1.1253  0.4991
    8PRO    HB2   85   1.148   6.389   1.394  2.1209 -0.5988  0.8296
    8PRO     CG   86   0.985   6.237   1.413 -0.4456 -1.2227 -0.7547
    8PRO    HG1   87   0.982   6.265   1.520  0.4090  0.9697 -1.2425
    8PRO    HG2   88   0.897   6.287   1.368  0.4256  0.6946 -0.4467
    8PRO      C   89   1.299   6.219   1.527  0.1915 -0.5442  0.1128
    8PRO      O   90   1.242   6.219   1.635 -0.6536 -0.2803 -0.3374
    9ASP      N   91   1.432   6.255   1.515 -0.6007 -0.1427  0.2568
    9ASP     HN   92   1.473   6.258   1.425 -2.2762 -2.6277 -0.6949
    9ASP     CA   93   1.512   6.299   1.623 -0.4893  0.0781  0.3107
    9ASP     HA   94   1.469   6.244   1.706 -0.0898  0.0744  0.5156
    9ASP     CB   95   1.659   6.274   1.593  0.2153  0.2247 -0.7795
    9ASP    HB1   96   1.725   6.306   1.676 -2.1283  1.5287  0.6752
    9ASP    HB2   97   1.689   6.337   1.507  0.7324  0.3370 -0.5245
    9ASP     CG   98   1.704   6.136   1.549  0.7604 -0.7187  1.0270
    9ASP    OD1   99   1.754   6.115   1.436 -0.2836  0.0256 -0.1028
    9ASP    OD2  100   1.678   6.045   1.634 -0.6327 -0.3457  0.3562
    9ASP      C  101   1.485   6.442   1.655 -0.4377  0.4624 -0.0593
    9ASP      O  102   1.458   6.528   1.575  0.1594  0.0483 -0.1027
   10ALA      N  103   1.509   6.483   1.783 -0.0531 -0.4363  0.6047
   10ALA     HN  104   1.544   6.413   1.845 -2.5589  0.5417  3.3410
   10ALA     CA  105   1.499   6.622   1.837  0.0467  0.2687 -0.2162
   10ALA     HA  106   1.398   6.655   1.815  0.5240  0.7499 -1.8203
   10ALA     CB  107   1.545   6.605   1.980 -0.3806 -0.4636  0.7070
   10ALA    HB1  108   1.561   6.702   2.031  1.7593 -1.2930  1.7239
   10ALA    HB2  109   1.635   6.541   1.995 -1.3809 -2.5447 -1.3443
   10ALA    HB3  110   1.460   6.561   2.036 -2.1963 -1.3861 -2.4835
   10ALA      C  111   1.576   6.739   1.762 -0.4172  0.3680 -0.1076
   10ALA      O  112   1.669   6.718   1.687 -0.2754 -0.7239  0.6016
   11GLY      N  113   1.529   6.863   1.775 -0.6478  0.5541 -0.3281
   11GLY     HN  114   1.447   6.883   1.827 -2.4607 -0.6541 -2.5390
   11GLY     CA  115   1.579   6.981   1.712  0.5983 -0.1166  0.0452
   11GLY    HA1  116   1.687   6.981   1.716  0.5753  0.9936  1.5370
   11GLY    HA2  117   1.531   7.060   1.768 -0.4978 -0.1084 -0.8648
   11GLY      C  118   1.528   7.001   1.573 -0.1973 -0.1624 -0.7276
   11GLY    OT1  119   1.420   7.063   1.559 -0.7262 -0.1917  0.5186
   11GLY    OT2  120   1.594   6.956   1.475 -0.2616  0.1262 -0.6811
   12SOD    SOD  121   4.286   1.602   4.179 -0.4531  0.3955  0.2698
   13SOD    SOD  122   0.218   1.283   0.173  0.2409 -0.2637  0.0269
   14SOD    SOD  123   2.908   0.786   1.320 -0.1842 -0.4291  0.1559
   15SOD    SOD  124   1.375   3.918   3.514  0.1874  0.3012  0.0837
   16SOD    SOD  125   1.643   0.132   1.698 -0.1504  0.0913 -0.2710
   17SOD    SOD  126   2.434   3.541   4.520  0.2828  0.1804  0.1098
   18SOD    SOD  127   2.523   2.486   3.627 -0.3850  0.3149 -0.0440
   19SOD    SOD  128   3.515   0.262   2.159  0.1723  0.3886  0.2310
   20SOD    SOD  129   4.509   5.154   2.784 -0.5213  0.1749 -0.2782
   21SOD    SOD  130   0.986   1.616   1.222  0.0449  0.4295 -0.1349
   22SOD    SOD  131   4.617   4.079   3.699  0.1093 -0.4937  0.1380
   23SOD    SOD  132   6.251   4.753   3.976 -0.0026 -0.0545  0.2031
   24SOD    SOD  133   6.005   5.339   2.802  0.6342  0.1020 -0.3477
   25SOD    SOD  134   0.715   5.090   1.210 -0.1654 -0.3438  0.0433
   26SOD    SOD  135   3.142   4.962   2.762  0.0451  0.5132  0.0157
   27SOD    SOD  136   3.889   1.490   0.169 -0.1036 -0.3127 -0.4589
   28SOD    SOD  137   5.145   0.930   4.075 -0.2775  0.3416  0.2832
   29SOD    SOD  138   0.293   2.686   0.218  0.0521 -0.6433 -0.3462
   30SOD    SOD  139   4.131   4.658   3.735  0.1449  0.1317  0.1253
   31SOD    SOD  140   0.901   4.097   2.308  0.2369 -0.3549 -0.0407
   32SOD    SOD  141   3.948   5.196   0.787 -0.6916 -0.6209  0.0319
   33SOD    SOD  142   1.169   4.772   2.522 -0.1473  0.3151 -0.3961
   34CLA    CLA  143   1.719   4.871   2.300  0.0222 -0.0054 -0.0283
   35CLA    CLA  144   2.664   0.754   1.468 -0.2274 -0.7050 -0.0496
   36CLA    CLA  145   6.226   3.233   3.753 -0.1293 -0.3193  0.0779
   37CLA    CLA  146   4.505   2.588   2.390  0.3344 -0.0371  0.2649
   38CLA    CLA  147   4.421   3.661   3.524  0.0905  0.2384 -0.0664
   39CLA    CLA  148   0.433   3.949   3.372  0.2561  0.3832  0.0633
   40CLA    CLA  149   3.396   0.951   2.030 -0.1131  0.3916  0.2793
   41CLA    CLA  150   3.093   5.541   1.064 -0.5175  0.3728  0.2580
   42CLA    CLA  151   4.791   4.176   4.894  0.1672  0.2612 -0.3260
   43CLA    CLA  152   3.844   3.890   1.996 -0.1016 -0.2108  0.0301
   44CLA    CLA  153   2.681   3.821   4.806 -0.4054 -0.2269  0.1523
   45CLA    CLA  154   2.988   0.822   4.428  0.0709  0.1797  0.1144
   46CLA    CLA  155   1.753   1.934   3.370  0.0420 -0.1055  0.2708
   47CLA    CLA  156   3.076   3.941   3.330 -0.2494  0.3117  0.3593
   48CLA    CLA  157   2.732   3.958   0.370 -0.0768  0.1530  0.4341
   49CLA    CLA  158   6.289   0.487   1.611 -0.0187 -0.7731  0.2220
   50CLA    CLA  159   0.399   5.045   1.788  0.5113 -0.2506 -0.1034
   51CLA    CLA  160   0.489   4.862   0.606  0.2362 -0.1820  0.1393
   52TIP3   OH2  161   2.319   5.008   1.317 -0.0072 -0.0139  0.0251
   52TIP3    H1  162   2.234   5.004   1.361  0.2041  0.1527  0.4509
   52TIP3    H2  163   2.383   5.002   1.387  0.3927 -2.8111 -0.4683
   53TIP3   OH2  164   0.457   3.394   0.887  0.1564 -0.1565  0.7242
   53TIP3    H1  165   0.363   3.407   0.900  0.1277 -1.0292  1.5455
   53TIP3    H2  166   0.463   3.324   0.822  0.2606  0.7611 -0.2701
   54TIP3   OH2  167   1.851   2.946   1.708 -0.1085  0.2812 -0.8617
   54TIP3    H1  168   1.940   2.961   1.678  1.1462 -2.8749  0.7624
   54TIP3    H2  169   1.802   2.924   1.628  0.6556  1.6014 -1.7104
   55TIP3   OH2  170   3.213   4.741   5.103 -0.2802  0.1860 -0.0056
   55TIP3    H1  171   3.305   4.752   5.079 -0.2252  0.7628  0.4480
   55TIP3    H2  172   3.186   4.661   5.058 -0.4091  1.6406 -2.7193
   56TIP3   OH2  173   0.179   5.016   0.359 -0.4303  0.5787  0.3416
   56TIP3    H1  174   0.186   5.072   0.436  0.6302  0.4219  0.3726
   56TIP3    H2  175   0.120   4.946   0.386  1.0560 -0.2822  1.5433
   57TIP3   OH2  176   1.629   2.320   2.806  0.1562 -0.2990 -0.2402
   57TIP3    H1  177   1.638   2.302   2.713 -3.4271 -0.4078 -0.7150
   57TIP3    H2  178   1.599   2.411   2.811  1.1379 -0.0055  0.9081
   58TIP3   OH2  179   3.990   0.936   1.164 -0.6890 -0.4475 -0.2704
   58TIP3    H1  180   3.904   0.924   1.123 -1.4149  1.3143  0.6364
   58TIP3    H2  181   4.019   1.022   1.135 -0.3416  0.0167  1.3527
   59TIP3   OH2  182   4.371   3.810   1.337 -0.1798 -0.4666 -0.2232
   59TIP3    H1  183   4.356   3.900   1.308 -0.5702 -1.0421 -1.8944
   59TIP3    H2  184   4.427   3.819   1.415 -1.7847  1.3025  0.8111
   60TIP3   OH2  185   6.280   2.922   2.199 -0.2091 -0.0465  0.2698
   60TIP3    H1  186   6.240   2.934   2.285 -0.6317  0.3212  0.0234
   60TIP3    H2  187   6.207   2.921   2.138  0.1585  0.7566 -0.1994
   61TIP3   OH2  188   0.685   3.778   3.444 -0.0029  0.7155  0.2674
   61TIP3    H1  189   0.671   3.688   3.416 -0.4594 -0.1829  3.1133
   61TIP3    H2  190   0.620   3.829   3.396 -1.4297 -0.8428  0.4880
   62TIP3   OH2  191   5.994   5.173   3.302 -0.0276 -0.3747 -0.4110
   62TIP3    H1  192   5.968   5.094   3.349  0.9526 -0.5383 -0.1256
   62TIP3    H2  193   6.066   5.210   3.353 -1.8151  1.9050  0.6564
   63TIP3   OH2  194   2.959   3.222   1.116  0.3005  0.0578  0.2199
   63TIP3    H1  195   2.882   3.274   1.137  0.1113 -0.2063  0.1953
   63TIP3    H2  196   2.941   3.187   1.028  0.0262 -0.7548  0.5819
   64TIP3   OH2  197   3.899   0.740   2.198 -0.1021 -0.1883 -0.0686
   64TIP3    H1  198   3.973   0.679   2.204  0.3516  0.2594 -0.9757
   64TIP3    H2  199   3.832   0.703   2.256  0.0728 -1.6851 -0.7817
   65TIP3   OH2  200   1.896   5.744   5.166  0.5564  0.2642  0.1444
   65TIP3    H1  201   1.893   5.832   5.128 -2.6397  1.3887  2.5240
   65TIP3    H2  202   1.816   5.702   5.136  0.6709 -0.7980  1.2307
   66TIP3   OH2  203   5.441   2.279   2.525 -0.8434 -0.2957  0.5142
   66TIP3    H1  204   5.470   2.226   2.599  0.2504 -0.6587 -0.1473
   66TIP3    H2  205   5.430   2.216   2.453 -1.7672  0.0635  0.3248
   67TIP3   OH2  206   3.274   3.296   2.501  0.1677 -0.0790 -0.3209
   67TIP3    H1  207   3.294   3.232   2.569 -1.5410 -1.0948 -0.7336
   67TIP3    H2  208   3.219   3.361   2.544 -0.1014 -0.1882 -0.5015
   68TIP3   OH2  209   2.637   2.825   4.300  0.4259  0.1583 -0.5831
   68TIP3    H1  210   2.550   2.849   4.267 -0.4392 -1.5961  0.3013
   68TIP3    H2  211   2.672   2.908   4.335 -1.3782  0.7003  0.0758
   69TIP3   OH2  212   0.028   4.777   0.785  0.3715  0.4293  0.0354
   69TIP3    H1  213  -0.042   4.750   0.726 -0.0991 -0.4688  0.9713
   69TIP3    H2  214   0.078   4.697   0.801  0.5919  0.6967  0.7139
   70TIP3   OH2  215   5.811   5.232   1.686  0.6852  0.0869 -0.1778
   70TIP3    H1  216   5.722   5.267   1.692  1.0819  1.0599  0.1953
   70TIP3    H2  217   5.805   5.164   1.619 -0.2127  0.5348 -0.5751
   71TIP3   OH2  218   5.511   5.041   3.879 -0.0141  0.1252 -0.4758
   71TIP3    H1  219   5.511   4.947   3.863  1.3063 -0.0014  0.0844
   71TIP3    H2  220   5.447   5.054   3.949  0.3755 -0.4854  0.0067
   72TIP3   OH2  221   0.396   5.921   2.993  0.1379  0.6606 -0.3834
   72TIP3    H1  222   0.304   5.941   3.011  0.8196  2.1857  1.8951
   72TIP3    H2  223   0.407   5.830   3.021  0.0047  1.4818  2.6745
   73TIP3   OH2  224   3.527   0.008   4.001  0.0726 -0.4535  0.7455
   73TIP3    H1  225   3.621   0.026   4.000  0.1883 -0.9444 -1.0648
   73TIP3    H2  226   3.486   0.094   3.995  0.4316 -0.3012  0.4168
   74TIP3   OH2  227   2.421   1.958   4.232 -0.0811 -0.1899  0.4735
   74TIP3    H1  228   2.502   1.998   4.202  0.3864 -0.8793  0.7969
   74TIP3    H2  229   2.448   1.883   4.286 -0.9123 -1.2360 -0.4906
   75TIP3   OH2  230   2.146   3.778   3.833  0.1602 -0.6643  0.0841
   75TIP3    H1  231   2.242   3.779   3.833  0.1834  0.1915  1.2794
   75TIP3    H2  232   2.123   3.689   3.808  1.2980 -1.2206  0.9060
   76TIP3   OH2  233   4.098   0.918   0.179  0.1579  0.4908  0.1922
   76TIP3    H1  234   4.149   0.837   0.177 -0.0568  0.3702 -0.8356
   76TIP3    H2  235   4.070   0.926   0.270 -0.2546 -0.8719  0.2083
   77TIP3   OH2  236   3.626   3.879   3.681  0.2451  0.3234  0.1829
   77TIP3    H1  237   3.697   3.862   3.620 -0.0868 -2.2775  0.4314
   77TIP3    H2  238   3.667   3.876   3.767  0.0405  0.0933  0.2720
   78TIP3   OH2  239   0.424   2.414   0.831 -0.3022  0.1323 -0.4473
   78TIP3    H1  240   0.501   2.465   0.856 -1.0496  0.3988  1.5051
   78TIP3    H2  241   0.425   2.339   0.891  0.1523 -1.6262 -2.5057
   79TIP3   OH2  242   1.867   0.153   0.997 -0.2282  0.7830 -0.5474
   79TIP3    H1  243   1.888   0.154   0.903 -1.6150  0.8928 -0.8780
   79TIP3    H2  244   1.818   0.072   1.009 -0.7380  1.1557 -0.0820
   80TIP3   OH2  245   1.142   1.554   3.800 -0.0331  0.9165 -0.4176
   80TIP3    H1  246   1.230   1.564   3.763 -0.2553  0.3449 -1.1114
   80TIP3    H2  247   1.084   1.595   3.736 -0.2658  1.4573  0.1270
   81TIP3   OH2  248   5.727   1.682   4.737  0.1296 -0.0116  0.2242
   81TIP3    H1  249   5.814   1.707   4.769  0.2415  2.3725 -1.6324
   81TIP3    H2  250   5.666   1.732   4.791 -0.0034 -0.4271  0.4601
   82TIP3   OH2  251   5.898   5.766   0.584  0.3317 -0.0560  0.0134
   82TIP3    H1  252   5.977   5.724   0.550  1.9007  0.7000  2.4461
   82TIP3    H2  253   5.870   5.824   0.513  0.4307 -2.1619 -1.8594
   83TIP3   OH2  254   4.512   1.607   3.858  0.2611  0.0890 -0.1658
   83TIP3    H1  255   4.567   1.538   3.895 -0.1806  0.2675  0.8720
   83TIP3    H2  256   4.435   1.562   3.824  0.0468  0.0309  0.3707
   84TIP3   OH2  257   0.774   5.191   0.260 -0.1418  0.2793 -0.1115
   84TIP3    H1  258   0.786   5.151   0.173 -0.4228  1.2678 -0.6195
   84TIP3    H2  259   0.847   5.157   0.312  0.5389  0.3540 -0.9946
   85TIP3   OH2  260   1.772   1.123   3.822  0.1330 -0.3716 -0.8652
   85TIP3    H1  261   1.780   1.037   3.781  1.0117 -0.3155 -0.8385
   85TIP3    H2  262   1.839   1.176   3.777 -0.9608  0.5311 -1.4768
   86TIP3   OH2  263   1.117   0.473   0.359  0.8895 -0.1486  0.5843
   86TIP3    H1  264   1.028   0.439   0.352  0.6801  0.0554  1.9906
   86TIP3    H2  265   1.147   0.482   0.268 -0.9218  0.8585  0.0516
   87TIP3   OH2  266   5.225   1.263   2.962 -0.6653  0.5973  0.1573
   87TIP3    H1  267   5.141   1.219   2.947 -1.2764  1.6279  0.4493
   87TIP3    H2  268   5.270   1.258   2.878 -0.5028 -0.9900  0.3013
   88TIP3   OH2  269   5.890   2.444   0.187  0.4093 -0.6582 -0.2359
   88TIP3    H1  270   5.918   2.353   0.177 -0.9010 -1.0428 -0.6087
   88TIP3    H2  271   5.882   2.476   0.097  0.8818 -0.1600 -0.1048
   89TIP3   OH2  272   4.670   5.525   1.253 -0.0275 -0.0185 -0.5761
   89TIP3    H1  273   4.763   5.515   1.232 -0.4017 -1.5324 -1.7407
   89TIP3    H2  274   4.669   5.565   1.339  1.8032 -3.4259  1.2463
   90TIP3   OH2  275   1.778   2.477   0.234  0.0649  0.1987 -0.5313
   90TIP3    H1  276   1.752   2.405   0.176  1.0710  0.0153 -0.7761
   90TIP3    H2  277   1.713   2.476   0.304  0.1178 -1.0185 -0.4724
   91TIP3   OH2  278   5.895   0.732   3.786 -0.2585  0.1594 -0.3678
   91TIP3    H1  279   5.825   0.735   3.850  0.7166 -1.7282  0.8788
   91TIP3    H2  280   5.935   0.820   3.789 -0.5912  0.2791  1.1971
   92TIP3   OH2  281   1.409   1.023   0.741  0.4721  0.1551 -0.0717
   92TIP3    H1  282   1.478   1.064   0.688 -0.8102 -0.2483 -2.1860
   92TIP3    H2  283   1.441   0.935   0.757  1.0559  0.4069  0.1880
   93TIP3   OH2  284   5.839   4.076   5.117  0.0200 -0.5415  0.1353
   93TIP3    H1  285   5.833   4.072   5.213 -0.6913  0.8338  0.1767
   93TIP3    H2  286   5.922   4.119   5.100 -0.0663 -0.3661  0.1530
   94TIP3   OH2  287   1.767   3.097   3.848  0.0757 -0.0769 -0.0823
   94TIP3    H1  288   1.834   3.029   3.841  1.6982  1.4293  0.1317
   94TIP3    H2  289   1.716   3.089   3.768  1.4270 -0.3425 -0.9431
   95TIP3   OH2  290   1.290   4.397   0.525 -0.1050 -0.7313 -0.4790
   95TIP3    H1  291   1.252   4.455   0.458  0.1336  2.9313  2.2296
   95TIP3    H2  292   1.363   4.447   0.561  0.0325 -2.6709  2.2175
   96TIP3   OH2  293   5.038   2.774   3.144  0.4209 -1.0198  0.8709
   96TIP3    H1  294   5.070   2.712   3.209 -1.1398 -3.2489 -0.3552
   96TIP3    H2  295   4.984   2.722   3.085  0.7041  1.1434 -1.4898
   97TIP3   OH2  296   3.282   3.760   2.547 -0.2798 -0.1271  0.0273
   97TIP3    H1  297   3.338   3.740   2.622 -2.1906 -1.5207  1.1774
   97TIP3    H2  298   3.265   3.853   2.554  0.6231  0.0157  0.5477
   98TIP3   OH2  299   5.085   1.082   2.735 -0.2437 -0.0317 -0.3340
   98TIP3    H1  300   5.155   1.112   2.677 -0.6802  0.6983 -0.5033
   98TIP3    H2  301   5.007   1.125   2.702 -0.7428 -0.6981 -0.0356
   99TIP3   OH2  302   3.967   4.335   3.899  0.1938  0.8324 -0.0788
   99TIP3    H1  303   4.008   4.294   3.974  0.7266  0.1243 -0.7450
   99TIP3    H2  304   3.916   4.266   3.858  2.1908  0.3778 -2.0072
  100TIP3   OH2  305   3.388   1.479   1.958 -0.5294 -0.2690  0.4316
  100TIP3    H1  306   3.452   1.497   2.027 -0.3521 -1.4641  0.5974
  100TIP3    H2  307   3.319   1.544   1.971 -0.1903 -0.0795  1.3359
  101TIP3   OH2  308   0.478   0.900   1.969  0.8200 -0.4287 -0.2975
  101TIP3    H1  309   0.536   0.976   1.968 -0.7035  0.7707 -0.1201
  101TIP3    H2  310   0.455   0.888   2.061 -0.1799 -0.1091 -0.4914
  102TIP3   OH2  311   0.764   2.620   2.798  0.1222 -0.5669  0.1945
  102TIP3    H1  312   0.732   2.706   2.824  0.7514 -0.4669  0.6751
  102TIP3    H2  313   0.710   2.558   2.847 -1.7052 -0.5570 -1.6564
  103TIP3   OH2  314   1.349   2.512   3.643 -0.4560 -0.1571  0.1111
  103TIP3    H1  315   1.289   2.553   3.705  1.0040  0.5150  1.1169
  103TIP3    H2  316   1.401   2.585   3.608 -1.4173 -0.4654 -2.1498
  104TIP3   OH2  317   3.627   3.617   5.116  0.2000  0.1537  0.4903
  104TIP3    H1  318   3.623   3.537   5.169  1.7146 -0.9438 -0.9354
  104TIP3    H2  319   3.719   3.641   5.117 -0.3498  2.5392  1.6984
  105TIP3   OH2  320   3.420   4.913   2.462 -0.3961 -0.0343 -0.5851
  105TIP3    H1  321   3.515   4.903   2.467 -0.2597  0.3207 -1.9818
  105TIP3    H2  322   3.386   4.827   2.487  0.3288 -0.3993 -0.8125
  106TIP3   OH2  323   2.931   0.336   4.373 -0.1835 -0.1209 -0.0861
  106TIP3    H1  324   2.996   0.403   4.355  0.6191 -0.8277  0.1202
  106TIP3    H2  325   2.871   0.339   4.298 -0.3575  1.0425  0.0864
  107TIP3   OH2  326   4.104   3.449   3.130 -0.7731 -0.2222 -0.1268
  107TIP3    H1  327   4.065   3.534   3.110  0.7045 -0.0208 -2.5325
  107TIP3    H2  328   4.030   3.390   3.141 -1.7822  0.9256 -0.5569
  108TIP3   OH2  329   0.493   5.751   0.995 -0.0818 -0.0104  0.1682
  108TIP3    H1  330   0.571   5.789   1.036 -0.7766  1.2212  0.3915
  108TIP3    H2  331   0.427   5.751   1.064 -0.3645 -0.8167 -0.0903
  109TIP3   OH2  332   0.787   4.620   3.421  0.6411 -0.4891 -0.2913
  109TIP3    H1  333   0.725   4.577   3.478 -1.5498  0.1937 -2.0152
  109TIP3    H2  334   0.772   4.714   3.434  1.7862 -0.2846 -0.2751
  110TIP3   OH2  335   0.323   2.854   0.397 -0.0603  0.3292  0.3154
  110TIP3    H1  336   0.262   2.805   0.453  0.1225  0.1617  0.3692
  110TIP3    H2  337   0.405   2.856   0.447  0.1648  0.0005 -0.0374
  111TIP3   OH2  338   0.641   5.699   4.537  0.0040 -0.2674  0.1250
  111TIP3    H1  339   0.633   5.767   4.604  1.2562  0.0226  0.0000
  111TIP3    H2  340   0.718   5.724   4.486 -0.3234 -1.0431 -0.7849
  112TIP3   OH2  341   0.490   0.172   2.604  0.0937  0.1439 -0.2632
  112TIP3    H1  342   0.445   0.091   2.581 -0.3758  0.1030  0.7496
  112TIP3    H2  343   0.492   0.222   2.522 -0.3830 -0.5181 -0.6924
  113TIP3   OH2  344   0.936   1.329   2.653 -0.2555 -0.2823 -0.0998
  113TIP3    H1  345   0.905   1.240   2.638 -0.8809  0.0290 -0.6746
  113TIP3    H2  346   0.992   1.322   2.731  1.3908 -1.5604 -1.3093
  114TIP3   OH2  347   2.677   5.654   0.299 -0.2839  0.1948 -0.6875
  114TIP3    H1  348   2.605   5.703   0.259 -0.3268 -0.4605 -1.4303
  114TIP3    H2  349   2.747   5.656   0.234  0.2822  0.6033 -0.0752
  115TIP3   OH2  350   2.079   5.133   0.209 -0.0617  0.0915 -0.5748
  115TIP3    H1  351   2.056   5.216   0.251  0.1344 -0.3395  0.4069
  115TIP3    H2  352   2.133   5.158   0.133 -0.1613  0.8660 -0.3902
  116TIP3   OH2  353   2.430   3.765   2.249 -0.4433 -0.1601  0.1880
  116TIP3    H1  354   2.383   3.848   2.253 -2.6974 -1.3504  0.0140
  116TIP3    H2  355   2.509   3.780   2.301  0.4960  2.7946 -1.8610
  117TIP3   OH2  356   3.610   4.609   1.205  0.2834  0.8316  0.0837
  117TIP3    H1  357   3.587   4.642   1.118  0.1375  0.5751  0.0237
  117TIP3    H2  358   3.698   4.572   1.194 -0.6674 -1.3558 -0.5434
  118TIP3   OH2  359   0.113   5.126   3.854  0.0927  0.2062 -0.2923
  118TIP3    H1  360   0.169   5.169   3.790  0.9200  0.5634  0.6440
  118TIP3    H2  361   0.117   5.183   3.931 -0.3915 -0.5240  0.2900
  119TIP3   OH2  362   6.032   3.139   4.575  0.7569  0.3468  0.0584
  119TIP3    H1  363   6.046   3.099   4.662 -0.7349 -0.3240  0.0190
  119TIP3    H2  364   6.024   3.064   4.516 -2.3808  0.5705  0.0214
  120TIP3   OH2  365   5.105   2.107   2.283 -0.2876  0.2676  0.2233
  120TIP3    H1  366   5.079   2.185   2.331  0.4365  2.0418 -2.0866
  120TIP3    H2  367   5.060   2.114   2.199  1.4132 -0.6928 -0.8278
  121TIP3   OH2  368   4.922   2.905   4.017  0.0237 -0.5224  0.2306
  121TIP3    H1  369   4.974   2.963   3.962 -2.0436  0.1532 -1.1479
  121TIP3    H2  370   4.964   2.908   4.103  1.5506  0.8429 -0.5100
  122TIP3   OH2  371   6.041   4.995   0.182 -0.1675 -0.4508  0.0578
  122TIP3    H1  372   5.951   5.021   0.160 -1.0121 -0.4423  3.0724
  122TIP3    H2  373   6.092   5.017   0.104 -2.0292  3.6240 -0.2807
  123TIP3   OH2  374   4.845   4.589   1.931 -0.1437 -0.2062 -0.7130
  123TIP3    H1  375   4.869   4.568   2.021  0.7978 -0.8775 -1.1146
  123TIP3    H2  376   4.754   4.559   1.923 -0.4026  0.3029  0.1405
  124TIP3   OH2  377   2.877   1.915   4.529  0.2100 -0.2362  0.2982
  124TIP3    H1  378   2.877   1.827   4.567  0.1529 -0.2925  0.1696
  124TIP3    H2  379   2.855   1.901   4.436  0.4655 -0.1115  0.2177
  125TIP3   OH2  380   4.337   1.096   1.151 -0.7198  0.1403  0.6360
  125TIP3    H1  381   4.312   1.167   1.210 -1.2828 -0.5044  1.1987
  125TIP3    H2  382   4.432   1.092   1.158 -0.3207  2.7353 -1.6686
  126TIP3   OH2  383   3.937   4.476   1.409  0.3717 -0.0565 -0.6706
  126TIP3    H1  384   3.986   4.402   1.373  0.2657  0.9709 -3.1158
  126TIP3    H2  385   3.850   4.440   1.428  1.0915 -1.1510  0.7686
  127TIP3   OH2  386   1.778   3.457   1.169  0.3276 -0.0107 -0.7711
  127TIP3    H1  387   1.810   3.371   1.143  0.7696 -0.2055  0.3597
  127TIP3    H2  388   1.699   3.438   1.221  1.2141  0.1564  0.6854
  128TIP3   OH2  389   3.583   1.708   0.442  0.8230  0.1142  0.7714
  128TIP3    H1  390   3.556   1.642   0.506  0.8532  3.2135  4.2523
  128TIP3    H2  391   3.506   1.721   0.387 -0.1225 -0.8226  1.8309
  129TIP3   OH2  392   4.632   5.017   1.989 -0.0685 -0.3298 -0.2195
  129TIP3    H1  393   4.582   5.042   2.067 -0.3058 -0.0647 -0.4548
  129TIP3    H2  394   4.613   4.924   1.977  2.1598 -1.1419  1.6782
  130TIP3   OH2  395   4.301   1.987   0.123  0.3039  0.2394 -0.1604
  130TIP3    H1  396   4.272   1.896   0.127  0.9393 -0.0891 -1.9790
  130TIP3    H2  397   4.229   2.033   0.079 -0.1815  0.7328  1.0860
  131TIP3   OH2  398   1.577   1.632   2.995 -0.4233 -0.1816  0.2326
  131TIP3    H1  399   1.525   1.559   2.962 -0.5520  0.3096 -0.7040
  131TIP3    H2  400   1.570   1.626   3.090 -1.0231 -0.9554  0.1489
  132TIP3   OH2  401   2.997   1.150   1.071 -0.3043 -0.1767  0.8300
  132TIP3    H1  402   2.990   1.172   1.164 -1.1898 -1.1079  1.0005
  132TIP3    H2  403   3.088   1.123   1.059 -0.3209 -0.5859  1.5563
  133TIP3   OH2  404   0.601   1.172   2.642 -0.7853  0.0370  0.2723
  133TIP3    H1  405   0.579   1.261   2.669  0.3837  0.6367 -0.6795
  133TIP3    H2  406   0.638   1.181   2.555 -0.0107 -1.2998  0.4268
  134TIP3   OH2  407   4.627   1.326   3.888 -0.6245  0.6768 -0.4772
  134TIP3    H1  408   4.611   1.259   3.954  2.3294 -0.8273 -1.1196
  134TIP3    H2  409   4.568   1.304   3.816  1.8079 -2.8586 -1.6638
  135TIP3   OH2  410   1.485   4.874   2.743 -0.5418  0.1633 -0.5592
  135TIP3    H1  411   1.535   4.799   2.778  1.7493  1.5529 -0.6430
  135TIP3    H2  412   1.453   4.843   2.659  1.3595 -0.4045 -1.1305
  136TIP3   OH2  413   1.016   0.050   0.450 -0.3236 -0.1430  0.9976
  136TIP3    H1  414   0.954   0.122   0.437 -1.6692 -1.2434  1.0934
  136TIP3    H2  415   1.084   0.087   0.506 -1.8352  0.6218  2.4337
  137TIP3   OH2  416   0.094   5.670   3.881 -0.1787 -0.4127  0.4699
  137TIP3    H1  417   0.136   5.728   3.818 -1.9543  0.4550 -0.0025
  137TIP3    H2  418   0.098   5.717   3.964 -1.2791  0.2734  0.1639
  138TIP3   OH2  419   3.763   1.820   4.122  0.6680 -0.2814  0.0240
  138TIP3    H1  420   3.745   1.837   4.029  1.0559  1.9721  0.2921
  138TIP3    H2  421   3.842   1.871   4.141 -0.7074  1.2547  2.1000
  139TIP3   OH2  422   5.680   5.880   4.277 -0.1385 -0.1731  0.2585
  139TIP3    H1  423   5.692   5.800   4.226 -0.2085 -0.8085  1.2089
  139TIP3    H2  424   5.588   5.903   4.263 -0.1355 -0.2943  0.0327
  140TIP3   OH2  425   5.939   2.922   1.719 -0.1486 -0.1435 -0.0707
  140TIP3    H1  426   5.995   2.996   1.742  1.1437 -1.0895 -0.0523
  140TIP3    H2  427   5.880   2.913   1.793  1.4887 -0.7982  1.2214
  141TIP3   OH2  428   5.504   4.415   3.110 -0.4924 -0.0241 -0.0044
  141TIP3    H1  429   5.528   4.342   3.167 -0.0428  0.0209 -0.1342
  141TIP3    H2  430   5.441   4.466   3.160  0.5666  0.5164  0.8142
  142TIP3   OH2  431   3.360   5.615   4.660  0.2180  0.2311  0.1746
  142TIP3    H1  432   3.300   5.640   4.589  0.0201  0.2943  0.3634
  142TIP3    H2  433   3.303   5.589   4.732  0.3907  1.4211  0.7715
  143TIP3   OH2  434   3.637   4.747   1.466  0.2174 -0.0934 -0.5295
  143TIP3    H1  435   3.614   4.687   1.395  1.3165  0.2586 -1.2159
  143TIP3    H2  436   3.609   4.833   1.433 -1.0270 -0.1496  0.2999
  144TIP3   OH2  437   4.413   5.429   2.051  0.4558  0.1218 -0.3475
  144TIP3    H1  438   4.439   5.365   1.984  0.1650 -0.9911  0.5628
  144TIP3    H2  439   4.419   5.380   2.133 -2.0069  0.5721  0.1633
  145TIP3   OH2  440   3.122   0.599   1.091  0.9548  0.8806  0.0368
  145TIP3    H1  441   3.178   0.528   1.059 -1.0643 -2.1224  2.5350
  145TIP3    H2  442   3.046   0.597   1.033  0.5055  0.3265  0.6242
  146TIP3   OH2  443   3.001   0.083   2.930 -0.0829 -0.4001 -0.1264
  146TIP3    H1  444   3.070   0.148   2.943 -1.3734  0.8414  0.8329
  146TIP3    H2  445   3.032   0.029   2.857  1.6033  0.4973 -0.1147
  147TIP3   OH2  446   2.367   5.000   2.836  0.6932  0.0335  0.5440
  147TIP3    H1  447   2.329   4.934   2.778 -1.2386  1.9486 -0.5506
  147TIP3    H2  448   2.444   5.032   2.788 -0.1710  0.7202 -0.4363
  148TIP3   OH2  449   1.539   4.087   1.547 -0.1975  0.0805 -0.1673
  148TIP3    H1  450   1.597   4.086   1.471 -1.2485  0.6913 -1.0103
  148TIP3    H2  451   1.486   4.008   1.538 -1.4222  0.9551 -0.9902
  149TIP3   OH2  452   6.051   3.487   4.117  0.0251 -0.0080  0.1028
  149TIP3    H1  453   6.115   3.497   4.047  0.4222 -1.3901  0.2439
  149TIP3    H2  454   5.996   3.414   4.090  0.1606 -0.5401  1.1990
  150TIP3   OH2  455   4.805   3.777   4.106  0.3721 -0.0526 -0.3155
  150TIP3    H1  456   4.803   3.717   4.181 -0.5855  0.6547  0.2585
  150TIP3    H2  457   4.794   3.721   4.030 -0.9095 -0.5953  0.2331
  151TIP3   OH2  458   4.304   1.777   2.625 -0.3900 -0.5009 -0.1586
  151TIP3    H1  459   4.278   1.805   2.537 -0.4739  2.3056  0.6708
  151TIP3    H2  460   4.375   1.715   2.610  1.2617  1.7150 -2.2024
  152TIP3   OH2  461   4.758   3.352   4.349 -0.6429 -0.7420 -0.0291
  152TIP3    H1  462   4.841   3.305   4.354 -0.6225 -0.7062 -0.0296
  152TIP3    H2  463   4.695   3.287   4.318 -0.2016 -0.2658 -2.1013
  153TIP3   OH2  464   3.985   1.937   2.316  0.5202 -0.3626 -0.2215
  153TIP3    H1  465   4.031   2.021   2.308 -0.0372 -0.1028 -0.7899
  153TIP3    H2  466   3.929   1.948   2.393  0.2555 -0.1159 -0.4469
  154TIP3   OH2  467   4.232   0.664   4.738 -0.3104  0.0025  0.6178
  154TIP3    H1  468   4.270   0.736   4.788 -0.2167 -1.0474  2.1177
  154TIP3    H2  469   4.144   0.652   4.775 -0.5781 -0.2276 -0.0689
  155TIP3   OH2  470   0.407   1.131   5.103 -0.1983  0.3596  0.1209
  155TIP3    H1  471   0.339   1.193   5.076  1.2164  1.9510  0.0432
  155TIP3    H2  472   0.403   1.130   5.198 -0.1258  0.6938  0.1280
  156TIP3   OH2  473   3.193   3.379   5.074 -0.0918  0.6452  0.3337
  156TIP3    H1  474   3.253   3.345   5.007 -1.6622 -0.3895 -0.6055
  156TIP3    H2  475   3.161   3.302   5.120 -0.4264  1.2057  1.0672
  157TIP3   OH2  476   3.048   5.867   4.011  0.2659 -0.0497  0.3674
  157TIP3    H1  477   3.101   5.899   4.084  0.7562 -0.0606  0.0243
  157TIP3    H2  478   3.090   5.905   3.933  0.3361 -0.8150  0.0212
  158TIP3   OH2  479   4.276   0.140   2.767 -0.4952 -0.1698  0.4334
  158TIP3    H1  480   4.330   0.116   2.691 -0.2881 -0.5928  0.7119
  158TIP3    H2  481   4.284   0.235   2.772 -1.8756  0.0648 -1.1030
  159TIP3   OH2  482   5.939   3.058   2.990 -0.1711  0.5144 -0.6006
  159TIP3    H1  483   6.028   3.083   2.964  0.1423 -1.1999 -1.2962
  159TIP3    H2  484   5.924   3.106   3.072  1.6415  0.3422 -0.1194
  160TIP3   OH2  485   3.575   3.324   2.931 -0.4516 -0.5411  0.2845
  160TIP3    H1  486   3.642   3.271   2.887  0.6267  1.5437 -0.7170
  160TIP3    H2  487   3.594   3.314   3.024  0.2240 -1.2725  0.0806
  161TIP3   OH2  488   4.490   2.495   1.758 -0.4149 -0.1441 -0.0076
  161TIP3    H1  489   4.505   2.555   1.685  1.2670  2.3105  2.1623
  161TIP3    H2  490   4.571   2.445   1.765 -0.2039  0.2775  0.6855
  162TIP3   OH2  491   3.826   2.576   4.723  0.2793  0.0661 -0.6840
  162TIP3    H1  492   3.746   2.621   4.696  0.0109 -0.3445 -0.5841
  162TIP3    H2  493   3.811   2.485   4.698  1.2238  0.1890 -1.8167
  163TIP3   OH2  494   5.038   3.040   3.617 -0.0891  0.2292  0.1807
  163TIP3    H1  495   5.051   3.135   3.617  1.1131  0.0878 -0.2287
  163TIP3    H2  496   4.963   3.025   3.560 -0.6935  0.9745  0.7596
  164TIP3   OH2  497   6.041   1.698   2.178 -0.1117  0.0015  0.3213
  164TIP3    H1  498   6.128   1.713   2.141  0.0367 -2.7871 -0.6365
  164TIP3    H2  499   6.048   1.616   2.225 -2.0812  0.0495  0.7924
  165TIP3   OH2  500   0.699   1.539   0.840  0.0350 -0.9453  0.2548
  165TIP3    H1  501   0.670   1.591   0.915 -0.3761  0.8381 -1.0802
  165TIP3    H2  502   0.773   1.489   0.874 -0.2903 -0.3726  1.9197
  166TIP3   OH2  503   3.870   2.522   2.016  0.7893  0.7974  0.0880
  166TIP3    H1  504   3.913   2.472   2.086  0.2628  0.7162  0.3544
  166TIP3    H2  505   3.928   2.512   1.940  0.7197 -0.1749  0.1522
  167TIP3   OH2  506   2.014   3.783   0.738 -0.2682  0.3225 -0.2150
  167TIP3    H1  507   2.083   3.845   0.712  0.5655 -0.6663 -0.4393
  167TIP3    H2  508   2.061   3.715   0.786 -1.2095 -0.0052  0.2470
  168TIP3   OH2  509   3.865   3.401   5.057  0.2267 -0.2910  0.0974
  168TIP3    H1  510   3.788   3.389   5.113 -1.3391  1.8803 -1.4305
  168TIP3    H2  511   3.920   3.462   5.106  0.5416 -1.0532  0.7308
  169TIP3   OH2  512   1.890   0.482   3.248  0.5158 -0.3027 -0.1927
  169TIP3    H1  513   1.984   0.494   3.261  0.3349 -0.2612  1.1533
  169TIP3    H2  514   1.850   0.555   3.295 -0.2294 -0.9118  0.1375
  170TIP3   OH2  515   1.510   5.336   0.654  0.5146 -0.5644  0.0171
  170TIP3    H1  516   1.431   5.282   0.653  0.0333  0.1114  0.7825
  170TIP3    H2  517   1.581   5.274   0.671 -0.0952 -0.9059  1.4911
  171TIP3   OH2  518   1.709   2.561   3.585 -0.3979 -0.3681  0.3365
  171TIP3    H1  519   1.774   2.495   3.609  1.4607  1.3906  0.4934
  171TIP3    H2  520   1.642   2.555   3.653  1.1572 -0.2779  1.9493
  172TIP3   OH2  521   4.811   2.665   4.714 -0.4850  0.4490  0.3030
  172TIP3    H1  522   4.821   2.760   4.718  1.2438  0.2526  1.8971
  172TIP3    H2  523   4.785   2.641   4.803  0.4543 -0.6847  0.2835
  173TIP3   OH2  524   3.783   1.330   4.548  0.0589 -0.1829  0.1293
  173TIP3    H1  525   3.832   1.263   4.500  0.6301  1.0652 -1.0842
  173TIP3    H2  526   3.694   1.323   4.513 -0.1751 -1.0750  0.8602
  174TIP3   OH2  527   4.291   0.646   2.219  0.0261 -0.0222  0.8905
  174TIP3    H1  528   4.228   0.641   2.148  1.6145 -2.9605 -0.4970
  174TIP3    H2  529   4.244   0.614   2.296 -0.6114 -0.6671  0.2419
  175TIP3   OH2  530   0.379   3.385   2.240  0.2958 -0.1231 -0.0967
  175TIP3    H1  531   0.315   3.390   2.170 -0.5788  0.6974  0.7344
  175TIP3    H2  532   0.333   3.344   2.313  1.0057 -0.4104  0.2023
  176TIP3   OH2  533   0.974   2.301   0.523 -0.6583  0.7502 -0.3783
  176TIP3    H1  534   1.002   2.322   0.612  2.1046 -1.6468 -0.5330
  176TIP3    H2  535   0.993   2.208   0.513 -0.0500  1.1085 -3.7425
  177TIP3   OH2  536   2.683   2.730   2.851  0.0257 -0.4945  0.0464
  177TIP3    H1  537   2.658   2.786   2.777  0.1939 -0.0382  0.3290
  177TIP3    H2  538   2.607   2.672   2.863 -1.0935  1.1072  1.1173
  178TIP3   OH2  539   2.939   0.634   0.888  0.1452  0.1778  0.5802
  178TIP3    H1  540   2.999   0.575   0.841  1.9508  1.4726  1.1673
  178TIP3    H2  541   2.880   0.667   0.820  0.5134 -0.5961 -0.1403
  179TIP3   OH2  542   5.736   2.640   2.174  0.2769  0.1680  0.5058
  179TIP3    H1  543   5.723   2.567   2.234  0.1320  1.6813  2.4019
  179TIP3    H2  544   5.650   2.653   2.133  0.6888 -1.6934 -1.1057
  180TIP3   OH2  545   2.174   4.993   0.462 -0.5351 -0.3685  0.4481
  180TIP3    H1  546   2.178   4.905   0.425 -2.8214 -0.5507  0.5042
  180TIP3    H2  547   2.144   5.049   0.389  0.4971  0.3123  0.5222
  181TIP3   OH2  548   6.279   3.377   3.499  0.3942 -0.1320  0.2918
  181TIP3    H1  549   6.292   3.299   3.447  1.4159 -0.5278  1.0924
  181TIP3    H2  550   6.253   3.345   3.585 -0.4594  0.4713  0.2742
  182TIP3   OH2  551   5.658   2.711   2.956  0.2272  0.1042  0.4618
  182TIP3    H1  552   5.630   2.627   2.921 -1.9054  1.3081 -0.9536
  182TIP3    H2  553   5.630   2.710   3.048 -1.2756 -0.1396  0.0206
  183TIP3   OH2  554   2.720   2.961   0.328 -0.3693  0.0759 -0.4246
  183TIP3    H1  555   2.703   3.047   0.289  0.0863 -0.1261 -1.0973
  183TIP3    H2  556   2.706   2.900   0.255 -1.4204 -0.4910  0.2278
  184TIP3   OH2  557   0.432   0.917   0.634 -0.2610  0.3970 -0.4173
  184TIP3    H1  558   0.526   0.918   0.615 -0.1851  0.8666 -0.0561
  184TIP3    H2  559   0.419   0.836   0.684 -0.1494  0.0525 -0.9422
  185TIP3   OH2  560   1.605   5.538   2.412 -0.0819  0.3525  0.3921
  185TIP3    H1  561   1.573   5.525   2.322 -0.2674 -0.6525  0.5966
  185TIP3    H2  562   1.621   5.450   2.445  0.7453  0.7487  1.0861
  186TIP3   OH2  563   5.664   3.220   2.421 -0.3635 -0.3096  0.0560
  186TIP3    H1  564   5.728   3.272   2.470 -0.5211 -0.0429 -0.0194
  186TIP3    H2  565   5.616   3.172   2.488  1.2399 -2.0631  0.0069
  187TIP3   OH2  566   4.249   1.210   3.861  0.0464  0.2181  0.0654
  187TIP3    H1  567   4.161   1.225   3.824  0.0796 -0.6421 -0.3998
  187TIP3    H2  568   4.305   1.197   3.784 -0.1351 -3.0397  0.3293
  188TIP3   OH2  569   1.625   1.597   4.700  0.0873  0.0787 -0.7015
  188TIP3    H1  570   1.659   1.640   4.779 -1.7178  1.0045 -0.3701
  188TIP3    H2  571   1.695   1.606   4.636  1.2554  0.0865  0.5291
  189TIP3   OH2  572   4.084   2.558   2.818 -0.4836 -0.0972  0.2726
  189TIP3    H1  573   4.142   2.613   2.766  1.7730 -0.9128  1.7731
  189TIP3    H2  574   4.136   2.481   2.838 -2.2078 -1.0044  1.5258
  190TIP3   OH2  575   2.330   2.504   3.533  0.7534  0.1225 -0.1661
  190TIP3    H1  576   2.300   2.488   3.444  0.3027 -1.9510  0.3239
  190TIP3    H2  577   2.260   2.472   3.589  1.1356  1.1589  0.9589
  191TIP3   OH2  578   5.614   5.844   3.187 -0.8294  0.6903  0.4566
  191TIP3    H1  579   5.561   5.794   3.249  0.3481 -2.0912 -0.6069
  191TIP3    H2  580   5.551   5.873   3.121 -1.6721  1.3611  1.5117
  192TIP3   OH2  581   5.846   2.605   0.419 -0.1517  0.3044 -0.4095
  192TIP3    H1  582   5.844   2.699   0.400 -1.2649  0.0223 -1.8502
  192TIP3    H2  583   5.876   2.564   0.338  0.1643 -0.6032  0.1498
  193TIP3   OH2  584   5.528   3.492   4.918 -0.2791 -0.3435  0.6966
  193TIP3    H1  585   5.601   3.548   4.895 -1.4211  0.7789 -0.3647
  193TIP3    H2  586   5.493   3.529   4.999  0.8869 -1.4880  1.7772
  194TIP3   OH2  587   5.734   5.304   0.956  0.0575  0.1190 -0.3004
  194TIP3    H1  588   5.766   5.324   0.868 -0.5093 -0.8220 -0.7353
  194TIP3    H2  589   5.744   5.386   1.005  0.8205  0.5192 -1.1015
  195TIP3   OH2  590   0.649   0.225   1.153 -0.0377 -0.0280  0.0938
  195TIP3    H1  591   0.731   0.224   1.203  0.8730  1.0936 -1.3041
  195TIP3    H2  592   0.619   0.315   1.158 -1.5142 -0.5375  1.0332
  196TIP3   OH2  593   3.909   2.674   0.222  0.5534 -0.0327 -0.1032
  196TIP3    H1  594   3.815   2.690   0.218  0.6001 -0.0023 -1.3811
  196TIP3    H2  595   3.944   2.752   0.266 -0.2440 -1.2000  2.8497
  197TIP3   OH2  596   0.150   2.544   1.132  0.3755 -0.2791  0.6351
  197TIP3    H1  597   0.101   2.591   1.065  0.4261 -1.4272 -0.2193
  197TIP3    H2  598   0.091   2.541   1.207  0.1364  0.5946  0.4908
  198TIP3   OH2  599   4.902   3.781   2.495 -0.1265 -0.4226  0.2430
  198TIP3    H1  600   4.914   3.687   2.507 -0.7590 -0.5953 -0.3713
  198TIP3    H2  601   4.882   3.814   2.583  0.4702 -0.7934  0.5250
  199TIP3   OH2  602   1.814   0.877   2.286  0.3811  0.9009  0.6448
  199TIP3    H1  603   1.865   0.938   2.340  2.3790 -0.6433  0.6227
  199TIP3    H2  604   1.853   0.792   2.304 -0.8460 -0.0685 -1.0359
  200TIP3   OH2  605   5.919   0.054   0.203  0.3567 -0.5586 -0.3493
  200TIP3    H1  606   5.958   0.036   0.289 -0.5370 -1.1937 -0.0643
  200TIP3    H2  607   5.929   0.148   0.191 -0.3693 -0.3053  0.8898
  201TIP3   OH2  608   3.936   0.289   2.856 -0.0033  1.0982 -0.7692
  201TIP3    H1  609   4.022   0.318   2.822  0.1112 -0.0819 -1.5406
  201TIP3    H2  610   3.874   0.321   2.791 -0.2666  2.6384  0.1866
  202TIP3   OH2  611   3.385   0.170   1.019  0.1296  0.1172  0.7923
  202TIP3    H1  612   3.293   0.196   1.012  0.1160  0.0367  0.6834
  202TIP3    H2  613   3.431   0.227   0.958 -0.1403 -1.3748 -0.8682
  203TIP3   OH2  614   1.977   0.046   2.863 -0.5365 -0.2602  0.2589
  203TIP3    H1  615   1.944   0.083   2.945  0.1580  0.3704  0.2688
  203TIP3    H2  616   2.060   0.091   2.848 -1.7011  1.3567 -1.9635
  204TIP3   OH2  617   2.103   3.479   0.973 -0.4213  0.5032  0.1343
  204TIP3    H1  618   2.037   3.523   1.026 -2.1456  2.0034 -2.9341
  204TIP3    H2  619   2.153   3.550   0.933  0.4117 -0.5054 -0.6778
  205TIP3   OH2  620   4.912   2.608   0.849 -0.5755 -0.3079  0.2595
  205TIP3    H1  621   4.941   2.518   0.836 -0.1691 -0.1201 -0.2074
  205TIP3    H2  622   4.825   2.601   0.887 -1.1250 -0.9141 -1.0484
  206TIP3   OH2  623   5.408   5.558   0.275 -0.0467 -0.3577  0.0888
  206TIP3    H1  624   5.317   5.527   0.267 -0.5049  0.7390  0.7969
  206TIP3    H2  625   5.461   5.479   0.268 -0.9853 -0.8978 -1.5068
  207TIP3   OH2  626   4.396   0.334   3.865  0.1687  0.1446 -0.2725
  207TIP3    H1  627   4.425   0.245   3.886  1.2148  0.5786  0.2101
  207TIP3    H2  628   4.330   0.354   3.932  1.0542  0.2798  0.5898
  208TIP3   OH2  629   3.622   4.933   5.113  0.4762  0.5739 -0.3182
  208TIP3    H1  630   3.605   4.970   5.200 -0.5924 -1.1200  0.2396
  208TIP3    H2  631   3.576   4.991   5.052  0.5453  1.3099  0.3267
  209TIP3   OH2  632   0.247   0.854   4.980  0.4314  0.2118  0.6407
  209TIP3    H1  633   0.274   0.945   4.988 -0.3084  0.5309 -0.3460
  209TIP3    H2  634   0.152   0.857   4.975  0.4678 -0.4235 -1.4665
  210TIP3   OH2  635   1.831   0.554   4.682 -0.3981  0.7570  0.0503
  210TIP3    H1  636   1.906   0.518   4.730 -0.1984  0.0082 -0.7992
  210TIP3    H2  637   1.867   0.626   4.631 -0.4606  1.0445  0.4038
  211TIP3   OH2  638   0.721   3.382   2.172  0.8904  0.4448  0.1002
  211TIP3    H1  639   0.744   3.322   2.100 -3.3379  0.1270 -1.2771
  211TIP3    H2  640   0.741   3.469   2.138  2.5329  0.1222  0.1622
  212TIP3   OH2  641   1.251   1.765   4.369  0.0467  0.3891 -0.5129
  212TIP3    H1  642   1.258   1.848   4.321 -2.4153  0.1222 -1.4736
  212TIP3    H2  643   1.310   1.776   4.444  0.3492  2.7121 -1.0099
  213TIP3   OH2  644   3.113   5.706   0.212  0.3581  0.3432  0.2445
  213TIP3    H1  645   3.078   5.774   0.270  0.0785 -0.3360  0.8919
  213TIP3    H2  646   3.073   5.723   0.127 -0.7016  0.2415  0.7108
  214TIP3   OH2  647   4.460   3.244   1.611  0.2869  1.2207  0.1221
  214TIP3    H1  648   4.422   3.156   1.616  0.8855  0.9814  0.6278
  214TIP3    H2  649   4.457   3.276   1.702  2.6565  0.5955  0.4943
  215TIP3   OH2  650   2.809   0.985   3.621 -0.0469 -0.1759  0.2181
  215TIP3    H1  651   2.875   0.920   3.641  1.1396  0.7085 -0.6489
  215TIP3    H2  652   2.728   0.936   3.611  1.2503 -1.9370 -2.9955
  216TIP3   OH2  653   4.085   3.252   0.611  0.3300  0.1851 -0.2339
  216TIP3    H1  654   4.034   3.271   0.690  1.3001  0.5835  0.3164
  216TIP3    H2  655   4.024   3.266   0.539  0.0167  1.9719  0.3274
  217TIP3   OH2  656   5.176   4.033   1.882  0.2949 -0.3109  0.6977
  217TIP3    H1  657   5.248   3.979   1.848 -1.1174 -1.6796 -0.3173
  217TIP3    H2  658   5.102   4.011   1.825 -0.9494  0.9643  1.7637
  218TIP3   OH2  659   2.167   4.427   5.014  0.1833 -0.0763 -0.2870
  218TIP3    H1  660   2.079   4.414   4.979 -0.3855  1.1624  0.6277
  218TIP3    H2  661   2.215   4.471   4.943  0.7524 -2.6178 -1.6064
  219TIP3   OH2  662   4.795   4.249   3.010 -0.2065  0.1120 -0.8101
  219TIP3    H1  663   4.715   4.197   3.016 -0.2602  0.0060 -2.1752
  219TIP3    H2  664   4.866   4.185   3.010 -0.1015  0.2128  0.5320
  220TIP3   OH2  665   3.311   5.988   2.788  0.3677 -0.8370 -0.0524
  220TIP3    H1  666   3.304   5.934   2.867 -0.1658  0.2637  0.6884
  220TIP3    H2  667   3.326   5.926   2.717  1.1856 -1.8328  0.9579
  221TIP3   OH2  668   3.686   4.834   0.853  0.0223  0.2416 -0.2691
  221TIP3    H1  669   3.655   4.755   0.897 -0.0901  0.9651  1.0100
  221TIP3    H2  670   3.634   4.839   0.773  0.6413 -1.4339 -0.8328
  222TIP3   OH2  671   1.145   4.532   3.059 -0.1470  0.0266  0.6288
  222TIP3    H1  672   1.180   4.618   3.035  3.2557 -1.1083  1.0216
  222TIP3    H2  673   1.092   4.550   3.137  1.2387  1.7061  1.2671
  223TIP3   OH2  674   2.622   5.040   1.253  0.6814  0.0409 -0.0631
  223TIP3    H1  675   2.539   5.026   1.209  0.7601 -2.1540  0.3645
  223TIP3    H2  676   2.611   5.121   1.302 -1.7279 -0.9177  1.1209
  224TIP3   OH2  677   0.159   3.288   4.957  0.1650 -0.4555  0.0176
  224TIP3    H1  678   0.177   3.376   4.923  1.6369 -0.8980 -0.4363
  224TIP3    H2  679   0.200   3.229   4.893  2.1863 -1.3543  2.0149
  225TIP3   OH2  680   3.914   3.427   4.504 -0.2677 -0.6031 -0.5453
  225TIP3    H1  681   3.866   3.470   4.574  0.1569 -1.2222  0.1351
  225TIP3    H2  682   3.886   3.335   4.507 -0.3426 -0.6176 -1.2724
  226TIP3   OH2  683   4.950   4.445   3.998 -0.0581 -0.2197 -0.2157
  226TIP3    H1  684   4.999   4.527   3.995  0.2790 -0.3909  0.4188
  226TIP3    H2  685   4.930   4.425   3.907 -0.8654  1.0007 -0.3396
  227TIP3   OH2  686   0.960   3.322   0.781 -0.1865 -0.2439  0.8227
  227TIP3    H1  687   0.903   3.377   0.835  1.1524  1.2250  0.8309
  227TIP3    H2  688   1.008   3.385   0.726 -0.1467 -1.5715 -0.7393
  228TIP3   OH2  689   5.902   2.188   3.531 -0.0942  0.4769  0.3962
  228TIP3    H1  690   5.904   2.175   3.436 -0.4953  2.7512  0.0176
  228TIP3    H2  691   5.994   2.190   3.556  0.0140 -0.2153  0.0819
  229TIP3   OH2  692   5.648   5.222   3.678  0.3097  0.1938 -0.0273
  229TIP3    H1  693   5.606   5.291   3.626  2.2879  1.1026 -0.5158
  229TIP3    H2  694   5.576   5.183   3.728 -0.9982  2.1471 -0.2657
  230TIP3   OH2  695   0.716   0.273   4.033 -0.0776 -0.4449  0.3462
  230TIP3    H1  696   0.734   0.364   4.057 -2.1719  0.1174 -0.0164
  230TIP3    H2  697   0.801   0.237   4.009  0.4338  2.5016 -3.1668
  231TIP3   OH2  698   1.954   5.143   4.259 -0.4665 -0.3368 -0.4351
  231TIP3    H1  699   2.022   5.078   4.279 -0.2605  0.0202  0.0417
  231TIP3    H2  700   1.873   5.102   4.289 -0.1767  0.1448  1.1026
  232TIP3   OH2  701   3.791   5.527   2.883 -0.3240 -0.2870 -0.7186
  232TIP3    H1  702   3.707   5.493   2.852  0.1839 -2.0232 -0.2967
  232TIP3    H2  703   3.774   5.552   2.974  0.0653 -2.5150  0.0076
  233TIP3   OH2  704   2.403   5.021   0.623  0.1715 -0.1554 -0.2538
  233TIP3    H1  705   2.365   5.008   0.710  1.2474 -0.4992  0.1877
  233TIP3    H2  706   2.328   5.020   0.563 -0.7645  1.8049  0.8138
  234TIP3   OH2  707   5.876   0.756   1.171  0.1416 -0.2102 -0.2198
  234TIP3    H1  708   5.893   0.828   1.232 -1.0565  0.2684 -0.4310
  234TIP3    H2  709   5.843   0.685   1.227 -0.0725 -0.0924 -0.1967
  235TIP3   OH2  710   2.824   2.758   3.102  0.1849  0.1185 -0.2540
  235TIP3    H1  711   2.772   2.769   3.022  0.6530  0.1418 -0.5598
  235TIP3    H2  712   2.782   2.686   3.149  1.0358 -1.1862 -1.4422
  236TIP3   OH2  713   3.377   3.594   1.440 -0.0459  0.2676  0.2486
  236TIP3    H1  714   3.315   3.575   1.511 -0.8203  0.0426 -0.4606
  236TIP3    H2  715   3.321   3.604   1.363  0.8542 -0.6126 -0.5470
  237TIP3   OH2  716   1.760   5.561   0.246 -0.0017  0.1737 -0.2862
  237TIP3    H1  717   1.778   5.605   0.330  0.9015  0.6036 -0.6907
  237TIP3    H2  718   1.846   5.532   0.216 -0.5940 -2.1932  0.1182
  238TIP3   OH2  719   4.890   3.633   1.599 -0.3523 -0.3501  0.4751
  238TIP3    H1  720   4.947   3.600   1.530 -0.0659 -0.6931  0.8745
  238TIP3    H2  721   4.808   3.583   1.588 -0.9072  0.7441 -0.6403
  239TIP3   OH2  722   4.073   5.872   3.314  0.4542 -0.1004  0.1518
  239TIP3    H1  723   4.109   5.886   3.226 -0.1245  1.0076  0.0667
  239TIP3    H2  724   4.024   5.790   3.307  0.2668  0.0686 -0.6140
  240TIP3   OH2  725   2.320   2.488   4.593 -0.1727 -0.6335 -0.0965
  240TIP3    H1  726   2.357   2.453   4.673  1.1588  2.9359  1.0286
  240TIP3    H2  727   2.395   2.522   4.544 -1.3115  0.7157 -0.9886
  241TIP3   OH2  728   2.178   5.571   4.733 -0.8232  0.2358  0.0648
  241TIP3    H1  729   2.164   5.511   4.806 -1.0276 -0.8242 -0.7989
  241TIP3    H2  730   2.127   5.649   4.755 -0.3087  0.2151  1.3584
  242TIP3   OH2  731   4.511   2.844   1.989 -0.2083  0.5425  0.2246
  242TIP3    H1  732   4.557   2.819   1.909 -0.2845 -0.6667  0.5414
  242TIP3    H2  733   4.470   2.928   1.967  0.4023  0.6069 -0.7445
  243TIP3   OH2  734   3.317   5.908   3.537 -0.0887  0.1939 -0.2310
  243TIP3    H1  735   3.384   5.958   3.584  0.0198 -0.0592 -0.1132
  243TIP3    H2  736   3.267   5.974   3.489 -0.9929  0.6015  1.2016
  244TIP3   OH2  737   2.504   1.768   3.881  0.2787  0.2363 -0.4149
  244TIP3    H1  738   2.451   1.707   3.830 -1.7807  0.7919  0.9736
  244TIP3    H2  739   2.575   1.714   3.916  0.8905 -0.4614 -2.5269
  245TIP3   OH2  740   2.038   4.622   4.711 -0.1663 -0.2584  0.1568
  245TIP3    H1  741   2.026   4.680   4.635  0.9799 -0.9549 -0.5837
  245TIP3    H2  742   2.049   4.535   4.673 -0.2699 -0.7269  1.1749
  246TIP3   OH2  743   5.387   5.758   4.566  0.1884  0.3680  0.3854
  246TIP3    H1  744   5.444   5.812   4.621 -0.7875  0.3850  1.4243
  246TIP3    H2  745   5.310   5.814   4.551 -0.3081 -0.2851  0.4687
  247TIP3   OH2  746   0.671   2.063   0.233 -0.0825 -0.0530 -0.2573
  247TIP3    H1  747   0.622   2.132   0.278  1.4556  0.0447  1.4093
  247TIP3    H2  748   0.724   2.109   0.169  0.3411  0.2560  0.3002
  248TIP3   OH2  749   0.654   2.500   0.118  0.2802  0.1796  0.2861
  248TIP3    H1  750   0.622   2.436   0.054 -0.3537  1.0124 -0.2529
  248TIP3    H2  751   0.749   2.502   0.105  0.2280 -0.1423 -0.1639
  249TIP3   OH2  752   5.965   5.155   5.153 -0.2245  0.3491 -0.0039
  249TIP3    H1  753   6.007   5.235   5.123 -0.6416  0.6162  0.1153
  249TIP3    H2  754   5.920   5.122   5.075  0.9504 -0.4367 -0.3799
  250TIP3   OH2  755   0.767   4.836   3.938  0.2861  0.4602  0.1208
  250TIP3    H1  756   0.709   4.767   3.972  0.1404  1.2200  1.4890
  250TIP3    H2  757   0.852   4.793   3.930 -0.1094 -0.2554 -0.4432
  251TIP3   OH2  758   0.559   4.528   5.047 -0.4100 -0.5580  0.0394
  251TIP3    H1  759   0.582   4.603   5.100  0.8846 -1.2621  0.5214
  251TIP3    H2  760   0.571   4.453   5.105 -2.3491 -1.1174 -0.2147
  252TIP3   OH2  761   4.083   4.485   3.330 -0.3067 -0.2384 -0.3845
  252TIP3    H1  762   4.041   4.560   3.372 -0.0986 -0.5441  0.3775
  252TIP3    H2  763   4.010   4.427   3.308 -0.3665 -0.3417  0.0850
  253TIP3   OH2  764   5.730   2.953   3.946  0.1677 -0.3634 -0.0217
  253TIP3    H1  765   5.778   2.907   3.877 -0.6263 -0.0034 -0.8334
  253TIP3    H2  766   5.666   3.007   3.899 -0.1476  0.1669  0.9851
  254TIP3   OH2  767   2.002   2.341   1.284  0.1191 -0.1806 -0.2379
  254TIP3    H1  768   1.954   2.414   1.324 -0.5107 -0.5662 -0.2718
  254TIP3    H2  769   2.030   2.374   1.199  2.8520  1.2088  1.0833
  255TIP3   OH2  770   0.462   0.087   4.464  0.1735 -0.5239  0.0969
  255TIP3    H1  771   0.466  -0.008   4.462  0.0870 -0.5245 -0.0922
  255TIP3    H2  772   0.390   0.107   4.523 -0.6672 -0.5993 -0.8717
  256TIP3   OH2  773   5.259   3.849   4.247 -0.9560  0.8943 -0.2756
  256TIP3    H1  774   5.259   3.802   4.330  0.7310 -0.6176 -1.0458
  256TIP3    H2  775   5.238   3.940   4.270 -1.0340  0.4128  1.7197
  257TIP3   OH2  776   2.776   0.434   5.025  0.7147 -0.3571  0.4731
  257TIP3    H1  777   2.724   0.385   5.089  0.7670  0.4454  1.1425
  257TIP3    H2  778   2.793   0.518   5.067  4.3456 -1.2940  1.1470
  258TIP3   OH2  779   2.461   3.953   2.847  0.5822 -0.2168  0.1550
  258TIP3    H1  780   2.391   4.006   2.809  2.4208  1.5954 -0.9468
  258TIP3    H2  781   2.438   3.863   2.825 -1.3226  0.3187 -0.2226
  259TIP3   OH2  782   6.285   3.677   4.333 -0.6738  0.0594  0.1313
  259TIP3    H1  783   6.335   3.630   4.267  0.4045 -0.4311  1.2600
  259TIP3    H2  784   6.194   3.654   4.314 -0.3041 -0.9641 -0.5042
  260TIP3   OH2  785   2.425   5.565   3.049 -0.3656  0.6623  0.2507
  260TIP3    H1  786   2.494   5.630   3.064 -0.0496  0.7191 -1.2936
  260TIP3    H2  787   2.350   5.599   3.097  0.3447  1.2016  1.0073
  261TIP3   OH2  788   0.959   0.286   4.419  0.2250  0.6303 -0.0580
  261TIP3    H1  789   0.978   0.211   4.362 -0.2855 -0.6096  1.3395
  261TIP3    H2  790   0.863   0.287   4.425  0.0804  2.6298 -1.5964
  262TIP3   OH2  791   1.180   1.175   0.969 -0.0002 -0.0250  0.2878
  262TIP3    H1  792   1.132   1.148   1.048 -1.5539  1.2685 -0.1510
  262TIP3    H2  793   1.135   1.131   0.897  0.7041 -0.3078  0.0093
  263TIP3   OH2  794   4.984   2.902   2.567 -0.0273 -0.0542 -0.5255
  263TIP3    H1  795   4.996   2.900   2.662  4.2985  1.1132 -0.8594
  263TIP3    H2  796   4.961   2.812   2.543  1.6926 -1.0637  1.3900
  264TIP3   OH2  797   0.166   4.027   4.528  0.0037 -0.3923 -0.6027
  264TIP3    H1  798   0.153   3.950   4.583  0.6691 -0.6458 -0.8000
  264TIP3    H2  799   0.160   3.995   4.438 -0.1240 -0.1415 -0.6869
  265TIP3   OH2  800   1.933   0.757   1.025  0.1408  0.2291 -0.3149
  265TIP3    H1  801   1.949   0.789   0.936  0.0428  0.5342 -0.2239
  265TIP3    H2  802   1.839   0.763   1.037  0.2526  1.1817  0.1762
  266TIP3   OH2  803   2.976   2.847   0.730  0.0509 -0.2441 -0.6261
  266TIP3    H1  804   2.908   2.782   0.712  0.1361 -0.0718 -1.5905
  266TIP3    H2  805   2.966   2.912   0.661  0.9751 -0.0397 -0.5780
  267TIP3   OH2  806   3.916   1.501   4.365  0.4097 -0.5251 -0.2268
  267TIP3    H1  807   3.985   1.437   4.350  0.6952 -0.2741  0.0028
  267TIP3    H2  808   3.884   1.482   4.453  1.0160  0.1267  0.1440
  268TIP3   OH2  809   0.037   5.379   2.686 -0.2077  0.0809 -0.1356
  268TIP3    H1  810   0.008   5.396   2.597  1.2628  0.0603 -0.6567
  268TIP3    H2  811   0.113   5.436   2.698 -0.5980  0.3496  1.2408
  269TIP3   OH2  812   2.590   0.977   0.395  0.1655 -0.8034 -0.0168
  269TIP3    H1  813   2.508   1.026   0.392 -0.2060 -1.4732 -1.4243
  269TIP3    H2  814   2.657   1.042   0.371 -0.0560 -0.4939  0.1877
  270TIP3   OH2  815   6.022   0.342   3.565 -0.2357 -0.3285  0.2608
  270TIP3    H1  816   6.117   0.326   3.565  0.4018  2.7647  1.7757
  270TIP3    H2  817   5.994   0.319   3.477  2.5311  1.4963 -1.2421
  271TIP3   OH2  818   5.021   5.831   1.174  0.4881 -0.4206 -0.2705
  271TIP3    H1  819   4.932   5.862   1.157  0.1813 -0.7972  0.5822
  271TIP3    H2  820   5.076   5.909   1.166 -0.0860  0.0657  0.4147
  272TIP3   OH2  821   4.448   1.684   0.447  0.2081 -0.4997 -0.6060
  272TIP3    H1  822   4.526   1.728   0.414 -0.7043 -0.5543 -3.0054
  272TIP3    H2  823   4.382   1.753   0.451  0.5309 -0.2443  2.3207
  273TIP3   OH2  824   1.903   0.336   1.983  0.6345 -0.0967  1.1136
  273TIP3    H1  825   1.993   0.316   1.957  0.3558  0.8290 -0.7088
  273TIP3    H2  826   1.879   0.265   2.043  0.8912 -3.2480 -2.1835
  274TIP3   OH2  827   0.168   5.602   2.640  0.3218  1.1199 -0.5402
  274TIP3    H1  828   0.117   5.644   2.570  0.2536  3.1202  0.6263
  274TIP3    H2  829   0.172   5.668   2.709  1.7866 -0.1900  0.6955
  275TIP3   OH2  830   1.365   3.741   2.694 -0.8181 -0.0029 -0.0347
  275TIP3    H1  831   1.374   3.743   2.599 -0.4967  1.3772  0.0129
  275TIP3    H2  832   1.435   3.682   2.723  0.6445  1.4265 -0.5126
  276TIP3   OH2  833   1.830   3.929   2.404  0.0385  0.1608  0.3785
  276TIP3    H1  834   1.735   3.941   2.401  0.2532  2.3186 -0.8623
  276TIP3    H2  835   1.843   3.836   2.418 -2.2945 -0.5943 -1.7552
  277TIP3   OH2  836   5.699   3.319   1.494  0.4072 -0.1470  0.6670
  277TIP3    H1  837   5.603   3.319   1.497  0.3106  1.4082 -1.0489
  277TIP3    H2  838   5.725   3.376   1.565  0.0404 -0.0636  0.7387
  278TIP3   OH2  839   2.746   4.762   0.185 -0.2387  0.4711 -0.5199
  278TIP3    H1  840   2.744   4.753   0.280  0.6045 -1.1297 -0.6161
  278TIP3    H2  841   2.702   4.846   0.168 -1.5152  0.2146  1.1828
  279TIP3   OH2  842   2.914   2.394   2.663  0.0198  0.2762 -0.0716
  279TIP3    H1  843   2.996   2.409   2.710  0.4377 -1.6343 -0.1018
  279TIP3    H2  844   2.847   2.396   2.731  0.5775 -2.0664  0.6533
  280TIP3   OH2  845   1.758   5.814   4.870  0.1634 -0.3193  0.7342
  280TIP3    H1  846   1.699   5.801   4.945 -0.6092  0.3914  0.2633
  280TIP3    H2  847   1.700   5.836   4.797  1.0741  2.2274  0.6621
  281TIP3   OH2  848   6.375   3.521   3.278  0.2294 -0.8700  0.0591
  281TIP3    H1  849   6.298   3.555   3.233  0.5221  1.8593  1.4456
  281TIP3    H2  850   6.339   3.482   3.358  0.1295 -1.7243 -0.3824
  282TIP3   OH2  851   1.612   1.629   0.415 -0.2863  0.2653  0.4675
  282TIP3    H1  852   1.582   1.578   0.490  1.1518 -1.2431  0.0614
  282TIP3    H2  853   1.664   1.568   0.363 -0.6169  1.4749 -1.3814
  283TIP3   OH2  854   5.607   4.956   4.935  0.1203 -0.3994 -0.5731
  283TIP3    H1  855   5.545   5.019   4.971 -0.1315 -1.0233  0.0915
  283TIP3    H2  856   5.552   4.889   4.895  0.3901 -0.2920 -1.1385
  284TIP3   OH2  857   1.246   5.935   4.977  0.1557  0.6403  0.1216
  284TIP3    H1  858   1.173   5.968   4.925 -1.3660 -1.1182  1.0736
  284TIP3    H2  859   1.297   6.014   4.997 -1.1080  1.8292 -1.0645
  285TIP3   OH2  860   0.627   0.960   4.523  0.0238 -0.0422  0.3839
  285TIP3    H1  861   0.584   0.920   4.447 -0.1061  1.7170 -0.5136
  285TIP3    H2  862   0.588   0.914   4.598 -1.5235 -0.2890 -0.5141
  286TIP3   OH2  863   1.618   4.986   4.794 -0.0058  0.2413 -0.2973
  286TIP3    H1  864   1.543   5.016   4.845  0.0159  0.2561 -0.2740
  286TIP3    H2  865   1.625   4.893   4.814 -0.0829  0.2167 -0.3822
  287TIP3   OH2  866   5.000   3.960   3.617  0.2764 -0.4316  0.4370
  287TIP3    H1  867   5.077   3.915   3.582  0.3835  0.0745  0.0138
  287TIP3    H2  868   5.011   3.955   3.712  0.7922 -0.4221  0.3808
  288TIP3   OH2  869   2.765   5.145   0.959 -0.1704  1.0177  0.4221
  288TIP3    H1  870   2.806   5.213   1.013  0.3511  1.0075  0.0514
  288TIP3    H2  871   2.720   5.089   1.022 -1.0485  1.9884  0.6914
  289TIP3   OH2  872   3.143   5.737   2.888  0.3967  0.4120  0.4058
  289TIP3    H1  873   3.078   5.798   2.924  1.0892  0.7777  1.0816
  289TIP3    H2  874   3.091   5.667   2.849 -0.4410  1.7597 -1.0254
  290TIP3   OH2  875   0.885   3.845   0.835 -0.1081  0.3830 -0.0536
  290TIP3    H1  876   0.978   3.826   0.849 -0.4082 -0.8733  0.3284
  290TIP3    H2  877   0.849   3.857   0.923 -0.6775 -1.0186 -0.0753
  291TIP3   OH2  878   2.059   1.962   3.842 -0.5812 -0.4500  0.1350
  291TIP3    H1  879   2.034   1.893   3.904  0.4219 -1.9643 -1.0655
  291TIP3    H2  880   2.120   2.017   3.890 -0.2969 -1.2435  0.7012
  292TIP3   OH2  881   1.702   4.537   1.643 -0.7617 -0.0507  0.1810
  292TIP3    H1  882   1.726   4.577   1.727 -1.3837  0.3778  0.1630
  292TIP3    H2  883   1.763   4.464   1.633  1.7861  2.0512 -0.7626
  293TIP3   OH2  884   3.007   0.850   3.787 -0.0882 -0.5301  0.1466
  293TIP3    H1  885   3.043   0.777   3.838 -1.8344 -0.8483  1.0089
  293TIP3    H2  886   2.985   0.916   3.852 -0.5223 -0.1233 -0.4064
  294TIP3   OH2  887   2.254   1.556  -0.005  0.2489 -0.6801 -0.0921
  294TIP3    H1  888   2.259   1.465  -0.035  0.5455 -0.1916 -1.6361
  294TIP3    H2  889   2.237   1.549   0.089  0.7896 -2.3328 -0.0718
  295TIP3   OH2  890   2.345   5.394   1.444  0.2764  0.5706 -0.3256
  295TIP3    H1  891   2.268   5.337   1.444  1.1375 -0.6440 -1.6069
  295TIP3    H2  892   2.313   5.477   1.481 -1.3405 -0.2776  0.2790
  296TIP3   OH2  893   5.264   3.700   3.804  0.2451  0.0878  0.0008
  296TIP3    H1  894   5.347   3.653   3.801 -0.2010 -0.7495  0.4156
  296TIP3    H2  895   5.288   3.790   3.826  0.9005 -0.5385  1.9775
  297TIP3   OH2  896   2.512   2.807   2.001 -0.0915 -0.2947 -0.3997
  297TIP3    H1  897   2.503   2.712   2.002  1.7151 -0.5295 -1.5379
  297TIP3    H2  898   2.606   2.822   2.002 -0.3082  1.4397 -1.5017
  298TIP3   OH2  899   2.016   2.392   0.369  0.7019  0.0512  0.6885
  298TIP3    H1  900   1.938   2.392   0.313  1.8031 -0.2678 -0.9353
  298TIP3    H2  901   2.002   2.321   0.431  0.2231 -0.7997 -0.3714
  299TIP3   OH2  902   1.235   2.504   1.679  0.2292 -0.4322 -0.1118
  299TIP3    H1  903   1.196   2.461   1.755 -0.9547 -1.2451 -1.1431
  299TIP3    H2  904   1.326   2.474   1.678  0.0286 -1.0771  0.4976
  300TIP3   OH2  905   4.904   3.660   0.491  0.4929  0.1550 -0.2212
  300TIP3    H1  906   4.922   3.753   0.508 -0.2182  0.3436 -0.4374
  300TIP3    H2  907   4.957   3.613   0.555 -0.5949  0.7874  1.2155
  301TIP3   OH2  908   2.288   5.337   3.970  0.1469  0.2914  0.2749
  301TIP3    H1  909   2.355   5.403   3.950  0.8590 -0.1551  1.1412
  301TIP3    H2  910   2.235   5.333   3.891 -1.0363  3.2106  0.8023
  302TIP3   OH2  911   5.436   2.969   1.552  0.0574 -0.0112 -0.3108
  302TIP3    H1  912   5.532   2.961   1.550  0.0725  0.1761 -0.3998
  302TIP3    H2  913   5.409   2.912   1.623  0.0979 -1.3561 -1.3343
  303TIP3   OH2  914   5.761   1.747   2.751 -0.2070 -0.6387  0.4647
  303TIP3    H1  915   5.700   1.681   2.718  0.6423 -0.3229 -2.0174
  303TIP3    H2  916   5.809   1.704   2.821 -1.1919 -1.8999  0.3874
  304TIP3   OH2  917   5.950   3.537   0.917  0.2689 -0.1198  0.2036
  304TIP3    H1  918   5.999   3.475   0.862  1.1420 -0.0109  0.8335
  304TIP3    H2  919   6.009   3.612   0.927 -1.1627  1.2879 -1.3762
  305TIP3   OH2  920   3.622   1.148   4.931  0.1808 -0.7264 -0.3505
  305TIP3    H1  921   3.703   1.186   4.896  0.9175 -2.3297 -0.4288
  305TIP3    H2  922   3.595   1.083   4.866 -0.4111 -1.1958  0.3418
  306TIP3   OH2  923   1.152   5.485   1.831 -0.3320  0.2192 -0.0036
  306TIP3    H1  924   1.101   5.513   1.755  1.2485 -1.6473 -1.8479
  306TIP3    H2  925   1.104   5.410   1.866  0.3137 -0.6071 -0.8398
  307TIP3   OH2  926   1.569   1.493   0.046  0.1940  0.0330 -0.7831
  307TIP3    H1  927   1.599   1.582   0.029  0.8125 -0.1467 -0.6548
  307TIP3    H2  928   1.648   1.445   0.070  0.1310 -0.9531 -2.4128
  308TIP3   OH2  929   6.053   1.370   2.481  0.4646  0.5773 -0.1206
  308TIP3    H1  930   6.015   1.390   2.567  0.6801 -0.3577  0.1953
  308TIP3    H2  931   6.082   1.279   2.487 -1.5519 -0.2715 -1.9132
  309TIP3   OH2  932   5.152   1.729   2.204 -0.1440  0.6378  0.1169
  309TIP3    H1  933   5.237   1.726   2.248 -0.4351  1.4253  0.7557
  309TIP3    H2  934   5.098   1.784   2.260 -1.3548 -0.5758  0.1870
  310TIP3   OH2  935   5.403   1.844   3.837 -0.5214  0.2505 -0.2259
  310TIP3    H1  936   5.489   1.833   3.878 -1.2378  2.3103  2.0231
  310TIP3    H2  937   5.346   1.782   3.883 -0.7176  0.5195 -0.1024
  311TIP3   OH2  938   4.830   3.984   2.349  0.0336 -0.0441  0.6022
  311TIP3    H1  939   4.825   3.935   2.267  3.1462  1.0243 -0.3810
  311TIP3    H2  940   4.882   3.929   2.407 -0.5298  0.0414  1.1953
  312TIP3   OH2  941   4.556   2.979   2.806 -0.5691 -0.0054  0.1381
  312TIP3    H1  942   4.560   2.914   2.736 -1.7983  1.6695 -1.5624
  312TIP3    H2  943   4.636   3.029   2.797 -0.6217  0.0682  0.0828
  313TIP3   OH2  944   2.003   3.814   3.294 -0.1175  0.2241 -0.1979
  313TIP3    H1  945   2.058   3.800   3.371 -0.6946  1.1227  0.3965
  313TIP3    H2  946   1.951   3.734   3.286 -1.0345  0.6516  1.1854
  314TIP3   OH2  947   1.696   2.604   2.334  0.0091 -0.3136  0.3628
  314TIP3    H1  948   1.785   2.571   2.325 -0.4519 -1.9190  1.2472
  314TIP3    H2  949   1.706   2.698   2.347  1.3666  0.0863 -2.8155
  315TIP3   OH2  950   0.861   3.251   1.976  0.2566  0.1338 -0.7057
  315TIP3    H1  951   0.866   3.191   1.902  1.0630 -1.3711  0.5307
  315TIP3    H2  952   0.901   3.204   2.048  0.9921  2.2013  0.2981
  316TIP3   OH2  953   3.694   4.765   3.696 -0.6820 -0.1008  0.2815
  316TIP3    H1  954   3.664   4.687   3.649 -0.3606 -1.4436  2.1872
  316TIP3    H2  955   3.652   4.759   3.781 -1.5176  2.4456  0.1115
  317TIP3   OH2  956   0.166   1.504   4.770  0.1418 -0.1184  0.9118
  317TIP3    H1  957   0.111   1.432   4.737 -1.6700  1.1212  1.0659
  317TIP3    H2  958   0.144   1.578   4.714  2.8402  0.0915  0.0235
  318TIP3   OH2  959   5.177   3.915   4.727 -0.2739 -0.1989 -0.2926
  318TIP3    H1  960   5.083   3.914   4.747 -0.1640 -1.3547  0.2371
  318TIP3    H2  961   5.218   3.880   4.806  0.8086  2.3916  0.3977
  319TIP3   OH2  962   1.041   2.121   3.648 -0.5554 -0.5675  0.0546
  319TIP3    H1  963   1.018   2.212   3.664  0.4631 -0.2109 -0.3815
  319TIP3    H2  964   1.065   2.086   3.734 -1.0794 -0.4631  0.2418
  320TIP3   OH2  965   0.439   4.378   0.955 -0.1003  0.8066 -0.8022
  320TIP3    H1  966   0.392   4.348   1.032 -0.7917  0.8520 -1.2037
  320TIP3    H2  967   0.443   4.301   0.898 -0.5510  1.0668 -1.1884
  321TIP3   OH2  968   4.749   5.461   3.979 -0.0048 -0.4882 -0.3050
  321TIP3    H1  969   4.718   5.371   3.969 -2.2576  0.1650  0.1765
  321TIP3    H2  970   4.725   5.484   4.069 -1.5535  1.2840 -1.1185
  322TIP3   OH2  971   3.896   0.684   0.575  0.4858 -0.4089  0.2515
  322TIP3    H1  972   3.949   0.751   0.617  1.0916 -0.0396 -1.0441
  322TIP3    H2  973   3.934   0.601   0.604  1.9619 -0.1450 -0.8562
  323TIP3   OH2  974   3.761   4.966   4.211 -0.1729 -0.0230  0.0884
  323TIP3    H1  975   3.755   4.928   4.299 -0.2093 -0.5071 -0.1210
  323TIP3    H2  976   3.673   5.002   4.194 -0.1667  0.0678  0.2458
  324TIP3   OH2  977   3.750   3.979   4.915  0.0149 -0.1598 -0.3765
  324TIP3    H1  978   3.661   3.985   4.949 -0.2786  0.1082 -1.1925
  324TIP3    H2  979   3.791   4.061   4.942 -0.5377  0.5220 -1.5716
  325TIP3   OH2  980   5.747   1.932   1.970 -0.3683  0.2945 -0.1676
  325TIP3    H1  981   5.666   1.980   1.952 -0.7039 -0.3375 -0.3439
  325TIP3    H2  982   5.719   1.844   1.993  0.1507  0.5719  1.7249
  326TIP3   OH2  983   0.590   2.786   0.978  0.2443 -0.2619  0.1056
  326TIP3    H1  984   0.674   2.814   0.941  0.2747 -1.1837 -0.5622
  326TIP3    H2  985   0.527   2.801   0.907  0.0267 -0.5390  0.2386
  327TIP3   OH2  986   5.817   2.190   2.627 -0.0827 -0.2372 -0.3457
  327TIP3    H1  987   5.853   2.221   2.544 -1.7844  0.9255 -0.6960
  327TIP3    H2  988   5.822   2.266   2.685 -2.5386  0.2090 -0.6292
  328TIP3   OH2  989   0.209   5.140   2.488  0.1717  0.2086 -0.0441
  328TIP3    H1  990   0.139   5.190   2.529 -0.3438 -0.6616  0.1375
  328TIP3    H2  991   0.285   5.198   2.493 -0.2085  0.6434  0.9284
  329TIP3   OH2  992   6.112   4.552   5.138  0.1573 -0.2440  0.2611
  329TIP3    H1  993   6.041   4.533   5.077 -1.5002  4.0106  0.5755
  329TIP3    H2  994   6.187   4.575   5.082 -1.0363  2.5872 -0.3035
  330TIP3   OH2  995   4.336   3.518   2.862 -0.0326  0.3658  0.1946
  330TIP3    H1  996   4.285   3.598   2.850  0.5985  1.0314  1.7243
  330TIP3    H2  997   4.328   3.471   2.779 -1.9286  1.1334 -0.0892
  331TIP3   OH2  998   4.280   4.855   3.745  0.0878 -0.3224 -0.2943
  331TIP3    H1  999   4.360   4.826   3.700 -0.4171 -1.3518 -0.5523
  331TIP3    H2 1000   4.274   4.948   3.724  1.4253 -0.1230  0.0518
  332TIP3   OH2 1001   0.238   3.966   1.095 -0.2712  0.4599 -0.2565
  332TIP3    H1 1002   0.274   4.045   1.136  2.5686 -2.0148  2.5386
  332TIP3    H2 1003   0.310   3.930   1.043 -1.2302 -0.7436 -0.8125
  333TIP3   OH2 1004   4.195   2.065   1.665  0.0356 -0.1859 -0.0805
  333TIP3    H1 1005   4.209   1.990   1.724 -1.4927 -0.6121 -0.2200
  333TIP3    H2 1006   4.191   2.140   1.723 -1.7327 -0.6360  0.4503
  334TIP3   OH2 1007   4.049   0.448   2.204  0.2228 -0.1956  0.7547
  334TIP3    H1 1008   4.058   0.374   2.263 -2.4551 -1.9837 -0.8880
  334TIP3    H2 1009   4.077   0.415   2.119 -0.2322  0.9191  0.1488
  335TIP3   OH2 1010   4.270   4.649   2.012 -0.1021  0.2999  0.1596
  335TIP3    H1 1011   4.332   4.683   1.948 -1.2812 -0.1860 -1.2977
  335TIP3    H2 1012   4.186   4.687   1.987 -0.8695 -1.1375  0.4411
  336TIP3   OH2 1013   3.179   4.185   3.136  0.3383  0.2557  0.3678
  336TIP3    H1 1014   3.214   4.129   3.067  0.0560  1.9971 -1.2715
  336TIP3    H2 1015   3.153   4.124   3.205  0.5479 -1.5702 -1.0780
  337TIP3   OH2 1016   2.370   1.551   5.077  0.2070  0.1582 -0.0790
  337TIP3    H1 1017   2.417   1.552   4.993  0.3244  0.3388 -0.0102
  337TIP3    H2 1018   2.432   1.512   5.139 -0.7778 -2.4782 -0.6109
  338TIP3   OH2 1019   6.190   5.543   1.907 -0.8432  0.1577 -0.1312
  338TIP3    H1 1020   6.132   5.550   1.831  0.6578 -2.0910 -1.6378
  338TIP3    H2 1021   6.182   5.452   1.935 -0.0022  0.4806  1.2532
  339TIP3   OH2 1022   5.089   2.807   1.115  0.4395 -0.0497 -0.0530
  339TIP3    H1 1023   5.047   2.721   1.122  0.3445 -0.2317 -2.3151
  339TIP3    H2 1024   5.121   2.811   1.025  1.7689  1.7035  0.4404
  340TIP3   OH2 1025   2.305   2.403   3.265  0.0235 -0.0057 -0.3045
  340TIP3    H1 1026   2.258   2.328   3.301  0.6337 -1.1051 -1.7609
  340TIP3    H2 1027   2.370   2.366   3.206  0.5919  1.6503 -0.7797
  341TIP3   OH2 1028   3.344   3.833   4.669  0.3731 -0.1515  1.1010
  341TIP3    H1 1029   3.283   3.789   4.609  0.1096  0.5263  0.8601
  341TIP3    H2 1030   3.363   3.917   4.626  0.0510  0.4147  2.0412
  342TIP3   OH2 1031   1.647   1.090   2.202 -0.0496  0.4167 -0.4259
  342TIP3    H1 1032   1.687   1.003   2.205 -1.7751 -0.3979  0.4649
  342TIP3    H2 1033   1.710   1.144   2.155  1.7827 -0.9250  0.3839
  343TIP3   OH2 1034   5.149   2.769   0.846  0.0634 -0.0064 -0.0975
  343TIP3    H1 1035   5.067   2.720   0.836  0.4615 -0.2291 -3.2709
  343TIP3    H2 1036   5.176   2.789   0.756  2.8048  1.2544  0.9044
  344TIP3   OH2 1037   3.705   0.109   1.866  0.2344 -0.5909  0.2609
  344TIP3    H1 1038   3.674   0.024   1.897  2.3180 -1.3452  0.4216
  344TIP3    H2 1039   3.741   0.093   1.779 -0.3325  0.3524 -0.1639
  345TIP3   OH2 1040   4.465   2.551   4.908 -0.4168  0.2042 -0.4264
  345TIP3    H1 1041   4.409   2.627   4.923 -1.1054 -0.1743 -0.9761
  345TIP3    H2 1042   4.414   2.477   4.942  0.5074  0.0481  0.6804
  346TIP3   OH2 1043   3.587   4.709   1.748  0.4632  0.7696 -0.1631
  346TIP3    H1 1044   3.627   4.696   1.662  2.8023  3.5178  0.3491
  346TIP3    H2 1045   3.503   4.750   1.728 -0.0672 -0.7226 -1.1643
  347TIP3   OH2 1046   1.960   0.371   2.760 -0.4402 -0.1393  0.5280
  347TIP3    H1 1047   1.867   0.365   2.782 -0.3341 -0.2565  0.9556
  347TIP3    H2 1048   1.983   0.462   2.779 -0.5854  0.0310 -0.0737
  348TIP3   OH2 1049   1.441   1.392   2.935  0.0347 -0.2016  0.1609
  348TIP3    H1 1050   1.398   1.360   3.015  2.4505  0.6473  1.9199
  348TIP3    H2 1051   1.455   1.314   2.882 -0.8097 -0.9236  0.9673
  349TIP3   OH2 1052   0.913   4.953   2.830  0.3751 -0.2252  0.0034
  349TIP3    H1 1053   0.892   5.020   2.765  1.3075 -1.0268 -1.1816
  349TIP3    H2 1054   0.854   4.880   2.810  0.1781 -0.2028  0.5099
  350TIP3   OH2 1055   1.170   4.853   1.465 -0.1261 -0.0871  0.2208
  350TIP3    H1 1056   1.112   4.877   1.393 -0.8604  0.0242  0.8394
  350TIP3    H2 1057   1.198   4.764   1.445  1.1517  0.5690 -1.1408
  351TIP3   OH2 1058   2.108   3.837   2.805  0.2339  0.2228 -0.4454
  351TIP3    H1 1059   2.050   3.854   2.731  0.9231 -1.4665 -1.4010
  351TIP3    H2 1060   2.167   3.768   2.775  0.8093 -0.2033  1.5298
  352TIP3   OH2 1061   3.509   5.644   2.051  0.1059  0.3234  0.2717
  352TIP3    H1 1062   3.489   5.708   2.119 -1.3768  0.1568  0.0223
  352TIP3    H2 1063   3.500   5.692   1.969 -1.7282 -0.3255  0.0447
  353TIP3   OH2 1064   2.455   3.390   4.721 -0.0201  0.3613  0.4886
  353TIP3    H1 1065   2.511   3.333   4.667  0.2070 -0.0369  1.1252
  353TIP3    H2 1066   2.482   3.371   4.811 -0.7945  0.5844  0.7756
  354TIP3   OH2 1067   2.913   4.770   1.806 -0.2523  0.2929 -0.6425
  354TIP3    H1 1068   2.892   4.717   1.883  0.7308  2.0777  0.9688
  354TIP3    H2 1069   2.891   4.715   1.731  2.5192 -3.2241  0.8228
  355TIP3   OH2 1070   2.378   4.574   3.843 -0.1108 -0.2994  0.7284
  355TIP3    H1 1071   2.377   4.631   3.920  1.9736 -0.9602  1.2938
  355TIP3    H2 1072   2.470   4.571   3.817 -0.4864 -1.7606 -0.5339
  356TIP3   OH2 1073   0.577   2.260   1.467 -0.0770  0.3719 -0.0910
  356TIP3    H1 1074   0.533   2.178   1.490 -0.0342  0.5393  0.6108
  356TIP3    H2 1075   0.535   2.327   1.521 -0.7908  1.0015 -1.3573
  357TIP3   OH2 1076   4.184   3.804   3.372  0.2658  0.4299  0.0081
  357TIP3    H1 1077   4.259   3.770   3.420  0.4499  0.1326 -0.4804
  357TIP3    H2 1078   4.220   3.830   3.287 -0.3620 -0.7255 -0.6464
  358TIP3   OH2 1079   3.397   2.472   1.553  0.4605  0.0789  0.2351
  358TIP3    H1 1080   3.332   2.494   1.486 -1.1253 -2.1471  0.9239
  358TIP3    H2 1081   3.346   2.462   1.634  1.7536 -1.0041  0.9722
  359TIP3   OH2 1082   4.559   3.086   4.259  0.3874  0.7117 -0.0045
  359TIP3    H1 1083   4.548   3.083   4.354 -0.8483 -0.6019 -0.1369
  359TIP3    H2 1084   4.469   3.092   4.226  0.8724  3.8028 -1.0978
  360TIP3   OH2 1085   2.249   1.437   2.303  0.4818  0.1528 -0.2537
  360TIP3    H1 1086   2.209   1.385   2.372 -0.5727 -0.7660 -1.4999
  360TIP3    H2 1087   2.179   1.450   2.239  2.0584 -1.4453 -2.4733
  361TIP3   OH2 1088   0.590   0.639   3.110  0.0005 -0.4062 -0.0871
  361TIP3    H1 1089   0.645   0.670   3.038 -1.2990 -0.1832 -1.0173
  361TIP3    H2 1090   0.526   0.582   3.069 -0.1640 -1.0830  1.0489
  362TIP3   OH2 1091   3.157   5.055   1.411 -0.1233 -0.3627 -0.5617
  362TIP3    H1 1092   3.105   5.001   1.471 -1.2033  0.2156 -0.9554
  362TIP3    H2 1093   3.225   5.093   1.467  0.5614 -1.9645 -0.2473
  363TIP3   OH2 1094   0.106   1.946   0.571  0.2600  0.2383  0.6292
  363TIP3    H1 1095   0.153   1.986   0.644  0.8958 -0.2867  0.5207
  363TIP3    H2 1096   0.016   1.977   0.581 -0.0414 -1.0679  2.5673
  364TIP3   OH2 1097   5.089   1.448   4.456 -0.0452 -0.5611  0.5625
  364TIP3    H1 1098   5.161   1.389   4.475  0.5771  0.2548  0.7868
  364TIP3    H2 1099   5.020   1.424   4.518  0.1020 -1.2024  0.4829
  365TIP3   OH2 1100   6.033   1.156   1.794  0.3259 -0.3742 -0.4160
  365TIP3    H1 1101   5.953   1.201   1.763  0.7854  1.4606  0.8854
  365TIP3    H2 1102   6.080   1.223   1.843  2.6199 -1.4587 -1.0022
  366TIP3   OH2 1103   5.682   4.119   4.032  0.1102  0.1483 -0.1179
  366TIP3    H1 1104   5.723   4.096   4.115 -0.0226  0.3741  0.0097
  366TIP3    H2 1105   5.737   4.077   3.966 -0.7783 -1.5339  0.1489
  367TIP3   OH2 1106   1.232   3.360   0.067 -0.2146 -0.2349 -0.6324
  367TIP3    H1 1107   1.222   3.430   0.131  0.0714  0.5202 -1.3871
  367TIP3    H2 1108   1.326   3.358   0.048 -0.6107  2.0304 -3.6358
  368TIP3   OH2 1109   2.464   2.189   5.150  0.0361  0.2076  0.1997
  368TIP3    H1 1110   2.423   2.120   5.098 -0.6562  1.6451 -1.2631
  368TIP3    H2 1111   2.486   2.147   5.233  1.4264 -2.2818 -1.2894
  369TIP3   OH2 1112   3.817   3.821   2.962 -0.1193  0.2461 -0.3764
  369TIP3    H1 1113   3.733   3.815   3.008  0.1859  0.7976  0.2665
  369TIP3    H2 1114   3.857   3.735   2.974  0.0854  0.4745  0.6505
  370TIP3   OH2 1115   4.837   3.155   1.092 -0.2721 -0.3851  0.0476
  370TIP3    H1 1116   4.785   3.185   1.017  0.4194  1.2103  0.1681
  370TIP3    H2 1117   4.921   3.129   1.055 -0.6160 -1.5284  0.0396
  371TIP3   OH2 1118   3.513   3.700   0.667 -0.2735  0.3407 -0.1753
  371TIP3    H1 1119   3.501   3.685   0.761 -0.1630  1.5883  0.0566
  371TIP3    H2 1120   3.434   3.664   0.627 -0.4439  0.0388  0.4170
  372TIP3   OH2 1121   2.175   4.300   1.648  0.0637 -0.6904 -0.2465
  372TIP3    H1 1122   2.227   4.380   1.641 -1.5420  0.3081 -2.0945
  372TIP3    H2 1123   2.237   4.229   1.633  1.5202  0.1657  1.3942
  373TIP3   OH2 1124   5.637   2.051   3.566  0.0922 -0.1807  0.3943
  373TIP3    H1 1125   5.716   2.051   3.620  0.3647 -0.5555  0.0105
  373TIP3    H2 1126   5.611   2.143   3.562  1.2368  0.1331 -0.4911
  374TIP3   OH2 1127   6.051   1.482   1.287 -0.8006 -0.2445 -0.1439
  374TIP3    H1 1128   5.969   1.528   1.308 -0.8612 -0.2583 -0.3552
  374TIP3    H2 1129   6.101   1.546   1.237 -0.6921 -0.2462 -0.0379
  375TIP3   OH2 1130   1.719   4.326   0.579  0.2653  0.2940 -0.6859
  375TIP3    H1 1131   1.694   4.371   0.660  1.7731  0.5151 -0.3069
  375TIP3    H2 1132   1.681   4.380   0.510 -1.2218 -0.0097 -0.1455
  376TIP3   OH2 1133   0.630   3.689   5.086 -0.4960 -0.0411  0.1620
  376TIP3    H1 1134   0.638   3.647   5.172 -0.5741  1.9960  1.2215
  376TIP3    H2 1135   0.697   3.647   5.033 -1.4919 -2.4841  0.6802
  377TIP3   OH2 1136   0.923   0.862   2.184 -0.0875 -0.2710  0.0156
  377TIP3    H1 1137   0.924   0.860   2.089  2.9290 -1.8083 -0.0620
  377TIP3    H2 1138   0.879   0.781   2.210  1.9937 -1.5606 -0.2372
  378TIP3   OH2 1139   1.246   5.040   3.407 -0.1547  0.6684 -0.7751
  378TIP3    H1 1140   1.242   5.133   3.431 -1.5073  0.5732 -0.5621
  378TIP3    H2 1141   1.331   5.030   3.364  0.1286  1.9442 -0.5445
  379TIP3   OH2 1142   4.428   0.345   0.659 -0.4626 -0.2441 -0.0409
  379TIP3    H1 1143   4.398   0.395   0.735 -0.1479 -0.4595  0.2297
  379TIP3    H2 1144   4.387   0.388   0.584 -0.3060  0.3300  0.1999
  380TIP3   OH2 1145   0.671   4.062   4.775 -0.4877 -0.1905  0.2845
  380TIP3    H1 1146   0.648   4.040   4.865 -0.9130  1.0927  0.5104
  380TIP3    H2 1147   0.688   4.157   4.777  3.3979 -0.6920 -0.1452
  381TIP3   OH2 1148   0.280   1.429   0.370 -0.3542  1.0061 -0.0100
  381TIP3    H1 1149   0.370   1.400   0.385 -0.2812  1.1525 -0.1646
  381TIP3    H2 1150   0.238   1.423   0.457  0.0363  1.7410  0.2340
  382TIP3   OH2 1151   0.300   3.933   4.908 -0.4412  0.1312 -0.1488
  382TIP3    H1 1152   0.208   3.940   4.933 -0.3684 -2.6976  1.3641
  382TIP3    H2 1153   0.334   3.861   4.962  2.9756  1.7814  0.2111
  383TIP3   OH2 1154   5.209   3.267   3.312  0.0791  0.6221  0.5388
  383TIP3    H1 1155   5.167   3.258   3.398 -2.5912 -1.4971 -0.7976
  383TIP3    H2 1156   5.204   3.179   3.275  0.4568  1.6187 -2.0703
  384TIP3   OH2 1157   2.074   1.386   1.378  0.0081  0.4933  0.0238
  384TIP3    H1 1158   2.068   1.383   1.474  1.6652  1.5793  0.1896
  384TIP3    H2 1159   2.030   1.467   1.354  0.3718  0.6652 -0.0603
  385TIP3   OH2 1160   1.319   4.651   3.906 -0.1688 -0.2533 -0.5325
  385TIP3    H1 1161   1.283   4.709   3.973  0.5905 -0.1870 -0.1699
  385TIP3    H2 1162   1.305   4.562   3.940 -0.9128 -0.2726 -0.8736
  386TIP3   OH2 1163   3.815   2.749   2.178  0.2480 -0.6207  0.3007
  386TIP3    H1 1164   3.836   2.687   2.108  0.8432 -0.0424 -0.0383
  386TIP3    H2 1165   3.898   2.792   2.198 -0.3273  0.7255 -0.1157
  387TIP3   OH2 1166   4.881   1.224   0.319  0.2697 -0.0006  0.5038
  387TIP3    H1 1167   4.814   1.202   0.254 -1.4366 -0.1002  2.2138
  387TIP3    H2 1168   4.938   1.148   0.322  0.5407  0.1020 -1.0208
  388TIP3   OH2 1169   4.494   2.534   1.305  0.1754 -0.2895  0.5516
  388TIP3    H1 1170   4.569   2.561   1.252  1.0692 -0.3318  1.7531
  388TIP3    H2 1171   4.432   2.607   1.298  0.4966 -0.0715 -0.1190
  389TIP3   OH2 1172   5.575   5.314   1.817 -0.0503  0.0704  0.2207
  389TIP3    H1 1173   5.627   5.364   1.880  1.9210 -1.6237  0.0287
  389TIP3    H2 1174   5.505   5.374   1.791  0.5668  1.6962  2.0943
  390TIP3   OH2 1175   4.436   0.845   1.318  0.2457 -0.7299  0.1622
  390TIP3    H1 1176   4.350   0.877   1.292  0.1327 -1.1689 -0.0231
  390TIP3    H2 1177   4.431   0.750   1.304 -0.4789 -1.3013  3.6104
  391TIP3   OH2 1178   3.601   2.490   2.135  0.1975 -0.0471  0.0212
  391TIP3    H1 1179   3.596   2.444   2.219 -2.6631  1.3021  0.7328
  391TIP3    H2 1180   3.694   2.506   2.122  0.7616 -0.4705  2.8675
  392TIP3   OH2 1181   4.100   5.482   1.224 -0.0712 -0.5396 -0.3152
  392TIP3    H1 1182   4.154   5.512   1.151  0.2097 -2.4190 -0.9287
  392TIP3    H2 1183   4.156   5.423   1.274 -1.2381 -1.8142 -0.4424
  393TIP3   OH2 1184   0.964   5.615   4.289  0.3346 -0.5722 -0.1017
  393TIP3    H1 1185   1.023   5.690   4.288 -0.0733 -0.2007  1.1292
  393TIP3    H2 1186   0.882   5.648   4.253  0.6060 -0.8541 -0.9986
  394TIP3   OH2 1187   3.496   0.412   2.541 -0.0461  0.1502  0.5407
  394TIP3    H1 1188   3.434   0.477   2.509  0.7143 -0.3772 -2.2604
  394TIP3    H2 1189   3.546   0.385   2.463  2.0093 -1.2543  2.2158
  395TIP3   OH2 1190   3.829   3.548   0.453  0.0382 -0.2791 -0.4044
  395TIP3    H1 1191   3.733   3.547   0.446 -0.0272  0.4530  0.1804
  395TIP3    H2 1192   3.846   3.506   0.537  0.2403 -0.5710 -0.5930
  396TIP3   OH2 1193   5.987   5.952   1.280 -0.1168  0.3788 -0.1071
  396TIP3    H1 1194   6.021   5.909   1.202  0.3769  0.4677  0.0518
  396TIP3    H2 1195   5.900   5.916   1.292 -0.0432  0.0764 -0.4761
  397TIP3   OH2 1196   3.039   1.861   1.371 -0.3587 -0.7814 -0.3480
  397TIP3    H1 1197   2.996   1.911   1.440  0.6361  0.2038 -0.4102
  397TIP3    H2 1198   3.054   1.774   1.409  0.4266 -0.1739  0.7907
  398TIP3   OH2 1199   1.898   5.848   1.116  0.0955  0.2477 -0.0986
  398TIP3    H1 1200   1.903   5.763   1.161  1.5973  1.0352  1.3394
  398TIP3    H2 1201   1.976   5.850   1.060 -0.3434  0.3907 -0.7234
  399TIP3   OH2 1202   1.730   0.837   4.850 -0.1436 -0.5763 -0.2192
  399TIP3    H1 1203   1.805   0.826   4.908  0.2452  0.3778 -0.5330
  399TIP3    H2 1204   1.668   0.770   4.878 -0.5046  0.6570  2.1643
  400TIP3   OH2 1205   3.961   2.230   4.523  0.0175  0.0428 -0.4862
  400TIP3    H1 1206   3.954   2.309   4.471  0.8417  0.8555  0.5975
  400TIP3    H2 1207   4.055   2.210   4.524  0.1695  0.6624  1.5308
  401TIP3   OH2 1208   5.196   2.030   2.914  0.8363  0.0460  0.0006
  401TIP3    H1 1209   5.124   2.087   2.885  0.6545 -0.5956 -0.8491
  401TIP3    H2 1210   5.264   2.091   2.943 -0.7525  0.6798  2.7857
  402TIP3   OH2 1211   1.562   1.976   2.542 -0.1684  0.3507 -0.0041
  402TIP3    H1 1212   1.468   1.993   2.537 -0.2117  0.8060  1.6968
  402TIP3    H2 1213   1.571   1.918   2.618  0.8318 -0.6028 -0.8180
  403TIP3   OH2 1214   4.411   5.261   3.361 -0.1934  0.0870 -0.3529
  403TIP3    H1 1215   4.339   5.277   3.422  0.6351  0.7354  0.4768
  403TIP3    H2 1216   4.380   5.188   3.306 -1.4412  0.3003  0.0315
  404TIP3   OH2 1217   0.993   0.196   2.662  0.0096  0.3428 -0.0310
  404TIP3    H1 1218   0.919   0.255   2.675 -0.5749 -0.7385  2.2011
  404TIP3    H2 1219   1.062   0.232   2.717 -0.1157 -0.6029  0.7789
  405TIP3   OH2 1220   5.830   3.989   2.060  0.1813 -0.2200 -0.0974
  405TIP3    H1 1221   5.884   3.912   2.043 -0.5855 -0.4651 -1.6399
  405TIP3    H2 1222   5.784   3.968   2.142 -0.7898 -1.8837 -1.0054
  406TIP3   OH2 1223   4.846   5.834   3.473 -0.0457  0.5468 -0.5589
  406TIP3    H1 1224   4.838   5.900   3.542  0.4972  1.1507 -1.0547
  406TIP3    H2 1225   4.859   5.885   3.393  0.0318 -0.1591 -1.0023
  407TIP3   OH2 1226   1.703   1.105   4.700  0.1279  0.1442  0.3011
  407TIP3    H1 1227   1.617   1.092   4.660  1.2420 -0.2470 -2.1660
  407TIP3    H2 1228   1.715   1.028   4.755 -0.5543 -0.4756 -0.3848
  408TIP3   OH2 1229   3.815   5.586   1.215  0.3599  1.2286 -0.0624
  408TIP3    H1 1230   3.807   5.614   1.307 -0.7970 -0.7821  0.5190
  408TIP3    H2 1231   3.908   5.565   1.204  0.7034  2.4592  0.3172
  409TIP3   OH2 1232   0.460   0.533   1.105 -0.3035  0.3094 -0.1361
  409TIP3    H1 1233   0.383   0.571   1.147 -0.3652 -2.7761  3.0294
  409TIP3    H2 1234   0.534   0.567   1.156  0.1835  0.7675 -1.1229
  410TIP3   OH2 1235   1.607   3.081   2.107  0.2291 -0.1694 -0.1122
  410TIP3    H1 1236   1.540   3.135   2.065  1.2394  0.5686 -0.8086
  410TIP3    H2 1237   1.623   3.009   2.045 -0.4744 -0.7944  0.4135
  411TIP3   OH2 1238   1.655   2.407   1.954 -0.0198 -0.4195 -0.5686
  411TIP3    H1 1239   1.603   2.484   1.932  0.0500 -0.2567 -0.1687
  411TIP3    H2 1240   1.597   2.354   2.008  0.3015 -0.1318  0.0691
  412TIP3   OH2 1241   2.982   2.957   2.490  0.1002 -0.1247 -0.2660
  412TIP3    H1 1242   2.896   2.999   2.502  0.6315  0.7359  0.5835
  412TIP3    H2 1243   3.045   3.021   2.522  1.0243 -1.0720 -0.1474
  413TIP3   OH2 1244   0.053   2.424   4.400 -0.3955  1.1422  0.1087
  413TIP3    H1 1245   0.037   2.517   4.386  0.1164  1.1329 -0.6062
  413TIP3    H2 1246  -0.014   2.380   4.349 -0.8316  1.1128  0.6965
  414TIP3   OH2 1247   5.026   0.786   0.516 -0.1798 -0.0676 -0.1154
  414TIP3    H1 1248   4.947   0.809   0.565 -1.5998 -0.6783 -1.9823
  414TIP3    H2 1249   5.053   0.867   0.474 -0.3443 -0.0486 -0.1848
  415TIP3   OH2 1250   0.713   3.477   3.403  0.3383 -0.2533  0.0089
  415TIP3    H1 1251   0.698   3.493   3.497  0.1711  1.0403 -0.2173
  415TIP3    H2 1252   0.672   3.392   3.387 -1.5098  0.4458  0.6820
  416TIP3   OH2 1253   3.525   2.379   0.456 -0.2824  0.3924  0.1287
  416TIP3    H1 1254   3.612   2.359   0.491  0.2311  1.5017 -0.4550
  416TIP3    H2 1255   3.495   2.296   0.420  0.9819  0.2165 -0.5911
  417TIP3   OH2 1256   4.026   0.814   3.159 -0.6180  0.0373 -0.2565
  417TIP3    H1 1257   4.002   0.726   3.129  0.9355 -0.7752  0.7291
  417TIP3    H2 1258   4.017   0.810   3.254 -0.2601  0.8700 -0.1809
  418TIP3   OH2 1259   5.965   0.504   5.169  0.0534  0.2055  0.2976
  418TIP3    H1 1260   6.006   0.519   5.254  0.0528 -0.8841  0.5020
  418TIP3    H2 1261   6.010   0.565   5.110  1.2387 -0.2032  0.7394
  419TIP3   OH2 1262   6.147   4.606   3.457 -0.1222  0.3824  0.0760
  419TIP3    H1 1263   6.111   4.518   3.470 -0.2959  0.6747  1.8058
  419TIP3    H2 1264   6.071   4.660   3.437  0.0681  0.0456 -1.7057
  420TIP3   OH2 1265   0.198   3.321   3.823  0.2834  0.1589 -0.4053
  420TIP3    H1 1266   0.211   3.384   3.752 -0.0700  0.9971  0.2610
  420TIP3    H2 1267   0.106   3.294   3.814  0.1896  0.3912 -0.1825
  421TIP3   OH2 1268   1.404   4.340   2.737  0.5707  0.2103 -0.0233
  421TIP3    H1 1269   1.399   4.408   2.804  0.1898  1.2827 -1.1055
  421TIP3    H2 1270   1.426   4.261   2.785  0.4661  0.9812  1.3473
  422TIP3   OH2 1271   2.748   5.416   0.842  0.2219 -0.1175  0.0112
  422TIP3    H1 1272   2.833   5.383   0.816  0.2888  0.3559 -0.3887
  422TIP3    H2 1273   2.705   5.440   0.760 -0.3075 -0.3728  0.2072
  423TIP3   OH2 1274   2.530   4.262   2.185  0.8321 -0.3054  0.3598
  423TIP3    H1 1275   2.505   4.340   2.235 -0.8346  1.6586 -3.0872
  423TIP3    H2 1276   2.484   4.190   2.227  0.5677  0.9479  2.3366
  424TIP3   OH2 1277   5.888   5.896   3.299 -0.7481  0.0988  0.1197
  424TIP3    H1 1278   5.799   5.873   3.271 -1.3336  0.1409  1.8675
  424TIP3    H2 1279   5.943   5.867   3.226 -2.0096 -1.6968 -0.1900
  425TIP3   OH2 1280   4.852   1.250   3.250 -0.1440  0.0579 -0.1724
  425TIP3    H1 1281   4.902   1.309   3.307  0.9972 -0.6959 -0.3590
  425TIP3    H2 1282   4.900   1.250   3.167 -0.9773  0.0225 -0.6654
  426TIP3   OH2 1283   3.241   5.722   4.436 -0.0843  0.0994 -0.3046
  426TIP3    H1 1284   3.166   5.664   4.432  0.8358 -1.0884 -0.7795
  426TIP3    H2 1285   3.290   5.705   4.355  0.8636  0.6068  0.1401
  427TIP3   OH2 1286   5.479   5.860   1.875 -0.0924  0.0447 -0.1050
  427TIP3    H1 1287   5.508   5.863   1.966 -2.1360  0.0247  0.5993
  427TIP3    H2 1288   5.482   5.951   1.846 -0.4873  0.2074  0.3499
  428TIP3   OH2 1289   0.412   5.640   2.887 -0.0617 -0.0973  0.1108
  428TIP3    H1 1290   0.376   5.567   2.939 -1.2482  0.1339 -0.3399
  428TIP3    H2 1291   0.487   5.671   2.937 -0.7899 -0.2935  1.3699
  429TIP3   OH2 1292   5.349   0.384   0.294  0.1851  0.3061 -0.5864
  429TIP3    H1 1293   5.291   0.456   0.317  0.0767  0.3197 -0.8936
  429TIP3    H2 1294   5.344   0.324   0.368  0.3136  0.6360 -0.3100
  430TIP3   OH2 1295   0.283   1.102   2.953 -0.0251  0.6132 -0.0005
  430TIP3    H1 1296   0.204   1.051   2.933 -1.4872  2.4588  0.7723
  430TIP3    H2 1297   0.293   1.161   2.878  2.4545 -1.5456 -1.5656
  431TIP3   OH2 1298   2.150   4.410   4.320  0.2700 -0.0892 -0.3792
  431TIP3    H1 1299   2.068   4.420   4.272  0.3822 -0.0192 -0.5581
  431TIP3    H2 1300   2.139   4.465   4.398  0.2489  0.1245 -0.5335
  432TIP3   OH2 1301   3.769   1.607   3.195  0.3631 -0.1012 -0.1617
  432TIP3    H1 1302   3.789   1.567   3.110 -2.2859  0.7838 -1.3431
  432TIP3    H2 1303   3.804   1.696   3.188  0.3523 -0.1023 -0.2282
  433TIP3   OH2 1304   2.135   2.488   0.716  0.2903 -0.1380 -0.2137
  433TIP3    H1 1305   2.130   2.583   0.720  0.0155 -0.1865  0.9204
  433TIP3    H2 1306   2.046   2.458   0.736  0.3945 -0.6362 -0.4798
  434TIP3   OH2 1307   0.708   1.438   2.765  0.2934  0.7103 -0.3743
  434TIP3    H1 1308   0.782   1.432   2.704 -1.0021  0.8108 -2.0126
  434TIP3    H2 1309   0.638   1.479   2.715 -0.5263  1.7690  1.5177
  435TIP3   OH2 1310   0.174   2.174   1.320  0.6463  0.3892  0.7402
  435TIP3    H1 1311   0.142   2.195   1.408  1.9229 -0.4023  1.4207
  435TIP3    H2 1312   0.097   2.143   1.273 -0.0883  0.9956  1.5088
  436TIP3   OH2 1313   6.305   5.000   3.392 -0.0566  0.2503  0.5081
  436TIP3    H1 1314   6.261   4.983   3.309 -1.6989 -1.4915  1.6402
  436TIP3    H2 1315   6.264   5.080   3.425  1.1988  1.4335 -0.6852
  437TIP3   OH2 1316   1.388   1.320   0.810 -0.4372 -0.2554 -0.2266
  437TIP3    H1 1317   1.368   1.227   0.802 -0.2848 -0.4211  1.1512
  437TIP3    H2 1318   1.401   1.334   0.904 -0.2154  1.1059 -0.4423
  438TIP3   OH2 1319   6.318   4.536   2.918  0.1653 -0.0844  0.4145
  438TIP3    H1 1320   6.289   4.594   2.988 -1.5038  1.0138 -1.0795
  438TIP3    H2 1321   6.351   4.595   2.850  1.5088 -1.1022  0.1561
  439TIP3   OH2 1322   1.501   3.827   1.461  0.5406  0.7060 -0.4682
  439TIP3    H1 1323   1.553   3.769   1.517  0.2263  0.9133  0.0437
  439TIP3    H2 1324   1.450   3.767   1.406  1.7144  0.4894 -1.3765
  440TIP3   OH2 1325   6.075   4.589   2.708  0.2443  1.0269  0.6401
  440TIP3    H1 1326   6.065   4.508   2.658 -0.8408  2.5116 -1.7513
  440TIP3    H2 1327   6.053   4.564   2.798  0.7770 -1.4686  0.1658
  441TIP3   OH2 1328   2.143   3.793   3.525 -0.0881 -0.2688 -0.2294
  441TIP3    H1 1329   2.106   3.779   3.612  2.1748 -1.2951  0.6177
  441TIP3    H2 1330   2.228   3.749   3.526 -0.2377 -0.8774 -3.1729
  442TIP3   OH2 1331   0.941   2.450   0.093 -0.0315 -0.4118 -0.0237
  442TIP3    H1 1332   0.983   2.414   0.171  0.0787  1.2954  0.7562
  442TIP3    H2 1333   1.009   2.505   0.053 -1.1160  1.4895  0.6390
  443TIP3   OH2 1334   0.465   4.365   2.199  0.6831 -0.3400 -0.5447
  443TIP3    H1 1335   0.449   4.394   2.110  0.9631 -1.2313 -0.8912
  443TIP3    H2 1336   0.392   4.306   2.219  1.2076 -1.0118 -0.5868
  444TIP3   OH2 1337   5.150   2.830   0.573 -0.2307 -0.1535 -0.1007
  444TIP3    H1 1338   5.074   2.830   0.515 -0.0132 -1.2436 -0.4217
  444TIP3    H2 1339   5.222   2.858   0.518 -0.2653  0.1381  0.0026
  445TIP3   OH2 1340   1.800   3.060   4.629  0.3735 -0.0427  0.0117
  445TIP3    H1 1341   1.819   2.966   4.631  1.5942  0.1354 -1.4264
  445TIP3    H2 1342   1.714   3.066   4.587  0.6317 -0.4986 -0.6045
  446TIP3   OH2 1343   4.647   2.098   3.023 -0.1333  0.4526  0.1568
  446TIP3    H1 1344   4.676   2.157   2.953  3.0705 -1.4018 -0.2681
  446TIP3    H2 1345   4.660   2.148   3.103  0.7694  0.9917 -0.3082
  447TIP3   OH2 1346   1.224   3.329   1.354  0.3399 -0.2159  0.4045
  447TIP3    H1 1347   1.152   3.297   1.408  1.3473 -1.1907  1.2252
  447TIP3    H2 1348   1.189   3.408   1.311 -1.3062 -0.8458  0.5035
  448TIP3   OH2 1349   2.289   2.623   0.084  0.0524 -0.0820 -0.3799
  448TIP3    H1 1350   2.294   2.560   0.156 -0.4283 -1.4917 -1.5206
  448TIP3    H2 1351   2.215   2.679   0.106 -2.0755 -2.3993 -1.1546
  449TIP3   OH2 1352   1.745   5.649   3.660  0.1463 -0.2816  0.0998
  449TIP3    H1 1353   1.841   5.650   3.668  0.3649  0.7280 -1.9639
  449TIP3    H2 1354   1.723   5.556   3.653  0.8812 -0.5653  1.1916
  450TIP3   OH2 1355   3.068   5.162   2.844  0.1205 -0.2453 -0.7925
  450TIP3    H1 1356   3.109   5.201   2.921  0.8585 -0.4153 -1.0844
  450TIP3    H2 1357   3.002   5.225   2.816  0.5846  0.3156 -0.6437
  451TIP3   OH2 1358   2.059   4.313   3.221  0.9195 -0.6844  0.0308
  451TIP3    H1 1359   2.045   4.241   3.282  0.5382  0.3104  1.1390
  451TIP3    H2 1360   2.142   4.353   3.248  1.2979 -0.8848 -0.7805
  452TIP3   OH2 1361   2.174   0.256   3.166 -0.4306  0.5164  0.5657
  452TIP3    H1 1362   2.082   0.232   3.169 -0.3236  0.0882  0.5678
  452TIP3    H2 1363   2.197   0.275   3.257 -0.6473  1.1483  0.4917
  453TIP3   OH2 1364   6.332   2.310   2.236 -0.1952  0.2264 -0.0072
  453TIP3    H1 1365   6.302   2.226   2.270  1.1556  0.2313  1.2976
  453TIP3    H2 1366   6.254   2.366   2.239 -0.6620 -0.4493  0.9005
  454TIP3   OH2 1367   1.681   4.111   1.801 -0.1374 -0.0604 -0.0950
  454TIP3    H1 1368   1.636   4.090   1.719 -1.8466 -1.5151  1.1643
  454TIP3    H2 1369   1.641   4.193   1.830  1.2275  1.0504 -1.1918
  455TIP3   OH2 1370   3.745   2.298   5.180 -0.0797 -0.4053  0.4376
  455TIP3    H1 1371   3.812   2.298   5.111 -1.3304  0.2061 -0.8147
  455TIP3    H2 1372   3.693   2.220   5.163 -1.0105  0.2857  0.0660
  456TIP3   OH2 1373   2.022   3.790   4.106 -0.1764 -0.2026  0.4087
  456TIP3    H1 1374   2.054   3.797   4.016  0.3966 -0.5058  0.5855
  456TIP3    H2 1375   2.017   3.881   4.136 -0.0228 -0.1184  0.1849
  457TIP3   OH2 1376   4.251   0.970   4.079 -0.2124  0.1219 -0.4068
  457TIP3    H1 1377   4.191   0.904   4.113  0.1027 -0.0212 -0.1171
  457TIP3    H2 1378   4.195   1.034   4.035 -0.7680  0.9882  1.4689
  458TIP3   OH2 1379   2.079   1.396   2.040  0.3772  0.3066 -0.1539
  458TIP3    H1 1380   2.002   1.352   2.075 -0.3401  1.9199  0.3878
  458TIP3    H2 1381   2.105   1.341   1.966 -1.5050 -0.1191 -0.5767
  459TIP3   OH2 1382   0.911   2.657   0.332 -0.4844  0.0301  0.2264
  459TIP3    H1 1383   0.987   2.642   0.387 -1.3255 -0.2108  1.3602
  459TIP3    H2 1384   0.841   2.679   0.393 -1.0871  1.2725 -0.8559
  460TIP3   OH2 1385   1.536   0.918   2.751 -0.2096 -0.4369 -0.1763
  460TIP3    H1 1386   1.458   0.889   2.703  0.7124  1.1052 -2.8371
  460TIP3    H2 1387   1.501   0.957   2.831 -2.2122  0.1921 -1.2790
  461TIP3   OH2 1388   1.591   4.482   1.390 -0.0150 -0.6073  0.0260
  461TIP3    H1 1389   1.652   4.481   1.316 -1.4561  1.0379 -1.2699
  461TIP3    H2 1390   1.647   4.500   1.466  1.3018 -0.7517 -0.8648
  462TIP3   OH2 1391   1.800   5.057   4.610 -0.0702  0.0579  0.0211
  462TIP3    H1 1392   1.721   5.068   4.663  1.6101 -0.0488  2.7654
  462TIP3    H2 1393   1.809   4.962   4.600  0.4172 -0.0082  0.9519
  463TIP3   OH2 1394   4.051   0.230   0.844 -0.1400 -0.1318 -0.2907
  463TIP3    H1 1395   4.011   0.143   0.846 -2.6814  0.9755  0.1592
  463TIP3    H2 1396   4.062   0.253   0.937  2.1337 -0.5954 -0.3838
  464TIP3   OH2 1397   3.592   5.067   0.585 -0.1110 -0.3685  0.7291
  464TIP3    H1 1398   3.608   5.117   0.665  1.8846 -1.3978  1.0262
  464TIP3    H2 1399   3.587   5.133   0.516  0.1580  0.3932  1.4193
  465TIP3   OH2 1400   1.198   2.685   4.932 -0.1464 -0.3583 -0.8170
  465TIP3    H1 1401   1.260   2.747   4.968 -0.7505 -0.7139  0.9371
  465TIP3    H2 1402   1.187   2.619   5.001 -1.1370 -1.2423 -1.7766
  466TIP3   OH2 1403   1.068   2.858   4.767  0.5603 -0.1387  0.2767
  466TIP3    H1 1404   1.048   2.923   4.834  3.2770  1.7356 -0.5471
  466TIP3    H2 1405   1.120   2.792   4.813  1.0396  0.2908  0.3564
  467TIP3   OH2 1406   4.983   1.609   2.418 -0.0467 -0.1571 -0.1168
  467TIP3    H1 1407   5.025   1.688   2.453 -2.7730  0.4283  2.2110
  467TIP3    H2 1408   4.979   1.549   2.493 -3.3537 -0.0633 -0.0575
  468TIP3   OH2 1409   5.252  -0.000   3.767  0.6440 -0.5092 -0.1937
  468TIP3    H1 1410   5.181   0.055   3.800 -0.1697 -2.0911  0.8538
  468TIP3    H2 1411   5.250   0.012   3.672 -0.7832 -0.2130 -0.1495
  469TIP3   OH2 1412   4.494   3.920   4.084 -0.5222  0.3833 -0.4161
  469TIP3    H1 1413   4.535   3.873   4.156  0.1379  0.1761 -0.9122
  469TIP3    H2 1414   4.413   3.872   4.067 -0.7688  0.5414  0.2966
  470TIP3   OH2 1415   1.853   1.668   2.152 -0.2243  0.2422 -0.0582
  470TIP3    H1 1416   1.800   1.598   2.114 -1.6964  0.7287  1.0059
  470TIP3    H2 1417   1.830   1.667   2.245  1.0391  1.0228  0.2800
  471TIP3   OH2 1418   5.529   4.461   4.936  0.1203 -0.2598  0.3319
  471TIP3    H1 1419   5.476   4.438   4.859  0.1627 -0.1543  0.2707
  471TIP3    H2 1420   5.598   4.517   4.902 -0.8909  1.2718  0.6905
  472TIP3   OH2 1421   4.952   5.652   0.366  0.6649 -0.1492 -0.2745
  472TIP3    H1 1422   4.894   5.722   0.337  0.3891  0.2454  1.1493
  472TIP3    H2 1423   5.012   5.695   0.427 -0.3058 -1.3444  1.6228
  473TIP3   OH2 1424   2.058   2.151   2.342  0.1020  0.0759  0.2055
  473TIP3    H1 1425   1.999   2.178   2.272  0.5157  0.1763 -0.1055
  473TIP3    H2 1426   2.038   2.211   2.414 -2.1692 -1.6283  1.1379
  474TIP3   OH2 1427   1.874   2.488   4.372 -0.4888  0.1527 -0.5469
  474TIP3    H1 1428   1.956   2.460   4.412 -0.7299 -0.4389 -0.4451
  474TIP3    H2 1429   1.808   2.472   4.440 -0.7863 -0.0551 -0.8774
  475TIP3   OH2 1430   2.606   5.791   4.707 -0.9083  0.0989  0.0774
  475TIP3    H1 1431   2.575   5.705   4.678  0.4805 -0.3311 -0.2028
  475TIP3    H2 1432   2.528   5.847   4.704 -1.2509 -0.3643 -2.7656
  476TIP3   OH2 1433   1.782   3.085   4.905  0.2667  0.5246 -0.5690
  476TIP3    H1 1434   1.810   3.092   4.813 -3.1813 -0.3056 -1.8047
  476TIP3    H2 1435   1.775   2.991   4.921  0.5295  0.6736  0.4683
  477TIP3   OH2 1436   4.908   3.524   2.598 -0.1468  0.4735  0.3125
  477TIP3    H1 1437   4.885   3.474   2.676 -0.4601 -0.8987 -0.6308
  477TIP3    H2 1438   4.943   3.460   2.538  1.2299  1.7067 -0.2545
  478TIP3   OH2 1439   4.373   3.604   5.109  0.5107 -0.3143  0.0803
  478TIP3    H1 1440   4.456   3.557   5.117 -0.7196 -2.3534  2.2766
  478TIP3    H2 1441   4.391   3.675   5.048  2.7092 -3.3242 -3.1930
  479TIP3   OH2 1442   2.463   3.259   1.761 -0.8347  0.1675  0.4605
  479TIP3    H1 1443   2.512   3.341   1.766 -0.2549 -0.0095 -1.3727
  479TIP3    H2 1444   2.383   3.282   1.712  0.5193 -0.7718 -2.4162
  480TIP3   OH2 1445   1.622   2.598   3.931  0.6976 -0.1804 -0.3130
  480TIP3    H1 1446   1.590   2.508   3.939 -0.3329  0.1370 -0.7903
  480TIP3    H2 1447   1.543   2.652   3.927  1.3023  0.7421 -0.1652
  481TIP3   OH2 1448   1.569   4.629   3.662  0.4976 -0.3135  0.3929
  481TIP3    H1 1449   1.477   4.648   3.676  0.5042 -0.4777  0.6719
  481TIP3    H2 1450   1.613   4.663   3.740  0.6094 -0.7043  0.5034
  482TIP3   OH2 1451   5.395   3.559   2.483  0.2683  0.4040 -0.0856
  482TIP3    H1 1452   5.320   3.568   2.542  1.1845 -0.1912  1.2090
  482TIP3    H2 1453   5.383   3.474   2.441  0.9431 -0.3382  1.1940
  483TIP3   OH2 1454   1.210   4.127   1.192 -0.0823 -0.1442 -0.2385
  483TIP3    H1 1455   1.182   4.104   1.280  0.6082 -1.1018 -0.2480
  483TIP3    H2 1456   1.304   4.144   1.201  0.2721 -1.5320 -0.9994
  484TIP3   OH2 1457   2.472   0.135   3.516 -0.0549 -0.6283  0.0259
  484TIP3    H1 1458   2.566   0.148   3.533  0.1823 -1.5471 -0.5394
  484TIP3    H2 1459   2.469   0.083   3.436 -1.0325 -1.3437  0.5067
  485TIP3   OH2 1460   5.015   1.798   0.638  0.3209 -0.2185 -0.1251
  485TIP3    H1 1461   5.101   1.839   0.639 -0.2049  0.9222  0.5173
  485TIP3    H2 1462   4.961   1.858   0.587 -0.4464 -0.1353  0.7583
  486TIP3   OH2 1463   3.963   3.636   3.510  0.3165 -0.2742 -0.0052
  486TIP3    H1 1464   4.051   3.659   3.480  1.6116 -1.2451  2.7946
  486TIP3    H2 1465   3.964   3.541   3.516 -1.1476 -0.3402 -0.4294
  487TIP3   OH2 1466   5.379   1.895   1.811  0.2719  0.5292 -0.4400
  487TIP3    H1 1467   5.388   1.888   1.716  0.5862  0.3324 -0.4005
  487TIP3    H2 1468   5.428   1.819   1.844 -0.4831  0.1656 -0.1462
  488TIP3   OH2 1469   3.164   0.958   3.602 -0.0755 -0.1870  0.3719
  488TIP3    H1 1470   3.105   0.928   3.672 -0.9465  0.1186 -0.2152
  488TIP3    H2 1471   3.197   0.878   3.563  0.8690 -0.3681  1.4883
  489TIP3   OH2 1472   3.402   2.534   2.434  0.7178  0.1416 -0.1784
  489TIP3    H1 1473   3.363   2.582   2.507  1.0770 -0.2514  0.2739
  489TIP3    H2 1474   3.332   2.477   2.402  0.2154  1.1039 -0.8629
  490TIP3   OH2 1475   0.303   0.132   2.908  1.0321  0.0203 -0.3884
  490TIP3    H1 1476   0.213   0.105   2.885  1.6284 -1.2739 -1.3759
  490TIP3    H2 1477   0.292   0.211   2.961 -0.6990 -0.2230 -0.3239
  491TIP3   OH2 1478   3.298   4.772   2.700 -0.1597 -0.6170 -0.1184
  491TIP3    H1 1479   3.389   4.751   2.721 -0.1651  0.1297  0.7164
  491TIP3    H2 1480   3.247   4.723   2.765 -0.3344 -0.7572 -0.3616
  492TIP3   OH2 1481   2.574   2.504   4.495  0.5447  0.0699  0.0036
  492TIP3    H1 1482   2.667   2.496   4.519  0.6903  2.4502  0.4825
  492TIP3    H2 1483   2.575   2.511   4.400  0.9132  0.6176  0.0435
  493TIP3   OH2 1484   0.080   0.675   0.255 -0.0246 -0.0834 -0.0046
  493TIP3    H1 1485   0.158   0.722   0.285  1.4458 -2.1322 -0.4134
  493TIP3    H2 1486   0.074   0.599   0.313 -0.6559 -0.8875 -1.0808
  494TIP3   OH2 1487   0.323   5.792   3.742 -0.9476 -0.3532 -0.5572
  494TIP3    H1 1488   0.323   5.764   3.650 -1.1750 -0.7624 -0.4360
  494TIP3    H2 1489   0.287   5.881   3.740  0.7595  0.3738 -1.0697
  495TIP3   OH2 1490   0.617   3.297   2.895 -0.3165  0.3688  0.2293
  495TIP3    H1 1491   0.585   3.285   2.805  1.1096 -1.6347 -0.0886
  495TIP3    H2 1492   0.704   3.334   2.884  1.1258 -2.6176  0.5129
  496TIP3   OH2 1493   4.620   5.499   4.561  0.5734 -0.0621  0.0196
  496TIP3    H1 1494   4.605   5.508   4.655 -1.3723  1.9019 -0.3849
  496TIP3    H2 1495   4.559   5.430   4.534  0.9187 -0.4184  0.1416
  497TIP3   OH2 1496   4.130   2.860   2.673 -0.5360  0.2549 -0.6726
  497TIP3    H1 1497   4.165   2.798   2.608  2.5592 -2.6369  3.2528
  497TIP3    H2 1498   4.207   2.906   2.706 -1.8097  0.8845  1.5958
  498TIP3   OH2 1499   2.324   5.860   0.138  0.8426 -0.8554  0.7597
  498TIP3    H1 1500   2.276   5.909   0.071  1.1463 -0.6371  0.6981
  498TIP3    H2 1501   2.357   5.927   0.198  2.7591 -0.7667 -0.2767
  499TIP3   OH2 1502   3.928   5.378   4.758  0.0947 -0.1229 -0.1004
  499TIP3    H1 1503   3.844   5.336   4.774 -1.9254  3.0731 -1.4608
  499TIP3    H2 1504   3.950   5.354   4.668 -0.0694  0.1648 -0.2171
  500TIP3   OH2 1505   0.818   1.989   3.585 -0.3713  0.0620  0.1231
  500TIP3    H1 1506   0.776   2.048   3.522  0.1595 -0.3713 -0.6580
  500TIP3    H2 1507   0.906   2.025   3.596  0.7578 -1.7398 -2.0710
  501TIP3   OH2 1508   1.292   1.861   2.223  0.2742 -0.0175 -0.0046
  501TIP3    H1 1509   1.360   1.807   2.182  0.0136 -0.1908 -0.2114
  501TIP3    H2 1510   1.224   1.869   2.156  0.5929  1.1295 -0.2192
  502TIP3   OH2 1511   0.159   5.876   4.472 -0.6429  0.3708 -0.3062
  502TIP3    H1 1512   0.184   5.873   4.564  0.4290  0.1741 -0.5807
  502TIP3    H2 1513   0.143   5.784   4.448  0.6390  0.2132 -0.6853
  503TIP3   OH2 1514   0.056   3.580   2.590  0.0281  0.3021  0.1774
  503TIP3    H1 1515  -0.029   3.621   2.575 -0.2473  0.1182  1.1599
  503TIP3    H2 1516   0.114   3.620   2.525 -1.4720 -1.8797 -2.6867
  504TIP3   OH2 1517   4.416   3.459   1.913 -0.2135 -0.0909  0.4592
  504TIP3    H1 1518   4.495   3.511   1.904 -0.1620 -0.0209  1.2431
  504TIP3    H2 1519   4.351   3.519   1.949 -0.4618 -0.2970  0.3616
  505TIP3   OH2 1520   0.147   3.580   4.895 -0.2169 -0.2593 -0.2718
  505TIP3    H1 1521   0.113   3.529   4.821  1.7480 -1.4998 -0.3780
  505TIP3    H2 1522   0.069   3.604   4.945 -1.4700 -0.6526 -1.9406
  506TIP3   OH2 1523   4.991   0.356   4.340  0.0044 -0.3359 -0.0526
  506TIP3    H1 1524   5.073   0.314   4.366  1.3921  1.8855 -0.5045
  506TIP3    H2 1525   4.939   0.358   4.420  1.5400  0.6254  0.9773
  507TIP3   OH2 1526   4.551   3.069   4.528  0.1715  0.2805 -0.0028
  507TIP3    H1 1527   4.609   3.140   4.555 -0.6725  1.1136 -0.2945
  507TIP3    H2 1528   4.494   3.054   4.603 -1.2863  1.6653 -0.7578
  508TIP3   OH2 1529   5.086   4.567   3.381 -0.5782  0.0552 -0.1831
  508TIP3    H1 1530   5.056   4.613   3.303 -0.8237 -0.7212 -0.5491
  508TIP3    H2 1531   5.017   4.581   3.446 -0.8383 -0.1422 -0.4205
  509TIP3   OH2 1532   6.226   0.185   1.711 -0.5051 -0.0934  0.1095
  509TIP3    H1 1533   6.216   0.118   1.643  2.9652  0.3505 -1.0343
  509TIP3    H2 1534   6.247   0.265   1.663 -2.6895  1.4548  1.5560
  510TIP3   OH2 1535   4.732   4.194   0.724  0.2261 -0.4361 -0.0698
  510TIP3    H1 1536   4.753   4.103   0.743  1.2580 -0.3960 -0.9643
  510TIP3    H2 1537   4.815   4.234   0.698 -0.3807  0.5328 -0.5942
  511TIP3   OH2 1538   1.190   2.152   0.174 -0.0796 -0.3837  0.2165
  511TIP3    H1 1539   1.180   2.163   0.080  1.9278 -1.6436 -0.1888
  511TIP3    H2 1540   1.194   2.242   0.208 -0.7646  0.0811 -0.8737
  512TIP3   OH2 1541   2.561   4.933   2.385 -0.2915  0.3055  0.2367
  512TIP3    H1 1542   2.514   5.009   2.419  0.4876  1.2839 -0.7833
  512TIP3    H2 1543   2.651   4.945   2.415  0.0681  0.3849 -0.8044
  513TIP3   OH2 1544   5.758   0.650   0.358  0.2210  0.3258  0.0352
  513TIP3    H1 1545   5.710   0.659   0.276 -0.1937 -1.1921  0.0830
  513TIP3    H2 1546   5.827   0.716   0.353 -0.6320  1.1896 -0.9196
  514TIP3   OH2 1547   6.262   2.426   2.883 -0.8717 -0.3301 -0.3314
  514TIP3    H1 1548   6.177   2.455   2.850 -0.7172  0.3710 -0.1470
  514TIP3    H2 1549   6.281   2.487   2.954  0.2649  0.2168 -1.0660
  515TIP3   OH2 1550   0.495   3.837   0.615 -0.1374  0.0069 -0.7400
  515TIP3    H1 1551   0.458   3.851   0.703  0.6971  2.1371 -0.6522
  515TIP3    H2 1552   0.440   3.891   0.558 -1.0832 -1.8820 -1.6809
  516TIP3   OH2 1553   5.590   3.948   3.700  0.6122 -0.3303  0.5962
  516TIP3    H1 1554   5.501   3.951   3.733  0.6285 -0.8224  0.6910
  516TIP3    H2 1555   5.632   3.877   3.749  1.1413  0.0899  0.7609
  517TIP3   OH2 1556   4.112   2.887   3.533 -0.5874 -0.1198 -0.0303
  517TIP3    H1 1557   4.084   2.808   3.580 -0.6373  0.0759  0.2758
  517TIP3    H2 1558   4.196   2.863   3.493 -0.7185 -0.4018 -0.1398
  518TIP3   OH2 1559   5.601   0.339   1.753 -0.2280 -0.0997 -0.5733
  518TIP3    H1 1560   5.605   0.430   1.723  0.4891  0.2038  0.4220
  518TIP3    H2 1561   5.511   0.328   1.785 -1.0936 -0.4898 -2.9067
  519TIP3   OH2 1562   4.410   3.658   0.200 -0.4701 -0.5634  0.4140
  519TIP3    H1 1563   4.419   3.562   0.200  2.7936 -0.4342 -1.8289
  519TIP3    H2 1564   4.334   3.674   0.144  0.4353 -1.8883 -1.3107
  520TIP3   OH2 1565   2.562   0.051   4.600 -0.2452 -0.0917 -0.3909
  520TIP3    H1 1566   2.479   0.007   4.619 -0.5607 -0.1348 -1.7746
  520TIP3    H2 1567   2.629  -0.011   4.630 -0.6982 -0.2733  0.2761
  521TIP3   OH2 1568   4.274   4.267   3.580 -0.1058  0.0588  0.0824
  521TIP3    H1 1569   4.222   4.241   3.504  0.5035 -0.7989 -0.0587
  521TIP3    H2 1570   4.228   4.227   3.654 -0.7729  1.0033  0.2009
  522TIP3   OH2 1571   3.195   3.762   3.573 -0.3967  0.1017 -0.1753
  522TIP3    H1 1572   3.289   3.769   3.561 -0.4358  0.4458 -0.2981
  522TIP3    H2 1573   3.158   3.818   3.505 -0.7828 -2.2039 -2.0144
  523TIP3   OH2 1574   4.528   1.003   3.415 -0.1683 -0.5539  0.7402
  523TIP3    H1 1575   4.595   0.969   3.474  1.7767 -1.4014 -1.7797
  523TIP3    H2 1576   4.550   1.096   3.404 -0.3203 -0.4791  1.0619
  524TIP3   OH2 1577   5.291   5.234   1.572  0.7710 -0.8754  0.4380
  524TIP3    H1 1578   5.368   5.182   1.593  0.6385 -1.0113  0.5877
  524TIP3    H2 1579   5.307   5.266   1.483  0.7044 -1.4477  0.2125
  525TIP3   OH2 1580   2.161   2.018   2.069 -0.0816 -0.0054 -0.2635
  525TIP3    H1 1581   2.080   2.012   2.019 -0.9074 -1.2897  1.1360
  525TIP3    H2 1582   2.136   2.059   2.152  1.0501  1.1562 -0.4575
  526TIP3   OH2 1583   2.379   5.808   3.404 -1.1334  0.9852  0.0258
  526TIP3    H1 1584   2.337   5.809   3.318 -1.4794 -0.0972  0.1664
  526TIP3    H2 1585   2.463   5.851   3.391 -0.5072 -0.5549 -1.2232
  527TIP3   OH2 1586   6.044   1.896   1.740 -0.1166  0.0948 -0.2811
  527TIP3    H1 1587   5.960   1.865   1.707  0.2162 -0.0792 -0.9840
  527TIP3    H2 1588   6.022   1.952   1.814 -0.7201 -3.0661  2.1464
  528TIP3   OH2 1589   1.607   1.380   2.203 -0.7181 -0.1737  0.2746
  528TIP3    H1 1590   1.630   1.292   2.235 -1.8701 -0.2887  0.8293
  528TIP3    H2 1591   1.676   1.400   2.140 -1.0823 -1.9919 -0.7841
  529TIP3   OH2 1592   0.936   4.760   2.544 -0.1819 -0.0956  0.5376
  529TIP3    H1 1593   0.865   4.696   2.540 -0.1529 -0.0551 -1.4011
  529TIP3    H2 1594   0.892   4.845   2.540 -0.0587 -0.0710 -0.7016
  530TIP3   OH2 1595   6.343   4.546   2.500 -0.2074 -0.4475 -0.0776
  530TIP3    H1 1596   6.315   4.568   2.411  0.4743  2.1418  0.2698
  530TIP3    H2 1597   6.261   4.538   2.550 -0.5719  1.9254 -0.1712
  531TIP3   OH2 1598   3.876   1.788   4.966 -0.0797 -0.3873  0.0274
  531TIP3    H1 1599   3.785   1.808   4.986 -0.5485 -3.7713  1.9908
  531TIP3    H2 1600   3.880   1.787   4.870 -1.7034  1.1065 -0.1191
  532TIP3   OH2 1601   3.123   2.246   1.117 -0.2346 -0.3358  0.3437
  532TIP3    H1 1602   3.159   2.181   1.057 -0.5871  0.5501 -0.8871
  532TIP3    H2 1603   3.197   2.276   1.169  0.4181  0.0490 -0.7870
  533TIP3   OH2 1604   3.498   4.143   3.551  0.6601 -1.1179  0.4338
  533TIP3    H1 1605   3.515   4.109   3.464 -0.3453  1.3607 -0.8352
  533TIP3    H2 1606   3.403   4.156   3.554  0.8394  0.2091  1.3159
  534TIP3   OH2 1607   4.125   0.157   3.805 -0.0324 -0.3341 -0.2018
  534TIP3    H1 1608   4.129   0.080   3.862 -1.2167 -0.7082 -0.6078
  534TIP3    H2 1609   4.212   0.197   3.814  0.0119 -0.6953  1.4219
  535TIP3   OH2 1610   1.531   3.613   2.855 -0.0506  0.1129  0.1809
  535TIP3    H1 1611   1.473   3.582   2.925  0.3933  0.0187  0.5100
  535TIP3    H2 1612   1.619   3.603   2.890  0.1997 -0.2899 -0.5293
  536TIP3   OH2 1613   3.748   0.585   4.651 -0.5283 -0.1339  0.8944
  536TIP3    H1 1614   3.821   0.533   4.617 -1.1067 -0.5743  0.3102
  536TIP3    H2 1615   3.759   0.672   4.611 -1.0489 -0.5691 -0.2283
  537TIP3   OH2 1616   1.478   2.136   3.905 -0.1351 -0.2108 -0.3472
  537TIP3    H1 1617   1.423   2.057   3.900  0.8950 -1.0595  0.9011
  537TIP3    H2 1618   1.564   2.107   3.875  0.2573  0.4382  0.1245
  538TIP3   OH2 1619   5.348   0.127   5.003  0.0651 -0.2666 -0.2869
  538TIP3    H1 1620   5.360   0.106   5.095 -0.5595 -1.5666 -0.4834
  538TIP3    H2 1621   5.254   0.126   4.989  0.1806 -0.8704 -1.1094
  539TIP3   OH2 1622   2.050   5.779   1.715  0.6835  0.0422 -0.0952
  539TIP3    H1 1623   1.993   5.794   1.639 -0.9050  1.5447  1.2871
  539TIP3    H2 1624   2.056   5.684   1.722 -2.4763 -0.2545  0.1653
  540TIP3   OH2 1625   5.064   5.860   4.911  0.6275  0.1155  0.0209
  540TIP3    H1 1626   5.148   5.841   4.953 -0.3757 -0.7649  1.7318
  540TIP3    H2 1627   5.026   5.774   4.892  0.1628  0.5011 -0.8856
  541TIP3   OH2 1628   0.769   2.987   0.238  0.1059  0.3927 -0.3706
  541TIP3    H1 1629   0.859   2.979   0.268  0.4713  1.4456 -1.1086
  541TIP3    H2 1630   0.717   2.988   0.318  0.7442 -0.2441  0.0644
  542TIP3   OH2 1631   5.687   4.437   4.683 -0.1508 -0.3041  0.7594
  542TIP3    H1 1632   5.653   4.370   4.625 -0.5073  1.9990 -1.8762
  542TIP3    H2 1633   5.770   4.464   4.643  0.6503 -0.0341  2.4849
  543TIP3   OH2 1634   2.662   4.150   3.807 -0.0014  0.0274  0.2049
  543TIP3    H1 1635   2.722   4.076   3.813  1.7947  1.4732  0.9421
  543TIP3    H2 1636   2.718   4.227   3.808 -1.8986  1.4923  1.3552
  544TIP3   OH2 1637   3.395   5.616   0.502 -0.0102 -0.1005 -0.0423
  544TIP3    H1 1638   3.487   5.638   0.485  1.0242 -1.7675  2.7530
  544TIP3    H2 1639   3.388   5.523   0.480 -0.0722 -0.8465  2.7779
  545TIP3   OH2 1640   1.915   1.407   0.039 -0.3314 -0.2317  0.7567
  545TIP3    H1 1641   1.941   1.384   0.128  1.5984  1.3524  0.6652
  545TIP3    H2 1642   1.958   1.343  -0.017 -0.4141 -0.3950  0.8819
  546TIP3   OH2 1643   4.651   0.244   1.255 -0.1165 -0.1375 -0.5052
  546TIP3    H1 1644   4.711   0.179   1.219  1.7860  0.1583  1.8816
  546TIP3    H2 1645   4.663   0.238   1.350 -1.0981  2.5465 -0.1251
  547TIP3   OH2 1646   5.763   5.034   2.918  0.2122  0.1568  0.4067
  547TIP3    H1 1647   5.676   4.999   2.937 -0.4336  0.9054 -1.0226
  547TIP3    H2 1648   5.823   4.971   2.958 -0.9701 -0.1726  1.7465
  548TIP3   OH2 1649   3.166   2.657   0.828 -0.6641 -0.3316  0.2214
  548TIP3    H1 1650   3.106   2.730   0.811 -0.9074  0.0664  2.5249
  548TIP3    H2 1651   3.108   2.582   0.839 -0.7606 -0.0311  2.0089
  549TIP3   OH2 1652   5.996   1.089   4.383 -0.0234  0.0481  0.0298
  549TIP3    H1 1653   5.923   1.151   4.382  0.6133  0.8144  0.2302
  549TIP3    H2 1654   5.978   1.033   4.459  0.4392  1.2876  1.0995
  550TIP3   OH2 1655   0.059   1.165   2.309  0.1723 -0.2597  0.0046
  550TIP3    H1 1656   0.097   1.109   2.377 -1.0957 -1.9801 -0.6345
  550TIP3    H2 1657   0.046   1.250   2.352  1.4880 -0.6340  1.2181
  551TIP3   OH2 1658   6.024   4.745   4.058  0.0019 -0.6307 -0.3855
  551TIP3    H1 1659   5.992   4.658   4.085  0.3423  0.2098  3.1969
  551TIP3    H2 1660   5.948   4.802   4.067  0.2181 -0.2333 -1.0293
  552TIP3   OH2 1661   0.677   5.710   3.001 -0.3243 -0.3366  0.0271
  552TIP3    H1 1662   0.694   5.648   3.072  1.7036  0.4054  0.2604
  552TIP3    H2 1663   0.705   5.795   3.036 -0.1798  0.1988 -1.3264
  553TIP3   OH2 1664   5.430   4.738   4.416  0.1803 -0.2109  0.2234
  553TIP3    H1 1665   5.451   4.711   4.505  2.3465 -1.4191 -0.5989
  553TIP3    H2 1666   5.338   4.763   4.420  0.8155  2.3513  3.3925
  554TIP3   OH2 1667   2.012   1.783   0.624  0.3984 -0.8392  0.0255
  554TIP3    H1 1668   1.967   1.858   0.585 -1.4044 -1.1399  1.4547
  554TIP3    H2 1669   2.041   1.732   0.548 -2.2299 -0.9645 -1.0059
  555TIP3   OH2 1670   4.931   4.722   2.583 -0.5661  0.0080 -0.2018
  555TIP3    H1 1671   4.841   4.700   2.606 -0.9930  2.6292  0.9016
  555TIP3    H2 1672   4.984   4.659   2.633 -1.7284  0.3514  1.5548
  556TIP3   OH2 1673   4.279   0.837   3.630  0.4279  0.2746  0.9948
  556TIP3    H1 1674   4.218   0.893   3.677  0.9268  0.3376  1.5821
  556TIP3    H2 1675   4.316   0.893   3.561  0.0317  0.3124  0.8098
  557TIP3   OH2 1676   1.045   4.659   3.672 -0.1548  0.1975 -0.3909
  557TIP3    H1 1677   1.016   4.643   3.583 -0.4120 -0.5393 -0.1809
  557TIP3    H2 1678   1.140   4.673   3.665 -0.4225  1.9561 -0.9944
  558TIP3   OH2 1679   4.025   5.224   4.002  0.3603 -0.1006 -0.1370
  558TIP3    H1 1680   4.085   5.258   3.936  2.0961 -1.7009  0.5108
  558TIP3    H2 1681   3.949   5.194   3.953 -0.0844  2.1863 -0.9645
  559TIP3   OH2 1682   1.094   3.542   1.483  0.1282 -0.2045 -0.6499
  559TIP3    H1 1683   1.113   3.613   1.421 -0.2659  0.5927  0.1119
  559TIP3    H2 1684   1.121   3.577   1.568 -0.5771 -0.7603 -0.1852
  560TIP3   OH2 1685   2.554   3.715   0.940  1.0249 -0.7208 -0.2589
  560TIP3    H1 1686   2.567   3.806   0.965 -0.2818  0.0896 -2.2461
  560TIP3    H2 1687   2.573   3.714   0.846  0.9636 -2.4940 -0.2776
  561TIP3   OH2 1688   3.084   2.991   3.627  0.1227  0.2024 -0.1767
  561TIP3    H1 1689   3.165   2.987   3.576 -1.0328  0.3368 -2.1318
  561TIP3    H2 1690   3.076   2.905   3.666  1.3895  0.3106  0.3781
  562TIP3   OH2 1691   0.959   2.253   2.199  0.3399 -0.0093 -0.6853
  562TIP3    H1 1692   0.989   2.329   2.248  1.4034 -1.7389  1.5037
  562TIP3    H2 1693   0.934   2.288   2.113 -1.4524  3.1424  0.9594
  563TIP3   OH2 1694   2.393   5.137   4.139 -0.2046  0.3296 -0.1502
  563TIP3    H1 1695   2.385   5.209   4.076 -0.6773 -0.2788 -0.7991
  563TIP3    H2 1696   2.310   5.136   4.186 -0.3985 -0.1106 -0.4957
  564TIP3   OH2 1697   0.455   1.182   3.435 -1.0166 -0.2755 -0.5015
  564TIP3    H1 1698   0.471   1.237   3.358 -0.2531  2.0205  1.2158
  564TIP3    H2 1699   0.461   1.241   3.509 -1.4594 -2.4701  1.3944
  565TIP3   OH2 1700   0.902   4.179   3.085 -0.3637 -0.7184 -0.4592
  565TIP3    H1 1701   0.809   4.176   3.061 -0.1925  0.1923 -1.3321
  565TIP3    H2 1702   0.903   4.173   3.180 -1.5706  2.4722 -0.1404
  566TIP3   OH2 1703   2.315   1.305   1.723  0.5228 -0.2898 -0.4103
  566TIP3    H1 1704   2.270   1.223   1.705  1.3262 -0.6247 -0.9606
  566TIP3    H2 1705   2.384   1.282   1.785  1.3391 -0.2256 -1.2681
  567TIP3   OH2 1706   4.563   5.245   2.981 -0.5052 -0.4751  0.0939
  567TIP3    H1 1707   4.499   5.309   3.014 -2.0968 -0.0210 -3.4301
  567TIP3    H2 1708   4.648   5.286   2.999 -1.3118  0.7833  1.3488
  568TIP3   OH2 1709   0.286   0.524   1.508  0.0485 -0.1633  0.2627
  568TIP3    H1 1710   0.305   0.450   1.451 -0.3150  0.4603 -0.6834
  568TIP3    H2 1711   0.208   0.498   1.556  1.1282 -1.2510  1.5199
  569TIP3   OH2 1712   4.222   5.101   1.838  0.6391  0.3044 -0.4383
  569TIP3    H1 1713   4.149   5.053   1.799  0.6774  0.5112 -0.7671
  569TIP3    H2 1714   4.184   5.145   1.914  0.9554 -1.5919  0.9014
  570TIP3   OH2 1715   3.841   5.754   2.402 -0.3127  0.4316 -0.4455
  570TIP3    H1 1716   3.765   5.812   2.399 -1.3090 -0.8269 -0.3729
  570TIP3    H2 1717   3.848   5.718   2.314 -1.1519 -1.0976  0.0726
  571TIP3   OH2 1718   1.913   4.168   2.332  0.3415  0.0654 -0.1510
  571TIP3    H1 1719   1.883   4.080   2.353 -0.2006  0.0432 -0.9701
  571TIP3    H2 1720   1.864   4.224   2.393 -0.3575 -0.0929 -0.5486
  572TIP3   OH2 1721   6.019   5.357   0.781 -0.0666 -0.0160  0.3704
  572TIP3    H1 1722   5.933   5.360   0.737 -0.3119 -1.3316  0.7044
  572TIP3    H2 1723   6.056   5.273   0.753  0.3923 -0.2115  1.5286
  573TIP3   OH2 1724   3.403   5.420   2.371  0.1740 -0.2514  0.0020
  573TIP3    H1 1725   3.411   5.325   2.371  2.3572 -0.1385 -1.7876
  573TIP3    H2 1726   3.479   5.450   2.421 -0.4420  0.5883  0.4680
  574TIP3   OH2 1727   2.002   0.840   0.778  0.1890  0.0996  0.0207
  574TIP3    H1 1728   2.004   0.760   0.726  0.9152  0.4128 -0.4474
  574TIP3    H2 1729   2.093   0.871   0.779 -0.3631  2.0075 -1.5546
  575TIP3   OH2 1730   1.407   1.546   2.212 -0.3264  0.2799  0.2092
  575TIP3    H1 1731   1.348   1.533   2.287  2.3260  0.6138  2.5025
  575TIP3    H2 1732   1.480   1.486   2.227 -0.6561 -1.3109 -3.3960
  576TIP3   OH2 1733   5.312   0.055   0.432  0.0166  0.2415  0.4154
  576TIP3    H1 1734   5.330   0.135   0.481  2.5358 -0.0360  0.0786
  576TIP3    H2 1735   5.354  -0.014   0.483 -0.6960 -0.6244 -0.1458
  577TIP3   OH2 1736   0.438   5.171   2.942  0.0740  0.1585 -0.5668
  577TIP3    H1 1737   0.428   5.186   3.036  1.4320  0.1963 -0.3986
  577TIP3    H2 1738   0.366   5.114   2.918 -1.5731  1.8877  0.0521
  578TIP3   OH2 1739   4.880   1.377   3.975 -0.0570  0.3751  0.4016
  578TIP3    H1 1740   4.813   1.344   3.915 -1.2440  0.2434  1.7323
  578TIP3    H2 1741   4.866   1.471   3.977  2.4655  0.9301 -2.3741
  579TIP3   OH2 1742   5.007   2.744   4.933  0.2030  0.4983 -0.0247
  579TIP3    H1 1743   5.002   2.765   5.026  0.8411  0.1323  0.1016
  579TIP3    H2 1744   4.945   2.803   4.891 -0.2070  0.5574  0.6526
  580TIP3   OH2 1745   3.776   3.206   2.818  0.0876  0.5368  0.3890
  580TIP3    H1 1746   3.832   3.168   2.885 -1.0026 -0.2643  0.8765
  580TIP3    H2 1747   3.784   3.147   2.743 -0.9468 -0.2172  0.8505
  581TIP3   OH2 1748   5.743   4.288   3.678 -0.2518  0.0170  0.5334
  581TIP3    H1 1749   5.767   4.283   3.585  1.3530 -1.5036  0.9759
  581TIP3    H2 1750   5.654   4.252   3.681 -1.2831  2.2672 -0.6706
  582TIP3   OH2 1751   4.120   2.990   1.014 -0.2171  0.1230  0.5092
  582TIP3    H1 1752   4.143   3.059   0.951 -0.1825 -2.0521 -2.0268
  582TIP3    H2 1753   4.196   2.986   1.073  0.9437  0.5652 -0.8775
  583TIP3   OH2 1754   6.202   0.024   1.485 -0.9542  0.0182 -0.0101
  583TIP3    H1 1755   6.114   0.059   1.472 -1.9483 -2.6349 -1.2150
  583TIP3    H2 1756   6.202  -0.059   1.437  2.1918 -0.1313  0.0391
  584TIP3   OH2 1757   2.703   1.924   0.149  0.2752  0.1250  0.3708
  584TIP3    H1 1758   2.791   1.893   0.127  0.1318  0.3319 -0.5559
  584TIP3    H2 1759   2.652   1.911   0.069 -0.9736 -1.4531  1.3505
  585TIP3   OH2 1760   4.717   2.340   1.739  0.1862  0.3802 -0.1240
  585TIP3    H1 1761   4.720   2.326   1.645  1.2219  1.1405 -0.2227
  585TIP3    H2 1762   4.806   2.366   1.763 -0.1666  0.6528  0.9857
  586TIP3   OH2 1763   1.064   0.882   0.396  0.1976  0.0431 -0.1545
  586TIP3    H1 1764   1.096   0.873   0.485 -0.9787 -0.1498  0.2734
  586TIP3    H2 1765   1.009   0.960   0.398  1.3577  0.9311 -1.1012
  587TIP3   OH2 1766   5.982   0.608   1.440 -0.1977  0.2529  0.3152
  587TIP3    H1 1767   5.959   0.609   1.533 -0.8298  1.6161  0.1687
  587TIP3    H2 1768   6.077   0.619   1.439 -0.0345 -0.9203  0.8113
  588TIP3   OH2 1769   5.059   3.111   2.899  0.0580  0.1862  0.0086
  588TIP3    H1 1770   5.017   3.124   2.985 -0.7060  0.1683 -0.3466
  588TIP3    H2 1771   5.098   3.196   2.878 -0.7130  0.5218 -0.1147
  589TIP3   OH2 1772   3.837   4.220   2.569 -0.0415  0.5187 -0.2297
  589TIP3    H1 1773   3.900   4.243   2.637 -0.4474  1.4658 -0.1545
  589TIP3    H2 1774   3.877   4.146   2.522  1.1802  1.1811 -0.2645
  590TIP3   OH2 1775   4.641   0.855   2.371  0.1177  0.4863 -0.4485
  590TIP3    H1 1776   4.604   0.858   2.459  2.1701 -0.9134  0.5329
  590TIP3    H2 1777   4.679   0.943   2.358 -0.6220  0.8550 -0.1514
  591TIP3   OH2 1778   4.685   4.940   0.720 -0.3338  0.1436 -0.2905
  591TIP3    H1 1779   4.610   4.905   0.768  0.8640 -2.3370 -0.0313
  591TIP3    H2 1780   4.658   4.940   0.628 -0.8998 -0.0049 -0.1264
  592TIP3   OH2 1781   1.579   0.281   0.682  0.7308  0.7012  0.3769
  592TIP3    H1 1782   1.545   0.191   0.683  1.0379  0.4382 -2.7814
  592TIP3    H2 1783   1.672   0.271   0.701  0.5080  0.5851  1.5283
  593TIP3   OH2 1784   5.789   1.584   0.590  0.1990 -0.0230  0.6037
  593TIP3    H1 1785   5.726   1.573   0.662  0.8179 -1.7236  0.9337
  593TIP3    H2 1786   5.734   1.592   0.512 -0.4786 -1.7168  0.8587
  594TIP3   OH2 1787   2.327   0.367   0.161 -0.0477 -0.0509  0.0091
  594TIP3    H1 1788   2.408   0.367   0.211 -0.4170 -0.7187  0.6215
  594TIP3    H2 1789   2.352   0.332   0.075  0.0311 -1.7526  0.6941
  595TIP3   OH2 1790   4.278   1.373   2.484 -0.1824  0.1884  0.0887
  595TIP3    H1 1791   4.299   1.452   2.435 -2.7710  2.2033  1.9622
  595TIP3    H2 1792   4.207   1.332   2.433  0.0630 -0.0824 -0.0413
  596TIP3   OH2 1793   4.172   1.101   4.319 -0.2551 -0.0852 -0.5165
  596TIP3    H1 1794   4.225   1.067   4.392  0.7237  1.4369 -0.4728
  596TIP3    H2 1795   4.198   1.048   4.244  0.4543 -0.1599 -0.2286
  597TIP3   OH2 1796   4.091   2.316   4.919 -0.3780  0.0950 -0.7643
  597TIP3    H1 1797   4.155   2.252   4.949 -2.1105 -1.7060 -0.7135
  597TIP3    H2 1798   4.125   2.346   4.835  0.1546 -1.4254 -1.1268
  598TIP3   OH2 1799   0.243   4.447   3.737 -0.3104  0.3825 -0.5908
  598TIP3    H1 1800   0.163   4.488   3.703  0.2275  1.3517 -0.7497
  598TIP3    H2 1801   0.292   4.422   3.659 -0.4290 -0.1417 -0.4958
  599TIP3   OH2 1802   5.098   3.786   0.116  0.5244 -0.3897 -0.2723
  599TIP3    H1 1803   5.104   3.736   0.198  1.0969  1.0231  0.5836
  599TIP3    H2 1804   5.008   3.820   0.116  0.7139  0.1161  0.0822
  600TIP3   OH2 1805   1.166   3.972   1.556  0.3415  0.3216  0.0280
  600TIP3    H1 1806   1.090   3.937   1.602  0.3470 -1.6627 -1.3271
  600TIP3    H2 1807   1.189   4.052   1.603 -1.7463  0.2372  1.2761
  601TIP3   OH2 1808   5.947   3.845   3.776  0.8561 -0.0112  0.3081
  601TIP3    H1 1809   5.915   3.932   3.801  2.2176  0.2454  1.2805
  601TIP3    H2 1810   6.032   3.838   3.820  1.7584 -0.9662 -1.5181
  602TIP3   OH2 1811   4.070   0.215   2.337  0.1160 -0.1063  0.9498
  602TIP3    H1 1812   4.123   0.159   2.394  0.3465 -1.0447 -0.1543
  602TIP3    H2 1813   4.014   0.155   2.288 -0.2005  0.6860  0.3041
  603TIP3   OH2 1814   6.240   0.341   2.825 -0.1140 -0.4683 -0.2108
  603TIP3    H1 1815   6.232   0.350   2.730 -1.4517 -0.7792 -0.1464
  603TIP3    H2 1816   6.207   0.424   2.860  1.4952  0.1313 -0.0240
  604TIP3   OH2 1817   0.786   5.265   4.591  0.0294 -0.4627 -0.2781
  604TIP3    H1 1818   0.723   5.293   4.657 -1.9843  0.1449 -2.3065
  604TIP3    H2 1819   0.742   5.196   4.543  1.1587 -0.4609 -1.3860
  605TIP3   OH2 1820   1.470   3.157   2.409 -0.0290  0.2198 -0.3078
  605TIP3    H1 1821   1.406   3.205   2.460 -0.9055 -0.2022 -0.9908
  605TIP3    H2 1822   1.540   3.220   2.392 -0.9845  1.1596 -0.8783
  606TIP3   OH2 1823   4.914   4.020   4.218 -0.5282  0.5830 -0.2435
  606TIP3    H1 1824   4.872   3.947   4.172 -1.6853  2.0125 -1.5643
  606TIP3    H2 1825   4.988   4.045   4.163  0.0679  0.2105  0.3750
  607TIP3   OH2 1826   3.707   2.627   1.817 -0.0571 -0.0791 -0.0444
  607TIP3    H1 1827   3.708   2.565   1.891 -0.9756 -1.1840 -0.9180
  607TIP3    H2 1828   3.780   2.600   1.762  1.2207  1.3362  0.8783
  608TIP3   OH2 1829   4.238   0.494   2.457  0.0756  0.0082 -0.0555
  608TIP3    H1 1830   4.227   0.422   2.396 -0.5798 -0.7487  0.9380
  608TIP3    H2 1831   4.330   0.488   2.485  0.5640  0.7423 -1.3987
  609TIP3   OH2 1832   4.403   1.672   3.374 -0.2947 -0.3007 -0.3129
  609TIP3    H1 1833   4.425   1.590   3.331  1.2727 -0.0427 -0.0898
  609TIP3    H2 1834   4.321   1.655   3.420  0.2600 -1.9133  0.1519
  610TIP3   OH2 1835   1.515   1.278   4.145 -0.1630 -0.1700 -0.4381
  610TIP3    H1 1836   1.550   1.240   4.226 -2.3176 -0.5231  0.4173
  610TIP3    H2 1837   1.451   1.342   4.175 -0.7252 -0.0278 -1.8703
  611TIP3   OH2 1838   4.891   5.651   4.847 -0.1557 -0.1864  0.0977
  611TIP3    H1 1839   4.848   5.586   4.792 -1.6279 -0.4037  1.4402
  611TIP3    H2 1840   4.823   5.715   4.866  1.1333  1.5052 -0.7679
  612TIP3   OH2 1841   2.587   1.200   2.565 -0.2307  0.6412  0.1207
  612TIP3    H1 1842   2.584   1.234   2.476 -1.5851  1.1473  0.3408
  612TIP3    H2 1843   2.674   1.225   2.597  1.1033 -1.3282 -1.6993
  613TIP3   OH2 1844   1.345   2.893   5.035 -0.1120  0.3099  0.3529
  613TIP3    H1 1845   1.391   2.930   5.111 -1.4038  0.3195  1.1586
  613TIP3    H2 1846   1.382   2.939   4.960  1.5309 -0.0201  0.9052
  614TIP3   OH2 1847   6.157   5.772   2.745  0.4443 -0.5662  0.1423
  614TIP3    H1 1848   6.181   5.856   2.782  0.8624  0.3900 -2.1231
  614TIP3    H2 1849   6.197   5.772   2.658  0.0455 -2.9080 -0.1010
  615TIP3   OH2 1850   2.391   4.058   2.289 -0.5208  0.2573  0.6394
  615TIP3    H1 1851   2.434   4.078   2.373 -0.4645 -2.4609  1.3638
  615TIP3    H2 1852   2.300   4.040   2.313 -0.4078 -0.9635  0.2255
  616TIP3   OH2 1853   0.339   3.598   1.866 -0.1676  0.4557 -0.2099
  616TIP3    H1 1854   0.305   3.600   1.776 -2.1818  0.0124  0.5023
  616TIP3    H2 1855   0.372   3.508   1.876 -2.1200 -0.2699  0.2035
  617TIP3   OH2 1856   6.120   0.940   4.215 -0.3884 -0.3359 -0.0777
  617TIP3    H1 1857   6.066   0.991   4.275 -0.6807 -0.4900 -0.2071
  617TIP3    H2 1858   6.190   0.904   4.270 -0.4214 -0.1430  0.0921
  618TIP3   OH2 1859   3.469   2.263   0.818  0.5957  0.2081  0.0264
  618TIP3    H1 1860   3.454   2.213   0.898 -1.2509  0.6655  0.0084
  618TIP3    H2 1861   3.531   2.210   0.768 -0.1709 -1.3490  0.6563
  619TIP3   OH2 1862   4.719   3.884   3.768  0.3399 -0.2742  0.1622
  619TIP3    H1 1863   4.648   3.847   3.821  0.7889 -0.1607  0.8538
  619TIP3    H2 1864   4.733   3.820   3.698 -0.9231  0.0389 -0.4105
  620TIP3   OH2 1865   5.225   5.182   4.997 -0.2481  0.1654  0.5653
  620TIP3    H1 1866   5.268   5.112   5.046 -1.6059  0.2510  1.9979
  620TIP3    H2 1867   5.197   5.244   5.065 -0.1422  1.4938 -0.5588
  621TIP3   OH2 1868   2.028   2.218   1.911  0.2912 -0.4417 -0.1512
  621TIP3    H1 1869   1.973   2.188   1.983 -0.5881  0.0072 -0.6067
  621TIP3    H2 1870   1.965   2.252   1.846  0.9364 -1.9626 -1.6718
  622TIP3   OH2 1871   2.488   0.219   2.548  0.1906 -0.9457 -0.5523
  622TIP3    H1 1872   2.514   0.137   2.505 -3.9277 -3.2834  0.8424
  622TIP3    H2 1873   2.501   0.202   2.641 -2.6192 -0.9586 -0.0767
  623TIP3   OH2 1874   3.952   1.012   2.286  0.0711 -0.1607 -0.4248
  623TIP3    H1 1875   3.961   1.062   2.205 -1.8879 -1.0498 -1.2459
  623TIP3    H2 1876   3.950   0.921   2.258 -1.7114 -0.4458  0.4596
  624TIP3   OH2 1877   3.549   2.958   2.783 -0.2139  0.1757  0.2104
  624TIP3    H1 1878   3.617   2.990   2.843  0.6951 -0.6303 -0.3677
  624TIP3    H2 1879   3.485   2.915   2.841 -0.9856  2.1301  0.9053
  625TIP3   OH2 1880   0.502   0.121   0.166  0.4380 -0.1050  0.0164
  625TIP3    H1 1881   0.557   0.059   0.215  0.5634 -0.7143 -0.8622
  625TIP3    H2 1882   0.471   0.070   0.090  0.5691  0.9232 -0.7435
  626TIP3   OH2 1883   5.593   0.227   3.221  0.4836  0.2846  0.2324
  626TIP3    H1 1884   5.605   0.312   3.179  0.3310  0.4137  0.4506
  626TIP3    H2 1885   5.515   0.238   3.275  0.9024  0.2319  0.8510
  627TIP3   OH2 1886   5.746   1.526   5.176 -0.0349 -0.2041 -0.8034
  627TIP3    H1 1887   5.736   1.620   5.195 -0.5072 -0.1575 -1.2688
  627TIP3    H2 1888   5.819   1.521   5.115  0.8944 -0.2731  0.2658
  628TIP3   OH2 1889   1.975   1.586   3.083  0.3829  0.1935  0.1772
  628TIP3    H1 1890   1.922   1.507   3.093 -0.7131  1.1121  2.6123
  628TIP3    H2 1891   2.065   1.556   3.091 -0.0411 -0.7740  2.1416
  629TIP3   OH2 1892   5.774   1.029   0.181  0.1323 -0.4196  0.5810
  629TIP3    H1 1893   5.827   1.006   0.105  0.8194  0.9667  0.6148
  629TIP3    H2 1894   5.838   1.053   0.248 -0.5201  1.3269  0.6115
  630TIP3   OH2 1895   4.043   4.288   0.159  0.6265  0.3289 -0.3818
  630TIP3    H1 1896   3.978   4.357   0.165  1.0353  0.6132  1.3227
  630TIP3    H2 1897   4.127   4.333   0.157  0.9319 -0.0782  1.4021
  631TIP3   OH2 1898   3.362   2.255   5.128  0.1126  0.0482  0.2828
  631TIP3    H1 1899   3.426   2.309   5.080 -0.3302  0.7513  0.4581
  631TIP3    H2 1900   3.280   2.303   5.118 -1.2248 -2.5372 -2.8598
  632TIP3   OH2 1901   3.100   0.612   1.371 -0.3559 -0.1177 -0.0813
  632TIP3    H1 1902   3.196   0.617   1.379 -0.2474  0.3282 -1.3696
  632TIP3    H2 1903   3.084   0.613   1.277 -1.6775  0.8126  0.1253
  633TIP3   OH2 1904   5.572   2.343   3.641 -0.1050  0.3687 -0.0908
  633TIP3    H1 1905   5.598   2.435   3.634  0.6262  0.3244  1.5860
  633TIP3    H2 1906   5.493   2.344   3.694  1.0700 -0.0843  1.7455
  634TIP3   OH2 1907   3.575   4.543   3.594 -0.1241  0.0989 -0.4677
  634TIP3    H1 1908   3.615   4.467   3.551 -0.2191  0.9800 -2.2193
  634TIP3    H2 1909   3.481   4.533   3.576 -0.1451  0.5689 -0.6175
  635TIP3   OH2 1910   5.966   5.639   0.877  0.1345 -0.0006  0.0333
  635TIP3    H1 1911   5.998   5.555   0.845  1.1815  1.5387 -3.4598
  635TIP3    H2 1912   5.879   5.649   0.837  1.0233  1.5214 -1.6768
  636TIP3   OH2 1913   0.271   0.797   4.209 -1.0052 -0.0443  0.1218
  636TIP3    H1 1914   0.209   0.797   4.137 -1.3899  1.0772  0.4401
  636TIP3    H2 1915   0.220   0.826   4.285 -0.0779  1.0569  0.3523
  637TIP3   OH2 1916   2.624   4.826   4.679  0.3514 -0.1771  0.1602
  637TIP3    H1 1917   2.717   4.804   4.675  0.5425  0.6753 -0.3208
  637TIP3    H2 1918   2.611   4.889   4.608 -0.6167 -0.3738  0.1547
  638TIP3   OH2 1919   2.181   4.190   1.140  0.0407  0.6376 -0.0434
  638TIP3    H1 1920   2.276   4.179   1.143 -0.1522 -1.2724  0.5197
  638TIP3    H2 1921   2.153   4.132   1.069 -0.8001  0.2385  0.5961
  639TIP3   OH2 1922   4.995   3.805   5.101  0.4340 -0.0699  0.0130
  639TIP3    H1 1923   4.922   3.802   5.039  0.1567  0.9948  0.2585
  639TIP3    H2 1924   5.054   3.870   5.064  0.4960  0.2226  0.6188
  640TIP3   OH2 1925   6.304   2.567   1.303 -0.4020 -0.0773 -0.0534
  640TIP3    H1 1926   6.280   2.637   1.364 -0.7272 -0.3574  0.1411
  640TIP3    H2 1927   6.337   2.497   1.358 -0.6203 -0.2999 -0.2045
  641TIP3   OH2 1928   1.899   5.612   3.049 -0.1309  0.2424 -0.6034
  641TIP3    H1 1929   1.816   5.578   3.014 -0.3504  1.0819 -0.9029
  641TIP3    H2 1930   1.928   5.676   2.985  0.4970  0.3208 -0.2448
  642TIP3   OH2 1931   0.562   0.810   1.438  0.0388  0.9815  0.0565
  642TIP3    H1 1932   0.491   0.809   1.503  0.1827  1.3088  0.2215
  642TIP3    H2 1933   0.608   0.892   1.455  0.9883  0.3651  0.5148
  643TIP3   OH2 1934   2.521   2.505   2.023 -0.7855  0.0651  0.1250
  643TIP3    H1 1935   2.593   2.513   1.961 -1.0440 -0.0245 -0.1861
  643TIP3    H2 1936   2.563   2.508   2.109 -0.3985 -0.1478 -0.0583
  644TIP3   OH2 1937   4.675   5.291   4.219 -0.0319  0.0581  0.2454
  644TIP3    H1 1938   4.581   5.307   4.219  0.4326  3.6108  0.1750
  644TIP3    H2 1939   4.689   5.228   4.149 -2.5081 -2.4882  1.8501
  645TIP3   OH2 1940   5.916   4.441   1.797  0.1534  0.0949 -0.0035
  645TIP3    H1 1941   5.897   4.533   1.815 -1.9656 -0.4870  1.0595
  645TIP3    H2 1942   5.915   4.399   1.883 -0.8416 -1.2161 -0.6138
  646TIP3   OH2 1943   6.112   0.419   2.307 -0.0971  0.4208  0.2726
  646TIP3    H1 1944   6.159   0.337   2.292 -2.2499 -1.2233  1.8984
  646TIP3    H2 1945   6.054   0.429   2.232  0.6275  0.8318 -0.2430
  647TIP3   OH2 1946   1.778   5.313   2.144 -0.1886 -0.4445 -0.1452
  647TIP3    H1 1947   1.872   5.305   2.131  0.0694 -2.8467  2.2495
  647TIP3    H2 1948   1.740   5.247   2.085 -0.4302  0.5936 -1.1877
  648TIP3   OH2 1949   2.876   4.602   1.582  0.1177  0.0233  0.1468
  648TIP3    H1 1950   2.919   4.539   1.524 -0.8550 -2.5376  2.0336
  648TIP3    H2 1951   2.816   4.651   1.525  1.8948  0.2539 -1.6046
  649TIP3   OH2 1952   5.923   0.561   4.150 -0.1894  0.5003  0.5360
  649TIP3    H1 1953   5.844   0.612   4.166 -0.0552  0.8334  0.1673
  649TIP3    H2 1954   5.951   0.531   4.236 -1.0572 -0.1298  0.6000
  650TIP3   OH2 1955   6.192   4.834   0.524 -0.0177 -0.4082 -0.0087
  650TIP3    H1 1956   6.247   4.910   0.504  1.4012 -1.1111  1.0256
  650TIP3    H2 1957   6.206   4.774   0.451  0.1770 -0.3568 -0.0153
  651TIP3   OH2 1958   5.832   0.658   4.728  0.3589  0.2874 -0.5044
  651TIP3    H1 1959   5.853   0.687   4.816  0.6364 -1.2006 -0.0574
  651TIP3    H2 1960   5.737   0.664   4.722  0.3788  0.8596 -0.2850
  652TIP3   OH2 1961   1.463   5.284   2.531 -0.2376 -0.0166 -0.3856
  652TIP3    H1 1962   1.482   5.241   2.614  0.5482  0.1846 -0.4513
  652TIP3    H2 1963   1.502   5.227   2.465  2.1610  1.4884 -0.3875
  653TIP3   OH2 1964   2.754   1.814   1.698  0.1851 -0.1037  0.3994
  653TIP3    H1 1965   2.672   1.804   1.747 -1.6245  2.0972 -1.9235
  653TIP3    H2 1966   2.796   1.890   1.736  0.9248 -0.8929  1.2110
  654TIP3   OH2 1967   5.392   0.556   3.027  0.3220 -0.0505  0.2445
  654TIP3    H1 1968   5.444   0.603   2.961  0.4203 -0.2072  0.2114
  654TIP3    H2 1969   5.306   0.546   2.987  0.1806  0.4496  0.4046
  655TIP3   OH2 1970   1.917   0.930   0.505  0.7529  0.1124 -0.0955
  655TIP3    H1 1971   1.931   0.943   0.599  1.5495 -2.0566  0.1312
  655TIP3    H2 1972   1.832   0.886   0.499  0.1090  1.3585 -0.5184
  656TIP3   OH2 1973   3.642   2.763   0.289  0.6116  0.3411 -0.0737
  656TIP3    H1 1974   3.559   2.809   0.300  1.1807  1.1329  1.1937
  656TIP3    H2 1975   3.675   2.751   0.378  1.4757 -0.6972 -0.5047
  657TIP3   OH2 1976   2.859   0.496   2.906  0.2180  0.0569 -0.2675
  657TIP3    H1 1977   2.876   0.530   2.993 -3.0888 -0.1703  0.6034
  657TIP3    H2 1978   2.818   0.411   2.921 -0.3070 -0.0400 -2.0480
  658TIP3   OH2 1979   4.166   2.490   4.701 -0.5133 -0.0646  0.0945
  658TIP3    H1 1980   4.174   2.580   4.732  1.5797 -0.2500  0.2667
  658TIP3    H2 1981   4.212   2.489   4.616  0.1868 -1.1062  0.4585
  659TIP3   OH2 1982   0.799   2.492   3.298  0.5367 -0.3138 -0.2691
  659TIP3    H1 1983   0.875   2.444   3.330 -0.5653 -0.6927  1.8914
  659TIP3    H2 1984   0.808   2.579   3.336  0.7614  0.2032 -1.4435
  660TIP3   OH2 1985   1.810   3.010   2.555  0.0492  0.1756 -0.1744
  660TIP3    H1 1986   1.752   3.083   2.576  0.7422  0.5353  0.5469
  660TIP3    H2 1987   1.858   2.994   2.636  1.2924  0.2072 -0.8807
  661TIP3   OH2 1988   3.990   2.971   1.843 -0.1061  0.8476 -0.0650
  661TIP3    H1 1989   4.068   2.941   1.890 -0.1152 -0.4501 -0.8343
  661TIP3    H2 1990   4.025   3.015   1.766 -0.0799 -1.4443 -1.4502
  662TIP3   OH2 1991   2.225   0.775   0.152 -0.0989 -0.1408  0.2879
  662TIP3    H1 1992   2.191   0.761   0.240  0.5225 -1.0080  0.4065
  662TIP3    H2 1993   2.252   0.688   0.122 -0.9134  0.0249 -1.0310
  663TIP3   OH2 1994   5.317   0.396   1.568 -0.4421  0.4088 -0.1564
  663TIP3    H1 1995   5.305   0.342   1.646  0.0801 -0.4064 -0.6219
  663TIP3    H2 1996   5.357   0.337   1.504 -0.3827  1.2015 -0.8704
  664TIP3   OH2 1997   4.067   5.730   1.974  0.0497 -0.3124 -0.3770
  664TIP3    H1 1998   4.057   5.794   1.904  0.2694  0.3258  0.1756
  664TIP3    H2 1999   4.005   5.660   1.951  1.2321 -0.8596 -2.0463
  665TIP3   OH2 2000   2.783   1.776   0.545  0.1089  0.4303 -0.2881
  665TIP3    H1 2001   2.812   1.845   0.605 -1.2871  0.1591  0.7443
  665TIP3    H2 2002   2.861   1.752   0.496  0.7270  2.3985 -0.3181
  666TIP3   OH2 2003   3.778   2.273   1.760  0.7138  0.0502 -0.1186
  666TIP3    H1 2004   3.719   2.262   1.686  2.1600 -1.0694 -1.1668
  666TIP3    H2 2005   3.774   2.190   1.807  1.3656 -0.0170 -0.1655
  667TIP3   OH2 2006   1.999   5.057   3.760  0.7411 -0.6425 -0.5938
  667TIP3    H1 2007   2.082   5.075   3.716  0.3004  0.2412 -1.0927
  667TIP3    H2 2008   2.015   5.077   3.852 -0.0354  3.8069 -1.2271
  668TIP3   OH2 2009   0.139   0.391   0.326  0.0767 -0.1648 -0.2276
  668TIP3    H1 2010   0.140   0.297   0.339  0.5778 -0.0528  0.5676
  668TIP3    H2 2011   0.118   0.402   0.233 -1.8976 -1.0176  0.0509
  669TIP3   OH2 2012   6.209   3.046   2.925  0.1008 -0.0884 -0.3277
  669TIP3    H1 2013   6.253   3.103   2.862  0.1850  0.4446  0.2106
  669TIP3    H2 2014   6.266   3.045   3.001 -1.1636  1.2591  0.7027
  670TIP3   OH2 2015   5.361   0.010   4.158  0.1220  0.3606 -0.2525
  670TIP3    H1 2016   5.364   0.106   4.155  1.4621  0.3653  0.7021
  670TIP3    H2 2017   5.414  -0.013   4.233  0.4831 -1.1844 -0.9521
  671TIP3   OH2 2018   6.280   0.085   5.032 -0.2322 -0.1445 -0.0830
  671TIP3    H1 2019   6.371   0.064   5.009 -0.0382  0.0676  0.4495
  671TIP3    H2 2020   6.239   0.001   5.049  0.1578 -0.1959  0.6885
  672TIP3   OH2 2021   4.161   5.145   0.769  0.4197 -0.2501 -0.6004
  672TIP3    H1 2022   4.239   5.195   0.745 -0.8047  1.9431 -0.3005
  672TIP3    H2 2023   4.151   5.080   0.700  1.0471  1.1786 -2.1028
  673TIP3   OH2 2024   5.474   4.597   4.658  0.6389 -0.2086  0.6904
  673TIP3    H1 2025   5.567   4.574   4.670  0.1173 -1.6876  2.3331
  673TIP3    H2 2026   5.427   4.517   4.682 -1.0561  0.0066 -1.6151
  674TIP3   OH2 2027   5.254   5.566   4.293 -0.7588 -0.3719 -0.5422
  674TIP3    H1 2028   5.226   5.523   4.374 -1.4563 -0.1857 -0.6791
  674TIP3    H2 2029   5.350   5.573   4.302 -0.6712 -1.6079 -0.3566
  675TIP3   OH2 2030   2.853   1.637   3.501 -0.0095 -0.0259 -0.2325
  675TIP3    H1 2031   2.778   1.607   3.552  0.2945  0.8089  0.7491
  675TIP3    H2 2032   2.814   1.677   3.423 -0.4148 -3.4064 -1.9707
  676TIP3   OH2 2033   2.121   3.028   0.580 -0.1422 -0.7468 -0.6918
  676TIP3    H1 2034   2.214   3.043   0.597 -0.0586 -1.1128 -0.8113
  676TIP3    H2 2035   2.091   3.105   0.532 -0.3081  0.1829  0.8398
  677TIP3   OH2 2036   3.097   2.985   4.312 -0.1254  0.4096  0.0993
  677TIP3    H1 2037   3.069   2.894   4.308  1.1274 -0.0254  0.6916
  677TIP3    H2 2038   3.022   3.032   4.349  0.0771 -0.8046  2.2223
  678TIP3   OH2 2039   0.852   4.321   4.739 -0.0735  0.2819 -0.0636
  678TIP3    H1 2040   0.779   4.365   4.696 -0.4760 -2.0175 -1.9280
  678TIP3    H2 2041   0.884   4.258   4.674  2.1172 -0.3597  1.5151
  679TIP3   OH2 2042   3.379   5.161   3.854 -0.4016  0.5176 -0.6618
  679TIP3    H1 2043   3.448   5.225   3.869 -2.4408  3.2622 -1.8596
  679TIP3    H2 2044   3.336   5.151   3.939 -0.1747  0.9270 -0.4956
  680TIP3   OH2 2045   2.128   2.127   2.950  0.2969  0.1687 -0.1103
  680TIP3    H1 2046   2.131   2.065   2.877 -0.1678 -0.3077  0.2673
  680TIP3    H2 2047   2.130   2.072   3.028  1.2769  0.6954  0.2483
  681TIP3   OH2 2048   2.209   4.962   2.207  1.3822  0.2563 -0.1763
  681TIP3    H1 2049   2.170   4.924   2.129  0.7818  0.2748  0.1120
  681TIP3    H2 2050   2.135   4.986   2.263  1.8245 -1.2334  1.1184
  682TIP3   OH2 2051   3.322   3.590   2.150 -0.5951  0.5025 -0.3674
  682TIP3    H1 2052   3.305   3.685   2.146 -0.3262  0.6378  1.1254
  682TIP3    H2 2053   3.326   3.571   2.244  1.3924 -0.6267 -0.6259
  683TIP3   OH2 2054   2.201   4.679   1.563 -0.2262 -0.5362 -0.6035
  683TIP3    H1 2055   2.133   4.657   1.626  0.3047 -1.4163 -0.3192
  683TIP3    H2 2056   2.278   4.699   1.616 -0.0119 -0.4247 -0.9526
  684TIP3   OH2 2057   5.320   3.419   1.306  0.6790  0.0458  0.2597
  684TIP3    H1 2058   5.372   3.403   1.227 -1.4275 -0.8815 -1.0341
  684TIP3    H2 2059   5.374   3.385   1.378  3.0223  1.7095 -0.5979
  685TIP3   OH2 2060   4.147   4.930   2.759 -0.2922 -0.5779 -0.7575
  685TIP3    H1 2061   4.129   4.841   2.791  0.0636 -0.3869 -0.0118
  685TIP3    H2 2062   4.061   4.971   2.753 -0.2435  0.2371  2.4901
  686TIP3   OH2 2063   0.765   0.250   3.420  0.8155 -0.1677 -0.2063
  686TIP3    H1 2064   0.860   0.255   3.411  0.6906 -0.2894 -1.9370
  686TIP3    H2 2065   0.736   0.201   3.343 -0.8096  1.4540 -0.7072
  687TIP3   OH2 2066   2.450   5.782   1.041 -0.0889 -0.1848  0.0776
  687TIP3    H1 2067   2.406   5.731   1.108  0.8376 -2.2947 -0.8143
  687TIP3    H2 2068   2.537   5.798   1.077 -0.6476  1.5748  0.7072
  688TIP3   OH2 2069   3.185   3.449   3.528 -0.0670  0.4051  0.1942
  688TIP3    H1 2070   3.105   3.424   3.483  0.3474  1.4605 -1.2070
  688TIP3    H2 2071   3.182   3.545   3.531  1.6692  0.5381 -0.9809
  689TIP3   OH2 2072   2.329   5.422   4.544  0.3180 -0.0817  0.1314
  689TIP3    H1 2073   2.298   5.436   4.633  0.1452 -0.8849  0.2098
  689TIP3    H2 2074   2.379   5.501   4.522  0.8803 -0.1405  1.1582
  690TIP3   OH2 2075   0.447   0.480   0.347  0.2344  0.0267 -0.3225
  690TIP3    H1 2076   0.439   0.394   0.387 -0.4511 -0.6185 -1.7758
  690TIP3    H2 2077   0.365   0.524   0.367  0.3185  0.0932 -0.1276
  691TIP3   OH2 2078   0.771   5.910   4.360 -0.1509  0.4890 -0.7066
  691TIP3    H1 2079   0.855   5.901   4.317  0.4320  1.5859  0.1413
  691TIP3    H2 2080   0.714   5.949   4.294 -0.0048 -0.2469 -1.2783
  692TIP3   OH2 2081   1.551   4.234   2.054 -0.3944 -0.1271 -0.0802
  692TIP3    H1 2082   1.580   4.292   2.124 -1.0402 -0.7551  0.7233
  692TIP3    H2 2083   1.605   4.155   2.064 -0.3840 -0.1592 -0.3821
  693TIP3   OH2 2084   1.664   1.114   4.300  0.1493  0.3013 -0.0603
  693TIP3    H1 2085   1.654   1.029   4.258 -0.5033 -0.7732  2.1196
  693TIP3    H2 2086   1.757   1.119   4.322  0.1210 -0.0350  0.1449
  694TIP3   OH2 2087   4.744   3.693   1.847  0.5509  0.3393 -0.0467
  694TIP3    H1 2088   4.810   3.702   1.777  0.7801 -2.6814 -0.3865
  694TIP3    H2 2089   4.660   3.705   1.802  0.7714  1.0927 -0.2699
  695TIP3   OH2 2090   1.728   4.187   0.076 -0.1272  0.3624 -0.2016
  695TIP3    H1 2091   1.806   4.190   0.131 -1.2774  0.3497  1.4999
  695TIP3    H2 2092   1.669   4.251   0.115 -0.6315  1.0819 -2.0396
  696TIP3   OH2 2093   5.249   2.564   2.347  0.0171 -0.0996 -0.1218
  696TIP3    H1 2094   5.339   2.545   2.371  0.0037  0.3393  0.2948
  696TIP3    H2 2095   5.233   2.652   2.380 -0.9785 -0.6712  1.0315
  697TIP3   OH2 2096   1.505   5.503   2.164  0.0189 -0.2193 -0.0998
  697TIP3    H1 2097   1.427   5.548   2.131  0.4338  0.3183 -0.3624
  697TIP3    H2 2098   1.557   5.484   2.086 -0.1020 -1.0753  0.0175
  698TIP3   OH2 2099   4.689   3.636   4.760 -0.3685 -0.6639 -0.1622
  698TIP3    H1 2100   4.735   3.595   4.833 -0.7795  0.4075  0.7354
  698TIP3    H2 2101   4.667   3.724   4.792 -0.0011  0.0636 -1.8106
  699TIP3   OH2 2102   5.535   0.578   4.776 -0.3720 -0.2075  0.1620
  699TIP3    H1 2103   5.514   0.639   4.847 -1.0248 -1.8319  1.4296
  699TIP3    H2 2104   5.536   0.492   4.818  2.7414 -0.9308 -1.0748
  700TIP3   OH2 2105   1.847   2.333   1.760 -0.7588  0.2887  0.2204
  700TIP3    H1 2106   1.784   2.363   1.826  0.2626 -0.1330  1.4425
  700TIP3    H2 2107   1.870   2.412   1.711 -0.7035  0.8393  1.1163
  701TIP3   OH2 2108   5.153   1.732   0.089  0.1189  0.0645 -0.1619
  701TIP3    H1 2109   5.177   1.670   0.158  0.2169 -0.3560 -0.5654
  701TIP3    H2 2110   5.237   1.765   0.056  0.0433  1.2452  0.7845
  702TIP3   OH2 2111   2.300   3.284   1.049 -0.0274 -0.4623 -0.1219
  702TIP3    H1 2112   2.340   3.298   0.964 -0.9774 -0.0694 -0.5221
  702TIP3    H2 2113   2.235   3.354   1.056  0.4993 -0.0771  1.2122
  703TIP3   OH2 2114   3.473   3.121   1.939  0.9994  0.3066  0.3943
  703TIP3    H1 2115   3.437   3.063   1.871  2.0410  0.7672 -0.5916
  703TIP3    H2 2116   3.531   3.064   1.990 -0.6120 -0.2990  1.6225
  704TIP3   OH2 2117   1.224   0.286   4.583  0.0621 -0.2747 -0.3337
  704TIP3    H1 2118   1.177   0.235   4.649  0.7591 -2.7887 -1.6267
  704TIP3    H2 2119   1.178   0.268   4.501  0.2650  1.3556 -0.8342
  705TIP3   OH2 2120   1.931   2.204   0.563 -0.0192  0.5905 -0.0779
  705TIP3    H1 2121   2.008   2.222   0.617  0.2122  0.6900 -0.4433
  705TIP3    H2 2122   1.858   2.203   0.626  0.5085 -1.4125  0.5607
  706TIP3   OH2 2123   4.692   5.881   1.033  0.2473  0.7773 -0.0299
  706TIP3    H1 2124   4.741   5.892   0.952  0.1616  1.6032  0.0203
  706TIP3    H2 2125   4.627   5.952   1.031  0.4513  0.9973  0.9019
  707TIP3   OH2 2126   5.810   2.194   4.592 -0.3244  0.4624 -0.0613
  707TIP3    H1 2127   5.782   2.149   4.512 -1.2691  2.0660 -0.6926
  707TIP3    H2 2128   5.728   2.222   4.633  0.1909  0.5336  0.9553
  708TIP3   OH2 2129   2.787   4.302   1.104  0.5150 -0.4532 -0.3439
  708TIP3    H1 2130   2.856   4.272   1.044  1.6154 -0.1383  0.7215
  708TIP3    H2 2131   2.833   4.357   1.168 -0.9113  0.6881 -0.2401
  709TIP3   OH2 2132   6.277   0.589   3.340  0.1611 -0.0330 -0.2045
  709TIP3    H1 2133   6.266   0.595   3.434 -1.1842  0.7481 -0.3986
  709TIP3    H2 2134   6.371   0.605   3.326  0.4501 -0.5657  1.0088
  710TIP3   OH2 2135   2.198   0.981   2.152 -0.1785  0.3780 -0.2936
  710TIP3    H1 2136   2.169   0.902   2.106  0.5922  0.4323 -0.9105
  710TIP3    H2 2137   2.173   0.967   2.243 -0.7528 -0.2309 -0.5372
  711TIP3   OH2 2138   0.308   2.653   3.831  0.1504  0.2273 -0.1140
  711TIP3    H1 2139   0.227   2.604   3.815  0.0641  0.6957 -1.1888
  711TIP3    H2 2140   0.281   2.744   3.834  0.4196  0.2855  1.1652
  712TIP3   OH2 2141   1.353   1.649   3.652 -0.1243 -0.3055  0.1825
  712TIP3    H1 2142   1.432   1.604   3.622 -1.0897 -1.8949 -0.0746
  712TIP3    H2 2143   1.308   1.674   3.571  0.8271  2.0085  0.2959
  713TIP3   OH2 2144   2.476   5.190   2.458  0.5522 -0.0537  0.0207
  713TIP3    H1 2145   2.440   5.211   2.372  0.5861  1.3024  0.3113
  713TIP3    H2 2146   2.410   5.220   2.520  2.3184  3.1755  0.5948
  714TIP3   OH2 2147   0.685   4.450   4.535  0.6245 -0.0037  0.5452
  714TIP3    H1 2148   0.635   4.457   4.617 -1.4274  0.2356 -0.6574
  714TIP3    H2 2149   0.641   4.380   4.486  0.7349  1.0081 -1.0625
  715TIP3   OH2 2150   1.650   0.671   4.040  0.2951  0.1001  0.0797
  715TIP3    H1 2151   1.598   0.747   4.063  0.2727 -0.0426  0.4985
  715TIP3    H2 2152   1.683   0.690   3.952 -2.1534 -0.6950 -1.1052
  716TIP3   OH2 2153   4.415   1.332   1.879  0.5606  0.0416 -0.0998
  716TIP3    H1 2154   4.497   1.330   1.927  0.4164  0.1516  0.1537
  716TIP3    H2 2155   4.365   1.403   1.920  0.2059 -0.2453 -0.0335
  717TIP3   OH2 2156   2.525   2.992   2.956 -0.1106  0.1028  0.0110
  717TIP3    H1 2157   2.443   3.040   2.967 -0.2880 -0.0690 -0.5214
  717TIP3    H2 2158   2.510   2.938   2.879  0.2230 -0.5335  0.3931
  718TIP3   OH2 2159   0.305   3.473   1.645 -0.9339 -0.0449 -0.1956
  718TIP3    H1 2160   0.313   3.523   1.564 -1.6495  0.1336 -0.1678
  718TIP3    H2 2161   0.344   3.388   1.625  2.7749  1.2938  0.5408
  719TIP3   OH2 2162   2.439   4.882   4.046  0.2804 -0.2143  0.2468
  719TIP3    H1 2163   2.416   4.973   4.065  3.3417  1.3192 -2.4102
  719TIP3    H2 2164   2.530   4.874   4.075  0.1792 -2.3480  0.1215
  720TIP3   OH2 2165   0.728   5.777   1.162  0.1670  0.1704  0.1388
  720TIP3    H1 2166   0.804   5.800   1.109  1.3591 -0.4050  1.5300
  720TIP3    H2 2167   0.737   5.829   1.242 -0.4312 -0.5462  0.6911
  721TIP3   OH2 2168   3.829   2.007   2.530  0.4095  0.1040 -0.1955
  721TIP3    H1 2169   3.751   1.997   2.584  0.0226 -3.2966 -1.1243
  721TIP3    H2 2170   3.863   2.093   2.552 -3.2142  1.4859  0.7074
  722TIP3   OH2 2171   1.117   2.141   5.176  0.3170  0.4136  0.4309
  722TIP3    H1 2172   1.043   2.186   5.135  0.2378  0.4580  0.6190
  722TIP3    H2 2173   1.100   2.048   5.161  1.3403  0.4730 -1.4421
  723TIP3   OH2 2174   4.727   0.997   3.858 -1.0568 -0.6450  0.1113
  723TIP3    H1 2175   4.667   1.068   3.881 -1.0209 -0.0648 -1.4433
  723TIP3    H2 2176   4.753   1.016   3.768  1.7757 -0.6473  0.8345
  724TIP3   OH2 2177   0.856   5.848   0.011  0.5446  0.1742  0.0234
  724TIP3    H1 2178   0.918   5.849  -0.062 -0.6002  0.1158 -0.9772
  724TIP3    H2 2179   0.911   5.834   0.089  2.0344  2.2581 -0.5546
  725TIP3   OH2 2180   0.520   5.697   3.940  0.5924  0.5823  0.7188
  725TIP3    H1 2181   0.440   5.696   3.886  0.2543  0.8923  1.2052
  725TIP3    H2 2182   0.488   5.691   4.030  1.1704 -0.3464  0.8779
  726TIP3   OH2 2183   0.068   0.698   0.565 -0.5976  0.2029 -0.4859
  726TIP3    H1 2184   0.109   0.651   0.637  0.3894  0.9739 -0.5287
  726TIP3    H2 2185  -0.002   0.640   0.536 -0.6332 -0.3797  0.6996
  727TIP3   OH2 2186   3.805   0.204   0.345 -0.2923 -0.5851  0.1214
  727TIP3    H1 2187   3.792   0.297   0.326  2.3831 -0.0112  0.8193
  727TIP3    H2 2188   3.896   0.187   0.321 -0.0073 -2.4246  2.2522
  728TIP3   OH2 2189   2.047   4.066   0.452  0.1920 -0.1297  0.5254
  728TIP3    H1 2190   1.952   4.060   0.459 -0.0168  0.5436 -1.1596
  728TIP3    H2 2191   2.080   4.000   0.513 -1.3483 -0.4301  1.0748
  729TIP3   OH2 2192   2.868   4.842   1.273  0.2517 -0.1434  0.1695
  729TIP3    H1 2193   2.809   4.917   1.273 -1.0470 -1.1046 -0.8787
  729TIP3    H2 2194   2.823   4.776   1.326  0.7568 -0.6118  0.0268
  730TIP3   OH2 2195   2.934   1.772   1.020 -0.1877 -0.2817 -0.1448
  730TIP3    H1 2196   2.841   1.754   1.009 -0.2990 -0.0513  0.3699
  730TIP3    H2 2197   2.937   1.857   1.065  0.2294 -0.8409  0.9352
  731TIP3   OH2 2198   5.262   3.733   4.511  0.5555  0.5863 -0.2581
  731TIP3    H1 2199   5.257   3.775   4.597  1.8559 -0.6014  0.4359
  731TIP3    H2 2200   5.354   3.711   4.501  0.2413 -0.2307 -1.5023
  732TIP3   OH2 2201   5.990   3.417   3.475 -0.4593 -0.0653  0.2294
  732TIP3    H1 2202   5.961   3.473   3.547 -0.8528 -1.2142  0.9933
  732TIP3    H2 2203   6.083   3.439   3.464 -0.4111  0.1796  1.0333
  733TIP3   OH2 2204   0.810   2.753   1.344  0.1232 -0.0827 -0.4128
  733TIP3    H1 2205   0.753   2.675   1.347  0.7005 -0.6131 -2.1065
  733TIP3    H2 2206   0.753   2.825   1.370 -0.6064 -0.9633  0.5392
  734TIP3   OH2 2207   4.788   0.521   1.093 -0.1251 -0.2815 -0.0179
  734TIP3    H1 2208   4.701   0.538   1.056  0.0104  0.9573  0.2121
  734TIP3    H2 2209   4.776   0.528   1.188 -0.1988 -2.2060  0.1637
  735TIP3   OH2 2210   0.312   4.822   4.033 -0.2390 -0.3131 -0.2096
  735TIP3    H1 2211   0.359   4.862   3.960 -0.9102 -0.5678 -0.7993
  735TIP3    H2 2212   0.222   4.813   4.001 -0.2536 -1.6826  0.1303
  736TIP3   OH2 2213   2.304   4.493   1.925 -0.1037  0.2372  0.5156
  736TIP3    H1 2214   2.245   4.463   1.994  0.2417 -2.9915 -0.4395
  736TIP3    H2 2215   2.249   4.549   1.869 -1.4378 -0.2660  1.2818
  737TIP3   OH2 2216   6.162   0.991   0.138  0.8782 -0.2402  0.0963
  737TIP3    H1 2217   6.252   0.973   0.111  0.6471 -0.0832 -0.8332
  737TIP3    H2 2218   6.168   1.069   0.194  1.3574 -0.4420  0.3262
  738TIP3   OH2 2219   5.469   3.921   5.010 -0.4474 -0.4479  0.2651
  738TIP3    H1 2220   5.379   3.947   5.030 -0.6865 -2.6243  2.5639
  738TIP3    H2 2221   5.522   3.998   5.029 -1.6857  0.4417  0.1879
  739TIP3   OH2 2222   3.041   4.827   0.939 -0.0664 -0.2059 -0.6906
  739TIP3    H1 2223   2.970   4.800   0.881 -0.4301  1.2001 -0.9360
  739TIP3    H2 2224   3.105   4.869   0.881 -0.1884  0.7389 -0.1523
  740TIP3   OH2 2225   5.862   4.273   4.919 -0.1054 -0.0540  0.6654
  740TIP3    H1 2226   5.866   4.363   4.886 -1.1911 -0.7723 -1.6764
  740TIP3    H2 2227   5.940   4.264   4.975  1.7925  1.4354 -1.5364
  741TIP3   OH2 2228   0.974   4.280   4.974 -0.0842  0.1327  0.3948
  741TIP3    H1 2229   0.946   4.305   4.886 -0.3021  1.9923  0.9281
  741TIP3    H2 2230   0.893   4.260   5.021 -0.2534  1.7021  0.8516
  742TIP3   OH2 2231   3.613   0.981   4.693  0.0234 -0.3480 -0.0556
  742TIP3    H1 2232   3.526   1.017   4.677 -0.4222 -1.6344 -0.7257
  742TIP3    H2 2233   3.648   0.961   4.606  1.6013  1.4405  0.1149
  743TIP3   OH2 2234   4.559   4.272   3.601 -0.5329 -0.4774 -0.6733
  743TIP3    H1 2235   4.465   4.279   3.586 -0.1775 -0.2378 -3.1771
  743TIP3    H2 2236   4.593   4.359   3.582  0.3473 -0.9012 -1.0894
  744TIP3   OH2 2237   3.850   0.269   3.821 -0.4898 -0.3801  0.2916
  744TIP3    H1 2238   3.933   0.221   3.822 -0.7339 -1.0494 -2.7267
  744TIP3    H2 2239   3.874   0.358   3.798 -0.5581 -0.4357  0.0063
  745TIP3   OH2 2240   4.148   5.011   1.045 -0.0405 -0.2482  0.1632
  745TIP3    H1 2241   4.134   5.095   1.000  1.0707 -0.4811 -0.6500
  745TIP3    H2 2242   4.086   4.951   1.004 -1.1350  0.2511  1.0328
  746TIP3   OH2 2243   4.400   1.784   4.077  0.3649  0.9200 -0.5821
  746TIP3    H1 2244   4.404   1.877   4.057  0.3261  0.9798 -0.3236
  746TIP3    H2 2245   4.430   1.741   3.997  0.0669  1.1399 -0.8148
  747TIP3   OH2 2246   0.762   4.206   3.524  0.3751 -0.1493 -0.1493
  747TIP3    H1 2247   0.785   4.258   3.602  0.1692 -0.1738 -0.0723
  747TIP3    H2 2248   0.736   4.121   3.559 -1.9360  0.5280 -0.0460
  748TIP3   OH2 2249   1.526   3.129   1.709  0.0655  0.1773 -0.3675
  748TIP3    H1 2250   1.472   3.166   1.779 -1.2972 -1.7333 -0.3502
  748TIP3    H2 2251   1.497   3.174   1.630 -0.5506  0.1658 -0.1502
  749TIP3   OH2 2252   4.536   3.572   4.539 -0.2831  0.8044 -0.3219
  749TIP3    H1 2253   4.601   3.572   4.609 -0.4223  0.9531 -0.1934
  749TIP3    H2 2254   4.454   3.595   4.581 -0.2915  1.3113 -0.6042
  750TIP3   OH2 2255   4.104   3.707   2.350  0.5752 -0.1354  0.0343
  750TIP3    H1 2256   4.069   3.648   2.283 -0.2255 -1.2793  1.4135
  750TIP3    H2 2257   4.193   3.726   2.320 -0.3988  1.0826 -2.4108
  751TIP3   OH2 2258   2.876   3.868   3.559 -0.1242  0.3219 -0.3866
  751TIP3    H1 2259   2.942   3.875   3.490  0.9942  0.4035  0.6528
  751TIP3    H2 2260   2.795   3.901   3.518  1.0467  2.7922 -0.9176
  752TIP3   OH2 2261   1.622   0.087   2.657 -0.8703  0.4810 -0.0768
  752TIP3    H1 2262   1.644   0.158   2.717  0.0256  0.2144 -0.0803
  752TIP3    H2 2263   1.681   0.099   2.583 -1.5685  0.4602 -0.6411
  753TIP3   OH2 2264   3.170   2.840   2.345 -0.5281  0.3050  0.8549
  753TIP3    H1 2265   3.093   2.866   2.395  0.7280  3.0860  1.5249
  753TIP3    H2 2266   3.243   2.853   2.405  0.6740 -0.1113 -0.4662
  754TIP3   OH2 2267   1.737   3.266   3.131 -0.3199 -0.4991  0.7916
  754TIP3    H1 2268   1.808   3.263   3.067 -0.1897 -2.0626  0.9850
  754TIP3    H2 2269   1.775   3.229   3.211 -1.6553 -2.5347  0.5508
  755TIP3   OH2 2270   5.109   3.066   2.022  0.2153 -0.3312  0.0555
  755TIP3    H1 2271   5.108   3.158   2.049 -0.0099 -0.3253  0.0283
  755TIP3    H2 2272   5.016   3.042   2.015  0.2362 -1.0795  1.7973
  756TIP3   OH2 2273   0.017  -0.009   3.641  0.1679  0.1041  0.0984
  756TIP3    H1 2274   0.070  -0.005   3.720 -1.0551 -0.8343  0.9985
  756TIP3    H2 2275   0.009   0.082   3.613  1.3195  0.3585  0.5637
  757TIP3   OH2 2276   1.410   0.859   4.467 -0.3435  0.5220  0.1324
  757TIP3    H1 2277   1.449   0.834   4.551 -0.3885  1.0887  0.3265
  757TIP3    H2 2278   1.362   0.781   4.439  2.2530 -0.8533 -0.9277
  758TIP3   OH2 2279   0.874   1.032   2.733  0.0370 -0.5023 -0.5852
  758TIP3    H1 2280   0.841   1.093   2.799  2.0953  0.9637 -0.8128
  758TIP3    H2 2281   0.895   0.953   2.782  1.1709  0.4305  0.4902
  759TIP3   OH2 2282   1.625   2.034   1.881 -0.2039 -0.1674 -0.4329
  759TIP3    H1 2283   1.679   2.025   1.960  1.7208 -0.9528 -1.7713
  759TIP3    H2 2284   1.687   2.045   1.810 -1.9228  1.5882 -1.7717
  760TIP3   OH2 2285   1.172   4.981   2.601 -0.1147 -0.7570  0.3467
  760TIP3    H1 2286   1.096   5.020   2.645  1.1472  1.2371  0.8526
  760TIP3    H2 2287   1.199   5.046   2.537  2.0865 -0.7088  1.2414
  761TIP3   OH2 2288   0.739   0.671   3.623  0.0840  0.4967  0.1044
  761TIP3    H1 2289   0.649   0.701   3.640 -0.6777 -2.3224  1.7290
  761TIP3    H2 2290   0.759   0.705   3.536 -3.3673 -0.4067 -1.2337
  762TIP3   OH2 2291   0.527   5.498   5.126  0.0101  0.1298  0.5270
  762TIP3    H1 2292   0.560   5.565   5.186 -0.9447 -0.5875  1.9175
  762TIP3    H2 2293   0.565   5.520   5.041  1.7629  0.9217  1.4806
  763TIP3   OH2 2294   3.376   2.732   2.161 -0.4480  0.2062  0.1542
  763TIP3    H1 2295   3.455   2.750   2.212 -0.6607 -0.0111  0.5721
  763TIP3    H2 2296   3.304   2.757   2.220 -0.6903  0.4676 -0.2459
  764TIP3   OH2 2297   1.194   3.228   0.881 -0.2922 -0.3683  0.1273
  764TIP3    H1 2298   1.230   3.316   0.878  0.8530 -0.8451 -1.2391
  764TIP3    H2 2299   1.105   3.237   0.848 -0.5885  0.4280  1.0918
  765TIP3   OH2 2300   4.266   2.434   0.477  0.0597  0.0962 -0.3917
  765TIP3    H1 2301   4.257   2.343   0.448 -1.7357  0.3114 -0.6177
  765TIP3    H2 2302   4.291   2.483   0.399 -0.6628  0.0478 -0.6548
  766TIP3   OH2 2303   6.048   3.820   4.714  0.1418  0.0022 -0.3128
  766TIP3    H1 2304   6.072   3.755   4.648 -2.2202 -2.5297  1.0969
  766TIP3    H2 2305   5.984   3.876   4.670  0.0480 -0.4321 -0.7348
  767TIP3   OH2 2306   4.821   1.690   1.042  0.1417 -0.3411 -0.0617
  767TIP3    H1 2307   4.779   1.767   1.004  0.1150  0.1776  0.9831
  767TIP3    H2 2308   4.850   1.639   0.966  1.0157  1.1550 -0.7870
  768TIP3   OH2 2309   5.437   3.178   3.556 -0.5046  0.0767 -0.2769
  768TIP3    H1 2310   5.511   3.134   3.597 -0.3530  0.3567 -0.2475
  768TIP3    H2 2311   5.401   3.113   3.496 -0.3291 -0.1127 -0.1782
  769TIP3   OH2 2312   1.304   0.295   0.114  0.3404 -0.3184 -0.6250
  769TIP3    H1 2313   1.316   0.243   0.035 -1.2301 -1.8825  0.1017
  769TIP3    H2 2314   1.251   0.370   0.086  1.4504  0.2059 -1.4012
  770TIP3   OH2 2315   5.199   4.830   1.709 -0.1202 -0.3545  0.2440
  770TIP3    H1 2316   5.131   4.764   1.722  0.6606 -1.2507 -0.1466
  770TIP3    H2 2317   5.275   4.795   1.755 -0.0749  0.9206  1.1806
  771TIP3   OH2 2318   2.746   2.550   0.701  0.0036 -0.1236 -0.2253
  771TIP3    H1 2319   2.682   2.594   0.756 -0.4398 -1.2014  0.1455
  771TIP3    H2 2320   2.737   2.593   0.615 -0.2145  0.6800  0.1923
  772TIP3   OH2 2321   2.244   0.957   0.677  0.5915  0.4105 -0.1148
  772TIP3    H1 2322   2.180   1.012   0.722  0.5665  0.4929 -0.2503
  772TIP3    H2 2323   2.274   1.010   0.603  1.3258  0.6452  0.3406
  773TIP3   OH2 2324   3.155   2.466   2.797  0.0665 -0.0406  0.3354
  773TIP3    H1 2325   3.171   2.372   2.810 -0.3624 -0.5532 -2.3550
  773TIP3    H2 2326   3.234   2.498   2.753  0.6748  1.1601  2.1841
  774TIP3   OH2 2327   2.530   0.823   4.555 -0.2567 -0.2491  0.0231
  774TIP3    H1 2328   2.444   0.849   4.521  0.5708  0.6686 -1.4513
  774TIP3    H2 2329   2.554   0.746   4.503  0.4651  0.4120 -0.6512
  775TIP3   OH2 2330   5.470   4.441   4.311  0.4639  0.0669 -0.1366
  775TIP3    H1 2331   5.389   4.450   4.261  0.6396  2.4990 -0.0871
  775TIP3    H2 2332   5.478   4.523   4.359  2.4820 -0.5053  0.6114
  776TIP3   OH2 2333   1.475   4.308   1.214  0.0679  0.2983  0.5717
  776TIP3    H1 2334   1.425   4.360   1.150  0.4211 -1.6086 -1.3535
  776TIP3    H2 2335   1.488   4.368   1.288 -0.8269  2.4385 -0.8930
  777TIP3   OH2 2336   2.438   5.770   0.478  0.3185  0.4231 -0.1360
  777TIP3    H1 2337   2.474   5.827   0.410 -2.3490  3.5428  0.8296
  777TIP3    H2 2338   2.344   5.770   0.462 -0.1518 -0.6444  2.2313
  778TIP3   OH2 2339   1.983   4.156   0.747 -0.1464  0.4349  0.8858
  778TIP3    H1 2340   1.915   4.093   0.769  0.1187  0.1147  0.7968
  778TIP3    H2 2341   1.945   4.241   0.770 -1.4785  0.4969 -1.2925
  779TIP3   OH2 2342   2.234   1.640   4.248  0.4466 -0.1975  0.1600
  779TIP3    H1 2343   2.234   1.627   4.153 -2.8826 -0.5271  0.0895
  779TIP3    H2 2344   2.324   1.666   4.268  1.6438 -1.4412 -2.8583
  780TIP3   OH2 2345   3.281   4.183   0.565 -0.6222  0.2830 -0.7220
  780TIP3    H1 2346   3.335   4.239   0.510 -0.1479  0.6383  0.0917
  780TIP3    H2 2347   3.277   4.228   0.650 -1.3421 -0.2491 -0.4599
  781TIP3   OH2 2348   2.072   2.317   5.009  0.2371 -0.0118 -0.3868
  781TIP3    H1 2349   2.122   2.393   5.037 -1.0346  0.5298  0.5431
  781TIP3    H2 2350   2.119   2.242   5.047  0.4507  0.4615  0.2997
  782TIP3   OH2 2351   2.939   5.479   1.827  0.3170 -0.2246  0.1354
  782TIP3    H1 2352   2.868   5.431   1.869 -0.9821  0.8736 -0.7010
  782TIP3    H2 2353   3.019   5.447   1.868 -0.6759 -1.4255  1.1749
  783TIP3   OH2 2354   1.735   5.044   2.980  0.4608  0.5964 -0.1377
  783TIP3    H1 2355   1.825   5.038   3.012  0.9523  2.9322 -0.8649
  783TIP3    H2 2356   1.725   4.969   2.921  1.3724 -0.5671  1.1257
  784TIP3   OH2 2357   4.440   5.211   1.103 -0.4895 -0.5086  0.3571
  784TIP3    H1 2358   4.523   5.248   1.075 -1.7794  0.8834 -1.8918
  784TIP3    H2 2359   4.463   5.125   1.139  1.9603  0.1336  0.4797
  785TIP3   OH2 2360   2.743   4.595   4.089 -0.8853 -0.7091  0.1124
  785TIP3    H1 2361   2.838   4.584   4.100 -0.7613 -0.6130 -0.7639
  785TIP3    H2 2362   2.706   4.511   4.117 -0.5178 -0.8428  0.2069
  786TIP3   OH2 2363   5.518   2.156   1.443  0.1092  0.1395  0.3120
  786TIP3    H1 2364   5.584   2.170   1.511 -0.9891  1.1891  1.2029
  786TIP3    H2 2365   5.435   2.156   1.490 -0.5726 -0.7822 -0.8363
  787TIP3   OH2 2366   3.350   1.019   4.644  0.0585 -0.0301  0.0311
  787TIP3    H1 2367   3.355   0.974   4.559  0.9037 -0.9654  0.5602
  787TIP3    H2 2368   3.263   0.997   4.678  0.2598 -0.8286  0.0401
  788TIP3   OH2 2369   4.526   1.858   3.714 -0.2769  0.6184 -0.7786
  788TIP3    H1 2370   4.524   1.782   3.772  2.4297 -0.3132 -1.7209
  788TIP3    H2 2371   4.440   1.860   3.674 -1.2081 -0.5010  1.0099
  789TIP3   OH2 2372  -0.029   0.998   1.918  0.0667  0.3337  0.2747
  789TIP3    H1 2373  -0.016   1.066   1.853 -0.1115  0.7263  0.6420
  789TIP3    H2 2374   0.058   0.984   1.956 -0.0148  0.8170  0.6455
  790TIP3   OH2 2375   5.258   1.179   4.505  0.1598  0.4291 -0.3596
  790TIP3    H1 2376   5.302   1.141   4.429  1.1080  0.5759  0.1017
  790TIP3    H2 2377   5.257   1.108   4.570  1.8478  1.1074  0.4706
  791TIP3   OH2 2378   2.114   0.755   2.033  0.3267  0.2066  0.2056
  791TIP3    H1 2379   2.021   0.735   2.048  0.1913 -0.2102 -1.0909
  791TIP3    H2 2380   2.159   0.671   2.048  0.0654 -0.5069 -2.5921
  792TIP3   OH2 2381   5.832   0.886   4.187  0.4147  0.2410  0.3070
  792TIP3    H1 2382   5.803   0.896   4.278 -1.8040 -2.8824  0.0985
  792TIP3    H2 2383   5.928   0.888   4.192  0.3474  2.0303  2.3675
  793TIP3   OH2 2384   0.608   5.348   3.614  0.4866 -0.0528  0.1324
  793TIP3    H1 2385   0.576   5.438   3.621 -0.6617 -0.3238 -1.3343
  793TIP3    H2 2386   0.557   5.299   3.679  0.5131  0.1839  0.3339
  794TIP3   OH2 2387   0.453   4.377   1.453  0.0093 -0.7259  0.4120
  794TIP3    H1 2388   0.523   4.346   1.395 -0.8087 -0.0809 -0.9884
  794TIP3    H2 2389   0.467   4.472   1.459  0.2709 -0.8274  1.5574
  795TIP3   OH2 2390   3.150   0.622   0.444  0.1556 -0.7412  0.4263
  795TIP3    H1 2391   3.243   0.644   0.451 -0.5539  2.5881  1.3598
  795TIP3    H2 2392   3.117   0.628   0.534 -0.9837 -1.9647  0.1230
  796TIP3   OH2 2393   0.509   1.378   5.084 -0.0447  0.5827  0.7771
  796TIP3    H1 2394   0.586   1.374   5.141  0.1666 -0.1021  0.4531
  796TIP3    H2 2395   0.488   1.286   5.067 -0.3809  0.7797  0.1205
  797TIP3   OH2 2396   2.750   0.054   0.382  0.1035  0.1027  0.0800
  797TIP3    H1 2397   2.708   0.137   0.403 -0.2218  0.1287 -0.6371
  797TIP3    H2 2398   2.747   0.049   0.286 -1.4367 -1.5373  0.1708
  798TIP3   OH2 2399   5.429   2.338   0.905  0.6339 -0.5604 -0.6543
  798TIP3    H1 2400   5.356   2.276   0.907  1.4208 -1.4823  1.0841
  798TIP3    H2 2401   5.400   2.410   0.961  0.4813 -0.2092 -1.1720
  799TIP3   OH2 2402   4.553   5.805   5.125 -0.1983 -0.5213 -0.0241
  799TIP3    H1 2403   4.512   5.730   5.169 -1.2903 -0.2003 -0.4830
  799TIP3    H2 2404   4.618   5.836   5.188 -1.2176 -0.5373  1.0762
  800TIP3   OH2 2405   0.270   4.460   4.918 -0.2755 -0.7318 -0.0826
  800TIP3    H1 2406   0.315   4.375   4.914 -0.9736 -1.0769 -0.8831
  800TIP3    H2 2407   0.338   4.522   4.943  0.5498 -1.3267 -0.7947
  801TIP3   OH2 2408   2.596   4.978   4.453 -0.5754 -0.2486  0.2206
  801TIP3    H1 2409   2.548   5.056   4.480 -1.2894 -0.5750 -0.0780
  801TIP3    H2 2410   2.669   5.011   4.401 -2.7296  0.1309 -2.8345
  802TIP3   OH2 2411   4.913   1.327   5.106  0.2965  0.3332  0.0297
  802TIP3    H1 2412   5.005   1.347   5.118 -0.2600  2.3588  1.5160
  802TIP3    H2 2413   4.886   1.379   5.031  0.2098  0.2724  0.0183
  803TIP3   OH2 2414   5.340   2.186   3.074  0.0306  0.5197  0.3847
  803TIP3    H1 2415   5.407   2.137   3.122 -1.1319 -1.8500 -0.2105
  803TIP3    H2 2416   5.321   2.261   3.130  1.4302 -0.0737  1.7438
  804TIP3   OH2 2417   6.153   1.560   3.502 -0.5615 -0.1563 -0.3095
  804TIP3    H1 2418   6.227   1.564   3.442  0.6333 -0.1946  1.1144
  804TIP3    H2 2419   6.090   1.501   3.459  0.4613 -0.5680 -1.2845
  805TIP3   OH2 2420   2.309   1.641   2.779  0.0214  0.0053 -0.0937
  805TIP3    H1 2421   2.329   1.625   2.687 -0.7016  0.7903 -0.3958
  805TIP3    H2 2422   2.224   1.684   2.779  0.4306  0.8690  0.8808
  806TIP3   OH2 2423   4.473   1.211   2.623 -0.2027 -0.2750 -0.2895
  806TIP3    H1 2424   4.400   1.257   2.583 -0.3234  0.0541  0.2829
  806TIP3    H2 2425   4.528   1.281   2.660  0.8198 -0.4640 -1.3800
  807TIP3   OH2 2426   2.060   4.863   2.900 -0.5032 -0.3575 -0.0617
  807TIP3    H1 2427   2.114   4.815   2.964 -2.4439 -2.7410 -0.0350
  807TIP3    H2 2428   2.030   4.941   2.947  1.9394  0.4451  0.2744
  808TIP3   OH2 2429   1.744   4.899   5.061 -0.7148  0.2206  0.3275
  808TIP3    H1 2430   1.819   4.861   5.107  0.8417 -0.0087 -2.1619
  808TIP3    H2 2431   1.743   4.853   4.977 -3.4670  0.4974  0.1341
  809TIP3   OH2 2432   5.341   5.501   3.574  0.6428  0.2407 -0.3222
  809TIP3    H1 2433   5.371   5.450   3.499  1.4536  0.8783 -0.4382
  809TIP3    H2 2434   5.259   5.540   3.545 -0.7792 -2.0926  0.2405
  810TIP3   OH2 2435   4.724   2.614   5.019 -0.4693 -0.2879 -0.1475
  810TIP3    H1 2436   4.785   2.544   5.042 -1.1887 -0.4232  1.5130
  810TIP3    H2 2437   4.639   2.571   5.013 -0.8226  0.3191  0.2959
  811TIP3   OH2 2438   2.615   3.291   2.356  0.4052  0.2709  0.1819
  811TIP3    H1 2439   2.597   3.366   2.300 -0.1981  0.2906  0.3960
  811TIP3    H2 2440   2.633   3.220   2.295  0.0491  0.3650 -0.0381
  812TIP3   OH2 2441   6.007   2.084   4.257  0.1912 -0.1037  0.1803
  812TIP3    H1 2442   5.936   2.050   4.310 -0.8897  1.8788  0.0748
  812TIP3    H2 2443   5.982   2.064   4.167  0.0630  0.0312  0.1846
  813TIP3   OH2 2444   0.029   4.252   0.040  0.6232  0.0306 -0.2593
  813TIP3    H1 2445  -0.046   4.242  -0.017 -0.0809  1.5645  0.3364
  813TIP3    H2 2446   0.104   4.223  -0.012 -0.3112 -1.0164 -1.0420
  814TIP3   OH2 2447   2.691   4.167   1.975  0.1664 -0.7224 -0.4731
  814TIP3    H1 2448   2.709   4.250   1.931 -0.8857 -0.8434 -1.1638
  814TIP3    H2 2449   2.636   4.190   2.050  0.2478 -0.7408 -0.4079
  815TIP3   OH2 2450   1.067   2.058   0.407  0.1409 -0.0767 -0.1971
  815TIP3    H1 2451   1.128   1.999   0.451 -0.0072  1.7511  2.7019
  815TIP3    H2 2452   1.119   2.097   0.336  1.9751  0.3957  1.3309
  816TIP3   OH2 2453   2.437   2.188   1.993  0.4493 -0.5418 -0.3275
  816TIP3    H1 2454   2.529   2.166   2.010  0.2973 -0.6936  0.3194
  816TIP3    H2 2455   2.395   2.104   1.975  0.5424 -0.4156 -1.1629
  817TIP3   OH2 2456   1.342   2.379   1.125 -0.0093  0.0947 -0.3755
  817TIP3    H1 2457   1.320   2.323   1.050 -4.4909  1.8046 -0.6649
  817TIP3    H2 2458   1.282   2.352   1.194  0.9228  1.5158  1.0597
  818TIP3   OH2 2459   2.823   0.587   4.303  0.7462 -0.7654  0.3056
  818TIP3    H1 2460   2.770   0.562   4.379 -0.3529 -0.7264 -0.4387
  818TIP3    H2 2461   2.866   0.669   4.330  0.3968 -0.7729  0.8975
  819TIP3   OH2 2462   0.143   4.444   4.670  1.0458  0.1080  0.0796
  819TIP3    H1 2463   0.176   4.464   4.758  1.0612  1.4069 -0.2055
  819TIP3    H2 2464   0.133   4.530   4.628  1.8129 -0.5189 -1.4772
  820TIP3   OH2 2465   5.017   2.353   1.587 -0.6369 -0.5172 -0.1163
  820TIP3    H1 2466   5.003   2.443   1.617  0.7830  0.4424 -2.0772
  820TIP3    H2 2467   4.942   2.335   1.529 -1.3498 -0.9285  0.9134
  821TIP3   OH2 2468   1.370   3.713   2.431  0.0774 -0.4049  0.0706
  821TIP3    H1 2469   1.379   3.632   2.382  1.6761 -0.0361 -0.3008
  821TIP3    H2 2470   1.276   3.728   2.435 -0.2060 -1.8651 -0.5167
  822TIP3   OH2 2471   3.653   3.030   0.623  0.2477 -0.0411  0.1770
  822TIP3    H1 2472   3.567   2.996   0.648  1.0369 -2.9803 -0.6356
  822TIP3    H2 2473   3.701   3.037   0.705 -0.2730  0.0759  0.4749
  823TIP3   OH2 2474   2.264   2.463   0.286 -0.1800  0.1361  1.1032
  823TIP3    H1 2475   2.326   2.421   0.346 -0.8657 -1.0069  1.0316
  823TIP3    H2 2476   2.178   2.441   0.320 -0.5701  0.6352  0.4726
  824TIP3   OH2 2477   4.999   5.357   2.191  0.6802  0.0568  0.0205
  824TIP3    H1 2478   4.979   5.315   2.275  1.5925  0.8366  0.6504
  824TIP3    H2 2479   4.939   5.316   2.129  0.7387 -1.3295  0.8335
  825TIP3   OH2 2480   4.527   1.112   2.907 -0.2554  0.1355 -0.1523
  825TIP3    H1 2481   4.499   1.145   2.821 -0.0706 -0.2546 -0.3663
  825TIP3    H2 2482   4.473   1.160   2.970  0.3087  1.1711 -0.4243
  826TIP3   OH2 2483   0.536   1.292   1.042  0.1348  0.2099  0.4106
  826TIP3    H1 2484   0.480   1.223   1.008  0.7270 -0.9233  1.6521
  826TIP3    H2 2485   0.476   1.353   1.086 -0.2273 -0.5389  0.9796
  827TIP3   OH2 2486   3.577   3.356   4.412 -0.1968 -0.5285  0.0506
  827TIP3    H1 2487   3.625   3.298   4.352  0.3917 -0.3169  0.3112
  827TIP3    H2 2488   3.556   3.433   4.360  0.1330 -0.4338  0.0563
  828TIP3   OH2 2489   4.175   4.811   1.454  0.6064 -0.3235 -0.2543
  828TIP3    H1 2490   4.084   4.813   1.423  0.3490 -2.1152  0.2352
  828TIP3    H2 2491   4.216   4.887   1.415 -0.6144 -0.5529 -2.0936
  829TIP3   OH2 2492   1.034   4.637   3.302 -0.4700  0.3333  0.1756
  829TIP3    H1 2493   0.953   4.588   3.287  0.8431 -1.4350 -1.8002
  829TIP3    H2 2494   1.016   4.724   3.268 -2.1065  0.6033  1.5668
  830TIP3   OH2 2495   4.279   0.681   4.304 -0.3143 -0.1312  0.1941
  830TIP3    H1 2496   4.309   0.657   4.391 -0.3718 -0.3051  0.1661
  830TIP3    H2 2497   4.355   0.722   4.262 -0.7236  1.3879  0.8692
  831TIP3   OH2 2498   4.987   5.586   4.480  0.6891 -0.7059 -0.1817
  831TIP3    H1 2499   5.016   5.530   4.408  1.3215 -0.8517  0.1810
  831TIP3    H2 2500   4.893   5.570   4.486  0.0303  1.4280 -2.8207
  832TIP3   OH2 2501   0.194   4.893   2.000 -0.0575  0.3189  0.0154
  832TIP3    H1 2502   0.187   4.958   2.070  1.4224 -0.2033  0.7019
  832TIP3    H2 2503   0.266   4.925   1.945  1.6271 -1.3220  1.1109
  833TIP3   OH2 2504   2.417   3.130   1.452 -0.2672 -0.1146 -0.4599
  833TIP3    H1 2505   2.473   3.168   1.384 -0.1946 -0.1381 -0.4132
  833TIP3    H2 2506   2.392   3.203   1.508 -3.0777  0.5833 -2.3927
  834TIP3   OH2 2507   6.156   4.330   0.611  0.6713 -0.5303  0.2181
  834TIP3    H1 2508   6.183   4.369   0.693  0.7603 -1.0410  0.4331
  834TIP3    H2 2509   6.158   4.402   0.548 -0.5008  0.1215  0.8991
  835TIP3   OH2 2510   4.792   5.788   4.078  0.3679 -0.7178 -1.1544
  835TIP3    H1 2511   4.825   5.753   3.995  0.6146 -0.3625 -1.2091
  835TIP3    H2 2512   4.792   5.713   4.138  0.9917 -0.7849 -1.2395
  836TIP3   OH2 2513   5.977   4.519   4.896  0.2948  0.6358 -0.3029
  836TIP3    H1 2514   6.047   4.558   4.842  0.1441 -0.1400 -1.0788
  836TIP3    H2 2515   5.905   4.582   4.890  0.7194  1.1734  0.0501
  837TIP3   OH2 2516   5.133   4.465   2.427 -0.1461  0.2636 -0.5359
  837TIP3    H1 2517   5.107   4.557   2.426  2.4540  1.1637  2.0525
  837TIP3    H2 2518   5.065   4.421   2.477 -1.4793  0.6728 -1.9012
  838TIP3   OH2 2519   2.806   0.091   2.702 -0.3606  0.3725 -0.0278
  838TIP3    H1 2520   2.860   0.013   2.712 -0.4780  0.1460 -1.0546
  838TIP3    H2 2521   2.716   0.058   2.699 -0.4758  0.6331  0.4307
  839TIP3   OH2 2522   5.326   2.817   2.968 -0.5288  0.2773 -0.1876
  839TIP3    H1 2523   5.394   2.801   3.034 -1.2170  1.5938  0.8663
  839TIP3    H2 2524   5.281   2.733   2.961  0.1762 -0.1574  0.2848
  840TIP3   OH2 2525   0.195   3.365   0.949  0.0881  0.1001  0.5873
  840TIP3    H1 2526   0.109   3.388   0.914  0.2925 -0.8906 -0.6630
  840TIP3    H2 2527   0.178   3.289   1.006  0.0082  0.5442  1.1633
  841TIP3   OH2 2528   6.131   1.504   0.190 -0.1922 -0.7981  0.3568
  841TIP3    H1 2529   6.047   1.546   0.172 -0.4938 -1.1602  0.9089
  841TIP3    H2 2530   6.130   1.487   0.284  1.2277  0.7791  0.7094
  842TIP3   OH2 2531   3.540   1.932   2.231 -0.3238 -0.2083 -0.4862
  842TIP3    H1 2532   3.510   1.904   2.318 -0.2582 -1.3615 -0.8173
  842TIP3    H2 2533   3.629   1.897   2.224  0.3589  1.3846 -0.3499
  843TIP3   OH2 2534   2.673   1.932   3.148 -0.1419  0.2433 -0.1348
  843TIP3    H1 2535   2.678   1.977   3.064  0.0832 -0.0986 -0.3034
  843TIP3    H2 2536   2.659   2.003   3.212  4.2780  1.1447  0.1283
  844TIP3   OH2 2537   1.097   4.602   4.588 -0.1108  0.1851 -0.4833
  844TIP3    H1 2538   1.093   4.507   4.593  1.6171 -0.0636 -2.3656
  844TIP3    H2 2539   1.006   4.630   4.584 -0.6546 -1.5958 -2.2249
  845TIP3   OH2 2540   5.128   5.500   1.994 -0.0915 -0.2014 -0.0850
  845TIP3    H1 2541   5.127   5.584   2.038 -2.0245  1.0068 -2.2051
  845TIP3    H2 2542   5.057   5.450   2.036  0.2028 -0.2882  0.3107
  846TIP3   OH2 2543   5.779   3.159   4.377 -0.5390 -0.2108  0.1418
  846TIP3    H1 2544   5.721   3.138   4.304 -2.1732  0.6284  1.1516
  846TIP3    H2 2545   5.829   3.079   4.392 -0.4490 -0.5345 -1.6028
  847TIP3   OH2 2546   4.502   2.978   3.627  0.0707  0.2360  0.8124
  847TIP3    H1 2547   4.566   2.999   3.559  0.1518  1.0689  1.1365
  847TIP3    H2 2548   4.421   3.020   3.596 -0.5165 -1.3605  0.0738
  848TIP3   OH2 2549   1.783   0.925   1.352  0.0919  0.4793 -0.0029
  848TIP3    H1 2550   1.687   0.926   1.346  0.1482  0.0929 -1.4128
  848TIP3    H2 2551   1.803   0.854   1.412 -0.5226  1.1541  1.0270
  849TIP3   OH2 2552   6.303   2.151   3.368  0.5362 -0.0032  0.3691
  849TIP3    H1 2553   6.391   2.135   3.333 -0.3224  1.8855 -3.2061
  849TIP3    H2 2554   6.244   2.116   3.301 -1.3865  0.7495  1.5822
  850TIP3   OH2 2555   3.057   0.616   3.939  0.0374 -0.0109  0.4417
  850TIP3    H1 2556   3.151   0.624   3.952 -0.0648  0.7790  0.7609
  850TIP3    H2 2557   3.032   0.540   3.991  0.5715 -0.5176 -0.0379
  851TIP3   OH2 2558   6.245   1.382   3.144 -0.2205 -0.2031  0.2984
  851TIP3    H1 2559   6.282   1.443   3.080 -1.5266 -3.2837 -3.8333
  851TIP3    H2 2560   6.307   1.310   3.147 -2.8553 -2.8937 -2.4963
  852TIP3   OH2 2561   2.733   4.946   2.134 -0.8656  0.1394 -0.1578
  852TIP3    H1 2562   2.817   4.989   2.123 -0.1746 -1.2155 -0.4793
  852TIP3    H2 2563   2.746   4.886   2.207 -1.8325  0.5573  0.3697
  853TIP3   OH2 2564   0.812   2.499   4.048 -0.1870  0.4519  0.2006
  853TIP3    H1 2565   0.728   2.511   4.004 -0.2394 -0.7929 -0.0861
  853TIP3    H2 2566   0.790   2.486   4.140 -0.5705 -2.1337 -0.1666
  854TIP3   OH2 2567   3.003   1.655   4.661  0.2146 -0.4304  0.1573
  854TIP3    H1 2568   3.094   1.681   4.670 -0.1547  0.6475  1.1022
  854TIP3    H2 2569   3.006   1.562   4.642  1.5217 -0.3019 -0.3467
  855TIP3   OH2 2570   1.523   0.760   0.727 -0.2988 -0.2706 -0.1782
  855TIP3    H1 2571   1.489   0.716   0.649 -0.9718 -0.6693  0.3334
  855TIP3    H2 2572   1.585   0.698   0.765 -0.2293 -0.2175 -0.2046
  856TIP3   OH2 2573   2.916   2.466   3.117 -0.3486  0.0262  0.1076
  856TIP3    H1 2574   2.851   2.524   3.079 -0.8310 -1.6609 -1.8012
  856TIP3    H2 2575   2.872   2.381   3.124  1.2833 -0.8873 -0.1769
  857TIP3   OH2 2576   2.319   2.259   4.061 -0.1028  0.7103  0.8730
  857TIP3    H1 2577   2.343   2.183   4.008 -1.6211  1.1750 -0.5693
  857TIP3    H2 2578   2.227   2.244   4.085 -0.0242  1.4650  1.7234
  858TIP3   OH2 2579   2.711   1.992   4.912  0.6545  0.2387  0.5201
  858TIP3    H1 2580   2.788   1.947   4.876  1.3297  2.1100 -0.5448
  858TIP3    H2 2581   2.733   2.008   5.004  0.3111 -1.7058  0.9796
  859TIP3   OH2 2582   4.333   3.439   2.578  0.7137  0.1432  0.4357
  859TIP3    H1 2583   4.239   3.455   2.566  0.7045  1.7401  2.1790
  859TIP3    H2 2584   4.353   3.369   2.516 -1.6883 -0.4753  0.2408
  860TIP3   OH2 2585   6.208   5.991   4.765  0.4240  0.3014  0.3420
  860TIP3    H1 2586   6.155   5.960   4.838  2.0104  0.4930  1.6279
  860TIP3    H2 2587   6.167   5.952   4.687 -0.0319 -1.7024  1.5178
  861TIP3   OH2 2588   2.351   0.473   2.220 -0.3890  0.0645 -0.3652
  861TIP3    H1 2589   2.422   0.534   2.201 -0.6738  0.9984  1.4060
  861TIP3    H2 2590   2.320   0.446   2.133  2.5557 -0.9688 -1.2005
  862TIP3   OH2 2591   0.015   4.676   4.578 -0.4701 -0.2736 -0.2803
  862TIP3    H1 2592  -0.067   4.695   4.531 -0.1079 -0.6844 -1.1001
  862TIP3    H2 2593   0.079   4.735   4.538 -0.2124 -0.4570 -0.1377
  863TIP3   OH2 2594   0.371   1.670   2.049  0.4545  1.3345 -0.0072
  863TIP3    H1 2595   0.397   1.607   1.982  1.4488  0.2346  1.3501
  863TIP3    H2 2596   0.323   1.618   2.114  1.9381  1.7756  1.5202
  864TIP3   OH2 2597   4.847   1.870   2.989  0.3244 -0.0295 -0.7733
  864TIP3    H1 2598   4.892   1.831   3.063  0.7467  2.0111  0.0993
  864TIP3    H2 2599   4.814   1.953   3.022  0.1146  0.7194 -2.7448
  865TIP3   OH2 2600   0.100   5.187   2.997  0.8616  0.3083  0.0448
  865TIP3    H1 2601   0.119   5.168   3.089  0.7475  0.4535  0.0994
  865TIP3    H2 2602   0.138   5.114   2.949 -3.0449 -2.3149  0.4993
  866TIP3   OH2 2603   5.090   1.224   2.065  0.0749 -0.1129  0.5870
  866TIP3    H1 2604   5.123   1.168   2.135 -0.5742 -0.2699  0.7710
  866TIP3    H2 2605   5.106   1.313   2.097  1.0341 -0.1811  0.3283
  867TIP3   OH2 2606   4.373   0.324   4.689  0.1695 -0.1421 -0.5776
  867TIP3    H1 2607   4.436   0.395   4.683  1.1524 -0.5787  2.5342
  867TIP3    H2 2608   4.316   0.348   4.762 -1.0589 -1.4084 -1.0505
  868TIP3   OH2 2609   1.672   4.232   3.594  0.0032  0.0941  0.6281
  868TIP3    H1 2610   1.624   4.257   3.673  0.0637 -0.5811  0.8887
  868TIP3    H2 2611   1.764   4.235   3.621  0.2756  2.9231 -0.2983
  869TIP3   OH2 2612   5.654   3.004   0.011 -0.1767  0.2139 -0.1856
  869TIP3    H1 2613   5.675   3.039   0.097 -0.9175 -2.0807  1.0272
  869TIP3    H2 2614   5.624   2.915   0.028  0.6937 -0.7245 -2.9331
  870TIP3   OH2 2615   3.849   1.310   1.738  0.4002  0.4274 -0.4922
  870TIP3    H1 2616   3.871   1.253   1.811 -0.2233  0.7255 -0.0688
  870TIP3    H2 2617   3.754   1.322   1.744  0.2485 -0.0161 -1.6926
  871TIP3   OH2 2618   2.246   4.502   1.355 -0.2650  0.1444  0.1467
  871TIP3    H1 2619   2.299   4.428   1.385  1.8991  1.3136 -0.5629
  871TIP3    H2 2620   2.240   4.559   1.431 -3.6686 -1.5177  1.3476
  872TIP3   OH2 2621   0.756   3.803   2.624  0.9590 -0.3932  0.1817
  872TIP3    H1 2622   0.779   3.893   2.601 -0.0857 -0.4994 -1.3975
  872TIP3    H2 2623   0.665   3.807   2.653  0.3798 -1.1386 -1.4185
  873TIP3   OH2 2624   6.240   5.406   4.529  0.3784 -0.3904  0.1752
  873TIP3    H1 2625   6.228   5.465   4.455 -0.2369 -0.1107  0.4969
  873TIP3    H2 2626   6.235   5.318   4.490  2.3355 -0.2741 -0.4732
  874TIP3   OH2 2627   1.782   4.327   2.545 -0.6102  0.1762  0.0725
  874TIP3    H1 2628   1.781   4.423   2.552 -1.0038  0.0618  1.9330
  874TIP3    H2 2629   1.857   4.300   2.598 -1.0566 -0.6001  0.3056
  875TIP3   OH2 2630   2.473   0.165   0.652 -0.1884 -1.0812 -0.1327
  875TIP3    H1 2631   2.468   0.254   0.686 -0.6903 -1.4424  0.7862
  875TIP3    H2 2632   2.533   0.120   0.712  0.5459 -1.2157 -0.9484
  876TIP3   OH2 2633   1.492   0.486   2.950 -0.2090 -0.3227  0.0821
  876TIP3    H1 2634   1.545   0.474   3.028 -1.5149 -3.0958  0.6694
  876TIP3    H2 2635   1.500   0.404   2.901 -0.7799  0.6922 -1.8426
  877TIP3   OH2 2636   3.233   1.226   2.030 -0.5273 -0.1076 -0.4148
  877TIP3    H1 2637   3.264   1.138   2.051  2.2263  0.7379 -0.6406
  877TIP3    H2 2638   3.281   1.252   1.952  0.0504  2.2429  0.6193
  878TIP3   OH2 2639   6.199   3.641   0.628 -0.1538  0.1488 -0.7435
  878TIP3    H1 2640   6.225   3.733   0.629 -0.4180  0.2216 -0.4705
  878TIP3    H2 2641   6.170   3.625   0.538  0.1875  0.2470 -0.8722
  879TIP3   OH2 2642   2.853   1.919   3.365  0.0464  0.5034  0.4357
  879TIP3    H1 2643   2.826   1.890   3.278 -0.2563  0.7924  0.4336
  879TIP3    H2 2644   2.792   1.988   3.388  0.9000  1.3103  0.3448
  880TIP3   OH2 2645   4.216   5.003   4.196 -0.5637  0.1026  0.0675
  880TIP3    H1 2646   4.132   4.977   4.159 -0.4008 -0.5536  0.1427
  880TIP3    H2 2647   4.281   4.957   4.141 -0.1643  2.0344 -1.1589
  881TIP3   OH2 2648   5.821   4.253   1.624  0.1514  0.0229  0.3386
  881TIP3    H1 2649   5.802   4.316   1.554  2.1138  0.9386  0.5582
  881TIP3    H2 2650   5.854   4.307   1.696  3.0567 -1.2771  0.1129
  882TIP3   OH2 2651   1.254   0.400   1.962 -0.0331 -0.0159 -0.2168
  882TIP3    H1 2652   1.219   0.488   1.976  0.1151 -0.2014  1.6190
  882TIP3    H2 2653   1.348   0.413   1.950 -0.1890  0.1699 -1.3126
  883TIP3   OH2 2654   2.837   3.082   3.763 -0.9191  0.1336  0.2769
  883TIP3    H1 2655   2.882   3.083   3.679  0.0497 -1.7284  0.7162
  883TIP3    H2 2656   2.906   3.096   3.828 -1.8686  3.2058  0.7716
  884TIP3   OH2 2657   0.613   1.844   3.681  0.4544 -0.1885 -0.4944
  884TIP3    H1 2658   0.681   1.906   3.652  0.7045 -0.4013 -0.3740
  884TIP3    H2 2659   0.629   1.765   3.630  0.8775 -0.5547  0.1825
  885TIP3   OH2 2660   2.765   4.421   3.790  0.0142  0.1740 -0.0867
  885TIP3    H1 2661   2.807   4.378   3.865  0.6763  0.1670 -0.4482
  885TIP3    H2 2662   2.752   4.511   3.818 -1.5641 -0.2743  0.7507
  886TIP3   OH2 2663   2.628   0.906   3.174 -0.5135  0.1780 -0.1977
  886TIP3    H1 2664   2.723   0.890   3.174 -0.3367  1.1092 -1.0554
  886TIP3    H2 2665   2.602   0.892   3.265  0.9969  2.8075  0.7474
  887TIP3   OH2 2666   2.592   3.544   4.130 -0.0020  0.0782 -0.1262
  887TIP3    H1 2667   2.553   3.496   4.056  0.9043 -2.0886  0.7119
  887TIP3    H2 2668   2.674   3.579   4.095 -1.1976  2.1240 -1.0664
  888TIP3   OH2 2669   2.072   0.344   3.620 -0.0532  0.3642  0.1615
  888TIP3    H1 2670   1.988   0.388   3.608 -0.3896 -0.4401 -0.6157
  888TIP3    H2 2671   2.050   0.265   3.671  0.3390  0.4687  0.4979
  889TIP3   OH2 2672   5.125   0.551   0.787  0.3768  0.0541  0.2057
  889TIP3    H1 2673   5.105   0.626   0.732 -0.4420 -0.8100 -0.7252
  889TIP3    H2 2674   5.111   0.582   0.876  1.5658  1.4264 -0.0650
  890TIP3   OH2 2675   5.148   2.536   3.586  0.1631  0.4060 -0.0718
  890TIP3    H1 2676   5.060   2.552   3.619  0.1265 -1.0175  0.6010
  890TIP3    H2 2677   5.190   2.482   3.653  1.3713  0.6125 -0.6306
  891TIP3   OH2 2678   5.362   0.749   5.215 -0.0156 -0.0706  0.3733
  891TIP3    H1 2679   5.321   0.700   5.144  0.7490 -1.6733  0.9936
  891TIP3    H2 2680   5.402   0.825   5.172 -0.8105 -0.2270 -0.6808
  892TIP3   OH2 2681   2.803   2.466   1.895 -0.0053 -0.1893  0.0137
  892TIP3    H1 2682   2.777   2.420   1.816 -0.4906 -0.7049  0.4620
  892TIP3    H2 2683   2.887   2.427   1.920 -0.1478 -0.4512  0.0860
  893TIP3   OH2 2684   6.288   0.944   3.957  0.6670 -0.2918 -0.2541
  893TIP3    H1 2685   6.331   1.025   3.982 -1.3219  1.2086 -1.4136
  893TIP3    H2 2686   6.226   0.927   4.029  0.5020 -0.3308 -0.4047
  894TIP3   OH2 2687   0.226   4.489   3.213 -0.1223 -0.2738  0.4210
  894TIP3    H1 2688   0.309   4.501   3.259 -0.0163  0.5594  0.0225
  894TIP3    H2 2689   0.182   4.418   3.261  0.3595 -0.0130  1.2648
  895TIP3   OH2 2690   0.194   4.656   2.115 -0.6245  0.3111  0.5617
  895TIP3    H1 2691   0.253   4.675   2.187  1.2078 -2.1133 -0.1780
  895TIP3    H2 2692   0.200   4.732   2.058 -0.1986  1.1909  1.7508
  896TIP3   OH2 2693   0.464   0.380   4.010  0.2148 -0.0176  0.0866
  896TIP3    H1 2694   0.418   0.327   4.075 -0.1830 -0.8412 -0.8358
  896TIP3    H2 2695   0.549   0.336   4.000 -0.2717 -0.7656 -0.9818
  897TIP3   OH2 2696   4.911   1.987   2.717  0.4753 -0.5067  0.0973
  897TIP3    H1 2697   4.919   1.930   2.793  1.3833 -0.1014  0.3148
  897TIP3    H2 2698   4.820   1.975   2.688 -0.4070  0.5456  2.1857
  898TIP3   OH2 2699   0.720   2.021   3.277  0.0163  0.4312 -0.0903
  898TIP3    H1 2700   0.625   2.018   3.266 -0.1231 -0.4366  1.1695
  898TIP3    H2 2701   0.735   2.095   3.336 -0.1786 -1.1943  2.1092
  899TIP3   OH2 2702   2.939   3.592   3.537  0.2816 -0.7216 -0.5838
  899TIP3    H1 2703   2.945   3.577   3.442 -2.0663  0.3130 -0.9635
  899TIP3    H2 2704   2.961   3.685   3.548 -0.2675 -0.6339 -0.2221
  900TIP3   OH2 2705   3.366   4.571   2.413  0.2891 -0.3267  0.3366
  900TIP3    H1 2706   3.290   4.553   2.469 -0.0437  0.2998  0.1021
  900TIP3    H2 2707   3.439   4.578   2.474 -0.6808  4.6999  1.4288
  901TIP3   OH2 2708   0.736   1.856   2.820  0.0073 -0.6087 -0.2536
  901TIP3    H1 2709   0.699   1.825   2.737 -1.0152  0.2082 -0.1327
  901TIP3    H2 2710   0.681   1.930   2.844 -1.4211 -2.3406  2.4516
  902TIP3   OH2 2711   1.383   3.139   3.609  0.1989  0.4327  0.2064
  902TIP3    H1 2712   1.367   3.165   3.699  0.1783  1.8472 -0.1861
  902TIP3    H2 2713   1.356   3.214   3.556 -0.7832 -0.7504 -1.0655
  903TIP3   OH2 2714   3.713   1.443   0.012 -0.4339 -0.2018 -0.0118
  903TIP3    H1 2715   3.643   1.442   0.077 -0.8243  0.5299 -0.4106
  903TIP3    H2 2716   3.679   1.497  -0.059  0.8457  0.8589  0.1432
  904TIP3   OH2 2717   4.995   2.872   4.256  0.3177 -0.1659 -0.5099
  904TIP3    H1 2718   5.072   2.818   4.275 -0.0827 -0.5863 -0.0793
  904TIP3    H2 2719   4.932   2.848   4.323  0.9969  2.6063  1.2865
  905TIP3   OH2 2720   2.096   4.079   4.852 -0.3676 -0.9247 -0.8403
  905TIP3    H1 2721   2.163   4.046   4.912 -0.9484 -1.1339 -0.2941
  905TIP3    H2 2722   2.132   4.065   4.765 -0.3515 -2.4889 -0.6094
  906TIP3   OH2 2723   3.960   0.503   3.984 -0.3142  1.1071 -0.2509
  906TIP3    H1 2724   4.051   0.483   4.004 -0.2874 -1.0559 -2.0434
  906TIP3    H2 2725   3.919   0.519   4.069  1.2494 -0.1686  0.8077
  907TIP3   OH2 2726   3.651   0.999   4.376 -0.1543 -0.4069  0.1842
  907TIP3    H1 2727   3.679   1.081   4.336  2.4359 -0.7115  1.2116
  907TIP3    H2 2728   3.560   0.988   4.346 -0.3055  2.3590 -0.6673
  908TIP3   OH2 2729   1.152   1.708   4.762 -0.1893  0.0473  0.3932
  908TIP3    H1 2730   1.120   1.634   4.814  1.1606 -0.1329  1.0079
  908TIP3    H2 2731   1.233   1.734   4.805 -0.9453  2.3220  0.5681
  909TIP3   OH2 2732   5.337   0.380   2.508 -0.0231 -0.1281  0.0499
  909TIP3    H1 2733   5.417   0.412   2.551  1.1101  1.0708 -2.7173
  909TIP3    H2 2734   5.278   0.455   2.506  0.9179  0.6716 -2.5066
  910TIP3   OH2 2735   0.315   3.372   2.515 -0.0525 -0.1018  0.0633
  910TIP3    H1 2736   0.298   3.280   2.538 -1.4542  0.4489  1.4816
  910TIP3    H2 2737   0.273   3.421   2.586  0.4500  1.6417 -0.8123
  911TIP3   OH2 2738   1.360   2.357   2.108  0.1692  0.4149  0.3986
  911TIP3    H1 2739   1.327   2.281   2.155 -0.5095  0.9463  0.8083
  911TIP3    H2 2740   1.367   2.425   2.175 -1.8989  1.5258 -0.4263
  912TIP3   OH2 2741   4.092   1.385   0.128 -0.2945 -0.0493 -0.7618
  912TIP3    H1 2742   4.166   1.338   0.168  0.6384  1.4317 -0.6890
  912TIP3    H2 2743   4.127   1.420   0.046 -1.1559 -0.0019 -1.1200
  913TIP3   OH2 2744   5.265   4.619   1.904  0.3714 -0.6147 -0.2205
  913TIP3    H1 2745   5.204   4.545   1.898 -0.0671 -0.2993  0.1861
  913TIP3    H2 2746   5.253   4.651   1.994 -0.3849  0.7300 -0.7717
  914TIP3   OH2 2747   2.596   5.466   4.146 -0.4528  0.0041  0.0917
  914TIP3    H1 2748   2.650   5.538   4.179 -0.6931  0.2884 -0.1220
  914TIP3    H2 2749   2.617   5.392   4.202  0.9487 -0.1849 -0.6564
  915TIP3   OH2 2750   0.376   5.331   4.586  0.0209  0.1749 -0.0838
  915TIP3    H1 2751   0.289   5.357   4.616 -0.0680  1.9147 -1.6262
  915TIP3    H2 2752   0.435   5.363   4.655 -0.4996 -0.6779  0.7863
  916TIP3   OH2 2753   2.341   0.178   4.871 -0.5336 -0.0157  0.6506
  916TIP3    H1 2754   2.299   0.169   4.786  0.4278  0.3283  0.1249
  916TIP3    H2 2755   2.395   0.257   4.863 -1.2987  0.6642  1.9569
  917TIP3   OH2 2756   0.759   5.193   1.655  0.3403  0.1939  0.3067
  917TIP3    H1 2757   0.842   5.230   1.626  1.1126  0.5447  2.7206
  917TIP3    H2 2758   0.784   5.127   1.720 -1.2257  1.9825  2.9265
  918TIP3   OH2 2759   3.098   5.914   4.797  0.0149 -0.5494 -0.0956
  918TIP3    H1 2760   3.040   5.951   4.864 -0.3720 -0.1769 -0.6355
  918TIP3    H2 2761   3.153   5.852   4.845 -0.5093 -0.5563  0.5037
  919TIP3   OH2 2762   1.547   3.787   0.124 -0.1679 -0.0457 -0.2673
  919TIP3    H1 2763   1.613   3.733   0.082 -1.7539 -0.4992 -2.3163
  919TIP3    H2 2764   1.572   3.877   0.103  0.6318 -0.1276  0.3009
  920TIP3   OH2 2765   1.997   0.407   2.471  0.1319 -0.2671 -0.0650
  920TIP3    H1 2766   1.981   0.381   2.561 -0.9464 -0.8394 -0.4060
  920TIP3    H2 2767   2.085   0.375   2.452  0.2639 -0.3781  0.6913
  921TIP3   OH2 2768   6.045   5.530   1.644 -0.4537  0.3051  0.5355
  921TIP3    H1 2769   5.955   5.525   1.614 -0.7029 -2.6649  1.4171
  921TIP3    H2 2770   6.074   5.439   1.648  1.6886  0.9698  2.9110
  922TIP3   OH2 2771   2.205   3.292   2.492  0.2687  0.3966  0.1652
  922TIP3    H1 2772   2.274   3.353   2.464  1.6462 -1.4285 -0.5979
  922TIP3    H2 2773   2.205   3.224   2.425 -0.8939 -0.7158  1.2416
  923TIP3   OH2 2774   4.662   4.421   0.085 -0.2518  0.2866  0.1012
  923TIP3    H1 2775   4.741   4.374   0.058  0.5364  0.8883  1.2991
  923TIP3    H2 2776   4.627   4.369   0.157  0.6471  1.5078  1.4641
  924TIP3   OH2 2777   5.710   1.281   3.758  0.1623 -0.1849 -0.1618
  924TIP3    H1 2778   5.626   1.245   3.788  0.5718 -0.5258  0.5886
  924TIP3    H2 2779   5.718   1.249   3.668 -0.4298 -0.2918 -0.1840
  925TIP3   OH2 2780   4.027   4.754   1.932 -0.2665 -0.3016  0.0610
  925TIP3    H1 2781   4.040   4.732   1.840 -0.6904  1.1796 -0.3700
  925TIP3    H2 2782   3.936   4.784   1.937  0.3984  1.7276  0.5242
  926TIP3   OH2 2783   3.571   4.673   4.702  0.0538 -0.8752  0.4144
  926TIP3    H1 2784   3.646   4.656   4.758  0.7063 -1.5409 -0.6422
  926TIP3    H2 2785   3.608   4.694   4.616 -0.8848  1.0753  0.4236
  927TIP3   OH2 2786   2.930   2.347   3.815  0.7257  0.5221 -0.1248
  927TIP3    H1 2787   2.923   2.254   3.794  1.4895 -0.1863  2.3616
  927TIP3    H2 2788   2.975   2.349   3.900 -1.0045  3.0535  0.8635
  928TIP3   OH2 2789   1.114   0.628   2.503  0.1106 -0.0451 -0.1975
  928TIP3    H1 2790   1.091   0.571   2.430  0.9341 -1.5126  0.6403
  928TIP3    H2 2791   1.045   0.695   2.505 -0.1131 -0.1775 -2.0715
  929TIP3   OH2 2792   5.531   0.537   4.074  0.5829 -0.2568 -0.1824
  929TIP3    H1 2793   5.622   0.507   4.078  0.1292 -1.6293  0.4995
  929TIP3    H2 2794   5.487   0.473   4.018 -0.1072  0.0098  0.0477
  930TIP3   OH2 2795   2.513   4.424   1.738  0.2109  0.0736  0.4567
  930TIP3    H1 2796   2.470   4.424   1.824  0.1361 -0.0750  0.4210
  930TIP3    H2 2797   2.606   4.413   1.757  0.0245 -1.8062  0.4513
  931TIP3   OH2 2798   5.924   4.451   0.433 -0.3471  0.3764  0.1048
  931TIP3    H1 2799   5.956   4.514   0.498 -2.4081  1.8485 -0.1919
  931TIP3    H2 2800   5.945   4.492   0.349  0.3736 -0.4850 -0.1473
  932TIP3   OH2 2801   3.708   0.830   3.305 -0.2819  0.1839  0.0258
  932TIP3    H1 2802   3.674   0.744   3.283  2.3715 -1.2682  1.1481
  932TIP3    H2 2803   3.671   0.888   3.238 -1.1997 -2.0222 -1.4908
  933TIP3   OH2 2804   3.614   1.154   1.265  0.1451 -0.3654  0.0646
  933TIP3    H1 2805   3.553   1.215   1.306 -0.2585 -0.8013  0.1289
  933TIP3    H2 2806   3.645   1.099   1.337  2.2408  1.1474  0.4240
  934TIP3   OH2 2807   1.828   0.420   1.024 -0.0629 -0.0695  0.2489
  934TIP3    H1 2808   1.833   0.326   1.007  0.7234 -0.3318  1.7937
  934TIP3    H2 2809   1.895   0.458   0.968  1.0220 -0.6735  1.0973
  935TIP3   OH2 2810   2.177   5.481   2.937 -0.6618 -0.7870  0.5588
  935TIP3    H1 2811   2.265   5.518   2.937 -0.5138 -1.1282  0.9570
  935TIP3    H2 2812   2.123   5.545   2.891 -0.4930  0.1209  1.5940
  936TIP3   OH2 2813   3.555   5.967   0.497 -0.2116 -0.4292  0.5057
  936TIP3    H1 2814   3.592   5.880   0.484 -1.3628 -0.5853 -2.2968
  936TIP3    H2 2815   3.465   5.950   0.526 -0.0652 -0.1166  1.1717
  937TIP3   OH2 2816   0.030   1.970   2.128  0.4419  0.0267 -0.0774
  937TIP3    H1 2817   0.093   1.948   2.059  0.0565 -3.0674  0.4062
  937TIP3    H2 2818   0.077   1.954   2.210 -0.0462  0.6529  0.3314
  938TIP3   OH2 2819   4.116   0.096   4.684  0.3671  0.2801  0.3868
  938TIP3    H1 2820   4.023   0.075   4.688  0.7653 -1.8992 -0.2983
  938TIP3    H2 2821   4.126   0.173   4.741 -1.6091 -0.3440  1.6803
  939TIP3   OH2 2822   3.002   2.688   2.591 -0.0742  0.3756  0.0990
  939TIP3    H1 2823   2.997   2.783   2.602  1.2180  0.6130 -1.1816
  939TIP3    H2 2824   2.918   2.656   2.625 -1.2752  2.1247 -1.0633
  940TIP3   OH2 2825   5.528   4.118   1.532  0.0714 -0.3811 -0.4812
  940TIP3    H1 2826   5.614   4.142   1.568 -0.3622 -1.1487  1.1753
  940TIP3    H2 2827   5.538   4.026   1.506  0.0044 -0.2054 -1.1361
  941TIP3   OH2 2828   1.521   1.491   4.428 -0.0402  0.4626  0.0611
  941TIP3    H1 2829   1.462   1.510   4.355 -0.5033  1.4419  0.6673
  941TIP3    H2 2830   1.467   1.445   4.492  0.6802 -1.5675 -0.7057
  942TIP3   OH2 2831   4.445   4.492   2.429 -0.3493  0.8266  0.2353
  942TIP3    H1 2832   4.372   4.530   2.477 -1.0333  2.0504 -1.6390
  942TIP3    H2 2833   4.420   4.501   2.337  1.4186 -0.2802 -0.4025
  943TIP3   OH2 2834   3.995   5.589   4.946 -0.6743 -0.0656  0.3653
  943TIP3    H1 2835   4.030   5.556   5.029  0.2148  0.3719  0.1809
  943TIP3    H2 2836   3.964   5.511   4.900 -0.4369 -0.4045  0.7695
  944TIP3   OH2 2837   5.758   1.363   1.948 -0.1084 -0.4172 -0.2308
  944TIP3    H1 2838   5.814   1.373   1.871  1.2336  0.0702  0.7499
  944TIP3    H2 2839   5.782   1.437   2.004  0.0787 -1.5808  1.2986
  945TIP3   OH2 2840   5.561   0.578   3.767 -0.2064  0.0451  0.3956
  945TIP3    H1 2841   5.636   0.552   3.821  0.2901  1.6088  0.4852
  945TIP3    H2 2842   5.567   0.523   3.689  3.3620  2.7093 -1.4653
  946TIP3   OH2 2843   0.326   5.786   3.464  0.1467 -0.3897 -0.0436
  946TIP3    H1 2844   0.368   5.856   3.414  1.5360 -0.1063  1.4219
  946TIP3    H2 2845   0.249   5.828   3.503  0.7258  0.2212  0.4672
  947TIP3   OH2 2846   0.874   1.127   4.939 -0.0139  0.3507 -0.1127
  947TIP3    H1 2847   0.965   1.102   4.947  0.6063  2.6679  1.1990
  947TIP3    H2 2848   0.830   1.085   5.013  0.1694 -0.0638 -0.2417
  948TIP3   OH2 2849   5.812   5.294   0.272 -0.1069  0.0779 -0.2810
  948TIP3    H1 2850   5.853   5.270   0.189  1.5425  0.8043  0.2673
  948TIP3    H2 2851   5.785   5.385   0.261 -1.4447 -0.3424 -0.5742
  949TIP3   OH2 2852   0.525   1.825   0.304  0.2379  0.6310  0.5268
  949TIP3    H1 2853   0.471   1.780   0.368  1.5755 -0.4755  0.9278
  949TIP3    H2 2854   0.600   1.856   0.354  0.1500  1.8631 -0.0727
  950TIP3   OH2 2855   5.785   2.959   0.765 -0.0590 -0.2100  0.1234
  950TIP3    H1 2856   5.771   3.007   0.846 -0.0615  0.8883 -0.5048
  950TIP3    H2 2857   5.880   2.945   0.762  0.2012  1.5301 -0.6378
  951TIP3   OH2 2858   1.435   2.719   2.413 -0.4341  0.3854  0.5729
  951TIP3    H1 2859   1.522   2.755   2.395 -0.3420  0.7349  1.6784
  951TIP3    H2 2860   1.416   2.745   2.503 -1.6044  0.1436  0.4124
  952TIP3   OH2 2861   0.196   3.196   1.445  0.6138  0.0345  0.0727
  952TIP3    H1 2862   0.190   3.267   1.382 -0.0888  0.5450  0.6965
  952TIP3    H2 2863   0.288   3.198   1.474  0.6854  0.4451 -0.1805
  953TIP3   OH2 2864   4.635   3.490   2.972  0.1484 -0.3013  0.8857
  953TIP3    H1 2865   4.555   3.468   2.924  0.0435 -1.9096  1.7203
  953TIP3    H2 2866   4.706   3.458   2.916  0.1163 -0.5239  0.9719
  954TIP3   OH2 2867   1.308   3.253   3.872 -0.2952  0.0732  0.8142
  954TIP3    H1 2868   1.358   3.328   3.904 -1.1131  0.1902  1.8572
  954TIP3    H2 2869   1.281   3.207   3.951  0.1947 -1.3363  0.1847
  955TIP3   OH2 2870   0.388   4.852   4.757  0.3362 -0.0168  0.0218
  955TIP3    H1 2871   0.306   4.841   4.804  1.4611  0.5635  2.2320
  955TIP3    H2 2872   0.452   4.878   4.824  2.3822 -0.6258 -1.5683
  956TIP3   OH2 2873   5.073   5.006   1.070 -0.7604  0.2925 -0.1109
  956TIP3    H1 2874   5.008   4.958   1.122 -0.3166  2.3077  2.5126
  956TIP3    H2 2875   5.022   5.070   1.021 -0.9843  0.1541 -0.0583
  957TIP3   OH2 2876   0.868   1.742   1.404 -0.3668 -0.0014 -0.3408
  957TIP3    H1 2877   0.793   1.787   1.366  0.9334  0.6590 -2.2724
  957TIP3    H2 2878   0.896   1.798   1.476 -0.1685  1.1026 -1.2637
  958TIP3   OH2 2879   0.369   3.168   4.214  0.1459 -0.3081 -0.0142
  958TIP3    H1 2880   0.294   3.111   4.232 -0.4532  0.3715 -0.3239
  958TIP3    H2 2881   0.397   3.199   4.300 -0.8180  0.5495  0.0026
  959TIP3   OH2 2882   1.936   1.962   0.435 -0.0416 -0.2963 -0.0462
  959TIP3    H1 2883   1.844   1.941   0.445 -0.5940  0.7875 -2.2105
  959TIP3    H2 2884   1.944   2.053   0.463  0.3103 -0.3049 -0.1080
  960TIP3   OH2 2885   6.293   3.639   2.225 -0.3406  0.0984 -0.2620
  960TIP3    H1 2886   6.237   3.608   2.154  0.3001  3.5517 -2.5420
  960TIP3    H2 2887   6.382   3.630   2.191 -0.0669  2.7441 -0.4576
  961TIP3   OH2 2888   2.892   3.436   1.793  0.1550  0.0218 -0.3564
  961TIP3    H1 2889   2.890   3.529   1.771 -0.7447  0.2727  0.7126
  961TIP3    H2 2890   2.902   3.392   1.709 -1.9562  0.9767 -1.1852
  962TIP3   OH2 2891   5.052   0.663   3.322 -0.1882 -0.0839  0.1713
  962TIP3    H1 2892   5.052   0.727   3.252 -0.0131 -0.1608  0.1013
  962TIP3    H2 2893   5.013   0.584   3.283 -3.1291  0.8057  1.0204
  963TIP3   OH2 2894   5.869   3.596   3.664  0.4111  0.3683 -0.3345
  963TIP3    H1 2895   5.781   3.619   3.635  0.0935 -0.2318  0.1330
  963TIP3    H2 2896   5.899   3.673   3.712 -0.1582  0.2893  0.1578
  964TIP3   OH2 2897   3.016   0.378   1.746 -0.1928  0.1251 -0.0311
  964TIP3    H1 2898   2.935   0.358   1.699 -1.3048  0.5292  1.6151
  964TIP3    H2 2899   3.018   0.474   1.750 -0.0216  0.1039  0.5388
  965TIP3   OH2 2900   0.707   3.205   1.665 -0.6729 -0.4374 -0.0218
  965TIP3    H1 2901   0.796   3.169   1.668 -0.5368 -0.1883 -0.8657
  965TIP3    H2 2902   0.720   3.300   1.677 -0.8981 -0.4855  0.6422
  966TIP3   OH2 2903   3.665   5.807   3.626 -0.3930  0.1965 -0.2218
  966TIP3    H1 2904   3.680   5.738   3.690  1.1957  0.9864  0.3091
  966TIP3    H2 2905   3.606   5.868   3.669  0.3100  0.4927  0.3483
  967TIP3   OH2 2906   6.122   5.533   4.784 -0.4898 -0.5497 -0.4066
  967TIP3    H1 2907   6.072   5.528   4.703 -0.0305 -0.7193 -0.6824
  967TIP3    H2 2908   6.072   5.593   4.840 -0.1365  0.6108 -1.2981
  968TIP3   OH2 2909   4.986   1.029   3.330  0.2886 -0.1279  0.4019
  968TIP3    H1 2910   4.929   1.102   3.306  0.4516  0.0134  0.4422
  968TIP3    H2 2911   4.983   0.970   3.255  1.7087  0.8539 -0.4832
  969TIP3   OH2 2912   0.903   0.314   0.373  0.6010  0.4631  0.0629
  969TIP3    H1 2913   0.835   0.343   0.434  0.7334  0.2865  0.2955
  969TIP3    H2 2914   0.854   0.270   0.303  0.5513 -0.8348  0.8841
  970TIP3   OH2 2915   2.736   3.534   3.728 -0.0795 -0.0604  0.4784
  970TIP3    H1 2916   2.819   3.539   3.680  1.4256 -0.2501  2.9086
  970TIP3    H2 2917   2.721   3.441   3.742  0.2294  0.0254  1.4945
  971TIP3   OH2 2918   5.584   5.940   4.690  0.3396  0.1089 -0.4921
  971TIP3    H1 2919   5.570   6.026   4.650 -1.3579  0.0166 -0.1819
  971TIP3    H2 2920   5.662   5.951   4.744  0.1445  1.4660 -0.4466
  972TIP3   OH2 2921   5.641   0.322   1.405  0.1274  0.2675  0.3858
  972TIP3    H1 2922   5.559   0.322   1.355  0.3659  1.8362 -0.0541
  972TIP3    H2 2923   5.625   0.260   1.477 -1.3431  0.3584  0.1754
  973TIP3   OH2 2924   4.546   3.790   1.097  0.2989 -0.1199 -0.0896
  973TIP3    H1 2925   4.536   3.696   1.080 -0.9307  0.4352 -2.8631
  973TIP3    H2 2926   4.507   3.802   1.184  1.6281 -2.3066  0.9192
  974TIP3   OH2 2927   5.113   5.552   2.484  0.3679 -0.8244  0.1885
  974TIP3    H1 2928   5.176   5.499   2.533  0.4832 -1.1516 -0.3046
  974TIP3    H2 2929   5.167   5.619   2.441 -0.0163  1.3743  2.8655
  975TIP3   OH2 2930   4.224   3.204   3.242  0.3715 -0.1221  0.2240
  975TIP3    H1 2931   4.135   3.169   3.246 -0.3510  1.6864  1.3475
  975TIP3    H2 2932   4.218   3.275   3.177  1.4495 -1.1014 -0.9885
  976TIP3   OH2 2933   4.054   3.755   4.938 -0.5190 -0.2672 -0.5230
  976TIP3    H1 2934   4.063   3.848   4.919  0.8470 -0.3433 -0.4147
  976TIP3    H2 2935   4.002   3.752   5.018 -0.2537  0.4302 -0.3155
  977TIP3   OH2 2936   2.028   0.856   3.012 -0.0296  0.1752 -0.2413
  977TIP3    H1 2937   2.084   0.795   3.060 -0.4050 -0.4323 -0.5522
  977TIP3    H2 2938   2.067   0.942   3.026  0.2463 -0.0803  0.5852
  978TIP3   OH2 2939   1.275   0.308   4.246  0.0266 -0.3486 -0.2209
  978TIP3    H1 2940   1.236   0.392   4.270 -1.0334 -0.7515 -0.4577
  978TIP3    H2 2941   1.241   0.290   4.158 -0.0959 -1.2084 -0.0112
  979TIP3   OH2 2942   4.141   4.096   0.557 -0.0071  0.0529 -0.0113
  979TIP3    H1 2943   4.089   4.030   0.604  0.0551  0.5515  0.7705
  979TIP3    H2 2944   4.199   4.045   0.501 -0.6594 -0.5349 -0.1638
  980TIP3   OH2 2945   0.944   3.828   3.397 -0.0883  0.2399  0.5255
  980TIP3    H1 2946   0.849   3.828   3.382 -0.2468 -1.6688  1.2324
  980TIP3    H2 2947   0.957   3.762   3.466  1.7025  0.8522  0.8183
  981TIP3   OH2 2948   5.153   4.543   5.015 -0.3248 -0.2149 -0.2660
  981TIP3    H1 2949   5.164   4.562   4.922  0.2336 -0.4477 -0.2527
  981TIP3    H2 2950   5.200   4.461   5.028  0.9847  0.6265  0.5330
  982TIP3   OH2 2951   0.427   5.388   0.749 -0.3820  0.3240 -0.1495
  982TIP3    H1 2952   0.355   5.337   0.785  0.0119 -0.1915 -0.0801
  982TIP3    H2 2953   0.501   5.370   0.807 -0.0326  0.3627 -0.5746
  983TIP3   OH2 2954   4.450   2.232   2.063 -0.2146  0.5151  0.5551
  983TIP3    H1 2955   4.488   2.169   2.003 -0.2749  1.1498 -0.1676
  983TIP3    H2 2956   4.498   2.221   2.145 -0.1866 -0.4115  0.4174
  984TIP3   OH2 2957   5.090   1.631   0.360  0.2844  0.2005  0.1609
  984TIP3    H1 2958   5.003   1.652   0.326  0.2857 -0.6556 -0.3890
  984TIP3    H2 2959   5.080   1.636   0.455 -0.3580  0.1255  0.0993
  985TIP3   OH2 2960   1.162   1.860   1.994 -0.0790 -0.2159  0.2225
  985TIP3    H1 2961   1.161   1.765   2.003 -0.1266 -0.3256 -0.8091
  985TIP3    H2 2962   1.234   1.878   1.933 -0.5809  0.3381 -0.2259
  986TIP3   OH2 2963   0.733   0.298   2.693  0.1652  0.2534  0.0501
  986TIP3    H1 2964   0.648   0.252   2.689 -0.9242  2.0612  0.9634
  986TIP3    H2 2965   0.717   0.381   2.647 -0.1591  2.7924  4.2212
  987TIP3   OH2 2966   3.046   4.971   4.166 -0.3228  0.1492 -0.0510
  987TIP3    H1 2967   3.132   5.013   4.165 -0.9419  1.4661 -0.6172
  987TIP3    H2 2968   3.053   4.902   4.100  0.2819  0.2850 -0.1423
  988TIP3   OH2 2969   3.637   5.950   2.470 -1.2548 -0.4911 -0.1337
  988TIP3    H1 2970   3.597   6.037   2.474  0.1184  0.1584  0.0547
  988TIP3    H2 2971   3.661   5.930   2.560  2.1914  0.8117 -0.6303
  989TIP3   OH2 2972   3.242   5.265   5.098 -0.1336  0.2995 -0.6273
  989TIP3    H1 2973   3.157   5.266   5.054 -0.7539 -0.4689  0.5109
  989TIP3    H2 2974   3.261   5.357   5.117 -1.1206  0.4094 -0.1340
  990TIP3   OH2 2975   4.563   0.661   0.951 -0.6375 -0.3597 -0.3845
  990TIP3    H1 2976   4.529   0.748   0.930 -1.3638  0.0070  2.0814
  990TIP3    H2 2977   4.498   0.623   1.010  1.2492 -1.2758  1.1901
  991TIP3   OH2 2978   5.457   2.127   4.569 -0.1505 -0.3452 -0.4542
  991TIP3    H1 2979   5.448   2.201   4.629 -0.4901  0.3827 -1.3839
  991TIP3    H2 2980   5.502   2.164   4.492 -0.7067 -0.9992 -1.1037
  992TIP3   OH2 2981   0.987   0.036   1.108 -0.5259  0.3502  0.1047
  992TIP3    H1 2982   1.024  -0.037   1.059  0.5381  0.9276  0.0314
  992TIP3    H2 2983   1.062   0.091   1.130 -1.0677  0.4954  1.7258
  993TIP3   OH2 2984   3.890   4.912   4.975  0.1017  0.1586  0.2552
  993TIP3    H1 2985   3.818   4.925   5.037  0.8993  1.3402  0.9557
  993TIP3    H2 2986   3.893   4.817   4.963  0.7846 -0.2863  3.1090
  994TIP3   OH2 2987   4.549   2.201   3.746 -0.2933  0.2769 -0.6212
  994TIP3    H1 2988   4.504   2.192   3.662 -1.2257 -2.6320  0.0908
  994TIP3    H2 2989   4.533   2.292   3.771 -5.1259 -0.1949 -0.9008
  995TIP3   OH2 2990   0.455   1.496   2.321 -0.2598 -0.2458  0.0912
  995TIP3    H1 2991   0.465   1.424   2.258 -0.5294 -0.8531  0.7273
  995TIP3    H2 2992   0.363   1.491   2.348 -0.2649  0.3033  0.1895
  996TIP3   OH2 2993   3.425   1.296   3.640 -0.3106 -0.4829  0.1628
  996TIP3    H1 2994   3.442   1.216   3.691  0.7357  0.3492  1.1754
  996TIP3    H2 2995   3.442   1.367   3.702 -2.7807  0.5524 -0.2233
  997TIP3   OH2 2996   6.075   5.301   4.930  0.3372  0.6771  0.4559
  997TIP3    H1 2997   6.158   5.259   4.906  0.2746  0.4568  0.6128
  997TIP3    H2 2998   6.097   5.393   4.942  0.0311  1.1582 -2.1713
  998TIP3   OH2 2999   1.421   1.705   0.199  0.0915 -0.3238  0.4346
  998TIP3    H1 3000   1.504   1.680   0.241  1.9203  0.7377 -2.2753
  998TIP3    H2 3001   1.393   1.626   0.153 -0.4892 -0.7011  1.4007
  999TIP3   OH2 3002   2.704   3.434   0.928 -0.5667  0.6350  0.5519
  999TIP3    H1 3003   2.703   3.493   1.003  0.3557  0.2753  0.8685
  999TIP3    H2 3004   2.786   3.455   0.883 -0.0957 -0.5579  0.8124
 1000TIP3   OH2 3005   3.482   2.116   1.073 -0.4079 -0.2059 -0.3447
 1000TIP3    H1 3006   3.569   2.097   1.107 -0.3142  0.9594  0.1017
 1000TIP3    H2 3007   3.439   2.165   1.142 -1.1442 -0.0767 -0.8803
 1001TIP3   OH2 3008   4.278   3.447   1.451  0.4469 -0.4547  0.1310
 1001TIP3    H1 3009   4.312   3.389   1.518 -1.7469 -0.9967  0.8572
 1001TIP3    H2 3010   4.240   3.389   1.386  3.4485 -0.0025 -2.2722
 1002TIP3   OH2 3011   5.975   0.410   2.056  0.3889  0.3336  0.3142
 1002TIP3    H1 3012   6.039   0.443   1.993 -0.3383  0.6173 -0.3040
 1002TIP3    H2 3013   5.919   0.352   2.005  0.7304 -0.6776  1.0661
 1003TIP3   OH2 3014   2.653   5.209   4.267 -0.1325  1.0191  0.0253
 1003TIP3    H1 3015   2.717   5.189   4.199  0.2636  1.2785  0.3215
 1003TIP3    H2 3016   2.573   5.165   4.237  0.5366 -0.4505  0.3142
 1004TIP3   OH2 3017   4.152   0.809   1.479  0.0450  0.2737  0.9404
 1004TIP3    H1 3018   4.233   0.848   1.513  0.0647  0.9432  0.1430
 1004TIP3    H2 3019   4.085   0.876   1.495  0.1309  0.7844 -0.6965
 1005TIP3   OH2 3020   4.515   3.528   1.258  0.0962 -0.0527 -1.1134
 1005TIP3    H1 3021   4.596   3.531   1.309  0.5558  0.4418 -1.8534
 1005TIP3    H2 3022   4.464   3.602   1.290  0.4825  0.3975 -1.5080
 1006TIP3   OH2 3023   2.769   5.279   1.940  0.1058  0.4543  0.1557
 1006TIP3    H1 3024   2.717   5.305   2.016 -1.0642 -3.2082  0.8139
 1006TIP3    H2 3025   2.705   5.271   1.869  0.4864 -0.1359 -0.1273
 1007TIP3   OH2 3026   1.376   0.623   0.252 -0.0107  0.2305 -0.5013
 1007TIP3    H1 3027   1.392   0.715   0.232 -1.3261  0.9268  1.3411
 1007TIP3    H2 3028   1.295   0.602   0.205 -0.2323  0.3055 -0.1560
 1008TIP3   OH2 3029   2.254   1.911   4.626  0.1240  0.0763 -0.0390
 1008TIP3    H1 3030   2.349   1.917   4.616  0.0506 -0.6366 -1.4281
 1008TIP3    H2 3031   2.220   1.984   4.574 -0.1103 -0.1940 -0.2679
 1009TIP3   OH2 3032   4.628   3.723   0.727  0.4620 -0.3337  0.4812
 1009TIP3    H1 3033   4.676   3.655   0.776 -2.0062 -0.7616  2.5044
 1009TIP3    H2 3034   4.623   3.689   0.638  1.5613 -1.5377  0.8371
 1010TIP3   OH2 3035   2.026   4.380   4.585  0.0014  0.2681  0.3747
 1010TIP3    H1 3036   2.113   4.341   4.599 -0.8128 -1.0857  2.0839
 1010TIP3    H2 3037   1.966   4.320   4.629 -1.9755  0.5328 -1.7859
 1011TIP3   OH2 3038   5.501   2.007   3.247 -0.4937 -0.4457 -0.0969
 1011TIP3    H1 3039   5.535   1.926   3.209  2.0878 -0.7596  2.5832
 1011TIP3    H2 3040   5.450   1.978   3.323 -0.1894  0.4077  0.4428
 1012TIP3   OH2 3041   0.630   3.471   1.298  0.4048 -0.1285 -0.3935
 1012TIP3    H1 3042   0.646   3.517   1.216  1.7312  0.4225  0.1592
 1012TIP3    H2 3043   0.680   3.519   1.364 -0.4231 -0.7147  0.7080
 1013TIP3   OH2 3044   5.933   1.840   2.388 -0.0193  0.0059  0.4549
 1013TIP3    H1 3045   5.973   1.832   2.302  0.8750  1.8079  0.6762
 1013TIP3    H2 3046   5.998   1.885   2.442 -0.3494 -1.4992  2.2400
 1014TIP3   OH2 3047   5.858   1.492   3.661  0.5917 -0.5170  0.0685
 1014TIP3    H1 3048   5.814   1.417   3.700 -0.0721 -0.3789 -0.3879
 1014TIP3    H2 3049   5.939   1.502   3.711 -1.3438  1.2504  3.1603
 1015TIP3   OH2 3050   3.917   1.143   1.936  0.0374  0.0026  0.0242
 1015TIP3    H1 3051   3.866   1.072   1.973 -0.5348  0.2892 -0.2131
 1015TIP3    H2 3052   3.986   1.100   1.886  0.9210 -0.4021  1.5252
 1016TIP3   OH2 3053   0.215   3.912   3.785  0.3804 -0.6476 -0.0080
 1016TIP3    H1 3054   0.214   3.988   3.843 -1.9203  0.4984 -1.4053
 1016TIP3    H2 3055   0.246   3.946   3.701 -0.5618 -1.2184 -0.6161
 1017TIP3   OH2 3056   3.544   0.882   2.345 -0.5381  0.5635 -0.0196
 1017TIP3    H1 3057   3.510   0.858   2.259  0.1791  0.6436 -0.3263
 1017TIP3    H2 3058   3.513   0.972   2.359  0.0319  0.8478 -0.5552
 1018TIP3   OH2 3059   5.907   1.261   1.365  0.8181  0.4084 -0.3872
 1018TIP3    H1 3060   5.947   1.346   1.384  0.7826  1.1132 -3.0918
 1018TIP3    H2 3061   5.847   1.278   1.293  0.2392 -1.7954 -0.5015
 1019TIP3   OH2 3062   0.926   0.570   3.061 -0.0749  0.2782  0.4198
 1019TIP3    H1 3063   0.985   0.518   3.007 -0.6738  1.2181 -1.1956
 1019TIP3    H2 3064   0.850   0.514   3.075  0.3655 -0.2133  0.8505
 1020TIP3   OH2 3065   3.785   3.147   4.325 -0.2649 -0.4469  0.1997
 1020TIP3    H1 3066   3.839   3.119   4.251  1.1507  2.0819  0.1860
 1020TIP3    H2 3067   3.845   3.151   4.399 -1.0584 -0.2310  0.8500
 1021TIP3   OH2 3068   3.376   1.820   4.749 -0.6271  0.6164  0.4162
 1021TIP3    H1 3069   3.385   1.781   4.662 -1.7997  0.9194  0.1473
 1021TIP3    H2 3070   3.325   1.756   4.798  0.6898  0.0783  1.1466
 1022TIP3   OH2 3071   0.721   1.375   3.237 -0.1961 -0.4295 -0.6175
 1022TIP3    H1 3072   0.661   1.310   3.201 -0.8527 -0.9344  1.2597
 1022TIP3    H2 3073   0.668   1.455   3.243  0.3066  0.0296 -1.9604
 1023TIP3   OH2 3074   4.300   0.066   1.756 -0.2307  0.6968  0.0691
 1023TIP3    H1 3075   4.271  -0.024   1.739 -0.0467  0.5462  0.5546
 1023TIP3    H2 3076   4.377   0.057   1.812 -1.1577  1.2158  1.4624
 1024TIP3   OH2 3077   6.209   5.161   4.094  0.2775  0.0429  0.0117
 1024TIP3    H1 3078   6.144   5.205   4.038 -0.6017 -1.9038 -0.6028
 1024TIP3    H2 3079   6.198   5.201   4.180 -0.1984  1.2799 -0.6088
 1025TIP3   OH2 3080   4.957   2.502   4.550 -0.3743  0.2358  0.0587
 1025TIP3    H1 3081   5.036   2.492   4.603  0.0636  0.3072 -0.5702
 1025TIP3    H2 3082   4.902   2.564   4.599 -0.6199 -0.7924  1.1462
 1026TIP3   OH2 3083   4.772   0.101   3.570 -0.6297  0.5460 -0.4224
 1026TIP3    H1 3084   4.815   0.137   3.648  1.3303 -2.3309 -0.0115
 1026TIP3    H2 3085   4.682   0.084   3.597 -0.8922  2.5255  0.1315
 1027TIP3   OH2 3086   0.286   1.231   1.960  0.3062  0.1411  0.4142
 1027TIP3    H1 3087   0.355   1.296   1.967 -0.6338  1.0222  2.6613
 1027TIP3    H2 3088   0.283   1.208   1.868  1.8075  2.0319 -0.1626
 1028TIP3   OH2 3089   2.433   4.464   0.965 -0.5725  0.6176  0.4097
 1028TIP3    H1 3090   2.461   4.547   0.925 -0.5435  0.8095  0.8222
 1028TIP3    H2 3091   2.341   4.456   0.942 -0.4348  0.4844 -0.1062
 1029TIP3   OH2 3092   1.160   1.161   0.380 -0.5178 -0.6969 -0.2535
 1029TIP3    H1 3093   1.066   1.172   0.395 -0.8634 -2.2774 -0.9782
 1029TIP3    H2 3094   1.165   1.093   0.313  1.1409 -0.1253 -0.7595
 1030TIP3   OH2 3095   6.156   5.721   0.456 -0.0142 -0.1522 -0.5747
 1030TIP3    H1 3096   6.163   5.784   0.385 -0.6905 -0.0898 -0.5860
 1030TIP3    H2 3097   6.181   5.637   0.417  1.4629  0.1809 -0.4219
 1031TIP3   OH2 3098   3.092   5.217   4.501 -0.0649 -0.5017 -0.0251
 1031TIP3    H1 3099   3.012   5.254   4.539 -0.4028 -0.0336 -1.1441
 1031TIP3    H2 3100   3.112   5.275   4.428 -0.0358 -1.9468 -1.2014
 1032TIP3   OH2 3101   5.135   1.001   0.748  0.3887 -0.0959  0.3129
 1032TIP3    H1 3102   5.194   0.964   0.814  0.5197 -1.5277 -0.5523
 1032TIP3    H2 3103   5.051   0.958   0.764 -0.1331  1.0897  0.8275
 1033TIP3   OH2 3104   1.555   1.921   2.266 -0.4666 -0.1096 -0.0676
 1033TIP3    H1 3105   1.566   1.953   2.356  0.0330  1.4466 -0.6324
 1033TIP3    H2 3106   1.461   1.919   2.252 -0.5301  1.1025  0.0425
 1034TIP3   OH2 3107   1.214   5.749   4.632 -0.1025  0.5560 -0.0631
 1034TIP3    H1 3108   1.153   5.695   4.583 -0.5826 -0.7337  1.8812
 1034TIP3    H2 3109   1.295   5.747   4.580 -0.7736 -0.2476 -1.0979
 1035TIP3   OH2 3110   0.491   2.491   1.637 -0.3407 -0.2661 -0.5249
 1035TIP3    H1 3111   0.415   2.521   1.587 -2.8780 -1.5592  2.2594
 1035TIP3    H2 3112   0.518   2.567   1.688  0.5886  0.3085 -1.8101
 1036TIP3   OH2 3113   3.077   2.392   2.367 -0.7315  0.6590  0.0132
 1036TIP3    H1 3114   3.009   2.457   2.348 -0.0854  1.2857 -0.1715
 1036TIP3    H2 3115   3.038   2.336   2.434 -2.5728 -0.8167 -2.1206
 1037TIP3   OH2 3116   1.486   5.032   0.344 -0.1773 -0.0364 -1.2655
 1037TIP3    H1 3117   1.432   5.080   0.406 -0.9514 -1.9255 -0.3887
 1037TIP3    H2 3118   1.439   5.039   0.261 -0.2373  0.7592 -1.1665
 1038TIP3   OH2 3119   4.295   2.858   4.637  0.0625 -0.6195  0.1901
 1038TIP3    H1 3120   4.320   2.893   4.723  0.6953  1.2455 -0.7082
 1038TIP3    H2 3121   4.214   2.903   4.615 -0.5358 -1.6914  0.1368
 1039TIP3   OH2 3122   3.106   4.491   3.306  0.1478 -0.2627  0.6152
 1039TIP3    H1 3123   3.043   4.556   3.336  0.4798  0.0064  0.7340
 1039TIP3    H2 3124   3.055   4.411   3.296 -0.2939  0.0506  0.3262
 1040TIP3   OH2 3125   5.651   0.073   5.060 -0.1861 -0.4231  0.5974
 1040TIP3    H1 3126   5.633   0.165   5.079 -0.7475 -0.3484 -0.2213
 1040TIP3    H2 3127   5.737   0.074   5.019 -1.1862  0.0795 -1.6742
 1041TIP3   OH2 3128   2.323   3.036   4.431  0.1157  0.0085  0.4089
 1041TIP3    H1 3129   2.244   3.030   4.485  0.6434  0.2935  1.2239
 1041TIP3    H2 3130   2.395   3.041   4.494  0.8531 -1.0717 -0.3160
 1042TIP3   OH2 3131   4.847   3.626   0.851 -0.1189 -0.2560 -0.3850
 1042TIP3    H1 3132   4.796   3.671   0.919 -0.3293 -0.1668 -0.6023
 1042TIP3    H2 3133   4.937   3.655   0.866  0.0295 -1.1129  0.5786
 1043TIP3   OH2 3134   0.315   5.677   2.130  0.3542 -0.8978 -0.3349
 1043TIP3    H1 3135   0.384   5.619   2.097 -0.2876 -1.4148 -0.8099
 1043TIP3    H2 3136   0.244   5.666   2.067 -0.2488 -0.5616  0.2836
 1044TIP3   OH2 3137   0.327   0.803   1.573 -0.4208  0.4358  0.6167
 1044TIP3    H1 3138   0.309   0.710   1.558  1.0518  0.2012  0.1018
 1044TIP3    H2 3139   0.305   0.818   1.665  0.2392 -0.6778  0.9793
 1045TIP3   OH2 3140   3.100   4.254   2.492  0.4024 -0.4051  0.0947
 1045TIP3    H1 3141   3.117   4.244   2.398 -1.2593  0.9994 -0.4224
 1045TIP3    H2 3142   3.070   4.344   2.501 -1.9315 -1.2331  1.5401
 1046TIP3   OH2 3143   0.222   2.084   0.779 -0.3104  0.3802  0.0113
 1046TIP3    H1 3144   0.222   2.143   0.855  3.9830  1.9800 -0.9384
 1046TIP3    H2 3145   0.263   2.135   0.709 -0.8061 -2.2146 -2.3525
 1047TIP3   OH2 3146   1.818   3.210   3.438 -0.0741  0.1726 -0.4521
 1047TIP3    H1 3147   1.901   3.161   3.435  0.1301  0.3531  1.2607
 1047TIP3    H2 3148   1.845   3.300   3.454 -0.6084  0.1030  0.9413
 1048TIP3   OH2 3149   1.345   3.729   4.904  0.3993 -0.3757  0.0320
 1048TIP3    H1 3150   1.288   3.691   4.837  1.2862  0.7530 -1.4199
 1048TIP3    H2 3151   1.285   3.753   4.975 -1.1294  1.5254 -1.7601
 1049TIP3   OH2 3152   5.493   1.736   4.130  0.7315  0.4953 -0.1632
 1049TIP3    H1 3153   5.508   1.798   4.200  0.3831  0.7632 -0.3224
 1049TIP3    H2 3154   5.398   1.727   4.125  0.7167  1.0043 -1.0524
 1050TIP3   OH2 3155   1.249   5.252   1.680 -0.3502  0.0572  0.5391
 1050TIP3    H1 3156   1.221   5.268   1.590 -0.3753  0.2065  0.5726
 1050TIP3    H2 3157   1.218   5.329   1.729  1.1355  0.8098  0.3637
 1051TIP3   OH2 3158   3.173   2.497   5.130 -0.0173  0.4044  0.0953
 1051TIP3    H1 3159   3.085   2.478   5.162 -0.0671  1.4465  0.6172
 1051TIP3    H2 3160   3.186   2.590   5.148  2.0388 -0.1898  2.1010
 1052TIP3   OH2 3161   2.788   0.498   1.567  0.4246 -0.3290  0.1922
 1052TIP3    H1 3162   2.728   0.566   1.537 -0.8975 -0.8199  1.5741
 1052TIP3    H2 3163   2.861   0.546   1.607  0.1584  0.2769 -0.0399
 1053TIP3   OH2 3164   6.121   3.661   3.283  0.6367  0.1928  0.4837
 1053TIP3    H1 3165   6.125   3.685   3.376 -0.1341  1.4819  0.2139
 1053TIP3    H2 3166   6.134   3.743   3.236 -1.3288  0.0048 -0.5064
 1054TIP3   OH2 3167   4.370   5.514   0.849  0.0761  0.4389  0.4384
 1054TIP3    H1 3168   4.431   5.563   0.903 -0.2019 -1.2896  2.4655
 1054TIP3    H2 3169   4.350   5.572   0.776  0.4769  2.9296  2.1879
 1055TIP3   OH2 3170   5.235   2.236   1.084  0.3944 -0.0124  0.0517
 1055TIP3    H1 3171   5.317   2.196   1.116  2.3540  1.6365 -2.5365
 1055TIP3    H2 3172   5.213   2.186   1.006 -2.0635 -1.3918  1.4847
 1056TIP3   OH2 3173   1.715   0.612   5.183 -0.0317 -0.0838  0.1346
 1056TIP3    H1 3174   1.649   0.626   5.115 -0.5693 -0.1648  0.6301
 1056TIP3    H2 3175   1.706   0.688   5.240 -0.4371 -0.6159  0.7974
 1057TIP3   OH2 3176   1.233   4.655   2.069  0.8645 -0.2963 -0.2328
 1057TIP3    H1 3177   1.205   4.632   2.158  0.4495 -1.0601 -0.5507
 1057TIP3    H2 3178   1.328   4.647   2.072  0.9317  0.6051  0.3934
 1058TIP3   OH2 3179   3.940   5.970   3.808 -0.8612  0.4874 -0.0489
 1058TIP3    H1 3180   3.849   5.971   3.839 -1.3828 -1.7546 -1.2872
 1058TIP3    H2 3181   3.937   5.923   3.725  1.5784 -0.4912  0.3295
 1059TIP3   OH2 3182   0.726   1.445   1.569 -0.0664  0.1043  0.0783
 1059TIP3    H1 3183   0.705   1.499   1.492  2.2597 -1.2951 -1.6571
 1059TIP3    H2 3184   0.771   1.506   1.628  0.3403  0.6421 -0.7612
 1060TIP3   OH2 3185   2.379   1.553   0.304  0.2885 -0.0131 -0.3942
 1060TIP3    H1 3186   2.460   1.592   0.334 -0.1527 -0.5029  1.5790
 1060TIP3    H2 3187   2.310   1.598   0.354 -0.2962 -2.5848  1.3307
 1061TIP3   OH2 3188   3.237   2.256   0.672  0.1994  0.1836 -0.5471
 1061TIP3    H1 3189   3.309   2.272   0.732  0.0416  0.4529 -0.4252
 1061TIP3    H2 3190   3.279   2.232   0.590  0.4286  0.3846 -0.4902
 1062TIP3   OH2 3191   0.970   3.456   3.283  0.4680  0.2014  0.0041
 1062TIP3    H1 3192   0.883   3.471   3.320 -0.3290 -1.2001 -1.1962
 1062TIP3    H2 3193   1.003   3.381   3.332  0.8895  0.5406  0.2458
 1063TIP3   OH2 3194   0.548   4.782   3.122 -0.3263  0.1640  0.5447
 1063TIP3    H1 3195   0.533   4.868   3.084 -2.3637 -0.7538 -0.9030
 1063TIP3    H2 3196   0.551   4.797   3.216  1.6094  2.0622  0.2695
 1064TIP3   OH2 3197   3.181   1.915   2.174 -0.1209  0.1974 -0.1395
 1064TIP3    H1 3198   3.122   1.932   2.247  1.2056 -0.2273  1.0848
 1064TIP3    H2 3199   3.262   1.961   2.197  0.6972 -0.8654 -0.7892
 1065TIP3   OH2 3200   1.464   0.431   1.363 -0.0112 -0.2612 -0.2506
 1065TIP3    H1 3201   1.542   0.403   1.315 -0.5228 -1.1483 -0.5982
 1065TIP3    H2 3202   1.405   0.356   1.358 -0.8803  0.3854  0.0217
 1066TIP3   OH2 3203   4.329   0.873   4.923  0.3012 -0.3109  0.1231
 1066TIP3    H1 3204   4.276   0.935   4.873  0.2944  0.6519  1.2757
 1066TIP3    H2 3205   4.322   0.904   5.014  1.8832 -0.8529  0.4568
 1067TIP3   OH2 3206   2.636   5.341   2.190  0.2609 -0.1394 -0.0049
 1067TIP3    H1 3207   2.585   5.403   2.242  0.3782  0.0475 -0.1092
 1067TIP3    H2 3208   2.680   5.286   2.255 -1.3555 -1.3908  0.0942
 1068TIP3   OH2 3209   0.770   3.181   5.010  0.0220  0.1448 -0.7562
 1068TIP3    H1 3210   0.742   3.095   5.040 -0.6025  0.8984  0.9881
 1068TIP3    H2 3211   0.751   3.182   4.916 -0.3910 -1.4386 -0.7051
 1069TIP3   OH2 3212   5.925   3.727   2.162 -0.5510 -0.4014  0.2502
 1069TIP3    H1 3213   5.994   3.692   2.106 -0.4604  2.1394 -1.4142
 1069TIP3    H2 3214   5.943   3.690   2.248  0.8786 -2.4212 -0.8246
 1070TIP3   OH2 3215   0.581   4.147   2.703  0.1490 -0.1145 -0.0739
 1070TIP3    H1 3216   0.559   4.082   2.770  0.0377 -0.8362 -0.8039
 1070TIP3    H2 3217   0.506   4.207   2.703  0.7218  0.6681  1.3526
 1071TIP3   OH2 3218   3.282   4.097   1.991  0.1444 -0.2034  0.3708
 1071TIP3    H1 3219   3.313   4.162   1.928 -1.2135 -0.1431 -0.2807
 1071TIP3    H2 3220   3.343   4.024   1.982  0.3360  0.0557 -0.5912
 1072TIP3   OH2 3221   4.830   0.641   1.334 -0.0401 -0.1290  0.4865
 1072TIP3    H1 3222   4.914   0.657   1.291 -0.1008 -0.1112  0.3738
 1072TIP3    H2 3223   4.775   0.715   1.308 -0.9825 -1.5015 -1.7110
 1073TIP3   OH2 3224   1.911   1.683   5.090  0.1141 -0.4062  0.4074
 1073TIP3    H1 3225   1.852   1.692   5.015  0.6637 -2.1010 -0.2618
 1073TIP3    H2 3226   1.878   1.747   5.153 -0.4129  1.0342 -1.2156
 1074TIP3   OH2 3227   1.532   5.833   3.338 -0.1859  0.0727 -0.3180
 1074TIP3    H1 3228   1.581   5.766   3.385 -1.1242 -0.2885  0.1799
 1074TIP3    H2 3229   1.489   5.787   3.267  1.4327  0.6649 -1.7480
 1075TIP3   OH2 3230   1.899   0.914   4.544  0.3604  0.1002  0.5450
 1075TIP3    H1 3231   1.857   0.955   4.620  0.0071 -1.3997  1.2080
 1075TIP3    H2 3232   1.903   0.983   4.479 -1.8596  0.7346  0.9696
 1076TIP3   OH2 3233   1.777   1.644   1.004  0.4614  0.4711 -0.2567
 1076TIP3    H1 3234   1.733   1.616   0.924  0.5477  0.6887 -0.3797
 1076TIP3    H2 3235   1.867   1.664   0.977  0.4786  0.5899 -0.1158
 1077TIP3   OH2 3236   1.551   6.014   3.115  0.5360  0.6090  0.0578
 1077TIP3    H1 3237   1.564   5.945   3.050  0.3835  0.0643  0.5944
 1077TIP3    H2 3238   1.573   5.972   3.199 -1.6794  0.5351  0.6550
 1078TIP3   OH2 3239   6.133   3.975   1.945  0.3679  0.4293 -0.4616
 1078TIP3    H1 3240   6.190   4.000   2.018  0.9361  1.5480 -1.2629
 1078TIP3    H2 3241   6.160   4.031   1.872 -1.2383  0.4462 -1.0985
 1079TIP3   OH2 3242   2.443   1.580   0.933  0.0576  0.0529  0.0282
 1079TIP3    H1 3243   2.511   1.523   0.970  1.6671  2.2718  0.7070
 1079TIP3    H2 3244   2.372   1.578   0.998 -0.0367 -1.3205 -0.0857
 1080TIP3   OH2 3245   3.493   1.744   3.952 -0.0453  0.3204 -0.3405
 1080TIP3    H1 3246   3.438   1.691   4.010 -0.0271  0.5695 -0.0932
 1080TIP3    H2 3247   3.495   1.831   3.993  0.2316  0.4121 -0.5426
 1081TIP3   OH2 3248   1.460   0.664   1.693  0.1078  0.0398 -0.4079
 1081TIP3    H1 3249   1.542   0.702   1.725  0.2987 -1.3540  0.8694
 1081TIP3    H2 3250   1.393   0.725   1.722  0.1828 -1.5038  3.5613
 1082TIP3   OH2 3251   3.207   0.321   0.532  0.3378  0.1830 -0.4825
 1082TIP3    H1 3252   3.301   0.323   0.515  0.4915 -1.1300  0.0840
 1082TIP3    H2 3253   3.173   0.258   0.468  0.1212 -0.6667  0.4369
 1083TIP3   OH2 3254   1.134   1.286   1.744 -0.0013  0.2154 -0.6072
 1083TIP3    H1 3255   1.052   1.298   1.696 -0.0610  1.3340 -0.2605
 1083TIP3    H2 3256   1.192   1.241   1.683 -0.8323 -0.4714 -0.8992
 1084TIP3   OH2 3257   3.946   3.715   1.680 -0.3256  0.1568 -0.9175
 1084TIP3    H1 3258   3.866   3.663   1.672 -0.2509  0.1090 -1.3910
 1084TIP3    H2 3259   3.923   3.785   1.740 -0.8072  0.2969 -1.2584
 1085TIP3   OH2 3260   0.215   4.887   3.252  0.0099 -0.3199  0.3143
 1085TIP3    H1 3261   0.264   4.966   3.232 -0.6908 -0.0118 -0.1864
 1085TIP3    H2 3262   0.137   4.918   3.299 -0.3200 -0.6992  0.0219
 1086TIP3   OH2 3263   5.453   5.628   3.811  0.4077 -0.0195 -0.2778
 1086TIP3    H1 3264   5.417   5.568   3.745 -0.5881 -0.2438  0.4470
 1086TIP3    H2 3265   5.447   5.580   3.893  1.1325  0.4690  0.0761
 1087TIP3   OH2 3266   2.967   5.278   1.377 -1.1853 -0.1512 -0.1752
 1087TIP3    H1 3267   2.909   5.227   1.434 -1.0515 -0.0432  0.0574
 1087TIP3    H2 3268   3.055   5.246   1.399 -1.0963  0.2279  0.0191
 1088TIP3   OH2 3269   0.294   2.069   5.144  0.0633  0.0053 -0.1521
 1088TIP3    H1 3270   0.335   2.105   5.065  0.2422 -1.4275 -0.7484
 1088TIP3    H2 3271   0.343   1.989   5.162 -2.3496 -1.7557 -0.8581
 1089TIP3   OH2 3272   5.935   3.418   4.373 -0.3094  0.6638  0.9453
 1089TIP3    H1 3273   5.959   3.326   4.387 -1.4770 -0.5548 -3.4240
 1089TIP3    H2 3274   5.984   3.444   4.295 -1.3058  3.2306  1.0586
 1090TIP3   OH2 3275   1.769   0.182   0.288 -0.3080  0.2361  0.5430
 1090TIP3    H1 3276   1.694   0.233   0.320 -0.9412 -0.0589 -0.4187
 1090TIP3    H2 3277   1.836   0.248   0.269 -0.6865  0.6007  0.4519
 1091TIP3   OH2 3278   3.265   1.269   4.371 -0.3167  0.0967 -0.5893
 1091TIP3    H1 3279   3.196   1.205   4.354 -0.1425  0.4576 -3.0003
 1091TIP3    H2 3280   3.245   1.342   4.311  1.1199  1.0071 -0.0092
 1092TIP3   OH2 3281   0.263   0.462   0.597 -0.5239  0.4148  0.3266
 1092TIP3    H1 3282   0.181   0.453   0.549 -1.3280  2.3079  1.2363
 1092TIP3    H2 3283   0.293   0.372   0.610 -1.2899 -0.2365 -1.9192
 1093TIP3   OH2 3284   5.499   0.552   2.047 -0.6710 -0.2841 -0.4513
 1093TIP3    H1 3285   5.551   0.546   1.967 -0.6305 -2.8093 -0.3186
 1093TIP3    H2 3286   5.428   0.489   2.034 -1.6955  0.5617  0.7897
 1094TIP3   OH2 3287   2.778   2.433   4.739  0.0833 -0.5128 -0.4360
 1094TIP3    H1 3288   2.744   2.408   4.825  0.2768 -0.1055 -0.2407
 1094TIP3    H2 3289   2.828   2.513   4.755 -1.2235  0.4997 -1.1857
 1095TIP3   OH2 3290   4.941   2.638   3.911  0.7265 -0.4446 -0.2442
 1095TIP3    H1 3291   4.922   2.721   3.954 -0.4998 -1.5029  1.3754
 1095TIP3    H2 3292   4.921   2.654   3.819 -0.5392  0.7858  0.2016
 1096TIP3   OH2 3293   4.987   0.907   2.487 -0.5544 -0.4208  0.2706
 1096TIP3    H1 3294   5.004   0.910   2.393  1.9597 -0.3067  0.6633
 1096TIP3    H2 3295   4.950   0.993   2.508 -1.4649 -0.5781 -0.6396
 1097TIP3   OH2 3296   1.802   0.340   4.183 -0.2463 -0.2732 -0.0229
 1097TIP3    H1 3297   1.706   0.341   4.183 -0.2487 -0.6343  0.5591
 1097TIP3    H2 3298   1.826   0.313   4.271  0.3850 -0.9395 -0.3894
 1098TIP3   OH2 3299   4.776   5.714   1.469 -0.2626 -0.0388  0.2367
 1098TIP3    H1 3300   4.837   5.769   1.518 -0.9299  0.8070  0.1313
 1098TIP3    H2 3301   4.716   5.776   1.427 -2.8850 -0.8809  2.4695
 1099TIP3   OH2 3302   1.154   2.961   3.871  0.3918 -0.3309  0.5434
 1099TIP3    H1 3303   1.186   2.955   3.781 -0.1222 -2.8274  0.4640
 1099TIP3    H2 3304   1.067   3.001   3.862  1.0521  1.1248  0.1834
 1100TIP3   OH2 3305   3.022   4.923   5.088  0.4821 -0.0522 -0.1459
 1100TIP3    H1 3306   3.069   4.955   5.011  0.0971  0.2348 -0.2626
 1100TIP3    H2 3307   3.074   4.848   5.118  0.8304  0.0571 -0.4705
 1101TIP3   OH2 3308   5.229   3.170   4.111 -0.2077  0.5058 -0.2904
 1101TIP3    H1 3309   5.169   3.130   4.049 -1.2458 -0.2503  1.1349
 1101TIP3    H2 3310   5.289   3.222   4.057 -0.7623 -0.4856 -1.9283
 1102TIP3   OH2 3311   2.290   2.877   4.823 -0.2093  0.1637 -0.5136
 1102TIP3    H1 3312   2.213   2.822   4.809 -0.1091  0.1164 -0.8875
 1102TIP3    H2 3313   2.363   2.825   4.790 -0.2396  0.9274 -1.8685
 1103TIP3   OH2 3314   4.618   4.885   5.135 -0.7095  0.1655  0.5632
 1103TIP3    H1 3315   4.523   4.876   5.140 -1.0234 -0.0816 -2.9496
 1103TIP3    H2 3316   4.648   4.800   5.103  0.2435  1.1628 -1.3789
 1104TIP3   OH2 3317   1.224   1.792   1.505  0.8825  0.1083  0.4341
 1104TIP3    H1 3318   1.186   1.835   1.581  1.4350  0.7372  0.3655
 1104TIP3    H2 3319   1.318   1.813   1.510  0.8240  0.7772 -0.8098
 1105TIP3   OH2 3320   2.435   2.932   4.159 -0.2566  0.2196 -0.3607
 1105TIP3    H1 3321   2.459   3.025   4.154 -1.0390  0.5329  1.0697
 1105TIP3    H2 3322   2.367   2.921   4.093  0.6353  0.3697 -1.3384
 1106TIP3   OH2 3323   3.500   4.049   4.962 -0.0896 -0.0615  0.3681
 1106TIP3    H1 3324   3.440   3.981   4.993 -0.8210  0.1731 -0.4891
 1106TIP3    H2 3325   3.448   4.129   4.961  0.8836  0.6244  1.7763
 1107TIP3   OH2 3326   5.455   2.434   1.340 -0.3290  0.4478  0.1547
 1107TIP3    H1 3327   5.534   2.456   1.388 -0.2022 -0.8625  0.5651
 1107TIP3    H2 3328   5.451   2.339   1.340 -3.6852  0.3546  3.1600
 1108TIP3   OH2 3329   6.055   5.853   1.024  0.5093 -0.7018 -0.3340
 1108TIP3    H1 3330   6.147   5.828   1.031  0.3547 -0.9647  1.0046
 1108TIP3    H2 3331   6.012   5.777   0.984  0.5444 -1.4120  0.9425
 1109TIP3   OH2 3332   2.339   4.020   2.007  0.1019 -0.7879 -0.4577
 1109TIP3    H1 3333   2.300   3.932   2.016 -1.3846 -0.1543 -0.3310
 1109TIP3    H2 3334   2.371   4.041   2.095 -1.7967 -0.2344  0.1502
 1110TIP3   OH2 3335   2.757   4.132   2.803  0.7826 -0.3308  0.0921
 1110TIP3    H1 3336   2.833   4.114   2.859  0.2814 -0.2056  0.8253
 1110TIP3    H2 3337   2.687   4.157   2.864  0.1034 -0.5952 -0.5594
 1111TIP3   OH2 3338   2.044   2.529   3.440 -0.5053 -0.1984 -0.0260
 1111TIP3    H1 3339   2.031   2.500   3.350  1.8902  2.1427 -1.2734
 1111TIP3    H2 3340   1.975   2.486   3.490 -0.9082 -2.9060 -2.6560
 1112TIP3   OH2 3341   0.521   2.302   0.283  0.1101 -0.2318  0.1340
 1112TIP3    H1 3342   0.450   2.284   0.221 -1.6461  1.8698  1.4079
 1112TIP3    H2 3343   0.551   2.390   0.259 -1.6383  1.2928  3.0630
 1113TIP3   OH2 3344   4.723   3.225   3.727  0.1631  0.8649  0.0967
 1113TIP3    H1 3345   4.665   3.299   3.706  1.5977  2.1362  0.4352
 1113TIP3    H2 3346   4.713   3.213   3.821 -0.2321  0.4758  0.0068
 1114TIP3   OH2 3347   2.315   2.861   3.531  0.1369 -0.0507  0.4942
 1114TIP3    H1 3348   2.256   2.843   3.457 -0.4764 -1.0610  1.1985
 1114TIP3    H2 3349   2.265   2.834   3.608  0.6228  1.3233  1.3265
 1115TIP3   OH2 3350   2.075   2.817   3.048  0.5040  0.0972  0.0929
 1115TIP3    H1 3351   2.094   2.723   3.047 -0.9591 -0.2745  1.5606
 1115TIP3    H2 3352   1.979   2.821   3.041  0.6724  1.6042 -2.1375
 1116TIP3   OH2 3353   4.879   0.425   1.518 -0.2574 -0.4137  0.0854
 1116TIP3    H1 3354   4.844   0.487   1.454  2.2748  0.9327 -0.1321
 1116TIP3    H2 3355   4.962   0.396   1.481 -1.1313 -3.7166  0.4053
 1117TIP3   OH2 3356   0.117   3.427   4.434 -0.8389 -0.2201 -0.0871
 1117TIP3    H1 3357   0.080   3.367   4.369 -0.9493 -0.0641 -0.1693
 1117TIP3    H2 3358   0.170   3.488   4.382  1.7485 -2.0361  0.2449
 1118TIP3   OH2 3359   0.887   3.004   3.858  0.2946 -0.4096  0.2934
 1118TIP3    H1 3360   0.818   3.059   3.820  0.3303  1.0533  2.1898
 1118TIP3    H2 3361   0.843   2.952   3.925  0.9221  0.2317  1.2341
 1119TIP3   OH2 3362   5.488   1.636   1.888  0.3400  0.2975  0.1137
 1119TIP3    H1 3363   5.570   1.647   1.937 -0.3264  2.1485  0.9027
 1119TIP3    H2 3364   5.437   1.574   1.940  0.3199  0.9447  0.8889
 1120TIP3   OH2 3365   3.920   3.395   1.870 -0.1729  0.2993  0.6476
 1120TIP3    H1 3366   3.930   3.485   1.900 -0.3036  0.0061  1.6133
 1120TIP3    H2 3367   3.949   3.396   1.779 -1.2923  1.5682  0.2631
 1121TIP3   OH2 3368   0.456   3.298   1.522 -0.0728  0.4113 -0.3387
 1121TIP3    H1 3369   0.521   3.232   1.547 -1.2841 -0.6329  0.1982
 1121TIP3    H2 3370   0.504   3.361   1.470  1.1762 -0.8238 -0.7328
 1122TIP3   OH2 3371   3.098   4.119   0.063 -0.3705  0.0350  0.1566
 1122TIP3    H1 3372   3.086   4.056   0.134 -2.3525  0.1983  0.0238
 1122TIP3    H2 3373   3.014   4.165   0.057 -0.1454  0.2756 -2.0424
 1123TIP3   OH2 3374   4.750   0.102   4.869  0.1587 -0.0536 -0.1406
 1123TIP3    H1 3375   4.830   0.154   4.872 -0.4676  0.9098  0.3744
 1123TIP3    H2 3376   4.699   0.140   4.798 -0.4387  0.2577  0.4430
 1124TIP3   OH2 3377   2.531   2.246   3.583 -0.0250 -0.1399  0.2389
 1124TIP3    H1 3378   2.444   2.207   3.590 -1.2512  1.5474 -3.3677
 1124TIP3    H2 3379   2.582   2.182   3.535  0.2922 -0.4343  0.9458
 1125TIP3   OH2 3380   2.137   4.095   3.779  0.8599  0.2739  0.5685
 1125TIP3    H1 3381   2.137   4.012   3.731 -1.7368  1.1208 -1.1036
 1125TIP3    H2 3382   2.158   4.161   3.713 -0.0155  1.2226  1.2195
 1126TIP3   OH2 3383   5.939   3.789   1.489 -0.0265  0.3991  0.1408
 1126TIP3    H1 3384   5.922   3.706   1.533 -0.3077  1.4034  2.0724
 1126TIP3    H2 3385   5.899   3.855   1.547  2.2731  2.0810 -0.0488
 1127TIP3   OH2 3386   5.702   3.287   3.451 -0.5726 -0.1880 -0.3862
 1127TIP3    H1 3387   5.706   3.194   3.431 -0.6425 -0.2794  0.0244
 1127TIP3    H2 3388   5.769   3.301   3.518 -0.2465  0.1428 -0.7796
 1128TIP3   OH2 3389   0.747   0.931   0.617 -0.0006  0.0585  0.5724
 1128TIP3    H1 3390   0.804   0.905   0.690 -0.9664  2.0394  2.1380
 1128TIP3    H2 3391   0.778   1.018   0.592 -0.7298  0.0962 -0.2543
 1129TIP3   OH2 3392   0.388   5.224   5.037  0.3559  0.0551 -0.3765
 1129TIP3    H1 3393   0.479   5.206   5.011 -0.5980 -2.7782 -2.2248
 1129TIP3    H2 3394   0.375   5.171   5.115 -0.1967 -1.1443 -1.2445
 1130TIP3   OH2 3395   3.018   0.106   0.263 -0.0872 -0.2792  0.1467
 1130TIP3    H1 3396   3.053   0.195   0.251 -0.1107 -0.1122  1.2718
 1130TIP3    H2 3397   2.927   0.120   0.292 -1.0465 -0.7055 -2.3856
 1131TIP3   OH2 3398   3.214   4.595   1.307 -0.2196 -0.5720  0.3175
 1131TIP3    H1 3399   3.230   4.634   1.393  1.0753 -1.0994  0.3462
 1131TIP3    H2 3400   3.141   4.535   1.321  1.0377 -1.9175  1.4952
 1132TIP3   OH2 3401   5.144   0.331   1.181  0.0633  0.9192 -0.0756
 1132TIP3    H1 3402   5.159   0.402   1.118 -2.5973  0.3074 -1.5996
 1132TIP3    H2 3403   5.134   0.375   1.265  2.2007  1.9256 -0.2785
 1133TIP3   OH2 3404   4.553   0.376   0.388 -0.0226 -0.4206  0.3203
 1133TIP3    H1 3405   4.475   0.431   0.380 -0.1980 -0.7634 -0.4677
 1133TIP3    H2 3406   4.563   0.361   0.482  0.7398  1.9680  0.6826
 1134TIP3   OH2 3407   4.784   4.165   3.844 -0.4187 -0.3102 -0.6241
 1134TIP3    H1 3408   4.843   4.232   3.810 -0.5397  0.5818  0.8041
 1134TIP3    H2 3409   4.841   4.093   3.870 -0.1186 -0.1069 -0.7180
 1135TIP3   OH2 3410   3.515   3.529   2.748  0.9161  0.5802 -0.1808
 1135TIP3    H1 3411   3.538   3.467   2.817 -0.1439 -2.5403 -2.3641
 1135TIP3    H2 3412   3.596   3.541   2.699  0.6699 -1.0353 -1.0669
 1136TIP3   OH2 3413   4.887   1.261   2.664  0.5502  0.5254 -0.1451
 1136TIP3    H1 3414   4.859   1.223   2.581 -0.7942 -0.7872  0.8670
 1136TIP3    H2 3415   4.816   1.321   2.688  1.1580  1.2673 -0.1565
 1137TIP3   OH2 3416   1.327   0.756   2.608  0.5335 -0.2572 -0.1528
 1137TIP3    H1 3417   1.267   0.705   2.554 -0.8933  0.1215  0.9995
 1137TIP3    H2 3418   1.412   0.748   2.565 -0.1336 -1.6653 -1.2693
 1138TIP3   OH2 3419   3.946   2.503   1.729 -0.4538 -0.0802  0.9557
 1138TIP3    H1 3420   4.042   2.511   1.726 -0.4567 -0.3673 -0.5540
 1138TIP3    H2 3421   3.929   2.412   1.708 -1.1222  0.5232 -1.4016
 1139TIP3   OH2 3422   3.876   3.103   1.577 -0.3426 -0.1212  0.0489
 1139TIP3    H1 3423   3.883   3.008   1.584  1.4819  0.0925  2.5668
 1139TIP3    H2 3424   3.789   3.118   1.540 -0.2740 -2.7519 -1.4132
 1140TIP3   OH2 3425   3.268   3.166   3.225 -0.1383  0.2481  0.1349
 1140TIP3    H1 3426   3.338   3.101   3.225 -0.4104 -0.0542 -0.6959
 1140TIP3    H2 3427   3.295   3.231   3.290  0.0084 -0.8272  1.1877
 1141TIP3   OH2 3428   3.827   4.563   0.610  0.8799 -0.5332  0.2798
 1141TIP3    H1 3429   3.823   4.502   0.684  0.8938 -1.3390 -0.3713
 1141TIP3    H2 3430   3.908   4.611   0.623  0.4703 -0.0593  1.2454
 1142TIP3   OH2 3431   3.992   3.990   2.783 -0.1292 -0.2215 -0.6711
 1142TIP3    H1 3432   3.992   3.947   2.697  1.0257 -0.5456 -0.5253
 1142TIP3    H2 3433   3.931   3.938   2.835  1.0195 -1.5486 -0.5903
 1143TIP3   OH2 3434   0.432   2.081   1.252 -0.0166 -0.1020 -0.2438
 1143TIP3    H1 3435   0.339   2.102   1.255  0.2747  1.1616  0.2894
 1143TIP3    H2 3436   0.476   2.165   1.258  1.1760 -0.7333  0.1667
 1144TIP3   OH2 3437   4.919   5.634   2.306  0.0012  0.1825  0.3830
 1144TIP3    H1 3438   4.945   5.582   2.231 -0.6814  0.5761 -0.1391
 1144TIP3    H2 3439   4.968   5.597   2.380  0.4055 -0.4298 -0.1871
 1145TIP3   OH2 3440   6.235   2.586   3.123 -0.3072 -0.1928 -0.5396
 1145TIP3    H1 3441   6.291   2.602   3.199 -0.0705  3.0101 -1.2418
 1145TIP3    H2 3442   6.194   2.671   3.105  0.2336 -0.5791 -4.4446
 1146TIP3   OH2 3443   3.564   0.715   3.865 -0.7487  0.3553  0.2630
 1146TIP3    H1 3444   3.567   0.799   3.818 -2.0689 -0.3065 -1.0958
 1146TIP3    H2 3445   3.547   0.739   3.956  0.7353  1.6344  0.2419
 1147TIP3   OH2 3446   1.573   1.889   3.631  0.5331  0.3394 -0.8253
 1147TIP3    H1 3447   1.481   1.913   3.621  0.0941 -0.9685 -0.0722
 1147TIP3    H2 3448   1.610   1.902   3.543 -0.3338  0.9655 -1.1158
 1148TIP3   OH2 3449   4.232   2.744   1.744 -0.1073  0.1014  0.6007
 1148TIP3    H1 3450   4.207   2.692   1.821 -1.9808  0.0060 -0.0199
 1148TIP3    H2 3451   4.217   2.686   1.670 -0.8677  1.0296 -0.0053
 1149TIP3   OH2 3452   4.316   3.180   2.929  0.0621  0.1514 -0.5789
 1149TIP3    H1 3453   4.381   3.237   2.970  0.8969 -0.0536 -1.5731
 1149TIP3    H2 3454   4.269   3.139   3.002 -0.3784  1.8884  0.1651
 1150TIP3   OH2 3455   3.552   3.560   0.424  0.7050 -0.0928  0.4915
 1150TIP3    H1 3456   3.538   3.654   0.417 -0.9016 -0.1873  1.8486
 1150TIP3    H2 3457   3.468   3.526   0.454  0.6759 -2.2010 -1.6732
 1151TIP3   OH2 3458   0.848   5.961   3.783 -0.0577  0.1398 -0.0388
 1151TIP3    H1 3459   0.940   5.979   3.803 -0.8995  1.9650  2.7796
 1151TIP3    H2 3460   0.837   5.987   3.691  1.5968  2.8753  0.4494
 1152TIP3   OH2 3461   1.601   1.888   4.407 -0.0008  0.0370  0.6247
 1152TIP3    H1 3462   1.533   1.851   4.463 -0.1115 -0.0423  0.4369
 1152TIP3    H2 3463   1.675   1.904   4.467 -0.0341 -0.2669  0.7496
 1153TIP3   OH2 3464   3.361   3.985   2.896  0.4344  0.3933  0.3189
 1153TIP3    H1 3465   3.402   4.015   2.815  2.6855 -1.0968  0.8085
 1153TIP3    H2 3466   3.418   3.913   2.926 -3.1339 -2.6446  0.5173
 1154TIP3   OH2 3467   2.325   5.004   3.352 -0.4128 -0.5790  0.4762
 1154TIP3    H1 3468   2.316   4.913   3.327 -2.0825 -0.4828  0.6391
 1154TIP3    H2 3469   2.337   5.051   3.269  0.5683 -0.9336  0.4030
 1155TIP3   OH2 3470   4.625   0.952   1.508 -0.2777 -0.0747 -0.2838
 1155TIP3    H1 3471   4.581   0.942   1.424 -0.5671  1.3599 -0.3173
 1155TIP3    H2 3472   4.647   1.045   1.513 -0.7810 -0.0122  1.4640
 1156TIP3   OH2 3473   5.335   3.539   0.655  0.5148 -0.4572  0.5819
 1156TIP3    H1 3474   5.328   3.629   0.625  0.3938 -0.8042 -0.5046
 1156TIP3    H2 3475   5.351   3.545   0.749  1.4172  0.7185  0.3730
 1157TIP3   OH2 3476   0.344   3.012   5.059  0.7731 -0.1174 -0.1461
 1157TIP3    H1 3477   0.342   3.051   4.971  2.0013  1.7352  0.5868
 1157TIP3    H2 3478   0.275   3.059   5.107  1.4265  0.3087  0.3995
 1158TIP3   OH2 3479   1.992   1.082   2.351  0.1354  0.4827  0.0476
 1158TIP3    H1 3480   1.943   1.107   2.429  0.7961  1.1114  0.2735
 1158TIP3    H2 3481   2.079   1.120   2.364  0.1369  0.9487 -1.1793
 1159TIP3   OH2 3482   5.417   4.052   2.375 -0.8813 -0.0748  0.5672
 1159TIP3    H1 3483   5.337   4.039   2.324 -1.3492 -0.4334  1.3602
 1159TIP3    H2 3484   5.475   3.981   2.347 -0.8006  0.2316 -0.0668
 1160TIP3   OH2 3485   0.729   1.660   1.793 -0.3426 -0.3619 -0.1519
 1160TIP3    H1 3486   0.699   1.748   1.813 -0.1090 -0.5520  1.1170
 1160TIP3    H2 3487   0.650   1.610   1.774 -0.6643 -0.3438  1.0710
 1161TIP3   OH2 3488   3.044   3.908   3.795  0.0795  0.2034  0.4601
 1161TIP3    H1 3489   3.103   3.859   3.739  0.1394 -0.3782  1.0098
 1161TIP3    H2 3490   2.960   3.863   3.786  0.3510 -0.6018  1.6752
 1162TIP3   OH2 3491   5.815   2.828   4.739  0.3256 -0.1685  0.5256
 1162TIP3    H1 3492   5.813   2.736   4.765  0.7538 -0.3230  0.0170
 1162TIP3    H2 3493   5.799   2.876   4.820 -0.0376 -0.6911  0.7686
 1163TIP3   OH2 3494   2.999   3.127   4.040 -0.4874 -0.3319  0.5446
 1163TIP3    H1 3495   3.060   3.200   4.038 -0.5540 -0.2687 -2.2444
 1163TIP3    H2 3496   3.054   3.049   4.040 -0.3788 -0.2696 -0.6741
 1164TIP3   OH2 3497   1.322   1.970   3.604  0.2772 -0.6164 -0.2609
 1164TIP3    H1 3498   1.328   2.062   3.629  1.8389 -1.3936  2.7224
 1164TIP3    H2 3499   1.228   1.954   3.593 -0.1442  0.9868  0.7115
 1165TIP3   OH2 3500   3.167   4.147   2.224  0.1702 -0.0235 -0.4946
 1165TIP3    H1 3501   3.082   4.176   2.190  0.6487 -0.4825 -2.1537
 1165TIP3    H2 3502   3.220   4.131   2.146  1.4497 -0.7635  0.4908
 1166TIP3   OH2 3503   2.984   1.620   1.800  0.2059 -0.0293  0.0809
 1166TIP3    H1 3504   2.977   1.526   1.781 -1.8157 -0.2227  1.5442
 1166TIP3    H2 3505   2.913   1.660   1.750 -0.5185  0.3688  1.3869
 1167TIP3   OH2 3506   2.832   3.648   1.433  0.1746 -0.3882  0.1726
 1167TIP3    H1 3507   2.900   3.581   1.429  0.4540 -0.0590 -0.7424
 1167TIP3    H2 3508   2.796   3.650   1.344 -0.8944 -0.4140  0.5921
 1168TIP3   OH2 3509   0.356   4.696   2.329 -0.3453 -0.0185 -0.7340
 1168TIP3    H1 3510   0.451   4.695   2.318 -0.4931  0.5867 -2.2306
 1168TIP3    H2 3511   0.341   4.759   2.399  0.3395 -0.1358 -0.4666
 1169TIP3   OH2 3512   4.520   5.025   3.507 -0.3835 -0.5339 -0.1933
 1169TIP3    H1 3513   4.486   5.111   3.482  0.8183 -0.0609 -0.2889
 1169TIP3    H2 3514   4.571   4.997   3.430  1.1341 -0.2726  0.6686
 1170TIP3   OH2 3515   4.023   3.929   1.211 -0.5210  0.7127 -0.1088
 1170TIP3    H1 3516   3.972   3.864   1.260  0.9941  1.0507  2.0503
 1170TIP3    H2 3517   4.114   3.902   1.222  0.1232  2.9181  0.5279
 1171TIP3   OH2 3518   5.004   4.094   3.033 -0.1543  0.6464 -0.1947
 1171TIP3    H1 3519   4.986   4.003   3.009  1.0401  0.4223 -0.2763
 1171TIP3    H2 3520   5.066   4.125   2.967 -0.4370  1.4793 -0.0838
 1172TIP3   OH2 3521   0.154   4.069   3.221 -0.1865 -0.4182  0.5066
 1172TIP3    H1 3522   0.185   4.021   3.297  1.5955  1.4461  1.0500
 1172TIP3    H2 3523   0.184   4.018   3.146 -1.1609 -1.7853  0.9997
 1173TIP3   OH2 3524   6.139   5.415   1.032  0.1119  0.3718 -0.6289
 1173TIP3    H1 3525   6.114   5.381   0.946  1.0890 -0.2746 -0.6684
 1173TIP3    H2 3526   6.165   5.337   1.082  0.2934  0.8278  0.0008
 1174TIP3   OH2 3527   5.123   0.512   1.808  0.5160 -0.0848 -0.3993
 1174TIP3    H1 3528   5.077   0.564   1.742 -0.0066 -2.0162 -1.6292
 1174TIP3    H2 3529   5.055   0.464   1.854  1.1033 -1.3068 -0.7525
 1175TIP3   OH2 3530   1.682   1.894   0.522  0.3807  0.6731 -0.4618
 1175TIP3    H1 3531   1.641   1.825   0.470  0.1420  0.8405 -0.4933
 1175TIP3    H2 3532   1.662   1.872   0.613  1.4937 -0.0785 -0.3816
 1176TIP3   OH2 3533   3.173   0.618   4.562  0.1304  0.3068 -0.3123
 1176TIP3    H1 3534   3.115   0.676   4.512  0.1854  1.4852  0.9350
 1176TIP3    H2 3535   3.252   0.611   4.508 -0.3508  0.4042 -1.0448
 1177TIP3   OH2 3536   3.713   4.336   4.108 -0.7300 -0.0662 -0.2319
 1177TIP3    H1 3537   3.700   4.428   4.083 -0.4773 -0.0224 -0.2027
 1177TIP3    H2 3538   3.799   4.314   4.073 -1.0704 -0.4929 -0.8263
 1178TIP3   OH2 3539   3.704   2.849   1.067 -0.0197 -1.3219 -0.4750
 1178TIP3    H1 3540   3.795   2.820   1.082 -0.0772 -1.6006 -0.6590
 1178TIP3    H2 3541   3.658   2.822   1.147  0.1715 -0.6936 -0.1471
 1179TIP3   OH2 3542   2.833   5.722   4.176 -0.4106  0.1275 -0.0047
 1179TIP3    H1 3543   2.845   5.682   4.090 -0.7095 -3.2417  1.3879
 1179TIP3    H2 3544   2.905   5.689   4.229 -0.8475  1.2518  1.3535
 1180TIP3   OH2 3545   6.097   0.815   2.198  0.1442  0.0536  0.1808
 1180TIP3    H1 3546   6.041   0.886   2.228 -1.6599 -1.4370  0.5546
 1180TIP3    H2 3547   6.123   0.770   2.278 -0.3251 -0.8117 -0.1362
 1181TIP3   OH2 3548   0.481   2.176   0.956  0.0023 -0.3129  0.0868
 1181TIP3    H1 3549   0.557   2.120   0.941 -0.1913 -0.3973 -0.6135
 1181TIP3    H2 3550   0.464   2.169   1.050  1.0514 -0.0359  0.3053
 1182TIP3   OH2 3551   1.619   0.078   4.377  0.1151 -0.2745 -0.0090
 1182TIP3    H1 3552   1.575   0.131   4.443 -1.2319  0.0108 -1.0978
 1182TIP3    H2 3553   1.556   0.009   4.357  1.4232 -1.7203  0.6269
 1183TIP3   OH2 3554   0.218   2.215   3.220 -0.0599 -0.4868  0.2317
 1183TIP3    H1 3555   0.153   2.199   3.152 -2.0972  3.5474  0.9637
 1183TIP3    H2 3556   0.279   2.278   3.181 -0.8184  1.2946  1.7400
 1184TIP3   OH2 3557   0.300   2.542   4.877  0.8906 -0.1526  0.4106
 1184TIP3    H1 3558   0.309   2.626   4.923  1.6482 -0.6423  1.1989
 1184TIP3    H2 3559   0.231   2.496   4.926 -2.3997  1.4449 -2.3230
 1185TIP3   OH2 3560   3.356   1.152   0.518 -0.5981  0.5509  0.6875
 1185TIP3    H1 3561   3.270   1.192   0.502 -1.6962 -2.0085 -0.2883
 1185TIP3    H2 3562   3.383   1.119   0.432  1.0589  0.7057  1.1264
 1186TIP3   OH2 3563   2.102   2.757   1.612 -0.3463 -0.4144 -0.1326
 1186TIP3    H1 3564   2.142   2.765   1.699  0.0823  1.0809 -0.4394
 1186TIP3    H2 3565   2.161   2.805   1.554 -2.1127  1.1732 -0.7350
 1187TIP3   OH2 3566   4.298   1.057   0.546 -0.3672 -0.3888  0.2581
 1187TIP3    H1 3567   4.296   1.107   0.628 -0.3267  0.4002 -0.2091
 1187TIP3    H2 3568   4.304   1.124   0.477 -0.7528 -1.0237 -0.4097
 1188TIP3   OH2 3569   3.891   2.125   4.838 -1.1243 -0.6571  0.2269
 1188TIP3    H1 3570   3.941   2.198   4.875 -1.5559 -1.7753  3.3443
 1188TIP3    H2 3571   3.958   2.069   4.798 -0.1802 -0.6371  1.6744
 1189TIP3   OH2 3572   5.478   4.868   1.808 -0.4827 -0.3134  0.6011
 1189TIP3    H1 3573   5.538   4.838   1.877 -0.2876 -1.8755 -0.2163
 1189TIP3    H2 3574   5.461   4.791   1.756 -2.6819  0.2670  0.3755
 1190TIP3   OH2 3575   2.705   4.848   4.151  0.1501 -0.5411  0.4122
 1190TIP3    H1 3576   2.775   4.887   4.204 -0.1487 -0.3165  0.6409
 1190TIP3    H2 3577   2.736   4.759   4.133  1.6685  0.3331 -1.6490
 1191TIP3   OH2 3578   3.030   5.547   1.361 -0.4076  0.3296 -0.7762
 1191TIP3    H1 3579   3.058   5.574   1.273 -0.3588 -1.8143 -1.4732
 1191TIP3    H2 3580   3.018   5.452   1.354  0.8475 -0.0966  1.8852
 1192TIP3   OH2 3581   4.785   1.070   5.149 -0.6725 -0.1414 -0.1535
 1192TIP3    H1 3582   4.802   1.164   5.138  0.4360 -0.1756  0.9972
 1192TIP3    H2 3583   4.748   1.063   5.237  3.7892 -1.2024  1.8980
 1193TIP3   OH2 3584   2.464   5.942   0.716 -0.5672 -0.5226 -0.0139
 1193TIP3    H1 3585   2.534   5.916   0.776 -0.6870 -1.7120 -0.3547
 1193TIP3    H2 3586   2.495   5.912   0.630 -0.5371  0.8764 -0.5076
 1194TIP3   OH2 3587   6.018   0.011   0.711  0.2592  0.0707 -0.0977
 1194TIP3    H1 3588   6.011   0.069   0.635  0.7377  1.2372  0.7159
 1194TIP3    H2 3589   5.986   0.064   0.784 -2.2023 -1.6884  0.2616
 1195TIP3   OH2 3590   0.396   1.069   0.950 -0.1527 -0.2611  0.2691
 1195TIP3    H1 3591   0.316   1.039   0.906 -0.4536  1.2996 -0.3056
 1195TIP3    H2 3592   0.449   0.990   0.960 -2.2126 -1.5478  1.6729
 1196TIP3   OH2 3593   5.530   2.733   3.185  0.7613  0.5690 -1.1496
 1196TIP3    H1 3594   5.509   2.686   3.266 -1.5054  0.4139 -1.7592
 1196TIP3    H2 3595   5.557   2.820   3.214  0.3245  0.4053 -0.2208
 1197TIP3   OH2 3596   4.852   0.622   4.509  0.0766 -0.0048  0.1248
 1197TIP3    H1 3597   4.860   0.535   4.547 -3.1296  0.1067  1.4046
 1197TIP3    H2 3598   4.848   0.607   4.415 -0.9643 -1.3394  0.3502
 1198TIP3   OH2 3599   0.244   5.413   0.160  0.0433 -0.6244  0.1946
 1198TIP3    H1 3600   0.172   5.414   0.097  0.4577 -2.0131 -0.3395
 1198TIP3    H2 3601   0.297   5.489   0.137 -1.4451  0.6633  0.8629
 1199TIP3   OH2 3602   4.663   0.441   3.996 -0.4195  0.3751  0.0180
 1199TIP3    H1 3603   4.634   0.353   4.021  2.2295 -0.2214  1.2716
 1199TIP3    H2 3604   4.674   0.437   3.901 -1.5417 -0.2247 -0.1021
 1200TIP3   OH2 3605   1.712   5.637   3.375  0.3446 -0.4201  0.6400
 1200TIP3    H1 3606   1.690   5.544   3.370  3.2884 -1.1765 -0.5607
 1200TIP3    H2 3607   1.735   5.652   3.467  1.2730 -1.2791  0.5567
 1201TIP3   OH2 3608   5.494   1.800   3.064  0.4423 -0.0210  0.4553
 1201TIP3    H1 3609   5.520   1.871   3.005 -1.1754  0.3087  0.0743
 1201TIP3    H2 3610   5.413   1.765   3.025  0.6931 -1.4613  1.1395
 1202TIP3   OH2 3611   3.141   4.534   0.109 -0.2848  0.3229  0.4391
 1202TIP3    H1 3612   3.099   4.516   0.025  0.5647  1.4665 -0.2598
 1202TIP3    H2 3613   3.188   4.453   0.131 -2.3398 -0.8058  0.9897
 1203TIP3   OH2 3614   4.036   1.562   1.999 -0.5427 -0.2569 -0.0155
 1203TIP3    H1 3615   3.940   1.566   1.998 -0.5341  0.0429  0.2523
 1203TIP3    H2 3616   4.060   1.540   1.909 -0.8682 -0.4511 -0.0574
 1204TIP3   OH2 3617   5.637   5.649   0.588  0.1502 -0.4168 -0.3820
 1204TIP3    H1 3618   5.564   5.701   0.554 -0.8702 -0.0523  2.1624
 1204TIP3    H2 3619   5.710   5.711   0.593 -0.2845  0.0653  0.0605
 1205TIP3   OH2 3620   5.016   5.500   3.689 -0.6335 -0.3376 -0.9088
 1205TIP3    H1 3621   4.920   5.506   3.691 -0.8178 -0.8269 -3.9244
 1205TIP3    H2 3622   5.045   5.585   3.723 -2.0739 -0.5281  0.9467
 1206TIP3   OH2 3623   2.801   1.160   2.108  0.4028 -0.1891  0.2683
 1206TIP3    H1 3624   2.797   1.089   2.043  1.1888 -0.8060  0.8749
 1206TIP3    H2 3625   2.852   1.228   2.064 -1.4975  0.5826 -0.8308
 1207TIP3   OH2 3626   4.655   4.692   0.145 -0.1775 -0.0513  0.3276
 1207TIP3    H1 3627   4.712   4.736   0.082 -0.0338 -0.4014  0.2112
 1207TIP3    H2 3628   4.648   4.602   0.113 -2.1862  0.3833 -0.5988
 1208TIP3   OH2 3629   2.364   3.526   2.455 -0.0445  0.4770  0.3431
 1208TIP3    H1 3630   2.388   3.617   2.434  0.8417  0.0850 -0.3962
 1208TIP3    H2 3631   2.430   3.499   2.519  2.8692 -1.2087 -3.0425
 1209TIP3   OH2 3632   1.642   3.480   3.315  0.1071 -0.2957 -0.7242
 1209TIP3    H1 3633   1.668   3.446   3.400  1.1385  1.1427 -0.4128
 1209TIP3    H2 3634   1.635   3.403   3.259 -0.0163 -1.2096  0.5139
 1210TIP3   OH2 3635   6.158   3.309   1.623  0.1705  0.2176  0.1924
 1210TIP3    H1 3636   6.211   3.379   1.584  1.9688 -0.8105  0.6893
 1210TIP3    H2 3637   6.221   3.252   1.667 -1.5442  0.0912  2.7238
 1211TIP3   OH2 3638   3.654   5.716   0.389 -0.3732 -0.5500 -0.1237
 1211TIP3    H1 3639   3.631   5.764   0.309 -0.8831  0.4032  0.5723
 1211TIP3    H2 3640   3.714   5.648   0.360  1.7056  1.4875 -0.9635
 1212TIP3   OH2 3641   4.825   2.334   4.888  0.2755  0.9344 -0.3096
 1212TIP3    H1 3642   4.903   2.383   4.862 -0.5560  2.0646 -0.7111
 1212TIP3    H2 3643   4.827   2.335   4.984  0.9666  0.5966 -0.3145
 1213TIP3   OH2 3644   0.422   3.563   1.128 -0.6563 -0.1745 -0.1736
 1213TIP3    H1 3645   0.380   3.535   1.047 -0.9471 -1.6040  0.4372
 1213TIP3    H2 3646   0.351   3.567   1.192 -0.3660  0.5445  0.1088
 1214TIP3   OH2 3647   5.618   0.179   2.602 -0.1665  0.4131 -0.6710
 1214TIP3    H1 3648   5.668   0.257   2.625  2.6537 -0.8522 -2.1213
 1214TIP3    H2 3649   5.585   0.147   2.686  1.5148  1.2837  0.3821
 1215TIP3   OH2 3650   3.249   2.559   3.709  0.2842  0.2793 -0.1483
 1215TIP3    H1 3651   3.312   2.629   3.692 -1.2020  1.2164 -2.0700
 1215TIP3    H2 3652   3.275   2.525   3.795  2.3049  1.7876 -0.0760
 1216TIP3   OH2 3653   6.201   3.015   5.110 -0.0708  0.1024 -0.0991
 1216TIP3    H1 3654   6.278   3.033   5.164 -1.1586 -0.8836  1.8907
 1216TIP3    H2 3655   6.196   2.919   5.107 -0.6287  0.1508 -1.1120
 1217TIP3   OH2 3656   4.438   5.287   4.531 -0.5363  0.3673 -0.5379
 1217TIP3    H1 3657   4.369   5.347   4.502 -0.2662  1.8150  1.5948
 1217TIP3    H2 3658   4.391   5.214   4.572 -0.8392 -0.2665 -1.9785
 1218TIP3   OH2 3659   1.441   1.976   0.235 -0.3891  0.2109 -0.1953
 1218TIP3    H1 3660   1.352   2.007   0.217 -0.1714 -0.4275 -2.7820
 1218TIP3    H2 3661   1.441   1.885   0.206  0.4805 -0.5928  2.1106
 1219TIP3   OH2 3662   2.387   1.855   3.192  0.4215  0.1656 -0.3847
 1219TIP3    H1 3663   2.383   1.766   3.226  2.5934 -0.7397 -2.3036
 1219TIP3    H2 3664   2.480   1.874   3.183 -0.0103  1.7108 -2.3010
 1220TIP3   OH2 3665   0.062   5.910   4.029  0.5547  0.0277 -0.6288
 1220TIP3    H1 3666  -0.030   5.912   4.001 -0.0278  0.2123  1.1596
 1220TIP3    H2 3667   0.102   5.985   3.985 -0.4596  0.6616 -0.5047
 1221TIP3   OH2 3668   1.333   3.611   0.176  0.1240 -0.3970 -0.2623
 1221TIP3    H1 3669   1.410   3.657   0.144 -0.3196  1.1299  0.7598
 1221TIP3    H2 3670   1.259   3.657   0.136 -0.3270 -0.3089  0.6497
 1222TIP3   OH2 3671   4.309   5.647   3.390 -0.3539 -0.2058 -0.3831
 1222TIP3    H1 3672   4.230   5.634   3.337 -0.8287  2.5195 -0.4644
 1222TIP3    H2 3673   4.276   5.659   3.479  0.1492 -0.8647 -0.0971
 1223TIP3   OH2 3674   4.145   1.765   5.057 -0.2731  0.0946  0.4658
 1223TIP3    H1 3675   4.171   1.807   5.139  0.1710  1.4747 -0.3475
 1223TIP3    H2 3676   4.056   1.796   5.040 -1.0103 -1.5169  1.2528
 1224TIP3   OH2 3677   3.755   0.371   4.831  0.2646 -0.3773  0.1861
 1224TIP3    H1 3678   3.726   0.419   4.909  1.5187 -0.1698  0.5563
 1224TIP3    H2 3679   3.746   0.434   4.759 -0.4677 -0.4204  0.2382
 1225TIP3   OH2 3680   3.656   3.098   2.248 -0.3312  0.3230 -0.3763
 1225TIP3    H1 3681   3.570   3.135   2.230 -1.3027 -1.5441  0.1862
 1225TIP3    H2 3682   3.683   3.058   2.165 -0.9031 -0.7588 -0.0598
 1226TIP3   OH2 3683   6.286   2.115   1.162 -0.4068  0.3125 -0.2250
 1226TIP3    H1 3684   6.262   2.202   1.130 -0.9866  0.4181  0.4840
 1226TIP3    H2 3685   6.211   2.087   1.214  0.5192  0.1711  1.0979
 1227TIP3   OH2 3686   1.493   1.943   3.191  0.1083  0.1577 -0.1839
 1227TIP3    H1 3687   1.543   1.940   3.110  0.1110 -4.3329 -0.2740
 1227TIP3    H2 3688   1.556   1.915   3.258 -1.1315 -1.5129  0.3645
 1228TIP3   OH2 3689   2.797   5.934   2.659 -0.3319  0.2307  0.0460
 1228TIP3    H1 3690   2.847   6.012   2.635  0.0035  0.3123  0.9732
 1228TIP3    H2 3691   2.749   5.911   2.579 -1.0602  1.8557 -0.0403
 1229TIP3   OH2 3692   3.601   4.816   3.978  0.0971  0.2175  0.7839
 1229TIP3    H1 3693   3.623   4.829   4.070 -0.1651  1.0368  0.7392
 1229TIP3    H2 3694   3.506   4.827   3.974 -0.1663 -1.7487  0.7168
 1230TIP3   OH2 3695   5.853   5.060   4.483  0.2663 -0.3187  0.0636
 1230TIP3    H1 3696   5.944   5.068   4.512  0.3726  0.5964 -0.4975
 1230TIP3    H2 3697   5.832   5.145   4.445 -0.4858 -0.8602 -0.7643
 1231TIP3   OH2 3698   5.270   2.958   1.263 -0.0066  0.3395  0.7270
 1231TIP3    H1 3699   5.221   2.886   1.223 -1.4580  1.3564  0.5662
 1231TIP3    H2 3700   5.287   2.929   1.352 -0.2477 -0.3462  0.5560
 1232TIP3   OH2 3701   5.078   3.305   3.609 -0.1893 -0.6863  0.0937
 1232TIP3    H1 3702   5.016   3.369   3.574  1.1806 -0.3875 -1.9685
 1232TIP3    H2 3703   5.116   3.347   3.685 -0.3321  0.3774 -0.4086
 1233TIP3   OH2 3704   4.709   0.816   1.149  0.2967 -0.5737  0.1199
 1233TIP3    H1 3705   4.689   0.748   1.085 -0.0461 -0.9207  0.5927
 1233TIP3    H2 3706   4.684   0.898   1.105  0.1061 -0.8023 -0.2048
 1234TIP3   OH2 3707   0.681   0.275   4.508  0.2658 -0.5816 -0.4804
 1234TIP3    H1 3708   0.610   0.248   4.450  0.1018  0.5762 -0.8423
 1234TIP3    H2 3709   0.637   0.313   4.584  0.4963  0.1616 -0.7167
 1235TIP3   OH2 3710   0.280   5.482   1.779  0.5097  0.0538  0.5398
 1235TIP3    H1 3711   0.248   5.397   1.810  2.1068 -0.3944  1.0928
 1235TIP3    H2 3712   0.297   5.532   1.858  1.7012  0.0376  0.3157
 1236TIP3   OH2 3713   2.688   2.149   4.192 -0.4415  0.2384  0.1775
 1236TIP3    H1 3714   2.669   2.181   4.104  0.9008 -1.0004 -0.6048
 1236TIP3    H2 3715   2.685   2.227   4.247 -2.1043  0.9150 -0.7976
 1237TIP3   OH2 3716   4.936   3.284   3.066 -0.8128 -0.2944 -0.3955
 1237TIP3    H1 3717   4.982   3.365   3.088  0.1258 -0.6750 -0.9360
 1237TIP3    H2 3718   4.873   3.272   3.138  0.3060 -0.0561  0.6444
 1238TIP3   OH2 3719   2.744   0.051   4.958  0.0849 -0.1219  0.4076
 1238TIP3    H1 3720   2.654   0.044   4.989 -0.0603 -1.1124 -0.2114
 1238TIP3    H2 3721   2.738   0.101   4.876  0.0215 -0.7011  0.0558
 1239TIP3   OH2 3722   4.580   0.199   4.094  0.5424 -0.2746 -0.0358
 1239TIP3    H1 3723   4.500   0.187   4.144 -0.2289 -0.9316 -1.3804
 1239TIP3    H2 3724   4.651   0.185   4.158 -0.3954 -1.0430  0.8630
 1240TIP3   OH2 3725   5.366   3.297   1.814 -0.2515  0.1714 -0.1081
 1240TIP3    H1 3726   5.450   3.262   1.844 -0.2259 -0.9328 -1.3382
 1240TIP3    H2 3727   5.317   3.315   1.894  0.5066 -0.8393  0.6167
 1241TIP3   OH2 3728   0.634   5.325   2.862  0.0721  0.9595  0.6292
 1241TIP3    H1 3729   0.569   5.269   2.905 -0.2742  2.5749  2.3933
 1241TIP3    H2 3730   0.692   5.353   2.933  2.0770  0.4232 -0.7341
 1242TIP3   OH2 3731   3.268   0.298   4.072 -0.2008 -0.0504  0.3166
 1242TIP3    H1 3732   3.321   0.315   3.994  0.6685 -1.9144  0.4565
 1242TIP3    H2 3733   3.193   0.248   4.040 -0.6288  0.4763  0.4775
 1243TIP3   OH2 3734   0.490   5.293   0.162 -0.1566  0.5743  0.2196
 1243TIP3    H1 3735   0.477   5.209   0.206 -1.1722 -0.2056 -1.4941
 1243TIP3    H2 3736   0.405   5.338   0.169  0.4197  1.5700  1.2661
 1244TIP3   OH2 3737   5.353   4.149   0.844  0.7469 -0.0321 -1.1029
 1244TIP3    H1 3738   5.322   4.206   0.773  0.3486 -0.0200 -0.9189
 1244TIP3    H2 3739   5.339   4.200   0.924  0.3827 -0.3926 -0.9374
 1245TIP3   OH2 3740   2.821   4.411   5.084 -0.4338  0.2724 -0.0501
 1245TIP3    H1 3741   2.808   4.377   5.173  0.8858 -0.5308 -0.1382
 1245TIP3    H2 3742   2.839   4.504   5.095 -0.5951  0.2401  0.4914
 1246TIP3   OH2 3743   3.681   3.025   4.919  0.1706 -0.0934  0.2839
 1246TIP3    H1 3744   3.759   3.077   4.901  0.1844  0.2715  1.3057
 1246TIP3    H2 3745   3.715   2.940   4.949  0.1809  0.0492  0.6827
 1247TIP3   OH2 3746   5.909   4.976   3.470 -0.2051  0.5087  0.6399
 1247TIP3    H1 3747   5.863   4.903   3.429 -2.3676  1.9827  0.2747
 1247TIP3    H2 3748   5.983   4.935   3.516 -0.2536 -1.6660 -1.0448
 1248TIP3   OH2 3749   0.483   3.556   0.277 -0.1552 -0.1272 -0.3985
 1248TIP3    H1 3750   0.514   3.613   0.348 -0.8255  0.7790 -0.8111
 1248TIP3    H2 3751   0.563   3.528   0.232  0.1397  2.1868 -1.4596
 1249TIP3   OH2 3752   2.024   2.622   4.812 -0.0685  0.4548 -0.0604
 1249TIP3    H1 3753   2.079   2.652   4.739 -0.3382 -0.0525 -0.4784
 1249TIP3    H2 3754   2.020   2.527   4.802  0.2354  0.3313  0.8661
 1250TIP3   OH2 3755   1.046   5.353   4.154  0.4631  0.0956 -0.9406
 1250TIP3    H1 3756   1.122   5.305   4.188  0.8730  0.5617 -1.1893
 1250TIP3    H2 3757   1.043   5.433   4.206  0.0803  0.0381 -0.8694
 1251TIP3   OH2 3758   5.088   5.044   1.580  0.0050  0.3519  0.0607
 1251TIP3    H1 3759   5.161   5.105   1.566  0.5217  0.2466  1.9788
 1251TIP3    H2 3760   5.129   4.967   1.620 -1.0037 -0.1884  0.0796
 1252TIP3   OH2 3761   2.969   3.616   1.054 -0.0399 -0.2651 -0.4170
 1252TIP3    H1 3762   2.883   3.611   1.094  0.1702 -0.1557  0.0489
 1252TIP3    H2 3763   2.958   3.674   0.979  0.3081  2.3085  1.4132
 1253TIP3   OH2 3764   1.801   3.212   4.094 -0.5933 -0.1161  0.6708
 1253TIP3    H1 3765   1.790   3.182   4.003  0.2662 -1.7791  1.0683
 1253TIP3    H2 3766   1.875   3.273   4.090 -1.2532  0.6759  0.1107
 1254TIP3   OH2 3767   2.214   3.116   1.224 -0.1749  0.3529 -0.6999
 1254TIP3    H1 3768   2.295   3.074   1.253 -0.8756 -2.0985 -1.9587
 1254TIP3    H2 3769   2.243   3.187   1.166  1.0627  0.9215  0.5677
 1255TIP3   OH2 3770   3.772   2.767   3.624 -0.6385  0.2631 -0.1765
 1255TIP3    H1 3771   3.804   2.850   3.589 -0.7807 -0.2203 -1.5044
 1255TIP3    H2 3772   3.701   2.742   3.565 -1.1172 -0.4283  0.6650
 1256TIP3   OH2 3773   1.614   3.756   4.943 -0.3778 -0.6427 -0.7133
 1256TIP3    H1 3774   1.535   3.768   4.889 -0.9267  0.8366  0.3785
 1256TIP3    H2 3775   1.596   3.676   4.992 -0.6722 -0.9774 -1.3465
 1257TIP3   OH2 3776   3.721   2.323   4.654  0.0396 -0.1111  0.0012
 1257TIP3    H1 3777   3.785   2.253   4.640  0.9691  0.2009  2.2456
 1257TIP3    H2 3778   3.657   2.286   4.714 -0.9947  0.1266 -0.9226
 1258TIP3   OH2 3779   0.419   2.332   1.999  0.0066  0.2101 -0.1448
 1258TIP3    H1 3780   0.354   2.400   1.981 -1.2958 -0.7984  0.5872
 1258TIP3    H2 3781   0.423   2.327   2.094 -0.6282 -1.3890 -0.1813
 1259TIP3   OH2 3782   0.285   4.743   4.496  0.2759 -0.4326 -0.3797
 1259TIP3    H1 3783   0.340   4.760   4.572 -1.4148 -0.1743  0.8663
 1259TIP3    H2 3784   0.324   4.794   4.426  1.4579 -0.0652  0.5165
 1260TIP3   OH2 3785   5.605   1.633   0.386 -0.0459 -0.5247 -0.0434
 1260TIP3    H1 3786   5.511   1.649   0.378 -0.0910 -0.1910  0.9131
 1260TIP3    H2 3787   5.646   1.705   0.338 -0.2783 -0.4239 -0.0922
 1261TIP3   OH2 3788   3.742   4.926   4.679  0.3594  0.0786 -0.1910
 1261TIP3    H1 3789   3.743   4.850   4.620  1.7436 -0.9570  1.1076
 1261TIP3    H2 3790   3.781   4.894   4.760 -0.7092  1.7054  1.0236
 1262TIP3   OH2 3791   0.089   3.059   4.678 -0.2597 -0.3448 -0.4008
 1262TIP3    H1 3792   0.017   3.115   4.707  0.0230  0.7908 -1.7811
 1262TIP3    H2 3793   0.160   3.078   4.739 -0.1194  0.9506 -0.9473
 1263TIP3   OH2 3794   1.383   1.866   3.942 -0.1944 -0.0167  0.4601
 1263TIP3    H1 3795   1.395   1.802   3.872 -0.8274 -0.5951  0.8770
 1263TIP3    H2 3796   1.467   1.867   3.988  1.2183  2.3181 -1.8612
 1264TIP3   OH2 3797   6.136   3.153   4.047  0.4052  0.1054 -0.1541
 1264TIP3    H1 3798   6.182   3.208   3.983  1.7783 -0.2799  0.4606
 1264TIP3    H2 3799   6.046   3.187   4.048  1.2688  2.6136  0.5045
 1265TIP3   OH2 3800   5.691   5.757   0.979  0.5908  0.3860  0.3605
 1265TIP3    H1 3801   5.605   5.720   0.959  0.8657  0.4762 -1.0938
 1265TIP3    H2 3802   5.731   5.695   1.040  0.1721 -0.5439 -0.3034
 1266TIP3   OH2 3803   1.147   0.855   0.674 -0.2912 -0.1033  0.1423
 1266TIP3    H1 3804   1.227   0.903   0.696 -0.7532  1.1493 -0.8177
 1266TIP3    H2 3805   1.179   0.779   0.625  0.2778  1.7038 -2.5608
 1267TIP3   OH2 3806   5.741   4.085   4.319 -0.0092 -0.1447  0.5624
 1267TIP3    H1 3807   5.770   4.012   4.374  3.1544  0.0372 -0.6306
 1267TIP3    H2 3808   5.744   4.161   4.377  2.3806 -0.1089  0.5116
 1268TIP3   OH2 3809   0.743   4.061   1.681 -1.0493  0.4271  0.1912
 1268TIP3    H1 3810   0.693   4.118   1.623 -1.6995  0.2466  0.5574
 1268TIP3    H2 3811   0.717   4.088   1.769 -1.4572 -0.5083  0.3691
 1269TIP3   OH2 3812   6.155   1.122   2.492  0.3201 -0.4497  0.3954
 1269TIP3    H1 3813   6.156   1.027   2.480  1.5746 -0.4091  0.0891
 1269TIP3    H2 3814   6.235   1.141   2.541  0.3383  0.5061  0.0152
 1270TIP3   OH2 3815   5.638   5.939   5.150 -0.0851  0.4262 -0.3529
 1270TIP3    H1 3816   5.693   5.956   5.227  0.7693 -1.2241 -0.5593
 1270TIP3    H2 3817   5.651   6.015   5.094 -0.7411  1.6745  1.1045
 1271TIP3   OH2 3818   4.527   4.738   0.816  0.0994 -0.1286  0.2302
 1271TIP3    H1 3819   4.571   4.654   0.825 -0.3256 -0.1731  2.8152
 1271TIP3    H2 3820   4.436   4.720   0.843  0.2148  1.2703  1.7416
 1272TIP3   OH2 3821   4.214   2.139   3.329 -0.6426 -0.5741 -0.1918
 1272TIP3    H1 3822   4.300   2.100   3.313 -0.2084 -0.2432  1.2183
 1272TIP3    H2 3823   4.224   2.230   3.302  0.8782  0.7004  3.8235
 1273TIP3   OH2 3824   0.376   1.764   3.441 -0.0503  0.5951 -0.2363
 1273TIP3    H1 3825   0.303   1.811   3.482  0.7320 -1.0025  3.4621
 1273TIP3    H2 3826   0.451   1.784   3.498  1.8187  0.0875 -2.4033
 1274TIP3   OH2 3827   3.787   1.849   2.868 -0.5706 -0.0094 -0.5704
 1274TIP3    H1 3828   3.878   1.842   2.839  0.2048 -3.5649  1.9808
 1274TIP3    H2 3829   3.793   1.853   2.963 -3.1320  2.8387 -0.3901
 1275TIP3   OH2 3830   0.676   4.800   0.869 -0.0143 -0.0288 -0.2217
 1275TIP3    H1 3831   0.646   4.848   0.792 -0.9525  0.2801  0.3194
 1275TIP3    H2 3832   0.716   4.720   0.834 -1.3265 -0.3668 -0.9786
 1276TIP3   OH2 3833   5.440   3.404   2.094 -0.3165  0.2178  0.1523
 1276TIP3    H1 3834   5.400   3.368   2.172 -0.4820  0.1335  0.0273
 1276TIP3    H2 3835   5.530   3.424   2.121 -0.4367  0.3992  0.4279
 1277TIP3   OH2 3836   2.356   0.618   1.527 -0.1008 -0.6987  0.1549
 1277TIP3    H1 3837   2.413   0.690   1.502 -1.9554  0.1420 -1.9713
 1277TIP3    H2 3838   2.361   0.556   1.454 -2.1039 -0.4354 -0.2697
 1278TIP3   OH2 3839   1.321   1.479   4.630 -0.4617 -0.2673  0.2806
 1278TIP3    H1 3840   1.301   1.572   4.636  2.7989  0.5244  0.5243
 1278TIP3    H2 3841   1.277   1.440   4.705 -2.9455  0.7650 -0.5155
 1279TIP3   OH2 3842   3.413   2.191   4.233  0.0368 -0.0160  0.2645
 1279TIP3    H1 3843   3.471   2.210   4.306  1.1375  0.5211 -0.7128
 1279TIP3    H2 3844   3.332   2.237   4.253  0.5260  0.5963  0.8627
 1280TIP3   OH2 3845   4.933   1.200   2.933  0.2017 -0.1634 -0.2103
 1280TIP3    H1 3846   4.925   1.288   2.897 -0.9206 -0.2620 -0.2139
 1280TIP3    H2 3847   4.966   1.147   2.860  0.6490  0.2002 -0.2738
 1281TIP3   OH2 3848   1.888   2.073   0.911 -0.3693 -0.3094 -0.1548
 1281TIP3    H1 3849   1.924   2.064   1.000  0.9396 -1.6380 -0.7654
 1281TIP3    H2 3850   1.805   2.118   0.923 -0.0049 -0.0492  1.7009
 1282TIP3   OH2 3851   0.844   0.186   1.844  0.4514  0.0034  0.1266
 1282TIP3    H1 3852   0.791   0.196   1.923 -0.0641  0.6429 -0.2855
 1282TIP3    H2 3853   0.810   0.107   1.802 -0.1091  0.3429 -0.0732
 1283TIP3   OH2 3854   0.331   4.260   4.552 -0.4691 -0.0484 -0.0327
 1283TIP3    H1 3855   0.273   4.323   4.593 -0.5425 -1.3919  2.0803
 1283TIP3    H2 3856   0.288   4.175   4.566  0.6823 -0.7942 -0.8132
 1284TIP3   OH2 3857   2.162   4.851   4.055  0.0002 -0.0201  0.4036
 1284TIP3    H1 3858   2.256   4.852   4.037  0.7657 -2.5027  3.3304
 1284TIP3    H2 3859   2.136   4.760   4.040 -1.5977  0.2953  1.0403
 1285TIP3   OH2 3860   3.702   2.150   0.400  0.5912  0.1080  0.0216
 1285TIP3    H1 3861   3.797   2.133   0.395  0.1112 -2.6535 -1.8589
 1285TIP3    H2 3862   3.681   2.191   0.316 -0.0744 -0.4486 -0.0858
 1286TIP3   OH2 3863   5.242   2.173   1.530 -0.4846  0.4361  0.1931
 1286TIP3    H1 3864   5.216   2.082   1.517 -0.0603  0.3798 -0.3435
 1286TIP3    H2 3865   5.162   2.218   1.557 -0.6531 -0.1323  0.6465
 1287TIP3   OH2 3866   2.263   1.174   2.399  0.6099 -0.3044  0.0288
 1287TIP3    H1 3867   2.342   1.220   2.371  1.7155 -0.7102  2.2363
 1287TIP3    H2 3868   2.287   1.081   2.395  0.2810 -0.4246  0.7542
 1288TIP3   OH2 3869   1.184   3.101   2.933  0.2506  0.6384  0.0084
 1288TIP3    H1 3870   1.234   3.130   2.856 -1.9331 -1.1711 -2.2734
 1288TIP3    H2 3871   1.239   3.033   2.973  0.7917  0.5574 -0.8458
 1289TIP3   OH2 3872   4.377   2.009   0.665  0.3503  0.2672 -0.2025
 1289TIP3    H1 3873   4.434   1.985   0.592 -1.6325 -2.6931 -0.9474
 1289TIP3    H2 3874   4.289   2.010   0.627 -0.4970  1.1072  1.6513
 1290TIP3   OH2 3875   0.709   2.464   3.030 -0.1124  0.2156 -0.4897
 1290TIP3    H1 3876   0.717   2.474   3.124 -1.5682  1.3859 -0.4505
 1290TIP3    H2 3877   0.720   2.371   3.014  3.4188  0.3349  0.4237
 1291TIP3   OH2 3878   0.765   0.336   0.640 -0.1169  0.2728 -0.6322
 1291TIP3    H1 3879   0.721   0.302   0.718  2.6527 -2.1357  0.0555
 1291TIP3    H2 3880   0.763   0.431   0.652 -2.7746  0.1607  0.5756
 1292TIP3   OH2 3881   5.012   3.906   0.527  0.6829 -0.3016  0.0109
 1292TIP3    H1 3882   4.991   3.947   0.611 -1.6714  0.9882 -1.0996
 1292TIP3    H2 3883   5.036   3.980   0.471  0.4792 -0.9328 -0.9248
 1293TIP3   OH2 3884   5.425   0.272   4.241  0.0030  0.6350  0.0577
 1293TIP3    H1 3885   5.427   0.337   4.170 -1.3971  1.2908  0.5861
 1293TIP3    H2 3886   5.511   0.279   4.283  0.8476  0.2721 -1.5123
 1294TIP3   OH2 3887   2.452   3.729   1.875  0.3420 -0.1411  0.5627
 1294TIP3    H1 3888   2.377   3.756   1.823 -0.8456 -0.4018  2.0770
 1294TIP3    H2 3889   2.526   3.779   1.839 -0.8927  1.5445  0.2720
 1295TIP3   OH2 3890   2.740   4.723   2.298  0.0979  0.4111 -0.3860
 1295TIP3    H1 3891   2.735   4.644   2.352  0.6784 -0.6236 -1.7806
 1295TIP3    H2 3892   2.677   4.783   2.337  0.3930 -0.3422  1.3359
 1296TIP3   OH2 3893   0.248   0.957   1.333  0.6847  0.0415 -0.1613
 1296TIP3    H1 3894   0.304   0.915   1.399 -0.8762  2.2799  2.8399
 1296TIP3    H2 3895   0.160   0.949   1.369 -0.3243  0.9007 -2.3093
 1297TIP3   OH2 3896   1.436   2.342   4.442  0.5450  0.3100 -0.2786
 1297TIP3    H1 3897   1.432   2.299   4.527 -2.3391 -0.1452 -0.5722
 1297TIP3    H2 3898   1.451   2.271   4.380 -1.0526  0.0982 -0.4585
 1298TIP3   OH2 3899   6.118   0.046   4.548 -0.9767 -0.1506  0.3113
 1298TIP3    H1 3900   6.097   0.003   4.632 -1.3791 -0.9229 -0.1715
 1298TIP3    H2 3901   6.210   0.072   4.557 -0.8316 -0.7850  0.7595
 1299TIP3   OH2 3902   2.932   2.089   0.472 -0.3000 -0.3293 -0.4527
 1299TIP3    H1 3903   2.881   2.034   0.532 -0.1292  2.0473  2.0947
 1299TIP3    H2 3904   2.866   2.136   0.420 -0.4926 -1.3970 -1.1942
 1300TIP3   OH2 3905   3.828   0.817   3.590 -0.8510  0.3958  0.2527
 1300TIP3    H1 3906   3.799   0.759   3.660  1.4004 -0.2571  0.7163
 1300TIP3    H2 3907   3.774   0.792   3.515 -0.5310 -1.7357  0.6684
 1301TIP3   OH2 3908   3.262   1.288   4.776  0.0281 -0.1005 -0.4735
 1301TIP3    H1 3909   3.317   1.320   4.848 -0.9169 -2.0937  1.2431
 1301TIP3    H2 3910   3.304   1.208   4.747  0.7289  0.9779 -2.6566
 1302TIP3   OH2 3911   2.298   5.026   1.767 -0.5345 -0.1465 -0.4548
 1302TIP3    H1 3912   2.285   5.111   1.807  0.5311 -0.3073  0.2736
 1302TIP3    H2 3913   2.247   4.965   1.820 -0.5747 -0.0960 -0.4364
 1303TIP3   OH2 3914   3.415   5.905   0.869  0.2065  0.3826 -0.0732
 1303TIP3    H1 3915   3.429   5.861   0.953 -0.3150 -0.9529 -0.6649
 1303TIP3    H2 3916   3.382   5.992   0.893 -0.2987 -0.1085  1.0969
 1304TIP3   OH2 3917   3.973   2.463   2.291 -0.2017  0.6100  0.4942
 1304TIP3    H1 3918   3.947   2.480   2.382  1.0739  2.2824  0.5865
 1304TIP3    H2 3919   4.027   2.384   2.296  0.7848  1.3111  1.3820
 1305TIP3   OH2 3920   3.698   5.748   3.061 -0.1044 -0.2751  0.4468
 1305TIP3    H1 3921   3.718   5.842   3.060 -1.5143  0.0686  1.5753
 1305TIP3    H2 3922   3.608   5.743   3.093  0.1024 -2.0533  0.8521
 1306TIP3   OH2 3923   4.582   3.879   3.309 -0.0158  0.5539 -0.1915
 1306TIP3    H1 3924   4.545   3.803   3.355 -0.6210  0.5222 -0.7201
 1306TIP3    H2 3925   4.671   3.852   3.285 -0.7646 -0.5898 -1.7819
 1307TIP3   OH2 3926   3.262   5.344   2.659 -0.1193  0.2495 -0.1892
 1307TIP3    H1 3927   3.230   5.344   2.749 -1.7194  0.4457 -0.7279
 1307TIP3    H2 3928   3.314   5.424   2.651 -0.0071  0.2520  0.5396
 1308TIP3   OH2 3929   2.878   1.554   2.125  0.1166 -0.1582  0.3904
 1308TIP3    H1 3930   2.834   1.574   2.043 -0.1312 -0.6620  0.3954
 1308TIP3    H2 3931   2.919   1.469   2.110 -0.9999 -0.8648  1.1913
 1309TIP3   OH2 3932   1.069   4.319   4.489  0.4412  0.5547 -0.6547
 1309TIP3    H1 3933   0.998   4.367   4.445 -0.2739 -0.8640 -1.1249
 1309TIP3    H2 3934   1.036   4.230   4.497  1.9746 -0.0200 -0.3808
 1310TIP3   OH2 3935   4.734   5.139   4.001  0.0167 -0.0498 -0.5327
 1310TIP3    H1 3936   4.744   5.051   4.036 -0.7715 -0.0004 -0.1616
 1310TIP3    H2 3937   4.702   5.127   3.912 -0.1288 -0.1393 -0.4684
 1311TIP3   OH2 3938   3.253   1.798   0.953 -0.9876 -0.5896  0.4825
 1311TIP3    H1 3939   3.181   1.764   0.900 -1.3972 -0.3932  0.9080
 1311TIP3    H2 3940   3.328   1.797   0.894 -1.7378  0.9428 -0.5571
 1312TIP3   OH2 3941   4.410   0.610   3.124  0.0398 -0.3288  0.6798
 1312TIP3    H1 3942   4.358   0.666   3.067 -0.5705 -0.8135  0.7449
 1312TIP3    H2 3943   4.480   0.666   3.156  0.4687 -0.0789 -0.6367
 1313TIP3   OH2 3944   1.960   5.108   1.833  0.6593  0.1463  0.1756
 1313TIP3    H1 3945   1.954   5.171   1.760 -0.5315 -0.9099 -0.6863
 1313TIP3    H2 3946   1.872   5.104   1.868  1.0529  0.0251  1.1773
 1314TIP3   OH2 3947   4.216   2.475   1.724 -0.5914 -0.1043  0.2378
 1314TIP3    H1 3948   4.232   2.449   1.633 -1.7968  3.8420 -1.3160
 1314TIP3    H2 3949   4.300   2.509   1.755 -0.5736  0.0674  0.0030
 1315TIP3   OH2 3950   3.999   3.353   1.609  0.5283 -0.4727  0.2152
 1315TIP3    H1 3951   4.044   3.376   1.528  2.2629 -1.1563  0.9471
 1315TIP3    H2 3952   3.960   3.267   1.591 -0.0516 -0.1227 -0.2409
 1316TIP3   OH2 3953   0.731   1.260   2.382  0.0050 -0.2926  0.2053
 1316TIP3    H1 3954   0.794   1.331   2.391 -1.5979  1.1259  0.8102
 1316TIP3    H2 3955   0.671   1.290   2.313 -0.0629 -1.5725 -0.3150
 1317TIP3   OH2 3956   4.622   4.005   2.836  0.9948  0.5365  0.0992
 1317TIP3    H1 3957   4.611   4.020   2.930  0.5461  1.1034 -0.0376
 1317TIP3    H2 3958   4.613   3.911   2.826  4.0544  0.0337  1.0157
 1318TIP3   OH2 3959   2.843   0.763   4.053 -0.0256 -0.3605  0.2147
 1318TIP3    H1 3960   2.891   0.722   3.981 -1.3133  1.0202 -1.5120
 1318TIP3    H2 3961   2.848   0.699   4.124 -0.1000 -2.5544 -1.6228
 1319TIP3   OH2 3962   1.920   4.417   3.490 -0.0314 -0.1238 -0.5312
 1319TIP3    H1 3963   1.945   4.413   3.582  0.6033 -1.8245 -0.7358
 1319TIP3    H2 3964   1.853   4.485   3.485 -2.5555 -2.1776  1.8037
 1320TIP3   OH2 3965   4.688   3.274   4.695  0.2636 -0.4746 -0.0640
 1320TIP3    H1 3966   4.766   3.246   4.743 -1.3760 -1.7430  2.0609
 1320TIP3    H2 3967   4.620   3.283   4.763 -2.3905 -2.8979 -2.1616
 1321TIP3   OH2 3968   5.575   1.790   1.335 -0.1553 -0.1107 -0.0812
 1321TIP3    H1 3969   5.506   1.761   1.395 -0.4200  0.8710  0.1014
 1321TIP3    H2 3970   5.529   1.811   1.254  0.0781 -0.4930 -0.3176
 1322TIP3   OH2 3971   2.465   1.410   0.103  0.3548 -0.0475  0.5021
 1322TIP3    H1 3972   2.425   1.467   0.168 -0.6746  3.1709 -2.6279
 1322TIP3    H2 3973   2.555   1.441   0.096  0.7609 -1.0491  0.9957
 1323TIP3   OH2 3974   5.860   4.569   3.602  0.4639  0.4626  0.3465
 1323TIP3    H1 3975   5.822   4.489   3.638 -1.3708  1.4511  0.6912
 1323TIP3    H2 3976   5.860   4.631   3.674  0.3109  1.2986 -0.3599
 1324TIP3   OH2 3977   3.525   2.435   4.458 -0.4814 -0.0152  0.4190
 1324TIP3    H1 3978   3.593   2.402   4.517 -0.2120  0.5101  0.4013
 1324TIP3    H2 3979   3.443   2.420   4.506 -0.4552 -1.5413  0.0394
 1325TIP3   OH2 3980   4.988   0.491   3.123 -0.2314  0.6404  0.1269
 1325TIP3    H1 3981   5.045   0.497   3.047  0.7991 -1.7084  0.6186
 1325TIP3    H2 3982   4.901   0.475   3.087  0.1262  0.2161 -0.5605
 1326TIP3   OH2 3983   3.296   0.561   4.891 -0.2845 -0.0211  0.1258
 1326TIP3    H1 3984   3.210   0.601   4.876 -0.8491 -0.1999  2.4195
 1326TIP3    H2 3985   3.334   0.553   4.804 -1.2747  2.9416 -0.7183
 1327TIP3   OH2 3986   1.856   3.478   3.542  0.4458  0.4457 -0.4024
 1327TIP3    H1 3987   1.848   3.573   3.551  0.5453  0.4098  0.0868
 1327TIP3    H2 3988   1.889   3.449   3.627 -0.7800 -0.1668 -0.1178
 1328TIP3   OH2 3989   2.287   3.658   0.841  0.8867 -0.4687  0.4622
 1328TIP3    H1 3990   2.344   3.585   0.817  1.2999  0.5479 -1.9274
 1328TIP3    H2 3991   2.344   3.718   0.889  2.0458  0.6645 -2.1312
 1329TIP3   OH2 3992   0.608   4.327   0.701 -0.4468 -0.5599 -0.3662
 1329TIP3    H1 3993   0.555   4.405   0.684 -0.8715 -0.8899 -0.5354
 1329TIP3    H2 3994   0.545   4.258   0.718 -0.0713 -0.9389 -0.5065
 1330TIP3   OH2 3995   2.666   1.479   0.569  0.1544 -0.0034 -0.0640
 1330TIP3    H1 3996   2.671   1.455   0.662  2.3973  0.1071 -0.0914
 1330TIP3    H2 3997   2.709   1.565   0.564 -1.3717  0.7561 -1.0124
 1331TIP3   OH2 3998   5.388   1.497   1.360 -0.3550 -0.2654  0.2204
 1331TIP3    H1 3999   5.402   1.550   1.282  2.0500 -0.6453  0.3079
 1331TIP3    H2 4000   5.332   1.425   1.332 -0.3589  0.1636 -0.8929
 1332TIP3   OH2 4001   0.470   5.912   2.698 -0.2367 -0.1469 -0.1839
 1332TIP3    H1 4002   0.497   5.824   2.673 -0.0726 -0.3140  0.5828
 1332TIP3    H2 4003   0.416   5.901   2.775  0.2670  0.4657  0.2686
 1333TIP3   OH2 4004   4.837   3.303   2.131 -0.0046  0.3034  0.1753
 1333TIP3    H1 4005   4.764   3.258   2.089  0.0562  0.8501 -0.5251
 1333TIP3    H2 4006   4.867   3.367   2.067  1.2098 -0.0305  0.3751
 1334TIP3   OH2 4007   3.522   5.446   4.943 -0.0832 -0.4089  0.1855
 1334TIP3    H1 4008   3.612   5.478   4.931  1.2512 -3.0876  2.0073
 1334TIP3    H2 4009   3.479   5.514   4.994  0.7280  1.1027 -1.0371
 1335TIP3   OH2 4010   5.260   4.443   4.137  0.2803 -0.4476  0.2636
 1335TIP3    H1 4011   5.178   4.400   4.159 -0.4575  1.0178  0.4478
 1335TIP3    H2 4012   5.236   4.510   4.073  1.3948 -0.2902 -0.0075
 1336TIP3   OH2 4013   4.263   4.446   0.272 -0.3326  0.2804  0.6208
 1336TIP3    H1 4014   4.299   4.364   0.239 -0.5173  0.7907 -0.8929
 1336TIP3    H2 4015   4.211   4.420   0.348  2.3455 -0.5982  2.3172
 1337TIP3   OH2 4016   4.542   5.537   3.408 -0.1106 -0.1773 -0.2459
 1337TIP3    H1 4017   4.527   5.454   3.363  1.0290 -0.1465 -0.7085
 1337TIP3    H2 4018   4.460   5.585   3.397 -0.2734 -0.6542 -1.2364
 1338TIP3   OH2 4019   1.774   0.688   3.416  0.2973 -0.0853 -0.0176
 1338TIP3    H1 4020   1.820   0.769   3.394 -0.1205  0.2024  0.1397
 1338TIP3    H2 4021   1.702   0.716   3.473  0.1527 -0.5698  0.0462
 1339TIP3   OH2 4022   3.147   3.604   3.905  0.3777 -0.1047 -0.5922
 1339TIP3    H1 4023   3.152   3.602   3.809  0.1025  0.9756 -0.6469
 1339TIP3    H2 4024   3.203   3.677   3.930 -1.1097  0.9306 -0.0873
 1340TIP3   OH2 4025   4.330   4.338   1.723 -0.3070 -0.2076  0.0424
 1340TIP3    H1 4026   4.243   4.328   1.762 -1.2505  0.4948 -1.7820
 1340TIP3    H2 4027   4.328   4.424   1.681  1.1451 -0.3409 -0.3525
 1341TIP3   OH2 4028   2.684   3.905   1.861  0.3027  0.3848  0.1074
 1341TIP3    H1 4029   2.671   3.994   1.894 -0.1626  0.5681 -0.5547
 1341TIP3    H2 4030   2.717   3.916   1.772 -2.0006 -0.0750 -0.8635
 1342TIP3   OH2 4031   5.697   1.207   4.240  0.0971  0.2299 -0.5211
 1342TIP3    H1 4032   5.720   1.116   4.224  1.6727  0.6852 -1.0771
 1342TIP3    H2 4033   5.721   1.222   4.332  0.8370  0.3396 -0.7220
 1343TIP3   OH2 4034   5.811   3.896   0.089 -0.3375 -0.3039 -0.0562
 1343TIP3    H1 4035   5.874   3.966   0.075 -0.5384  0.2234  1.4151
 1343TIP3    H2 4036   5.849   3.820   0.047  0.7116  0.2891 -0.2181
 1344TIP3   OH2 4037   0.439   0.228   5.097  0.1560 -0.1321  0.1649
 1344TIP3    H1 4038   0.530   0.251   5.080  0.0138  0.0664 -0.3775
 1344TIP3    H2 4039   0.401   0.308   5.134 -0.2684  0.4659 -1.4544
 1345TIP3   OH2 4040   0.459   2.501   0.532  0.2957 -0.0356 -0.0183
 1345TIP3    H1 4041   0.446   2.428   0.593 -0.3219 -0.0975 -0.2191
 1345TIP3    H2 4042   0.379   2.504   0.480 -0.2924  1.6199  0.8833
 1346TIP3   OH2 4043   4.449   1.150   4.463  0.4971  0.3047  0.1167
 1346TIP3    H1 4044   4.395   1.090   4.515  1.8251 -2.0371 -1.0418
 1346TIP3    H2 4045   4.539   1.121   4.478  1.1125  1.3064 -1.3696
 1347TIP3   OH2 4046   3.162   5.799   1.249 -0.0529 -0.0489 -0.1309
 1347TIP3    H1 4047   3.171   5.880   1.198  1.0417 -0.2697 -0.3044
 1347TIP3    H2 4048   3.152   5.730   1.182  2.9275 -0.5488 -0.1888
 1348TIP3   OH2 4049   2.569   5.751   2.793 -0.6290  0.3105 -0.1919
 1348TIP3    H1 4050   2.589   5.739   2.701 -2.2064 -2.8833 -0.2706
 1348TIP3    H2 4051   2.618   5.682   2.837 -0.0028  1.6914  1.3987
 1349TIP3   OH2 4052   2.179   4.234   2.100  0.2256  0.5549 -0.4971
 1349TIP3    H1 4053   2.246   4.174   2.069  0.6470 -0.1652  1.6363
 1349TIP3    H2 4054   2.115   4.238   2.028  0.8331 -1.4312 -1.2210
 1350TIP3   OH2 4055   4.679   5.817   3.206 -0.0670 -0.2752  0.4330
 1350TIP3    H1 4056   4.587   5.822   3.231  0.0175  2.4934  0.5401
 1350TIP3    H2 4057   4.678   5.779   3.118 -1.1987 -1.2791  0.8651
 1351TIP3   OH2 4058   3.831   4.810   0.377  0.0671  0.2559 -0.7126
 1351TIP3    H1 4059   3.818   4.901   0.404 -0.3892 -0.4882  1.9112
 1351TIP3    H2 4060   3.744   4.771   0.383  0.5555 -0.7629  0.0596
 1352TIP3   OH2 4061   4.842   1.636   2.151 -0.5511  0.0164 -0.0887
 1352TIP3    H1 4062   4.908   1.617   2.216  0.5022  1.3629 -0.7229
 1352TIP3    H2 4063   4.890   1.642   2.068 -1.1927  2.4222 -0.3587
 1353TIP3   OH2 4064   3.014   2.645   1.663  0.6819 -0.0667 -0.1592
 1353TIP3    H1 4065   3.091   2.692   1.630  1.1407  0.8654  2.0511
 1353TIP3    H2 4066   2.960   2.713   1.703 -0.5178 -0.9367 -0.2478
 1354TIP3   OH2 4067   1.366   4.878   4.917  0.3584 -0.1408 -0.1787
 1354TIP3    H1 4068   1.313   4.816   4.867 -1.1492 -0.0139  1.1716
 1354TIP3    H2 4069   1.361   4.959   4.867 -0.8664 -0.1027 -0.0320
 1355TIP3   OH2 4070   4.275   4.538   3.612  0.3802 -0.0585  0.2078
 1355TIP3    H1 4071   4.269   4.443   3.602 -1.1847 -0.0065  0.4462
 1355TIP3    H2 4072   4.303   4.569   3.526  2.1778 -0.8075  0.4776
 1356TIP3   OH2 4073   5.531   1.922   4.382  0.2710 -0.0645  0.3305
 1356TIP3    H1 4074   5.468   1.961   4.442  0.9954  0.1290  0.9863
 1356TIP3    H2 4075   5.581   1.861   4.436  1.8217  1.0834  0.2626
 1357TIP3   OH2 4076   1.319   4.818   2.977  0.3776 -0.2873 -0.6184
 1357TIP3    H1 4077   1.371   4.796   3.055  0.7734 -1.4430 -1.1859
 1357TIP3    H2 4078   1.384   4.849   2.913  0.1458 -0.0468 -0.7395
 1358TIP3   OH2 4079   0.707   4.140   1.954  0.3805  0.6228 -0.1985
 1358TIP3    H1 4080   0.676   4.074   2.016  1.6914 -0.6300 -0.8297
 1358TIP3    H2 4081   0.632   4.199   1.944 -0.0983  0.4996  2.0381
 1359TIP3   OH2 4082   4.933   3.810   2.989  0.6251  0.1979 -0.2440
 1359TIP3    H1 4083   5.021   3.778   3.011  0.6878 -0.2465 -1.1051
 1359TIP3    H2 4084   4.930   3.808   2.893  0.2200  1.7247 -0.2792
 1360TIP3   OH2 4085   6.135   3.860   2.983  0.7117  0.2350  0.4901
 1360TIP3    H1 4086   6.066   3.908   2.937  1.5869  0.2820 -0.8235
 1360TIP3    H2 4087   6.203   3.925   2.999  2.0442 -0.5676 -1.5810
 1361TIP3   OH2 4088   0.809   1.284   0.572  0.4063 -0.0172  0.3703
 1361TIP3    H1 4089   0.856   1.354   0.618 -0.0339  1.1699 -0.9050
 1361TIP3    H2 4090   0.726   1.276   0.619 -1.3998  3.3681 -1.8762
 1362TIP3   OH2 4091   1.814   2.766   3.052  0.3769 -0.2488 -0.1027
 1362TIP3    H1 4092   1.734   2.773   2.999  1.0175  1.6644 -0.9207
 1362TIP3    H2 4093   1.792   2.810   3.134 -0.2560 -2.2204  0.8405
 1363TIP3   OH2 4094   2.258   1.531   3.021  0.2038 -0.2214 -0.1659
 1363TIP3    H1 4095   2.274   1.585   2.944 -0.8776  0.3293 -0.0259
 1363TIP3    H2 4096   2.249   1.442   2.987 -1.1803  0.1450 -0.7978
 1364TIP3   OH2 4097   2.728   3.334   4.628  0.5539 -0.3512  0.4143
 1364TIP3    H1 4098   2.791   3.325   4.699  0.1663  4.6606  1.7360
 1364TIP3    H2 4099   2.782   3.344   4.549  1.6403  2.9119  1.4052
 1365TIP3   OH2 4100   3.059   0.698   4.857  0.1724 -0.3746  0.2987
 1365TIP3    H1 4101   2.991   0.742   4.909 -0.5622 -1.0450 -0.0767
 1365TIP3    H2 4102   3.095   0.767   4.801 -0.9492 -0.2182 -0.2627
 1366TIP3   OH2 4103   0.307   3.066   0.252  0.0930 -0.1041  0.5661
 1366TIP3    H1 4104   0.316   2.987   0.305 -0.3111  0.4204  1.4304
 1366TIP3    H2 4105   0.241   3.118   0.297 -0.3670  0.2929 -0.5372
 1367TIP3   OH2 4106   4.000   2.423   0.355 -0.4085 -0.3803  0.1026
 1367TIP3    H1 4107   4.076   2.455   0.404 -0.4561  1.0057 -0.6745
 1367TIP3    H2 4108   3.963   2.501   0.313 -0.5210 -1.4456 -1.9380
 1368TIP3   OH2 4109   3.253   2.774   3.294  0.2402 -0.0171  0.0496
 1368TIP3    H1 4110   3.217   2.699   3.247  1.6107 -1.5321  1.3236
 1368TIP3    H2 4111   3.204   2.776   3.376  2.2030 -1.4503  1.3390
 1369TIP3   OH2 4112   1.425   2.805   3.884  0.0532  0.4548 -0.2201
 1369TIP3    H1 4113   1.488   2.845   3.944  1.2032 -0.0898 -1.0289
 1369TIP3    H2 4114   1.341   2.812   3.929  0.9908 -0.7069  1.8735
 1370TIP3   OH2 4115   4.870   5.988   4.781 -0.2215  0.2808  0.1495
 1370TIP3    H1 4116   4.943   5.951   4.830  0.3103 -0.7248 -1.3200
 1370TIP3    H2 4117   4.794   5.935   4.806 -0.0366  0.0465  0.2177
 1371TIP3   OH2 4118   5.017   4.222   4.484 -0.1529 -0.2083 -0.2949
 1371TIP3    H1 4119   4.999   4.251   4.395  2.6205 -1.1968 -1.2771
 1371TIP3    H2 4120   4.959   4.147   4.498 -0.8351  0.1537 -1.1213
 1372TIP3   OH2 4121   4.409   2.194   1.498  0.1841 -0.0353  0.0309
 1372TIP3    H1 4122   4.468   2.196   1.573 -0.7178  0.3217  0.7466
 1372TIP3    H2 4123   4.351   2.119   1.514 -1.7510  1.5973  1.0945
 1373TIP3   OH2 4124   0.097   2.624   3.352 -0.1302  0.2320  0.5438
 1373TIP3    H1 4125   0.078   2.543   3.398  0.0700 -1.5096 -2.2461
 1373TIP3    H2 4126   0.193   2.625   3.344 -0.2437 -1.2935 -2.5931
 1374TIP3   OH2 4127   1.604   5.520   4.192 -0.6224  0.3467  0.5927
 1374TIP3    H1 4128   1.545   5.480   4.256 -1.5469  0.2347 -0.3025
 1374TIP3    H2 4129   1.608   5.456   4.121 -0.7427  1.0816 -0.0859
 1375TIP3   OH2 4130   2.113   1.111   0.858 -0.3877  0.3379  0.1088
 1375TIP3    H1 4131   2.112   1.200   0.892 -3.2006  0.0801  0.9339
 1375TIP3    H2 4132   2.022   1.083   0.859  0.1541 -1.9027 -1.9534
 1376TIP3   OH2 4133   0.491   5.532   1.969  0.3778  1.3297 -0.2558
 1376TIP3    H1 4134   0.567   5.583   1.940  0.2801  1.3082 -0.5469
 1376TIP3    H2 4135   0.472   5.473   1.896  0.1809  1.2210 -0.1170
 1377TIP3   OH2 4136   2.111   1.020   4.886  0.2040  0.0444  0.3130
 1377TIP3    H1 4137   2.049   1.093   4.879 -1.3444 -1.2015  0.4914
 1377TIP3    H2 4138   2.161   1.038   4.965  1.0421  1.7487 -0.5283
 1378TIP3   OH2 4139   4.317   4.552   4.368 -0.0767  0.2247 -0.4234
 1378TIP3    H1 4140   4.375   4.590   4.434 -1.1848  0.2409  0.5786
 1378TIP3    H2 4141   4.375   4.525   4.297  1.3085 -0.8571  1.0497
 1379TIP3   OH2 4142   1.612   0.803   1.854 -0.2184  0.1496 -0.3025
 1379TIP3    H1 4143   1.594   0.776   1.944  3.0798 -0.0507  0.4076
 1379TIP3    H2 4144   1.579   0.893   1.850  1.2345  0.8558  1.7646
 1380TIP3   OH2 4145   5.576   1.460   0.105 -0.0406 -0.8737  0.4933
 1380TIP3    H1 4146   5.609   1.385   0.056  1.4754  0.0207  0.0524
 1380TIP3    H2 4147   5.568   1.530   0.040 -0.0443 -0.2585  1.1354
 1381TIP3   OH2 4148   4.696   4.057   0.386  0.2931  0.1882 -0.3355
 1381TIP3    H1 4149   4.747   4.114   0.444 -0.4122 -0.5128  1.0365
 1381TIP3    H2 4150   4.628   4.020   0.443 -1.4931  0.7370 -1.9717
 1382TIP3   OH2 4151   2.879   4.296   0.028  0.0716  0.2548 -0.1404
 1382TIP3    H1 4152   2.886   4.344   0.110  1.2366  1.3333 -0.8443
 1382TIP3    H2 4153   2.901   4.360  -0.039  0.0185 -0.8442 -1.2278
 1383TIP3   OH2 4154   1.112   4.665   0.097  0.8447 -0.1091 -0.3419
 1383TIP3    H1 4155   1.187   4.702   0.051  0.0680 -0.9657 -2.3992
 1383TIP3    H2 4156   1.078   4.737   0.150  3.2652  0.2032  0.9219
 1384TIP3   OH2 4157   2.766   0.568   2.288 -0.4797 -0.0531  0.4311
 1384TIP3    H1 4158   2.858   0.579   2.312 -0.9951  1.5035  1.8631
 1384TIP3    H2 4159   2.751   0.474   2.294  0.5088 -0.1446  2.2890
 1385TIP3   OH2 4160   5.431   5.958   4.210  0.1431 -0.3097  0.0743
 1385TIP3    H1 4161   5.397   5.874   4.180 -1.8079  0.9782 -1.6027
 1385TIP3    H2 4162   5.359   5.998   4.258  0.6026  0.8947 -0.1945
 1386TIP3   OH2 4163   0.268   0.984   3.476  0.2802  0.5549  0.2685
 1386TIP3    H1 4164   0.327   1.059   3.467  0.6999  0.0563 -1.4277
 1386TIP3    H2 4165   0.254   0.976   3.570  0.6688  2.4112  0.5240
 1387TIP3   OH2 4166   4.713   5.037   0.206 -0.1558 -0.0752  0.1979
 1387TIP3    H1 4167   4.664   4.969   0.251 -1.9982 -0.2268 -1.8480
 1387TIP3    H2 4168   4.709   5.113   0.264 -1.1194 -0.6964  0.9638
 1388TIP3   OH2 4169   1.807   4.404   3.189  0.1765 -0.2234  0.2625
 1388TIP3    H1 4170   1.790   4.457   3.267 -0.4330 -0.3840  0.2446
 1388TIP3    H2 4171   1.901   4.387   3.192 -0.0466 -1.5018  1.7930
 1389TIP3   OH2 4172   3.011   4.857   2.586  0.1547 -0.1715  0.5928
 1389TIP3    H1 4173   3.028   4.875   2.493 -1.1835 -0.3455  0.2917
 1389TIP3    H2 4174   3.045   4.769   2.601  0.4674 -0.1020  0.3008
 1390TIP3   OH2 4175   1.152   1.153   0.068  0.7401  0.0942 -0.4265
 1390TIP3    H1 4176   1.086   1.103   0.019  2.5264  0.8385 -3.8758
 1390TIP3    H2 4177   1.101   1.214   0.121 -1.4273  0.3375 -2.6090
 1391TIP3   OH2 4178   0.477   4.968   1.213 -0.1683  0.0555  0.5224
 1391TIP3    H1 4179   0.490   4.907   1.140 -0.4937 -0.0872  0.5839
 1391TIP3    H2 4180   0.439   4.915   1.283  1.1035 -0.0344  1.1686
 1392TIP3   OH2 4181   1.834   2.062   4.937 -0.3241  0.1258 -0.5094
 1392TIP3    H1 4182   1.883   2.121   4.880 -0.7729 -1.2484 -2.4405
 1392TIP3    H2 4183   1.887   2.055   5.017  1.1768  0.8599 -1.4012
 1393TIP3   OH2 4184   2.040   1.826   4.098 -0.1502  0.0258 -0.2681
 1393TIP3    H1 4185   2.103   1.807   4.167 -0.4130  1.1587  0.3113
 1393TIP3    H2 4186   1.955   1.798   4.133 -0.1101 -0.5844 -0.6494
 1394TIP3   OH2 4187   5.044   0.117   2.327  0.2918 -0.3247 -0.5519
 1394TIP3    H1 4188   5.018   0.182   2.261 -2.2843 -0.8478 -0.1485
 1394TIP3    H2 4189   4.970   0.056   2.332  1.2361 -1.4163  1.4188
 1395TIP3   OH2 4190   2.082   1.695   3.658  0.2412  0.2058 -0.0087
 1395TIP3    H1 4191   2.104   1.759   3.726 -1.3769  2.8059 -1.7306
 1395TIP3    H2 4192   2.098   1.742   3.576 -2.4748 -1.0388 -1.3561
 1396TIP3   OH2 4193   2.289   5.666   1.495 -0.1458  0.4265 -0.6364
 1396TIP3    H1 4194   2.202   5.695   1.466 -0.6351 -0.8639 -0.5396
 1396TIP3    H2 4195   2.350   5.719   1.444 -0.9943  0.9515 -1.1310
 1397TIP3   OH2 4196   1.235   2.549   4.671 -0.0344  0.2658  0.1810
 1397TIP3    H1 4197   1.220   2.602   4.749 -0.1201  2.2312 -1.0973
 1397TIP3    H2 4198   1.327   2.564   4.649  0.6061 -1.9638  1.0369
 1398TIP3   OH2 4199   3.409   2.765   3.639 -0.3440 -0.4807 -0.6301
 1398TIP3    H1 4200   3.409   2.847   3.588  0.5484 -0.4106 -0.5345
 1398TIP3    H2 4201   3.460   2.786   3.717 -1.2921 -0.7350  0.0815
 1399TIP3   OH2 4202   0.930   5.511   5.117  0.1639  0.3421  0.4421
 1399TIP3    H1 4203   0.888   5.596   5.108 -1.4432 -0.5076 -0.6531
 1399TIP3    H2 4204   0.926   5.473   5.029  2.2363 -0.2760  0.5550
 1400TIP3   OH2 4205   0.386   2.007   2.620  0.1589 -0.2226 -0.5651
 1400TIP3    H1 4206   0.477   2.015   2.592  0.9587  0.1392  1.8905
 1400TIP3    H2 4207   0.354   2.097   2.625  0.9290 -0.0084  2.1511
 1401TIP3   OH2 4208   4.909   1.369   0.543  0.3481  0.6755  0.5909
 1401TIP3    H1 4209   4.825   1.402   0.574 -0.2610 -2.1165  2.1856
 1401TIP3    H2 4210   4.890   1.328   0.459 -0.1457 -0.8452  1.4166
 1402TIP3   OH2 4211   0.697   4.372   1.608  0.4810  0.3592  0.4450
 1402TIP3    H1 4212   0.616   4.422   1.598  1.1419  1.4690  0.5443
 1402TIP3    H2 4213   0.730   4.396   1.694  0.6334 -0.5401  0.6528
 1403TIP3   OH2 4214   1.297   0.437   4.982 -0.0950  0.1052 -0.3380
 1403TIP3    H1 4215   1.217   0.419   4.932 -1.2031  1.3626  0.8807
 1403TIP3    H2 4216   1.364   0.454   4.916 -0.7872 -1.1127 -1.3849
 1404TIP3   OH2 4217   0.424   0.438   1.898 -0.6810 -0.2291  0.5562
 1404TIP3    H1 4218   0.452   0.374   1.833  1.7129  2.5584 -1.4132
 1404TIP3    H2 4219   0.351   0.484   1.857 -1.1768 -0.4832  1.1530
 1405TIP3   OH2 4220   3.038   3.578   2.571  0.2346 -0.4801 -0.0363
 1405TIP3    H1 4221   3.105   3.645   2.557  1.6255 -2.0188 -1.1446
 1405TIP3    H2 4222   3.076   3.520   2.638  0.8410 -2.3315 -1.8913
 1406TIP3   OH2 4223   1.555   5.842   3.725  0.3586 -0.0510 -0.0545
 1406TIP3    H1 4224   1.625   5.789   3.687 -0.4860 -1.1361 -0.1504
 1406TIP3    H2 4225   1.539   5.802   3.811 -0.5557 -0.2172 -0.2892
 1407TIP3   OH2 4226   3.214   3.439   2.740  0.4149  0.1006  0.0109
 1407TIP3    H1 4227   3.302   3.401   2.741  0.4074 -0.0029 -1.5485
 1407TIP3    H2 4228   3.175   3.411   2.823  2.2297  1.1165  1.2686
 1408TIP3   OH2 4229   4.789   1.842   3.838 -0.2563 -0.0198  0.2486
 1408TIP3    H1 4230   4.851   1.914   3.829 -0.6207  0.1430 -1.1978
 1408TIP3    H2 4231   4.710   1.873   3.794 -1.2034 -0.4198  1.6088
 1409TIP3   OH2 4232   2.255   0.316   3.439  0.1263 -0.4200  0.3706
 1409TIP3    H1 4233   2.193   0.327   3.512  1.2237  1.1848  1.1113
 1409TIP3    H2 4234   2.316   0.249   3.470  0.0771 -0.3745  0.5696
 1410TIP3   OH2 4235   3.933   4.282   3.259 -0.4977  0.1403  1.0076
 1410TIP3    H1 4236   3.962   4.199   3.298 -1.8510 -0.8065  0.1023
 1410TIP3    H2 4237   3.957   4.274   3.167 -0.0532  1.0586  1.0390
 1411TIP3   OH2 4238   0.122   1.679   0.278 -0.0212  0.0010 -0.6983
 1411TIP3    H1 4239   0.204   1.629   0.276 -0.2046 -0.3185 -0.3740
 1411TIP3    H2 4240   0.057   1.620   0.240 -0.0064  0.4356 -1.4046
 1412TIP3   OH2 4241   0.003   4.163   3.733 -0.6424 -0.1853 -0.3914
 1412TIP3    H1 4242   0.062   4.132   3.664  0.4020 -0.2154  0.4890
 1412TIP3    H2 4243   0.059   4.177   3.808 -1.4749  1.5827 -0.0470
 1413TIP3   OH2 4244   1.062   1.870   5.144  0.4522 -0.3969 -0.1746
 1413TIP3    H1 4245   0.972   1.840   5.151  0.5635 -0.9405 -0.9075
 1413TIP3    H2 4246   1.108   1.829   5.217  0.0501  0.1345  0.3869
 1414TIP3   OH2 4247   3.930   4.390   2.775  0.3812  0.2023 -0.1148
 1414TIP3    H1 4248   4.022   4.413   2.785  0.0392  2.1053 -0.8057
 1414TIP3    H2 4249   3.890   4.469   2.739 -1.9156  0.1514  2.0742
 1415TIP3   OH2 4250   0.169   3.491   3.598  0.6829  0.3808 -0.1492
 1415TIP3    H1 4251   0.197   3.560   3.538  0.0015  0.5918 -0.2345
 1415TIP3    H2 4252   0.083   3.463   3.565  0.6996 -0.1179  0.2099
 1416TIP3   OH2 4253   4.710   1.025   0.119  0.0823  0.4746  0.0798
 1416TIP3    H1 4254   4.623   0.997   0.089  0.6762 -1.3330 -0.0868
 1416TIP3    H2 4255   4.716   0.993   0.208  0.7465  0.1729 -0.0676
 1417TIP3   OH2 4256   6.329   0.654   3.597  0.6420  0.3188  0.0840
 1417TIP3    H1 4257   6.302   0.578   3.649  1.5318  2.2117  3.6282
 1417TIP3    H2 4258   6.270   0.724   3.624  2.4307  1.8933  0.0853
 1418TIP3   OH2 4259   0.056   5.087   1.253 -0.4090  0.0149 -0.2208
 1418TIP3    H1 4260   0.136   5.084   1.306  0.0357  2.2518 -0.6604
 1418TIP3    H2 4261   0.072   5.027   1.181 -0.3094 -1.7283  1.1963
 1419TIP3   OH2 4262   6.190   2.406   1.099 -0.3200 -0.5188 -0.0284
 1419TIP3    H1 4263   6.237   2.459   1.164  1.2515 -0.5470 -1.0980
 1419TIP3    H2 4264   6.157   2.470   1.035 -3.8961 -0.2000  1.8527
 1420TIP3   OH2 4265   2.475   4.708   1.669  0.6319 -0.0376 -0.0413
 1420TIP3    H1 4266   2.505   4.742   1.753 -1.3387  0.1640  0.6242
 1420TIP3    H2 4267   2.539   4.640   1.647  0.6116 -0.8558  2.1563
 1421TIP3   OH2 4268   2.938   1.156   0.592 -0.1813 -0.0884 -0.2431
 1421TIP3    H1 4269   2.845   1.170   0.612 -0.2630 -1.1309  0.1611
 1421TIP3    H2 4270   2.957   1.068   0.625  0.9057  0.0340 -0.4982
 1422TIP3   OH2 4271   3.030   0.104   4.037 -0.1021  0.2047  0.0227
 1422TIP3    H1 4272   2.979   0.067   3.966 -0.3357  0.1246  0.2312
 1422TIP3    H2 4273   3.060   0.029   4.088  0.4148  0.2359 -0.2230
 1423TIP3   OH2 4274   5.436   0.193   0.870 -0.1330  0.0614 -0.1333
 1423TIP3    H1 4275   5.361   0.248   0.846  0.2001 -0.0358 -1.4925
 1423TIP3    H2 4276   5.511   0.237   0.830  0.3993 -0.3590  0.3919
 1424TIP3   OH2 4277   3.824   4.685   2.284 -0.4659 -0.0762  0.6220
 1424TIP3    H1 4278   3.739   4.648   2.260  0.3495 -0.7265 -1.4828
 1424TIP3    H2 4279   3.873   4.611   2.319  0.4148 -0.6012 -1.5505
 1425TIP3   OH2 4280   0.351   2.875   0.059  0.3164  0.8876 -0.3581
 1425TIP3    H1 4281   0.325   2.933   0.130 -0.5210 -0.4551  0.4774
 1425TIP3    H2 4282   0.326   2.922  -0.021  0.3812  1.9939  0.2560
 1426TIP3   OH2 4283   2.337   5.580   0.113 -0.2878 -0.2647 -0.2455
 1426TIP3    H1 4284   2.331   5.675   0.106 -0.0379 -0.1894  0.4560
 1426TIP3    H2 4285   2.262   5.555   0.168 -0.5026 -0.5107 -0.6349
 1427TIP3   OH2 4286   2.919   2.792   3.772  0.0847 -0.5094 -0.3432
 1427TIP3    H1 4287   2.853   2.854   3.804  0.1392 -0.5448 -0.1601
 1427TIP3    H2 4288   2.951   2.749   3.851  1.9018  1.0308 -0.1742
 1428TIP3   OH2 4289   0.036   2.391   1.496 -0.1262  0.4399  0.2880
 1428TIP3    H1 4290  -0.044   2.340   1.511  0.3492 -0.4022  0.0020
 1428TIP3    H2 4291   0.074   2.401   1.583 -0.1424  0.1739  0.3266
 1429TIP3   OH2 4292   2.121   4.844   2.580  0.0775 -0.4874 -0.1100
 1429TIP3    H1 4293   2.214   4.825   2.581  0.2654  0.3820  1.2446
 1429TIP3    H2 4294   2.092   4.831   2.670 -1.7029 -3.2909 -0.9372
 1430TIP3   OH2 4295   3.841   4.622   3.426  0.3438 -0.3221 -0.5375
 1430TIP3    H1 4296   3.769   4.681   3.403 -0.7531 -1.7712 -0.9114
 1430TIP3    H2 4297   3.799   4.543   3.460  1.7512 -1.2466 -0.8493
 1431TIP3   OH2 4298   0.194   1.545   2.200  0.0213  0.3760  0.0683
 1431TIP3    H1 4299   0.190   1.511   2.289  2.0016 -0.1692  0.0058
 1431TIP3    H2 4300   0.140   1.485   2.148 -0.5570  0.2815  0.7696
 1432TIP3   OH2 4301   6.075   0.503   3.176  0.1681 -0.0228  0.7035
 1432TIP3    H1 4302   6.025   0.454   3.241  1.6014 -0.8338  1.2328
 1432TIP3    H2 4303   6.149   0.539   3.225 -0.5765  2.3545  0.2481
 1433TIP3   OH2 4304   2.702   2.312   0.009  0.6030 -0.5374  0.0906
 1433TIP3    H1 4305   2.725   2.244  -0.054 -0.4536 -1.5138  0.7159
 1433TIP3    H2 4306   2.774   2.311   0.073  0.5047 -1.2125  0.2003
 1434TIP3   OH2 4307   6.167   2.491   4.753 -0.0153  0.6527  0.0894
 1434TIP3    H1 4308   6.176   2.438   4.832 -0.0385  0.4534 -0.0429
 1434TIP3    H2 4309   6.101   2.445   4.701  1.6058 -0.4413 -1.0764
 1435TIP3   OH2 4310   5.647   3.165   4.118  0.2198 -0.2144 -0.0920
 1435TIP3    H1 4311   5.676   3.087   4.070 -1.4433 -0.7771 -0.2465
 1435TIP3    H2 4312   5.555   3.174   4.095  0.0222  0.9721  1.0637
 1436TIP3   OH2 4313   4.529   3.297   0.755 -0.6906  0.5191  0.1545
 1436TIP3    H1 4314   4.562   3.358   0.820 -1.4049  0.4539  0.5908
 1436TIP3    H2 4315   4.518   3.350   0.676  1.5801  0.2802 -0.3726
 1437TIP3   OH2 4316   0.331   1.114   4.824  0.5855  0.0773  0.4186
 1437TIP3    H1 4317   0.408   1.169   4.806 -0.6221  1.0987 -2.2017
 1437TIP3    H2 4318   0.274   1.169   4.876  0.1481  0.6933 -0.6777
 1438TIP3   OH2 4319   2.259   5.664   3.799 -0.1488  0.6580 -0.5253
 1438TIP3    H1 4320   2.348   5.626   3.799 -0.0781  0.8119  0.4808
 1438TIP3    H2 4321   2.246   5.695   3.888 -1.8860 -0.9298 -0.1687
 1439TIP3   OH2 4322   0.678   5.311   2.041  0.5771 -0.4495  0.3580
 1439TIP3    H1 4323   0.687   5.382   1.978 -0.4631  0.2806  0.9908
 1439TIP3    H2 4324   0.602   5.261   2.011  0.5931 -0.5951  0.5557
 1440TIP3   OH2 4325   3.696   5.952   3.951 -0.4240  0.3001 -0.5039
 1440TIP3    H1 4326   3.614   5.996   3.929  0.0359  0.9809 -0.9093
 1440TIP3    H2 4327   3.725   5.995   4.032 -0.8905 -0.5384  0.1331
 1441TIP3   OH2 4328   3.992   3.730   0.341 -0.7805  0.0380 -0.0771
 1441TIP3    H1 4329   3.922   3.781   0.299 -1.3491  0.3793  1.2175
 1441TIP3    H2 4330   3.950   3.648   0.366 -0.1382 -0.6500 -1.2042
 1442TIP3   OH2 4331   2.541   5.475   2.731 -0.2598 -0.0128  0.2372
 1442TIP3    H1 4332   2.485   5.402   2.757 -0.3610 -0.4617 -1.1832
 1442TIP3    H2 4333   2.483   5.538   2.688  0.1268  0.0357 -0.2305
 1443TIP3   OH2 4334   5.806   3.689   0.564  0.4693  0.6149 -0.0589
 1443TIP3    H1 4335   5.740   3.757   0.579 -0.1616  0.0785 -0.3249
 1443TIP3    H2 4336   5.759   3.607   0.582  0.8424  0.1814 -1.0201
 1444TIP3   OH2 4337   2.288   0.092   4.283 -0.5130 -0.5581  0.0640
 1444TIP3    H1 4338   2.257   0.017   4.333 -1.0032 -0.8539 -0.6622
 1444TIP3    H2 4339   2.213   0.116   4.228 -0.0617 -0.1058 -0.3595
 1445TIP3   OH2 4340   5.187   0.984   1.267 -0.3304  0.0804  0.6610
 1445TIP3    H1 4341   5.261   1.026   1.312 -0.3396  0.4455  0.3381
 1445TIP3    H2 4342   5.117   1.048   1.270 -0.3282  0.1150  0.1170
 1446TIP3   OH2 4343   1.241   4.226   0.304 -0.3123 -0.1640  0.0169
 1446TIP3    H1 4344   1.164   4.224   0.248 -0.3283 -0.0344  0.0329
 1446TIP3    H2 4345   1.214   4.281   0.378 -0.6716 -1.2364  0.7039
 1447TIP3   OH2 4346   4.671   5.011   4.890  0.1353  0.0632  0.1504
 1447TIP3    H1 4347   4.599   5.071   4.909  1.5582  2.0943 -0.4657
 1447TIP3    H2 4348   4.686   4.964   4.972  0.8630  2.7494  1.6823
 1448TIP3   OH2 4349   1.888   1.444   4.806  0.0922  0.0746 -0.5648
 1448TIP3    H1 4350   1.976   1.476   4.828  0.5324 -1.0899 -0.5505
 1448TIP3    H2 4351   1.888   1.439   4.710  0.0768 -0.0175 -0.5598
 1449TIP3   OH2 4352   0.599   0.697   0.224 -0.0291  0.5668  0.4589
 1449TIP3    H1 4353   0.674   0.707   0.283  3.3205 -1.5422 -2.9950
 1449TIP3    H2 4354   0.568   0.608   0.239  0.2806  0.3224 -0.3101
 1450TIP3   OH2 4355   0.832   2.561   1.656  0.3709 -0.6427  0.4792
 1450TIP3    H1 4356   0.787   2.644   1.641  2.5328  0.2379 -1.7278
 1450TIP3    H2 4357   0.893   2.580   1.728  0.6939 -0.3895  0.1397
 1451TIP3   OH2 4358   0.697   0.242   3.688  0.0395 -0.1984 -0.0160
 1451TIP3    H1 4359   0.764   0.300   3.722  0.8947 -0.9858 -0.3105
 1451TIP3    H2 4360   0.714   0.238   3.594  0.0006 -0.9216  0.0026
 1452TIP3   OH2 4361   2.413   1.181   4.366 -0.2799  0.1779 -0.0792
 1452TIP3    H1 4362   2.488   1.208   4.313 -0.9657 -0.1604 -1.2626
 1452TIP3    H2 4363   2.360   1.260   4.374 -1.1571 -0.1941 -1.6279
 1453TIP3   OH2 4364   3.434   0.215   4.959 -0.6246  0.1959 -0.1116
 1453TIP3    H1 4365   3.447   0.224   5.054  0.4035  0.0968 -0.2261
 1453TIP3    H2 4366   3.402   0.301   4.931 -0.7491  0.2856  0.3036
 1454TIP3   OH2 4367   3.089   1.374   4.083 -0.4059 -0.2523 -0.2455
 1454TIP3    H1 4368   3.007   1.382   4.034  0.7538  1.5731 -2.0550
 1454TIP3    H2 4369   3.138   1.306   4.036 -0.4387 -0.5606  0.1639
 1455TIP3   OH2 4370   1.628   5.350   3.989 -0.1898  0.1146 -0.0899
 1455TIP3    H1 4371   1.549   5.370   3.939  0.0248  0.6608 -0.2107
 1455TIP3    H2 4372   1.690   5.316   3.923  0.4265  1.7195 -0.3936
 1456TIP3   OH2 4373   4.385   5.187   1.571 -0.1244  0.0439 -0.2713
 1456TIP3    H1 4374   4.292   5.179   1.590 -0.8815  0.1880 -3.2882
 1456TIP3    H2 4375   4.404   5.280   1.582 -0.3578  0.0281  0.2814
 1457TIP3   OH2 4376   5.501   2.959   0.890  0.2082  0.4954  0.6159
 1457TIP3    H1 4377   5.573   2.965   0.953  0.1650 -0.2904  0.7459
 1457TIP3    H2 4378   5.536   3.002   0.811  1.3839 -1.1051  0.1944
 1458TIP3   OH2 4379   0.585   2.738   1.535  0.4263 -0.0526  1.0646
 1458TIP3    H1 4380   0.574   2.823   1.493  1.9683 -0.4758 -0.2550
 1458TIP3    H2 4381   0.561   2.753   1.627  1.7794  2.0830  1.1206
 1459TIP3   OH2 4382   0.809   4.945   4.205  0.3418 -0.8615  0.2297
 1459TIP3    H1 4383   0.843   4.868   4.250  0.5418 -0.9006  0.0155
 1459TIP3    H2 4384   0.815   4.922   4.112  1.1938 -0.2625  0.1290
 1460TIP3   OH2 4385   0.179   4.319   2.923 -0.4484 -0.0620 -0.1451
 1460TIP3    H1 4386   0.236   4.317   3.000  1.9725  2.1482 -1.6922
 1460TIP3    H2 4387   0.123   4.396   2.936 -0.5364 -0.1047 -0.2669
 1461TIP3   OH2 4388   1.747   1.333   4.539 -0.1092 -0.1556  0.1951
 1461TIP3    H1 4389   1.727   1.254   4.589 -0.2688 -0.1978  0.0667
 1461TIP3    H2 4390   1.665   1.355   4.495 -0.1860  0.3369  0.5808
 1462TIP3   OH2 4391   3.398   5.137   2.318 -0.3372 -0.2704 -0.3279
 1462TIP3    H1 4392   3.384   5.060   2.372 -1.2707  0.1924  0.1258
 1462TIP3    H2 4393   3.353   5.117   2.235  1.0372 -0.9527 -0.9394
 1463TIP3   OH2 4394   2.434   0.968   1.759 -0.4312  0.3765  0.5607
 1463TIP3    H1 4395   2.474   0.882   1.775  0.7611  1.0390  1.3478
 1463TIP3    H2 4396   2.342   0.950   1.744 -0.1675 -1.0612  0.5571
 1464TIP3   OH2 4397   1.139   1.615   2.103 -0.1919  0.1576 -0.7790
 1464TIP3    H1 4398   1.225   1.584   2.131 -0.4399  0.0303 -0.1330
 1464TIP3    H2 4399   1.103   1.541   2.053 -0.5150 -0.3617  0.2004
 1465TIP3   OH2 4400   1.842   2.780   4.521  0.1881  0.1635  0.1390
 1465TIP3    H1 4401   1.931   2.751   4.538  0.6073  0.6174 -1.1997
 1465TIP3    H2 4402   1.787   2.710   4.557  1.1297 -1.2254 -1.0245
 1466TIP3   OH2 4403   6.306   3.605   1.108 -0.1114 -0.0873  0.2831
 1466TIP3    H1 4404   6.280   3.521   1.072 -1.1433  0.8837 -1.3530
 1466TIP3    H2 4405   6.232   3.631   1.163 -0.5441  0.5031 -0.5626
 1467TIP3   OH2 4406   2.322   0.534   2.747  0.0969  0.5220 -0.2952
 1467TIP3    H1 4407   2.360   0.493   2.825 -0.7319  0.1006 -0.1015
 1467TIP3    H2 4408   2.392   0.531   2.682  0.6978  0.5962  0.3339
 1468TIP3   OH2 4409   2.039   0.806   2.552 -0.3101  0.0156 -0.5068
 1468TIP3    H1 4410   2.037   0.740   2.622  0.3756  0.5425  0.0318
 1468TIP3    H2 4411   1.981   0.875   2.583  1.8697  1.3959  0.7685
 1469TIP3   OH2 4412   4.885   0.735   3.512  0.1521  0.1872 -0.0205
 1469TIP3    H1 4413   4.798   0.722   3.475 -0.5928 -0.1604  1.7224
 1469TIP3    H2 4414   4.945   0.718   3.440 -1.2256  1.1215 -1.4472
 1470TIP3   OH2 4415   4.314   5.454   2.663 -0.0178 -0.2497 -0.0063
 1470TIP3    H1 4416   4.383   5.510   2.699 -0.4179 -1.0448  2.1682
 1470TIP3    H2 4417   4.312   5.378   2.721 -1.7166 -0.9576 -0.9152
 1471TIP3   OH2 4418   5.955   3.952   0.563  0.4390  0.1279 -0.0697
 1471TIP3    H1 4419   5.925   3.861   0.567  0.5109  0.1263  0.5587
 1471TIP3    H2 4420   6.023   3.957   0.630 -0.4573  0.9734  0.8067
 1472TIP3   OH2 4421   6.097   1.616   0.954 -0.4003  0.5499  0.5264
 1472TIP3    H1 4422   6.121   1.657   1.038 -1.6797  2.6202 -0.0570
 1472TIP3    H2 4423   6.014   1.656   0.931 -0.6805 -0.9089 -1.1647
 1473TIP3   OH2 4424   1.570   0.387   0.071  0.2029  0.0201 -0.0445
 1473TIP3    H1 4425   1.594   0.370   0.163  2.0099  0.8001 -0.3289
 1473TIP3    H2 4426   1.480   0.355   0.064 -0.6222  1.5162  2.4408
 1474TIP3   OH2 4427   0.148   3.366   2.095 -0.0568 -0.4280  0.2445
 1474TIP3    H1 4428   0.114   3.421   2.024  0.2329  1.0101  1.1661
 1474TIP3    H2 4429   0.153   3.279   2.058  1.4424  0.5296 -1.9730
 1475TIP3   OH2 4430   2.122   0.788   0.417  0.3018 -0.3339  0.4212
 1475TIP3    H1 4431   2.073   0.709   0.439  1.3718 -1.1307  0.0569
 1475TIP3    H2 4432   2.063   0.860   0.438 -1.4895 -1.2671 -1.1859
 1476TIP3   OH2 4433   0.620   5.165   4.891  0.3776  0.2979  0.5834
 1476TIP3    H1 4434   0.619   5.080   4.847 -0.4777  1.5358 -1.9638
 1476TIP3    H2 4435   0.673   5.150   4.969  1.2206 -2.2819 -0.3673
 1477TIP3   OH2 4436   2.841   4.526   4.802 -0.1520 -0.4372  0.2290
 1477TIP3    H1 4437   2.817   4.605   4.753 -1.4703 -0.1155  1.3168
 1477TIP3    H2 4438   2.791   4.532   4.884  2.1810 -0.8009  1.7861
 1478TIP3   OH2 4439   3.507   2.696   1.659 -0.0223  0.1708 -0.1096
 1478TIP3    H1 4440   3.468   2.618   1.620 -2.6584  0.8379  0.9830
 1478TIP3    H2 4441   3.579   2.663   1.712 -1.1294 -1.5742  0.3992
 1479TIP3   OH2 4442   5.393   1.475   0.837 -0.1718  0.3150 -0.1573
 1479TIP3    H1 4443   5.382   1.442   0.748 -1.5886 -2.6666  0.9748
 1479TIP3    H2 4444   5.322   1.435   0.887  1.7166  0.1750  2.7299
 1480TIP3   OH2 4445   2.520   0.734   1.205  0.6160  0.0093  0.1222
 1480TIP3    H1 4446   2.576   0.754   1.280 -0.2578 -0.8365  1.0310
 1480TIP3    H2 4447   2.509   0.639   1.208 -0.0919  0.0584 -0.6064
 1481TIP3   OH2 4448   3.463   3.773   3.475  0.4937 -0.2006 -0.0670
 1481TIP3    H1 4449   3.416   3.817   3.404 -0.7578 -1.0723  0.1895
 1481TIP3    H2 4450   3.521   3.840   3.510 -0.3662  0.8503 -0.5749
 1482TIP3   OH2 4451   5.378   2.481   4.080 -0.5600  0.2830  0.1017
 1482TIP3    H1 4452   5.314   2.485   4.152  0.5209  0.9386  1.0492
 1482TIP3    H2 4453   5.435   2.556   4.094 -1.0059  1.1238 -2.1485
 1483TIP3   OH2 4454   3.291   2.250   3.354 -0.0970 -0.4541  0.8018
 1483TIP3    H1 4455   3.222   2.272   3.417 -1.3486 -1.5444 -0.1301
 1483TIP3    H2 4456   3.327   2.168   3.386  1.8631  0.8382  2.1097
 1484TIP3   OH2 4457   4.577   4.726   1.494  0.1656 -0.5883  0.0627
 1484TIP3    H1 4458   4.517   4.792   1.528  0.0925 -0.3918 -0.4446
 1484TIP3    H2 4459   4.653   4.731   1.553 -0.0892 -0.4710  0.3837
 1485TIP3   OH2 4460   5.780   2.693   0.925 -0.1917 -0.0564  0.2893
 1485TIP3    H1 4461   5.763   2.779   0.889 -3.5692 -1.1941 -1.2575
 1485TIP3    H2 4462   5.717   2.683   0.997 -1.6525 -2.0191 -1.1373
 1486TIP3   OH2 4463   1.819   5.138   4.972  0.4868 -0.2416 -0.2273
 1486TIP3    H1 4464   1.791   5.053   5.005 -0.0447 -0.0831 -0.2675
 1486TIP3    H2 4465   1.823   5.127   4.877 -0.2921 -0.0147 -0.2907
 1487TIP3   OH2 4466   0.095   0.468   5.119  0.1517  0.4124  0.0473
 1487TIP3    H1 4467   0.173   0.433   5.162 -0.2251 -0.8032 -0.1990
 1487TIP3    H2 4468   0.103   0.439   5.027 -0.4573  0.4787 -0.0326
 1488TIP3   OH2 4469   2.955   5.974   3.099  0.1849  0.7637 -0.4333
 1488TIP3    H1 4470   3.000   6.031   3.038  0.2099 -0.3609 -1.5005
 1488TIP3    H2 4471   2.926   5.899   3.046  0.2696 -0.2770  0.9331
 1489TIP3   OH2 4472   2.264   0.005   0.745 -0.3858  0.2262  0.1663
 1489TIP3    H1 4473   2.315   0.071   0.699 -0.0033 -0.3602 -0.2735
 1489TIP3    H2 4474   2.329  -0.050   0.789 -0.7075  0.2517  0.6809
 1490TIP3   OH2 4475   2.745   4.422   4.410 -0.2738 -0.0877 -0.5545
 1490TIP3    H1 4476   2.829   4.464   4.392 -1.3228  2.6478  0.3886
 1490TIP3    H2 4477   2.766   4.352   4.473  1.3217  0.2681 -0.6460
 1491TIP3   OH2 4478   6.187   5.737   0.721 -0.2860  0.4392  0.5332
 1491TIP3    H1 4479   6.138   5.664   0.758 -0.3004 -0.3150 -0.8865
 1491TIP3    H2 4480   6.165   5.736   0.628  1.9259  0.4518 -0.0511
 1492TIP3   OH2 4481   5.849   5.654   2.108 -0.2842  0.1894 -0.1071
 1492TIP3    H1 4482   5.859   5.749   2.096  0.4482  0.2031  0.5533
 1492TIP3    H2 4483   5.847   5.642   2.203  1.1080 -0.5952 -0.1534
 1493TIP3   OH2 4484   6.037   2.568   0.939  0.0361 -0.2275 -0.3201
 1493TIP3    H1 4485   6.019   2.540   0.850 -2.3236  0.8261 -0.2629
 1493TIP3    H2 4486   5.975   2.640   0.955  0.9824  0.2046  1.8668
 1494TIP3   OH2 4487   3.868   2.446   4.969  0.0914  0.2739 -0.0329
 1494TIP3    H1 4488   3.960   2.423   4.967  0.0325  0.0612 -0.5241
 1494TIP3    H2 4489   3.852   2.489   4.885 -0.0601  1.1004  0.4046
 1495TIP3   OH2 4490   4.967   1.696   4.429  0.1938 -0.3340 -0.2263
 1495TIP3    H1 4491   5.021   1.618   4.423 -0.0517 -0.4152 -2.1288
 1495TIP3    H2 4492   4.991   1.748   4.351 -1.2958  0.3707 -0.2582
 1496TIP3   OH2 4493   1.200   5.170   1.099  0.5392 -0.1868  0.4657
 1496TIP3    H1 4494   1.295   5.166   1.094  0.4858  0.2211 -2.2741
 1496TIP3    H2 4495   1.172   5.197   1.011 -2.2084 -2.2129  0.5800
 1497TIP3   OH2 4496   5.594   4.993   3.483 -0.6175 -0.1966 -0.3384
 1497TIP3    H1 4497   5.639   5.051   3.544  2.2980 -2.0742 -0.5194
 1497TIP3    H2 4498   5.618   5.027   3.396 -1.0437 -0.2012 -0.4633
 1498TIP3   OH2 4499   4.448   3.979   3.590 -0.4587 -0.1462 -0.1408
 1498TIP3    H1 4500   4.379   4.006   3.530 -0.3498  0.6305  0.0658
 1498TIP3    H2 4501   4.430   3.887   3.608 -0.8859 -0.2026 -0.8286
 1499TIP3   OH2 4502   1.066   1.284   2.900 -0.4124 -0.4122  0.0792
 1499TIP3    H1 4503   1.068   1.379   2.915  0.4750 -0.5755  1.0751
 1499TIP3    H2 4504   0.983   1.256   2.938 -0.0860 -0.2107  0.9567
 1500TIP3   OH2 4505   0.682   4.498   0.991  0.1850  0.8553 -0.1234
 1500TIP3    H1 4506   0.587   4.489   0.977  0.0803  2.2747 -0.4919
 1500TIP3    H2 4507   0.719   4.493   0.904  0.4553  0.3270  0.0200
 1501TIP3   OH2 4508   2.953   5.546   0.475 -0.2363 -0.3115 -0.0811
 1501TIP3    H1 4509   3.033   5.559   0.423 -0.2586 -0.5850 -0.1852
 1501TIP3    H2 4510   2.918   5.634   0.488  0.8770 -0.0095  1.2261
 1502TIP3   OH2 4511   2.800   5.810   4.917 -0.0291 -0.7741 -0.6089
 1502TIP3    H1 4512   2.736   5.812   4.845 -0.7657 -0.9553  0.0323
 1502TIP3    H2 4513   2.747   5.796   4.996  0.7451 -0.2701  0.0086
 1503TIP3   OH2 4514   0.043   5.661   4.791 -0.2908 -0.1745 -0.1537
 1503TIP3    H1 4515   0.024   5.755   4.786 -0.7019 -0.2932 -1.2239
 1503TIP3    H2 4516  -0.042   5.621   4.810  0.2074 -0.2219  2.2320
 1504TIP3   OH2 4517   5.427   1.095   1.855  0.2832  0.3343  0.0052
 1504TIP3    H1 4518   5.420   1.037   1.931  0.8427  2.2303  1.5626
 1504TIP3    H2 4519   5.381   1.048   1.786  0.3427 -1.7677  1.3033
 1505TIP3   OH2 4520   1.172   5.340   1.386  0.0000  0.3900 -0.3689
 1505TIP3    H1 4521   1.197   5.335   1.294 -1.2848  1.4459 -0.8079
 1505TIP3    H2 4522   1.220   5.415   1.420 -0.6925  0.9520 -0.5990
 1506TIP3   OH2 4523   3.423   5.031   1.149 -0.0747 -0.1284  0.4337
 1506TIP3    H1 4524   3.403   4.938   1.133 -1.2932 -0.4338  3.2337
 1506TIP3    H2 4525   3.342   5.077   1.128  0.7533  0.5220 -1.7194
 1507TIP3   OH2 4526   0.169   1.952   0.298 -0.2616 -0.0491  0.1190
 1507TIP3    H1 4527   0.153   1.964   0.391 -0.1906  0.7822  0.0342
 1507TIP3    H2 4528   0.141   1.863   0.280 -1.2337  0.1203  0.7371
 1508TIP3   OH2 4529   4.858   4.288   3.431 -0.8828  0.1084 -0.4421
 1508TIP3    H1 4530   4.808   4.207   3.420  0.7117 -0.9210 -0.4478
 1508TIP3    H2 4531   4.935   4.262   3.482 -0.2510  1.5874 -0.5920
 1509TIP3   OH2 4532   5.249   2.389   0.288  0.3040  0.2454  0.2161
 1509TIP3    H1 4533   5.319   2.429   0.236  0.9757 -1.8025 -0.5379
 1509TIP3    H2 4534   5.290   2.313   0.330 -1.2321 -0.4622  0.5106
 1510TIP3   OH2 4535   5.033   0.310   2.807  0.4182 -0.0753  0.0957
 1510TIP3    H1 4536   4.971   0.247   2.843  0.9180 -0.2710  0.6340
 1510TIP3    H2 4537   5.065   0.268   2.727 -0.6943  0.3611 -0.6006
 1511TIP3   OH2 4538   3.830   2.432   2.948  0.9469  0.7436  0.1101
 1511TIP3    H1 4539   3.773   2.435   2.871 -0.4344  1.2571  1.1059
 1511TIP3    H2 4540   3.913   2.471   2.918  0.9873 -0.4466 -1.4996
 1512TIP3   OH2 4541   3.410   4.042   3.833  0.2593 -0.0059 -0.3440
 1512TIP3    H1 4542   3.473   3.993   3.780  2.8684  1.0762  1.5374
 1512TIP3    H2 4543   3.423   4.133   3.807  0.0535  0.3223  0.6654
 1513TIP3   OH2 4544   1.877   4.249   3.797 -0.2033  0.0543 -1.0222
 1513TIP3    H1 4545   1.844   4.232   3.886  0.9778 -0.0673 -0.5820
 1513TIP3    H2 4546   1.940   4.319   3.809 -0.6435  0.6124 -1.9133
 1514TIP3   OH2 4547   0.778   4.843   5.001  0.1087 -1.2645 -0.3817
 1514TIP3    H1 4548   0.724   4.831   4.922 -0.8467 -0.5549  0.1287
 1514TIP3    H2 4549   0.789   4.755   5.036 -3.3400 -1.2641  1.1377
 1515TIP3   OH2 4550   4.366   5.826   4.463  0.3534  0.0206  0.2277
 1515TIP3    H1 4551   4.316   5.754   4.426 -0.3275  0.5549  0.0911
 1515TIP3    H2 4552   4.458   5.802   4.448  0.1500  0.8984 -3.2577
 1516TIP3   OH2 4553   2.972   5.689   4.683  0.0103  0.4592 -0.7905
 1516TIP3    H1 4554   2.912   5.693   4.757 -0.5185 -0.3575 -1.1744
 1516TIP3    H2 4555   3.047   5.742   4.711 -0.0722 -0.0402  0.4260
 1517TIP3   OH2 4556   5.261   4.255   3.080 -0.1091  0.0022 -0.7853
 1517TIP3    H1 4557   5.257   4.222   2.990 -0.4871 -0.1188 -0.7271
 1517TIP3    H2 4558   5.354   4.267   3.097  0.0723 -1.3234 -0.7070
 1518TIP3   OH2 4559   0.743   3.464   0.163  0.0689 -0.3854 -0.0428
 1518TIP3    H1 4560   0.716   3.523   0.092 -0.9368 -0.4464  0.2724
 1518TIP3    H2 4561   0.801   3.517   0.217  0.9124 -0.3569 -0.9342
 1519TIP3   OH2 4562   0.088   3.356   0.490  0.2177 -0.1151 -0.2080
 1519TIP3    H1 4563   0.033   3.307   0.429 -0.7429  0.3284  0.2699
 1519TIP3    H2 4564   0.176   3.324   0.475 -0.3488 -1.8554 -0.0349
 1520TIP3   OH2 4565   0.402   1.799   1.307  0.4133  0.3884  0.2101
 1520TIP3    H1 4566   0.312   1.780   1.283  1.4538 -1.2283 -2.9841
 1520TIP3    H2 4567   0.414   1.892   1.287 -0.2600  0.3792 -0.2477
 1521TIP3   OH2 4568   4.510   2.867   0.094  0.3331 -0.7978  0.4556
 1521TIP3    H1 4569   4.533   2.775   0.083  0.0536 -0.7606 -0.5423
 1521TIP3    H2 4570   4.426   2.877   0.049 -0.7000 -0.4961  2.3484
 1522TIP3   OH2 4571   3.899   1.060   3.224 -0.1565  0.4545 -0.3124
 1522TIP3    H1 4572   3.981   1.017   3.203 -0.0354  0.1933  0.6528
 1522TIP3    H2 4573   3.840   0.989   3.251 -1.5701  0.2825 -3.4144
 1523TIP3   OH2 4574   3.178   0.696   3.499 -0.0741  0.3988 -0.3473
 1523TIP3    H1 4575   3.269   0.668   3.487  0.2961  0.9891  0.8759
 1523TIP3    H2 4576   3.133   0.617   3.528  0.7704  0.7528  2.1901
 1524TIP3   OH2 4577   4.100   1.907   3.117  0.5305 -0.4067 -0.2638
 1524TIP3    H1 4578   4.151   1.980   3.084  0.4365  0.8441  2.1327
 1524TIP3    H2 4579   4.014   1.944   3.138  0.5184 -1.1380  1.1121
 1525TIP3   OH2 4580   3.707   5.210   4.751  0.2926 -0.0818  0.0704
 1525TIP3    H1 4581   3.728   5.127   4.709  3.8260  0.4229  0.4999
 1525TIP3    H2 4582   3.647   5.253   4.691  0.9987 -1.5684 -1.8026
 1526TIP3   OH2 4583   4.705   1.437   2.408 -0.5157  0.2267 -0.8790
 1526TIP3    H1 4584   4.773   1.501   2.386 -0.9231  1.3963  1.0025
 1526TIP3    H2 4585   4.632   1.460   2.350 -0.3240  0.8689 -0.8803
 1527TIP3   OH2 4586   6.244   1.255   1.453  0.7347 -0.0856  0.0509
 1527TIP3    H1 4587   6.151   1.253   1.428  0.7557 -0.3818 -0.0185
 1527TIP3    H2 4588   6.282   1.181   1.405  0.6178 -1.1818  1.5971
 1528TIP3   OH2 4589   5.096   2.181   1.806  0.2610 -0.3446  0.4189
 1528TIP3    H1 4590   5.112   2.272   1.832  0.7883  0.3631 -2.1282
 1528TIP3    H2 4591   5.183   2.141   1.807  0.3997 -0.1032 -0.8774
 1529TIP3   OH2 4592   0.702   1.200   1.241  0.1753  0.0975 -0.3067
 1529TIP3    H1 4593   0.634   1.234   1.183 -0.1188 -0.8219 -0.5116
 1529TIP3    H2 4594   0.676   1.110   1.260  1.3290 -0.2782 -0.3902
 1530TIP3   OH2 4595   2.410   2.689   3.125  0.1020 -0.1857 -0.3536
 1530TIP3    H1 4596   2.432   2.717   3.037  1.5543  0.0632  0.0641
 1530TIP3    H2 4597   2.316   2.671   3.122 -0.2610  1.6524 -1.4549
 1531TIP3   OH2 4598   1.279   0.366   2.551  0.1648  0.2469 -0.0255
 1531TIP3    H1 4599   1.326   0.424   2.491 -2.3554  2.3940 -0.1047
 1531TIP3    H2 4600   1.258   0.421   2.626  0.1139 -1.3974  1.2217
 1532TIP3   OH2 4601   3.301   3.810   3.947 -0.5316 -0.6990 -0.0361
 1532TIP3    H1 4602   3.357   3.822   4.024  1.7737 -0.8556 -1.5924
 1532TIP3    H2 4603   3.341   3.865   3.880 -2.5226 -0.5145 -1.1531
 1533TIP3   OH2 4604   3.200   1.703   4.915 -0.5674 -0.0245 -0.4552
 1533TIP3    H1 4605   3.162   1.622   4.950 -0.9539  0.3709  0.0407
 1533TIP3    H2 4606   3.247   1.741   4.988 -0.2449  0.1201 -0.7372
 1534TIP3   OH2 4607   1.119   4.738   4.862  0.4840  0.0604 -0.3811
 1534TIP3    H1 4608   1.137   4.701   4.776  0.4717 -0.7906 -0.0276
 1534TIP3    H2 4609   1.093   4.664   4.916 -0.6487  0.7484  0.0570
 1535TIP3   OH2 4610   3.589   2.210   3.730 -0.5426 -0.2948 -0.4657
 1535TIP3    H1 4611   3.573   2.295   3.688 -1.3166  0.4544  1.2438
 1535TIP3    H2 4612   3.621   2.154   3.659 -0.4002  1.2996 -1.7290
 1536TIP3   OH2 4613   3.413   0.621   4.391  0.5546  0.4327  0.1580
 1536TIP3    H1 4614   3.494   0.591   4.350  0.8648  1.5056 -0.0626
 1536TIP3    H2 4615   3.362   0.657   4.319  0.1137  0.2520  0.3812
 1537TIP3   OH2 4616   5.902   1.549   4.472  0.0974  0.3977 -0.0356
 1537TIP3    H1 4617   5.904   1.487   4.399 -0.3113 -0.0460  0.3271
 1537TIP3    H2 4618   5.916   1.495   4.550  0.6272  0.8798  0.2151
 1538TIP3   OH2 4619   5.887   1.938   2.984  0.1072  0.2721  0.0070
 1538TIP3    H1 4620   5.821   1.953   2.917 -1.7565 -1.5242  1.3210
 1538TIP3    H2 4621   5.881   1.844   3.003  2.0485  0.3356  1.2089
 1539TIP3   OH2 4622   3.287   4.830   3.969  0.0323  0.3171  0.3267
 1539TIP3    H1 4623   3.216   4.833   3.905  0.3785  1.7930 -0.0300
 1539TIP3    H2 4624   3.314   4.738   3.970 -3.1092 -0.7256  1.9002
 1540TIP3   OH2 4625   2.280   5.261   1.051 -0.1971 -0.2168 -0.1848
 1540TIP3    H1 4626   2.255   5.334   1.108  0.8761 -0.9307  1.2793
 1540TIP3    H2 4627   2.357   5.292   1.004  0.9633 -0.7592  1.2950
 1541TIP3   OH2 4628   0.991   2.247   2.915  0.1100 -0.6780  0.5469
 1541TIP3    H1 4629   1.078   2.211   2.933  0.0496 -0.4834  1.2404
 1541TIP3    H2 4630   0.987   2.252   2.819  0.3030 -2.0626  0.4378
 1542TIP3   OH2 4631   3.967   1.279   3.776 -0.2007 -0.0541 -0.1075
 1542TIP3    H1 4632   3.955   1.335   3.700 -2.4278  0.3421  0.4888
 1542TIP3    H2 4633   3.951   1.336   3.851  1.0234 -0.6677  0.6503
 1543TIP3   OH2 4634   5.614   1.353   3.194 -0.1632  0.2974  0.5967
 1543TIP3    H1 4635   5.558   1.276   3.202  1.2187 -0.8109  0.0639
 1543TIP3    H2 4636   5.582   1.414   3.261 -1.4028 -0.6539  0.8997
 1544TIP3   OH2 4637   5.936   2.367   1.231 -0.0142 -0.2497  0.3383
 1544TIP3    H1 4638   5.980   2.432   1.176  0.0499 -0.3373  0.2865
 1544TIP3    H2 4639   5.868   2.330   1.175 -0.3441  0.0947  0.5116
 1545TIP3   OH2 4640   5.828   3.638   3.037 -0.1748  0.8365 -0.1345
 1545TIP3    H1 4641   5.917   3.636   3.001 -0.4217  1.0176 -0.7804
 1545TIP3    H2 4642   5.778   3.579   2.981 -0.4253  0.6159  0.3239
 1546TIP3   OH2 4643   0.136   5.043   4.318 -0.7131 -0.0354  0.0868
 1546TIP3    H1 4644   0.204   5.052   4.251 -0.3219 -0.9302  0.3434
 1546TIP3    H2 4645   0.185   5.029   4.399 -1.1573  1.6558  0.6955
 1547TIP3   OH2 4646   0.157   2.763   4.128 -0.1860  0.2125  0.0841
 1547TIP3    H1 4647   0.219   2.732   4.194 -0.6080  1.1801  0.9731
 1547TIP3    H2 4648   0.154   2.858   4.140  0.0762  0.4716 -1.6617
 1548TIP3   OH2 4649   4.554   1.934   5.114 -0.1781  0.1372  0.3357
 1548TIP3    H1 4650   4.498   1.995   5.160 -0.6307 -0.2917  0.3597
 1548TIP3    H2 4651   4.570   1.863   5.177  0.4181  0.2663  0.3433
 1549TIP3   OH2 4652   0.932   2.759   5.104 -0.1446 -0.7866 -0.4033
 1549TIP3    H1 4653   0.862   2.823   5.089 -0.0632 -0.6139 -0.0668
 1549TIP3    H2 4654   0.920   2.694   5.035 -0.3013 -0.4683 -0.6799
 1550TIP3   OH2 4655   1.599   4.936   0.838 -0.6414 -0.4364 -0.5213
 1550TIP3    H1 4656   1.506   4.943   0.817 -0.1699  0.2586 -2.5511
 1550TIP3    H2 4657   1.642   4.930   0.753  1.1403 -1.3556  0.3996
 1551TIP3   OH2 4658   2.459   1.471   2.144  0.1686  0.0333 -0.3673
 1551TIP3    H1 4659   2.372   1.470   2.183 -0.8960 -1.1713 -2.5932
 1551TIP3    H2 4660   2.476   1.563   2.125 -1.3742  0.1233 -1.4452
 1552TIP3   OH2 4661   5.677   4.720   0.032  0.0981  0.3160  0.0079
 1552TIP3    H1 4662   5.734   4.647   0.057 -1.9555 -0.6551  2.3406
 1552TIP3    H2 4663   5.642   4.752   0.116 -0.1386  3.1201 -1.0689
 1553TIP3   OH2 4664   4.878   0.852   0.751  0.2579 -0.5698 -0.7648
 1553TIP3    H1 4665   4.796   0.884   0.790  0.4835  1.0410 -1.5007
 1553TIP3    H2 4666   4.927   0.815   0.824 -1.1413 -1.6355 -0.3233
 1554TIP3   OH2 4667   3.049   0.390   0.261  0.2130  0.4882  0.3896
 1554TIP3    H1 4668   3.076   0.468   0.308  2.8003  0.4951 -0.9115
 1554TIP3    H2 4669   3.093   0.396   0.176  2.6642 -3.4756  1.0852
 1555TIP3   OH2 4670   1.016   0.500   1.035  0.4156 -0.1026 -0.0789
 1555TIP3    H1 4671   1.068   0.438   0.983  0.3421 -1.4718  1.3950
 1555TIP3    H2 4672   1.002   0.455   1.119 -1.1344  1.2178  0.4200
 1556TIP3   OH2 4673   2.252   4.115   4.014  0.3317  0.0226 -0.7338
 1556TIP3    H1 4674   2.227   4.088   3.926 -0.1592  0.6623 -0.7887
 1556TIP3    H2 4675   2.174   4.099   4.067  0.0914  1.1494 -0.7314
 1557TIP3   OH2 4676   6.002   3.523   1.729 -0.3830  0.7011 -0.0446
 1557TIP3    H1 4677   6.046   3.608   1.733 -0.1554  0.6741 -1.3619
 1557TIP3    H2 4678   6.064   3.466   1.685 -0.2524 -0.3629  1.4425
 1558TIP3   OH2 4679   2.474   3.376   3.572  0.0328  0.4146  0.3158
 1558TIP3    H1 4680   2.495   3.328   3.652 -0.4600 -1.1626 -0.4364
 1558TIP3    H2 4681   2.559   3.393   3.531  0.2810  1.1575  1.1168
 1559TIP3   OH2 4682   4.129   0.701   1.187  0.0574  0.0935  0.3263
 1559TIP3    H1 4683   4.053   0.648   1.165  0.2154  0.4129 -1.0778
 1559TIP3    H2 4684   4.095   0.790   1.198 -0.1754 -0.2083  2.4768
 1560TIP3   OH2 4685   4.641   4.656   4.780  0.4689  0.4279  0.4805
 1560TIP3    H1 4686   4.672   4.746   4.792 -0.4700  0.8676 -0.2167
 1560TIP3    H2 4687   4.633   4.621   4.869  0.4330  1.1777  0.7771
 1561TIP3   OH2 4688   3.147   5.053   1.142  0.6883 -0.5363  0.7733
 1561TIP3    H1 4689   3.099   4.973   1.121  1.9987 -1.4916  1.3200
 1561TIP3    H2 4690   3.152   5.055   1.237 -0.7182  1.0746  0.8700
 1562TIP3   OH2 4691   0.542   4.784   1.871  0.2840  0.0113  0.1251
 1562TIP3    H1 4692   0.612   4.759   1.811 -0.4740 -1.2248 -0.2865
 1562TIP3    H2 4693   0.517   4.872   1.844  2.5562  1.0509  1.1424
 1563TIP3   OH2 4694   5.138   4.288   1.958  0.1405 -0.1687  0.0622
 1563TIP3    H1 4695   5.042   4.290   1.958  0.1572  1.1558 -0.3110
 1563TIP3    H2 4696   5.159   4.207   1.910 -0.7985  0.1779 -0.9928
 1564TIP3   OH2 4697   4.094   5.209   0.384 -0.8567 -0.3339  0.5369
 1564TIP3    H1 4698   4.138   5.137   0.429 -0.2698  0.9827  2.1684
 1564TIP3    H2 4699   4.020   5.168   0.340 -1.0718 -1.8221  2.1723
 1565TIP3   OH2 4700   4.354   1.453   0.947 -0.4629  0.2367  0.3342
 1565TIP3    H1 4701   4.419   1.492   1.006 -0.2171  0.4760 -0.0972
 1565TIP3    H2 4702   4.274   1.451   0.999 -0.6081  1.7834  0.2039
 1566TIP3   OH2 4703   2.890   2.105   3.687 -0.7844  0.1668  0.4121
 1566TIP3    H1 4704   2.837   2.149   3.621 -1.2764 -1.1504 -0.1054
 1566TIP3    H2 4705   2.836   2.031   3.715 -0.7178  0.8419  2.5233
 1567TIP3   OH2 4706   2.861   4.608   1.023  0.2592 -0.4187  0.3399
 1567TIP3    H1 4707   2.897   4.695   1.041  1.1485 -0.5842 -0.4894
 1567TIP3    H2 4708   2.772   4.610   1.058  0.6938  0.3998  1.4512
 1568TIP3   OH2 4709   3.703   1.773   1.311  0.5713  0.1387  0.6795
 1568TIP3    H1 4710   3.665   1.688   1.333  1.9785 -1.3705 -2.2086
 1568TIP3    H2 4711   3.629   1.828   1.285 -0.1154 -1.1092 -0.0561
 1569TIP3   OH2 4712   3.400   3.623   3.136  0.3622 -0.3206 -0.6405
 1569TIP3    H1 4713   3.480   3.579   3.166  0.7350  1.2661  0.7982
 1569TIP3    H2 4714   3.339   3.551   3.119  1.2991 -1.4533  0.5834
 1570TIP3   OH2 4715   3.607   3.445   1.450  0.6725 -0.1054 -0.0405
 1570TIP3    H1 4716   3.529   3.494   1.427  0.2100 -0.7644  0.1066
 1570TIP3    H2 4717   3.663   3.450   1.372  0.8568  1.0741  0.1518
 1571TIP3   OH2 4718   5.392   2.225   3.419  0.1010 -0.2921 -0.4299
 1571TIP3    H1 4719   5.462   2.192   3.364  0.6386 -1.8512  1.0979
 1571TIP3    H2 4720   5.396   2.171   3.498 -2.8386 -0.4936 -0.2895
 1572TIP3   OH2 4721   2.995   3.720   4.983  0.4607 -0.6100 -0.0497
 1572TIP3    H1 4722   2.910   3.738   5.023  0.4464  1.8128 -0.9822
 1572TIP3    H2 4723   3.051   3.792   5.014  1.8979 -1.6297 -0.2233
 1573TIP3   OH2 4724   1.580   3.108   4.478  0.0774  0.2592  0.0859
 1573TIP3    H1 4725   1.489   3.089   4.500  0.5393 -0.4018  1.5598
 1573TIP3    H2 4726   1.575   3.179   4.415 -1.4275  0.9711  0.9443
 1574TIP3   OH2 4727   3.172   3.960   4.256  0.4376  0.3940  0.1095
 1574TIP3    H1 4728   3.108   3.968   4.184 -0.5258  0.1222  0.9105
 1574TIP3    H2 4729   3.243   3.909   4.218 -0.4454 -0.4878 -0.4305
 1575TIP3   OH2 4730   0.533   3.311   3.153  0.2005 -0.0852 -0.0570
 1575TIP3    H1 4731   0.442   3.286   3.171 -0.1618  1.2980  0.1116
 1575TIP3    H2 4732   0.542   3.299   3.059  0.1483 -1.1675  0.0664
 1576TIP3   OH2 4733   4.473   4.103   3.883  0.0786 -0.3961 -0.0951
 1576TIP3    H1 4734   4.491   4.051   3.961  0.1172  0.7678  0.6913
 1576TIP3    H2 4735   4.379   4.092   3.868  0.1075 -0.7743 -0.0012
 1577TIP3   OH2 4736   1.762   1.979   0.073 -0.1600 -0.3343 -0.3703
 1577TIP3    H1 4737   1.675   1.940   0.078 -0.2844  0.0915  1.0667
 1577TIP3    H2 4738   1.815   1.926   0.132  0.7589 -1.0169 -1.7415
 1578TIP3   OH2 4739   0.112   5.739   2.286  0.5496 -0.4165 -0.6895
 1578TIP3    H1 4740   0.171   5.725   2.212  1.2998 -0.5760 -0.0826
 1578TIP3    H2 4741   0.156   5.807   2.338 -0.4831  0.4489 -0.9302
 1579TIP3   OH2 4742   1.665   2.910   4.318 -0.1923 -0.1161  0.3219
 1579TIP3    H1 4743   1.642   2.931   4.409  0.1460  1.2299  0.1137
 1579TIP3    H2 4744   1.691   2.818   4.321  0.2781  0.0385  1.6816
 1580TIP3   OH2 4745   2.748   0.247   2.971  0.9469 -0.6210  0.0359
 1580TIP3    H1 4746   2.772   0.223   3.060  1.7857  2.0579  0.6217
 1580TIP3    H2 4747   2.815   0.206   2.916  0.2252 -2.5822  0.5287
 1581TIP3   OH2 4748   0.985   3.922   5.029  0.6137  0.1972 -0.1828
 1581TIP3    H1 4749   1.002   3.970   4.948  1.8705 -1.6895 -1.0949
 1581TIP3    H2 4750   0.961   3.834   5.001 -0.3891 -0.1111  1.4753
 1582TIP3   OH2 4751   3.992   2.049   4.122  0.3264  0.1564  0.2949
 1582TIP3    H1 4752   4.032   1.993   4.055  1.4781 -0.3946  1.3933
 1582TIP3    H2 4753   3.928   2.101   4.075 -0.9622 -2.2321 -0.7796
 1583TIP3   OH2 4754   5.499   2.983   2.525 -0.0855 -0.1839 -0.2913
 1583TIP3    H1 4755   5.413   3.023   2.537 -0.8526 -2.0307  0.8359
 1583TIP3    H2 4756   5.528   2.961   2.614  0.6014 -1.4432 -0.7953
 1584TIP3   OH2 4757   1.187   1.040   2.623  0.0661  0.1391 -0.5365
 1584TIP3    H1 4758   1.096   1.069   2.627 -0.1127  0.2157 -3.4363
 1584TIP3    H2 4759   1.188   0.957   2.671 -1.8320 -0.4792 -1.4710
 1585TIP3   OH2 4760   6.171   4.918   2.200  0.2825 -0.7632  0.0527
 1585TIP3    H1 4761   6.224   4.841   2.221 -0.8433 -1.6546 -0.2380
 1585TIP3    H2 4762   6.149   4.956   2.285 -0.2799 -1.5790  0.2930
 1586TIP3   OH2 4763   6.309   3.903   1.359  0.3270 -0.7009 -0.2322
 1586TIP3    H1 4764   6.309   3.978   1.419 -1.4076 -0.4439 -0.4972
 1586TIP3    H2 4765   6.293   3.828   1.416 -1.5453 -0.4320 -0.3280
 1587TIP3   OH2 4766   5.913   4.568   4.569 -0.4577 -0.1783 -0.2032
 1587TIP3    H1 4767   5.901   4.625   4.645 -0.7300 -0.1153 -0.2955
 1587TIP3    H2 4768   5.912   4.627   4.494 -0.9452 -0.3288 -0.3144
 1588TIP3   OH2 4769   4.451   2.240   4.888  0.4632  0.3634 -0.0316
 1588TIP3    H1 4770   4.496   2.155   4.887  0.3701  0.3156 -0.9251
 1588TIP3    H2 4771   4.441   2.263   4.795 -0.9385  0.5963  0.1581
 1589TIP3   OH2 4772   5.826   5.106   4.910 -0.3314 -0.1010 -0.7518
 1589TIP3    H1 4773   5.743   5.061   4.923 -0.1808 -0.1706  0.0314
 1589TIP3    H2 4774   5.803   5.186   4.863 -1.2493  1.2612  1.8564
 1590TIP3   OH2 4775   4.922   5.621   3.030  0.5189  1.0086 -0.2740
 1590TIP3    H1 4776   4.860   5.604   2.958  0.0024 -1.2858  0.6199
 1590TIP3    H2 4777   5.008   5.605   2.992  0.3956  1.5468 -0.8102
 1591TIP3   OH2 4778   3.168   4.699   3.652  0.7312 -0.3728  0.2842
 1591TIP3    H1 4779   3.114   4.621   3.662 -0.7876  0.5127 -0.7466
 1591TIP3    H2 4780   3.123   4.767   3.702  0.7613  0.4269 -0.7442
 1592TIP3   OH2 4781   3.593   0.577   0.668  0.5465 -0.4722 -0.3177
 1592TIP3    H1 4782   3.545   0.660   0.665 -1.9104 -1.6881  1.4040
 1592TIP3    H2 4783   3.681   0.599   0.639 -0.1924  2.5708 -0.6413
 1593TIP3   OH2 4784   3.516   2.116   4.478 -0.1041  0.1249 -0.1418
 1593TIP3    H1 4785   3.464   2.107   4.559 -1.2983  1.5918 -0.6905
 1593TIP3    H2 4786   3.594   2.063   4.494  0.4024  1.5147  2.5704
 1594TIP3   OH2 4787   0.010   3.391   0.103 -0.5504  0.3450  0.2418
 1594TIP3    H1 4788   0.060   3.471   0.116  0.1354  0.2662 -1.6400
 1594TIP3    H2 4789   0.076   3.324   0.083 -1.1874 -0.4984  0.8738
 1595TIP3   OH2 4790   2.916   5.903   4.520  0.0381  0.0958  0.3026
 1595TIP3    H1 4791   2.897   5.983   4.569  0.3124 -0.0136  0.5828
 1595TIP3    H2 4792   2.920   5.834   4.586 -1.5548 -0.3939 -0.0585
 1596TIP3   OH2 4793   1.176   4.867   0.300 -0.4270 -0.3234  0.4126
 1596TIP3    H1 4794   1.214   4.865   0.387  0.0684  0.5902  0.2247
 1596TIP3    H2 4795   1.242   4.910   0.245 -1.1982  0.1392 -0.1783
 1597TIP3   OH2 4796   6.218   0.017   0.272 -0.2479  0.1729  0.4685
 1597TIP3    H1 4797   6.284   0.046   0.209  1.3704  0.5147  2.2242
 1597TIP3    H2 4798   6.174  -0.055   0.228  0.0377  1.1025 -1.4779
 1598TIP3   OH2 4799   1.615   4.353   4.455  0.3309  0.4603  0.3050
 1598TIP3    H1 4800   1.622   4.359   4.550  0.2205  0.5155  0.3092
 1598TIP3    H2 4801   1.542   4.293   4.440  1.8472 -1.4806  0.2687
 1599TIP3   OH2 4802   2.094   4.924   1.952  0.0484  0.3899  0.8114
 1599TIP3    H1 4803   2.024   4.865   1.981  0.9395 -1.8587 -1.2308
 1599TIP3    H2 4804   2.047   4.998   1.913 -1.1213  0.5971  2.4933
 1600TIP3   OH2 4805   4.341   5.930   2.402 -0.0198 -0.3614  0.0530
 1600TIP3    H1 4806   4.372   5.935   2.312  0.0924  0.7983  0.1453
 1600TIP3    H2 4807   4.255   5.973   2.401 -0.5260 -1.3430  0.2877
 1601TIP3   OH2 4808   6.020   5.717   4.153  0.9318  0.2092 -0.0639
 1601TIP3    H1 4809   6.075   5.706   4.231  0.0402  0.0838  0.5617
 1601TIP3    H2 4810   6.081   5.746   4.085  1.8954 -0.6080  0.4229
 1602TIP3   OH2 4811   3.443   4.694   5.005  0.0811 -0.1849 -0.0030
 1602TIP3    H1 4812   3.502   4.756   5.048  0.6210 -0.8134  0.1810
 1602TIP3    H2 4813   3.440   4.723   4.914  1.8634 -0.9826 -0.3617
 1603TIP3   OH2 4814   0.426   2.611   2.482  0.5242  0.4901  0.3361
 1603TIP3    H1 4815   0.490   2.681   2.496  1.2505 -0.5507  2.5603
 1603TIP3    H2 4816   0.341   2.654   2.493  0.8749  1.4532 -0.5478
 1604TIP3   OH2 4817   5.067   4.152   2.535  0.1931 -0.1069  0.0148
 1604TIP3    H1 4818   5.088   4.071   2.488  1.0097  1.0886 -1.7784
 1604TIP3    H2 4819   5.034   4.211   2.467  0.1468  1.2665  1.1838
 1605TIP3   OH2 4820   5.848   5.245   2.404 -0.5009  0.3975 -0.3755
 1605TIP3    H1 4821   5.763   5.281   2.430 -1.2050 -0.1769 -1.7210
 1605TIP3    H2 4822   5.828   5.155   2.378  0.8231 -0.2751  0.8224
 1606TIP3   OH2 4823   2.781   3.880   1.603 -0.6568 -0.5131  0.5272
 1606TIP3    H1 4824   2.830   3.798   1.589 -1.3033 -0.8751  0.3541
 1606TIP3    H2 4825   2.780   3.922   1.517 -0.3977 -0.3580  0.5976
 1607TIP3   OH2 4826   0.913   1.021   3.131  0.2674 -0.0514  0.3372
 1607TIP3    H1 4827   0.890   0.960   3.060 -0.1961  0.7316 -0.1990
 1607TIP3    H2 4828   0.966   1.088   3.088  2.3965 -1.0319  1.2644
 1608TIP3   OH2 4829   2.282   0.107   3.738 -0.3590 -0.1967 -0.5197
 1608TIP3    H1 4830   2.285   0.168   3.812  0.6629 -0.3074 -0.4543
 1608TIP3    H2 4831   2.342   0.145   3.673  0.6956 -1.3778 -0.2735
 1609TIP3   OH2 4832   3.575   2.831   1.950 -0.4765 -0.2866 -0.1013
 1609TIP3    H1 4833   3.509   2.780   1.997 -1.3631  0.5421 -0.4115
 1609TIP3    H2 4834   3.611   2.770   1.885 -1.3664 -0.5947 -0.3236
 1610TIP3   OH2 4835   5.944   0.983   3.935  0.4238  0.0082 -0.0584
 1610TIP3    H1 4836   5.854   0.956   3.953  0.0825  1.3366  0.3878
 1610TIP3    H2 4837   5.992   0.965   4.016  0.2744  0.4019  0.1214
 1611TIP3   OH2 4838   5.686   1.982   2.310  0.6206 -0.1187 -0.0519
 1611TIP3    H1 4839   5.705   2.047   2.243  0.1719  2.8770  2.4955
 1611TIP3    H2 4840   5.772   1.946   2.333  0.7000 -1.9234 -2.7170
 1612TIP3   OH2 4841   3.813   5.141   0.323 -0.0901 -0.1704 -0.0432
 1612TIP3    H1 4842   3.759   5.191   0.385  0.4745  0.0408  0.2829
 1612TIP3    H2 4843   3.781   5.167   0.237 -1.1701 -0.7782  0.1463
 1613TIP3   OH2 4844   3.985   5.605   3.985 -0.2977 -0.1494  0.0490
 1613TIP3    H1 4845   4.022   5.560   4.060 -1.5534  1.2189  1.5565
 1613TIP3    H2 4846   4.011   5.697   3.996 -0.2818  0.0351 -1.3340
 1614TIP3   OH2 4847   4.167   4.984   0.497  0.2084  0.3439 -0.6505
 1614TIP3    H1 4848   4.257   4.958   0.518  0.1579  0.7655  0.1314
 1614TIP3    H2 4849   4.126   4.904   0.464  1.5961  0.7207 -3.6572
 1615TIP3   OH2 4850   4.253   1.328   1.289 -0.7050  0.5453  0.2191
 1615TIP3    H1 4851   4.186   1.350   1.225 -0.7564 -2.1098 -0.7586
 1615TIP3    H2 4852   4.205   1.319   1.372 -1.1369  1.0696  0.0298
 1616TIP3   OH2 4853   2.926   4.293   3.992  0.1739  0.2736  0.0020
 1616TIP3    H1 4854   2.862   4.273   4.060 -0.5992  0.2429 -0.7140
 1616TIP3    H2 4855   2.988   4.220   3.995  0.5233  0.5959  1.0917
 1617TIP3   OH2 4856   0.851   2.841   0.842 -0.0665  0.1654  0.5477
 1617TIP3    H1 4857   0.819   2.931   0.846  1.8098  1.0409 -1.8972
 1617TIP3    H2 4858   0.938   2.848   0.803 -0.8154 -2.8823 -2.0551
 1618TIP3   OH2 4859   2.033   5.929   4.322 -0.3783 -0.3581  0.3763
 1618TIP3    H1 4860   1.961   5.983   4.291  0.5781  0.1891 -1.0186
 1618TIP3    H2 4861   1.994   5.842   4.334 -0.8036 -0.8142 -3.0719
 1619TIP3   OH2 4862   1.935   2.350   2.942 -0.3415  0.2951 -0.6304
 1619TIP3    H1 4863   1.982   2.271   2.968 -1.5717  0.0500  0.9751
 1619TIP3    H2 4864   1.844   2.324   2.937 -0.8118  1.6643  0.1957
 1620TIP3   OH2 4865   5.405   4.824   4.814 -0.4948  0.0535  0.2282
 1620TIP3    H1 4866   5.396   4.889   4.744  2.3632  1.7520  1.2426
 1620TIP3    H2 4867   5.427   4.743   4.769  2.2208  1.2985 -0.9552
 1621TIP3   OH2 4868   1.355   5.851   2.253  0.2184 -0.3038  0.3297
 1621TIP3    H1 4869   1.343   5.913   2.181 -0.5013 -0.3507  0.4015
 1621TIP3    H2 4870   1.358   5.766   2.210 -1.2356 -0.4207  0.4293
 1622TIP3   OH2 4871   3.972   3.488   3.875 -0.7675  0.9882  0.3992
 1622TIP3    H1 4872   3.946   3.579   3.855 -0.7477  1.0479  0.6461
 1622TIP3    H2 4873   3.916   3.435   3.818 -2.4376  1.0498  1.8957
 1623TIP3   OH2 4874   6.040   2.609   2.803  0.2678 -0.0081 -0.2960
 1623TIP3    H1 4875   6.046   2.669   2.729 -0.2490 -1.0526 -1.2249
 1623TIP3    H2 4876   5.995   2.659   2.871 -1.9322  0.0876 -1.7175
 1624TIP3   OH2 4877   5.850   5.554   3.190  0.0676  0.1122 -0.1249
 1624TIP3    H1 4878   5.793   5.629   3.175  0.0695  0.1016 -0.1813
 1624TIP3    H2 4879   5.790   5.482   3.208  0.0760  0.5211  1.8079
 1625TIP3   OH2 4880   3.498   5.399   0.028 -0.1624 -0.3401 -0.1183
 1625TIP3    H1 4881   3.408   5.424   0.052 -0.0362  1.4759 -1.3323
 1625TIP3    H2 4882   3.548   5.480   0.038  1.1744 -1.1286 -0.2710
 1626TIP3   OH2 4883   5.356   5.781   3.050 -0.1832  0.0771  0.3223
 1626TIP3    H1 4884   5.329   5.757   2.961  1.0377  0.7002 -0.2375
 1626TIP3    H2 4885   5.276   5.812   3.091 -1.1747 -1.9737  0.0821
 1627TIP3   OH2 4886   2.464   2.880   2.481  0.2385  0.6600  0.3659
 1627TIP3    H1 4887   2.519   2.929   2.419  0.1266 -0.6254 -0.7914
 1627TIP3    H2 4888   2.403   2.832   2.425 -0.3645  0.0478  1.5250
 1628TIP3   OH2 4889   3.751   2.976   0.132  0.6464  0.5648 -0.0988
 1628TIP3    H1 4890   3.746   2.888   0.170  0.8231  0.7046  0.2519
 1628TIP3    H2 4891   3.724   3.034   0.203 -1.2061  0.6846 -0.8632
 1629TIP3   OH2 4892   5.612   1.621   0.802  0.0526  0.2503  0.0782
 1629TIP3    H1 4893   5.582   1.710   0.782 -1.2139  0.3552  2.1799
 1629TIP3    H2 4894   5.531   1.572   0.817  0.7567 -1.1532 -0.5871
 1630TIP3   OH2 4895   3.223   1.972   1.137 -0.6250  0.1798  0.2342
 1630TIP3    H1 4896   3.249   1.934   1.053  1.4709 -0.1169  0.9427
 1630TIP3    H2 4897   3.149   1.919   1.166 -0.5461 -0.5438 -0.8324
 1631TIP3   OH2 4898   0.891   1.017   1.724  0.8561  0.0203 -0.4138
 1631TIP3    H1 4899   0.895   1.113   1.724  0.8935  0.0236 -0.9550
 1631TIP3    H2 4900   0.942   0.991   1.647  2.3299 -0.5062  0.6922
 1632TIP3   OH2 4901   6.174   2.484   0.154  0.0783  0.1990  0.0494
 1632TIP3    H1 4902   6.081   2.503   0.164  0.2336  0.5501  0.9212
 1632TIP3    H2 4903   6.204   2.543   0.085 -0.6233 -0.9085 -1.2613
 1633TIP3   OH2 4904   5.703   4.624   3.103 -0.2443 -0.2900  0.2641
 1633TIP3    H1 4905   5.651   4.544   3.109 -0.8340  0.1837  1.8963
 1633TIP3    H2 4906   5.638   4.694   3.096  0.2437  0.1218 -0.1944
 1634TIP3   OH2 4907   3.788   5.568   3.775  0.0481 -0.2132 -0.6396
 1634TIP3    H1 4908   3.739   5.491   3.803  0.4767 -0.4483 -0.5190
 1634TIP3    H2 4909   3.852   5.582   3.845 -1.5743  1.7049  0.5763
 1635TIP3   OH2 4910   5.348   4.269   0.085 -0.5435 -0.6123 -0.4570
 1635TIP3    H1 4911   5.428   4.259   0.034 -0.9403 -2.3965 -0.7829
 1635TIP3    H2 4912   5.303   4.185   0.077 -2.0943  0.0948  0.3362
 1636TIP3   OH2 4913   3.023   1.575   3.287 -0.1553 -0.6795 -0.0638
 1636TIP3    H1 4914   2.998   1.535   3.204  0.1424 -1.6868  0.3186
 1636TIP3    H2 4915   2.941   1.589   3.334 -0.5046  1.4656 -1.1814
 1637TIP3   OH2 4916   2.255   2.600   2.593 -0.6244  0.2512 -0.1553
 1637TIP3    H1 4917   2.333   2.560   2.554 -0.9168 -0.4077 -0.0799
 1637TIP3    H2 4918   2.222   2.534   2.654 -1.3672  0.4373 -0.3452
 1638TIP3   OH2 4919   5.280   2.487   3.100 -0.6275 -0.1732  0.0363
 1638TIP3    H1 4920   5.202   2.431   3.106  0.2082 -1.4680 -0.7549
 1638TIP3    H2 4921   5.276   2.541   3.178 -3.2835  1.0888 -0.8573
 1639TIP3   OH2 4922   4.608   2.401   4.359 -0.5960 -0.0587  0.2279
 1639TIP3    H1 4923   4.696   2.362   4.366 -0.9304 -0.9822 -0.4801
 1639TIP3    H2 4924   4.601   2.457   4.436  1.2576  1.3764 -0.5832
 1640TIP3   OH2 4925   4.542   1.470   3.219  0.5096 -0.2895 -0.0132
 1640TIP3    H1 4926   4.505   1.482   3.132 -1.1949  0.9861  0.8226
 1640TIP3    H2 4927   4.635   1.495   3.210 -0.2118  2.4053 -0.9645
 1641TIP3   OH2 4928   5.692   0.925   4.462  0.0316  0.0763 -0.1825
 1641TIP3    H1 4929   5.661   1.015   4.469 -1.1935 -0.4188  0.9866
 1641TIP3    H2 4930   5.613   0.871   4.461  0.7636 -1.1858  2.2334
 1642TIP3   OH2 4931   0.012   0.543   4.611  0.3556 -0.1445  0.5655
 1642TIP3    H1 4932   0.107   0.529   4.614  0.4976  0.2778 -0.8877
 1642TIP3    H2 4933  -0.025   0.462   4.646  1.2439 -0.3813  1.0038
 1643TIP3   OH2 4934   6.030   1.366   2.129 -0.0029 -0.3060  0.0618
 1643TIP3    H1 4935   6.080   1.285   2.137  1.2338  0.2664 -1.4779
 1643TIP3    H2 4936   5.944   1.345   2.166  0.1252 -2.4674 -0.7481
 1644TIP3   OH2 4937   5.057   5.032   0.674 -0.5542 -0.1901  0.0757
 1644TIP3    H1 4938   5.040   4.993   0.589 -0.7682 -0.3375  0.1833
 1644TIP3    H2 4939   5.008   4.977   0.736  0.6113 -0.8461  0.4440
 1645TIP3   OH2 4940   0.221   3.910   1.603  0.3010  0.5363 -0.7613
 1645TIP3    H1 4941   0.303   3.943   1.567  1.0048 -0.9756 -0.6142
 1645TIP3    H2 4942   0.227   3.929   1.697  0.8581 -0.2716 -0.6217
 1646TIP3   OH2 4943   2.834   3.543   2.820  0.3792 -0.4994  0.1777
 1646TIP3    H1 4944   2.876   3.465   2.857  1.1083 -0.1335  0.1378
 1646TIP3    H2 4945   2.902   3.586   2.770 -0.2529 -0.2800 -0.5125
 1647TIP3   OH2 4946   4.659   4.489   0.846 -0.4106  0.1447 -0.5016
 1647TIP3    H1 4947   4.594   4.468   0.913  0.4137 -1.5898 -0.1902
 1647TIP3    H2 4948   4.676   4.405   0.803  2.8187  0.1690  0.5140
 1648TIP3   OH2 4949   4.208   3.627   1.903 -0.0976 -0.5319 -0.0861
 1648TIP3    H1 4950   4.205   3.647   1.809  2.4497  0.3605 -0.0313
 1648TIP3    H2 4951   4.175   3.706   1.945 -0.4232 -0.6102 -0.1894
 1649TIP3   OH2 4952   4.416   3.343   2.174  0.3308  0.0778 -0.3799
 1649TIP3    H1 4953   4.325   3.355   2.201  0.1874 -2.6240  0.6045
 1649TIP3    H2 4954   4.417   3.367   2.081 -1.1705  0.9468 -0.2065
 1650TIP3   OH2 4955   0.533   0.577   1.654 -1.1171 -0.2050  0.6896
 1650TIP3    H1 4956   0.452   0.614   1.617 -0.1575 -0.7111 -2.1848
 1650TIP3    H2 4957   0.520   0.482   1.651 -0.1849 -0.3247 -0.5506
 1651TIP3   OH2 4958   3.010   5.812   2.519  0.2743  0.0038  0.7448
 1651TIP3    H1 4959   2.975   5.733   2.477 -0.7060  1.4556 -1.3111
 1651TIP3    H2 4960   2.943   5.838   2.581  0.1238 -0.2044  0.6695
 1652TIP3   OH2 4961   1.186   4.839   4.055  0.4512 -0.2448 -0.4329
 1652TIP3    H1 4962   1.246   4.905   4.019 -0.0094 -0.3210 -1.3840
 1652TIP3    H2 4963   1.167   4.870   4.144  2.5302 -0.6666  0.2209
 1653TIP3   OH2 4964   0.905   1.128   4.503 -0.0795 -0.4563  0.0888
 1653TIP3    H1 4965   0.995   1.099   4.517 -0.2838 -0.3246  1.9890
 1653TIP3    H2 4966   0.855   1.047   4.494  0.1091 -0.5515 -0.1082
 1654TIP3   OH2 4967   4.834   2.444   1.218  0.1134  0.5787  0.2646
 1654TIP3    H1 4968   4.853   2.397   1.137 -3.5590 -1.5477  0.4255
 1654TIP3    H2 4969   4.790   2.524   1.190 -0.1460  0.3859  0.1159
 1655TIP3   OH2 4970   1.140   4.133   1.834  0.0687 -0.2428 -0.1198
 1655TIP3    H1 4971   1.145   4.038   1.834  1.1712 -0.2261 -1.9787
 1655TIP3    H2 4972   1.067   4.153   1.775 -0.4646  0.0933  0.6263
 1656TIP3   OH2 4973   4.637   0.950   0.865  0.1263  0.1703  0.2241
 1656TIP3    H1 4974   4.599   0.937   0.779 -1.1139 -2.2970  1.0474
 1656TIP3    H2 4975   4.595   1.030   0.898 -2.5055 -1.0385  0.0562
 1657TIP3   OH2 4976   5.197   5.555   4.645 -0.4301  0.2227  0.1637
 1657TIP3    H1 4977   5.254   5.608   4.590  0.3590  1.1450  1.8043
 1657TIP3    H2 4978   5.110   5.567   4.607 -0.2980  2.7701  0.4442
 1658TIP3   OH2 4979   2.211   2.312   2.103 -0.2122 -0.5790 -0.2116
 1658TIP3    H1 4980   2.143   2.279   2.045 -1.1114  2.1305 -0.8191
 1658TIP3    H2 4981   2.292   2.271   2.071 -0.7041  0.5868 -3.2735
 1659TIP3   OH2 4982   2.183   0.821   3.544 -0.0553  0.2377 -0.1299
 1659TIP3    H1 4983   2.194   0.863   3.630 -1.8103  1.9235 -0.6341
 1659TIP3    H2 4984   2.271   0.800   3.515  0.7512  1.6748  1.1432
 1660TIP3   OH2 4985   1.623   1.090   0.592 -0.0149 -0.3291  0.3221
 1660TIP3    H1 4986   1.671   1.172   0.587 -1.0793  0.2733 -0.5249
 1660TIP3    H2 4987   1.617   1.060   0.501 -2.0496  0.1420  0.2349
 1661TIP3   OH2 4988   5.205   3.321   2.879  0.1842 -0.3891  0.3111
 1661TIP3    H1 4989   5.297   3.315   2.902 -0.3358  0.9373  3.1376
 1661TIP3    H2 4990   5.183   3.414   2.888 -1.0300 -0.3326 -2.2777
 1662TIP3   OH2 4991   0.126   2.802   2.878  0.2147 -0.2489 -0.1035
 1662TIP3    H1 4992   0.144   2.725   2.931 -1.6818 -0.3173  0.5133
 1662TIP3    H2 4993   0.039   2.830   2.905  1.0730  2.5116  0.1751
 1663TIP3   OH2 4994   0.036   4.530   0.554  0.6314 -0.0786  0.3246
 1663TIP3    H1 4995  -0.010   4.566   0.478  0.1451 -1.7995 -0.2281
 1663TIP3    H2 4996   0.114   4.586   0.563 -0.5504  1.6680  0.0968
 1664TIP3   OH2 4997   4.664   2.884   0.321  0.0912 -0.4948 -0.3115
 1664TIP3    H1 4998   4.606   2.867   0.247 -2.5019 -1.1976  1.7306
 1664TIP3    H2 4999   4.736   2.823   0.309  0.7553  0.6703 -3.1420
 1665TIP3   OH2 5000   3.193   5.613   0.768 -0.2156 -0.0454  0.3886
 1665TIP3    H1 5001   3.209   5.580   0.856  0.7730 -0.4552  0.0602
 1665TIP3    H2 5002   3.275   5.655   0.743 -0.1212 -0.8814 -0.7527
 1666TIP3   OH2 5003   5.087   2.887   0.175  0.1238  0.5416 -0.2363
 1666TIP3    H1 5004   5.085   2.974   0.215  1.0288  1.4330 -2.0423
 1666TIP3    H2 5005   5.178   2.875   0.146  0.5098 -1.8019  1.5523
 1667TIP3   OH2 5006   6.322   0.237   2.225 -0.2547  1.0711  0.0360
 1667TIP3    H1 5007   6.296   0.163   2.171 -0.0889  0.2567  1.0458
 1667TIP3    H2 5008   6.417   0.240   2.220 -0.2717  1.3363 -0.1566
 1668TIP3   OH2 5009   5.183   5.212   3.008 -0.6777 -0.3477 -0.2378
 1668TIP3    H1 5010   5.269   5.191   2.970 -0.8082  0.2205 -0.8725
 1668TIP3    H2 5011   5.192   5.302   3.038 -0.3981 -0.9603  1.6538
 1669TIP3   OH2 5012   6.308   0.819   1.646 -0.2086 -0.3174 -0.4175
 1669TIP3    H1 5013   6.281   0.728   1.659 -0.4150 -0.3665 -1.1194
 1669TIP3    H2 5014   6.368   0.837   1.718 -1.0137 -0.6606  0.3597
 1670TIP3   OH2 5015   2.880   2.008   3.991  0.1651  1.1261 -0.4175
 1670TIP3    H1 5016   2.893   1.960   3.909 -1.5904  0.2436 -0.2369
 1670TIP3    H2 5017   2.797   2.056   3.978 -0.1440  0.9689  0.8231
 1671TIP3   OH2 5018   2.819   0.944   1.160  0.2312  0.2426  0.6248
 1671TIP3    H1 5019   2.862   1.016   1.114  0.1404  0.2135  0.4917
 1671TIP3    H2 5020   2.744   0.921   1.104  0.3971 -0.1146  0.5471
 1672TIP3   OH2 5021   0.782   3.451   1.753  0.0632  0.7171 -0.3030
 1672TIP3    H1 5022   0.821   3.418   1.835  0.8572  4.3540  0.9622
 1672TIP3    H2 5023   0.735   3.530   1.779 -0.4489  1.4996 -3.2789
 1673TIP3   OH2 5024   2.791   4.744   0.769  0.0086 -0.1700 -0.0194
 1673TIP3    H1 5025   2.733   4.701   0.832 -1.4040 -0.2637 -1.3119
 1673TIP3    H2 5026   2.756   4.833   0.762  0.0007 -0.2311 -0.8144
 1674TIP3   OH2 5027   2.550   4.112   4.055  0.0558 -0.0637  0.0461
 1674TIP3    H1 5028   2.604   4.132   3.979 -0.0523  1.2970  0.3004
 1674TIP3    H2 5029   2.460   4.117   4.023  0.0004  0.8060  0.3107
 1675TIP3   OH2 5030   2.761   3.804   3.810  0.3117  0.4081  0.8021
 1675TIP3    H1 5031   2.751   3.710   3.794 -1.9418  0.6352  0.6275
 1675TIP3    H2 5032   2.770   3.842   3.722 -0.3219  0.4866  0.7644
 1676TIP3   OH2 5033   3.803   2.058   0.877  0.3589 -0.5350 -0.0316
 1676TIP3    H1 5034   3.776   2.108   0.955  1.2808 -0.1144  0.0302
 1676TIP3    H2 5035   3.839   1.976   0.913 -2.3425 -1.8956 -0.1811
 1677TIP3   OH2 5036   4.699   4.095  -0.008 -0.6876 -0.5507 -0.5416
 1677TIP3    H1 5037   4.650   4.037   0.050 -1.7290  0.3230 -0.5145
 1677TIP3    H2 5038   4.789   4.091   0.024 -1.2647  0.0056  1.2196
 1678TIP3   OH2 5039   2.749   1.973   1.462  0.1651 -0.2208 -0.2137
 1678TIP3    H1 5040   2.726   1.932   1.545 -0.7012 -0.1797 -0.4310
 1678TIP3    H2 5041   2.672   1.962   1.407  0.5819  0.1165 -0.8757
 1679TIP3   OH2 5042   5.570   4.270   4.505 -0.0152 -0.1206 -0.1448
 1679TIP3    H1 5043   5.523   4.325   4.443  0.9980 -0.7776 -1.5587
 1679TIP3    H2 5044   5.502   4.230   4.559 -0.8758  0.9249 -0.4335
 1680TIP3   OH2 5045   3.909   1.838   1.488 -0.2886  0.3796  0.0854
 1680TIP3    H1 5046   3.846   1.811   1.421  0.4660  0.8351 -0.8199
 1680TIP3    H2 5047   3.969   1.896   1.443  1.0120 -0.3300  0.8360
 1681TIP3   OH2 5048   5.547   0.783   4.976  0.0538  0.1224  0.1961
 1681TIP3    H1 5049   5.641   0.768   4.977  0.1271  0.3199 -1.2891
 1681TIP3    H2 5050   5.537   0.877   4.986  0.0496  0.1611 -0.1465
 1682TIP3   OH2 5051   2.049   5.818   2.574  0.6076  0.1962 -0.5681
 1682TIP3    H1 5052   1.976   5.787   2.520  1.1636  0.5116 -1.5356
 1682TIP3    H2 5053   2.083   5.739   2.615  0.7761 -0.2071 -1.4506
 1683TIP3   OH2 5054   2.856   4.720   4.583 -0.3523 -0.4788  0.1665
 1683TIP3    H1 5055   2.895   4.804   4.559 -0.9018 -0.2230  0.1518
 1683TIP3    H2 5056   2.866   4.665   4.506 -2.0646  0.3239 -0.6791
 1684TIP3   OH2 5057   5.025   1.001   0.299 -0.2548  0.6105 -0.9901
 1684TIP3    H1 5058   5.025   0.906   0.303 -1.4017  0.5453 -2.0901
 1684TIP3    H2 5059   5.088   1.022   0.230  1.0755  0.7418  0.2080
 1685TIP3   OH2 5060   2.965   0.121   2.208  0.7375  0.3348 -0.0517
 1685TIP3    H1 5061   2.994   0.209   2.187 -0.2482  0.4489 -0.9533
 1685TIP3    H2 5062   2.999   0.106   2.297  1.6284  1.2868 -0.2071
 1686TIP3   OH2 5063   4.142   2.241   0.873 -0.0671 -0.0171 -0.7695
 1686TIP3    H1 5064   4.180   2.316   0.827 -1.8617  0.3383 -1.7649
 1686TIP3    H2 5065   4.072   2.278   0.926 -0.6656 -0.9158 -0.9052
 1687TIP3   OH2 5066   2.957   2.202   4.948  0.1568  0.3055 -0.0164
 1687TIP3    H1 5067   2.942   2.126   5.004 -0.0251  0.1454 -0.2765
 1687TIP3    H2 5068   2.882   2.258   4.962 -2.1836 -1.6530 -3.2166
 1688TIP3   OH2 5069   0.263   5.068   4.582 -0.4950  0.1833  0.2644
 1688TIP3    H1 5070   0.321   5.001   4.616  0.3151  0.5632 -0.3139
 1688TIP3    H2 5071   0.314   5.149   4.588 -0.1549  0.2250 -2.0818
 1689TIP3   OH2 5072   4.777   4.871   4.124  0.6158  0.0647  0.8153
 1689TIP3    H1 5073   4.737   4.808   4.064 -1.8319  2.2171 -0.0095
 1689TIP3    H2 5074   4.793   4.821   4.205  3.1314 -2.6694 -1.1671
 1690TIP3   OH2 5075   1.394   2.865   2.025 -0.0682 -0.2570 -0.1162
 1690TIP3    H1 5076   1.446   2.808   2.082 -2.3051 -0.2441  2.1613
 1690TIP3    H2 5077   1.455   2.896   1.959  1.9550 -2.8381  0.3877
 1691TIP3   OH2 5078   2.436   0.512   1.760  0.7399 -1.2544 -0.1274
 1691TIP3    H1 5079   2.487   0.592   1.777  0.5585 -0.9900 -0.8164
 1691TIP3    H2 5080   2.413   0.518   1.668 -0.2641 -1.5385  0.1021
 1692TIP3   OH2 5081   2.801   0.697   2.581 -0.1347  0.5359 -0.0757
 1692TIP3    H1 5082   2.882   0.668   2.620 -0.6885  0.4923  1.0736
 1692TIP3    H2 5083   2.783   0.632   2.512  0.2988  0.0039  0.3046
 1693TIP3   OH2 5084   5.106   0.586   3.870 -0.1350 -0.2403  0.1192
 1693TIP3    H1 5085   5.095   0.547   3.783  2.2000 -0.3108 -0.2204
 1693TIP3    H2 5086   5.126   0.511   3.927 -1.0739 -0.1268  0.6106
 1694TIP3   OH2 5087   6.152   1.367   0.792  0.1427 -0.4444  0.0925
 1694TIP3    H1 5088   6.150   1.456   0.827  0.5360 -0.2934 -0.2656
 1694TIP3    H2 5089   6.092   1.318   0.849  0.6214 -0.1619  0.8517
 1695TIP3   OH2 5090   3.251   4.333   0.818  0.1162 -0.1754  0.0822
 1695TIP3    H1 5091   3.273   4.344   0.910 -1.3997  0.6348  0.3895
 1695TIP3    H2 5092   3.166   4.375   0.809  0.1956 -0.3200 -1.6790
 1696TIP3   OH2 5093   4.329   4.320   1.284 -0.3225  0.3642 -0.6155
 1696TIP3    H1 5094   4.294   4.271   1.358 -1.3433  2.9624  0.7206
 1696TIP3    H2 5095   4.380   4.390   1.323 -0.2633  1.3662 -2.3918
 1697TIP3   OH2 5096   0.062   0.123   2.796  0.1506 -0.2276  0.1640
 1697TIP3    H1 5097  -0.003   0.191   2.815 -0.3965 -0.3475 -1.1407
 1697TIP3    H2 5098   0.012   0.053   2.754  0.6315 -1.6512  1.8600
 1698TIP3   OH2 5099   3.216   4.663   4.490  0.7353  0.3976  0.8639
 1698TIP3    H1 5100   3.255   4.712   4.561  2.3084 -0.6083  0.7499
 1698TIP3    H2 5101   3.226   4.571   4.516 -0.8696  0.0589  0.4408
 1699TIP3   OH2 5102   5.137   3.932   2.400  0.2628 -0.4813  0.0874
 1699TIP3    H1 5103   5.149   3.887   2.317 -1.9550  1.0461 -1.1441
 1699TIP3    H2 5104   5.063   3.888   2.441 -0.1824  0.3092  0.1397
 1700TIP3   OH2 5105   2.448   2.207   4.565 -0.1057 -0.1375 -0.6323
 1700TIP3    H1 5106   2.479   2.288   4.524 -2.2024  1.0668  0.0186
 1700TIP3    H2 5107   2.528   2.162   4.592  1.1486  1.2769 -1.7942
 1701TIP3   OH2 5108   2.641   3.345   3.209  0.2498  0.1943  0.1866
 1701TIP3    H1 5109   2.644   3.252   3.187  0.9632 -0.0635  1.3060
 1701TIP3    H2 5110   2.547   3.365   3.214  0.0301  0.1602 -2.4383
 1702TIP3   OH2 5111   5.455   1.068   3.081 -0.1641 -0.2556  0.4267
 1702TIP3    H1 5112   5.445   0.980   3.117  0.3947 -0.6513 -0.3667
 1702TIP3    H2 5113   5.365   1.097   3.064 -0.3382 -0.7480  0.5000
 1703TIP3   OH2 5114   2.451   2.497   0.703  0.3739  0.3089 -0.0517
 1703TIP3    H1 5115   2.475   2.464   0.617 -0.2918  1.1500 -0.5725
 1703TIP3    H2 5116   2.368   2.454   0.723  1.6710 -1.7615  1.2723
 1704TIP3   OH2 5117   5.079   4.534   2.732 -0.0817  0.2968  0.2395
 1704TIP3    H1 5118   5.163   4.518   2.689 -0.1915  0.0744  0.1088
 1704TIP3    H2 5119   5.100   4.541   2.825 -0.3751 -3.4556  0.7192
 1705TIP3   OH2 5120   4.296   4.243   4.863 -0.2227 -0.3474  0.0783
 1705TIP3    H1 5121   4.359   4.307   4.893  0.6421 -0.6893 -0.9434
 1705TIP3    H2 5122   4.330   4.213   4.778  0.7676 -3.9193  1.5226
 1706TIP3   OH2 5123   2.204   3.094   2.301  0.2356 -0.0188  0.9026
 1706TIP3    H1 5124   2.289   3.063   2.269 -0.6800 -0.6360 -1.1141
 1706TIP3    H2 5125   2.144   3.023   2.280 -1.3474  1.6961 -0.7454
 1707TIP3   OH2 5126   3.225   3.569   0.351 -0.1605 -0.0604 -0.9201
 1707TIP3    H1 5127   3.148   3.550   0.297  0.2122 -0.1915 -1.4037
 1707TIP3    H2 5128   3.280   3.625   0.297  0.4161 -0.5447 -0.8422
 1708TIP3   OH2 5129   1.340   1.233   3.291 -0.3668 -0.1351 -0.0310
 1708TIP3    H1 5130   1.297   1.221   3.207 -2.4845  0.9896  0.8246
 1708TIP3    H2 5131   1.288   1.180   3.352  0.0643  0.4636  0.8740
 1709TIP3   OH2 5132   0.206   0.190   1.754  0.5053  0.1041  0.0976
 1709TIP3    H1 5133   0.168   0.277   1.768 -0.0260 -0.2077  0.6153
 1709TIP3    H2 5134   0.236   0.163   1.841 -0.6698 -0.8474  0.2166
 1710TIP3   OH2 5135   5.388   5.115   1.902  0.8679  0.1922 -0.0203
 1710TIP3    H1 5136   5.441   5.180   1.857  0.2235  0.3472 -0.5847
 1710TIP3    H2 5137   5.411   5.032   1.860  0.8961  0.2137 -0.0472
 1711TIP3   OH2 5138   0.062   1.673   2.490 -0.0994  0.1633  0.1352
 1711TIP3    H1 5139  -0.029   1.664   2.462 -0.4298 -0.6253  1.3782
 1711TIP3    H2 5140   0.062   1.749   2.548 -0.0349 -0.0480  0.4127
 1712TIP3   OH2 5141   5.473   3.056   3.904  0.2965 -0.1418 -0.2024
 1712TIP3    H1 5142   5.411   3.044   3.832 -1.8321  0.1600  1.4710
 1712TIP3    H2 5143   5.480   2.969   3.944  0.1069  0.0363  0.2317
 1713TIP3   OH2 5144   0.986   2.431   4.344 -0.8215  0.0888  0.0695
 1713TIP3    H1 5145   1.044   2.504   4.367 -1.3870  0.0162  1.9342
 1713TIP3    H2 5146   0.991   2.372   4.420 -0.8823 -1.5077 -1.1182
 1714TIP3   OH2 5147   5.404   1.442   2.063 -0.2614 -0.7294 -0.1581
 1714TIP3    H1 5148   5.310   1.452   2.080 -0.5609 -0.5893 -1.7696
 1714TIP3    H2 5149   5.443   1.437   2.151 -1.7521 -0.7380  0.5470
 1715TIP3   OH2 5150   6.210   1.867   3.223 -0.0435  0.1080 -0.7006
 1715TIP3    H1 5151   6.258   1.785   3.232  0.9131  0.7903  0.7319
 1715TIP3    H2 5152   6.148   1.867   3.296 -0.4243  0.4125 -1.0187
 1716TIP3   OH2 5153   2.308   0.752   1.026  0.0890  0.0813  0.0768
 1716TIP3    H1 5154   2.279   0.839   1.053 -0.0537 -0.3119  1.2431
 1716TIP3    H2 5155   2.371   0.726   1.093  0.8410 -0.3447 -0.7616
 1717TIP3   OH2 5156   3.810   1.263   0.245 -0.0118  0.4678  1.0620
 1717TIP3    H1 5157   3.870   1.233   0.177 -0.4495  1.6327  0.1332
 1717TIP3    H2 5158   3.824   1.203   0.318  1.3238 -0.0796  0.3769
 1718TIP3   OH2 5159   6.184   4.356   3.638 -0.5313  0.4073 -0.6074
 1718TIP3    H1 5160   6.224   4.276   3.669 -0.6733  0.0130 -1.4160
 1718TIP3    H2 5161   6.116   4.327   3.576 -0.5718  1.1443 -0.9234
 1719TIP3   OH2 5162   3.413   0.395   0.131 -0.0343 -0.5573  0.3377
 1719TIP3    H1 5163   3.382   0.318   0.082 -0.6701 -0.2228  0.2096
 1719TIP3    H2 5164   3.420   0.464   0.064 -0.9468 -0.0857  0.7203
 1720TIP3   OH2 5165   0.833   0.452   3.795 -0.9802  0.0447 -0.2017
 1720TIP3    H1 5166   0.803   0.540   3.768 -0.6039  0.4755  0.7545
 1720TIP3    H2 5167   0.829   0.453   3.890  1.4139 -0.1009 -0.0378
 1721TIP3   OH2 5168   4.833   1.261   0.962  0.1762 -0.0787 -0.0500
 1721TIP3    H1 5169   4.919   1.278   0.923  0.9353  0.9902  1.9402
 1721TIP3    H2 5170   4.776   1.328   0.923 -0.0334 -1.3116 -2.0151
 1722TIP3   OH2 5171   5.817   4.812   0.516 -0.9784 -0.8322 -0.4211
 1722TIP3    H1 5172   5.749   4.750   0.490 -1.0143  0.3372 -3.5725
 1722TIP3    H2 5173   5.782   4.898   0.493  0.3527  0.1003  0.8054
 1723TIP3   OH2 5174   3.519   5.432   3.631 -0.2620  0.1924  0.4158
 1723TIP3    H1 5175   3.480   5.518   3.620 -1.3714 -0.4161 -0.6254
 1723TIP3    H2 5176   3.468   5.374   3.574 -1.2733 -1.7031  3.0142
 1724TIP3   OH2 5177   0.677   1.921   1.843 -0.4673  0.0360  0.2750
 1724TIP3    H1 5178   0.605   1.973   1.878 -0.1839 -0.7822  2.2273
 1724TIP3    H2 5179   0.750   1.938   1.903  0.1879 -1.1099 -0.1672
 1725TIP3   OH2 5180   6.033   3.419   3.173 -0.1598  0.0622 -0.4769
 1725TIP3    H1 5181   6.089   3.497   3.176 -0.1580  0.0847 -1.0970
 1725TIP3    H2 5182   5.979   3.426   3.252 -0.5617  0.9924 -0.8218
 1726TIP3   OH2 5183   5.728   2.185   2.144  0.5184  0.0623 -0.2650
 1726TIP3    H1 5184   5.677   2.182   2.062 -0.3326 -1.3197  0.2901
 1726TIP3    H2 5185   5.819   2.186   2.115  0.2347 -0.6163 -1.2312
 1727TIP3   OH2 5186   4.343   3.762   4.862  0.3535  0.0799  0.3631
 1727TIP3    H1 5187   4.252   3.771   4.892  0.2812  0.1336  0.1357
 1727TIP3    H2 5188   4.338   3.701   4.789  0.7479 -1.2579  1.4220
 1728TIP3   OH2 5189   5.073   3.650   3.340 -0.0265 -0.4869 -0.5382
 1728TIP3    H1 5190   5.095   3.731   3.292 -0.0566 -0.2187 -0.1056
 1728TIP3    H2 5191   5.134   3.649   3.414  1.7053 -2.1580 -1.8749
 1729TIP3   OH2 5192   3.332   2.457   2.061  0.0882  0.4677 -0.3907
 1729TIP3    H1 5193   3.311   2.541   2.020  2.5224  0.4238 -1.8961
 1729TIP3    H2 5194   3.425   2.463   2.083  0.1646 -1.5870  0.0945
 1730TIP3   OH2 5195   0.808   0.688   1.024  0.0271  0.0691 -0.2671
 1730TIP3    H1 5196   0.767   0.688   1.111 -0.8757 -0.5096 -0.6797
 1730TIP3    H2 5197   0.872   0.616   1.027  0.9152  0.8533  0.3157
 1731TIP3   OH2 5198   5.454   0.708   1.191  0.0338 -0.4923  0.0244
 1731TIP3    H1 5199   5.486   0.798   1.180  0.7137 -0.7781 -0.4038
 1731TIP3    H2 5200   5.485   0.683   1.278  1.1530 -0.8176 -0.4433
 1732TIP3   OH2 5201   2.813   0.624   1.162  0.0773  0.4399  0.0036
 1732TIP3    H1 5202   2.858   0.633   1.078  0.7341  0.5278  0.3593
 1732TIP3    H2 5203   2.784   0.533   1.163  0.2787  0.3700 -0.2195
 1733TIP3   OH2 5204   5.308   4.422   1.695  0.3314  0.3739  0.2147
 1733TIP3    H1 5205   5.298   4.513   1.725  2.0990  0.7132 -0.0881
 1733TIP3    H2 5206   5.326   4.430   1.602 -0.8745 -0.4027 -0.1034
 1734TIP3   OH2 5207   3.411   4.102   4.573  0.0346 -0.4121  0.3502
 1734TIP3    H1 5208   3.462   4.155   4.634 -0.2277 -1.4160  1.4830
 1734TIP3    H2 5209   3.405   4.156   4.494 -0.4027  1.3381  1.5144
 1735TIP3   OH2 5210   4.336   3.934   0.350  0.6825  0.0640 -0.1910
 1735TIP3    H1 5211   4.341   3.843   0.323  0.2377 -0.2144  0.6405
 1735TIP3    H2 5212   4.376   3.935   0.438 -0.4642  0.4350  0.3396
 1736TIP3   OH2 5213   5.711   2.048   0.556 -0.7959  0.1474  0.2814
 1736TIP3    H1 5214   5.707   2.120   0.494 -1.9780 -0.3499 -0.2384
 1736TIP3    H2 5215   5.658   2.077   0.630 -0.7004  0.0888  0.3737
 1737TIP3   OH2 5216   0.369   0.223   4.229 -0.2086  0.1771  0.0376
 1737TIP3    H1 5217   0.430   0.190   4.294 -0.9379  0.6609  0.9950
 1737TIP3    H2 5218   0.303   0.272   4.279 -0.4853  1.0479 -1.1040
 1738TIP3   OH2 5219   2.527   2.232   2.739  0.4527 -0.0811 -0.4053
 1738TIP3    H1 5220   2.433   2.247   2.731  0.7123  1.8311 -0.4190
 1738TIP3    H2 5221   2.555   2.214   2.649  0.1541 -0.2571 -0.4658
 1739TIP3   OH2 5222   5.784   3.768   2.689 -0.5227  0.1483 -0.2177
 1739TIP3    H1 5223   5.748   3.726   2.766 -0.8235  2.3397  0.9144
 1739TIP3    H2 5224   5.879   3.759   2.699 -0.5914 -1.0619 -0.5076
 1740TIP3   OH2 5225   3.438   4.927   4.556 -0.2287 -0.1713 -0.4611
 1740TIP3    H1 5226   3.447   4.864   4.627  0.3647  0.1641 -0.2298
 1740TIP3    H2 5227   3.389   5.000   4.594 -0.0329 -0.0534 -0.4312
 1741TIP3   OH2 5228   4.954   3.377   5.101  0.2038 -0.2293 -0.0747
 1741TIP3    H1 5229   4.896   3.408   5.171  0.2637  0.0993 -0.1693
 1741TIP3    H2 5230   5.031   3.343   5.146  1.5195  2.5330 -0.0401
 1742TIP3   OH2 5231   0.913   2.376   3.626 -0.2658 -0.7264 -0.9231
 1742TIP3    H1 5232   0.901   2.470   3.641 -0.4720 -0.6696 -1.4429
 1742TIP3    H2 5233   0.886   2.335   3.709  3.4254 -0.1294  0.7899
 1743TIP3   OH2 5234   2.471   3.010   2.207 -0.1775  0.8989 -0.0233
 1743TIP3    H1 5235   2.478   2.924   2.165 -0.7910  1.1514 -0.6475
 1743TIP3    H2 5236   2.515   3.070   2.147  0.0632  1.0612  0.3123
 1744TIP3   OH2 5237   0.260   4.191   2.296  0.1280  0.1270 -0.2682
 1744TIP3    H1 5238   0.198   4.118   2.302 -0.5520  0.6764 -0.4076
 1744TIP3    H2 5239   0.221   4.259   2.350  1.8095 -0.3157  1.6235
 1745TIP3   OH2 5240   4.448   5.796   4.773 -0.1906  0.1826 -0.5220
 1745TIP3    H1 5241   4.379   5.737   4.741 -0.3966 -0.3175  0.7787
 1745TIP3    H2 5242   4.400   5.873   4.804  0.0365  0.8255 -1.7018
 1746TIP3   OH2 5243   1.477   3.281   1.933  0.2717 -0.2552 -0.2477
 1746TIP3    H1 5244   1.486   3.372   1.960 -0.3620 -0.2729  0.0638
 1746TIP3    H2 5245   1.382   3.266   1.932  0.3729 -0.9560 -0.1295
 1747TIP3   OH2 5246   3.770   1.795   2.222  0.1514  0.2049 -0.2319
 1747TIP3    H1 5247   3.802   1.776   2.133  1.0308 -1.7406  0.4523
 1747TIP3    H2 5248   3.843   1.841   2.264  1.0147 -1.6862  0.4302
 1748TIP3   OH2 5249   0.074   1.553   4.368  0.0498 -0.1623 -0.0080
 1748TIP3    H1 5250   0.156   1.593   4.338 -0.5263  0.8128 -0.3119
 1748TIP3    H2 5251   0.101   1.468   4.403  1.0272 -0.3936 -1.2580
 1749TIP3   OH2 5252   1.078   0.638   3.294 -0.3459 -0.1172  0.3359
 1749TIP3    H1 5253   1.004   0.615   3.240  0.2652 -0.5355 -0.3363
 1749TIP3    H2 5254   1.146   0.574   3.272 -0.3726 -0.8732  2.2438
 1750TIP3   OH2 5255   3.979   0.075   5.180  0.0007 -0.1316 -0.7528
 1750TIP3    H1 5256   3.979   0.152   5.122 -0.2307 -0.8681 -1.7499
 1750TIP3    H2 5257   3.892   0.077   5.221 -1.0416 -1.2483 -2.7262
 1751TIP3   OH2 5258   3.190   0.999   4.962 -0.3213  0.2998  0.1277
 1751TIP3    H1 5259   3.182   1.006   4.867 -0.4326 -1.1196  0.0085
 1751TIP3    H2 5260   3.270   0.949   4.976 -2.4384 -3.3670  0.5403
 1752TIP3   OH2 5261   4.830   0.400   0.333 -0.1683  0.6310 -0.7441
 1752TIP3    H1 5262   4.866   0.426   0.418 -0.2876  0.1288 -0.5375
 1752TIP3    H2 5263   4.737   0.388   0.349 -0.3113  1.2197 -1.1111
 1753TIP3   OH2 5264   5.557   0.853   2.417  0.3589  0.0931  0.3870
 1753TIP3    H1 5265   5.529   0.797   2.344  0.2388 -1.6163  1.6654
 1753TIP3    H2 5266   5.648   0.826   2.433 -0.4513 -1.6483  2.6055
 1754TIP3   OH2 5267   5.800   1.969   1.409 -0.4911  0.3919 -0.3619
 1754TIP3    H1 5268   5.732   1.924   1.359 -1.1199  0.5499  0.3353
 1754TIP3    H2 5269   5.756   2.046   1.444  0.3002  0.9951 -0.6704
 1755TIP3   OH2 5270   1.078   3.066   2.078  0.3676  0.1606 -0.3182
 1755TIP3    H1 5271   1.101   2.995   2.017  2.5162  1.5100 -1.1999
 1755TIP3    H2 5272   1.158   3.080   2.129 -0.7926  0.3877  1.5144
 1756TIP3   OH2 5273   5.281   2.678   1.690  0.3366 -0.6896 -0.3555
 1756TIP3    H1 5274   5.273   2.636   1.605  0.3616  1.1478 -1.3175
 1756TIP3    H2 5275   5.219   2.751   1.687 -0.1725 -0.9915  1.4823
 1757TIP3   OH2 5276   5.753   3.444   1.736 -0.2340  0.2303  0.3410
 1757TIP3    H1 5277   5.693   3.476   1.803 -0.4264  1.1532 -0.2624
 1757TIP3    H2 5278   5.824   3.508   1.734 -0.5648  0.5877 -0.7913
 1758TIP3   OH2 5279   3.836   6.018   3.491  0.1083  0.0442 -0.1327
 1758TIP3    H1 5280   3.922   5.986   3.463 -0.4916 -0.6515 -1.2501
 1758TIP3    H2 5281   3.794   5.942   3.531 -0.3593  0.1090 -0.4922
 1759TIP3   OH2 5282   0.201   0.357   3.441  0.2589 -0.0882  0.0723
 1759TIP3    H1 5283   0.223   0.432   3.497 -0.6050 -0.0883  0.4231
 1759TIP3    H2 5284   0.169   0.397   3.360  0.3415 -0.0856  0.0404
 1760TIP3   OH2 5285   5.251   3.913   3.515  0.0942 -0.0143 -0.4348
 1760TIP3    H1 5286   5.249   3.964   3.434  1.4695  0.8462  0.0415
 1760TIP3    H2 5287   5.286   3.828   3.489  0.2617  0.1622 -0.7881
 1761TIP3   OH2 5288   3.411   3.228   4.596  0.4474 -0.1293  0.2157
 1761TIP3    H1 5289   3.380   3.155   4.542  1.2957 -0.9469  0.7986
 1761TIP3    H2 5290   3.448   3.290   4.533  1.2974 -1.0005 -0.1756
 1762TIP3   OH2 5291   3.362   2.101   4.719  0.4111 -0.3126  0.3388
 1762TIP3    H1 5292   3.270   2.101   4.693  0.1498 -0.6607  1.2203
 1762TIP3    H2 5293   3.378   2.012   4.749  1.1910 -0.3962 -0.3055
 1763TIP3   OH2 5294   4.182   3.271   1.918  0.0047  0.1678  0.0562
 1763TIP3    H1 5295   4.243   3.322   1.864  0.7208 -1.6526 -0.9232
 1763TIP3    H2 5296   4.100   3.273   1.870 -0.5771  1.9918  1.0089
 1764TIP3   OH2 5297   4.000   2.050   5.116  0.3062  0.4321  0.5256
 1764TIP3    H1 5298   4.079   2.081   5.072  1.0545  0.1855  1.6662
 1764TIP3    H2 5299   3.952   2.002   5.049  0.5016  1.6272 -0.5142
 1765TIP3   OH2 5300   5.397   3.297   2.346  0.2270  0.5051  0.0469
 1765TIP3    H1 5301   5.393   3.204   2.322 -0.8418  0.5773 -0.0635
 1765TIP3    H2 5302   5.446   3.298   2.428 -0.3086 -0.2240  0.3829
 1766TIP3   OH2 5303   5.316   3.981   3.821  0.7946  0.2955  0.3150
 1766TIP3    H1 5304   5.283   4.024   3.742  1.6860  0.8143  0.1996
 1766TIP3    H2 5305   5.356   4.052   3.871  2.7127 -0.4252 -0.0872
 1767TIP3   OH2 5306   2.011   4.566   0.637  0.2126 -0.2918 -0.2721
 1767TIP3    H1 5307   1.969   4.511   0.703 -1.4066  0.2398 -0.8026
 1767TIP3    H2 5308   1.976   4.654   0.654  0.2834 -0.0295 -1.4163
 1768TIP3   OH2 5309   2.643   4.686   3.850 -0.1380 -0.4240  0.4975
 1768TIP3    H1 5310   2.668   4.670   3.941  1.9335 -1.4863 -0.1768
 1768TIP3    H2 5311   2.656   4.780   3.837 -4.2141  0.5872  2.2468
 1769TIP3   OH2 5312   3.378   1.748   3.109 -0.5727 -0.4315  0.5368
 1769TIP3    H1 5313   3.365   1.665   3.063 -2.4887 -0.9824  1.9519
 1769TIP3    H2 5314   3.444   1.728   3.176 -2.6132 -1.4945  2.3284
 1770TIP3   OH2 5315   1.716   1.551   2.562  0.0603  0.4128  0.5048
 1770TIP3    H1 5316   1.791   1.497   2.587  0.3204 -0.0375 -1.1203
 1770TIP3    H2 5317   1.707   1.615   2.633  2.9836  1.4862  0.0481
 1771TIP3   OH2 5318   3.260   1.569   0.609  0.2594  0.1024  0.2742
 1771TIP3    H1 5319   3.184   1.602   0.658 -0.3555 -1.0145  0.1093
 1771TIP3    H2 5320   3.228   1.491   0.565  1.3327  0.0035 -0.3669
 1772TIP3   OH2 5321   1.197   1.015   1.419  0.0927  0.6713 -0.9224
 1772TIP3    H1 5322   1.107   1.038   1.395 -1.1515 -0.1243  2.4451
 1772TIP3    H2 5323   1.228   1.091   1.469  0.9279  0.5106 -1.1844
 1773TIP3   OH2 5324   4.343   3.113   0.813  0.3247  0.7190  0.0090
 1773TIP3    H1 5325   4.391   3.192   0.788  1.1772  0.9013  2.0569
 1773TIP3    H2 5326   4.394   3.041   0.775 -0.0107  1.0782 -1.1727
 1774TIP3   OH2 5327   2.906   3.571   0.752  0.1293 -0.1351  0.8436
 1774TIP3    H1 5328   2.886   3.522   0.672  0.1274 -1.0159  1.3788
 1774TIP3    H2 5329   2.948   3.651   0.720  0.0420 -0.4286 -0.0479
 1775TIP3   OH2 5330   4.231   5.589   4.741  0.1165  0.0161 -0.0332
 1775TIP3    H1 5331   4.143   5.595   4.778 -0.0876  0.5914 -0.6029
 1775TIP3    H2 5332   4.285   5.557   4.814 -0.2883  1.0929  0.7710
 1776TIP3   OH2 5333   5.104   1.017   4.288 -0.5715 -0.2701 -0.4336
 1776TIP3    H1 5334   5.144   1.046   4.370 -0.8445 -1.3847  0.1125
 1776TIP3    H2 5335   5.013   1.047   4.294  0.2255  3.0950 -2.0805
 1777TIP3   OH2 5336   4.960   4.033   1.134  0.0303  0.5300  0.1787
 1777TIP3    H1 5337   5.052   4.007   1.122 -0.6129 -0.6834 -3.6857
 1777TIP3    H2 5338   4.953   4.115   1.085 -1.0383  0.3714  0.0475
 1778TIP3   OH2 5339   1.225   3.848   5.139  0.1090 -0.4101  0.2812
 1778TIP3    H1 5340   1.236   3.929   5.189 -0.3069 -0.9190  1.2329
 1778TIP3    H2 5341   1.138   3.855   5.100  0.7309  0.3193 -1.0251
 1779TIP3   OH2 5342   4.945   2.097   3.166 -0.2316 -0.0853 -0.0294
 1779TIP3    H1 5343   4.881   2.168   3.165  2.0268  2.0946 -1.0608
 1779TIP3    H2 5344   5.008   2.120   3.098  0.9911 -2.7670  0.0488
 1780TIP3   OH2 5345   0.104   0.692   2.073 -0.4288 -0.0144  0.0457
 1780TIP3    H1 5346   0.029   0.668   2.019  0.4678 -2.2628 -0.3070
 1780TIP3    H2 5347   0.093   0.641   2.153 -0.0856  0.8838  0.6884
 1781TIP3   OH2 5348   5.068   0.243   4.080  0.5007 -0.0100  0.0830
 1781TIP3    H1 5349   5.021   0.311   4.128 -0.6600  0.4960 -1.6797
 1781TIP3    H2 5350   5.060   0.165   4.136 -0.6464  0.5842  0.8001
 1782TIP3   OH2 5351   5.792   0.415   2.365 -0.5670  0.4214 -0.1671
 1782TIP3    H1 5352   5.713   0.367   2.341 -1.3679  1.2920  0.6663
 1782TIP3    H2 5353   5.794   0.489   2.305 -0.0025  0.0495 -0.6266
 1783TIP3   OH2 5354   0.563   1.264   0.745 -0.0226 -0.1984 -0.3790
 1783TIP3    H1 5355   0.562   1.188   0.803 -1.1731 -0.2273 -0.4105
 1783TIP3    H2 5356   0.602   1.334   0.797 -0.8196 -0.2861  0.3546
 1784TIP3   OH2 5357   4.247   1.317   0.454  0.2110  0.1276 -0.3975
 1784TIP3    H1 5358   4.280   1.392   0.405 -2.0978 -0.4664 -3.1166
 1784TIP3    H2 5359   4.186   1.356   0.517 -1.3599  0.6015 -2.1236
 1785TIP3   OH2 5360   3.359   1.543   2.295 -0.2844  0.0744 -0.3053
 1785TIP3    H1 5361   3.337   1.613   2.233  0.1719 -0.2036 -0.7820
 1785TIP3    H2 5362   3.313   1.568   2.375 -0.1903  0.8812 -0.4938
 1786TIP3   OH2 5363   0.087   5.894   5.065  0.0074  0.1106  0.5613
 1786TIP3    H1 5364   0.060   5.810   5.103  0.0537  0.5680  1.6316
 1786TIP3    H2 5365   0.005   5.938   5.044 -0.0486 -1.1083 -2.1602
 1787TIP3   OH2 5366   3.227   5.435   4.345 -0.3414 -0.8636  0.1382
 1787TIP3    H1 5367   3.297   5.382   4.307 -0.5041 -1.7497  1.0560
 1787TIP3    H2 5368   3.193   5.485   4.271 -0.7016 -2.6084 -0.9226
 1788TIP3   OH2 5369   2.763   4.928   5.015 -0.1052  0.5093  0.3220
 1788TIP3    H1 5370   2.770   4.965   4.927  1.1131 -1.7591 -0.6291
 1788TIP3    H2 5371   2.853   4.909   5.040 -0.5406 -0.0285  1.5661
 1789TIP3   OH2 5372   6.069   3.195   1.357  0.3662  0.5341 -0.1352
 1789TIP3    H1 5373   6.152   3.151   1.336  0.0535  0.1203 -0.5166
 1789TIP3    H2 5374   6.088   3.244   1.437  0.3856 -1.3515  1.0858
 1790TIP3   OH2 5375   4.373   5.657   2.416  0.5615 -0.6416 -0.4573
 1790TIP3    H1 5376   4.328   5.734   2.451  0.7562 -0.4610 -0.6093
 1790TIP3    H2 5377   4.327   5.637   2.335  0.5559 -0.6460 -0.4531
 1791TIP3   OH2 5378   0.465   0.746   3.666 -0.2988  0.2076  0.6410
 1791TIP3    H1 5379   0.383   0.733   3.619  0.0710  0.4297 -0.0876
 1791TIP3    H2 5380   0.493   0.834   3.643  0.2197  0.0800  0.7570
 1792TIP3   OH2 5381   5.064   0.578   4.185 -0.0796 -0.1325 -0.4754
 1792TIP3    H1 5382   4.970   0.595   4.177 -0.2231  0.3016  1.4444
 1792TIP3    H2 5383   5.070   0.502   4.243  0.7555 -0.9037 -1.5286
 1793TIP3   OH2 5384   5.146   4.749   4.476 -0.3125 -0.1524  0.5287
 1793TIP3    H1 5385   5.088   4.788   4.542 -0.6365 -0.7592  0.6057
 1793TIP3    H2 5386   5.112   4.661   4.463  0.4248 -0.4177  0.3619
 1794TIP3   OH2 5387   6.275   1.760   3.685 -0.2693  0.2427 -0.3526
 1794TIP3    H1 5388   6.196   1.804   3.719 -0.5902 -1.1178  0.7540
 1794TIP3    H2 5389   6.241   1.697   3.621 -0.3161 -1.4755  1.2638
 1795TIP3   OH2 5390   3.176   2.076   3.732 -0.0584  0.0539 -0.7528
 1795TIP3    H1 5391   3.224   2.043   3.656  1.9946  0.9524  0.0804
 1795TIP3    H2 5392   3.085   2.081   3.703  0.7122  0.7162 -3.2730
 1796TIP3   OH2 5393   1.382   5.537   3.546  0.0697  0.3749  0.4490
 1796TIP3    H1 5394   1.292   5.512   3.566 -0.2628  2.3341  1.6736
 1796TIP3    H2 5395   1.379   5.564   3.454 -0.7494  0.9145  0.6194
 1797TIP3   OH2 5396   3.663   2.334   2.703  0.1428 -0.2968 -0.1485
 1797TIP3    H1 5397   3.570   2.322   2.722  0.2362 -0.1255  0.4359
 1797TIP3    H2 5398   3.690   2.252   2.662  0.0155 -0.8363  0.8162
 1798TIP3   OH2 5399   4.329   5.568   0.204  0.1594  0.3058 -0.7034
 1798TIP3    H1 5400   4.286   5.484   0.187  0.3642  0.0605 -0.0552
 1798TIP3    H2 5401   4.350   5.565   0.297  5.1599 -1.3815 -1.5573
 1799TIP3   OH2 5402   5.703   2.856   1.558 -1.1323 -0.2358 -0.3993
 1799TIP3    H1 5403   5.742   2.771   1.580 -1.7681 -0.3878  0.1827
 1799TIP3    H2 5404   5.726   2.913   1.632 -2.9497 -0.6385  0.5273
 1800TIP3   OH2 5405   0.059   3.477   1.847  0.0480 -0.4980 -0.0528
 1800TIP3    H1 5406   0.112   3.443   1.774  0.2343 -1.1882  0.3966
 1800TIP3    H2 5407   0.050   3.571   1.828 -0.7472 -0.8471 -1.4841
 1801TIP3   OH2 5408   3.333   3.054   3.858 -0.0865  0.3238  0.3462
 1801TIP3    H1 5409   3.287   3.135   3.836 -0.6647  0.9382  3.3682
 1801TIP3    H2 5410   3.269   3.002   3.905  1.1552 -0.5806  1.1035
 1802TIP3   OH2 5411   2.699   3.689   2.070  0.4724  0.1794  0.4524
 1802TIP3    H1 5412   2.766   3.714   2.007  0.9346 -1.4739  0.2503
 1802TIP3    H2 5413   2.646   3.768   2.081  0.1404  0.4413 -2.2886
 1803TIP3   OH2 5414   6.039   4.163   4.255  0.1559  0.4637 -0.3272
 1803TIP3    H1 5415   5.972   4.215   4.300 -0.8716 -1.4180  0.4456
 1803TIP3    H2 5416   6.111   4.157   4.317 -0.0421  0.3280 -0.1103
 1804TIP3   OH2 5417   0.418   3.671   1.450 -0.1079 -0.2788  0.1419
 1804TIP3    H1 5418   0.339   3.688   1.397 -1.3483 -0.9659  1.6926
 1804TIP3    H2 5419   0.489   3.668   1.386 -1.5676 -1.2968 -1.5380
 1805TIP3   OH2 5420   5.747   5.426   2.821 -0.3798  0.6773 -0.0914
 1805TIP3    H1 5421   5.740   5.518   2.847  1.1624  0.2779  2.0234
 1805TIP3    H2 5422   5.743   5.428   2.726 -1.1874  2.8473 -0.0740
 1806TIP3   OH2 5423   1.501   0.452   3.672 -0.5563 -0.2006 -0.0730
 1806TIP3    H1 5424   1.578   0.440   3.728 -1.6578  0.7594  1.7301
 1806TIP3    H2 5425   1.466   0.364   3.661 -1.2652 -0.2528  2.2005
 1807TIP3   OH2 5426   4.853   1.693   0.124 -0.2090 -0.2748  0.0695
 1807TIP3    H1 5427   4.942   1.725   0.109 -0.6511  1.0761  0.1316
 1807TIP3    H2 5428   4.863   1.600   0.143  1.2260 -0.0489  0.5124
 1808TIP3   OH2 5429   0.537   2.021   3.946 -0.8530 -0.1205 -0.1665
 1808TIP3    H1 5430   0.528   1.963   3.870 -1.6213  0.6603 -0.6785
 1808TIP3    H2 5431   0.450   2.023   3.985 -0.4164 -0.6927  0.8901
 1809TIP3   OH2 5432   5.452   3.260   2.678 -0.1104  0.3070 -0.2676
 1809TIP3    H1 5433   5.399   3.298   2.747 -3.2471 -1.3514 -1.5829
 1809TIP3    H2 5434   5.538   3.247   2.718 -1.3118  0.9711  2.7348
 1810TIP3   OH2 5435   4.345   5.904   1.833 -0.6687 -0.2696 -0.3192
 1810TIP3    H1 5436   4.367   5.967   1.764 -0.5455 -0.0084 -0.0463
 1810TIP3    H2 5437   4.395   5.826   1.810  0.6430  0.3424  0.3326
 1811TIP3   OH2 5438   3.573   4.999   1.398 -0.0058  0.6068  0.1560
 1811TIP3    H1 5439   3.524   5.033   1.323  0.0763  0.1753 -0.0926
 1811TIP3    H2 5440   3.622   5.075   1.431 -1.2195  1.1796  0.7288
 1812TIP3   OH2 5441   2.005   5.801   4.729 -0.9392  0.4009 -0.3473
 1812TIP3    H1 5442   2.035   5.877   4.680  0.5448  0.0829  0.0195
 1812TIP3    H2 5443   1.934   5.834   4.784  0.9257  2.0159  1.2498
 1813TIP3   OH2 5444   5.878   1.052   2.239  0.1146 -0.0491  0.7765
 1813TIP3    H1 5445   5.969   1.070   2.217 -0.2290  0.9008  0.0455
 1813TIP3    H2 5446   5.834   1.136   2.227 -1.3102 -1.0111 -1.2799
 1814TIP3   OH2 5447   3.814   3.983   4.425 -0.4188  1.2300  0.0606
 1814TIP3    H1 5448   3.889   3.927   4.407 -1.3471 -0.1473  0.3337
 1814TIP3    H2 5449   3.824   4.008   4.517 -0.6342  0.5202  0.2766
 1815TIP3   OH2 5450   0.857   3.625   4.665 -0.1470 -0.4035  0.2213
 1815TIP3    H1 5451   0.809   3.584   4.594  0.3344  0.4392 -0.6189
 1815TIP3    H2 5452   0.949   3.608   4.645 -0.0098 -0.3896  0.7991
 1816TIP3   OH2 5453   1.865   5.716   4.516 -0.4695 -0.7236  0.2720
 1816TIP3    H1 5454   1.919   5.751   4.586 -1.1735 -0.6665  0.7933
 1816TIP3    H2 5455   1.836   5.630   4.547  0.5079 -1.3953 -0.6223
 1817TIP3   OH2 5456   4.635   0.012   4.424 -0.3829 -0.2356 -0.7655
 1817TIP3    H1 5457   4.700  -0.057   4.419  0.1521  0.2735 -0.9079
 1817TIP3    H2 5458   4.665   0.079   4.363 -0.2430  0.6640  0.2592
 1818TIP3   OH2 5459   1.065   3.178   3.255  0.1206  0.1889 -0.5251
 1818TIP3    H1 5460   0.996   3.207   3.196 -2.6612  2.1185  3.2749
 1818TIP3    H2 5461   1.047   3.085   3.269 -0.8734  0.3491 -0.6517
 1819TIP3   OH2 5462   0.063   2.350   0.107 -0.1265  0.4321 -0.4987
 1819TIP3    H1 5463   0.060   2.337   0.012 -0.9060  0.9878 -0.5572
 1819TIP3    H2 5464  -0.026   2.378   0.130 -0.3613 -1.0888  0.5993
 1820TIP3   OH2 5465   5.215   3.581   0.313 -0.0951 -0.2220 -0.2132
 1820TIP3    H1 5466   5.237   3.606   0.403 -0.4461 -2.2735  0.4987
 1820TIP3    H2 5467   5.142   3.520   0.323 -1.1092  0.6257 -2.0172
 1821TIP3   OH2 5468   1.319   2.975   0.866  0.1399 -0.1664  0.2452
 1821TIP3    H1 5469   1.287   3.064   0.852  0.8010  0.2549  1.3050
 1821TIP3    H2 5470   1.335   2.969   0.960  1.6980 -0.8410 -0.0259
 1822TIP3   OH2 5471   1.406   2.249   3.675  0.2349 -0.2065 -0.0269
 1822TIP3    H1 5472   1.441   2.245   3.763 -0.1974 -0.3596  0.1430
 1822TIP3    H2 5473   1.380   2.340   3.663  2.0413  0.2510 -0.6981
 1823TIP3   OH2 5474   1.136   1.526   1.065 -0.4294 -0.4729 -0.6298
 1823TIP3    H1 5475   1.215   1.474   1.078  1.1812  2.1531  0.6919
 1823TIP3    H2 5476   1.132   1.540   0.970  1.8702  0.9906 -0.5835
 1824TIP3   OH2 5477   1.537   0.570   0.480 -0.6821  0.2542  0.2958
 1824TIP3    H1 5478   1.480   0.573   0.404  0.7759  0.5180 -0.8323
 1824TIP3    H2 5479   1.588   0.490   0.470  0.2457  0.8104  0.4329
 1825TIP3   OH2 5480   4.678   1.578   1.791 -0.0283 -0.2725 -0.0913
 1825TIP3    H1 5481   4.634   1.650   1.836 -0.8672 -0.6120 -0.3489
 1825TIP3    H2 5482   4.629   1.568   1.709  1.0114 -0.1460 -0.7441
 1826TIP3   OH2 5483   0.214   0.490   3.866 -0.5294  0.1704  0.5764
 1826TIP3    H1 5484   0.293   0.448   3.902  1.1273  3.0991  0.7495
 1826TIP3    H2 5485   0.187   0.552   3.934 -0.6432  1.9159 -0.9588
 1827TIP3   OH2 5486   0.877   3.287   4.057 -0.3099 -0.6331 -0.2969
 1827TIP3    H1 5487   0.907   3.206   4.013 -0.5417 -0.0515 -1.5809
 1827TIP3    H2 5488   0.861   3.348   3.985 -0.5751  0.4198  0.6353
 1828TIP3   OH2 5489   3.157   1.247   0.223  0.1984 -0.5196 -0.4271
 1828TIP3    H1 5490   3.211   1.186   0.272 -1.1066 -1.3658  0.0147
 1828TIP3    H2 5491   3.185   1.237   0.132  2.5836  1.0038  0.0661
 1829TIP3   OH2 5492   2.839   5.654   0.934 -0.2947 -0.3206 -0.5653
 1829TIP3    H1 5493   2.930   5.625   0.940 -0.9382 -2.2078  1.8068
 1829TIP3    H2 5494   2.789   5.575   0.914 -1.7249 -0.2444  2.1259
 1830TIP3   OH2 5495   2.772   5.763   0.525 -0.1050  0.3032 -0.1063
 1830TIP3    H1 5496   2.724   5.711   0.461  0.5796 -1.2817  0.6063
 1830TIP3    H2 5497   2.813   5.833   0.474 -1.7564  0.7010 -0.9572
 1831TIP3   OH2 5498   3.648   1.605   4.768 -0.3514  0.1780  0.1684
 1831TIP3    H1 5499   3.594   1.596   4.690 -1.0778  1.2323  0.5305
 1831TIP3    H2 5500   3.602   1.552   4.834 -0.6891  0.6930  0.3484
 1832TIP3   OH2 5501   0.707   2.491   2.318 -0.0614  0.0904 -0.6676
 1832TIP3    H1 5502   0.722   2.470   2.226  3.1208 -2.1107  0.2054
 1832TIP3    H2 5503   0.732   2.583   2.326 -0.5208  0.3553 -1.9812
 1833TIP3   OH2 5504   1.369   2.903   1.137 -0.0251  0.4658  0.5288
 1833TIP3    H1 5505   1.367   2.938   1.225 -0.1350 -0.6210  0.9817
 1833TIP3    H2 5506   1.404   2.814   1.147  0.0742  0.3620 -0.5325
 1834TIP3   OH2 5507   4.395   4.140   1.493 -0.1827 -0.3949 -0.6731
 1834TIP3    H1 5508   4.347   4.169   1.570  0.1193 -0.3736 -0.4906
 1834TIP3    H2 5509   4.485   4.168   1.509  0.0063 -0.9297 -0.7481
 1835TIP3   OH2 5510   5.284   5.982   1.610 -0.8604 -0.0528  0.3843
 1835TIP3    H1 5511   5.255   5.992   1.701 -0.1743  2.3346  0.4192
 1835TIP3    H2 5512   5.215   5.930   1.568 -1.0940 -1.3457  2.2828
 1836TIP3   OH2 5513   2.251   1.953   1.479 -0.3729  0.3338 -0.3947
 1836TIP3    H1 5514   2.210   2.039   1.470 -0.3845  0.6300  1.8917
 1836TIP3    H2 5515   2.294   1.956   1.565 -0.3401 -1.9426 -0.2800
 1837TIP3   OH2 5516   0.536   0.427   0.862  0.2100  0.2243 -0.5208
 1837TIP3    H1 5517   0.505   0.486   0.793 -0.2901 -0.3362 -0.7862
 1837TIP3    H2 5518   0.484   0.450   0.939 -0.4436 -0.2896 -0.7973
 1838TIP3   OH2 5519   3.859   4.134   3.519  0.0506 -0.0411  0.2921
 1838TIP3    H1 5520   3.813   4.073   3.462  0.9752 -0.5345  0.0563
 1838TIP3    H2 5521   3.934   4.084   3.552  2.8443  1.8807 -2.5725
 1839TIP3   OH2 5522   2.141   1.960   3.165 -0.1280  0.1726 -0.7065
 1839TIP3    H1 5523   2.102   1.942   3.251 -0.1822  2.3915 -0.2080
 1839TIP3    H2 5524   2.217   1.901   3.161  0.3727  0.5959  1.2364
 1840TIP3   OH2 5525   2.307   1.087   5.092  0.3396 -0.5650 -0.1256
 1840TIP3    H1 5526   2.401   1.107   5.093  0.6126 -1.7054 -1.0246
 1840TIP3    H2 5527   2.303   0.992   5.105 -0.6403 -0.6712 -1.0873
 1841TIP3   OH2 5528   5.689   4.430   2.362  0.0149 -0.2509  0.1401
 1841TIP3    H1 5529   5.656   4.351   2.317 -0.2095 -0.0161 -0.1107
 1841TIP3    H2 5530   5.631   4.500   2.332  0.4569  0.0822  0.0594
 1842TIP3   OH2 5531   4.557   1.710   2.546 -1.0485 -0.2063 -0.0612
 1842TIP3    H1 5532   4.522   1.643   2.487 -1.8358  0.0622  0.0999
 1842TIP3    H2 5533   4.606   1.769   2.488  1.1872 -1.8586 -0.0016
 1843TIP3   OH2 5534   1.465   5.677   0.395 -0.3686  0.3843 -0.1014
 1843TIP3    H1 5535   1.401   5.746   0.374  0.3929  1.2277  0.2694
 1843TIP3    H2 5536   1.539   5.695   0.337 -1.0314 -1.4951 -1.6106
 1844TIP3   OH2 5537   2.400   0.169   1.809  0.1376  0.4655  0.5835
 1844TIP3    H1 5538   2.416   0.198   1.898 -0.4925 -0.9534  1.1891
 1844TIP3    H2 5539   2.470   0.209   1.757  0.8828  0.7936  1.8151
 1845TIP3   OH2 5540   4.280   1.834   3.595 -0.1439  0.2831 -0.0270
 1845TIP3    H1 5541   4.214   1.774   3.562 -1.5907  1.7184  0.1357
 1845TIP3    H2 5542   4.253   1.920   3.563  2.7886  0.7145 -1.7121
 1846TIP3   OH2 5543   3.745   1.642   0.206  0.0938 -0.2776  0.1242
 1846TIP3    H1 5544   3.704   1.643   0.293 -0.4416  0.0334 -0.1287
 1846TIP3    H2 5545   3.702   1.713   0.159 -0.3526 -1.0989 -0.7293
 1847TIP3   OH2 5546   4.101   4.659   0.601 -0.4256 -0.0179  0.3258
 1847TIP3    H1 5547   4.076   4.647   0.509 -0.6099  1.1146  0.2060
 1847TIP3    H2 5548   4.152   4.581   0.623 -0.9592 -0.6238 -0.5311
 1848TIP3   OH2 5549   0.407   0.487   5.188 -0.0095  0.1441  0.8608
 1848TIP3    H1 5550   0.487   0.524   5.227 -0.1856  1.7816 -0.2193
 1848TIP3    H2 5551   0.402   0.528   5.102 -1.5495 -0.6365  0.5531
 1849TIP3   OH2 5552   5.000   5.177   2.435  0.2611 -0.1783 -0.2621
 1849TIP3    H1 5553   5.087   5.138   2.441  0.2102 -0.4007 -0.8302
 1849TIP3    H2 5554   4.967   5.177   2.525  0.7653 -0.2806 -0.0728
 1850TIP3   OH2 5555   5.729   5.427   2.019  0.6233 -0.0844  0.1231
 1850TIP3    H1 5556   5.770   5.510   2.043  1.7755 -0.8206  0.7798
 1850TIP3    H2 5557   5.802   5.371   1.991 -0.1971 -0.6834 -0.9244
 1851TIP3   OH2 5558   0.592   4.347   2.447 -0.1099 -0.8352 -0.2177
 1851TIP3    H1 5559   0.516   4.321   2.499  0.1585 -0.0774  0.5778
 1851TIP3    H2 5560   0.556   4.368   2.361 -0.9259  0.2005  0.3470
 1852TIP3   OH2 5561   5.264   1.126   4.060 -0.0945  0.0917  0.1704
 1852TIP3    H1 5562   5.237   1.192   4.125 -1.2004  0.3796 -0.5626
 1852TIP3    H2 5563   5.303   1.178   3.989 -2.6300  0.2046 -1.2636
 1853TIP3   OH2 5564   0.199   3.662   0.952 -0.1747  0.4367 -0.6208
 1853TIP3    H1 5565   0.196   3.593   0.886 -0.8770 -0.4435  0.2930
 1853TIP3    H2 5566   0.135   3.635   1.018  0.0566  1.6030  0.1153
 1854TIP3   OH2 5567   3.642   2.228   0.152 -0.3261  0.1544  0.6774
 1854TIP3    H1 5568   3.601   2.306   0.115 -1.6637 -0.7331  0.2182
 1854TIP3    H2 5569   3.704   2.200   0.085  1.8904  2.0804  1.7961
 1855TIP3   OH2 5570   5.597   0.607   1.766 -0.0096  0.4816 -0.1959
 1855TIP3    H1 5571   5.540   0.665   1.716  0.1428  0.2758 -0.6140
 1855TIP3    H2 5572   5.685   0.636   1.746  0.0414  1.4258  1.2070
 1856TIP3   OH2 5573   2.468   0.386   3.669  0.2378 -0.5444  0.2704
 1856TIP3    H1 5574   2.494   0.470   3.633 -0.6077 -0.6177 -0.5543
 1856TIP3    H2 5575   2.511   0.321   3.614 -0.3301 -0.6527 -0.0548
 1857TIP3   OH2 5576   1.077   5.762   3.096  0.3444  0.0687  0.2028
 1857TIP3    H1 5577   1.056   5.681   3.142 -0.8773  0.4932  0.4466
 1857TIP3    H2 5578   1.104   5.734   3.009 -0.1179 -0.6086  0.2688
 1858TIP3   OH2 5579   4.458   2.300   2.511 -0.2288  0.0261  0.3598
 1858TIP3    H1 5580   4.367   2.277   2.526 -0.4799  0.4795 -0.4422
 1858TIP3    H2 5581   4.455   2.382   2.462  0.6271  0.6961  1.3815
 1859TIP3   OH2 5582   3.989   5.833   4.789 -0.1206  0.2521 -0.7446
 1859TIP3    H1 5583   3.978   5.779   4.711  1.9006 -0.3199 -0.6765
 1859TIP3    H2 5584   4.016   5.772   4.857  0.5376  1.0891 -0.2289
 1860TIP3   OH2 5585   0.095   5.645   1.973 -0.5606 -0.0918 -0.2073
 1860TIP3    H1 5586   0.002   5.637   1.952 -0.4077 -1.5188 -0.4458
 1860TIP3    H2 5587   0.121   5.728   1.934 -1.7553  0.3826 -0.0384
 1861TIP3   OH2 5588   0.724   0.311   0.164 -0.1120 -0.3265  0.4182
 1861TIP3    H1 5589   0.635   0.278   0.151 -0.2754 -0.1870  1.1248
 1861TIP3    H2 5590   0.728   0.391   0.112 -0.0256 -0.9243 -0.5283
 1862TIP3   OH2 5591   4.362   3.196   2.435 -0.1005 -0.2881 -0.5471
 1862TIP3    H1 5592   4.417   3.203   2.357  0.1190  1.9441 -0.2675
 1862TIP3    H2 5593   4.359   3.103   2.454  0.1582 -0.8663 -2.9856
 1863TIP3   OH2 5594   5.387   2.533   1.096  0.3693 -0.0483 -0.3717
 1863TIP3    H1 5595   5.292   2.520   1.100  0.4137 -1.6973 -2.4838
 1863TIP3    H2 5596   5.417   2.515   1.185 -1.0512 -2.4308 -0.2814
 1864TIP3   OH2 5597   5.848   4.516   0.049  0.4665  0.3842 -0.3828
 1864TIP3    H1 5598   5.824   4.427   0.022  1.0452  0.2016 -0.3038
 1864TIP3    H2 5599   5.943   4.519   0.040  0.6039  0.5484  0.9336
 1865TIP3   OH2 5600   0.985   5.052   0.415 -0.3361  0.1594  0.0567
 1865TIP3    H1 5601   1.008   5.006   0.496 -0.9894 -0.2842 -0.0043
 1865TIP3    H2 5602   1.031   5.004   0.347  1.1860  1.2496  0.2720
 1866TIP3   OH2 5603   2.102   2.734   5.056  0.3738  0.7512  0.2953
 1866TIP3    H1 5604   2.057   2.682   4.990  0.5073 -3.3978  3.1372
 1866TIP3    H2 5605   2.192   2.701   5.056  1.0239  2.3828  0.9801
 1867TIP3   OH2 5606   1.505   4.300   2.492  0.3163  0.0422 -0.3577
 1867TIP3    H1 5607   1.450   4.326   2.566  1.1041 -0.5639  0.4577
 1867TIP3    H2 5608   1.589   4.278   2.531  1.0058  0.4783 -1.5263
 1868TIP3   OH2 5609   0.131   0.065   1.524 -0.5549  0.6006 -0.4642
 1868TIP3    H1 5610   0.166   0.124   1.590  0.2794  1.7873 -1.8886
 1868TIP3    H2 5611   0.038   0.055   1.547  0.1181 -0.6772  2.0130
 1869TIP3   OH2 5612   0.762   3.472   0.894  0.0213  0.5187 -0.0665
 1869TIP3    H1 5613   0.685   3.415   0.891 -0.1932  0.3909  3.4877
 1869TIP3    H2 5614   0.729   3.558   0.868 -0.7670 -0.0200 -0.8817
 1870TIP3   OH2 5615   2.229   1.888   3.471  0.1736 -0.2072  0.4981
 1870TIP3    H1 5616   2.176   1.835   3.412 -0.7083  0.2885  0.8417
 1870TIP3    H2 5617   2.316   1.847   3.468 -0.6579 -2.1587  1.3469
 1871TIP3   OH2 5618   3.584   4.698   0.311  0.2730 -0.3869  0.1291
 1871TIP3    H1 5619   3.489   4.692   0.297  0.0185 -0.4933  1.7770
 1871TIP3    H2 5620   3.608   4.784   0.276 -0.7265  0.3447  1.1790
 1872TIP3   OH2 5621   0.203   4.974   0.676  0.5733 -0.2692 -0.3541
 1872TIP3    H1 5622   0.294   4.957   0.654  0.9581 -0.0431  0.9912
 1872TIP3    H2 5623   0.164   4.888   0.689  0.3785 -0.4012 -1.6747
 1873TIP3   OH2 5624   5.881   3.163   2.569 -0.4202 -0.3454 -0.6729
 1873TIP3    H1 5625   5.910   3.101   2.502 -2.4824  0.9167 -2.9177
 1873TIP3    H2 5626   5.951   3.228   2.574  0.9038 -1.7970  0.3270
 1874TIP3   OH2 5627   5.737   3.645   3.286 -0.5036 -0.6613 -0.2812
 1874TIP3    H1 5628   5.794   3.672   3.357 -1.1774 -0.4304  0.1768
 1874TIP3    H2 5629   5.780   3.679   3.207 -0.3183  0.0236  0.1057
 1875TIP3   OH2 5630   4.670   3.888   5.135 -0.1404  0.2995  0.0990
 1875TIP3    H1 5631   4.628   3.894   5.049 -1.9739  1.0710  1.0159
 1875TIP3    H2 5632   4.689   3.979   5.159  0.6316  0.0687  0.4161
 1876TIP3   OH2 5633   6.085   1.982   5.067 -0.0471 -0.5631 -0.3758
 1876TIP3    H1 5634   6.180   1.996   5.072 -0.1554  1.0107 -1.7720
 1876TIP3    H2 5635   6.049   2.041   5.133 -0.0935 -0.5756 -0.3903
 1877TIP3   OH2 5636   1.396   5.177   4.349 -0.0940  0.4932  0.4561
 1877TIP3    H1 5637   1.421   5.168   4.441 -0.5980  1.5027  0.6994
 1877TIP3    H2 5638   1.359   5.265   4.341  0.5939  0.6930 -0.8738
 1878TIP3   OH2 5639   2.417   3.700   4.717  0.1659  0.1109  0.1535
 1878TIP3    H1 5640   2.388   3.631   4.776 -0.5495  0.7862  0.6137
 1878TIP3    H2 5641   2.495   3.737   4.759  0.6703 -0.5182 -0.1912
 1879TIP3   OH2 5642   0.883   5.578   2.446  0.7757  0.0119  0.1590
 1879TIP3    H1 5643   0.884   5.655   2.390 -0.3976  1.2225  1.7161
 1879TIP3    H2 5644   0.792   5.547   2.442  1.1983 -1.2093 -0.3253
 1880TIP3   OH2 5645   4.615   2.064   1.942  0.6541 -0.0513  0.7848
 1880TIP3    H1 5646   4.614   2.101   1.854 -0.0675  0.4592  1.0081
 1880TIP3    H2 5647   4.706   2.035   1.954  0.6372 -0.6206 -0.3239
 1881TIP3   OH2 5648   2.585   5.545   3.416  0.8294  0.7418 -0.1205
 1881TIP3    H1 5649   2.533   5.534   3.496  0.9572 -0.4148 -0.1757
 1881TIP3    H2 5650   2.579   5.638   3.396 -0.3635  0.8090  0.4511
 1882TIP3   OH2 5651   2.608   4.815   1.896  0.0382 -0.2150  0.2453
 1882TIP3    H1 5652   2.683   4.851   1.945 -1.1475  0.6485  1.5007
 1882TIP3    H2 5653   2.570   4.751   1.956 -1.6372  1.0989  0.6704
 1883TIP3   OH2 5654   1.469   5.027   5.133 -0.5713  0.3031  0.4896
 1883TIP3    H1 5655   1.419   4.965   5.080 -1.0359  1.3774 -0.3702
 1883TIP3    H2 5656   1.558   4.990   5.136 -1.0641 -0.8967  0.8404
 1884TIP3   OH2 5657   4.408   0.627   4.525 -0.2597  0.4347 -0.2060
 1884TIP3    H1 5658   4.461   0.591   4.596 -1.0113  0.6663  0.4856
 1884TIP3    H2 5659   4.321   0.638   4.563 -0.5918  0.8733 -1.0662
 1885TIP3   OH2 5660   4.613   5.624   2.102  0.1522  0.0499 -0.0331
 1885TIP3    H1 5661   4.665   5.584   2.032 -0.4919 -0.4901 -0.2187
 1885TIP3    H2 5662   4.538   5.566   2.111 -0.6070  1.0133 -0.0297
 1886TIP3   OH2 5663   5.406   2.955   0.423  0.1250  0.0253 -0.3725
 1886TIP3    H1 5664   5.425   3.047   0.401 -1.3092  0.5637  0.5026
 1886TIP3    H2 5665   5.483   2.927   0.473  1.4618  0.1078 -2.2884
 1887TIP3   OH2 5666   0.117   3.078   1.946 -0.0830 -0.4103 -1.3013
 1887TIP3    H1 5667   0.063   3.013   1.902 -0.3832 -1.0316 -0.0503
 1887TIP3    H2 5668   0.161   3.030   2.017  0.4353  0.5426 -0.9532
 1888TIP3   OH2 5669   4.786   3.373   0.094 -0.1954 -0.5403 -0.0223
 1888TIP3    H1 5670   4.787   3.418   0.179  0.9688 -0.5958  0.0225
 1888TIP3    H2 5671   4.771   3.281   0.116 -1.4133 -0.3446 -0.0135
 1889TIP3   OH2 5672   2.520   5.305   3.084 -0.2024  0.0869 -0.0681
 1889TIP3    H1 5673   2.519   5.397   3.060 -0.5410  0.5436  1.5455
 1889TIP3    H2 5674   2.428   5.280   3.087 -0.1844  0.0783  0.7600
 1890TIP3   OH2 5675   0.951   1.540   3.321  0.3090  0.0211  0.0635
 1890TIP3    H1 5676   0.873   1.484   3.324 -0.1428  0.6537  1.9132
 1890TIP3    H2 5677   0.917   1.627   3.301  0.5094  0.3131  0.9525
 1891TIP3   OH2 5678   2.317   1.227   2.993 -0.3211  0.7581  0.8386
 1891TIP3    H1 5679   2.311   1.236   2.898 -1.2292 -0.0494  0.8020
 1891TIP3    H2 5680   2.410   1.215   3.010 -0.2615 -0.2043 -0.0661
 1892TIP3   OH2 5681   3.854   1.220   4.802  0.8757  0.5683 -0.1909
 1892TIP3    H1 5682   3.907   1.257   4.872  0.0248  0.4837  0.5159
 1892TIP3    H2 5683   3.863   1.282   4.730 -0.4348  2.1547  0.9248
 1893TIP3   OH2 5684   4.389   4.418   3.916 -0.6452  0.3638 -0.1046
 1893TIP3    H1 5685   4.442   4.465   3.851 -0.9752  1.8426  0.6493
 1893TIP3    H2 5686   4.395   4.326   3.890  3.7991  0.1179  0.9339
 1894TIP3   OH2 5687   0.681   2.251   0.498  0.0106 -0.2350 -0.4165
 1894TIP3    H1 5688   0.731   2.290   0.426 -1.3098  0.7601 -0.8380
 1894TIP3    H2 5689   0.590   2.277   0.481 -0.3505 -0.0312  1.5502
 1895TIP3   OH2 5690   3.625   0.128   3.743  0.4755  0.2491 -0.1830
 1895TIP3    H1 5691   3.620   0.033   3.743  0.0689  0.2673  0.5824
 1895TIP3    H2 5692   3.716   0.147   3.764  0.6652  0.0337 -0.7774
 1896TIP3   OH2 5693   2.842   1.612   1.505  0.4939 -0.3105  0.1970
 1896TIP3    H1 5694   2.805   1.696   1.531 -0.5563  0.0703 -2.2323
 1896TIP3    H2 5695   2.784   1.546   1.544 -1.5738  0.2424 -1.7268
 1897TIP3   OH2 5696   0.722   3.988   4.082  0.0500  0.2756 -0.2440
 1897TIP3    H1 5697   0.629   4.009   4.069  0.1887  1.0340 -0.0590
 1897TIP3    H2 5698   0.755   3.967   3.995  0.0969  1.6650 -0.5850
 1898TIP3   OH2 5699   1.966   0.155   3.794  0.6883 -0.1776  0.3051
 1898TIP3    H1 5700   1.919   0.095   3.735  1.8586 -1.8153  0.9796
 1898TIP3    H2 5701   1.957   0.115   3.880 -0.3680  1.8096  1.1843
 1899TIP3   OH2 5702   2.695   5.056   0.449  0.1739 -0.1387  0.0020
 1899TIP3    H1 5703   2.650   5.018   0.525  1.3509  0.3415  0.9603
 1899TIP3    H2 5704   2.759   5.116   0.487 -1.0058  2.1431 -1.4548
 1900TIP3   OH2 5705   1.346   2.750   1.716  0.3330 -0.0290 -0.3067
 1900TIP3    H1 5706   1.274   2.688   1.720 -1.8876  2.3820  2.6487
 1900TIP3    H2 5707   1.412   2.715   1.777  0.3995 -0.8673 -0.8583
 1901TIP3   OH2 5708   2.543   5.892   4.043 -0.0410 -0.3445  0.2176
 1901TIP3    H1 5709   2.513   5.979   4.069  0.2700 -0.3711  0.6876
 1901TIP3    H2 5710   2.495   5.832   4.100  0.5016 -0.4161  0.6037
 1902TIP3   OH2 5711  -0.015   3.407   2.794  0.0551  0.5356 -0.0448
 1902TIP3    H1 5712   0.040   3.451   2.730  1.0172 -0.1766  0.2793
 1902TIP3    H2 5713  -0.009   3.461   2.873 -1.0837  1.3801 -0.5073
 1903TIP3   OH2 5714   1.338   3.518   4.400 -0.2677  0.0331  0.6720
 1903TIP3    H1 5715   1.356   3.441   4.346 -1.3357  0.4242 -0.2776
 1903TIP3    H2 5716   1.354   3.592   4.342 -1.1108  0.4686  0.9814
 1904TIP3   OH2 5717   4.198   1.743   2.156 -0.5033 -0.3649  0.5992
 1904TIP3    H1 5718   4.137   1.797   2.207  0.2117 -0.0085  1.0900
 1904TIP3    H2 5719   4.141   1.689   2.100 -1.2531  0.3312  0.6664
 1905TIP3   OH2 5720   3.705   0.927   1.070 -0.2372  0.0395 -0.1486
 1905TIP3    H1 5721   3.685   1.012   1.108  1.5168  0.7361 -0.6535
 1905TIP3    H2 5722   3.644   0.866   1.111 -1.6896  1.5661  0.0490
 1906TIP3   OH2 5723   3.388   3.536   2.408  0.1854 -0.4511  0.0032
 1906TIP3    H1 5724   3.374   3.618   2.456 -0.6547 -0.6100  0.0379
 1906TIP3    H2 5725   3.384   3.468   2.476 -0.9434 -0.6722 -0.2699
 1907TIP3   OH2 5726   4.293   1.720   1.394 -0.4127 -0.1957 -0.3428
 1907TIP3    H1 5727   4.250   1.793   1.439 -0.1029  0.5505 -1.2237
 1907TIP3    H2 5728   4.373   1.705   1.444  0.1756  0.9570 -0.9235
 1908TIP3   OH2 5729   2.198   1.541   3.996  0.5230 -0.0801 -0.4975
 1908TIP3    H1 5730   2.198   1.480   4.069 -1.2032  2.6382  2.0148
 1908TIP3    H2 5731   2.109   1.540   3.962  0.8351  0.0602 -1.3611
 1909TIP3   OH2 5732   6.177   2.488   3.741  0.1053  0.4996 -0.7508
 1909TIP3    H1 5733   6.143   2.518   3.657 -0.8365  2.6032  0.2988
 1909TIP3    H2 5734   6.123   2.412   3.763  0.9372 -0.6335 -2.3810
 1910TIP3   OH2 5735   5.076   1.422   4.769  0.2224 -0.5307 -0.4209
 1910TIP3    H1 5736   4.984   1.427   4.794 -0.2836 -1.3378 -1.9874
 1910TIP3    H2 5737   5.112   1.354   4.826 -0.1154 -0.1602  0.2526
 1911TIP3   OH2 5738   1.332   1.326   5.130  0.1617  0.0759  0.1296
 1911TIP3    H1 5739   1.399   1.263   5.157  1.5849  1.9137  1.0832
 1911TIP3    H2 5740   1.359   1.354   5.043 -1.0469 -1.2993 -0.7508
 1912TIP3   OH2 5741   0.134   1.724   1.252  0.8420 -0.1496  0.1073
 1912TIP3    H1 5742   0.125   1.758   1.341 -2.8501 -0.9091  0.1703
 1912TIP3    H2 5743   0.114   1.631   1.259 -0.2968 -0.0758 -1.5812
 1913TIP3   OH2 5744   2.094   0.252   0.513  0.1912  0.1510  0.4119
 1913TIP3    H1 5745   2.135   0.310   0.576 -0.7641  1.1659  0.1354
 1913TIP3    H2 5746   2.019   0.301   0.480 -0.1495 -0.9072 -0.4729
 1914TIP3   OH2 5747   4.488   5.249   1.853  0.3182 -0.3936 -0.1142
 1914TIP3    H1 5748   4.415   5.201   1.814  0.6891 -0.9215 -0.1716
 1914TIP3    H2 5749   4.557   5.183   1.864 -0.2057 -0.5841  2.6847
 1915TIP3   OH2 5750   6.289   2.622   2.569 -0.1587  0.4763 -0.1213
 1915TIP3    H1 5751   6.204   2.665   2.557  0.0087  0.7580 -0.3060
 1915TIP3    H2 5752   6.307   2.629   2.662 -1.7239 -2.1892  0.4695
 1916TIP3   OH2 5753   1.690   2.240   0.684  0.2416  0.5208 -0.0622
 1916TIP3    H1 5754   1.622   2.292   0.727  0.2671 -0.3262  1.0745
 1916TIP3    H2 5755   1.642   2.181   0.626  0.1361  1.0900 -0.5544
 1917TIP3   OH2 5756   1.177   3.479   3.857 -0.3364 -0.2326  0.4155
 1917TIP3    H1 5757   1.209   3.389   3.847 -0.2643 -0.0362 -1.4169
 1917TIP3    H2 5758   1.141   3.481   3.946  1.1952 -1.5634  1.1266
 1918TIP3   OH2 5759   1.882   1.167   1.460 -0.5614 -0.1043  0.3740
 1918TIP3    H1 5760   1.905   1.215   1.380  0.5052  1.4940  1.5592
 1918TIP3    H2 5761   1.849   1.083   1.430  2.7457 -0.8257 -1.7167
 1919TIP3   OH2 5762   5.534   5.274   0.227 -0.7465  0.6474  0.8380
 1919TIP3    H1 5763   5.529   5.254   0.133 -0.5073  1.9758  0.5148
 1919TIP3    H2 5764   5.627   5.266   0.248 -1.0950 -2.3494  1.6488
 1920TIP3   OH2 5765   5.978   2.684   3.529  0.5225 -0.2009  0.1715
 1920TIP3    H1 5766   6.050   2.624   3.510  2.1512  1.7792 -0.3139
 1920TIP3    H2 5767   5.949   2.714   3.442 -0.7219 -0.7522  0.3772
 1921TIP3   OH2 5768   4.224   1.450   4.850 -0.2947  0.5465  0.3176
 1921TIP3    H1 5769   4.209   1.544   4.856 -0.8078  0.3794  1.9826
 1921TIP3    H2 5770   4.317   1.440   4.866  0.4117  0.9564 -2.7791
 1922TIP3   OH2 5771   2.592   0.557   4.443 -0.7339  0.3131  0.5943
 1922TIP3    H1 5772   2.621   0.490   4.506 -1.3893 -1.0387 -0.4857
 1922TIP3    H2 5773   2.497   0.555   4.449 -0.8264 -0.2060 -0.7828
 1923TIP3   OH2 5774   2.261   3.945   4.620 -0.0183 -0.4310 -0.1994
 1923TIP3    H1 5775   2.315   3.874   4.653 -0.4291 -0.6457  0.0177
 1923TIP3    H2 5776   2.265   3.936   4.524 -0.1060 -0.7686 -0.1706
 1924TIP3   OH2 5777   4.167   4.542   3.085  0.6058  0.1568 -0.3927
 1924TIP3    H1 5778   4.181   4.449   3.067  0.3208  0.0925 -0.2971
 1924TIP3    H2 5779   4.121   4.543   3.169  0.6811  0.3879 -0.3538
 1925TIP3   OH2 5780   2.030   2.501   2.749  0.0014 -0.2919  0.3023
 1925TIP3    H1 5781   1.970   2.576   2.750  0.0975 -0.2029  2.0753
 1925TIP3    H2 5782   2.013   2.456   2.831  2.0707 -0.4964  0.6577
 1926TIP3   OH2 5783   1.160   4.817   5.140 -0.3970 -0.6605 -0.5836
 1926TIP3    H1 5784   1.182   4.909   5.126  2.0701 -0.9804  0.5944
 1926TIP3    H2 5785   1.159   4.779   5.052 -0.2153  0.2423 -0.9891
 1927TIP3   OH2 5786   2.454   1.129   4.013 -0.4648 -0.3454 -0.3836
 1927TIP3    H1 5787   2.467   1.034   4.004  0.2829 -0.4501  1.4585
 1927TIP3    H2 5788   2.360   1.141   3.999 -0.6097 -1.3990 -0.4135
 1928TIP3   OH2 5789   4.494   2.739   4.498  0.0129  0.3024 -0.8150
 1928TIP3    H1 5790   4.431   2.798   4.539  1.0247  0.1937  1.0391
 1928TIP3    H2 5791   4.495   2.662   4.556  0.7734 -0.3016 -1.6092
 1929TIP3   OH2 5792   2.844   4.617   2.064 -0.6807  0.4370 -0.0653
 1929TIP3    H1 5793   2.749   4.617   2.075 -0.7510 -2.1791  0.0038
 1929TIP3    H2 5794   2.878   4.623   2.153 -0.7663  1.3145 -0.0852
 1930TIP3   OH2 5795   1.895   5.176   1.087  0.0205 -0.3715  0.4399
 1930TIP3    H1 5796   1.803   5.166   1.065 -0.5002  2.3554  0.9285
 1930TIP3    H2 5797   1.897   5.179   1.183  0.5564 -0.1197  0.4283
 1931TIP3   OH2 5798   2.934   2.675   1.283  0.1556  0.1848  0.0547
 1931TIP3    H1 5799   2.891   2.695   1.201 -0.9995 -0.3706  0.4994
 1931TIP3    H2 5800   2.895   2.736   1.346  3.6031  3.1922 -0.3951
 1932TIP3   OH2 5801   6.080   2.964   4.786 -0.1091  0.2523  0.2864
 1932TIP3    H1 5802   6.004   2.909   4.800  0.3730 -0.0948  1.7072
 1932TIP3    H2 5803   6.155   2.905   4.795  0.3758  0.9070  0.7111
 1933TIP3   OH2 5804   1.303   2.264   4.986 -0.1276 -0.0756 -0.8017
 1933TIP3    H1 5805   1.217   2.248   5.026  1.1523 -1.5486  1.6246
 1933TIP3    H2 5806   1.342   2.332   5.040  1.0109 -0.9161 -0.5208
 1934TIP3   OH2 5807   3.048   3.930   0.263  0.0218 -0.0192 -0.0459
 1934TIP3    H1 5808   2.963   3.956   0.299  0.1026 -1.2019  1.0728
 1934TIP3    H2 5809   3.111   3.955   0.331  0.1229 -2.8195  1.0090
 1935TIP3   OH2 5810   2.052   0.407   4.752  0.0818 -0.4405 -0.3646
 1935TIP3    H1 5811   2.039   0.372   4.841 -0.6333  1.3570  0.2754
 1935TIP3    H2 5812   2.086   0.333   4.703 -1.6081 -2.1453  0.8536
 1936TIP3   OH2 5813   3.734   5.963   4.826 -0.1105  0.6190  0.4479
 1936TIP3    H1 5814   3.687   5.881   4.811 -0.4898  0.7760  0.7608
 1936TIP3    H2 5815   3.824   5.936   4.845 -0.6434  0.1436  2.4801
 1937TIP3   OH2 5816   2.039   5.659   3.600  0.0158 -0.0331  0.1369
 1937TIP3    H1 5817   2.062   5.752   3.606 -0.1734 -0.0457  1.3188
 1937TIP3    H2 5818   2.090   5.617   3.669  0.6224 -0.9328 -0.8323
 1938TIP3   OH2 5819   0.735   2.772   2.179  0.0663  0.6815  0.2998
 1938TIP3    H1 5820   0.802   2.836   2.202 -0.2598  0.6303  1.4276
 1938TIP3    H2 5821   0.662   2.792   2.237  0.1117 -0.9744  0.9780
 1939TIP3   OH2 5822   1.861   3.567   1.741  0.3048  0.0020 -0.0004
 1939TIP3    H1 5823   1.907   3.483   1.742 -0.2243 -0.3628 -2.0350
 1939TIP3    H2 5824   1.922   3.627   1.700  0.2418  0.3481  0.4073
 1940TIP3   OH2 5825   3.697   4.095   3.050  0.0234  0.4747 -0.1793
 1940TIP3    H1 5826   3.717   4.030   2.982 -0.0256  0.6538 -0.3629
 1940TIP3    H2 5827   3.782   4.124   3.081  0.0727  1.5757 -1.2797
 1941TIP3   OH2 5828   5.118   2.576   2.614 -0.6646 -0.1518  0.2419
 1941TIP3    H1 5829   5.154   2.657   2.579 -1.9727  0.2980 -0.1209
 1941TIP3    H2 5830   5.131   2.511   2.544 -0.0638 -0.1476  0.3421
 1942TIP3   OH2 5831   1.583   1.671   3.295 -0.7897 -0.2280  0.2501
 1942TIP3    H1 5832   1.497   1.711   3.308 -0.6027  0.1989  0.2064
 1942TIP3    H2 5833   1.645   1.740   3.318 -0.4569 -0.1351 -0.8364
 1943TIP3   OH2 5834   4.514   2.757   1.565  0.5328 -0.3330 -0.2066
 1943TIP3    H1 5835   4.588   2.745   1.506  0.9968 -0.1490  0.3352
 1943TIP3    H2 5836   4.444   2.789   1.508  1.2868  0.8767 -0.5098
 1944TIP3   OH2 5837   0.686   0.096   1.532 -0.0559 -0.1479 -0.5041
 1944TIP3    H1 5838   0.723   0.009   1.549 -1.7056 -0.6734  0.7055
 1944TIP3    H2 5839   0.736   0.129   1.457  0.5487 -2.1849 -1.0795
 1945TIP3   OH2 5840   0.980   1.168   1.379  0.5895 -0.0939 -0.3208
 1945TIP3    H1 5841   1.013   1.255   1.357  1.2129 -0.1883  0.2389
 1945TIP3    H2 5842   0.892   1.165   1.339  0.6924  0.6658 -0.6136
 1946TIP3   OH2 5843   1.955   2.894   3.799  0.4944  0.0436 -0.2043
 1946TIP3    H1 5844   1.934   2.869   3.709  1.3289  0.6750 -0.5776
 1946TIP3    H2 5845   1.926   2.819   3.851 -1.2306  0.2211 -0.8428
 1947TIP3   OH2 5846   4.663   2.003   3.487  0.1944  0.4410 -0.0018
 1947TIP3    H1 5847   4.756   1.991   3.464 -0.3954 -0.3592 -2.1938
 1947TIP3    H2 5848   4.665   2.053   3.568  2.5388  1.7632 -0.7872
 1948TIP3   OH2 5849   0.702   3.260   0.373  0.2958 -0.2745  0.2094
 1948TIP3    H1 5850   0.699   3.337   0.317 -1.2901  0.0338  0.6961
 1948TIP3    H2 5851   0.796   3.241   0.383  0.7086 -1.3267 -3.8646
 1949TIP3   OH2 5852   0.297   4.324   0.520  0.2159 -0.5036 -0.3530
 1949TIP3    H1 5853   0.355   4.390   0.558  2.4046 -2.2650 -0.4234
 1949TIP3    H2 5854   0.225   4.374   0.483  1.0855  1.7262  0.7743
 1950TIP3   OH2 5855   6.309   5.434   2.435 -0.4882 -0.1981  0.7558
 1950TIP3    H1 5856   6.320   5.359   2.377  1.1106 -0.2088  1.0247
 1950TIP3    H2 5857   6.271   5.502   2.380 -0.2139 -0.6202  0.0368
 1951TIP3   OH2 5858   2.458   2.009   2.272 -0.0960 -0.0714  0.1821
 1951TIP3    H1 5859   2.517   2.045   2.206  0.1886 -0.6290  0.1191
 1951TIP3    H2 5860   2.455   1.915   2.252 -0.4226 -0.1619  0.6399
 1952TIP3   OH2 5861   3.087   0.485   3.667  0.4835  0.2848  0.6615
 1952TIP3    H1 5862   3.144   0.409   3.679  0.4711 -0.1022 -1.3122
 1952TIP3    H2 5863   3.108   0.543   3.739  0.1071 -1.8020  2.5593
 1953TIP3   OH2 5864   4.017   3.121   3.625  0.0826  0.0408 -0.1153
 1953TIP3    H1 5865   4.066   3.146   3.703 -0.4945 -0.5962  0.4750
 1953TIP3    H2 5866   4.065   3.048   3.588 -0.4625 -0.6713  0.5391
 1954TIP3   OH2 5867   3.671   5.854   4.512 -0.0655 -0.0168  0.1147
 1954TIP3    H1 5868   3.760   5.822   4.523 -0.6036 -0.9394  2.2039
 1954TIP3    H2 5869   3.646   5.887   4.598 -1.5796  0.6806 -0.5463
 1955TIP3   OH2 5870   2.960   1.010   4.058  0.1523 -0.2893  0.4011
 1955TIP3    H1 5871   2.921   0.925   4.076  0.6212 -0.8668 -1.1982
 1955TIP3    H2 5872   2.899   1.052   3.997  1.2524 -0.6179 -0.9731
 1956TIP3   OH2 5873   5.663   1.533   2.616  0.5611 -0.4435  0.1369
 1956TIP3    H1 5874   5.656   1.441   2.588 -0.9350 -1.0394  2.2510
 1956TIP3    H2 5875   5.585   1.575   2.580  1.4369  0.1572 -1.1555
 1957TIP3   OH2 5876   1.115   1.610   4.110 -0.1985  0.2264  0.0308
 1957TIP3    H1 5877   1.132   1.590   4.018 -1.3064 -2.0353  0.2432
 1957TIP3    H2 5878   1.056   1.685   4.107 -0.6601 -0.1533 -1.1391
 1958TIP3   OH2 5879   0.176   5.457   4.969  0.4077  0.2679 -0.1901
 1958TIP3    H1 5880   0.148   5.452   4.878  1.3332  2.1456 -0.6382
 1958TIP3    H2 5881   0.247   5.393   4.976  0.8394  0.6549 -0.9953
 1959TIP3   OH2 5882   3.776   3.454   2.658  0.0897  0.1048  0.1744
 1959TIP3    H1 5883   3.781   3.383   2.723 -2.2171 -0.5801 -0.3202
 1959TIP3    H2 5884   3.839   3.428   2.591  2.1831  0.5916  1.8391
 1960TIP3   OH2 5885   6.122   4.986   3.853  0.2410 -0.3030  0.1831
 1960TIP3    H1 5886   6.132   4.993   3.758  0.0979 -0.8422  0.1273
 1960TIP3    H2 5887   6.107   5.076   3.882  3.7735  0.4888  0.1207
 1961TIP3   OH2 5888   5.273   2.532   5.008  0.0280 -0.0548 -0.1663
 1961TIP3    H1 5889   5.290   2.624   5.028 -0.6506  0.2535 -0.9630
 1961TIP3    H2 5890   5.266   2.490   5.093  0.9906  0.5088  0.1988
 1962TIP3   OH2 5891   5.582   5.185   0.707 -0.2106  0.4070 -0.1663
 1962TIP3    H1 5892   5.618   5.106   0.666  1.8137  1.4263 -0.4722
 1962TIP3    H2 5893   5.488   5.168   0.713  0.0577 -1.6708 -0.9840
 1963TIP3   OH2 5894   2.057   5.260   2.115  0.3000  0.0474 -0.1654
 1963TIP3    H1 5895   2.009   5.204   2.175  0.8706 -0.9096 -0.5908
 1963TIP3    H2 5896   2.143   5.271   2.156  0.0076  1.0982  0.1991
 1964TIP3   OH2 5897   3.749   3.152   3.762  0.0972  0.7603  0.7837
 1964TIP3    H1 5898   3.767   3.067   3.802 -0.4083  1.1106  1.7999
 1964TIP3    H2 5899   3.825   3.170   3.707 -0.6280 -1.2104 -0.9814
 1965TIP3   OH2 5900   2.921   1.729   0.064 -0.4529 -0.3688  0.2432
 1965TIP3    H1 5901   2.973   1.670   0.119  0.4049  0.0665 -0.0854
 1965TIP3    H2 5902   2.949   1.710  -0.025 -0.0690  0.6298  0.1426
 1966TIP3   OH2 5903   5.613   4.753   2.029  0.1757 -0.0857 -0.5449
 1966TIP3    H1 5904   5.563   4.682   2.069 -0.0023 -0.5701 -1.5833
 1966TIP3    H2 5905   5.620   4.819   2.097  1.5532 -1.6567  0.9530
 1967TIP3   OH2 5906   3.708   0.714   1.396 -0.7071 -0.1930 -0.0462
 1967TIP3    H1 5907   3.719   0.802   1.432  2.1209 -0.3746 -0.2215
 1967TIP3    H2 5908   3.681   0.661   1.471 -1.7248  0.6701  0.2148
 1968TIP3   OH2 5909   0.074   4.863   3.855  0.1875 -0.2458 -0.1198
 1968TIP3    H1 5910   0.103   4.953   3.871  1.5477 -0.8573  1.0450
 1968TIP3    H2 5911   0.071   4.856   3.760 -1.6562  1.5218 -0.2770
 1969TIP3   OH2 5912   1.619   2.931   1.873  0.3432 -0.0912 -0.4796
 1969TIP3    H1 5913   1.714   2.920   1.877  0.3620 -0.4621 -1.6396
 1969TIP3    H2 5914   1.605   3.005   1.814 -0.0927 -0.0163 -0.2910
 1970TIP3   OH2 5915   4.922   3.560   1.213  0.5873  0.1502  0.0646
 1970TIP3    H1 5916   4.876   3.641   1.193 -0.3127 -0.1671  0.7622
 1970TIP3    H2 5917   5.001   3.588   1.260  1.0031  0.6865 -0.9303
 1971TIP3   OH2 5918   6.014   1.535   5.042 -0.5398 -0.0401 -0.2043
 1971TIP3    H1 5919   6.039   1.520   4.951 -1.8071 -2.8704 -0.2207
 1971TIP3    H2 5920   6.086   1.499   5.093 -0.2740  0.6342 -0.1037
 1972TIP3   OH2 5921   2.693   3.165   2.587 -0.3967  0.1218  0.0688
 1972TIP3    H1 5922   2.673   3.198   2.499 -1.0960 -0.2025  0.0956
 1972TIP3    H2 5923   2.659   3.232   2.646 -0.4801  0.0564  0.0964
 1973TIP3   OH2 5924   1.663   1.702   1.479 -0.2198  0.0893  0.4708
 1973TIP3    H1 5925   1.634   1.657   1.399 -0.2723  0.8626  0.0421
 1973TIP3    H2 5926   1.635   1.645   1.550 -0.7916 -0.2758 -0.0354
 1974TIP3   OH2 5927   4.517   3.759   4.333  0.7199  0.1385 -0.3658
 1974TIP3    H1 5928   4.582   3.730   4.269  1.2814 -1.2745  0.7709
 1974TIP3    H2 5929   4.533   3.704   4.410 -0.3753  1.2984  0.7491
 1975TIP3   OH2 5930   5.115   5.210   0.347 -0.5719  0.1404 -1.1312
 1975TIP3    H1 5931   5.203   5.175   0.362 -0.5699  0.7641  0.5552
 1975TIP3    H2 5932   5.110   5.223   0.253  1.7765  1.6378 -1.1301
 1976TIP3   OH2 5933   5.314   5.064   0.969  0.8794 -0.2591  0.4307
 1976TIP3    H1 5934   5.343   5.004   0.901  2.0670 -1.8525  2.2281
 1976TIP3    H2 5935   5.240   5.020   1.010 -0.1396  0.9085 -0.1225
 1977TIP3   OH2 5936   6.060   2.892   2.039 -0.4416 -0.6772  0.0558
 1977TIP3    H1 5937   5.973   2.933   2.037 -0.2048 -0.1456 -1.5429
 1977TIP3    H2 5938   6.048   2.810   1.990 -0.0883 -0.6973  0.0037
 1978TIP3   OH2 5939   5.634   4.009   2.616 -0.3043 -0.4791 -0.5212
 1978TIP3    H1 5940   5.695   4.075   2.651 -0.9635 -0.2970  0.3154
 1978TIP3    H2 5941   5.672   3.926   2.643  1.2099 -0.5695 -2.6508
 1979TIP3   OH2 5942   2.551   1.299   4.898 -0.1460 -0.0580 -0.4332
 1979TIP3    H1 5943   2.563   1.210   4.863  1.4061 -0.0969  0.1188
 1979TIP3    H2 5944   2.523   1.285   4.988 -0.0540  0.0103 -0.3945
 1980TIP3   OH2 5945   2.528   0.690   2.221  0.1957  0.5761  0.5411
 1980TIP3    H1 5946   2.606   0.638   2.238 -0.1329 -0.9063 -1.8977
 1980TIP3    H2 5947   2.559   0.780   2.219  2.0474 -0.0225 -1.0706
 1981TIP3   OH2 5948   6.210   1.542   2.342 -0.3834  0.0913 -0.1983
 1981TIP3    H1 5949   6.147   1.479   2.377  0.4682 -0.2483  0.7784
 1981TIP3    H2 5950   6.249   1.498   2.267 -2.2215  0.8198 -1.6502
 1982TIP3   OH2 5951   2.192   0.205   2.815  0.0553 -0.5317 -0.2639
 1982TIP3    H1 5952   2.256   0.269   2.846  1.9906 -1.3713 -2.3062
 1982TIP3    H2 5953   2.134   0.255   2.758  0.3816 -0.2460 -0.3481
 1983TIP3   OH2 5954   0.182   4.545   1.525 -0.6624 -0.2478 -0.3592
 1983TIP3    H1 5955   0.277   4.549   1.515 -0.3279 -1.5021  1.7042
 1983TIP3    H2 5956   0.154   4.636   1.520  0.7548  0.2210 -0.2250
 1984TIP3   OH2 5957   4.023   4.182   1.325  0.3352  0.2047  0.4533
 1984TIP3    H1 5958   3.994   4.163   1.414  0.5018 -1.2428  0.2180
 1984TIP3    H2 5959   4.001   4.104   1.274  0.8000  0.7551 -0.6435
 1985TIP3   OH2 5960   3.672   2.713   0.784  0.0409  0.0744  0.6566
 1985TIP3    H1 5961   3.649   2.622   0.805  1.8818 -0.1831  1.7756
 1985TIP3    H2 5962   3.662   2.760   0.866 -1.3582  1.0304 -0.0221
 1986TIP3   OH2 5963   5.202   3.635   2.925 -0.3466 -0.1459  0.0055
 1986TIP3    H1 5964   5.295   3.629   2.948 -0.3492  0.0205  0.0620
 1986TIP3    H2 5965   5.158   3.588   2.996 -0.1685 -2.1690 -1.1457
 1987TIP3   OH2 5966   2.193   5.913   2.172  0.0628  0.1310  0.2157
 1987TIP3    H1 5967   2.254   5.915   2.098 -0.2024 -0.4205 -0.0237
 1987TIP3    H2 5968   2.106   5.917   2.130 -0.0694  1.3422  0.5660
 1988TIP3   OH2 5969   5.134   0.876   1.881 -0.4365  0.3790 -0.1339
 1988TIP3    H1 5970   5.063   0.940   1.881 -1.7307 -0.9786  0.7515
 1988TIP3    H2 5971   5.098   0.800   1.835  0.9663  0.1856 -0.9399
 1989TIP3   OH2 5972   2.419   3.185   0.507  0.3695  0.1409 -0.2641
 1989TIP3    H1 5973   2.379   3.245   0.444  0.0960 -1.0564 -1.2909
 1989TIP3    H2 5974   2.426   3.102   0.459  0.1823 -0.8139  1.2844
 1990TIP3   OH2 5975   5.197   0.352   5.058  0.0201  0.3653  0.0343
 1990TIP3    H1 5976   5.260   0.367   5.129  0.0636 -0.1431  0.1089
 1990TIP3    H2 5977   5.144   0.277   5.089 -0.2332  0.4116 -0.2861
 1991TIP3   OH2 5978   0.106   2.273   1.971  0.4006 -0.5105  0.1290
 1991TIP3    H1 5979   0.107   2.324   2.052  1.3723 -0.7071  0.2534
 1991TIP3    H2 5980   0.025   2.222   1.975 -0.3061  0.5904  0.2683
 1992TIP3   OH2 5981   1.614   3.532   4.191  0.9707  0.2134 -0.0924
 1992TIP3    H1 5982   1.622   3.624   4.164 -0.9440  0.7206  0.8913
 1992TIP3    H2 5983   1.691   3.516   4.245  0.5624  1.7454  1.0161
 1993TIP3   OH2 5984   1.294   2.566   0.385 -0.2705  0.0824  0.6150
 1993TIP3    H1 5985   1.335   2.588   0.301 -0.4681 -2.2811 -0.1929
 1993TIP3    H2 5986   1.368   2.544   0.442 -0.2106  0.0736  0.5346
 1994TIP3   OH2 5987   5.779   1.820   1.646 -0.2876 -0.4294  0.0210
 1994TIP3    H1 5988   5.702   1.763   1.642  0.6466 -1.6686 -0.8589
 1994TIP3    H2 5989   5.786   1.858   1.559  0.6668 -1.1136 -0.2150
 1995TIP3   OH2 5990   2.154   0.231   1.943  0.4736  0.2408  0.0063
 1995TIP3    H1 5991   2.198   0.181   1.873  1.5086  0.3933  0.5249
 1995TIP3    H2 5992   2.209   0.308   1.955 -1.3858  1.8633 -1.1581
 1996TIP3   OH2 5993   5.819   2.718   1.326 -0.3130  0.1158  0.3119
 1996TIP3    H1 5994   5.875   2.764   1.264 -1.2893  1.1431  0.1666
 1996TIP3    H2 5995   5.799   2.783   1.394 -1.8076 -0.0320  0.0403
 1997TIP3   OH2 5996   2.716   2.288   0.698 -0.2276  0.3764  0.0399
 1997TIP3    H1 5997   2.797   2.255   0.659 -0.1531  0.8817 -0.2546
 1997TIP3    H2 5998   2.724   2.383   0.690 -1.2705  0.4113 -0.8551
 1998TIP3   OH2 5999   5.493   0.380   1.160  0.1712 -0.3231  0.3838
 1998TIP3    H1 6000   5.455   0.324   1.092 -0.3259 -0.2404  0.5875
 1998TIP3    H2 6001   5.513   0.462   1.116 -0.3442 -0.1972  0.3792
 1999TIP3   OH2 6002   5.754   5.036   0.097  0.0867  0.3446  0.4767
 1999TIP3    H1 6003   5.736   5.039   0.003  0.5547 -0.0614  0.3729
 1999TIP3    H2 6004   5.687   4.978   0.133  0.3296 -0.0482  0.2942
 2000TIP3   OH2 6005   6.176   3.726   0.917 -0.3760 -0.2293 -0.4717
 2000TIP3    H1 6006   6.203   3.695   0.830  3.0295 -0.1769  0.4256
 2000TIP3    H2 6007   6.250   3.704   0.974 -2.9123 -1.1918  2.6897
 2001TIP3   OH2 6008   1.451   3.267   1.471 -0.1943 -0.0473 -0.2900
 2001TIP3    H1 6009   1.519   3.320   1.430 -0.5326  1.0474  0.5167
 2001TIP3    H2 6010   1.373   3.282   1.418  0.2168 -1.4788 -1.3480
 2002TIP3   OH2 6011   4.429   1.971   3.353 -0.4093  0.5263  0.5542
 2002TIP3    H1 6012   4.516   1.993   3.387 -1.1773  1.3464  2.1189
 2002TIP3    H2 6013   4.420   1.877   3.371  0.2828  0.3460  0.0290
 2003TIP3   OH2 6014   3.066   4.854   2.941 -0.6941 -0.4688 -0.0794
 2003TIP3    H1 6015   3.010   4.780   2.963  0.0570 -1.5324 -1.5847
 2003TIP3    H2 6016   3.098   4.885   3.025 -1.9392 -1.0973  0.6682
 2004TIP3   OH2 6017   2.549   4.370   2.484  0.0437  0.4734  0.1095
 2004TIP3    H1 6018   2.532   4.278   2.504  0.3227  0.3223 -0.3413
 2004TIP3    H2 6019   2.464   4.412   2.492  0.1640  0.4737  1.8504
 2005TIP3   OH2 6020   3.218   4.435   4.632  0.1688 -0.0062 -0.0163
 2005TIP3    H1 6021   3.175   4.353   4.607 -2.2891  0.9643  0.7607
 2005TIP3    H2 6022   3.306   4.408   4.658 -0.7026 -2.5047  0.6878
 2006TIP3   OH2 6023   5.692   4.443   0.300 -0.0702  0.4214  0.1766
 2006TIP3    H1 6024   5.718   4.372   0.242  2.1552  1.9446 -0.8058
 2006TIP3    H2 6025   5.737   4.424   0.382 -0.8474 -0.1600  0.4853
 2007TIP3   OH2 6026   1.780   4.071   0.449  0.0041  0.1150  0.2739
 2007TIP3    H1 6027   1.691   4.052   0.419 -0.9265  0.7727  2.4158
 2007TIP3    H2 6028   1.770   4.145   0.508  1.4812 -1.6252  2.9194
 2008TIP3   OH2 6029   3.072   5.733   5.013 -0.1226  0.0197 -0.5170
 2008TIP3    H1 6030   3.067   5.752   5.107  1.3441  1.2696 -0.6575
 2008TIP3    H2 6031   2.980   5.732   4.985 -0.8395 -3.2760  1.3800
 2009TIP3   OH2 6032   2.358   5.613   2.568 -0.2167 -0.0671 -0.4258
 2009TIP3    H1 6033   2.269   5.576   2.558 -1.1346  0.5895  3.7477
 2009TIP3    H2 6034   2.345   5.708   2.568  0.6768  0.0647 -0.9155
 2010TIP3   OH2 6035   3.821   2.434   4.168  0.2225  0.1113  0.4255
 2010TIP3    H1 6036   3.735   2.466   4.195 -0.3666 -0.7247 -0.3800
 2010TIP3    H2 6037   3.880   2.461   4.238 -1.0878 -1.2127  2.1502
 2011TIP3   OH2 6038   4.914   4.557   0.777  0.0155  0.1126  0.0367
 2011TIP3    H1 6039   4.941   4.588   0.864  0.8985 -1.5695  0.3948
 2011TIP3    H2 6040   4.822   4.534   0.788  0.6272 -2.1131  1.1850
 2012TIP3   OH2 6041   0.652   3.994   0.301 -0.2308 -0.9411 -0.1298
 2012TIP3    H1 6042   0.738   3.963   0.275 -0.7648 -2.7228  0.1105
 2012TIP3    H2 6043   0.663   4.026   0.391  0.5427  0.6308 -0.7363
 2013TIP3   OH2 6044   3.225   5.085   2.593 -0.2751 -0.5482  0.0195
 2013TIP3    H1 6045   3.299   5.046   2.546 -0.9365 -0.4074 -1.1873
 2013TIP3    H2 6046   3.244   5.178   2.595  0.1117 -0.6347  0.7134
 2014TIP3   OH2 6047   4.547   5.639   1.019 -0.4400 -0.1668  0.6553
 2014TIP3    H1 6048   4.604   5.715   1.029  0.0119 -0.5356  0.9063
 2014TIP3    H2 6049   4.570   5.581   1.092  0.6292 -1.4503 -0.6371
 2015TIP3   OH2 6050   2.781   2.732   1.974 -0.0296  0.0587  0.3971
 2015TIP3    H1 6051   2.782   2.649   1.928 -0.7037  0.8225 -1.0556
 2015TIP3    H2 6052   2.870   2.741   2.009  0.2634 -0.9019 -0.0681
 2016TIP3   OH2 6053   5.352   1.954   0.275 -0.2000  0.1069  0.0481
 2016TIP3    H1 6054   5.356   1.960   0.180 -0.3166 -0.5709 -0.0062
 2016TIP3    H2 6055   5.349   1.860   0.293  0.3215  0.2144  0.7411
 2017TIP3   OH2 6056   0.739   5.401   3.954 -0.1372  0.1503  0.2413
 2017TIP3    H1 6057   0.833   5.416   3.961  0.5529 -3.1382 -0.0715
 2017TIP3    H2 6058   0.711   5.378   4.042 -0.6812  1.1744  0.3446
 2018TIP3   OH2 6059   5.659   4.026   0.290 -0.1057  0.1081  0.0355
 2018TIP3    H1 6060   5.708   4.068   0.361  1.1174  1.3551 -1.4606
 2018TIP3    H2 6061   5.724   3.971   0.245 -0.3899  0.6986 -1.1455
 2019TIP3   OH2 6062   1.200   2.912   3.603  0.5104 -0.3792  0.1297
 2019TIP3    H1 6063   1.215   2.864   3.522  3.5811  0.7335 -0.0978
 2019TIP3    H2 6064   1.223   3.002   3.582 -2.8369  0.8798  1.1591
 2020TIP3   OH2 6065   0.296   0.526   4.612 -0.3381  0.1824 -0.1271
 2020TIP3    H1 6066   0.389   0.512   4.594 -0.4962  1.1439 -2.0564
 2020TIP3    H2 6067   0.288   0.621   4.624 -1.1613  0.2248 -0.8303
 2021TIP3   OH2 6068   4.735   0.678   0.423  0.0738 -0.1108 -0.5069
 2021TIP3    H1 6069   4.668   0.647   0.484  0.0506 -0.4622 -0.7046
 2021TIP3    H2 6070   4.817   0.643   0.459  0.3815  1.6906  0.6506
 2022TIP3   OH2 6071   0.587   1.941   4.348  0.4433  0.1590 -0.3878
 2022TIP3    H1 6072   0.668   1.961   4.302 -0.1156  0.8629 -1.1082
 2022TIP3    H2 6073   0.560   2.023   4.388  0.8151 -0.4056  1.0611
 2023TIP3   OH2 6074   6.018   2.914   4.153  0.2221 -0.0490  0.4091
 2023TIP3    H1 6075   6.055   2.990   4.109  0.0222  0.6224  1.3509
 2023TIP3    H2 6076   6.044   2.839   4.100  0.5651  0.6648 -0.4451
 2024TIP3   OH2 6077   0.818   5.042   3.701 -0.1570  0.1270  0.2109
 2024TIP3    H1 6078   0.838   4.969   3.759  1.7335 -0.1123 -0.6786
 2024TIP3    H2 6079   0.775   5.106   3.758  1.7838 -0.0203  1.9435
 2025TIP3   OH2 6080   0.199   0.587   2.808 -0.0459 -0.6265 -0.1008
 2025TIP3    H1 6081   0.161   0.558   2.891  1.6210  0.5153  1.1240
 2025TIP3    H2 6082   0.165   0.525   2.743 -0.9165 -1.9219  1.5229
 2026TIP3   OH2 6083   2.640   2.518   3.159  0.8874 -0.4434  0.0292
 2026TIP3    H1 6084   2.605   2.429   3.158  1.5219 -0.7403  1.8315
 2026TIP3    H2 6085   2.562   2.574   3.156  0.4717 -1.0351 -0.6963
 2027TIP3   OH2 6086   0.551   4.667   0.081  0.4936 -0.0840 -0.0423
 2027TIP3    H1 6087   0.611   4.627   0.018  0.5345  1.3209 -0.9484
 2027TIP3    H2 6088   0.577   4.759   0.084 -1.7411  0.6306 -0.6381
 2028TIP3   OH2 6089   6.195   3.966   3.915  0.0385 -0.1492 -0.0091
 2028TIP3    H1 6090   6.129   3.988   3.981  0.9670  1.1983  0.5071
 2028TIP3    H2 6091   6.241   4.049   3.899  1.8737 -1.1319 -0.0516
 2029TIP3   OH2 6092   3.001   4.565   3.980 -0.1651  0.2097 -0.1466
 2029TIP3    H1 6093   2.982   4.472   3.994 -1.1920  0.5532  0.9382
 2029TIP3    H2 6094   3.081   4.566   3.928 -1.3282 -1.3007 -2.0900
 2030TIP3   OH2 6095   5.385   0.714   2.238  0.2569 -0.0707 -0.1132
 2030TIP3    H1 6096   5.429   0.671   2.164 -0.2966 -0.5602 -0.1628
 2030TIP3    H2 6097   5.297   0.675   2.240 -0.7828  2.0729 -1.0604
 2031TIP3   OH2 6098   0.413   0.925   3.237  0.1551 -0.5101 -0.4196
 2031TIP3    H1 6099   0.391   0.835   3.263 -0.9995 -0.0560  0.2318
 2031TIP3    H2 6100   0.408   0.975   3.318 -1.3833  0.5438 -1.1136
 2032TIP3   OH2 6101   3.997   2.046   2.838 -0.2256  0.5887  0.1091
 2032TIP3    H1 6102   4.004   2.100   2.759 -1.8071 -1.3559 -1.4621
 2032TIP3    H2 6103   4.041   1.964   2.816 -0.5301  0.0731  1.3226
 2033TIP3   OH2 6104   1.406   4.150   2.949 -0.4736  0.0155  0.3690
 2033TIP3    H1 6105   1.454   4.074   2.915 -1.3728 -0.8350  0.9369
 2033TIP3    H2 6106   1.470   4.196   3.004  0.3457  0.2009 -0.7023
 2034TIP3   OH2 6107   2.142   0.543   0.988  0.1071  0.6473 -0.2392
 2034TIP3    H1 6108   2.062   0.575   1.029 -0.1505  0.9396 -0.9386
 2034TIP3    H2 6109   2.201   0.618   0.988  0.4545  0.3782  0.4453
 2035TIP3   OH2 6110   5.601   1.444   1.547  0.5415  0.0910  0.4147
 2035TIP3    H1 6111   5.552   1.397   1.614 -1.6404  2.6510  0.7909
 2035TIP3    H2 6112   5.542   1.448   1.472  2.3584 -1.3957 -1.2135
 2036TIP3   OH2 6113   4.667   4.601   2.616 -0.6047 -0.1286 -0.0123
 2036TIP3    H1 6114   4.683   4.525   2.672 -0.0819 -0.7121 -0.9388
 2036TIP3    H2 6115   4.627   4.566   2.537 -0.9480  0.6417 -0.1946
 2037TIP3   OH2 6116   2.282   4.625   0.557  0.5168 -0.2880 -0.1179
 2037TIP3    H1 6117   2.199   4.603   0.600  1.1498 -3.5395 -0.2862
 2037TIP3    H2 6118   2.257   4.650   0.469 -0.5001  2.8173  0.9160
 2038TIP3   OH2 6119   3.642   2.113   4.990  0.0923  0.0906  0.6079
 2038TIP3    H1 6120   3.728   2.115   4.947 -0.6021  0.9533 -0.7766
 2038TIP3    H2 6121   3.619   2.020   4.992  1.2588 -0.2118  1.4619
 2039TIP3   OH2 6122   2.072   5.599   2.151 -0.6674  0.0314 -0.1134
 2039TIP3    H1 6123   2.002   5.614   2.088 -0.5313  1.6876  0.1002
 2039TIP3    H2 6124   2.087   5.684   2.193  1.0034 -0.4306  0.3336
 2040TIP3   OH2 6125   2.662   3.669   3.474 -0.1453  0.1398  0.1238
 2040TIP3    H1 6126   2.679   3.628   3.389  2.0919 -0.7968  0.9223
 2040TIP3    H2 6127   2.725   3.627   3.533 -0.1647  2.2633  1.7762
 2041TIP3   OH2 6128   3.399   3.359   3.370  0.2489  0.3707 -0.3004
 2041TIP3    H1 6129   3.352   3.401   3.441  2.0851 -0.3652  1.4673
 2041TIP3    H2 6130   3.459   3.298   3.414 -1.0601 -2.8519 -2.6183
 2042TIP3   OH2 6131   3.876   3.343   3.235  0.4138  0.1200  0.0241
 2042TIP3    H1 6132   3.904   3.383   3.318 -1.2919  0.2076  0.5828
 2042TIP3    H2 6133   3.899   3.251   3.244 -0.3937 -0.0110  0.9107
 2043TIP3   OH2 6134   1.589   1.588   1.208 -0.0313  0.5439 -0.0829
 2043TIP3    H1 6135   1.656   1.595   1.140 -1.1044 -1.3640 -1.4211
 2043TIP3    H2 6136   1.527   1.658   1.189  0.7411  1.3203  0.2125
 2044TIP3   OH2 6137   0.141   1.868   3.517  0.5206  0.0507 -0.3985
 2044TIP3    H1 6138   0.100   1.876   3.430 -0.3549  1.0248  0.0841
 2044TIP3    H2 6139   0.067   1.855   3.576  1.1561 -1.1989  0.1460
 2045TIP3   OH2 6140   4.853   4.417   3.736  0.3716 -0.0580  0.2193
 2045TIP3    H1 6141   4.884   4.435   3.647  3.4782  0.0332  1.1934
 2045TIP3    H2 6142   4.811   4.499   3.764 -0.5824 -0.0710 -1.0918
 2046TIP3   OH2 6143   5.151   5.791   0.536 -0.4337 -0.0180  0.0393
 2046TIP3    H1 6144   5.156   5.796   0.631 -1.2760 -0.1849  0.0973
 2046TIP3    H2 6145   5.185   5.875   0.506 -2.2597  0.9767  0.5736
 2047TIP3   OH2 6146   3.001   4.003   4.463  0.0704  0.3019  0.0094
 2047TIP3    H1 6147   3.079   4.002   4.408  0.5626  0.3325  0.6966
 2047TIP3    H2 6148   2.958   3.920   4.444 -0.0141  0.5172 -0.7649
 2048TIP3   OH2 6149   3.570   3.879   4.413  0.2518  0.7087 -0.0489
 2048TIP3    H1 6150   3.540   3.906   4.500 -0.0364 -0.5750  0.2788
 2048TIP3    H2 6151   3.650   3.929   4.399  0.7897  0.3017  1.3562
 2049TIP3   OH2 6152   6.160   5.592   3.083  0.4538  0.1912  0.1433
 2049TIP3    H1 6153   6.166   5.561   2.993 -1.0791  1.3971 -0.4349
 2049TIP3    H2 6154   6.077   5.555   3.115 -0.5487  2.1636 -0.0037
 2050TIP3   OH2 6155   4.384   1.597   2.342  0.5393  0.3008 -0.3405
 2050TIP3    H1 6156   4.449   1.623   2.277 -0.1841 -0.4784 -1.4021
 2050TIP3    H2 6157   4.304   1.642   2.316  0.2059 -0.1281 -0.0771
 2051TIP3   OH2 6158   4.457   1.914   3.077  0.1058 -0.5114 -0.0301
 2051TIP3    H1 6159   4.441   1.938   3.168 -1.5796 -0.3574 -0.3333
 2051TIP3    H2 6160   4.528   1.971   3.049 -0.2137  0.3238  0.8171
 2052TIP3   OH2 6161   5.699   4.393   4.130  0.4499  0.1920  0.4747
 2052TIP3    H1 6162   5.626   4.402   4.192 -0.2020  0.8784 -0.3818
 2052TIP3    H2 6163   5.694   4.302   4.101 -0.3289  0.3357  0.1179
 2053TIP3   OH2 6164   4.132   0.683   1.995 -0.0954 -0.0308 -0.4881
 2053TIP3    H1 6165   4.056   0.636   1.961 -0.4723  0.9896 -1.0847
 2053TIP3    H2 6166   4.188   0.697   1.919  0.0546  0.3904 -0.3038
 2054TIP3   OH2 6167   6.240   4.281   2.826 -0.4973 -0.4215  0.0728
 2054TIP3    H1 6168   6.331   4.258   2.805 -0.4147  1.6894 -2.4063
 2054TIP3    H2 6169   6.245   4.371   2.856 -1.7977 -0.1399 -0.4975
 2055TIP3   OH2 6170   4.773   0.807   2.079 -0.3187 -0.4568  0.0111
 2055TIP3    H1 6171   4.778   0.770   1.990  1.5459  0.9456 -0.5378
 2055TIP3    H2 6172   4.750   0.733   2.134 -2.7081 -1.1513 -1.7376
 2056TIP3   OH2 6173   1.387   2.967   4.275  0.8283 -0.3087  0.1934
 2056TIP3    H1 6174   1.471   2.976   4.231  0.5029 -0.0347 -0.3797
 2056TIP3    H2 6175   1.322   2.981   4.206  0.3082 -1.5705  0.4115
 2057TIP3   OH2 6176   4.962   0.305   0.078 -0.2559  0.3277  0.1974
 2057TIP3    H1 6177   4.982   0.288  -0.014 -0.8440  1.8646 -0.2410
 2057TIP3    H2 6178   5.021   0.247   0.126  0.7529  0.1970 -1.1363
 2058TIP3   OH2 6179   1.465   4.285   1.730  0.1573  0.5374 -0.2215
 2058TIP3    H1 6180   1.382   4.240   1.748  0.5471  0.8280  2.8919
 2058TIP3    H2 6181   1.504   4.235   1.658 -0.7412 -2.4189  1.1748
 2059TIP3   OH2 6182   5.423   5.509   3.131  0.7112 -0.4480 -0.5112
 2059TIP3    H1 6183   5.370   5.468   3.200 -0.1724 -1.9834 -2.0276
 2059TIP3    H2 6184   5.372   5.585   3.104  0.0459 -1.0107 -0.8646
 2060TIP3   OH2 6185   1.150   5.241   2.018  0.0864 -0.3344  0.0978
 2060TIP3    H1 6186   1.236   5.237   2.060  0.6013 -0.8826 -0.9598
 2060TIP3    H2 6187   1.106   5.314   2.061  1.0310 -0.1278  0.7508
 2061TIP3   OH2 6188   1.759   5.504   4.639 -0.2945  0.5972  0.4835
 2061TIP3    H1 6189   1.682   5.519   4.693 -1.2951  1.3293 -1.0623
 2061TIP3    H2 6190   1.750   5.413   4.609 -1.9189  1.3773 -1.6332
 2062TIP3   OH2 6191   5.552   0.411   3.525  0.2277  0.4492  0.0489
 2062TIP3    H1 6192   5.503   0.439   3.448  0.2794  0.2532 -0.0552
 2062TIP3    H2 6193   5.638   0.453   3.516 -0.0416  1.0954  0.4194
 2063TIP3   OH2 6194   4.357   3.054   1.928  0.6673 -0.3900  0.1645
 2063TIP3    H1 6195   4.326   3.039   1.839  1.5188 -0.1164 -0.1902
 2063TIP3    H2 6196   4.289   3.108   1.969  1.0431  0.9119 -0.8515
 2064TIP3   OH2 6197   3.690   0.122   0.021  0.6412  0.0023  0.1606
 2064TIP3    H1 6198   3.714   0.213   0.004  0.2031  0.0516 -0.2207
 2064TIP3    H2 6199   3.594   0.123   0.022  0.6251 -0.5614 -0.4664
 2065TIP3   OH2 6200   4.380   4.750   3.031 -0.2822  0.0072  0.2855
 2065TIP3    H1 6201   4.307   4.687   3.033 -0.9821  0.8002  1.6838
 2065TIP3    H2 6202   4.447   4.710   3.086  0.0105 -0.3301 -0.3065
 2066TIP3   OH2 6203   2.307   3.395   2.815  0.5110 -0.2803 -0.0680
 2066TIP3    H1 6204   2.393   3.355   2.831 -0.0589 -0.8052  1.9379
 2066TIP3    H2 6205   2.264   3.335   2.754  0.6619 -1.3280  0.8371
 2067TIP3   OH2 6206   1.045   5.902   4.258 -0.4924 -0.2343 -0.2707
 2067TIP3    H1 6207   1.112   5.855   4.208 -0.9786 -0.0798 -1.0789
 2067TIP3    H2 6208   1.080   5.991   4.267  0.3192 -0.6520  1.0540
 2068TIP3   OH2 6209   2.406   2.519   4.057 -0.2449 -0.5741  0.2451
 2068TIP3    H1 6210   2.409   2.424   4.064  1.8346 -0.5617  0.2381
 2068TIP3    H2 6211   2.321   2.544   4.093 -0.6171 -2.3969  0.7031
 2069TIP3   OH2 6212   3.005   4.284   4.907 -0.1941  0.2164 -0.3689
 2069TIP3    H1 6213   2.979   4.199   4.943 -0.4019 -0.4404 -1.9807
 2069TIP3    H2 6214   2.947   4.347   4.948  0.5378 -0.2799  1.5277
 2070TIP3   OH2 6215   0.120   3.428   1.304 -0.3287 -0.1677  0.4666
 2070TIP3    H1 6216   0.054   3.427   1.235  1.7241  0.2164 -1.6004
 2070TIP3    H2 6217   0.078   3.474   1.376 -2.0772  0.6711 -1.0110
 2071TIP3   OH2 6218   4.961   0.724   1.710  0.5469  0.1604 -0.2299
 2071TIP3    H1 6219   4.976   0.734   1.616  1.1881  1.1982 -0.0314
 2071TIP3    H2 6220   4.880   0.771   1.727  1.2198  1.2809 -0.0315
 2072TIP3   OH2 6221   4.693   2.404   2.058 -0.0567 -0.4753  0.0137
 2072TIP3    H1 6222   4.620   2.463   2.037 -0.0090 -0.4386 -0.0523
 2072TIP3    H2 6223   4.652   2.325   2.092 -0.1677 -0.7235 -0.6660
 2073TIP3   OH2 6224   2.520   0.492   2.577 -0.0233  0.6245 -0.3398
 2073TIP3    H1 6225   2.610   0.495   2.609 -0.1020  1.3922 -0.1841
 2073TIP3    H2 6226   2.505   0.399   2.557  0.9439  0.5554 -0.7936
 2074TIP3   OH2 6227   5.060   2.480   4.828 -0.3436 -0.2108  0.3000
 2074TIP3    H1 6228   5.022   2.567   4.819 -0.5649 -0.4658 -1.5551
 2074TIP3    H2 6229   5.133   2.492   4.888  0.3367  1.4962 -0.8081
 2075TIP3   OH2 6230   6.047   3.564   4.568 -0.1130 -0.3847 -0.0904
 2075TIP3    H1 6231   6.045   3.503   4.641 -0.0334  0.1951  0.4112
 2075TIP3    H2 6232   6.007   3.517   4.495  0.5166 -1.2442  0.1062
 2076TIP3   OH2 6233   2.351   4.375   4.034 -0.4395  0.0142 -0.1893
 2076TIP3    H1 6234   2.351   4.437   3.961  1.7257  0.1259 -0.1703
 2076TIP3    H2 6235   2.298   4.302   4.004 -2.4005  1.4956 -0.5166
 2077TIP3   OH2 6236   3.996   3.120   2.991  0.4758  0.2106 -0.0014
 2077TIP3    H1 6237   4.028   3.192   2.937  1.9007  0.4943  1.1555
 2077TIP3    H2 6238   4.043   3.043   2.958 -1.1468 -0.2771 -1.3281
 2078TIP3   OH2 6239   1.547   4.288   0.270  0.2698  0.1711 -0.2897
 2078TIP3    H1 6240   1.565   4.381   0.283 -0.3901  0.5236 -1.6764
 2078TIP3    H2 6241   1.452   4.284   0.255  0.1865 -0.8191  0.3754
 2079TIP3   OH2 6242   1.231   4.072   2.690 -0.1908 -0.4542 -0.5879
 2079TIP3    H1 6243   1.141   4.040   2.695 -0.1703 -0.3000  1.6391
 2079TIP3    H2 6244   1.245   4.118   2.772  1.2713  1.3797 -1.7977
 2080TIP3   OH2 6245   6.261   1.726   0.783 -0.0085  0.0606  0.1593
 2080TIP3    H1 6246   6.192   1.702   0.844  0.9547 -1.3152  0.7635
 2080TIP3    H2 6247   6.294   1.810   0.816 -1.1514  0.5754  0.0419
 2081TIP3   OH2 6248   4.814   2.764   0.535  0.2800  0.4122 -0.0861
 2081TIP3    H1 6249   4.888   2.731   0.585 -0.5414 -0.8316  0.3536
 2081TIP3    H2 6250   4.834   2.742   0.445  0.2500 -0.2995  0.0805
 2082TIP3   OH2 6251   4.129   4.725   0.309  0.7713  0.0095  0.2572
 2082TIP3    H1 6252   4.180   4.656   0.266 -0.3273 -0.2237 -0.7138
 2082TIP3    H2 6253   4.045   4.725   0.263 -0.3922 -0.0797  2.2406
 2083TIP3   OH2 6254   3.865   3.208   1.162 -0.5869 -0.4598  0.5164
 2083TIP3    H1 6255   3.771   3.222   1.176 -0.3776 -0.2594  1.7794
 2083TIP3    H2 6256   3.878   3.115   1.179 -0.4093 -0.3054  1.2567
 2084TIP3   OH2 6257   5.320   4.279   0.608 -0.6831  0.0421 -0.3601
 2084TIP3    H1 6258   5.375   4.315   0.539 -0.9424 -0.7656 -1.0169
 2084TIP3    H2 6259   5.261   4.350   0.633  1.9274  1.6297  1.8351
 2085TIP3   OH2 6260   5.484   0.099   1.882 -0.4368  0.1049 -0.1281
 2085TIP3    H1 6261   5.533   0.107   1.964  0.6449  0.1731 -0.7604
 2085TIP3    H2 6262   5.396   0.129   1.904  0.0527  0.9124  0.8162
 2086TIP3   OH2 6263   1.487   0.118   1.888  0.2442 -0.3415 -0.3862
 2086TIP3    H1 6264   1.467   0.136   1.979  0.8262  2.1036 -0.6808
 2086TIP3    H2 6265   1.406   0.138   1.841  0.0996 -1.1053 -0.4771
 2087TIP3   OH2 6266   4.747   2.163   4.696 -0.2537  0.1829  0.5746
 2087TIP3    H1 6267   4.701   2.095   4.745  0.5481  0.1453  1.2940
 2087TIP3    H2 6268   4.781   2.222   4.763  1.5234 -0.2874  0.1452
 2088TIP3   OH2 6269   4.528   3.706   3.843  0.5598 -0.7564 -0.3251
 2088TIP3    H1 6270   4.526   3.624   3.795 -2.5725 -0.4683 -0.9589
 2088TIP3    H2 6271   4.529   3.681   3.935  1.0544 -1.4612 -0.5225
 2089TIP3   OH2 6272   5.849   5.357   4.110 -0.2119 -0.3424 -0.4745
 2089TIP3    H1 6273   5.799   5.394   4.037  0.9110  2.0224 -0.1570
 2089TIP3    H2 6274   5.935   5.338   4.073  0.0193 -0.1802 -0.0332
 2090TIP3   OH2 6275   0.698   1.040   1.505  0.2398 -0.1653  0.1588
 2090TIP3    H1 6276   0.653   1.124   1.504  0.4406 -0.0234 -1.8195
 2090TIP3    H2 6277   0.765   1.049   1.573  0.7165  1.5540 -0.4854
 2091TIP3   OH2 6278   2.580   5.401   0.153 -0.2637 -0.3738  0.7060
 2091TIP3    H1 6279   2.554   5.319   0.195 -0.2072 -0.5555  0.3908
 2091TIP3    H2 6280   2.500   5.452   0.145 -0.0231  0.3789  2.5664
 2092TIP3   OH2 6281   2.458   3.419   4.339 -0.1748  0.1418  0.0481
 2092TIP3    H1 6282   2.472   3.333   4.300 -0.3215  0.1005  0.0855
 2092TIP3    H2 6283   2.486   3.481   4.271 -0.8536  0.0780 -0.2963
 2093TIP3   OH2 6284   5.158   4.228   2.824  0.3069  0.3153 -0.7565
 2093TIP3    H1 6285   5.116   4.217   2.739  2.0894  1.3159 -1.8375
 2093TIP3    H2 6286   5.230   4.164   2.823  1.1485  1.2329 -0.5928
 2094TIP3   OH2 6287   5.367   3.852   1.827 -0.5152  0.1090  0.5161
 2094TIP3    H1 6288   5.450   3.894   1.805 -1.1087  0.3170 -1.6408
 2094TIP3    H2 6289   5.375   3.763   1.793 -0.1790 -0.8079  2.8421
 2095TIP3   OH2 6290   6.274   2.912   0.577  0.7632 -0.2787  0.5430
 2095TIP3    H1 6291   6.331   2.841   0.546  0.4416 -0.3043 -0.0043
 2095TIP3    H2 6292   6.275   2.976   0.505  0.7281  0.0859  0.8626
 2096TIP3   OH2 6293   0.596   1.162   0.312 -0.2170  0.3471  0.2155
 2096TIP3    H1 6294   0.570   1.199   0.396 -1.0631  0.5187 -0.1075
 2096TIP3    H2 6295   0.635   1.236   0.264 -2.0047  0.9141 -0.4709
 2097TIP3   OH2 6296   3.387   4.722   3.237 -0.1397  0.3072  0.0998
 2097TIP3    H1 6297   3.336   4.645   3.211  1.3095 -0.7476  0.2608
 2097TIP3    H2 6298   3.359   4.741   3.326  0.8017 -1.2235  0.7672
 2098TIP3   OH2 6299   4.063   1.640   3.529 -0.3043 -0.4003  0.3362
 2098TIP3    H1 6300   4.088   1.625   3.437  2.1042 -0.6532  0.9626
 2098TIP3    H2 6301   3.973   1.673   3.524 -0.7227 -1.6613 -2.0124
 2099TIP3   OH2 6302   4.041   5.247   2.810 -0.1145 -0.1202  0.5066
 2099TIP3    H1 6303   3.969   5.231   2.871  0.1958  3.1372  1.9729
 2099TIP3    H2 6304   4.001   5.291   2.735  0.0625 -0.2812  0.3155
 2100TIP3   OH2 6305   2.656   4.647   1.437  0.0567  1.0012 -0.4906
 2100TIP3    H1 6306   2.609   4.704   1.376 -0.8226 -0.5084 -1.2606
 2100TIP3    H2 6307   2.649   4.560   1.399  2.0241  0.4628  0.2754
 2101TIP3   OH2 6308   0.087   2.783   4.589 -0.8012  0.0475 -0.3941
 2101TIP3    H1 6309   0.037   2.771   4.508 -2.5610 -0.6204  0.7547
 2101TIP3    H2 6310   0.101   2.877   4.595 -2.8950  0.3812 -0.2105
 2102TIP3   OH2 6311   2.562   5.845   1.671  0.2186 -0.5421 -0.3799
 2102TIP3    H1 6312   2.572   5.808   1.583  0.7988 -1.5272  0.0842
 2102TIP3    H2 6313   2.470   5.829   1.693  0.2242 -0.8378 -0.5652
 2103TIP3   OH2 6314   5.948   4.733   4.362  0.0955  0.0634 -0.2160
 2103TIP3    H1 6315   6.003   4.678   4.308  0.1999  0.3054 -0.3558
 2103TIP3    H2 6316   5.910   4.797   4.302 -1.9396 -1.3126 -0.5048
 2104TIP3   OH2 6317   4.180   2.649   2.489 -0.1984  0.0475 -0.3580
 2104TIP3    H1 6318   4.267   2.617   2.511 -0.1356 -0.0506 -0.7555
 2104TIP3    H2 6319   4.126   2.569   2.483 -0.4386  0.1368  0.4014
 2105TIP3   OH2 6320   0.188   1.019   2.083 -0.8210  0.3070  0.0542
 2105TIP3    H1 6321   0.162   1.035   2.173  0.3019 -1.3162  0.7145
 2105TIP3    H2 6322   0.225   1.103   2.053 -0.6690  0.6996  1.3019
 2106TIP3   OH2 6323   4.860   4.109   1.386 -0.1923  0.0707  0.2687
 2106TIP3    H1 6324   4.909   4.100   1.305 -1.3442 -0.5270 -0.3937
 2106TIP3    H2 6325   4.887   4.034   1.439  0.0549  0.0824  0.1594
 2107TIP3   OH2 6326   3.985   5.581   0.442  0.2679  0.3461  0.2839
 2107TIP3    H1 6327   3.993   5.659   0.497  1.4554  0.4098  0.0343
 2107TIP3    H2 6328   4.073   5.543   0.441 -0.3900 -1.2917  0.8159
 2108TIP3   OH2 6329   4.041   0.290   4.855 -0.2430 -0.1980  0.1137
 2108TIP3    H1 6330   4.086   0.373   4.875  1.6635 -0.8659 -1.0579
 2108TIP3    H2 6331   3.953   0.302   4.889  0.5008  1.6195  1.6407
 2109TIP3   OH2 6332   0.643   1.747   2.596 -0.2271  0.6389  0.1015
 2109TIP3    H1 6333   0.655   1.750   2.501  1.4198 -1.4798  0.1792
 2109TIP3    H2 6334   0.563   1.695   2.609 -1.1633  1.9663 -0.0929
 2110TIP3   OH2 6335   1.933   1.574   1.590 -0.6930 -0.1110  0.4191
 2110TIP3    H1 6336   1.855   1.628   1.598  0.0188  0.8704  1.1455
 2110TIP3    H2 6337   2.005   1.632   1.618  0.2097 -1.1651  0.3713
 2111TIP3   OH2 6338   0.603   2.516   4.271 -0.3760 -0.2629 -0.0106
 2111TIP3    H1 6339   0.554   2.520   4.353 -1.4340 -1.5158 -0.5390
 2111TIP3    H2 6340   0.602   2.606   4.238  0.6806  0.4088  1.6579
 2112TIP3   OH2 6341   5.422   4.034   0.526 -0.5380 -0.3148  0.0555
 2112TIP3    H1 6342   5.425   4.043   0.431 -2.3745 -0.1030 -0.0238
 2112TIP3    H2 6343   5.357   4.099   0.554 -0.9778 -1.2473  1.3075
 2113TIP3   OH2 6344   0.456   3.130   0.566  0.1685 -0.0443 -0.6012
 2113TIP3    H1 6345   0.546   3.099   0.555  0.3160  0.1595 -0.0334
 2113TIP3    H2 6346   0.440   3.187   0.491  1.2406  1.5664  0.3360
 2114TIP3   OH2 6347   4.400   2.919   2.431  0.5249 -0.9148  0.0240
 2114TIP3    H1 6348   4.323   2.897   2.380  2.3221 -1.5430 -2.6235
 2114TIP3    H2 6349   4.434   2.835   2.461  0.0976 -0.6245  1.4052
 2115TIP3   OH2 6350   0.678   5.746   0.335  0.4662 -0.3585 -0.0573
 2115TIP3    H1 6351   0.656   5.660   0.368  0.3266  0.2306  1.4492
 2115TIP3    H2 6352   0.600   5.799   0.350  0.4458 -0.0236 -1.2348
 2116TIP3   OH2 6353   4.341   0.587   3.426 -0.4065  0.4411 -0.6158
 2116TIP3    H1 6354   4.287   0.566   3.502  0.6223 -0.0583  0.0015
 2116TIP3    H2 6355   4.291   0.554   3.352 -0.9990  0.0734 -0.0696
 2117TIP3   OH2 6356   5.418   2.312   1.714  0.5289  0.2794 -0.6483
 2117TIP3    H1 6357   5.360   2.277   1.647  1.5105  0.2507 -1.5145
 2117TIP3    H2 6358   5.360   2.345   1.782 -0.4608 -1.4120 -0.6281
 2118TIP3   OH2 6359   6.167   3.372   5.203 -0.0545 -0.0890 -0.3389
 2118TIP3    H1 6360   6.205   3.330   5.125  1.2979  0.0191  0.2460
 2118TIP3    H2 6361   6.073   3.355   5.194 -0.1838  1.3914 -2.8928
 2119TIP3   OH2 6362   0.115   5.511   1.182 -0.9152  0.0184  0.1499
 2119TIP3    H1 6363   0.075   5.520   1.268 -0.7665 -0.8806  0.3257
 2119TIP3    H2 6364   0.190   5.453   1.196 -0.5365  0.3378 -0.4810
 2120TIP3   OH2 6365   1.108   2.598   0.584  0.5630  1.2529 -0.5145
 2120TIP3    H1 6366   1.166   2.547   0.640  0.8589  2.0473 -0.0917
 2120TIP3    H2 6367   1.165   2.632   0.515  0.7470  2.5707  0.2617
 2121TIP3   OH2 6368   4.309   0.827   2.956 -0.2838  0.4935  0.0639
 2121TIP3    H1 6369   4.264   0.888   3.015 -1.2976  0.5828 -0.7834
 2121TIP3    H2 6370   4.378   0.879   2.915  0.4982  0.4127  1.1946
 2122TIP3   OH2 6371   1.962   1.329   3.715  0.3107 -0.3609 -0.7606
 2122TIP3    H1 6372   2.050   1.326   3.678  0.5522 -1.7519 -0.1249
 2122TIP3    H2 6373   1.943   1.422   3.723  2.1312 -0.0047  0.0061
 2123TIP3   OH2 6374   3.492   1.464   0.601 -0.3324 -0.1197 -0.5491
 2123TIP3    H1 6375   3.474   1.371   0.618 -0.5443 -0.0418 -0.3464
 2123TIP3    H2 6376   3.407   1.506   0.605 -0.1559  0.1925  0.0324
 2124TIP3   OH2 6377   2.773   0.888   4.658  0.1650  0.6008  0.1202
 2124TIP3    H1 6378   2.689   0.861   4.621  0.0723  1.4896 -0.3397
 2124TIP3    H2 6379   2.839   0.853   4.598  0.1457 -0.2419  0.5714
 2125TIP3   OH2 6380   3.273   0.562   2.811  0.3998  0.0712  0.2231
 2125TIP3    H1 6381   3.349   0.509   2.836  0.6234  0.7321  0.9692
 2125TIP3    H2 6382   3.301   0.652   2.823 -0.5769  0.3257  0.7271
 2126TIP3   OH2 6383   5.991   2.652   1.872 -0.4471  0.2188  0.3199
 2126TIP3    H1 6384   5.961   2.564   1.894  0.6720  0.5161  3.4955
 2126TIP3    H2 6385   5.910   2.704   1.863 -1.0585 -0.7463  0.1129
 2127TIP3   OH2 6386   6.301   5.124   0.213 -0.5271 -0.6344  0.8459
 2127TIP3    H1 6387   6.343   5.180   0.278 -0.7961 -0.5200  0.9221
 2127TIP3    H2 6388   6.208   5.126   0.236 -0.9621  1.0734 -0.7401
 2128TIP3   OH2 6389   2.871   2.230   2.470  0.0429  0.1509  0.0629
 2128TIP3    H1 6390   2.792   2.180   2.491 -0.8434  1.4812 -0.0034
 2128TIP3    H2 6391   2.881   2.291   2.542  1.6283 -0.6809  0.5844
 2129TIP3   OH2 6392   1.173   3.960   4.046 -0.1184  0.3208 -0.6390
 2129TIP3    H1 6393   1.195   3.897   4.115 -0.7235  1.1462  0.3285
 2129TIP3    H2 6394   1.124   4.029   4.090  0.8048  1.6508 -1.6225
 2130TIP3   OH2 6395   4.819   0.535   2.552  0.1800 -0.4683  0.2127
 2130TIP3    H1 6396   4.796   0.466   2.614  0.3733  0.2771  1.1442
 2130TIP3    H2 6397   4.849   0.608   2.607 -0.7626  0.6521 -0.6783
 2131TIP3   OH2 6398   4.482   1.988   0.912  0.1286  0.0832 -1.1128
 2131TIP3    H1 6399   4.417   2.003   0.981  0.6919  0.1119 -0.5741
 2131TIP3    H2 6400   4.431   1.977   0.832 -0.5286  0.2304 -0.7183
 2132TIP3   OH2 6401   2.757   2.495   1.546  0.3039  0.0652 -0.6195
 2132TIP3    H1 6402   2.831   2.554   1.560 -0.4363  1.2332 -1.4206
 2132TIP3    H2 6403   2.680   2.550   1.561 -0.4011 -0.7815 -1.0938
 2133TIP3   OH2 6404   6.322   4.905   4.143 -0.4427 -0.5245  0.3049
 2133TIP3    H1 6405   6.276   4.987   4.129 -0.4010 -0.2203  1.7413
 2133TIP3    H2 6406   6.366   4.917   4.227  0.6163 -1.5468 -0.0821
 2134TIP3   OH2 6407   1.123   3.759   0.973  0.2761  0.4038 -0.3395
 2134TIP3    H1 6408   1.213   3.726   0.965  0.2168  0.2431 -0.3397
 2134TIP3    H2 6409   1.076   3.689   1.017  0.2723  0.7070  0.1431
 2135TIP3   OH2 6410   2.479   0.829   0.794 -0.6471  0.4363  0.3796
 2135TIP3    H1 6411   2.472   0.803   0.886  0.1634  1.0140  0.6220
 2135TIP3    H2 6412   2.407   0.890   0.780  0.3218  1.8309  1.1890
 2136TIP3   OH2 6413   6.263   0.113   1.986  0.4074 -0.5853  0.2582
 2136TIP3    H1 6414   6.211   0.176   1.937  0.5913  0.2475  1.1168
 2136TIP3    H2 6415   6.312   0.066   1.918  0.4983  0.3989 -0.3860
 2137TIP3   OH2 6416   6.304   4.051   1.092  0.0690  0.3117  0.0929
 2137TIP3    H1 6417   6.280   4.004   1.171 -0.6499  0.0725 -0.2525
 2137TIP3    H2 6418   6.390   4.017   1.068  0.2264  0.2898  0.6935
 2138TIP3   OH2 6419   6.161   5.507   2.821  0.1085  0.8432 -0.4866
 2138TIP3    H1 6420   6.241   5.491   2.769  0.6329  0.2302  0.4809
 2138TIP3    H2 6421   6.149   5.601   2.817  0.7220  0.9139 -0.8982
 2139TIP3   OH2 6422   4.158   4.180   5.079 -0.1849  0.0413 -0.0284
 2139TIP3    H1 6423   4.237   4.171   5.025  0.4913 -2.4001  1.1692
 2139TIP3    H2 6424   4.152   4.096   5.125 -1.3222  1.5520  2.8320
 2140TIP3   OH2 6425   5.567   5.659   2.913 -0.0875  0.1376 -0.1708
 2140TIP3    H1 6426   5.512   5.604   2.857 -1.7119  2.2318 -0.7981
 2140TIP3    H2 6427   5.510   5.680   2.987  1.6348 -1.6209  1.7652
 2141TIP3   OH2 6428   4.520   2.595   0.636 -0.0587 -0.0165  0.3793
 2141TIP3    H1 6429   4.542   2.565   0.548  0.7492  0.0091  0.5549
 2141TIP3    H2 6430   4.443   2.650   0.626  0.6592  0.8633 -0.4656
 2142TIP3   OH2 6431   5.844   3.362   0.188 -0.2332 -0.0943  0.0206
 2142TIP3    H1 6432   5.937   3.369   0.167 -0.6975  2.1542 -1.6591
 2142TIP3    H2 6433   5.819   3.449   0.220 -1.1497 -1.4828  3.6881
 2143TIP3   OH2 6434   3.220   0.934   2.866 -0.9426 -0.1947  0.3126
 2143TIP3    H1 6435   3.261   0.937   2.780  0.3150  0.1706  0.8942
 2143TIP3    H2 6436   3.237   1.020   2.904 -0.8744 -0.5806  1.1891
 2144TIP3   OH2 6437   0.432   2.762   5.017 -0.3207 -0.8401 -0.3634
 2144TIP3    H1 6438   0.481   2.738   5.095 -1.2474 -0.2241  0.4315
 2144TIP3    H2 6439   0.404   2.852   5.033  0.6261 -0.2069 -2.0091
 2145TIP3   OH2 6440   1.978   0.320   0.120 -0.8478  0.5460 -0.2655
 2145TIP3    H1 6441   1.954   0.377   0.047 -0.6910  1.7551  0.6051
 2145TIP3    H2 6442   2.015   0.379   0.186 -0.9785 -0.5198  0.7939
 2146TIP3   OH2 6443   6.125   4.530   0.015 -0.1726 -0.3087  0.0616
 2146TIP3    H1 6444   6.139   4.613  -0.030 -0.9238 -1.2332 -2.0451
 2146TIP3    H2 6445   6.206   4.515   0.064  0.9011  0.5861 -1.3532
 2147TIP3   OH2 6446   2.472   2.760   4.574 -0.5223  0.5119  0.0150
 2147TIP3    H1 6447   2.513   2.692   4.521 -1.8381  0.1241 -0.5609
 2147TIP3    H2 6448   2.407   2.799   4.515 -2.1088 -0.0047  1.3607
 2148TIP3   OH2 6449   4.224   5.181   2.175 -0.0811  0.4231  0.0919
 2148TIP3    H1 6450   4.255   5.207   2.262  0.4999 -1.3965  0.4651
 2148TIP3    H2 6451   4.303   5.160   2.126 -0.5001 -0.3457 -0.2753
 2149TIP3   OH2 6452   3.573   4.619   2.180 -0.3547 -0.4115 -0.7461
 2149TIP3    H1 6453   3.522   4.539   2.192 -0.2631 -0.1432  2.2053
 2149TIP3    H2 6454   3.518   4.688   2.218  0.8733  0.4015 -0.3815
 2150TIP3   OH2 6455   1.079   3.214   4.471 -0.6939 -0.6733  0.0328
 2150TIP3    H1 6456   1.027   3.153   4.419  1.1620 -0.8176 -1.7422
 2150TIP3    H2 6457   1.062   3.299   4.432 -1.3795 -0.3548  0.9687
 2151TIP3   OH2 6458   0.178   4.880   2.655  0.2077  0.5333  0.3475
 2151TIP3    H1 6459   0.263   4.870   2.612 -0.5621  0.6151 -1.2477
 2151TIP3    H2 6460   0.127   4.936   2.597 -1.1514 -0.0223  0.9433
 2152TIP3   OH2 6461   1.124   5.969   3.341  0.1448  0.2709 -0.3675
 2152TIP3    H1 6462   1.199   5.957   3.398 -1.0050  1.3939  1.4840
 2152TIP3    H2 6463   1.115   5.886   3.295  1.7735 -0.2855  0.2637
 2153TIP3   OH2 6464   1.393   5.032   3.657  0.2097 -0.7136  0.0185
 2153TIP3    H1 6465   1.370   5.100   3.594  0.1167 -0.3018  0.4864
 2153TIP3    H2 6466   1.481   5.005   3.632  0.9797  0.8386  0.8704
 2154TIP3   OH2 6467   4.679   1.208   4.755  0.3362  0.7963 -0.3945
 2154TIP3    H1 6468   4.588   1.216   4.726  0.0964  0.8939  0.3871
 2154TIP3    H2 6469   4.686   1.118   4.785  0.4006  0.8910 -0.1266
 2155TIP3   OH2 6470   4.911   2.703   2.213  0.4980 -0.0003 -0.0105
 2155TIP3    H1 6471   4.878   2.623   2.255  0.4275  0.0678  0.0652
 2155TIP3    H2 6472   4.835   2.761   2.211  0.4176 -0.1247 -0.5351
 2156TIP3   OH2 6473   3.966   1.901   1.952  0.2915  0.4623  0.2792
 2156TIP3    H1 6474   3.894   1.951   1.915 -1.0554 -0.4698  1.5072
 2156TIP3    H2 6475   3.977   1.826   1.893 -0.3659  0.1366  0.5626
 2157TIP3   OH2 6476   3.359   3.522   0.059  0.2692  0.0815 -0.0117
 2157TIP3    H1 6477   3.366   3.497  -0.033 -0.6308 -0.4128  0.0351
 2157TIP3    H2 6478   3.378   3.615   0.061  1.4879 -0.1349 -0.5230
 2158TIP3   OH2 6479   5.118   1.883   1.967  0.7506 -0.1874 -0.1014
 2158TIP3    H1 6480   5.128   1.814   2.033  1.7510 -0.0810 -0.1256
 2158TIP3    H2 6481   5.174   1.855   1.895 -0.8905 -0.6633 -1.2302
 2159TIP3   OH2 6482   5.079   1.288   4.198  0.0115 -0.1273 -0.1656
 2159TIP3    H1 6483   5.032   1.341   4.134 -2.3938 -2.4801 -0.5563
 2159TIP3    H2 6484   5.037   1.308   4.282 -0.9223 -1.2826 -0.3164
 2160TIP3   OH2 6485   0.812   1.456   1.195 -0.4432  0.6847  0.1656
 2160TIP3    H1 6486   0.738   1.515   1.209 -1.1433  0.7735 -3.1134
 2160TIP3    H2 6487   0.776   1.369   1.210 -1.7614  0.6113 -2.7703
 2161TIP3   OH2 6488   2.997   1.689   3.005 -0.1824  0.1257 -0.1389
 2161TIP3    H1 6489   3.070   1.683   2.944  2.3718 -1.2148  2.7890
 2161TIP3    H2 6490   2.952   1.605   2.998 -0.9928  0.6244 -1.3122
 2162TIP3   OH2 6491   1.159   0.262   0.806 -0.3433 -0.2190  0.4306
 2162TIP3    H1 6492   1.093   0.194   0.793  0.7637 -1.4293  0.8299
 2162TIP3    H2 6493   1.200   0.273   0.720 -1.3002  0.7974  0.0997
 2163TIP3   OH2 6494   2.928   2.269   4.565 -0.9223  0.5836 -0.1406
 2163TIP3    H1 6495   2.972   2.228   4.639  0.1634  1.9154 -0.0028
 2163TIP3    H2 6496   2.854   2.315   4.604 -2.1401 -1.1374 -0.2957
 2164TIP3   OH2 6497   5.758   3.648   4.819 -0.1005  0.1237 -0.3884
 2164TIP3    H1 6498   5.754   3.638   4.724 -1.7697  1.8922 -0.5663
 2164TIP3    H2 6499   5.850   3.667   4.838 -0.0105  1.3063 -1.8421
 2165TIP3   OH2 6500   4.739   2.263   3.981  0.6644 -0.1212  0.0200
 2165TIP3    H1 6501   4.704   2.205   3.914 -1.6019 -0.3862  1.3317
 2165TIP3    H2 6502   4.726   2.351   3.947 -0.9479 -0.2345  0.2773
 2166TIP3   OH2 6503   3.450   1.471   0.187 -0.2874  0.0271  0.4349
 2166TIP3    H1 6504   3.426   1.552   0.142  0.0147  0.3086  0.7721
 2166TIP3    H2 6505   3.418   1.484   0.276  0.5372  0.1431  0.7200
 2167TIP3   OH2 6506   6.282   4.627   3.191  0.2304  0.2502 -0.2603
 2167TIP3    H1 6507   6.224   4.585   3.254  0.5827  0.8939  0.5267
 2167TIP3    H2 6508   6.370   4.610   3.226  0.3668  2.0842  0.4180
 2168TIP3   OH2 6509   0.086   0.496   3.035  0.3270  0.3365  0.3208
 2168TIP3    H1 6510   0.110   0.555   3.107 -0.4459  1.3849 -0.2502
 2168TIP3    H2 6511  -0.005   0.520   3.014  0.2959 -0.4669 -0.5035
 2169TIP3   OH2 6512   2.747   2.400   1.022 -0.5671 -0.1124  0.4927
 2169TIP3    H1 6513   2.760   2.375   1.113 -2.4537 -1.4878  0.4606
 2169TIP3    H2 6514   2.729   2.317   0.977 -0.3882  0.6191 -1.0031
 2170TIP3   OH2 6515   5.244   4.020   2.141  0.1048  0.2083 -0.0864
 2170TIP3    H1 6516   5.240   4.113   2.163  0.6856  0.2530 -0.1577
 2170TIP3    H2 6517   5.212   4.015   2.050  1.2410  0.5034 -0.5168
 2171TIP3   OH2 6518   1.243   3.608   4.673  0.0414  0.2333  0.4309
 2171TIP3    H1 6519   1.269   3.589   4.583 -2.0300  0.4334 -0.2606
 2171TIP3    H2 6520   1.273   3.533   4.723 -1.1686 -1.2309 -0.9291
 2172TIP3   OH2 6521   3.378   3.164   0.266 -0.6580 -0.0099 -0.2883
 2172TIP3    H1 6522   3.350   3.202   0.349 -0.8474  1.1539 -0.8617
 2172TIP3    H2 6523   3.439   3.229   0.230 -0.9961 -0.2361 -1.2955
 2173TIP3   OH2 6524   3.833   3.657   4.680 -0.6156 -0.1978 -0.9016
 2173TIP3    H1 6525   3.744   3.664   4.713 -1.4631 -0.4897 -2.9262
 2173TIP3    H2 6526   3.870   3.744   4.689 -0.7279 -0.3021  0.8621
 2174TIP3   OH2 6527   3.800   2.791   0.553  0.5367 -0.2278 -0.2414
 2174TIP3    H1 6528   3.753   2.761   0.631  1.2223 -1.4016 -0.2491
 2174TIP3    H2 6529   3.790   2.886   0.553  0.7354 -0.1841  1.4332
 2175TIP3   OH2 6530   5.389   3.026   2.161 -0.1987  0.5997 -0.0102
 2175TIP3    H1 6531   5.346   3.002   2.079 -1.4550  0.0722  0.7736
 2175TIP3    H2 6532   5.341   2.978   2.229  0.8313  0.9957  1.0401
 2176TIP3   OH2 6533   4.751   4.447   1.530  0.1341  0.4313 -0.1618
 2176TIP3    H1 6534   4.757   4.535   1.568  0.1613 -0.9378  3.4301
 2176TIP3    H2 6535   4.843   4.420   1.520  0.1162  0.5559 -0.7248
 2177TIP3   OH2 6536   4.836   0.101   0.304 -0.2600 -0.3078 -1.0174
 2177TIP3    H1 6537   4.843   0.119   0.397 -1.1387 -1.7568 -0.6401
 2177TIP3    H2 6538   4.868   0.181   0.261  1.7489 -0.2448  0.4999
 2178TIP3   OH2 6539   4.687   0.218   1.523 -0.7614  0.2685  0.3507
 2178TIP3    H1 6540   4.746   0.142   1.530 -0.9596  0.0596 -0.2051
 2178TIP3    H2 6541   4.741   0.292   1.548 -0.5760 -0.0617  0.9460
 2179TIP3   OH2 6542   0.787   4.907   1.102  0.1739  0.3288  0.0762
 2179TIP3    H1 6543   0.785   4.820   1.143 -1.3843  0.3644  0.1654
 2179TIP3    H2 6544   0.756   4.892   1.013 -0.1393  0.7843  0.1033
 2180TIP3   OH2 6545   2.259   2.194   1.760  0.2293 -0.0208 -0.6791
 2180TIP3    H1 6546   2.181   2.207   1.815  0.8197  0.5417  0.0598
 2180TIP3    H2 6547   2.272   2.100   1.757 -0.3704 -0.1056 -0.6496
 2181TIP3   OH2 6548   5.193   3.593   4.855 -0.0701 -0.1400  0.2882
 2181TIP3    H1 6549   5.242   3.526   4.905  0.2938 -1.7707 -2.0753
 2181TIP3    H2 6550   5.261   3.640   4.806 -0.5593  0.0730 -0.1907
 2182TIP3   OH2 6551   2.823   3.891   0.069  0.3796 -0.4179 -0.1820
 2182TIP3    H1 6552   2.822   3.916   0.162 -0.4764 -0.5535 -0.1388
 2182TIP3    H2 6553   2.905   3.843   0.058  0.1870 -0.9797  0.6760
 2183TIP3   OH2 6554   1.334   2.644   2.715  0.1663 -0.0222 -0.5118
 2183TIP3    H1 6555   1.368   2.733   2.714 -0.2359  0.1882  1.3053
 2183TIP3    H2 6556   1.240   2.654   2.697 -0.1447  0.0955  1.0443
 2184TIP3   OH2 6557   3.924   2.142   3.711 -0.3005 -0.1535  0.2778
 2184TIP3    H1 6558   3.890   2.224   3.748  1.0924  0.0235  1.2651
 2184TIP3    H2 6559   3.906   2.076   3.777 -0.3905 -0.4216 -0.0121
 2185TIP3   OH2 6560   2.675   4.195   0.732  0.2864 -0.1029  0.1598
 2185TIP3    H1 6561   2.760   4.232   0.757  0.4801 -0.3734 -0.0941
 2185TIP3    H2 6562   2.685   4.173   0.639 -0.6063  1.4289 -0.3448
 2186TIP3   OH2 6563   1.902   2.685   2.031 -0.0748 -0.5772  0.1702
 2186TIP3    H1 6564   1.897   2.593   2.058  2.7313 -0.8913 -0.0255
 2186TIP3    H2 6565   1.898   2.682   1.936  0.1696 -0.5218  0.1574
 2187TIP3   OH2 6566   6.187   2.742   5.038 -0.0358 -0.5289 -0.2445
 2187TIP3    H1 6567   6.211   2.742   4.945  2.0663 -2.2348  0.2538
 2187TIP3    H2 6568   6.096   2.711   5.039 -0.8593  1.5500 -1.8232
 2188TIP3   OH2 6569   0.551   2.361   2.523 -0.0372  0.3088  0.0895
 2188TIP3    H1 6570   0.490   2.435   2.527 -0.8084 -0.3336  0.2266
 2188TIP3    H2 6571   0.625   2.395   2.473 -0.5627  1.0511 -0.2069
 2189TIP3   OH2 6572   1.411   2.913   2.664 -0.0428  0.1659 -0.6253
 2189TIP3    H1 6573   1.371   2.998   2.645 -0.5006  0.2757  0.7301
 2189TIP3    H2 6574   1.499   2.934   2.694 -0.4826  0.2671  0.6712
 2190TIP3   OH2 6575   2.395   5.667   4.165  0.2805  0.2610  0.0264
 2190TIP3    H1 6576   2.449   5.588   4.161  0.1544  0.1698  0.0909
 2190TIP3    H2 6577   2.329   5.647   4.232 -0.4107  0.0054 -0.7122
 2191TIP3   OH2 6578   4.429   3.416   4.316 -0.2096  0.0339  0.5548
 2191TIP3    H1 6579   4.452   3.482   4.380  0.9373 -1.0811  1.3453
 2191TIP3    H2 6580   4.345   3.382   4.345  0.0281 -0.0560  1.1457
 2192TIP3   OH2 6581   0.711   5.834   2.446 -0.3738  0.8898  0.3697
 2192TIP3    H1 6582   0.715   5.822   2.541 -1.2116  0.3075  0.3454
 2192TIP3    H2 6583   0.778   5.899   2.427 -0.9999  1.9161  1.5160
 2193TIP3   OH2 6584   4.093   2.860   0.771 -0.2197  0.7819 -0.8182
 2193TIP3    H1 6585   4.050   2.775   0.780 -0.1644  0.7771 -0.5708
 2193TIP3    H2 6586   4.070   2.906   0.852 -1.1326  1.4040 -1.4203
 2194TIP3   OH2 6587   3.075   1.371   4.580  0.5014 -0.2511  0.5550
 2194TIP3    H1 6588   3.116   1.354   4.665  1.3218 -1.2351 -0.0163
 2194TIP3    H2 6589   3.137   1.336   4.516 -0.3449  0.0072 -0.4338
 2195TIP3   OH2 6590   4.600   1.268   3.391  0.0872 -0.1553 -0.2299
 2195TIP3    H1 6591   4.690   1.259   3.359  0.5401  0.8016  0.7146
 2195TIP3    H2 6592   4.562   1.338   3.337 -0.3788 -1.0918 -1.1680
 2196TIP3   OH2 6593   4.537   4.350   4.865 -0.5773  0.1329  0.0261
 2196TIP3    H1 6594   4.610   4.289   4.879 -1.5473 -1.0688  0.0197
 2196TIP3    H2 6595   4.568   4.408   4.796  0.9727  0.6610  1.1266
 2197TIP3   OH2 6596   0.519   1.495   4.028 -0.7964  0.6135 -0.3171
 2197TIP3    H1 6597   0.545   1.479   4.119 -0.1257 -3.5219 -1.0186
 2197TIP3    H2 6598   0.595   1.539   3.989  0.8690 -1.5690  0.2174
 2198TIP3   OH2 6599   4.667   1.954   1.601  0.6786 -0.0942 -0.0002
 2198TIP3    H1 6600   4.676   2.019   1.531 -0.4273  1.9557  1.6377
 2198TIP3    H2 6601   4.747   1.963   1.652 -0.0879  1.0816  1.0482
 2199TIP3   OH2 6602   0.356   1.759   4.361  0.1343 -0.2332  0.0786
 2199TIP3    H1 6603   0.315   1.735   4.278 -1.9524 -1.1751  1.2767
 2199TIP3    H2 6604   0.439   1.799   4.337  0.1589 -1.5662 -2.4029
 2200TIP3   OH2 6605   1.710   4.590   3.426  0.6412  0.5115  0.1732
 2200TIP3    H1 6606   1.682   4.664   3.373 -0.3757 -0.1952 -0.3265
 2200TIP3    H2 6607   1.657   4.595   3.505  0.3402  0.1665  0.0021
 2201TIP3   OH2 6608   6.106   4.508   2.116 -0.0837  0.3075  0.9004
 2201TIP3    H1 6609   6.115   4.414   2.097  1.0180  0.2517  1.6194
 2201TIP3    H2 6610   6.022   4.515   2.160 -0.6573 -0.1794 -0.0608
 2202TIP3   OH2 6611   2.192   2.138   1.028  0.3246  0.5236  0.6036
 2202TIP3    H1 6612   2.150   2.066   1.076  1.3177  0.2014  1.0121
 2202TIP3    H2 6613   2.193   2.109   0.937  1.5434 -0.4028  0.8921
 2203TIP3   OH2 6614   3.224   3.291   3.791 -0.2745 -0.3297 -0.5270
 2203TIP3    H1 6615   3.245   3.362   3.852  1.0961 -0.7629 -0.4529
 2203TIP3    H2 6616   3.163   3.329   3.729  0.8680  1.1065 -0.8345
 2204TIP3   OH2 6617   1.355   5.565   2.600  0.4971  0.2620  0.0992
 2204TIP3    H1 6618   1.323   5.584   2.512  2.1705 -0.0993 -0.6287
 2204TIP3    H2 6619   1.425   5.501   2.587  0.6197  0.0193  1.7261
 2205TIP3   OH2 6620   2.307   0.553   4.557  0.3448 -0.0646  0.2048
 2205TIP3    H1 6621   2.231   0.586   4.604 -0.0535  0.4530 -0.7855
 2205TIP3    H2 6622   2.362   0.514   4.625 -0.8354 -0.5277  0.9273
 2206TIP3   OH2 6623   6.050   1.546   1.561  0.2592 -0.2903  0.3961
 2206TIP3    H1 6624   5.964   1.567   1.526  1.0708  0.4641 -1.2729
 2206TIP3    H2 6625   6.097   1.508   1.487  1.6415  0.1613  1.0031
 2207TIP3   OH2 6626   1.454   2.393   3.058  0.1591  0.0153  0.3948
 2207TIP3    H1 6627   1.477   2.474   3.103 -0.0777 -0.7482  1.9544
 2207TIP3    H2 6628   1.458   2.415   2.965 -4.0056  3.0632  0.6289
 2208TIP3   OH2 6629   0.635   1.849   0.974  0.8748 -0.2779 -0.1052
 2208TIP3    H1 6630   0.553   1.886   0.942  0.6724 -0.3468  0.3252
 2208TIP3    H2 6631   0.688   1.836   0.896  0.4393 -0.3239 -0.3944
 2209TIP3   OH2 6632   1.733   5.510   5.121 -0.6770  0.0562  0.0164
 2209TIP3    H1 6633   1.797   5.525   5.051 -1.2595 -0.8970 -0.7574
 2209TIP3    H2 6634   1.659   5.469   5.076 -1.4376  0.2561  1.0559
 2210TIP3   OH2 6635   5.539   4.386   3.900  0.0397  0.3675 -0.1018
 2210TIP3    H1 6636   5.632   4.400   3.920  0.1009  0.0154 -0.1383
 2210TIP3    H2 6637   5.492   4.446   3.958  0.3231  1.1532 -0.6522
 2211TIP3   OH2 6638   5.677   0.856   2.030 -0.1373  0.0800  0.1046
 2211TIP3    H1 6639   5.682   0.827   1.939 -4.2541 -1.1030  0.0505
 2211TIP3    H2 6640   5.669   0.951   2.025  0.7323  0.1273 -0.6348
 2212TIP3   OH2 6641   3.961   2.613   0.703  0.3463  0.2521 -0.3918
 2212TIP3    H1 6642   3.925   2.607   0.615 -0.5776 -0.9321  0.0294
 2212TIP3    H2 6643   3.900   2.563   0.757 -0.3436  2.7727  1.3317
 2213TIP3   OH2 6644   2.987   3.234   0.209  0.0141  0.2437 -0.2191
 2213TIP3    H1 6645   3.019   3.147   0.183 -1.0709  0.1622 -1.3491
 2213TIP3    H2 6646   3.051   3.294   0.172  0.7917 -0.0395  0.5969
 2214TIP3   OH2 6647   5.774   2.463   1.906 -0.1629  0.4393  1.0052
 2214TIP3    H1 6648   5.726   2.477   1.825 -0.4987  1.4354  1.3694
 2214TIP3    H2 6649   5.741   2.530   1.966  2.0126  1.4873  1.1174
 2215TIP3   OH2 6650   1.530   5.153   2.776 -0.3278 -0.5051  0.0740
 2215TIP3    H1 6651   1.504   5.063   2.757 -1.9055 -0.0480 -0.1068
 2215TIP3    H2 6652   1.609   5.145   2.829 -1.7856 -2.1017  2.1646
 2216TIP3   OH2 6653   5.709   4.690   1.601  0.0220 -0.3428 -0.0142
 2216TIP3    H1 6654   5.616   4.682   1.582  0.2357 -0.9032 -0.8847
 2216TIP3    H2 6655   5.748   4.610   1.566  1.0293  0.5116 -0.9387
 2217TIP3   OH2 6656   1.508   0.454   1.868 -0.8102 -0.4755 -0.3684
 2217TIP3    H1 6657   1.577   0.412   1.815  0.3905  1.4841 -0.4356
 2217TIP3    H2 6658   1.466   0.515   1.807 -0.5002  0.6147  0.4910
 2218TIP3   OH2 6659   5.517   3.574   4.549  0.7283 -0.2639 -0.0061
 2218TIP3    H1 6660   5.610   3.595   4.559  0.5851 -0.2267  1.4720
 2218TIP3    H2 6661   5.514   3.479   4.542  0.8503 -0.3071  0.4748
 2219TIP3   OH2 6662   2.838   3.020   4.761  0.2965 -0.0738  0.3792
 2219TIP3    H1 6663   2.757   3.043   4.805  0.5679  0.4345  0.6258
 2219TIP3    H2 6664   2.905   3.025   4.829  0.5587 -0.3199  0.1419
 2220TIP3   OH2 6665   1.405   3.002   4.781  0.4149 -0.0418  0.2324
 2220TIP3    H1 6666   1.357   3.004   4.698 -0.6448  0.3012  0.8337
 2220TIP3    H2 6667   1.468   3.074   4.774 -0.7630  1.0381  0.3359
 2221TIP3   OH2 6668   0.255   0.597   3.599  0.3538 -0.0044 -0.0934
 2221TIP3    H1 6669   0.271   0.550   3.681  1.3426 -0.1455 -0.3615
 2221TIP3    H2 6670   0.162   0.620   3.603  0.9053  2.2738  2.2997
 2222TIP3   OH2 6671   4.237   2.147   2.618  0.3148  0.2587  0.2039
 2222TIP3    H1 6672   4.276   2.109   2.540 -0.7114  0.4052 -0.4010
 2222TIP3    H2 6673   4.266   2.090   2.690  1.1098  0.0136 -0.2959
 2223TIP3   OH2 6674   3.337   1.774   0.280  0.4291  0.1050  0.1762
 2223TIP3    H1 6675   3.299   1.827   0.351 -0.4409  0.5954 -0.6284
 2223TIP3    H2 6676   3.290   1.803   0.202  0.5560 -1.2587 -0.4208
 2224TIP3   OH2 6677   1.389   1.764   1.167  0.5094 -0.3227  0.4059
 2224TIP3    H1 6678   1.306   1.811   1.176  1.1134  0.5738  1.5414
 2224TIP3    H2 6679   1.382   1.721   1.082 -0.3610  1.2711 -0.3858
 2225TIP3   OH2 6680   5.594   2.265   4.383  0.4897  0.2711 -0.3761
 2225TIP3    H1 6681   5.602   2.233   4.293 -0.9994 -0.3483 -0.3114
 2225TIP3    H2 6682   5.563   2.355   4.375 -0.8978 -0.2023 -0.4795
 2226TIP3   OH2 6683   3.743   0.204   5.095  0.3112 -0.3652  0.3487
 2226TIP3    H1 6684   3.714   0.213   5.004 -0.4575  1.5377  0.7330
 2226TIP3    H2 6685   3.662   0.193   5.145  0.1727  3.2873  1.2431
 2227TIP3   OH2 6686   5.807   2.448   2.745 -0.0950  0.1215 -0.0435
 2227TIP3    H1 6687   5.885   2.491   2.780 -1.2714  1.7548  0.6781
 2227TIP3    H2 6688   5.776   2.507   2.676 -1.1651 -0.0782  0.2510
 2228TIP3   OH2 6689   0.480   5.940   2.098  0.3149 -0.3502 -0.2758
 2228TIP3    H1 6690   0.433   6.009   2.052 -1.1611  0.9121  2.8638
 2228TIP3    H2 6691   0.417   5.868   2.103  0.3495 -0.3598  0.0316
 2229TIP3   OH2 6692   4.828   5.439   0.704  0.5177  0.0102  0.0269
 2229TIP3    H1 6693   4.772   5.362   0.692 -0.4453  0.6510  0.3005
 2229TIP3    H2 6694   4.874   5.449   0.621 -0.0148 -0.3436 -0.3144
 2230TIP3   OH2 6695   6.162   0.828   0.703  0.1574  0.1739 -0.1185
 2230TIP3    H1 6696   6.231   0.762   0.711 -1.2911 -1.2355  2.1883
 2230TIP3    H2 6697   6.207   0.912   0.707  1.8237 -0.6843 -0.2158
 2231TIP3   OH2 6698   1.858   3.109   0.680 -0.1015 -0.1145 -0.2583
 2231TIP3    H1 6699   1.914   3.038   0.650  0.0877  0.9881 -2.6979
 2231TIP3    H2 6700   1.918   3.175   0.715  0.1104  0.6616 -2.0051
 2232TIP3   OH2 6701   0.042   3.019   3.118 -0.1913 -0.4099  0.2225
 2232TIP3    H1 6702   0.054   2.981   3.205 -1.4177  0.4545  0.8027
 2232TIP3    H2 6703   0.112   3.083   3.110 -1.2153  0.9566  1.4548
 2233TIP3   OH2 6704   0.741   2.275   4.292  0.1151  0.3733 -0.2412
 2233TIP3    H1 6705   0.824   2.290   4.337  0.2896 -0.0780 -0.4121
 2233TIP3    H2 6706   0.684   2.346   4.323  0.2606  0.1251  0.6179
 2234TIP3   OH2 6707   3.487   0.236   0.481 -0.2307  0.3402  0.2090
 2234TIP3    H1 6708   3.551   0.244   0.551 -1.0202 -1.2373  1.1687
 2234TIP3    H2 6709   3.494   0.318   0.432  2.3043  0.3166  0.4231
 2235TIP3   OH2 6710   5.441   1.868   0.786  0.4705  0.0490 -0.6798
 2235TIP3    H1 6711   5.368   1.847   0.729 -0.5638  0.8093  0.3006
 2235TIP3    H2 6712   5.458   1.961   0.769  0.9810 -0.0420 -0.6616
 2236TIP3   OH2 6713   3.985   0.037   2.769 -0.2113  0.1349 -0.1415
 2236TIP3    H1 6714   4.079   0.032   2.752 -0.3614 -1.7455 -0.6215
 2236TIP3    H2 6715   3.973   0.124   2.808  1.8698  0.0450  0.8718
 2237TIP3   OH2 6716   2.912   5.452   4.913 -0.0614  0.6168  0.7708
 2237TIP3    H1 6717   2.819   5.450   4.893  0.1190 -0.0169 -0.0792
 2237TIP3    H2 6718   2.919   5.419   5.002 -0.3966 -2.6395 -0.2942
 2238TIP3   OH2 6719   3.009   4.994   1.631  0.2347  0.3353 -0.0872
 2238TIP3    H1 6720   2.987   4.939   1.706  0.0663 -1.1645 -1.1929
 2238TIP3    H2 6721   2.934   5.053   1.621  0.0593  0.2452  0.6286
 2239TIP3   OH2 6722   3.413   0.026   2.852 -0.1230 -0.3401  0.2288
 2239TIP3    H1 6723   3.401   0.059   2.941 -1.1397 -2.4657  0.9514
 2239TIP3    H2 6724   3.392  -0.067   2.858  1.0165 -0.8195 -1.9934
 2240TIP3   OH2 6725   5.677   1.068   2.934  0.6805  0.5260  0.2734
 2240TIP3    H1 6726   5.604   1.081   2.994 -0.5080  0.1199 -1.0540
 2240TIP3    H2 6727   5.637   1.058   2.848  2.3383  0.9245 -0.5869
 2241TIP3   OH2 6728   4.079   3.358   2.869  0.0632 -0.3462 -0.3209
 2241TIP3    H1 6729   4.149   3.334   2.808  0.4146  0.0248 -0.0692
 2241TIP3    H2 6730   4.123   3.410   2.936  0.4218 -3.7340  2.2811
 2242TIP3   OH2 6731   2.093   1.343   4.181 -0.1868 -0.3437  0.3603
 2242TIP3    H1 6732   1.997   1.351   4.186 -0.2874  0.7636 -2.0593
 2242TIP3    H2 6733   2.123   1.370   4.267 -2.0551 -1.4397  1.4483
 2243TIP3   OH2 6734   3.385   4.355   2.116 -0.3941 -0.2342  0.1503
 2243TIP3    H1 6735   3.306   4.396   2.082 -2.2569 -3.0217  0.7766
 2243TIP3    H2 6736   3.410   4.292   2.049 -0.0151 -0.9113  0.9157
 2244TIP3   OH2 6737   3.395   3.815   2.013  0.1323  0.4001  0.0274
 2244TIP3    H1 6738   3.457   3.843   2.081 -0.1360  0.9397  0.0554
 2244TIP3    H2 6739   3.434   3.736   1.977 -0.1577 -0.4039  1.4087
 2245TIP3   OH2 6740   3.875   2.170   3.053  0.3552  0.2545 -0.2180
 2245TIP3    H1 6741   3.865   2.254   3.007 -0.1955  0.2539 -0.1033
 2245TIP3    H2 6742   3.928   2.117   2.993 -0.9631 -0.0046 -1.2075
 2246TIP3   OH2 6743   5.536   3.466   0.371  0.3608  0.2324 -0.4392
 2246TIP3    H1 6744   5.537   3.562   0.364 -0.6919  0.1957 -1.3939
 2246TIP3    H2 6745   5.566   3.435   0.286  1.0528 -0.2985 -0.0097
 2247TIP3   OH2 6746   6.300   0.635   0.881  0.2938 -0.2827  0.0683
 2247TIP3    H1 6747   6.248   0.656   0.959 -0.7776  0.1456 -0.7244
 2247TIP3    H2 6748   6.276   0.545   0.860  0.8893 -0.5341  0.4634
 2248TIP3   OH2 6749   6.253   5.165   4.383 -0.3198  0.1926  0.3636
 2248TIP3    H1 6750   6.334   5.149   4.335 -0.8805 -0.6996 -0.3238
 2248TIP3    H2 6751   6.245   5.091   4.444  0.3455  1.2735  1.8224
 2249TIP3   OH2 6752   6.165   0.840   2.559  0.0652  0.3236 -0.9643
 2249TIP3    H1 6753   6.129   0.873   2.642  1.9802  1.3111 -0.4470
 2249TIP3    H2 6754   6.097   0.784   2.523 -0.6445 -0.5888  1.5628
 2250TIP3   OH2 6755   3.924   3.262   0.387 -0.1416  0.8516 -0.5744
 2250TIP3    H1 6756   3.843   3.212   0.382 -0.0367  0.7548 -1.6450
 2250TIP3    H2 6757   3.905   3.344   0.342 -0.5207  2.1339  1.7739
 2251TIP3   OH2 6758   6.215   1.631   4.527  0.2602  0.2346 -0.2134
 2251TIP3    H1 6759   6.147   1.673   4.475  1.1013  1.7774 -0.1278
 2251TIP3    H2 6760   6.278   1.596   4.464 -0.3766 -0.8390 -0.2809
 2252TIP3   OH2 6761   1.688   4.001   2.142  0.0749 -0.1031 -0.8218
 2252TIP3    H1 6762   1.651   3.967   2.223 -0.2641 -1.6830 -1.6079
 2252TIP3    H2 6763   1.781   3.981   2.147  0.4424  1.6290  0.0425
 2253TIP3   OH2 6764   0.308   2.526   0.061 -0.3401 -0.2683 -0.1319
 2253TIP3    H1 6765   0.313   2.547  -0.033  0.5243 -0.9748 -0.2503
 2253TIP3    H2 6766   0.288   2.433   0.064 -2.1633  0.0924  0.4060
 2254TIP3   OH2 6767   1.489   2.050   4.992 -0.2219 -0.1262 -0.1605
 2254TIP3    H1 6768   1.423   2.112   4.964  0.5461  0.5057 -0.6200
 2254TIP3    H2 6769   1.535   2.095   5.063  0.7096  0.0755 -0.8777
 2255TIP3   OH2 6770   1.639   5.928   0.478 -0.5567 -0.7401  0.0088
 2255TIP3    H1 6771   1.657   5.998   0.415  0.3788 -1.1828 -0.2409
 2255TIP3    H2 6772   1.546   5.910   0.468 -1.0335  1.0749  0.7224
 2256TIP3   OH2 6773   3.060   4.320   1.199 -0.3135 -0.2184  0.1677
 2256TIP3    H1 6774   3.042   4.264   1.123  0.2812 -0.4073  0.1551
 2256TIP3    H2 6775   3.109   4.394   1.163  0.6450 -0.6856  0.4576
 2257TIP3   OH2 6776   0.851   3.557   2.569 -0.2542 -0.2487 -0.7293
 2257TIP3    H1 6777   0.764   3.518   2.559 -0.0734 -0.9374  0.2832
 2257TIP3    H2 6778   0.833   3.649   2.588 -0.7704 -0.3927 -0.4891
 2258TIP3   OH2 6779   5.024   3.388   2.307 -0.1652 -0.2043 -0.4895
 2258TIP3    H1 6780   4.962   3.366   2.238 -2.0413 -1.6422  1.5540
 2258TIP3    H2 6781   5.083   3.313   2.311  1.7243  1.0637 -2.2773
 2259TIP3   OH2 6782   2.812   1.913   4.270  0.0829  0.4482  0.4127
 2259TIP3    H1 6783   2.844   1.882   4.185  0.8128  0.2997  0.7340
 2259TIP3    H2 6784   2.767   1.995   4.251 -1.5715 -0.5887 -0.4148
 2260TIP3   OH2 6785   6.270   3.624   2.997  0.0604  0.7469 -0.4276
 2260TIP3    H1 6786   6.224   3.708   2.993  1.5155  1.5539 -2.3082
 2260TIP3    H2 6787   6.359   3.648   3.025 -0.2674 -0.6098  1.9949
 2261TIP3   OH2 6788   2.784   1.388   0.318  0.1008  0.0427  0.2188
 2261TIP3    H1 6789   2.710   1.400   0.377  1.1378  1.2579  1.3383
 2261TIP3    H2 6790   2.802   1.294   0.321 -2.4483 -0.6002 -1.4864
 2262TIP3   OH2 6791   2.610   3.096   4.907  0.0889 -0.3637  0.3482
 2262TIP3    H1 6792   2.592   3.186   4.934  0.1727 -0.4391  0.6663
 2262TIP3    H2 6793   2.577   3.043   4.980 -0.9665 -0.6534 -0.3178
 2263TIP3   OH2 6794   2.627   5.881   0.074 -0.3199 -0.2351  0.6139
 2263TIP3    H1 6795   2.659   5.956   0.123 -1.2819  1.4833 -1.2673
 2263TIP3    H2 6796   2.535   5.871   0.101 -0.3542 -0.3842  0.4499
 2264TIP3   OH2 6797   0.579   3.241   1.098  0.1960  0.8108 -0.8027
 2264TIP3    H1 6798   0.599   3.293   1.176 -0.8708  0.1897 -0.0940
 2264TIP3    H2 6799   0.532   3.302   1.041 -0.4136  0.8527 -0.2772
 2265TIP3   OH2 6800   1.278   0.125   3.017 -0.5105 -0.0739 -0.7531
 2265TIP3    H1 6801   1.322   0.115   2.932 -0.4442  2.2925 -1.0733
 2265TIP3    H2 6802   1.185   0.133   2.995 -0.9141 -2.5879 -0.2761
 2266TIP3   OH2 6803   1.718   3.866   3.377  0.0835  0.1931  0.7237
 2266TIP3    H1 6804   1.791   3.926   3.363  1.1392 -0.7093  2.1457
 2266TIP3    H2 6805   1.725   3.803   3.305  0.3809  0.4013  0.5666
 2267TIP3   OH2 6806   0.179   3.027   2.201 -0.3174 -0.1705  0.2992
 2267TIP3    H1 6807   0.204   3.012   2.292 -0.6908  0.2256  0.4701
 2267TIP3    H2 6808   0.098   2.977   2.190  0.6883 -1.7472 -0.3539
 2268TIP3   OH2 6809   1.602   1.356   1.651 -0.0733  0.2499  0.7910
 2268TIP3    H1 6810   1.683   1.337   1.698  0.4721 -0.8450 -0.5253
 2268TIP3    H2 6811   1.629   1.374   1.561 -1.3200 -1.1100  0.0740
 2269TIP3   OH2 6812   5.338   5.992   5.078  0.1857  0.5878  0.6524
 2269TIP3    H1 6813   5.292   5.964   5.157 -0.5943 -3.1061 -0.8801
 2269TIP3    H2 6814   5.428   5.961   5.091  0.2701  0.7447  0.4420
 2270TIP3   OH2 6815   2.170   1.194   3.989  0.0585 -0.6567  0.1993
 2270TIP3    H1 6816   2.091   1.142   3.998 -0.2627 -0.1820  0.1679
 2270TIP3    H2 6817   2.159   1.267   4.050  0.0840 -0.1263 -0.4102
 2271TIP3   OH2 6818   0.929   0.127   3.925 -0.4133  0.2516 -0.0543
 2271TIP3    H1 6819   1.007   0.158   3.879 -0.7378 -0.8589 -1.4186
 2271TIP3    H2 6820   0.958   0.048   3.970 -0.5889  0.2271  0.0162
 2272TIP3   OH2 6821   0.484   4.512   3.315 -0.6434 -0.3762  0.4086
 2272TIP3    H1 6822   0.565   4.544   3.276  0.6535 -1.6276  1.9440
 2272TIP3    H2 6823   0.446   4.589   3.358  0.4394 -0.0608  0.8244
 2273TIP3   OH2 6824   5.702   3.032   1.047 -0.1175  0.1662 -0.1402
 2273TIP3    H1 6825   5.721   3.111   1.098 -2.4512 -0.3634  1.7273
 2273TIP3    H2 6826   5.650   2.977   1.106  1.7763 -3.0296 -1.1970
 2274TIP3   OH2 6827   0.400   5.426   1.531 -0.5911  0.6501  0.2566
 2274TIP3    H1 6828   0.363   5.416   1.619  1.1707 -1.3554  0.8301
 2274TIP3    H2 6829   0.492   5.448   1.545  0.6750 -3.2126 -0.9137
 2275TIP3   OH2 6830   4.331   3.961   4.384 -0.1536 -0.2334  0.6359
 2275TIP3    H1 6831   4.389   3.897   4.341 -1.1272  0.0322 -1.2018
 2275TIP3    H2 6832   4.358   4.045   4.348  0.4300  0.3007  2.2568
 2276TIP3   OH2 6833   1.236   0.646   0.549  0.4469 -0.3323  0.0965
 2276TIP3    H1 6834   1.183   0.576   0.513 -0.2345 -0.5283  1.4021
 2276TIP3    H2 6835   1.325   0.613   0.548  0.5440 -0.1206 -1.8370
 2277TIP3   OH2 6836   5.492   0.983   5.158  0.4260 -0.0622  0.0821
 2277TIP3    H1 6837   5.453   1.067   5.131  0.2300  0.1584  1.0167
 2277TIP3    H2 6838   5.583   1.005   5.180  0.9420 -0.4601 -1.4792
 2278TIP3   OH2 6839   1.415   1.668   0.892  0.0529 -0.0999 -0.5419
 2278TIP3    H1 6840   1.335   1.627   0.860  0.3162  1.0610 -2.9119
 2278TIP3    H2 6841   1.486   1.621   0.849  0.4917  0.7516 -0.7896
 2279TIP3   OH2 6842   5.010   4.556   1.710 -0.0455 -0.1634  0.1174
 2279TIP3    H1 6843   4.998   4.468   1.674 -0.9404 -0.0742  0.1884
 2279TIP3    H2 6844   4.961   4.556   1.792  0.7727  0.1001  0.6210
 2280TIP3   OH2 6845   0.639   4.683   2.277 -0.0028  0.0601  0.3868
 2280TIP3    H1 6846   0.720   4.732   2.294  0.6282 -0.9742  0.4562
 2280TIP3    H2 6847   0.659   4.631   2.200  0.3635 -2.1991  1.8956
 2281TIP3   OH2 6848   4.123   5.516   3.215 -0.1834 -0.4544 -0.0703
 2281TIP3    H1 6849   4.153   5.523   3.125 -0.4752  0.3184 -0.1132
 2281TIP3    H2 6850   4.047   5.573   3.220 -0.6926 -1.1677  0.4506
 2282TIP3   OH2 6851   1.248   3.542   0.414 -0.4557  0.8212 -0.8160
 2282TIP3    H1 6852   1.300   3.552   0.334 -0.7619  0.5616 -1.0483
 2282TIP3    H2 6853   1.197   3.623   0.419 -0.1730  0.9926 -0.6908
 2283TIP3   OH2 6854   4.462   0.623   2.708  0.3896  0.4718  0.3326
 2283TIP3    H1 6855   4.515   0.593   2.635  0.7997  0.6936  0.5360
 2283TIP3    H2 6856   4.471   0.718   2.708  0.3836  0.4768  0.6593
 2284TIP3   OH2 6857   2.015   3.988   1.556 -0.0383 -0.0356  0.0802
 2284TIP3    H1 6858   2.040   4.059   1.615  2.1222  0.2315 -1.0543
 2284TIP3    H2 6859   1.974   4.031   1.481  2.5093  0.2721 -1.2556
 2285TIP3   OH2 6860   5.701   3.520   4.279 -0.2890  0.3125  0.1250
 2285TIP3    H1 6861   5.762   3.459   4.321 -0.2971  0.8351  0.9063
 2285TIP3    H2 6862   5.623   3.466   4.262 -0.2867  0.0922  0.7846
 2286TIP3   OH2 6863   2.343   4.217   0.394 -0.1766  0.1179 -0.2051
 2286TIP3    H1 6864   2.391   4.254   0.468  0.5895 -0.6941 -0.2748
 2286TIP3    H2 6865   2.294   4.144   0.431  3.0954 -2.7338 -1.0158
 2287TIP3   OH2 6866   0.225   3.528   0.197  0.1697  0.1227  0.0116
 2287TIP3    H1 6867   0.213   3.615   0.234 -2.5773 -0.3173  0.3555
 2287TIP3    H2 6868   0.314   3.503   0.223 -0.1711  1.4801  2.8281
 2288TIP3   OH2 6869   6.007   0.632   2.460 -0.1943 -0.2414 -0.3960
 2288TIP3    H1 6870   6.033   0.551   2.416  2.2763 -0.3677  1.1510
 2288TIP3    H2 6871   5.983   0.605   2.548 -0.8873  0.5464 -0.3305
 2289TIP3   OH2 6872   4.281   0.737   0.769 -0.8715 -0.3880  0.3830
 2289TIP3    H1 6873   4.276   0.726   0.674  1.1011 -0.1790  0.2071
 2289TIP3    H2 6874   4.311   0.652   0.801 -0.7340 -0.2138  0.7216
 2290TIP3   OH2 6875   4.934   1.460   1.656 -0.0467 -0.5490  0.0174
 2290TIP3    H1 6876   4.877   1.383   1.662  0.0920 -0.6817 -0.3094
 2290TIP3    H2 6877   5.022   1.426   1.666  0.0056 -0.4091  0.0383
 2291TIP3   OH2 6878   6.231   2.747   4.741  0.1268  0.2851 -0.0847
 2291TIP3    H1 6879   6.313   2.750   4.693 -0.2472 -0.7962 -0.8234
 2291TIP3    H2 6880   6.209   2.654   4.747 -1.0461  0.5514  0.0856
 2292TIP3   OH2 6881   3.397   5.745   4.062 -0.1035  0.6291 -0.4795
 2292TIP3    H1 6882   3.308   5.724   4.091 -0.8938  1.1781 -2.3625
 2292TIP3    H2 6883   3.408   5.838   4.085 -0.0698  0.5973 -0.3674
 2293TIP3   OH2 6884   6.266   0.252   3.472  0.5903 -0.3127 -0.0067
 2293TIP3    H1 6885   6.355   0.256   3.436  0.6037 -2.3736 -0.2959
 2293TIP3    H2 6886   6.211   0.229   3.398 -0.5069  2.6093 -0.2122
 2294TIP3   OH2 6887   2.558   4.036   4.650  0.7864  0.2672  0.3031
 2294TIP3    H1 6888   2.506   4.030   4.730  1.7206  1.4085  1.0321
 2294TIP3    H2 6889   2.630   3.974   4.663  1.0134  0.5511  0.4191
 2295TIP3   OH2 6890   6.254   0.497   0.517 -0.3001 -0.1048 -0.2028
 2295TIP3    H1 6891   6.280   0.408   0.493 -0.3577 -0.7410  1.9469
 2295TIP3    H2 6892   6.181   0.485   0.577  0.1235  1.3728  0.6375
 2296TIP3   OH2 6893   0.152   0.408   4.863 -0.2023  0.1140 -0.6084
 2296TIP3    H1 6894   0.080   0.399   4.800  0.8820  1.8162 -2.1833
 2296TIP3    H2 6895   0.222   0.449   4.813  2.2285 -2.2593  0.6388
 2297TIP3   OH2 6896   2.145   0.505   0.285 -0.0274  0.0391 -0.4152
 2297TIP3    H1 6897   2.207   0.465   0.224 -0.2233  2.9967 -2.7882
 2297TIP3    H2 6898   2.199   0.527   0.361  0.9571 -0.8809 -0.8068
 2298TIP3   OH2 6899   1.283   3.736   3.891  0.0120 -0.1497  0.1250
 2298TIP3    H1 6900   1.203   3.772   3.929  0.6539  1.3999  0.0723
 2298TIP3    H2 6901   1.259   3.647   3.865 -2.6038  1.1512 -2.5756
 2299TIP3   OH2 6902   3.595   0.452   2.267  0.3697  0.1998  0.2126
 2299TIP3    H1 6903   3.638   0.526   2.310  0.0910  0.9877 -0.8165
 2299TIP3    H2 6904   3.667   0.404   2.227  0.5941 -0.3403  1.2342
 2300TIP3   OH2 6905   1.781   1.925   2.089  0.2728  0.3443  0.1656
 2300TIP3    H1 6906   1.706   1.932   2.148  1.0516  0.2039  1.2196
 2300TIP3    H2 6907   1.806   1.832   2.093  1.1754  0.5996  0.7151
 2301TIP3   OH2 6908   2.705   4.773   2.949  0.1157  0.1338 -0.0597
 2301TIP3    H1 6909   2.639   4.743   3.012  0.5729 -0.7226  0.0330
 2301TIP3    H2 6910   2.783   4.721   2.970  1.1759  1.8969  0.5487
 2302TIP3   OH2 6911   1.207   4.133   5.026  0.2548 -0.7351  0.5838
 2302TIP3    H1 6912   1.230   4.147   5.118  0.7433  1.3961  0.2050
 2302TIP3    H2 6913   1.125   4.183   5.015  0.0114 -1.2691 -0.0550
 2303TIP3   OH2 6914   1.229   2.990   1.607  0.2112  0.3831 -0.1749
 2303TIP3    H1 6915   1.290   2.929   1.647 -0.5504  0.0247  0.4704
 2303TIP3    H2 6916   1.148   2.941   1.598  0.1943  0.6296 -1.6621
 2304TIP3   OH2 6917   1.696   5.967   1.234 -0.4223  0.2413  0.3839
 2304TIP3    H1 6918   1.726   6.004   1.317  1.1384 -0.4199  0.1575
 2304TIP3    H2 6919   1.776   5.941   1.190 -1.1654  1.2089 -1.6561
 2305TIP3   OH2 6920   1.489   1.427   4.863  0.2543  0.1336 -0.2016
 2305TIP3    H1 6921   1.508   1.469   4.779  1.7160 -1.4208 -0.6919
 2305TIP3    H2 6922   1.554   1.462   4.923 -0.6814  1.1118  0.2869
 2306TIP3   OH2 6923   0.992   1.545   2.894 -0.6823 -0.4030  0.0088
 2306TIP3    H1 6924   0.984   1.577   2.804  0.4093 -0.0206  0.0302
 2306TIP3    H2 6925   0.908   1.567   2.935 -1.3819 -1.0235 -1.0352
 2307TIP3   OH2 6926   1.694   4.507   0.775 -0.6998 -0.5177  0.3163
 2307TIP3    H1 6927   1.787   4.499   0.797 -0.5148 -1.2734 -0.6613
 2307TIP3    H2 6928   1.654   4.548   0.852  0.5564  0.4712  0.4762
 2308TIP3   OH2 6929   1.554   3.910   2.375  0.3377 -0.0194  0.5172
 2308TIP3    H1 6930   1.536   3.817   2.364  0.3514  0.2489 -2.6743
 2308TIP3    H2 6931   1.472   3.946   2.411 -1.0939 -0.7589 -1.7668
 2309TIP3   OH2 6932   5.862   5.519   3.683  0.4492  0.2637 -0.3625
 2309TIP3    H1 6933   5.791   5.532   3.620  0.3011 -2.8063 -1.0001
 2309TIP3    H2 6934   5.819   5.482   3.760  0.9747  1.5046  0.5543
 2310TIP3   OH2 6935   2.149   3.032   4.644  0.1336 -0.0147  0.1276
 2310TIP3    H1 6936   2.134   3.103   4.707 -0.1955 -0.0250  0.0629
 2310TIP3    H2 6937   2.206   2.971   4.690  0.3122  0.2282  0.2323
 2311TIP3   OH2 6938   4.132   3.454   2.203 -0.1665 -0.0043  0.1696
 2311TIP3    H1 6939   4.146   3.480   2.112  1.6156 -1.4897 -0.0302
 2311TIP3    H2 6940   4.052   3.401   2.201 -0.3277  0.2584 -0.4606
 2312TIP3   OH2 6941   1.464   1.471   2.477  0.2354 -0.0086 -0.6756
 2312TIP3    H1 6942   1.419   1.533   2.534 -0.2638 -0.5272 -0.4954
 2312TIP3    H2 6943   1.556   1.493   2.486  0.0191  1.2301 -1.2371
 2313TIP3   OH2 6944   1.402   0.883   1.069  0.0454  0.1780  0.7330
 2313TIP3    H1 6945   1.360   0.804   1.103  0.0807 -0.4782 -0.6867
 2313TIP3    H2 6946   1.333   0.949   1.069 -0.3589 -0.2390  0.6027
 2314TIP3   OH2 6947   2.295   1.029   0.418 -0.0009  0.1781 -0.0524
 2314TIP3    H1 6948   2.277   1.042   0.325 -1.4568 -0.0570  0.1752
 2314TIP3    H2 6949   2.289   0.934   0.430  3.9749 -0.3078 -0.4108
 2315TIP3   OH2 6950   3.627   1.729   2.697 -0.3244  0.2463  0.1766
 2315TIP3    H1 6951   3.695   1.773   2.750 -0.6385  1.7397 -0.6020
 2315TIP3    H2 6952   3.546   1.772   2.724 -0.6539  0.0944 -0.5698
 2316TIP3   OH2 6953   4.233   1.839   0.476 -0.4053 -0.0944  0.1432
 2316TIP3    H1 6954   4.197   1.781   0.543  1.9738  0.0061  1.6394
 2316TIP3    H2 6955   4.160   1.855   0.416 -2.5526 -0.5712  2.4402
 2317TIP3   OH2 6956   1.155   1.107   3.452 -0.4022  0.1281 -0.0185
 2317TIP3    H1 6957   1.107   1.138   3.529 -0.3794 -0.3678  0.1981
 2317TIP3    H2 6958   1.147   1.012   3.455 -1.8504  0.1405 -1.5628
 2318TIP3   OH2 6959   3.492   1.731   1.583  0.0150  0.1841  0.0426
 2318TIP3    H1 6960   3.433   1.801   1.555 -1.2993 -0.9865 -0.2523
 2318TIP3    H2 6961   3.501   1.675   1.506  0.2764 -0.4709  0.5391
 2319TIP3   OH2 6962   3.971   0.985   2.947 -0.7539  0.3373 -0.3532
 2319TIP3    H1 6963   4.001   0.918   3.007 -2.3141 -0.9630 -0.9687
 2319TIP3    H2 6964   4.007   0.959   2.862  1.3498  2.1008 -0.0750
 2320TIP3   OH2 6965   6.314   2.931   3.917 -1.0642  0.0314 -0.3204
 2320TIP3    H1 6966   6.263   2.852   3.930 -2.0417  0.9528  2.1069
 2320TIP3    H2 6967   6.249   3.000   3.900 -0.1522  0.1154 -4.6627
 2321TIP3   OH2 6968   4.344   0.097   0.576 -0.1021 -0.1192 -0.2446
 2321TIP3    H1 6969   4.400   0.026   0.606 -0.1063 -0.1927 -0.4112
 2321TIP3    H2 6970   4.366   0.171   0.633 -0.7224 -0.5006  0.5013
 2322TIP3   OH2 6971   3.180   0.308   2.895 -0.0578 -0.5923  0.0841
 2322TIP3    H1 6972   3.174   0.403   2.901  1.9970 -0.4484  0.2783
 2322TIP3    H2 6973   3.214   0.291   2.807  0.7213 -1.0842  0.4715
 2323TIP3   OH2 6974   5.410   1.421   3.930 -0.3091  0.3993  0.2293
 2323TIP3    H1 6975   5.427   1.395   4.020 -0.4249  0.2270  0.2032
 2323TIP3    H2 6976   5.316   1.437   3.926 -0.3101  0.3745  0.1328
 2324TIP3   OH2 6977   2.069   0.463   1.773 -0.2473 -0.8205  0.0758
 2324TIP3    H1 6978   1.982   0.503   1.785  0.4025  1.2106 -1.3914
 2324TIP3    H2 6979   2.054   0.393   1.709 -0.6834  0.1260 -0.8901
 2325TIP3   OH2 6980   5.386   5.591   2.458 -0.0625 -0.4404 -0.1830
 2325TIP3    H1 6981   5.466   5.632   2.492 -1.1659  1.3431  0.3841
 2325TIP3    H2 6982   5.386   5.613   2.365 -0.2952  0.3038 -0.0173
 2326TIP3   OH2 6983   5.999   3.262   2.125 -0.8420 -0.2654 -0.1609
 2326TIP3    H1 6984   6.077   3.256   2.180 -0.3234 -2.2422 -1.0355
 2326TIP3    H2 6985   6.033   3.288   2.039 -1.0633 -1.5370 -0.6496
 2327TIP3   OH2 6986   1.526   5.085   3.260 -0.5727 -0.1132 -0.2096
 2327TIP3    H1 6987   1.604   5.069   3.313  1.6429  1.7691 -2.6789
 2327TIP3    H2 6988   1.517   5.006   3.206 -0.5181 -0.4158  0.2194
 2328TIP3   OH2 6989   0.393   4.692   3.682  0.3047  0.1845  0.4842
 2328TIP3    H1 6990   0.396   4.772   3.733  0.8320  0.9937 -0.7595
 2328TIP3    H2 6991   0.328   4.637   3.726  0.2965  1.0917  1.6325
 2329TIP3   OH2 6992   2.396   4.281   4.299 -0.3062  0.3725 -0.2518
 2329TIP3    H1 6993   2.312   4.313   4.332  0.3071  1.0902  0.6921
 2329TIP3    H2 6994   2.404   4.318   4.211 -0.2246  1.7400  0.3073
 2330TIP3   OH2 6995   2.883   0.957   2.917  0.0399  0.1426  0.0247
 2330TIP3    H1 6996   2.937   0.987   2.844 -0.0047  1.7157  0.6031
 2330TIP3    H2 6997   2.832   0.884   2.881  0.8299  0.1514 -1.1759
 2331TIP3   OH2 6998   4.134   3.215   0.233 -0.0748 -0.3040 -0.0257
 2331TIP3    H1 6999   4.081   3.222   0.312 -0.2161  2.0499 -0.2703
 2331TIP3    H2 7000   4.106   3.288   0.178  2.3338  0.0932 -0.8393
 2332TIP3   OH2 7001   5.898   4.224   0.890  0.0978  0.3710 -0.4308
 2332TIP3    H1 7002   5.907   4.313   0.857  0.4601  0.3028 -0.5272
 2332TIP3    H2 7003   5.988   4.193   0.898  0.0347  0.4453  0.7921
 2333TIP3   OH2 7004   4.034   2.680   3.687 -0.3761  0.6054  0.2572
 2333TIP3    H1 7005   4.035   2.663   3.781 -0.2760 -1.9758 -0.1358
 2333TIP3    H2 7006   3.949   2.648   3.657 -0.3253  1.2033 -0.5799
 2334TIP3   OH2 7007   0.409   2.377   3.062 -0.2368  0.4034  0.4233
 2334TIP3    H1 7008   0.466   2.401   3.135 -0.6976 -0.3671  1.0462
 2334TIP3    H2 7009   0.464   2.319   3.008  0.0997  0.9669  0.1394
 2335TIP3   OH2 7010   4.825   4.469   4.682  0.2718  0.3549  0.3999
 2335TIP3    H1 7011   4.783   4.547   4.720 -0.9689  0.5739 -1.2727
 2335TIP3    H2 7012   4.816   4.402   4.749 -0.6772  1.0594  1.0130
 2336TIP3   OH2 7013   1.035   5.352   2.359  0.0681  0.2985 -0.1655
 2336TIP3    H1 7014   0.960   5.301   2.328 -0.1240  1.6904 -2.2419
 2336TIP3    H2 7015   0.996   5.425   2.406  0.0756  0.8883 -1.0344
 2337TIP3   OH2 7016   0.164   5.918   2.731  0.0172 -0.0704  0.0713
 2337TIP3    H1 7017   0.131   6.003   2.760 -0.0337 -0.2081  0.4225
 2337TIP3    H2 7018   0.146   5.859   2.804  0.2127 -0.3454 -0.1002
 2338TIP3   OH2 7019   0.432   3.640  -0.004 -0.0078 -0.0368  0.1713
 2338TIP3    H1 7020   0.421   3.728   0.033  2.4210  0.7727 -0.8227
 2338TIP3    H2 7021   0.477   3.591   0.065  0.2466  0.0298  0.0506
 2339TIP3   OH2 7022   5.742   5.348   1.309  0.2165  0.2681 -0.0976
 2339TIP3    H1 7023   5.655   5.313   1.328 -0.8830  1.8701 -1.8228
 2339TIP3    H2 7024   5.790   5.275   1.272 -0.2931 -0.6956  1.0574
 2340TIP3   OH2 7025   1.660   3.641   2.566  0.2771 -0.4257 -0.1453
 2340TIP3    H1 7026   1.628   3.584   2.636  0.0536 -0.3240 -0.1626
 2340TIP3    H2 7027   1.621   3.606   2.486 -1.2354  0.7253  0.0329
 2341TIP3   OH2 7028   5.942   1.314   4.651  0.4426 -0.5498 -0.2245
 2341TIP3    H1 7029   6.026   1.268   4.640  0.9194 -0.2765  1.8042
 2341TIP3    H2 7030   5.962   1.384   4.713 -1.0831  0.1736 -0.5190
 2342TIP3   OH2 7031   0.815   0.528   4.087  0.0608  0.2970 -0.6718
 2342TIP3    H1 7032   0.844   0.616   4.061  0.6799 -0.4882 -2.7767
 2342TIP3    H2 7033   0.810   0.533   4.183  1.5452  2.1745 -0.6227
 2343TIP3   OH2 7034   5.932   1.953   2.657 -0.3237 -0.2611 -0.2303
 2343TIP3    H1 7035   5.860   1.896   2.684  0.2436 -0.2593  1.4180
 2343TIP3    H2 7036   5.898   2.041   2.670 -0.0999 -0.2602  0.4065
 2344TIP3   OH2 7037   0.792   0.764   0.412  0.1954  0.3698 -0.0874
 2344TIP3    H1 7038   0.883   0.789   0.394 -0.2510  1.2516 -1.2021
 2344TIP3    H2 7039   0.762   0.828   0.477 -0.3344  1.5863 -1.4772
 2345TIP3   OH2 7040   1.219   2.197   1.321 -0.2575 -0.4586 -0.2296
 2345TIP3    H1 7041   1.174   2.261   1.377 -0.1172 -0.1904 -0.4232
 2345TIP3    H2 7042   1.147   2.147   1.280 -0.3629 -0.5406  0.0534
 2346TIP3   OH2 7043   4.087   0.303   1.975  0.5739  0.1172 -0.2645
 2346TIP3    H1 7044   4.065   0.379   1.922 -0.5150 -0.1609 -0.2328
 2346TIP3    H2 7045   4.081   0.229   1.915 -0.2856 -0.1541  0.1314
 2347TIP3   OH2 7046   2.543   4.568   2.033 -0.3307  0.2453 -0.0172
 2347TIP3    H1 7047   2.504   4.611   2.109 -0.0155  0.3066  0.1121
 2347TIP3    H2 7048   2.469   4.546   1.977 -0.7264 -1.1963  1.0154
 2348TIP3   OH2 7049   2.786   5.082   1.508  0.1819  0.4192  0.0632
 2348TIP3    H1 7050   2.760   5.068   1.416  0.0825 -0.5612  0.2279
 2348TIP3    H2 7051   2.708   5.060   1.558  0.4188  0.3747  0.4150
 2349TIP3   OH2 7052   4.540   1.190   0.323 -0.3895  0.6603  0.0438
 2349TIP3    H1 7053   4.582   1.107   0.343 -2.2391 -0.4297 -0.4366
 2349TIP3    H2 7054   4.555   1.244   0.400  0.1191 -0.4001  0.7056
 2350TIP3   OH2 7055   3.444   3.213   0.790 -1.2076 -0.5554 -0.1129
 2350TIP3    H1 7056   3.455   3.155   0.866 -0.9475 -0.2238  0.1045
 2350TIP3    H2 7057   3.533   3.233   0.761 -1.2180  1.0815  0.8492
 2351TIP3   OH2 7058   0.626   4.106   3.189  0.4183 -0.2038 -0.3584
 2351TIP3    H1 7059   0.572   4.058   3.252  0.8369 -1.1428 -0.7055
 2351TIP3    H2 7060   0.681   4.040   3.148  0.5903  0.4831 -1.2813
 2352TIP3   OH2 7061   1.376   3.648   0.954  0.0778 -0.0024 -0.4977
 2352TIP3    H1 7062   1.439   3.709   0.917  0.4115 -0.5513 -0.8611
 2352TIP3    H2 7063   1.390   3.567   0.905  0.4800 -0.7305  0.7500
 2353TIP3   OH2 7064   5.773   5.074   1.976 -0.2585  0.2600 -0.0981
 2353TIP3    H1 7065   5.739   5.096   1.889 -0.0341  1.8555  0.1836
 2353TIP3    H2 7066   5.855   5.123   1.982 -0.3346  0.2677  1.0673
 2354TIP3   OH2 7067   0.889   3.873   0.161 -0.4997  0.1910  0.1955
 2354TIP3    H1 7068   0.981   3.874   0.186 -0.3204 -0.9889 -0.3264
 2354TIP3    H2 7069   0.881   3.944   0.097  0.1836 -0.0579 -0.1754
 2355TIP3   OH2 7070   3.021   1.453   3.672 -0.3807 -0.1206  0.1741
 2355TIP3    H1 7071   2.951   1.491   3.619 -0.7029  0.9712  1.3427
 2355TIP3    H2 7072   3.102   1.485   3.633 -0.6438  2.1966  1.3769
 2356TIP3   OH2 7073   2.791   5.003   2.542  0.4118 -0.3777 -0.3363
 2356TIP3    H1 7074   2.857   4.939   2.515  0.5071  0.4699 -2.2481
 2356TIP3    H2 7075   2.833   5.088   2.528 -1.2099  0.2064 -2.0929
 2357TIP3   OH2 7076   1.467   5.514   0.902 -0.5471 -0.8636  0.6221
 2357TIP3    H1 7077   1.474   5.466   0.819 -4.5543  0.6762 -0.8726
 2357TIP3    H2 7078   1.460   5.606   0.875  0.8073 -0.0129  2.9483
 2358TIP3   OH2 7079   2.668   2.071   2.088 -0.0242 -0.0325  0.5958
 2358TIP3    H1 7080   2.722   1.992   2.083  1.2203  0.8908 -1.6995
 2358TIP3    H2 7081   2.727   2.137   2.125 -0.3332  0.4089  0.2925
 2359TIP3   OH2 7082   0.334   1.149   2.642 -0.5630  0.3162  0.8667
 2359TIP3    H1 7083   0.424   1.120   2.655 -0.1253  1.1096 -0.2603
 2359TIP3    H2 7084   0.298   1.090   2.577 -1.1502 -0.5247  1.9177
 2360TIP3   OH2 7085   0.403   3.809   2.495 -0.5181  0.2399  0.0233
 2360TIP3    H1 7086   0.457   3.778   2.567 -1.1457  0.7786  0.7369
 2360TIP3    H2 7087   0.375   3.730   2.450 -0.2233 -0.1068  0.4366
 2361TIP3   OH2 7088   3.678   2.193   3.454  0.0265  0.4851  0.0065
 2361TIP3    H1 7089   3.634   2.264   3.409  0.1499  0.1010 -0.7285
 2361TIP3    H2 7090   3.766   2.226   3.472 -0.2840  0.9428  0.7231
 2362TIP3   OH2 7091   0.168   3.637   0.485 -0.2362 -0.1483  0.2348
 2362TIP3    H1 7092   0.108   3.564   0.498  0.4089 -0.5093  1.3421
 2362TIP3    H2 7093   0.234   3.627   0.554 -0.0675  1.4113  0.3418
 2363TIP3   OH2 7094   5.522   3.762   1.025 -0.2203  0.0587  0.3716
 2363TIP3    H1 7095   5.464   3.768   0.948 -1.0626  0.7704  1.0418
 2363TIP3    H2 7096   5.610   3.766   0.989 -0.6049  0.6213 -0.5488
 2364TIP3   OH2 7097   4.256   4.839   3.327 -0.2013 -0.2684  0.6812
 2364TIP3    H1 7098   4.187   4.870   3.268  0.8051  2.9171  0.9712
 2364TIP3    H2 7099   4.217   4.846   3.414 -1.4951 -4.4408  0.6392
 2365TIP3   OH2 7100   3.016   3.200   3.187  0.4000  0.1525  0.0123
 2365TIP3    H1 7101   2.964   3.120   3.193 -1.8772  1.5230 -0.6276
 2365TIP3    H2 7102   3.104   3.173   3.215 -0.7810 -2.0790  1.9290
 2366TIP3   OH2 7103   3.983   4.118   3.029 -0.3830  0.3030  0.2489
 2366TIP3    H1 7104   4.076   4.092   3.029  0.2707  2.4351 -0.3077
 2366TIP3    H2 7105   3.959   4.119   2.937 -0.8076  0.2499  0.3601
 2367TIP3   OH2 7106   0.608   2.540   1.347  0.0552 -0.3114  0.1983
 2367TIP3    H1 7107   0.580   2.450   1.362 -1.4852  0.0196 -0.5092
 2367TIP3    H2 7108   0.573   2.589   1.421 -0.8861  0.0236 -0.4468
 2368TIP3   OH2 7109   4.131   5.571   2.949 -0.1830  0.0359 -0.2735
 2368TIP3    H1 7110   4.051   5.520   2.939  1.0334 -1.9854 -0.4159
 2368TIP3    H2 7111   4.152   5.602   2.861 -0.8153  0.6206 -0.2245
 2369TIP3   OH2 7112   2.432   0.711   2.470  1.1522 -0.0149 -0.3759
 2369TIP3    H1 7113   2.462   0.628   2.508  1.0877 -0.0952 -0.4964
 2369TIP3    H2 7114   2.464   0.707   2.379  0.2106 -0.4003 -0.7013
 2370TIP3   OH2 7115   4.393   4.841   0.562 -0.2196 -0.4385  0.2938
 2370TIP3    H1 7116   4.405   4.827   0.656  1.3205  0.8697  0.3379
 2370TIP3    H2 7117   4.367   4.755   0.528 -1.5000 -0.7709  1.9840
 2371TIP3   OH2 7118   1.885   3.299   1.540 -0.2375 -0.0804 -0.2061
 2371TIP3    H1 7119   1.795   3.272   1.525 -0.8701  1.6603  0.2286
 2371TIP3    H2 7120   1.921   3.310   1.452 -0.7051 -0.0172 -0.3937
 2372TIP3   OH2 7121   4.953   0.759   0.997  0.1259 -0.6682  0.0589
 2372TIP3    H1 7122   4.908   0.832   1.040 -1.7407 -1.2853 -0.7513
 2372TIP3    H2 7123   4.944   0.686   1.058 -1.6489 -1.2743 -0.8462
 2373TIP3   OH2 7124   1.646   4.433   2.242  0.0793  0.4434 -0.3096
 2373TIP3    H1 7125   1.673   4.452   2.332 -0.6783 -0.1640  0.0526
 2373TIP3    H2 7126   1.725   4.397   2.201  0.5981  1.2541 -0.0697
 2374TIP3   OH2 7127   1.901   5.266   0.029 -0.0052  0.6408  0.0792
 2374TIP3    H1 7128   1.828   5.288   0.087 -0.8580  1.7319 -1.3166
 2374TIP3    H2 7129   1.957   5.344   0.030  0.5131  0.2685  0.2363
 2375TIP3   OH2 7130   0.089   1.164   3.158 -0.2118 -0.1828 -0.5812
 2375TIP3    H1 7131   0.094   1.097   3.226  0.0221  0.3346 -0.0764
 2375TIP3    H2 7132   0.165   1.146   3.102  0.5003  0.3327  0.1967
 2376TIP3   OH2 7133   3.768   5.973   2.149 -0.1777  0.2319 -0.1760
 2376TIP3    H1 7134   3.764   5.890   2.101  1.1557 -0.2045  0.4108
 2376TIP3    H2 7135   3.855   6.008   2.129 -0.7168  1.4864 -0.3997
 2377TIP3   OH2 7136   0.948   3.399   1.304 -0.4106 -0.7612 -0.1768
 2377TIP3    H1 7137   0.878   3.352   1.349  0.3096 -1.3351  0.3592
 2377TIP3    H2 7138   0.995   3.444   1.373  1.0946 -2.1684 -0.2267
 2378TIP3   OH2 7139   2.254   2.160   0.285  0.6943 -0.2120 -0.0755
 2378TIP3    H1 7140   2.283   2.238   0.237  1.0486 -1.0569 -1.2647
 2378TIP3    H2 7141   2.226   2.194   0.370  0.4891  1.2607 -0.7029
 2379TIP3   OH2 7142   1.493   3.844   1.992 -0.1320 -0.3955 -0.5139
 2379TIP3    H1 7143   1.584   3.851   1.965 -0.1725 -0.7042 -0.7361
 2379TIP3    H2 7144   1.477   3.923   2.044 -0.2307  0.5149 -1.8980
 2380TIP3   OH2 7145   1.921   2.980   2.844 -0.0653 -0.0120  0.1529
 2380TIP3    H1 7146   1.965   3.053   2.799 -0.3031  0.3388  0.4921
 2380TIP3    H2 7147   1.972   2.967   2.924 -0.6920  0.5208  0.6405
 2381TIP3   OH2 7148   0.189   3.727   1.279  0.2939  0.5746  0.8021
 2381TIP3    H1 7149   0.140   3.787   1.336 -1.6348  0.7808 -0.9906
 2381TIP3    H2 7150   0.167   3.754   1.190  2.1965 -0.5824 -0.0903
 2382TIP3   OH2 7151   0.877   4.197   1.390 -0.0280  0.1513  0.0855
 2382TIP3    H1 7152   0.866   4.131   1.322 -0.0953  0.0193  0.2259
 2382TIP3    H2 7153   0.789   4.233   1.403 -0.4002 -1.2083  1.5191
 2383TIP3   OH2 7154   5.943   0.111   1.556  0.1843 -0.1016 -0.6556
 2383TIP3    H1 7155   5.946   0.102   1.651  0.9662 -0.1301 -0.6760
 2383TIP3    H2 7156   5.851   0.103   1.534 -0.0128 -0.0120  0.1099
 2384TIP3   OH2 7157   4.003   2.922   0.302 -0.7640  0.2297 -0.5085
 2384TIP3    H1 7158   4.021   2.984   0.232  1.3459 -0.7088 -0.8668
 2384TIP3    H2 7159   4.047   2.959   0.379  0.5618 -0.7997 -0.7399
 2385TIP3   OH2 7160   2.094   5.762   0.938  0.1369  0.5865 -0.3969
 2385TIP3    H1 7161   2.168   5.731   0.885  0.8540  1.2876  0.1760
 2385TIP3    H2 7162   2.017   5.735   0.888  0.6755 -2.2220  0.1104
 2386TIP3   OH2 7163   1.765   5.028   2.594  0.0714 -0.6760 -0.2482
 2386TIP3    H1 7164   1.731   4.989   2.513  0.5740  0.0767 -0.8392
 2386TIP3    H2 7165   1.788   4.954   2.649 -0.5029 -1.2018 -0.7001
 2387TIP3   OH2 7166   2.479   0.408   0.809  0.3779  0.3202  0.5413
 2387TIP3    H1 7167   2.423   0.392   0.885  0.1472  0.9567  0.5019
 2387TIP3    H2 7168   2.565   0.377   0.837 -0.0865 -1.1679  0.4135
 2388TIP3   OH2 7169   4.128   4.217   2.053 -0.0328 -0.2436 -0.3373
 2388TIP3    H1 7170   4.060   4.175   2.106 -1.0734  0.5362 -1.0192
 2388TIP3    H2 7171   4.081   4.277   1.996  1.2055  0.0711 -1.0773
 2389TIP3   OH2 7172   6.282   4.212   1.777 -0.0338  0.2467  0.2108
 2389TIP3    H1 7173   6.357   4.228   1.835 -0.2304  0.4753  0.4054
 2389TIP3    H2 7174   6.250   4.300   1.755  0.4836  0.1878 -0.8420
 2390TIP3   OH2 7175   4.748   5.234   0.392  0.0174  0.1104 -0.2663
 2390TIP3    H1 7176   4.825   5.282   0.423  1.8844 -2.9793  0.2407
 2390TIP3    H2 7177   4.716   5.186   0.468 -1.4632  0.0594 -0.8732
 2391TIP3   OH2 7178   4.267   5.472   4.469 -0.1401 -0.4546  0.4918
 2391TIP3    H1 7179   4.257   5.520   4.551 -0.5820  1.4266 -0.5994
 2391TIP3    H2 7180   4.178   5.457   4.439  0.0144 -1.3305  0.4488
 2392TIP3   OH2 7181   2.424   2.563   1.208 -0.2144 -0.1998  0.2443
 2392TIP3    H1 7182   2.400   2.481   1.165  1.0462 -0.5639  0.1797
 2392TIP3    H2 7183   2.379   2.561   1.292 -0.6592 -0.6837 -0.0056
 2393TIP3   OH2 7184   1.376   5.153   4.875 -0.4278 -0.7405 -0.0225
 2393TIP3    H1 7185   1.313   5.223   4.893  1.3733  0.6890  1.0770
 2393TIP3    H2 7186   1.428   5.147   4.955  1.5014 -1.1203 -1.2502
 2394TIP3   OH2 7187   5.984   0.832   0.324 -0.0756  0.3594  0.1307
 2394TIP3    H1 7188   5.973   0.872   0.411  0.6988 -0.8543  0.8089
 2394TIP3    H2 7189   6.027   0.900   0.272 -0.4781  1.0729  0.6992
 2395TIP3   OH2 7190   4.050   5.867   4.047  0.1505  0.1986 -0.2157
 2395TIP3    H1 7191   4.013   5.954   4.030  1.3643  1.0595  1.2932
 2395TIP3    H2 7192   4.144   5.877   4.033  0.2335 -1.0926 -0.7561
 2396TIP3   OH2 7193   4.200   2.157   0.449  0.3966 -0.1447 -0.5069
 2396TIP3    H1 7194   4.141   2.112   0.509  1.1605 -0.6354 -0.1065
 2396TIP3    H2 7195   4.173   2.127   0.362 -2.2408  2.3100 -0.6955
 2397TIP3   OH2 7196   5.943   1.894   0.568 -0.1849  0.0938 -0.6406
 2397TIP3    H1 7197   5.965   1.846   0.488  0.0109 -2.6338  0.9454
 2397TIP3    H2 7198   5.855   1.928   0.552 -1.1778 -2.5230 -1.1498
 2398TIP3   OH2 7199   3.635   4.322   4.996  0.2262  0.1830  0.5596
 2398TIP3    H1 7200   3.681   4.356   5.072 -0.9811 -1.9852  2.3819
 2398TIP3    H2 7201   3.680   4.239   4.976 -0.3131  0.0721 -0.2272
 2399TIP3   OH2 7202   1.862   3.590   3.205  0.1688 -0.2810 -0.2745
 2399TIP3    H1 7203   1.931   3.541   3.250  1.0185  1.4961  0.4336
 2399TIP3    H2 7204   1.781   3.556   3.242  0.7696 -0.6213  0.7706
 2400TIP3   OH2 7205   0.153   2.264   1.002  0.1201 -0.1270  0.2536
 2400TIP3    H1 7206   0.233   2.314   1.020  1.3858 -2.4473  1.5553
 2400TIP3    H2 7207   0.085   2.308   1.054  1.1907  0.2502  1.3766
 2401TIP3   OH2 7208   2.371   5.568   1.724 -0.3218  0.1053 -1.0510
 2401TIP3    H1 7209   2.304   5.514   1.766 -0.0529  0.8993  0.4395
 2401TIP3    H2 7210   2.328   5.603   1.646 -1.0260 -0.8932 -1.1391
 2402TIP3   OH2 7211   4.042   5.398   2.270 -0.0129 -0.0690 -0.1582
 2402TIP3    H1 7212   4.023   5.355   2.354  1.2736  1.1064  0.7725
 2402TIP3    H2 7213   4.105   5.340   2.227  0.3930  0.0126  0.3197
 2403TIP3   OH2 7214   2.131   3.531   4.849  0.6640  0.0536  0.1578
 2403TIP3    H1 7215   2.040   3.540   4.878  0.5404 -1.1221  0.1755
 2403TIP3    H2 7216   2.135   3.580   4.767 -0.0528 -0.1005  0.0282
 2404TIP3   OH2 7217   5.066   0.212   1.995 -0.5565 -0.3567 -0.4855
 2404TIP3    H1 7218   5.075   0.117   2.006 -1.2295 -0.3935 -0.1786
 2404TIP3    H2 7219   5.093   0.228   1.904 -1.1216 -0.9511 -0.7737
 2405TIP3   OH2 7220   3.986   1.213   3.444  0.4182  0.1416  0.1238
 2405TIP3    H1 7221   3.962   1.171   3.361 -0.5746  2.6062 -0.9284
 2405TIP3    H2 7222   3.934   1.293   3.447  0.5352  0.2218  3.1053
 2406TIP3   OH2 7223   3.672   4.401   1.981 -0.2488 -0.3064  0.2986
 2406TIP3    H1 7224   3.672   4.496   1.969  1.7897 -0.4531 -1.5605
 2406TIP3    H2 7225   3.606   4.369   1.919 -0.3261 -0.1365  0.2937
 2407TIP3   OH2 7226   2.327   5.271   2.695 -0.2505  0.1604 -0.1286
 2407TIP3    H1 7227   2.252   5.213   2.678  0.6653 -0.5693 -1.8959
 2407TIP3    H2 7228   2.290   5.360   2.690 -1.0813 -0.1946 -0.5121
 2408TIP3   OH2 7229   5.796   2.836   1.950  0.7431  0.1645 -0.2435
 2408TIP3    H1 7230   5.714   2.795   1.922  1.1638 -0.9127  0.0294
 2408TIP3    H2 7231   5.779   2.863   2.040  1.0655 -1.2425  0.2768
 2409TIP3   OH2 7232   4.874   3.230   2.530  0.2334 -0.0014  0.2504
 2409TIP3    H1 7233   4.797   3.212   2.476  0.0319  1.3282  0.0741
 2409TIP3    H2 7234   4.948   3.222   2.469  0.1584 -0.2298  0.1860
 2410TIP3   OH2 7235   5.518   3.013   4.948 -0.1827 -0.7278  0.5190
 2410TIP3    H1 7236   5.512   3.099   4.907  0.0524  0.8586  3.5721
 2410TIP3    H2 7237   5.610   3.002   4.969 -0.4813 -0.8853  1.7979
 2411TIP3   OH2 7238   2.473   1.958   1.067  0.5371  0.3650 -0.2724
 2411TIP3    H1 7239   2.507   1.925   1.151  0.2909  0.2025 -0.2350
 2411TIP3    H2 7240   2.377   1.951   1.076  0.5221 -0.2310 -0.7996
 2412TIP3   OH2 7241   0.174   4.470   4.361  0.1643  0.2842 -0.0434
 2412TIP3    H1 7242   0.215   4.541   4.410  0.1913  0.3734 -0.1925
 2412TIP3    H2 7243   0.080   4.483   4.374 -0.0875  2.6383 -3.1071
 2413TIP3   OH2 7244   0.366   0.325   0.062  0.5586 -0.1906  0.1359
 2413TIP3    H1 7245   0.384   0.379   0.139  2.3852 -0.3570 -0.1195
 2413TIP3    H2 7246   0.378   0.235   0.093 -0.4400 -0.3491  0.0708
 2414TIP3   OH2 7247   1.770   1.770   2.405  0.5358  0.0206 -0.3283
 2414TIP3    H1 7248   1.742   1.685   2.440 -0.7716  0.3330 -0.5491
 2414TIP3    H2 7249   1.688   1.817   2.389  1.2287  1.7077  0.7256
 2415TIP3   OH2 7250   1.846   0.602   1.795  0.6208  0.4140 -0.2870
 2415TIP3    H1 7251   1.841   0.603   1.890 -0.2211 -0.4639 -0.3022
 2415TIP3    H2 7252   1.786   0.671   1.767  2.2294  1.9186 -0.1781
 2416TIP3   OH2 7253   3.906   3.309   2.134 -0.2000  0.0171  0.7262
 2416TIP3    H1 7254   3.884   3.224   2.094  2.7842 -0.9922  0.9796
 2416TIP3    H2 7255   3.887   3.373   2.066 -0.7739 -1.0372 -0.1485
 2417TIP3   OH2 7256   1.851   3.589   2.881  0.4576  0.1200  0.0340
 2417TIP3    H1 7257   1.921   3.528   2.857  0.8619 -0.1696  1.7915
 2417TIP3    H2 7258   1.851   3.589   2.977 -0.3469  1.9800  0.0753
 2418TIP3   OH2 7259   1.264   1.505   1.828 -0.3590  0.2008  0.1454
 2418TIP3    H1 7260   1.182   1.550   1.807 -0.3054 -0.2701 -1.2009
 2418TIP3    H2 7261   1.246   1.413   1.807  0.6228  0.1592 -0.5897
 2419TIP3   OH2 7262   0.321   2.164   4.746 -0.1598 -0.2007  0.2698
 2419TIP3    H1 7263   0.390   2.208   4.796  0.2690 -0.2828 -0.2404
 2419TIP3    H2 7264   0.288   2.232   4.687 -0.9343  0.0063  0.9118
 2420TIP3   OH2 7265   1.383   3.518   1.777 -0.0456  0.8729 -0.1380
 2420TIP3    H1 7266   1.325   3.454   1.736  0.5959  0.4868 -0.4539
 2420TIP3    H2 7267   1.329   3.597   1.785 -1.5207 -0.2301  2.1001
 2421TIP3   OH2 7268   1.487   2.641   2.155  0.2148  0.6017 -0.2846
 2421TIP3    H1 7269   1.423   2.640   2.226 -0.5292  1.1250 -0.9379
 2421TIP3    H2 7270   1.571   2.628   2.199 -0.0893  2.1297  0.8392
 2422TIP3   OH2 7271   4.043   1.020   3.683  0.7946 -0.3049  0.1622
 2422TIP3    H1 7272   3.990   1.012   3.604  0.2040 -1.5528  0.6665
 2422TIP3    H2 7273   4.022   1.107   3.717 -0.5258 -0.5646  0.0646
 2423TIP3   OH2 7274   3.014   0.580   2.700  0.4459  0.4492 -0.5996
 2423TIP3    H1 7275   2.958   0.534   2.762  0.5038  1.7700  0.4774
 2423TIP3    H2 7276   3.098   0.589   2.744  0.5811  1.1387 -0.9725
 2424TIP3   OH2 7277   4.999   3.788   4.544  0.6524 -0.2690 -0.1126
 2424TIP3    H1 7278   5.019   3.753   4.630  1.8770 -0.2610 -0.3771
 2424TIP3    H2 7279   5.077   3.770   4.491  0.3063  0.5711 -0.9595
 2425TIP3   OH2 7280   2.239   5.311   0.511 -0.0084  0.1176  0.7455
 2425TIP3    H1 7281   2.262   5.401   0.537 -0.6300  0.2231  0.9320
 2425TIP3    H2 7282   2.251   5.259   0.590  2.2665 -0.3414  0.1785
 2426TIP3   OH2 7283   0.983   3.872   2.276  0.4006 -0.0813  0.0453
 2426TIP3    H1 7284   1.055   3.811   2.295  0.1411 -0.5829 -0.5576
 2426TIP3    H2 7285   0.905   3.817   2.275 -0.2680  0.7303  2.4700
 2427TIP3   OH2 7286   0.476   3.399   5.194 -0.1892  0.1031  0.0511
 2427TIP3    H1 7287   0.472   3.433   5.105 -0.2428  0.4836  0.1930
 2427TIP3    H2 7288   0.557   3.348   5.197  0.5443  1.2366  0.1726
 2428TIP3   OH2 7289   5.974   4.314   3.437 -0.0390  0.1822 -0.1575
 2428TIP3    H1 7290   5.891   4.353   3.409  1.2115  0.5722 -3.8610
 2428TIP3    H2 7291   5.965   4.221   3.412  0.5667  0.2029 -0.4562
 2429TIP3   OH2 7292   3.971   2.778   4.335  0.1765  0.0021  0.2555
 2429TIP3    H1 7293   3.970   2.861   4.287  0.7668  0.0580  0.3240
 2429TIP3    H2 7294   4.026   2.721   4.282  1.8195  0.4236  1.4041
 2430TIP3   OH2 7295   4.643   0.474   3.727 -0.1657 -0.1002  0.6362
 2430TIP3    H1 7296   4.629   0.541   3.660  0.7336 -0.7503 -0.2347
 2430TIP3    H2 7297   4.557   0.435   3.740 -0.5615  0.7584  0.6578
 2431TIP3   OH2 7298   3.413   5.830   4.972  0.2787 -0.2344  0.0693
 2431TIP3    H1 7299   3.444   5.907   5.021  0.0781 -1.1735  1.7341
 2431TIP3    H2 7300   3.341   5.795   5.024  0.2661 -1.4792 -0.7382
 2432TIP3   OH2 7301   5.101   3.724   0.902 -0.1964 -0.2095 -0.3490
 2432TIP3    H1 7302   5.158   3.648   0.912  0.0883  0.1308  0.8145
 2432TIP3    H2 7303   5.161   3.799   0.907 -0.6032  0.1156 -0.2949
 2433TIP3   OH2 7304   1.477   5.623   4.449  0.2104 -0.5178 -0.3292
 2433TIP3    H1 7305   1.506   5.712   4.429  0.3247 -0.4380  0.1812
 2433TIP3    H2 7306   1.523   5.600   4.529  0.6199 -1.2570 -0.7656
 2434TIP3   OH2 7307   0.213   4.135   3.945  0.0927  0.3289 -0.7207
 2434TIP3    H1 7308   0.304   4.166   3.939  0.4668 -0.8735 -1.7085
 2434TIP3    H2 7309   0.192   4.140   4.038  1.8281 -1.1042 -0.1897
 2435TIP3   OH2 7310   2.109   0.699   1.623 -0.1398 -1.2378 -0.2360
 2435TIP3    H1 7311   2.096   0.628   1.686 -0.1078  0.8777  2.3088
 2435TIP3    H2 7312   2.178   0.666   1.565 -0.0594 -3.2478  0.8800
 2436TIP3   OH2 7313   1.842   1.907   4.531 -0.4472  0.2390 -0.6749
 2436TIP3    H1 7314   1.877   1.988   4.566 -3.0596  1.8378 -1.4367
 2436TIP3    H2 7315   1.917   1.862   4.493  1.6646  0.5766  2.7808
 2437TIP3   OH2 7316   2.808   0.328   2.581 -0.0405  0.2483 -0.1305
 2437TIP3    H1 7317   2.807   0.242   2.623 -1.1673  0.3707  0.1204
 2437TIP3    H2 7318   2.792   0.310   2.489  1.6904  0.0437 -0.4272
 2438TIP3   OH2 7319   5.478   5.921   0.702  0.5203  0.1170  0.2600
 2438TIP3    H1 7320   5.419   5.902   0.775 -0.1178  2.1634  0.3266
 2438TIP3    H2 7321   5.429   5.896   0.624 -0.4487  1.7395  0.3194
 2439TIP3   OH2 7322   5.804   1.303   0.019  0.0433  0.5736 -0.1857
 2439TIP3    H1 7323   5.794   1.272  -0.071  0.8709 -0.0755 -0.0635
 2439TIP3    H2 7324   5.793   1.225   0.073  1.3137  0.6076  0.1704
 2440TIP3   OH2 7325   2.462   2.981   1.769  0.2905  0.2440 -0.2296
 2440TIP3    H1 7326   2.540   2.958   1.819  0.3030  0.8238  0.0281
 2440TIP3    H2 7327   2.471   3.075   1.752 -0.2891  0.2942 -0.2986
 2441TIP3   OH2 7328   0.495   4.296   3.575  0.5906  0.0953 -0.6281
 2441TIP3    H1 7329   0.579   4.274   3.534  1.1997  2.9205 -1.1080
 2441TIP3    H2 7330   0.432   4.295   3.503  0.4914 -0.6549 -0.5320
 2442TIP3   OH2 7331   0.440   4.269   5.135  0.1845 -0.4077  0.2635
 2442TIP3    H1 7332   0.406   4.330   5.201  2.2803  1.6939 -0.4506
 2442TIP3    H2 7333   0.433   4.183   5.176  1.5117  0.8000  3.3361
 2443TIP3   OH2 7334   2.978   4.393   2.226 -0.0728  0.5108 -0.4457
 2443TIP3    H1 7335   2.910   4.428   2.282  0.5998  0.0815  0.6756
 2443TIP3    H2 7336   2.936   4.321   2.178 -0.4876  0.4545  0.0009
 2444TIP3   OH2 7337   2.994   1.325   2.000  0.0631 -0.4178  0.0476
 2444TIP3    H1 7338   3.081   1.286   2.005  1.2085  1.6924 -1.6332
 2444TIP3    H2 7339   2.974   1.328   1.906 -2.8734 -2.8398  0.4441
 2445TIP3   OH2 7340   2.789   0.075   0.997  0.2396 -0.2015  1.0393
 2445TIP3    H1 7341   2.761   0.030   0.917 -0.7774  1.6390  0.3039
 2445TIP3    H2 7342   2.872   0.033   1.021  2.0192  0.9382 -2.5130
 2446TIP3   OH2 7343   3.163   4.709   1.542  0.0247  0.0138  0.5406
 2446TIP3    H1 7344   3.244   4.746   1.575 -0.6021  1.5819  0.4253
 2446TIP3    H2 7345   3.095   4.770   1.571 -0.9162 -0.3747 -0.7438
 2447TIP3   OH2 7346   6.014   1.418   3.298  0.6050 -0.1596  0.8062
 2447TIP3    H1 7347   6.097   1.421   3.250 -1.4109  0.1592 -2.9555
 2447TIP3    H2 7348   5.953   1.373   3.239 -1.8981 -0.6966  3.5627
 2448TIP3   OH2 7349   3.373   1.621   3.472 -0.0757  0.2564  0.0367
 2448TIP3    H1 7350   3.334   1.541   3.438 -0.1471  0.9227 -1.5561
 2448TIP3    H2 7351   3.336   1.631   3.560 -0.1060 -1.4055  0.2356
 2449TIP3   OH2 7352   1.096   0.846   3.453 -0.5222 -0.3031  0.1840
 2449TIP3    H1 7353   1.082   0.770   3.396  1.2109 -0.6593  0.2009
 2449TIP3    H2 7354   1.007   0.874   3.476 -1.2178 -1.7141 -0.6086
 2450TIP3   OH2 7355   2.563   4.152   3.006 -0.2046 -0.1080 -0.3903
 2450TIP3    H1 7356   2.526   4.079   2.956 -2.3854  0.0997  0.7660
 2450TIP3    H2 7357   2.500   4.165   3.078  1.8326  0.7658  1.3431
 2451TIP3   OH2 7358   2.731   0.304   1.963 -0.5330  0.0162  0.1113
 2451TIP3    H1 7359   2.799   0.369   1.976  0.5510 -1.3602  1.8367
 2451TIP3    H2 7360   2.706   0.313   1.871  2.0070  0.5657 -0.6037
 2452TIP3   OH2 7361   2.708   5.353   2.517 -0.0645  0.2731  0.1824
 2452TIP3    H1 7362   2.633   5.411   2.529 -0.0506  0.9000 -2.2171
 2452TIP3    H2 7363   2.670   5.266   2.503 -0.5182  0.7878 -2.2605
 2453TIP3   OH2 7364   2.923   3.614   4.734  0.3323 -0.5912  0.0179
 2453TIP3    H1 7365   2.847   3.671   4.742  0.3688 -0.7295  1.6352
 2453TIP3    H2 7366   2.964   3.616   4.820  2.5708  0.0165 -0.9713
 2454TIP3   OH2 7367   2.559   1.038   1.524  0.3832  0.1146  0.1667
 2454TIP3    H1 7368   2.499   1.039   1.598  1.1674  1.7988  0.8106
 2454TIP3    H2 7369   2.586   0.946   1.517 -1.0750 -0.3953  0.8068
 2455TIP3   OH2 7370   3.803   4.133   3.807 -0.4179 -0.4564 -0.0970
 2455TIP3    H1 7371   3.813   4.141   3.712 -0.4939 -1.4717 -0.1987
 2455TIP3    H2 7372   3.799   4.039   3.823  1.7820 -0.4099  1.1394
 2456TIP3   OH2 7373   1.161   2.336   1.904 -0.2919 -0.5136 -0.1231
 2456TIP3    H1 7374   1.108   2.259   1.926  0.2200 -0.4068  1.6815
 2456TIP3    H2 7375   1.233   2.333   1.967 -0.1905  1.3766 -0.1078
 2457TIP3   OH2 7376   4.222   5.058   1.311  0.5275 -0.5880 -0.1145
 2457TIP3    H1 7377   4.242   5.151   1.322  0.7943 -0.5803 -0.6373
 2457TIP3    H2 7378   4.201   5.048   1.218  0.6926 -1.0850 -0.1041
 2458TIP3   OH2 7379   4.948   4.382   4.267  0.2611 -0.1546  0.5658
 2458TIP3    H1 7380   4.934   4.417   4.179 -0.3115 -1.1328  0.2454
 2458TIP3    H2 7381   4.953   4.458   4.323 -0.8781  0.4420 -0.1083
 2459TIP3   OH2 7382   5.860   1.250   3.138  0.1291  0.0490  0.1612
 2459TIP3    H1 7383   5.786   1.311   3.134  0.1432  0.1055  0.6982
 2459TIP3    H2 7384   5.825   1.168   3.104 -0.3072 -0.0422  0.8037
 2460TIP3   OH2 7385   5.829   4.023   4.746  0.4070 -0.1468  0.2338
 2460TIP3    H1 7386   5.742   3.993   4.723  0.2953 -0.2820  0.8175
 2460TIP3    H2 7387   5.817   4.114   4.773  0.7705  0.5119 -1.6986
 2461TIP3   OH2 7388   4.141   0.358   0.294  0.0551  0.1405  0.4356
 2461TIP3    H1 7389   4.107   0.274   0.326  2.1320 -0.9182  0.0188
 2461TIP3    H2 7390   4.128   0.355   0.199  1.7812 -0.5306  0.2027
 2462TIP3   OH2 7391   4.411   2.358   3.153 -0.4505 -0.1701 -0.0544
 2462TIP3    H1 7392   4.469   2.343   3.228 -1.8916  0.8324  1.3258
 2462TIP3    H2 7393   4.464   2.409   3.092  0.3141  0.2499  0.9276
 2463TIP3   OH2 7394   2.718   5.749   1.189 -0.2108  0.4177  0.3614
 2463TIP3    H1 7395   2.687   5.658   1.183 -1.6328  0.9717 -2.0838
 2463TIP3    H2 7396   2.786   5.756   1.122 -0.5339  1.2960  0.1075
 2464TIP3   OH2 7397   6.092   3.654   1.298  0.1057 -0.2614 -0.0308
 2464TIP3    H1 7398   6.056   3.728   1.348 -1.6466 -1.1623  0.1071
 2464TIP3    H2 7399   6.016   3.613   1.258  0.6674 -3.4187  1.8091
 2465TIP3   OH2 7400   1.395   2.994   1.379  0.2646 -0.5891  0.3549
 2465TIP3    H1 7401   1.417   3.078   1.419  0.0784 -1.5055  2.5400
 2465TIP3    H2 7402   1.323   2.960   1.432  0.5150 -2.2352 -0.2918
 2466TIP3   OH2 7403   5.386   2.031   4.838  0.7164  0.2522 -0.2959
 2466TIP3    H1 7404   5.401   2.049   4.745  0.8173  0.0962 -0.3124
 2466TIP3    H2 7405   5.312   1.970   4.839  1.0355 -0.1428 -0.3086
 2467TIP3   OH2 7406   2.032   4.180   1.852  0.5319  0.1201  0.6160
 2467TIP3    H1 7407   2.089   4.210   1.781  0.0580 -3.4259 -1.5124
 2467TIP3    H2 7408   1.944   4.210   1.827  0.2449 -1.7525 -0.8389
 2468TIP3   OH2 7409   0.652   3.014   4.166  0.3176  0.5714 -0.3485
 2468TIP3    H1 7410   0.592   3.083   4.138 -1.2806  0.7107  2.8895
 2468TIP3    H2 7411   0.595   2.943   4.196  1.8398 -0.6180 -0.1201
 2469TIP3   OH2 7412   3.848   5.289   1.718  0.3037 -0.2970  0.2605
 2469TIP3    H1 7413   3.903   5.211   1.715  1.8433  0.6605  1.4527
 2469TIP3    H2 7414   3.851   5.323   1.629  1.2122 -0.5933  0.1596
 2470TIP3   OH2 7415   4.039   3.833   0.582 -0.2112 -1.1111 -0.4077
 2470TIP3    H1 7416   3.943   3.834   0.587 -0.2743  1.2449 -1.0918
 2470TIP3    H2 7417   4.057   3.815   0.490 -0.1752  2.2439 -1.1866
 2471TIP3   OH2 7418   5.744   3.124   2.824  0.5363 -0.1024  0.1349
 2471TIP3    H1 7419   5.814   3.107   2.887  1.2325  0.9446 -0.3315
 2471TIP3    H2 7420   5.782   3.103   2.739 -0.3153 -1.2532  0.0064
 2472TIP3   OH2 7421   1.131   0.345   1.259  0.3101  0.2092 -0.1193
 2472TIP3    H1 7422   1.174   0.308   1.336 -0.7158  0.3321  0.5328
 2472TIP3    H2 7423   1.174   0.303   1.185 -0.3600 -1.8038  0.5714
 2473TIP3   OH2 7424   4.147   0.632   2.867  0.3114 -0.1500  0.3824
 2473TIP3    H1 7425   4.117   0.689   2.797 -1.7798 -0.3231  1.0658
 2473TIP3    H2 7426   4.213   0.684   2.914  0.7795  0.4481 -0.8851
 2474TIP3   OH2 7427   2.003   0.574   1.284  0.2071 -0.5947 -0.6939
 2474TIP3    H1 7428   1.931   0.527   1.242  0.0789 -1.6274  0.5880
 2474TIP3    H2 7429   1.961   0.625   1.353  0.2963  1.8364 -2.3482
 2475TIP3   OH2 7430   2.989   2.383   0.634 -0.2124 -0.4233 -0.2544
 2475TIP3    H1 7431   3.081   2.356   0.635  0.4791  1.7543  0.4874
 2475TIP3    H2 7432   2.974   2.416   0.723 -1.3138  0.4423 -0.7481
 2476TIP3   OH2 7433   3.113   2.104   4.352  0.4847  0.3074  0.2564
 2476TIP3    H1 7434   3.082   2.170   4.290 -0.8339  0.1037  0.6489
 2476TIP3    H2 7435   3.044   2.101   4.419  0.1387 -1.9514 -0.1121
 2477TIP3   OH2 7436   6.074   0.348   0.737 -0.6515 -0.7161 -0.1208
 2477TIP3    H1 7437   6.139   0.360   0.806  0.2004 -0.2728 -0.9791
 2477TIP3    H2 7438   6.003   0.299   0.779 -0.3952  0.0074  1.2013
 2478TIP3   OH2 7439   3.538   0.780   0.189 -0.1465  0.2201 -0.2415
 2478TIP3    H1 7440   3.558   0.734   0.108  0.2079 -0.1045  0.0265
 2478TIP3    H2 7441   3.623   0.798   0.229 -0.3205  0.2872  0.1041
 2479TIP3   OH2 7442   0.198   2.794   2.588 -0.0439 -0.1029  0.1861
 2479TIP3    H1 7443   0.178   2.776   2.680  2.5321  2.1991  1.3505
 2479TIP3    H2 7444   0.126   2.755   2.540 -2.5907  0.2873  3.3133
 2480TIP3   OH2 7445   2.998   2.923   3.268 -0.5590 -0.2192  0.3265
 2480TIP3    H1 7446   2.931   2.860   3.243 -1.7310  0.8748  0.5972
 2480TIP3    H2 7447   3.077   2.871   3.281 -0.9389 -1.3289 -1.5782
 2481TIP3   OH2 7448   3.674   2.833   1.364 -0.5238  0.2951 -0.3191
 2481TIP3    H1 7449   3.686   2.904   1.427 -0.7322  0.4504 -0.4502
 2481TIP3    H2 7450   3.586   2.800   1.381 -0.0333 -0.6498  0.4539
 2482TIP3   OH2 7451   1.982   0.051   0.748 -0.4183 -0.2699  0.1402
 2482TIP3    H1 7452   2.078   0.043   0.749 -0.5216 -1.9937  0.6833
 2482TIP3    H2 7453   1.951  -0.039   0.733 -1.9548  0.2876 -0.2065
 2483TIP3   OH2 7454   0.446   1.620   1.738  0.5567  0.1878 -0.2339
 2483TIP3    H1 7455   0.372   1.680   1.747 -0.1146 -0.7696  0.9404
 2483TIP3    H2 7456   0.421   1.562   1.666 -0.4071 -0.8468  0.8763
 2484TIP3   OH2 7457   4.622   2.610   4.087 -0.4840  0.0546 -0.5084
 2484TIP3    H1 7458   4.626   2.702   4.115 -2.2252  0.1852 -0.5455
 2484TIP3    H2 7459   4.694   2.568   4.132 -0.2721  1.2489  0.3225
 2485TIP3   OH2 7460   5.759   0.348   2.775  0.1724 -0.2657 -0.2090
 2485TIP3    H1 7461   5.791   0.434   2.800 -1.8059  0.3151  0.5512
 2485TIP3    H2 7462   5.774   0.293   2.852 -0.3916 -0.0580  0.0554
 2486TIP3   OH2 7463   5.100   4.482   3.026 -0.1499 -0.9284 -0.3746
 2486TIP3    H1 7464   5.029   4.473   3.090  0.6592 -1.5200  0.4619
 2486TIP3    H2 7465   5.142   4.396   3.026 -0.4639 -1.1084 -2.1149
 2487TIP3   OH2 7466   1.283   5.671   0.062  0.5840 -0.0948  0.6672
 2487TIP3    H1 7467   1.245   5.619   0.132 -1.1036 -2.9705 -2.0918
 2487TIP3    H2 7468   1.374   5.684   0.088 -0.1891 -0.1770  3.7514
 2488TIP3   OH2 7469   1.878   1.195   2.117  0.2410  0.2098 -0.3735
 2488TIP3    H1 7470   1.912   1.160   2.035 -1.0589 -1.3050 -0.3183
 2488TIP3    H2 7471   1.912   1.135   2.184 -1.7612 -0.8507 -0.2420
 2489TIP3   OH2 7472   5.440   4.625   5.150 -0.3025 -0.6473 -0.1427
 2489TIP3    H1 7473   5.475   4.552   5.099 -1.4881 -0.6515 -1.0130
 2489TIP3    H2 7474   5.357   4.645   5.107 -1.1183 -0.3252  1.5223
 2490TIP3   OH2 7475   1.435   3.006   3.095 -0.4716 -0.2214 -0.9778
 2490TIP3    H1 7476   1.475   2.930   3.053 -2.6245 -2.8107  1.2187
 2490TIP3    H2 7477   1.438   2.985   3.189 -2.0801  1.9438 -0.3597
 2491TIP3   OH2 7478   5.556   5.840   2.135  0.0719  0.7435  0.6912
 2491TIP3    H1 7479   5.483   5.868   2.191 -1.1290  1.0913 -0.9905
 2491TIP3    H2 7480   5.562   5.746   2.149 -0.4578  0.7638  1.1048
 2492TIP3   OH2 7481   4.638   2.381   0.753 -0.2258  0.3703  0.2673
 2492TIP3    H1 7482   4.575   2.328   0.801 -0.7241  0.7670  0.0491
 2492TIP3    H2 7483   4.590   2.459   0.727 -0.3992 -0.4577 -2.1498
 2493TIP3   OH2 7484   4.410   3.387   0.231 -0.2198 -0.6657 -0.3350
 2493TIP3    H1 7485   4.468   3.320   0.196 -0.0784 -0.4220 -0.5784
 2493TIP3    H2 7486   4.354   3.341   0.294  1.0919 -0.6760  0.8858
 2494TIP3   OH2 7487   4.201   1.089   2.416 -0.3719 -0.2585  0.2201
 2494TIP3    H1 7488   4.237   1.126   2.336 -1.3085 -1.3390 -0.7287
 2494TIP3    H2 7489   4.111   1.122   2.420 -1.1211 -2.0793 -0.4802
 2495TIP3   OH2 7490   5.172   3.660   1.314 -0.3628  0.1448  0.1808
 2495TIP3    H1 7491   5.234   3.587   1.316 -0.9119 -0.3526 -0.2654
 2495TIP3    H2 7492   5.179   3.701   1.400 -0.3164 -0.6732  0.5759
 2496TIP3   OH2 7493   3.460   4.516   0.636  0.2838  0.4982 -0.6491
 2496TIP3    H1 7494   3.457   4.586   0.570  1.0959  1.8217  0.6467
 2496TIP3    H2 7495   3.370   4.507   0.666  0.5126  2.8913  1.0092
 2497TIP3   OH2 7496   2.669   2.678   1.102  0.0912 -0.3633 -0.1854
 2497TIP3    H1 7497   2.702   2.615   1.038 -0.5705  2.0860 -3.1679
 2497TIP3    H2 7498   2.586   2.641   1.132 -0.6863 -0.6130 -2.4776
 2498TIP3   OH2 7499   3.968   1.559   0.372 -0.3070  0.2750  0.5482
 2498TIP3    H1 7500   4.006   1.508   0.443 -0.5165 -1.0775 -0.2661
 2498TIP3    H2 7501   3.946   1.644   0.411  0.6354 -0.0339  1.7869
 2499TIP3   OH2 7502   0.057   3.874   5.037 -0.7303 -0.3066  0.2773
 2499TIP3    H1 7503   0.011   3.824   4.970 -0.1332  0.8898 -1.0770
 2499TIP3    H2 7504   0.001   3.949   5.053  0.8291  1.4351 -1.7528
 2500TIP3   OH2 7505   0.229   2.164   2.459 -0.0626 -0.6555 -0.1846
 2500TIP3    H1 7506   0.243   2.197   2.371 -0.2423  2.6180  0.8828
 2500TIP3    H2 7507   0.157   2.217   2.494  0.2930 -1.5300  2.0764
 2501TIP3   OH2 7508   1.249   0.651   2.177  0.2278 -0.1828 -0.0460
 2501TIP3    H1 7509   1.165   0.618   2.209  0.1798  0.6994  0.7841
 2501TIP3    H2 7510   1.230   0.684   2.089  0.5983 -3.6509 -1.5700
 2502TIP3   OH2 7511   0.984   5.491   2.693  0.3753 -0.6443 -0.1564
 2502TIP3    H1 7512   0.961   5.522   2.605  0.6665 -2.1196 -0.7819
 2502TIP3    H2 7513   1.033   5.563   2.732  0.1230  0.0858 -1.1468
 2503TIP3   OH2 7514   3.727   2.429   0.827 -0.3860 -0.4771  0.7871
 2503TIP3    H1 7515   3.747   2.385   0.744  0.2686 -0.3194  0.8568
 2503TIP3    H2 7516   3.637   2.403   0.846  0.0541 -1.9633  0.9383
 2504TIP3   OH2 7517  -0.030   4.759   1.232  1.0415  0.1689 -0.3574
 2504TIP3    H1 7518   0.025   4.810   1.173  0.4375 -0.4550 -1.5050
 2504TIP3    H2 7519   0.013   4.674   1.237  0.7723  0.0298 -0.3838
 2505TIP3   OH2 7520   1.426   0.160   1.315  1.1852 -0.0690  0.1703
 2505TIP3    H1 7521   1.472   0.107   1.250  2.1812  0.5020  0.3847
 2505TIP3    H2 7522   1.336   0.129   1.312  1.5063 -0.9864 -0.5139
 2506TIP3   OH2 7523   3.566   1.359   1.771 -0.2339 -0.3556  0.3818
 2506TIP3    H1 7524   3.497   1.299   1.799  1.2035 -1.9528  0.6546
 2506TIP3    H2 7525   3.604   1.391   1.853  0.9806 -1.4824  0.2988
 2507TIP3   OH2 7526   5.461   3.410   2.917  0.3587  0.3081 -0.0056
 2507TIP3    H1 7527   5.509   3.409   3.000 -0.8776 -1.3856  0.7603
 2507TIP3    H2 7528   5.466   3.501   2.887  0.8654  0.9610  1.9143
 2508TIP3   OH2 7529   3.141   2.717   2.921  0.1638 -0.3282 -0.0017
 2508TIP3    H1 7530   3.134   2.680   3.009 -0.7090 -0.4452 -0.1113
 2508TIP3    H2 7531   3.092   2.656   2.866 -0.8576  0.6916 -0.2687
 2509TIP3   OH2 7532   0.347   5.685   4.911  0.3607  1.1508  0.0197
 2509TIP3    H1 7533   0.276   5.634   4.948  0.7738  0.2525 -0.3970
 2509TIP3    H2 7534   0.368   5.750   4.978 -0.2664  0.8703  0.4951
 2510TIP3   OH2 7535   4.317   4.256   0.086 -0.4675  0.0052  0.0654
 2510TIP3    H1 7536   4.290   4.333   0.036 -0.0972  0.5020  0.6180
 2510TIP3    H2 7537   4.325   4.187   0.021  0.0981  0.6630 -0.5782
 2511TIP3   OH2 7538   3.016   4.459   3.633  0.3524  0.6783  0.5979
 2511TIP3    H1 7539   2.984   4.404   3.562  1.3659  1.9838 -0.9220
 2511TIP3    H2 7540   2.963   4.432   3.709 -1.9806  0.4331 -0.9984
 2512TIP3   OH2 7541   5.250   2.827   1.939 -0.5130  0.0777 -0.0003
 2512TIP3    H1 7542   5.191   2.901   1.950 -2.4105 -1.3664  0.0707
 2512TIP3    H2 7543   5.195   2.750   1.952  1.8415 -1.3806  2.4739
 2513TIP3   OH2 7544   2.348   0.941   3.127  0.2856 -0.2981 -0.2523
 2513TIP3    H1 7545   2.441   0.953   3.146  0.0767  1.1226 -0.0048
 2513TIP3    H2 7546   2.337   0.847   3.122  1.4099 -0.5764  1.4357
 2514TIP3   OH2 7547   4.271   1.702   3.012  0.0808  0.4482 -0.0141
 2514TIP3    H1 7548   4.203   1.765   3.036 -0.8256 -0.1328 -1.0032
 2514TIP3    H2 7549   4.350   1.755   3.004 -0.6969  1.5120 -1.0044
 2515TIP3   OH2 7550   3.623   3.105   2.521 -0.3756 -0.0028  0.0530
 2515TIP3    H1 7551   3.657   3.127   2.435  0.7692  1.0045  0.7449
 2515TIP3    H2 7552   3.554   3.170   2.538 -0.7149 -0.3028 -0.1627
 2516TIP3   OH2 7553   4.799   0.594   2.282  0.7461 -0.0915 -0.2381
 2516TIP3    H1 7554   4.760   0.674   2.317  2.0644  1.8206 -2.7612
 2516TIP3    H2 7555   4.835   0.549   2.358 -0.7192  1.2885  1.3564
 2517TIP3   OH2 7556   3.503   3.583   1.945  0.1592  0.2948 -0.6517
 2517TIP3    H1 7557   3.453   3.568   2.025  0.8201  2.1799  0.1791
 2517TIP3    H2 7558   3.499   3.500   1.898 -1.1130 -0.5442  0.8393
 2518TIP3   OH2 7559   1.911   0.028   4.059 -0.5914 -0.1222  0.5029
 2518TIP3    H1 7560   1.959   0.065   4.133  0.7184 -0.2512 -0.2595
 2518TIP3    H2 7561   1.820   0.053   4.075  0.2178  4.1463 -0.3219
 2519TIP3   OH2 7562   3.201   1.942   3.143  0.1122  0.4889 -0.4580
 2519TIP3    H1 7563   3.145   1.920   3.217 -1.2426  0.4143 -1.4567
 2519TIP3    H2 7564   3.250   1.861   3.125 -0.5423  0.0868 -0.4719
 2520TIP3   OH2 7565   0.492   3.233   4.464 -0.0769  0.9611 -0.3998
 2520TIP3    H1 7566   0.531   3.277   4.388 -3.3373  0.9613 -2.2461
 2520TIP3    H2 7567   0.436   3.300   4.504 -0.3073  0.2280  0.5520
 2521TIP3   OH2 7568   5.241   5.177   2.196  0.1369 -0.2340  0.4819
 2521TIP3    H1 7569   5.172   5.243   2.190  0.8053  0.4662  0.3526
 2521TIP3    H2 7570   5.319   5.221   2.160  0.9226 -0.6279  1.6590
 2522TIP3   OH2 7571   5.187   2.600   2.876  0.3455  0.3466 -0.1038
 2522TIP3    H1 7572   5.197   2.591   2.781  0.1504  0.5872 -0.1486
 2522TIP3    H2 7573   5.213   2.515   2.911 -1.8325 -0.5380 -0.5282
 2523TIP3   OH2 7574   5.927   0.888   3.309  0.4155 -0.4990 -0.4534
 2523TIP3    H1 7575   5.910   0.962   3.367 -0.0207 -0.0983 -1.0762
 2523TIP3    H2 7576   5.881   0.815   3.348 -1.8251  0.2852 -1.4687
 2524TIP3   OH2 7577   0.190   4.918   1.088  0.4600  0.1184 -0.4160
 2524TIP3    H1 7578   0.230   5.005   1.090  0.4009  0.1359  0.3884
 2524TIP3    H2 7579   0.264   4.858   1.077  0.6157  0.2117  0.0727
 2525TIP3   OH2 7580   4.907   5.285   3.027  0.1742 -0.4061 -0.3345
 2525TIP3    H1 7581   4.943   5.373   3.016  0.0204  0.0146  1.8706
 2525TIP3    H2 7582   4.968   5.228   2.981  0.5917  0.7942 -1.3246
 2526TIP3   OH2 7583   1.870   5.559   4.892  0.9052  0.7989  0.0185
 2526TIP3    H1 7584   1.850   5.529   4.803  1.1155  2.3158 -0.5782
 2526TIP3    H2 7585   1.846   5.652   4.892 -2.0983  0.1821  2.5136
 2527TIP3   OH2 7586   3.693   5.536   4.516 -0.3404  0.3960  0.5706
 2527TIP3    H1 7587   3.638   5.474   4.564  2.5457 -0.9346  2.3998
 2527TIP3    H2 7588   3.693   5.615   4.569 -1.2739  0.7923  0.0081
 2528TIP3   OH2 7589   0.737   4.590   2.537 -0.1544 -0.3477  0.0222
 2528TIP3    H1 7590   0.698   4.632   2.460 -0.2782  0.6439  0.6116
 2528TIP3    H2 7591   0.676   4.519   2.559  0.7076 -1.6999 -1.7472
 2529TIP3   OH2 7592   4.056   0.844   4.191  0.0868  0.4201  0.3210
 2529TIP3    H1 7593   3.976   0.791   4.185 -0.0885  0.6746  0.4166
 2529TIP3    H2 7594   4.109   0.799   4.258 -1.5645  2.2992  3.0996
 2530TIP3   OH2 7595   1.620   2.055   2.926  0.3582  0.7832  0.3876
 2530TIP3    H1 7596   1.646   2.141   2.892 -0.0098  0.8712  0.3189
 2530TIP3    H2 7597   1.601   2.004   2.847 -1.1737  1.1998  0.4496
 2531TIP3   OH2 7598   4.439   4.195   4.339 -0.0435  0.5732  0.3725
 2531TIP3    H1 7599   4.516   4.192   4.281  0.0405 -0.4610  0.5266
 2531TIP3    H2 7600   4.465   4.253   4.410  0.9020 -0.3942  0.8406
 2532TIP3   OH2 7601   3.076   0.600   5.108  0.3729  0.2414  0.1356
 2532TIP3    H1 7602   3.066   0.619   5.015  0.7395 -1.5584 -0.3082
 2532TIP3    H2 7603   3.055   0.682   5.152 -2.7666  0.3691 -1.3407
 2533TIP3   OH2 7604   4.885   5.918   2.513 -0.5777 -0.2393 -0.0177
 2533TIP3    H1 7605   4.899   5.917   2.418  0.6887  3.1646  0.0061
 2533TIP3    H2 7606   4.823   5.989   2.527 -0.8646 -0.7963  1.7307
 2534TIP3   OH2 7607   5.194   1.831   4.870  1.0644  0.5542 -0.6703
 2534TIP3    H1 7608   5.242   1.753   4.900 -0.1500 -0.3019 -0.8598
 2534TIP3    H2 7609   5.134   1.797   4.804  1.5673  1.9259 -1.8667
 2535TIP3   OH2 7610   4.487   2.290   4.147  0.7286 -0.0517  0.2074
 2535TIP3    H1 7611   4.510   2.339   4.226  1.4646  1.5817 -0.9521
 2535TIP3    H2 7612   4.562   2.302   4.088  0.5006 -1.7952 -0.5197
 2536TIP3   OH2 7613   0.834   4.478   2.121  0.1257 -0.1621 -0.5071
 2536TIP3    H1 7614   0.843   4.428   2.202  1.1342 -1.7487 -1.5311
 2536TIP3    H2 7615   0.765   4.432   2.073  1.2366 -0.8003 -1.5681
 2537TIP3   OH2 7616   0.741   1.524   0.357 -0.0938 -0.3031  0.1479
 2537TIP3    H1 7617   0.683   1.549   0.429 -0.7693 -1.4848  0.0455
 2537TIP3    H2 7618   0.813   1.586   0.361 -0.4683  0.0726  1.4152
 2538TIP3   OH2 7619   0.417   3.804   3.093 -0.3356 -0.1041  0.6427
 2538TIP3    H1 7620   0.418   3.849   3.178  0.3507  0.8954  0.1132
 2538TIP3    H2 7621   0.484   3.736   3.102  0.3668  0.5705  0.6110
 2539TIP3   OH2 7622   3.040   4.011   2.883 -0.1150  0.4013 -0.8182
 2539TIP3    H1 7623   3.135   4.019   2.884 -0.1943  1.4919 -0.5935
 2539TIP3    H2 7624   3.022   3.927   2.925  0.7912 -0.4578 -2.0728
 2540TIP3   OH2 7625   4.543   5.941   3.650  0.4804  0.6231  0.7231
 2540TIP3    H1 7626   4.548   5.991   3.568  3.3261 -0.0837  0.3594
 2540TIP3    H2 7627   4.493   5.997   3.709 -1.2068  1.3848 -1.2779
 2541TIP3   OH2 7628   5.947   5.587   4.562  0.4868 -0.4390  0.1500
 2541TIP3    H1 7629   5.857   5.619   4.560  0.6443  0.0134  0.3161
 2541TIP3    H2 7630   5.956   5.534   4.482 -0.0482 -0.8259  0.3421
 2542TIP3   OH2 7631   2.931   1.832   2.583 -0.2341 -0.1271 -0.0131
 2542TIP3    H1 7632   2.910   1.748   2.624  0.3526 -0.2225  0.1087
 2542TIP3    H2 7633   2.847   1.865   2.550 -0.9352  0.4426  2.1630
 2543TIP3   OH2 7634   2.870   3.821   4.059 -0.2126 -0.6942 -0.2045
 2543TIP3    H1 7635   2.823   3.842   3.978  2.4036 -1.0166 -1.9139
 2543TIP3    H2 7636   2.882   3.906   4.102 -1.1590 -0.4473 -0.4082
 2544TIP3   OH2 7637   1.237   3.195   0.435 -0.5990 -0.0652  0.3267
 2544TIP3    H1 7638   1.292   3.241   0.371 -0.2030  0.2165  0.8678
 2544TIP3    H2 7639   1.298   3.162   0.501 -0.9333 -0.9472  0.2121
 2545TIP3   OH2 7640   3.599   1.846   4.967 -1.1122 -0.6444 -0.4414
 2545TIP3    H1 7641   3.564   1.789   4.898  0.9910 -0.7005 -1.5465
 2545TIP3    H2 7642   3.565   1.808   5.048 -2.2654 -1.6072 -1.3280
 2546TIP3   OH2 7643   0.079   2.764   0.161  0.2907  0.5215 -0.4162
 2546TIP3    H1 7644   0.012   2.736   0.099  1.2903 -0.5078 -1.0675
 2546TIP3    H2 7645   0.075   2.859   0.159 -0.7933  0.4829 -0.8202
 2547TIP3   OH2 7646   2.734   1.331   3.272  1.2693 -0.4894  0.2588
 2547TIP3    H1 7647   2.656   1.318   3.326  0.6879 -0.5558 -0.5795
 2547TIP3    H2 7648   2.800   1.275   3.313  0.4667 -1.5688  0.1466
 2548TIP3   OH2 7649   3.505   2.834   3.896  0.4971 -0.1701  0.9268
 2548TIP3    H1 7650   3.432   2.896   3.899  0.6787 -0.0003  2.4713
 2548TIP3    H2 7651   3.480   2.763   3.955  0.4661 -1.4072 -0.5256
 2549TIP3   OH2 7652   5.801   0.782   2.901 -0.2518  0.0507  0.0620
 2549TIP3    H1 7653   5.853   0.793   2.981 -0.2716  1.6352 -0.1107
 2549TIP3    H2 7654   5.756   0.865   2.890 -2.9116 -1.2609  0.2233
 2550TIP3   OH2 7655   4.919   0.921   4.972 -0.4807  0.7265  0.1289
 2550TIP3    H1 7656   4.925   0.831   5.004 -2.2101  0.7230  0.5559
 2550TIP3    H2 7657   4.859   0.964   5.033 -0.2594  1.9805 -0.4992
 2551TIP3   OH2 7658   0.166   4.615   2.711  0.2966  0.2080  0.1802
 2551TIP3    H1 7659   0.127   4.572   2.635 -2.3400  0.1805  1.4565
 2551TIP3    H2 7660   0.194   4.701   2.677  0.3862 -0.2937 -1.0898
 2552TIP3   OH2 7661   1.369   3.614   3.185 -0.4238  0.1525 -0.0748
 2552TIP3    H1 7662   1.357   3.621   3.280  0.5127  0.8102  0.0130
 2552TIP3    H2 7663   1.281   3.604   3.150 -0.8488  0.7148  0.8001
 2553TIP3   OH2 7664   2.713   5.667   2.353 -0.0243  0.2187 -0.2354
 2553TIP3    H1 7665   2.668   5.591   2.388 -0.9912  0.5503 -0.7373
 2553TIP3    H2 7666   2.699   5.663   2.259  1.1854  0.2162 -0.4383
 2554TIP3   OH2 7667   2.531   0.418   4.808 -0.3888  0.0494 -0.0151
 2554TIP3    H1 7668   2.589   0.390   4.738  0.0800 -1.4721  0.9519
 2554TIP3    H2 7669   2.587   0.423   4.886 -0.5652  3.1186  0.0656
 2555TIP3   OH2 7670   2.060   0.656   2.800  0.8671 -0.3979 -0.3387
 2555TIP3    H1 7671   2.103   0.716   2.860  0.9444 -1.6785  0.9585
 2555TIP3    H2 7672   2.131   0.603   2.764  0.9239  0.9230 -2.2811
 2556TIP3   OH2 7673   4.293   1.721   4.836  0.0310 -0.3866  0.2507
 2556TIP3    H1 7674   4.235   1.741   4.909 -1.0115  1.3340 -0.9821
 2556TIP3    H2 7675   4.315   1.807   4.799  1.0611 -1.1789 -1.0568
 2557TIP3   OH2 7676   6.153   5.154   1.143 -0.2621 -0.4687  0.0437
 2557TIP3    H1 7677   6.160   5.090   1.072 -1.1114 -1.2900  0.6678
 2557TIP3    H2 7678   6.231   5.140   1.196  0.4162  0.2013 -0.7492
 2558TIP3   OH2 7679   5.739   2.464   1.430  0.3521  0.1652  0.3411
 2558TIP3    H1 7680   5.739   2.549   1.387 -1.1180  0.7229  1.3634
 2558TIP3    H2 7681   5.803   2.412   1.381 -1.1753  0.7646 -2.4388
 2559TIP3   OH2 7682   2.486   5.841   3.080  0.3140 -0.0003 -0.6190
 2559TIP3    H1 7683   2.427   5.916   3.070 -1.8730 -1.7794 -1.8109
 2559TIP3    H2 7684   2.524   5.829   2.994  1.7464  0.5437 -0.0890
 2560TIP3   OH2 7685   4.303   0.659   1.775  0.1570 -0.8537  0.9715
 2560TIP3    H1 7686   4.296   0.597   1.702  2.0245 -1.6283  1.3813
 2560TIP3    H2 7687   4.324   0.742   1.733 -0.4120 -0.9337  0.5238
 2561TIP3   OH2 7688   5.126   0.203   2.578 -0.2954 -0.1084 -0.4262
 2561TIP3    H1 7689   5.211   0.241   2.558 -0.3583  0.9933  1.1946
 2561TIP3    H2 7690   5.094   0.169   2.494  0.9054  1.1389 -1.4308
 2562TIP3   OH2 7691   5.077   1.933   1.486 -0.8784  0.0801  0.1814
 2562TIP3    H1 7692   5.033   1.959   1.405 -1.1897  1.2076  0.6902
 2562TIP3    H2 7693   5.027   1.857   1.517 -1.8723  0.7399  0.2374
 2563TIP3   OH2 7694   6.084   4.389   1.490  0.2510 -0.1732 -0.0749
 2563TIP3    H1 7695   6.003   4.396   1.539  1.2030  2.9641  1.3606
 2563TIP3    H2 7696   6.058   4.362   1.402 -1.9415 -2.0689  1.0675
 2564TIP3   OH2 7697   5.399   1.137   1.362 -0.0200 -0.0447  0.0439
 2564TIP3    H1 7698   5.461   1.102   1.299 -0.0726  0.2933 -0.1975
 2564TIP3    H2 7699   5.358   1.211   1.317  0.2236  0.4440  0.6182
 2565TIP3   OH2 7700   1.924   0.642   2.338  0.3343  0.3431  0.2424
 2565TIP3    H1 7701   1.982   0.691   2.396  0.3145 -1.4681  1.9111
 2565TIP3    H2 7702   1.937   0.550   2.363  0.1611 -0.5406 -2.5254
 2566TIP3   OH2 7703   2.144   3.961   2.353 -0.1958  0.3684  0.3806
 2566TIP3    H1 7704   2.093   3.897   2.303  0.2227 -0.1040  0.5445
 2566TIP3    H2 7705   2.089   4.039   2.356 -1.2094 -0.3478  1.1229
 2567TIP3   OH2 7706   6.065   0.973   2.782  0.0884 -0.1802  0.0171
 2567TIP3    H1 7707   6.092   1.052   2.829  0.3225  0.0728 -0.5348
 2567TIP3    H2 7708   6.038   0.912   2.851 -1.1011  0.7418  0.4030
 2568TIP3   OH2 7709   4.209   5.438   0.460 -0.2684 -0.1246 -0.3652
 2568TIP3    H1 7710   4.245   5.416   0.546 -0.6137 -0.0388 -0.1959
 2568TIP3    H2 7711   4.187   5.353   0.421 -0.6186 -0.1430 -0.1413
 2569TIP3   OH2 7712   4.886   4.911   1.911 -0.0997 -0.2472 -0.2631
 2569TIP3    H1 7713   4.913   4.828   1.950  1.0350  0.4797  0.5545
 2569TIP3    H2 7714   4.835   4.954   1.980 -0.5775 -0.2025 -0.6377
 2570TIP3   OH2 7715   0.292   1.227   1.411  0.2468 -0.5162  0.3801
 2570TIP3    H1 7716   0.288   1.294   1.343  0.9538  0.3008  1.1224
 2570TIP3    H2 7717   0.300   1.144   1.363 -0.9350 -0.1101 -0.5537
 2571TIP3   OH2 7718   5.013   0.150   0.554 -0.1109  0.2208  0.3308
 2571TIP3    H1 7719   5.058   0.230   0.582 -1.7320  0.5730  2.1136
 2571TIP3    H2 7720   5.084   0.088   0.537  1.1643  1.7993 -0.4334
 2572TIP3   OH2 7721   3.746   1.511   2.555 -0.3338  0.4651 -0.1416
 2572TIP3    H1 7722   3.749   1.518   2.460  1.1744  2.6684  0.0080
 2572TIP3    H2 7723   3.714   1.597   2.585  0.6018  0.3230  1.3803
 2573TIP3   OH2 7724   3.155   3.980   5.008  0.2053  0.2635 -0.3129
 2573TIP3    H1 7725   3.224   4.039   4.977  0.1747  0.7797  0.5644
 2573TIP3    H2 7726   3.131   3.929   4.931  0.9941  0.6448 -0.8300
 2574TIP3   OH2 7727   4.037   2.182   2.068 -0.3877  0.1011  0.0193
 2574TIP3    H1 7728   4.052   2.236   1.991  0.5658 -1.7064 -1.1414
 2574TIP3    H2 7729   3.986   2.108   2.035 -0.4918 -0.3941  1.2596
 2575TIP3   OH2 7730   1.190   4.510   2.642  0.2870 -0.1057 -0.1749
 2575TIP3    H1 7731   1.227   4.583   2.692  0.2291 -0.4130  0.3214
 2575TIP3    H2 7732   1.244   4.435   2.666  0.5113 -0.1832 -0.8856
 2576TIP3   OH2 7733   5.256   5.860   3.936  0.0794 -0.0322 -0.2060
 2576TIP3    H1 7734   5.325   5.794   3.934  0.3169  0.1700  0.9888
 2576TIP3    H2 7735   5.186   5.823   3.882  0.7409 -0.6527 -0.6529
 2577TIP3   OH2 7736   4.132   5.887   3.054  0.1358  0.9277 -0.3805
 2577TIP3    H1 7737   4.045   5.864   3.022 -0.2037 -0.5541  1.4422
 2577TIP3    H2 7738   4.192   5.848   2.990 -0.5445 -0.1580 -0.3949
 2578TIP3   OH2 7739   4.841   4.973   3.050 -0.1970 -0.1779 -0.3066
 2578TIP3    H1 7740   4.832   4.881   3.025 -1.0835  0.3183 -1.9774
 2578TIP3    H2 7741   4.799   4.978   3.136 -1.1265 -1.1413 -0.6746
 2579TIP3   OH2 7742   4.380   0.060   3.871  0.1774 -0.1872 -0.3784
 2579TIP3    H1 7743   4.401  -0.004   3.939 -0.7767  1.0003  1.0982
 2579TIP3    H2 7744   4.450   0.050   3.806  2.0113 -0.3247  1.5251
 2580TIP3   OH2 7745   2.682   4.304   4.165  0.3643 -0.3581 -0.0476
 2580TIP3    H1 7746   2.621   4.230   4.165 -0.6063  0.4262  0.1743
 2580TIP3    H2 7747   2.681   4.336   4.255 -0.5920  1.0240 -0.5198
 2581TIP3   OH2 7748   5.702   1.527   4.252 -0.8339 -0.2654 -0.1448
 2581TIP3    H1 7749   5.667   1.488   4.172 -0.6710  1.0689 -0.8866
 2581TIP3    H2 7750   5.778   1.473   4.274 -0.6432 -0.4045 -1.1113
 2582TIP3   OH2 7751   2.075   2.737   0.639  0.5679 -0.5229 -0.4649
 2582TIP3    H1 7752   2.068   2.718   0.545  3.0123  0.2431 -0.8504
 2582TIP3    H2 7753   2.126   2.817   0.644 -1.1563  0.5673  1.5000
 2583TIP3   OH2 7754   3.425   5.756   0.235 -0.3091  0.0378 -0.1954
 2583TIP3    H1 7755   3.369   5.807   0.177 -0.3979  0.0968 -0.0573
 2583TIP3    H2 7756   3.364   5.714   0.296 -0.3001 -0.7350 -0.6900
 2584TIP3   OH2 7757   5.572   2.295   2.824 -0.0862  0.1360 -0.1084
 2584TIP3    H1 7758   5.643   2.312   2.762 -0.2389 -1.4776 -0.7790
 2584TIP3    H2 7759   5.607   2.324   2.908  1.0735  0.1235 -0.5589
 2585TIP3   OH2 7760   4.010   1.327   2.108  0.2689 -0.4213  0.6234
 2585TIP3    H1 7761   4.067   1.390   2.063 -0.6019  0.4204  0.6493
 2585TIP3    H2 7762   3.992   1.260   2.043 -0.5400  0.5011 -0.1476
 2586TIP3   OH2 7763   1.737   2.107   3.787  0.0563  0.2988 -0.0286
 2586TIP3    H1 7764   1.822   2.126   3.749  1.1829  1.1705  2.6675
 2586TIP3    H2 7765   1.713   2.022   3.751  1.7001  0.3634 -1.4092
 2587TIP3   OH2 7766   6.235   4.325   1.072 -0.1647 -0.2725 -0.1690
 2587TIP3    H1 7767   6.237   4.230   1.060  0.5701 -0.0664 -1.9225
 2587TIP3    H2 7768   6.169   4.339   1.140 -2.9758 -1.7883 -2.3779
 2588TIP3   OH2 7769   1.255   4.132   0.597 -0.3609 -0.4574  0.5153
 2588TIP3    H1 7770   1.165   4.124   0.565  0.1733 -0.3739 -1.0747
 2588TIP3    H2 7771   1.277   4.224   0.584  0.7370 -0.9389 -1.4162
 2589TIP3   OH2 7772   3.087   0.933   1.947  0.9044  0.1735 -0.3373
 2589TIP3    H1 7773   3.179   0.919   1.969  0.6612  1.5269  1.9365
 2589TIP3    H2 7774   3.039   0.900   2.023 -0.2257  2.6671  0.1522
 2590TIP3   OH2 7775   2.135   2.810   4.093  0.2352  0.1652 -0.5151
 2590TIP3    H1 7776   2.134   2.715   4.086  1.2380  0.1341 -0.3725
 2590TIP3    H2 7777   2.047   2.837   4.064 -0.2302 -0.8220 -0.0693
 2591TIP3   OH2 7778   3.047   1.095   4.319 -0.3728  0.5424  0.2056
 2591TIP3    H1 7779   3.012   1.011   4.348 -2.6377  1.0779 -0.7501
 2591TIP3    H2 7780   3.016   1.104   4.229 -0.5608  2.5712  0.4174
 2592TIP3   OH2 7781   1.982   3.344   0.119 -0.5070 -0.4843 -0.0576
 2592TIP3    H1 7782   2.060   3.393   0.094  1.4441 -1.6021  3.1715
 2592TIP3    H2 7783   1.929   3.407   0.169  0.1989 -0.6301  0.9130
 2593TIP3   OH2 7784   5.020   2.415   3.148 -0.1562  0.3418 -0.3528
 2593TIP3    H1 7785   4.962   2.385   3.218 -1.5376  1.6964 -0.8728
 2593TIP3    H2 7786   4.997   2.359   3.074  1.7427 -1.5233  0.3479
 2594TIP3   OH2 7787   0.568   2.077   2.288 -0.3088 -0.6373  0.3088
 2594TIP3    H1 7788   0.638   2.040   2.341  0.4852 -1.4413 -1.2247
 2594TIP3    H2 7789   0.538   2.003   2.234 -0.2082  0.4197 -1.2564
 2595TIP3   OH2 7790   5.550   2.133   0.781 -0.1906 -0.0079  0.3126
 2595TIP3    H1 7791   5.490   2.208   0.784  1.7047  1.5604  0.7789
 2595TIP3    H2 7792   5.583   2.126   0.870  0.5665 -0.6368 -0.0140
 2596TIP3   OH2 7793   4.300   0.474   0.459  0.1325 -0.0501  0.6974
 2596TIP3    H1 7794   4.272   0.566   0.453  0.3609  0.0970  1.6689
 2596TIP3    H2 7795   4.235   0.426   0.409 -0.7884  0.4915  1.3508
 2597TIP3   OH2 7796   1.071   5.645   3.801 -0.1990  0.4228 -0.1297
 2597TIP3    H1 7797   1.010   5.700   3.850 -3.2841 -0.7273 -2.3628
 2597TIP3    H2 7798   1.122   5.707   3.748 -0.5564  1.3326  0.5620
 2598TIP3   OH2 7799   5.739   2.302   0.442  0.3944  0.1143  0.7066
 2598TIP3    H1 7800   5.787   2.385   0.437  0.4890  0.1181  1.4837
 2598TIP3    H2 7801   5.655   2.326   0.480 -0.4313  0.1793 -1.0936
 2599TIP3   OH2 7802   1.387   1.398   1.106  0.0921  0.5648  0.1839
 2599TIP3    H1 7803   1.354   1.309   1.118  0.4417 -0.0950 -2.8755
 2599TIP3    H2 7804   1.463   1.404   1.163 -0.7626 -0.5672  1.5043
 2600TIP3   OH2 7805   1.202   5.544   4.031 -0.7834  0.1437 -0.6510
 2600TIP3    H1 7806   1.165   5.582   3.951 -0.2527  1.1006 -0.4675
 2600TIP3    H2 7807   1.224   5.454   4.007 -0.5740  0.4338 -1.6009
 2601TIP3   OH2 7808   0.538   1.276   2.185 -0.1234  0.1536 -0.3509
 2601TIP3    H1 7809   0.608   1.310   2.129 -0.1082  1.4579  0.4335
 2601TIP3    H2 7810   0.493   1.212   2.130  1.2381 -0.1935 -1.1054
 2602TIP3   OH2 7811   5.657   4.046   0.874 -0.2502  0.1329 -0.2964
 2602TIP3    H1 7812   5.731   4.102   0.897 -0.8480  1.0436 -0.5339
 2602TIP3    H2 7813   5.581   4.106   0.872 -1.1713 -0.9449  0.9080
 2603TIP3   OH2 7814   1.971   3.780   0.313 -0.2195 -0.1714  0.2368
 2603TIP3    H1 7815   2.055   3.786   0.360  0.8368 -0.6876 -1.4905
 2603TIP3    H2 7816   1.925   3.860   0.336  1.1035  0.5275  0.5703
 2604TIP3   OH2 7817   0.589   1.144   3.138 -0.5806 -0.5814  0.4554
 2604TIP3    H1 7818   0.508   1.192   3.121 -1.6473 -2.5219 -0.3016
 2604TIP3    H2 7819   0.562   1.052   3.143  1.4501 -1.2047  1.1341
 2605TIP3   OH2 7820   3.864   0.558   1.190  0.0247 -0.1516  0.7030
 2605TIP3    H1 7821   3.859   0.592   1.279 -2.4688 -3.6146  2.0874
 2605TIP3    H2 7822   3.880   0.464   1.200 -0.5041 -0.7091 -2.5051
 2606TIP3   OH2 7823   4.925   2.338   3.408 -0.5400 -0.2176  0.1416
 2606TIP3    H1 7824   4.888   2.343   3.496 -0.0973 -1.7327  0.4331
 2606TIP3    H2 7825   5.012   2.301   3.421 -0.3335 -0.1240 -0.9023
 2607TIP3   OH2 7826   2.540   2.764   3.386  0.3786  0.0577  0.1916
 2607TIP3    H1 7827   2.460   2.782   3.437  0.1774 -0.5791  0.1038
 2607TIP3    H2 7828   2.508   2.733   3.302  0.6985 -1.8105  0.7154
 2608TIP3   OH2 7829   0.600   0.956   5.009 -0.7881 -0.0560  0.9390
 2608TIP3    H1 7830   0.564   1.044   4.998  0.2128  0.1091 -1.6690
 2608TIP3    H2 7831   0.624   0.952   5.102  0.8665  3.1609  0.8260
 2609TIP3   OH2 7832   6.310   2.680   0.960  0.0713  0.4892 -0.4090
 2609TIP3    H1 7833   6.217   2.669   0.937 -0.1594  2.1197 -0.3942
 2609TIP3    H2 7834   6.356   2.671   0.877 -0.3963  2.3984 -0.9417
 2610TIP3   OH2 7835   3.452   4.292   2.361  0.1569 -0.4392 -0.1231
 2610TIP3    H1 7836   3.448   4.291   2.265  0.7092  0.4827 -0.1553
 2610TIP3    H2 7837   3.416   4.377   2.386  1.9039  0.1802  0.3917
 2611TIP3   OH2 7838   3.039   2.353   1.988 -0.4325 -0.0898  0.1246
 2611TIP3    H1 7839   3.125   2.394   1.999 -1.0812  1.1531  0.7607
 2611TIP3    H2 7840   3.057   2.273   1.939  0.8018  1.3681 -1.9954
 2612TIP3   OH2 7841   4.573   4.319   1.838 -0.0163 -0.0716 -0.1728
 2612TIP3    H1 7842   4.565   4.371   1.917 -0.5984  3.2240 -2.2288
 2612TIP3    H2 7843   4.482   4.306   1.808  0.2279 -0.6576 -0.6939
 2613TIP3   OH2 7844   1.813   4.513   2.933 -0.1325 -0.1429  0.2758
 2613TIP3    H1 7845   1.878   4.459   2.887  0.1163  0.3007  0.0944
 2613TIP3    H2 7846   1.804   4.473   3.019 -0.8945 -1.2213 -0.2885
 2614TIP3   OH2 7847   5.538   4.680   3.408  0.2789 -0.2890  0.5323
 2614TIP3    H1 7848   5.603   4.751   3.409 -0.2496  0.1968  1.1906
 2614TIP3    H2 7849   5.552   4.632   3.489  0.8648 -1.1724 -0.0702
 2615TIP3   OH2 7850   1.014   0.143  -0.001  0.0349 -0.4406  0.1992
 2615TIP3    H1 7851   1.052   0.092   0.070 -3.4217 -0.7163  2.0580
 2615TIP3    H2 7852   0.922   0.118  -0.002 -1.2217  3.5069 -0.8054
 2616TIP3   OH2 7853   3.469   4.396   4.749  0.1631  0.2399 -0.1051
 2616TIP3    H1 7854   3.464   4.348   4.831 -2.5672  0.9649  0.2312
 2616TIP3    H2 7855   3.476   4.488   4.775 -0.2234  0.4426 -0.6896
 2617TIP3   OH2 7856   0.553   5.513   0.447 -0.1720  0.2023  0.3559
 2617TIP3    H1 7857   0.552   5.500   0.541 -0.7792  1.8766  0.6224
 2617TIP3    H2 7858   0.465   5.545   0.426 -0.2125 -0.6181 -0.8616
 2618TIP3   OH2 7859   3.389   0.148   0.023  0.6621  0.0725  0.7398
 2618TIP3    H1 7860   3.366   0.077   0.083  0.5831 -0.2830  0.2866
 2618TIP3    H2 7861   3.356   0.120  -0.062 -1.0769  1.4994  0.9002
 2619TIP3   OH2 7862   5.792   5.631   1.501  0.4964  0.3703 -0.2754
 2619TIP3    H1 7863   5.711   5.580   1.489 -0.3493  1.9627 -1.7221
 2619TIP3    H2 7864   5.859   5.582   1.454 -0.1429  0.1878 -1.0203
 2620TIP3   OH2 7865   3.524   1.577   1.373  0.4369  0.2224  0.2115
 2620TIP3    H1 7866   3.442   1.600   1.328  0.4678  2.5662  1.2475
 2620TIP3    H2 7867   3.505   1.492   1.413 -1.8015  1.0645  1.1164
 2621TIP3   OH2 7868   1.270   5.634   2.054  0.3337 -0.5026  0.3951
 2621TIP3    H1 7869   1.236   5.563   2.000  1.7064 -0.0917 -1.1029
 2621TIP3    H2 7870   1.264   5.712   1.998  1.1964  0.0720  1.0662
 2622TIP3   OH2 7871   5.260   5.108   3.530  0.4407 -0.2665  0.5462
 2622TIP3    H1 7872   5.225   5.109   3.619 -2.1167  0.1007 -0.3530
 2622TIP3    H2 7873   5.269   5.015   3.509 -0.5751 -0.4121  0.6693
 2623TIP3   OH2 7874   1.339   4.140   3.942 -0.0325 -0.6655 -0.1564
 2623TIP3    H1 7875   1.426   4.099   3.941 -0.0869 -0.7820 -1.2876
 2623TIP3    H2 7876   1.280   4.069   3.968  0.2174 -0.5389  0.8047
 2624TIP3   OH2 7877   0.365   5.711   0.455  0.5012 -0.3966  0.2954
 2624TIP3    H1 7878   0.273   5.734   0.445  0.3753 -1.1801 -0.4385
 2624TIP3    H2 7879   0.380   5.711   0.549  0.2244  1.5144  0.3715
 2625TIP3   OH2 7880   2.062   4.095   3.399 -0.0169  0.0267  0.0252
 2625TIP3    H1 7881   2.082   4.025   3.337 -1.7662 -1.9544  1.5242
 2625TIP3    H2 7882   1.966   4.093   3.407 -0.0311  1.9104  0.9275
 2626TIP3   OH2 7883   4.516   5.418   0.416  0.2390 -0.3823  0.0287
 2626TIP3    H1 7884   4.557   5.481   0.476 -1.3301 -0.7905  1.6124
 2626TIP3    H2 7885   4.577   5.345   0.413  0.2325 -0.4784  1.3868
 2627TIP3   OH2 7886   6.304   4.248   4.678  0.0089  0.4864  0.1400
 2627TIP3    H1 7887   6.365   4.321   4.674  1.7316 -0.9488 -1.6295
 2627TIP3    H2 7888   6.350   4.180   4.727 -0.4414 -0.3713 -0.5869
 2628TIP3   OH2 7889   5.801   4.205   0.516  0.4361  0.7648  0.2641
 2628TIP3    H1 7890   5.835   4.116   0.527  0.4430  0.8948  1.3946
 2628TIP3    H2 7891   5.880   4.259   0.509  0.4477  0.8135  0.7400
 2629TIP3   OH2 7892   4.352   4.616   2.708  0.6397  0.3337 -0.3023
 2629TIP3    H1 7893   4.297   4.537   2.706  0.4687  0.3881  1.3078
 2629TIP3    H2 7894   4.298   4.684   2.668 -0.4440  0.3484  1.1187
 2630TIP3   OH2 7895   6.241   3.238   2.575  0.1578  0.0912  0.2188
 2630TIP3    H1 7896   6.274   3.279   2.655  2.4736  0.3657 -0.7905
 2630TIP3    H2 7897   6.309   3.255   2.510 -1.0533 -1.2531 -1.4855
 2631TIP3   OH2 7898   2.424   0.337   4.226 -0.4085  0.1766 -0.0908
 2631TIP3    H1 7899   2.390   0.269   4.284 -0.3570 -2.4963 -2.9066
 2631TIP3    H2 7900   2.377   0.324   4.144  2.3984  0.8740 -1.9719
 2632TIP3   OH2 7901   0.738   1.347   0.155  0.2920  0.3171 -0.3132
 2632TIP3    H1 7902   0.723   1.411   0.226 -1.2194  0.9993 -1.1912
 2632TIP3    H2 7903   0.833   1.337   0.152  0.4245  0.6434  1.4820
 2633TIP3   OH2 7904   3.676   4.123   2.321  0.3243  0.0123 -0.2195
 2633TIP3    H1 7905   3.646   4.079   2.242 -0.7997  1.3620 -0.5876
 2633TIP3    H2 7906   3.599   4.169   2.354  0.9478  0.0444  1.2792
 2634TIP3   OH2 7907   0.536   1.954   4.685 -0.2312  0.1401  0.3403
 2634TIP3    H1 7908   0.604   2.008   4.646  0.5588 -1.4161 -0.5169
 2634TIP3    H2 7909   0.458   2.011   4.685  0.9675  1.8759  1.1640
 2635TIP3   OH2 7910   0.203   3.790   4.081 -0.2782  0.2101 -0.5364
 2635TIP3    H1 7911   0.280   3.831   4.041  1.2614 -1.3873  0.6081
 2635TIP3    H2 7912   0.211   3.698   4.057 -1.2145 -0.1679  0.5351
 2636TIP3   OH2 7913   2.711   3.563   4.982 -0.1858 -0.0955  0.4182
 2636TIP3    H1 7914   2.724   3.628   5.051 -1.5586 -1.0660  1.6548
 2636TIP3    H2 7915   2.708   3.615   4.901  1.1864  1.0925  1.0866
 2637TIP3   OH2 7916   2.641   1.494   1.921 -0.0079 -0.4123 -0.1364
 2637TIP3    H1 7917   2.593   1.447   1.989 -0.2513 -0.6706 -0.4743
 2637TIP3    H2 7918   2.651   1.429   1.851  2.4959 -0.9728  0.6335
 2638TIP3   OH2 7919   4.278   2.462   4.449 -0.4082 -0.3106 -0.1612
 2638TIP3    H1 7920   4.321   2.527   4.392  0.5533 -0.8921 -0.1138
 2638TIP3    H2 7921   4.207   2.427   4.395  1.5226 -2.0860 -1.7158
 2639TIP3   OH2 7922   6.076   5.363   2.589 -0.1172 -0.0572  0.1948
 2639TIP3    H1 7923   6.055   5.285   2.536 -1.7701 -0.1618  0.9364
 2639TIP3    H2 7924   6.123   5.420   2.529 -0.4835 -0.8646 -0.9108
 2640TIP3   OH2 7925   1.953   4.353   2.768  0.3862 -0.3272 -0.1729
 2640TIP3    H1 7926   2.008   4.276   2.781  0.0915 -0.3736  0.8913
 2640TIP3    H2 7927   1.999   4.405   2.702  1.9511 -0.1541  1.0065
 2641TIP3   OH2 7928   3.788   2.756   3.182 -0.0467  0.3109 -0.0059
 2641TIP3    H1 7929   3.723   2.780   3.248  0.5433  3.3888 -0.3929
 2641TIP3    H2 7930   3.761   2.804   3.104  0.6291 -1.3523 -1.3035
 2642TIP3   OH2 7931   5.186   1.683   3.660  0.2304 -0.2827 -0.2320
 2642TIP3    H1 7932   5.206   1.766   3.704  1.1072 -0.4600 -0.2720
 2642TIP3    H2 7933   5.095   1.664   3.684 -0.5369  1.5010 -1.5597
 2643TIP3   OH2 7934   2.513   0.017   3.278 -0.1590  0.7045 -0.4061
 2643TIP3    H1 7935   2.513   0.024   3.182  0.6328  1.8936 -0.3493
 2643TIP3    H2 7936   2.604  -0.003   3.300 -0.2440  0.8897  0.1153
 2644TIP3   OH2 7937   2.613   0.742   0.228  0.5376  1.4093  0.3082
 2644TIP3    H1 7938   2.599   0.802   0.301 -0.4233  2.6710 -0.8568
 2644TIP3    H2 7939   2.575   0.787   0.152  2.1797  0.4980 -1.1290
 2645TIP3   OH2 7940   4.890   1.830   4.948 -0.4045 -0.5567  0.2649
 2645TIP3    H1 7941   4.952   1.832   5.020 -0.9416 -0.2790  0.7251
 2645TIP3    H2 7942   4.942   1.805   4.872 -0.0130 -1.8499  0.9258
 2646TIP3   OH2 7943   0.325   1.733   2.630  0.1655  0.2167  0.4089
 2646TIP3    H1 7944   0.253   1.722   2.692  0.1545  1.2887  0.6028
 2646TIP3    H2 7945   0.347   1.826   2.635  0.7735  0.1359 -0.5251
 2647TIP3   OH2 7946   6.230   4.096   3.089 -0.4670  0.3083  0.0445
 2647TIP3    H1 7947   6.228   4.168   3.027  1.0583 -0.8790 -1.4674
 2647TIP3    H2 7948   6.307   4.112   3.143 -0.6507  0.2871  0.3171
 2648TIP3   OH2 7949   2.397   1.759   2.053 -0.1252  0.5032  0.3214
 2648TIP3    H1 7950   2.307   1.743   2.023  0.0285 -2.3764  1.1726
 2648TIP3    H2 7951   2.449   1.759   1.972 -0.5582 -0.4563  0.0341
 2649TIP3   OH2 7952   5.777   1.336   2.247  0.0908 -0.0641  0.1498
 2649TIP3    H1 7953   5.745   1.426   2.249 -0.5853 -0.3079  0.6676
 2649TIP3    H2 7954   5.702   1.285   2.215  0.1955 -0.5517  0.6678
 2650TIP3   OH2 7955   3.504   1.923   3.724 -0.6733  0.3881  0.0004
 2650TIP3    H1 7956   3.430   1.863   3.723  0.0221 -0.5119  0.8444
 2650TIP3    H2 7957   3.486   1.983   3.797  0.2954 -0.9938  1.4248
 2651TIP3   OH2 7958   1.816   1.319   3.130 -0.1911  0.1147 -0.3807
 2651TIP3    H1 7959   1.818   1.224   3.117  0.8652  0.0606  0.0769
 2651TIP3    H2 7960   1.735   1.335   3.178 -0.0915 -0.6269  0.0454
 2652TIP3   OH2 7961   3.134   5.526   3.857 -0.2017 -0.6314  0.2831
 2652TIP3    H1 7962   3.140   5.432   3.839  1.1026 -0.3336 -1.0483
 2652TIP3    H2 7963   3.184   5.567   3.787 -1.1292  1.1065  0.5756
 2653TIP3   OH2 7964   1.139   0.965   5.069 -0.0084 -0.2116 -0.5884
 2653TIP3    H1 7965   1.091   1.007   5.140  2.1104  0.8470  0.3312
 2653TIP3    H2 7966   1.129   1.024   4.995 -0.3661 -0.1548 -0.4952
 2654TIP3   OH2 7967   5.187   2.806   4.685 -0.5361  0.1010  0.3474
 2654TIP3    H1 7968   5.168   2.830   4.776 -0.3895 -1.8288  0.9328
 2654TIP3    H2 7969   5.136   2.868   4.633  0.7787  2.4333  1.6538
 2655TIP3   OH2 7970   2.849   2.285   2.194 -0.2529  0.1338  0.2086
 2655TIP3    H1 7971   2.906   2.316   2.124 -0.6556 -1.5411 -0.9368
 2655TIP3    H2 7972   2.907   2.277   2.270  0.0723  2.5362  0.2812
 2656TIP3   OH2 7973   6.178   5.450   0.364 -0.0264 -0.3457 -0.2460
 2656TIP3    H1 7974   6.128   5.369   0.357  1.6136 -1.3110 -1.3549
 2656TIP3    H2 7975   6.269   5.422   0.374  0.6711  1.3344 -1.3707
 2657TIP3   OH2 7976   3.176   5.293   3.048  0.5631 -0.1133  0.1192
 2657TIP3    H1 7977   3.133   5.318   3.130 -0.9909 -0.0158 -0.6890
 2657TIP3    H2 7978   3.206   5.375   3.010 -0.8600  0.1361 -0.5370
 2658TIP3   OH2 7979   5.579   3.301   0.036  0.3744 -0.2224  0.4886
 2658TIP3    H1 7980   5.510   3.368   0.039  0.9143  0.3852 -0.0853
 2658TIP3    H2 7981   5.544   3.227   0.085 -0.3561  0.3810  0.8976
 2659TIP3   OH2 7982   2.596   1.147   3.024  1.1945  0.7419  0.1140
 2659TIP3    H1 7983   2.617   1.059   3.056  0.1960  0.3234 -0.3400
 2659TIP3    H2 7984   2.673   1.199   3.045  0.5575  0.5582  3.4508
 2660TIP3   OH2 7985   0.454   3.853   0.157 -0.1727  0.1365  0.2956
 2660TIP3    H1 7986   0.377   3.848   0.215 -0.2524 -0.3159  0.1530
 2660TIP3    H2 7987   0.516   3.908   0.205 -1.9323  3.6665 -1.1480
 2661TIP3   OH2 7988   0.311   3.004   2.965  0.1355 -0.0713 -0.9843
 2661TIP3    H1 7989   0.245   2.942   2.934  0.5061 -0.7073 -0.5523
 2661TIP3    H2 7990   0.392   2.953   2.967  0.3422  0.2658 -0.0879
 2662TIP3   OH2 7991   1.400   0.551   2.381 -0.0612  0.2786  0.3933
 2662TIP3    H1 7992   1.346   0.610   2.328  0.0523 -0.1538 -0.2114
 2662TIP3    H2 7993   1.483   0.598   2.391 -0.3465  0.7052  0.8683
 2663TIP3   OH2 7994   0.796   4.951   2.024 -0.0761  0.5379  0.2686
 2663TIP3    H1 7995   0.873   4.986   1.978 -0.4381  0.7491 -0.1780
 2663TIP3    H2 7996   0.799   4.857   2.006  0.0232  0.5602  0.1647
 2664TIP3   OH2 7997   6.281   3.934   2.675 -0.1052 -0.5161 -0.1116
 2664TIP3    H1 7998   6.362   3.973   2.643 -0.9409  0.7542 -0.7626
 2664TIP3    H2 7999   6.275   3.849   2.631  0.3017 -0.1130 -0.9569
 2665TIP3   OH2 8000   1.831   4.797   3.763 -0.9261  0.3229 -0.1941
 2665TIP3    H1 8001   1.757   4.736   3.760 -0.1331 -0.6302 -1.0584
 2665TIP3    H2 8002   1.846   4.811   3.856 -2.5183  0.9487 -0.0024
 2666TIP3   OH2 8003   5.751   5.408   0.702 -0.1843  0.3618  0.7473
 2666TIP3    H1 8004   5.723   5.486   0.655  1.1226  0.1272 -0.4958
 2666TIP3    H2 8005   5.674   5.351   0.702 -1.0293  1.4697  1.3232
 2667TIP3   OH2 8006   4.269   5.918   0.500  0.3083 -0.2382  0.3952
 2667TIP3    H1 8007   4.362   5.913   0.479  0.3730 -0.8008  0.7919
 2667TIP3    H2 8008   4.227   5.947   0.419  0.7298 -0.8182 -0.0369
 2668TIP3   OH2 8009   5.606   4.661   0.457  0.1410 -0.0872  0.3702
 2668TIP3    H1 8010   5.654   4.595   0.407  2.3174  0.9139  0.9958
 2668TIP3    H2 8011   5.524   4.619   0.481  0.0658 -1.4092 -1.9600
 2669TIP3   OH2 8012   0.089   2.022   4.794 -0.1048 -0.1952 -0.0233
 2669TIP3    H1 8013   0.086   1.935   4.754 -0.9548  0.3932 -1.3008
 2669TIP3    H2 8014   0.168   2.062   4.758  0.4161 -0.5075  0.7490
 2670TIP3   OH2 8015   1.248   2.166   3.381  0.2462  0.4094  0.4313
 2670TIP3    H1 8016   1.332   2.185   3.339  0.2212 -0.9948 -0.3297
 2670TIP3    H2 8017   1.268   2.155   3.473  0.7874  0.7204  0.3514
 2671TIP3   OH2 8018   0.777   4.919   3.414 -0.2390  0.4433 -0.1321
 2671TIP3    H1 8019   0.798   4.927   3.507  0.0055 -1.7717  0.0570
 2671TIP3    H2 8020   0.860   4.935   3.369 -0.3252  1.3722  0.0213
 2672TIP3   OH2 8021   4.691   2.068   0.315  0.5740 -0.0123 -0.2354
 2672TIP3    H1 8022   4.759   2.135   0.323 -0.8388  1.6160 -1.2109
 2672TIP3    H2 8023   4.623   2.094   0.377 -0.0698 -0.4467 -0.7441
 2673TIP3   OH2 8024   2.033   0.445   4.387  0.0109 -0.0837  0.1475
 2673TIP3    H1 8025   1.986   0.527   4.395 -1.0240 -0.5337 -1.1113
 2673TIP3    H2 8026   2.073   0.432   4.474  0.6972  2.0041  0.1947
 2674TIP3   OH2 8027   4.639   4.632   5.092  0.1115  0.7398 -0.9998
 2674TIP3    H1 8028   4.717   4.597   5.137 -0.2954  1.2594  0.1389
 2674TIP3    H2 8029   4.566   4.585   5.132 -0.2706  1.3010 -1.0376
 2675TIP3   OH2 8030   2.135   1.106   1.632 -0.0179 -0.7461 -0.2285
 2675TIP3    H1 8031   2.128   1.038   1.699  0.2524 -0.1793  0.3813
 2675TIP3    H2 8032   2.059   1.092   1.576 -1.1959 -0.1897  1.1581
 2676TIP3   OH2 8033   0.922   5.954   0.953 -0.0124  0.3810 -0.4873
 2676TIP3    H1 8034   1.004   5.910   0.973  0.1072  0.9064  0.2455
 2676TIP3    H2 8035   0.923   5.966   0.858  0.2297 -0.6236 -0.6242
 2677TIP3   OH2 8036   1.191   5.452   0.243 -0.5784  0.6498  0.4598
 2677TIP3    H1 8037   1.147   5.417   0.166  2.1918 -0.9301 -0.5797
 2677TIP3    H2 8038   1.161   5.397   0.316 -2.0097  1.1338  0.2672
 2678TIP3   OH2 8039   4.604   4.339   1.091  0.8678  0.6166 -0.1098
 2678TIP3    H1 8040   4.649   4.418   1.122 -1.8308  2.0206  0.5737
 2678TIP3    H2 8041   4.524   4.336   1.144 -0.1117 -1.4051 -1.6042
 2679TIP3   OH2 8042   2.650   5.492   1.185  0.1868  0.1018 -0.1722
 2679TIP3    H1 8043   2.706   5.428   1.141  0.8981  1.5804 -1.4850
 2679TIP3    H2 8044   2.637   5.455   1.272  2.2031 -0.8936 -0.2257
 2680TIP3   OH2 8045   4.105   0.720   2.587  0.4634 -0.2311  0.3403
 2680TIP3    H1 8046   4.143   0.801   2.554  1.2437 -0.5586  0.4220
 2680TIP3    H2 8047   4.155   0.650   2.544  0.2389 -0.6676  0.7719
 2681TIP3   OH2 8048   2.446   2.868   1.230 -0.6793 -0.3313 -0.0809
 2681TIP3    H1 8049   2.483   2.785   1.200  0.4266  0.1018  0.0475
 2681TIP3    H2 8050   2.425   2.853   1.323  3.1622  0.6397  1.1084
 2682TIP3   OH2 8051   4.642   3.477   5.066 -0.3347  0.4110  0.2272
 2682TIP3    H1 8052   4.682   3.431   5.140  0.4673  0.1145 -0.3731
 2682TIP3    H2 8053   4.716   3.518   5.020 -0.8079  0.5339 -0.4467
 2683TIP3   OH2 8054   4.509   0.937   2.643  0.0800 -0.2642  0.3452
 2683TIP3    H1 8055   4.522   1.032   2.638 -0.0815 -0.1021  2.2206
 2683TIP3    H2 8056   4.424   0.922   2.601 -0.2914  0.5407  0.7822
 2684TIP3   OH2 8057   0.632   0.941   1.198 -1.1529  0.0305  0.3891
 2684TIP3    H1 8058   0.625   0.907   1.109  1.0462 -0.5830  0.3848
 2684TIP3    H2 8059   0.594   0.873   1.253 -1.1974 -0.2520  0.0139
 2685TIP3   OH2 8060   5.597   4.295   1.303  0.2129  0.0519 -0.0714
 2685TIP3    H1 8061   5.588   4.304   1.208  0.2371  3.0511  0.1050
 2685TIP3    H2 8062   5.555   4.211   1.323  0.9534 -1.0784 -2.7792
 2686TIP3   OH2 8063   0.995   0.354   1.650 -0.1650  0.3586  0.3050
 2686TIP3    H1 8064   0.936   0.290   1.691  1.5731 -0.2517  1.9582
 2686TIP3    H2 8065   0.941   0.394   1.581 -3.0139  0.9358  2.6720
 2687TIP3   OH2 8066   1.467   2.110   1.428 -0.7824 -0.3328 -0.1805
 2687TIP3    H1 8067   1.514   2.078   1.351 -0.3503 -0.0128 -0.0553
 2687TIP3    H2 8068   1.381   2.136   1.395 -0.6376 -0.3033 -0.5327
 2688TIP3   OH2 8069   1.395   5.231   4.607  0.4587  0.3280 -0.1599
 2688TIP3    H1 8070   1.429   5.320   4.611 -1.4793  1.1484 -0.5816
 2688TIP3    H2 8071   1.389   5.203   4.698  0.1591  1.0129  0.0369
 2689TIP3   OH2 8072   1.724   4.718   4.290 -0.2703 -0.8074  0.1928
 2689TIP3    H1 8073   1.677   4.758   4.364 -0.6163  0.3354 -0.6225
 2689TIP3    H2 8074   1.773   4.647   4.330 -1.5847 -1.1505  1.3078
 2690TIP3   OH2 8075   6.342   4.344   2.293 -0.0087  0.0242  0.6847
 2690TIP3    H1 8076   6.363   4.350   2.200  1.6753 -0.5024  0.9916
 2690TIP3    H2 8077   6.251   4.317   2.296  0.1528 -0.7634 -0.8145
 2691TIP3   OH2 8078   4.787   4.981   1.068 -0.5751  0.0674 -1.0577
 2691TIP3    H1 8079   4.751   5.065   1.097  2.1022  0.3945  1.8338
 2691TIP3    H2 8080   4.739   4.916   1.120  0.0305  0.1595 -0.3693
 2692TIP3   OH2 8081   6.164   0.650   3.963 -0.4250 -0.2612  0.2535
 2692TIP3    H1 8082   6.100   0.694   3.908 -0.2873  0.3905  0.5985
 2692TIP3    H2 8083   6.113   0.619   4.038 -0.6914 -1.5344 -0.4324
 2693TIP3   OH2 8084   6.179   0.761   1.943  0.0306 -0.3560 -0.7530
 2693TIP3    H1 8085   6.146   0.753   2.032 -0.0446  0.4798 -0.6977
 2693TIP3    H2 8086   6.224   0.846   1.941  1.7912 -1.2459 -0.9576
 2694TIP3   OH2 8087   1.124   3.479   4.128  0.1048 -0.2939 -0.6803
 2694TIP3    H1 8088   1.047   3.422   4.120 -1.5519  1.5853  0.9909
 2694TIP3    H2 8089   1.189   3.424   4.172 -1.4175 -0.9919  0.8465
 2695TIP3   OH2 8090   5.081   4.895   4.065  0.3301 -0.7711  0.1227
 2695TIP3    H1 8091   5.111   4.985   4.078 -0.1714 -0.3072 -1.6847
 2695TIP3    H2 8092   4.985   4.901   4.064  0.3025 -1.1965 -0.7284
 2696TIP3   OH2 8093   5.328   5.424   1.771 -0.2652 -0.6745  0.2132
 2696TIP3    H1 8094   5.261   5.448   1.835 -0.1192 -0.6781  0.3667
 2696TIP3    H2 8095   5.295   5.344   1.730  0.1374 -1.2672  1.0275
 2697TIP3   OH2 8096   4.080   1.460   1.748  0.2818 -0.3240 -0.3486
 2697TIP3    H1 8097   4.138   1.385   1.735  1.8535  0.8047 -0.0602
 2697TIP3    H2 8098   3.992   1.423   1.742  0.9441 -2.6928  2.3657
 2698TIP3   OH2 8099   0.297   5.105   4.117 -0.1778  0.6354  0.3489
 2698TIP3    H1 8100   0.326   5.017   4.095 -1.5508 -0.1339  1.4739
 2698TIP3    H2 8101   0.377   5.151   4.143  0.2955 -0.9705  1.9514
 2699TIP3   OH2 8102   2.569   5.261   3.361 -0.5239  0.1270 -0.6830
 2699TIP3    H1 8103   2.615   5.342   3.385  1.6921 -1.1980 -0.1249
 2699TIP3    H2 8104   2.556   5.267   3.267  1.9115  0.1134 -1.0877
 2700TIP3   OH2 8105   0.311   2.330   3.718  0.9024 -0.5665 -0.4179
 2700TIP3    H1 8106   0.377   2.385   3.676  1.3115 -0.5570  0.2318
 2700TIP3    H2 8107   0.242   2.391   3.744  1.7885 -0.1901  1.1711
 2701TIP3   OH2 8108   5.105   4.749   0.642 -0.0862 -0.1921 -0.0899
 2701TIP3    H1 8109   5.026   4.742   0.694  0.7377  0.4648  1.3014
 2701TIP3    H2 8110   5.140   4.836   0.661  2.1308 -1.2422  1.1299
 2702TIP3   OH2 8111   3.671   2.406   1.461  0.5645  0.4458  1.1838
 2702TIP3    H1 8112   3.606   2.439   1.523  1.7466  2.2385  1.5460
 2702TIP3    H2 8113   3.728   2.481   1.444  1.9066 -0.7752  0.0480
 2703TIP3   OH2 8114   5.782   5.549   1.106 -0.2476 -0.1228 -0.3019
 2703TIP3    H1 8115   5.866   5.579   1.141 -0.4139  0.4348 -0.3721
 2703TIP3    H2 8116   5.739   5.506   1.180  0.1068 -0.4358 -0.2742
 2704TIP3   OH2 8117   3.029   5.753   3.519 -0.0781 -0.0697 -0.0666
 2704TIP3    H1 8118   3.118   5.785   3.506 -0.4779  0.5354 -1.5194
 2704TIP3    H2 8119   3.032   5.709   3.604  1.8439 -0.9637 -0.5383
 2705TIP3   OH2 8120   1.538   4.866   4.438  0.0696  0.4267  0.4901
 2705TIP3    H1 8121   1.567   4.931   4.502 -1.2836  0.7019  0.8548
 2705TIP3    H2 8122   1.470   4.817   4.483  0.0403 -0.2703 -0.2902
 2706TIP3   OH2 8123   0.583   0.959   3.578 -0.5443 -0.7305 -0.2672
 2706TIP3    H1 8124   0.658   0.931   3.525  0.0759  1.0112 -0.3858
 2706TIP3    H2 8125   0.562   1.047   3.544 -1.2359 -0.2991  1.2239
 2707TIP3   OH2 8126   2.901   4.077   1.428 -0.3039 -0.0768 -0.0189
 2707TIP3    H1 8127   2.881   4.171   1.425  0.4591  0.1078 -3.3704
 2707TIP3    H2 8128   2.831   4.036   1.378  0.8492 -0.9215 -0.9867
 2708TIP3   OH2 8129   3.429   5.050   3.605 -0.8052  0.0431 -0.1230
 2708TIP3    H1 8130   3.399   5.087   3.687 -1.0479  1.3457 -0.7782
 2708TIP3    H2 8131   3.442   5.125   3.547  1.9837 -0.5763 -0.4607
 2709TIP3   OH2 8132   5.511   1.849   2.138  0.3465 -0.1322 -0.5787
 2709TIP3    H1 8133   5.482   1.771   2.185 -2.0028  0.7665 -0.3858
 2709TIP3    H2 8134   5.577   1.888   2.195  0.6351 -1.2893 -0.0839
 2710TIP3   OH2 8135   4.430   0.240   5.114 -0.7029 -0.1041  0.6151
 2710TIP3    H1 8136   4.455   0.165   5.060 -0.7931  0.9662 -1.0104
 2710TIP3    H2 8137   4.512   0.272   5.151 -0.0841  1.0615 -1.5531
 2711TIP3   OH2 8138   3.871   3.764   1.370 -0.6244 -0.2384  0.2888
 2711TIP3    H1 8139   3.784   3.777   1.408 -1.5205  0.4062 -1.8452
 2711TIP3    H2 8140   3.924   3.732   1.443 -1.8005  2.3662  2.4694
 2712TIP3   OH2 8141   4.232   2.940   4.018 -0.4872 -0.2040 -0.1856
 2712TIP3    H1 8142   4.296   2.992   3.970  0.2095 -1.2139 -0.3654
 2712TIP3    H2 8143   4.231   2.856   3.973 -0.3348 -0.9307  1.1427
 2713TIP3   OH2 8144   4.658   2.908   1.015 -0.1289  0.0514  0.8856
 2713TIP3    H1 8145   4.705   2.961   0.950  0.2299 -1.1910  0.0995
 2713TIP3    H2 8146   4.566   2.932   1.003 -0.0858 -0.2991 -0.2158
 2714TIP3   OH2 8147   1.508   1.636   1.982 -0.1614 -0.0886 -0.0997
 2714TIP3    H1 8148   1.483   1.609   2.070  0.8202  1.2571  0.6465
 2714TIP3    H2 8149   1.468   1.572   1.924 -1.4658 -0.5707  1.2793
 2715TIP3   OH2 8150   4.326   3.385   0.552  0.5260  0.2481  0.2793
 2715TIP3    H1 8151   4.376   3.313   0.514 -1.5509  0.0527 -2.3939
 2715TIP3    H2 8152   4.238   3.350   0.562  0.1415  1.5343  1.8435
 2716TIP3   OH2 8153   5.879   4.577   1.234 -0.3107  0.4510  0.0214
 2716TIP3    H1 8154   5.898   4.614   1.147 -0.5882  3.2188  1.0302
 2716TIP3    H2 8155   5.942   4.620   1.292 -1.1055 -0.2038  1.4111
 2717TIP3   OH2 8156   4.634   5.813   2.740 -0.2359  0.1440 -0.5560
 2717TIP3    H1 8157   4.686   5.871   2.796 -1.1359  1.8468 -1.4170
 2717TIP3    H2 8158   4.673   5.822   2.653 -1.3560  0.7514 -1.0274
 2718TIP3   OH2 8159   4.802   5.070   1.661 -0.0350 -0.1174 -0.1042
 2718TIP3    H1 8160   4.882   5.096   1.616 -0.1060 -0.0028 -0.1641
 2718TIP3    H2 8161   4.830   5.003   1.723  0.1993  0.3156  0.2659
 2719TIP3   OH2 8162   1.057   0.499   2.725 -0.2400 -0.3363  0.1935
 2719TIP3    H1 8163   1.129   0.524   2.783 -0.7192  1.3619  0.0864
 2719TIP3    H2 8164   1.070   0.550   2.645 -0.9422 -0.8486 -0.2667
 2720TIP3   OH2 8165   5.294   1.856   3.411  0.5727 -0.2060  0.2238
 2720TIP3    H1 8166   5.314   1.766   3.386  0.3852 -1.1718  3.2238
 2720TIP3    H2 8167   5.215   1.878   3.361  1.6226 -0.9793 -1.9166
 2721TIP3   OH2 8168   3.353   2.828   5.042  0.1657  0.5453 -0.0976
 2721TIP3    H1 8169   3.287   2.799   5.106  0.3760  0.7968  0.2376
 2721TIP3    H2 8170   3.427   2.768   5.056 -1.1144 -1.8957 -2.6653
 2722TIP3   OH2 8171   4.331   5.646   1.372 -0.3412  0.9034 -0.6091
 2722TIP3    H1 8172   4.247   5.672   1.409 -0.7754  0.8451 -1.5274
 2722TIP3    H2 8173   4.313   5.630   1.279  0.1197 -1.6278 -0.3450
 2723TIP3   OH2 8174   2.160   2.437   1.633  0.3797 -0.2292  0.0518
 2723TIP3    H1 8175   2.191   2.407   1.718 -1.3905 -1.4518  0.3218
 2723TIP3    H2 8176   2.107   2.515   1.653 -0.7606 -1.0209  0.2138
 2724TIP3   OH2 8177   5.978   3.869   2.455 -0.2129  0.0999 -0.2869
 2724TIP3    H1 8178   5.933   3.869   2.370 -0.6124  1.0548 -0.0872
 2724TIP3    H2 8179   5.914   3.831   2.516  0.1154 -0.6897 -0.4316
 2725TIP3   OH2 8180   5.653   0.127   2.103  0.2796 -0.1697 -0.8179
 2725TIP3    H1 8181   5.628   0.179   2.179 -0.0577 -0.4048 -0.7657
 2725TIP3    H2 8182   5.707   0.057   2.139  2.6674  1.4035 -1.1393
 2726TIP3   OH2 8183   4.212   2.398   1.451  0.2113  0.1823 -0.3595
 2726TIP3    H1 8184   4.254   2.312   1.452  1.3734  0.6391 -2.4381
 2726TIP3    H2 8185   4.150   2.393   1.378 -1.2870  0.4626  0.8532
 2727TIP3   OH2 8186   5.823   0.250   4.855 -0.3204  0.4104  0.0162
 2727TIP3    H1 8187   5.816   0.164   4.813 -0.4514  0.6508 -0.4722
 2727TIP3    H2 8188   5.916   0.259   4.876 -0.5870 -0.6231  1.7744
 2728TIP3   OH2 8189   5.544   5.380   4.626 -0.1069 -0.0850 -0.2565
 2728TIP3    H1 8190   5.607   5.358   4.696 -1.9605 -0.1881  1.4789
 2728TIP3    H2 8191   5.538   5.475   4.628 -1.3095 -0.1532  0.8659
 2729TIP3   OH2 8192   5.911   3.583   2.406 -0.0475  0.0590 -0.3774
 2729TIP3    H1 8193   5.828   3.559   2.447  0.1198 -0.7904 -0.5363
 2729TIP3    H2 8194   5.977   3.530   2.452  0.5100  1.2001  0.2107
 2730TIP3   OH2 8195   1.109   5.324   0.469  0.4031 -0.1558  0.5794
 2730TIP3    H1 8196   1.196   5.298   0.500  1.2031  1.3372 -0.2799
 2730TIP3    H2 8197   1.057   5.244   0.474  1.8561 -1.1175  1.0042
 2731TIP3   OH2 8198   4.605   0.634   3.461  0.0572  0.3345 -0.0233
 2731TIP3    H1 8199   4.638   0.561   3.409  0.4401  0.4329  0.0735
 2731TIP3    H2 8200   4.511   0.619   3.468  0.1809 -0.3294  0.2698
 2732TIP3   OH2 8201   1.463   2.416   0.732  0.1190 -0.5879  0.1995
 2732TIP3    H1 8202   1.431   2.506   0.741  1.7532  0.0754 -0.1064
 2732TIP3    H2 8203   1.470   2.402   0.637 -2.1193 -1.8379  0.1626
 2733TIP3   OH2 8204   1.359   2.462   2.365 -0.4635  0.5615  0.0734
 2733TIP3    H1 8205   1.382   2.551   2.394  0.0174  0.3822  0.2455
 2733TIP3    H2 8206   1.333   2.417   2.445  0.3440  0.2269  0.1575
 2734TIP3   OH2 8207   4.076   1.955   4.674  0.4745  0.1521  0.3257
 2734TIP3    H1 8208   4.096   1.950   4.581  0.6658  1.2773  0.3026
 2734TIP3    H2 8209   3.996   1.902   4.684 -0.3148  1.1073 -0.7046
 2735TIP3   OH2 8210   5.506   4.566   3.674 -0.6587  0.0783  0.3852
 2735TIP3    H1 8211   5.424   4.521   3.651  0.3978 -1.4556 -0.5707
 2735TIP3    H2 8212   5.539   4.516   3.749 -0.0394 -0.0422  0.0364
 2736TIP3   OH2 8213   5.767   0.477   3.931  0.0607 -0.2525 -0.2961
 2736TIP3    H1 8214   5.787   0.399   3.880 -0.7809 -0.6596 -0.0281
 2736TIP3    H2 8215   5.848   0.498   3.977 -0.0281 -1.7250  0.6114
 2737TIP3   OH2 8216   4.026   4.127   1.028  0.3567 -0.9820  0.1569
 2737TIP3    H1 8217   4.062   4.203   1.072 -1.3085 -0.4459  0.6543
 2737TIP3    H2 8218   4.025   4.059   1.095  1.1982 -1.2638 -0.0980
 2738TIP3   OH2 8219   2.164   5.104   4.982  0.6732 -0.5708  0.5852
 2738TIP3    H1 8220   2.135   5.025   4.936 -2.0634  1.0522 -0.7493
 2738TIP3    H2 8221   2.171   5.077   5.074 -0.9665 -2.2274  0.2973
 2739TIP3   OH2 8222   5.619   0.092   1.552  0.9699 -0.2452 -0.1891
 2739TIP3    H1 8223   5.586   0.113   1.640 -1.6368  1.5905 -1.4741
 2739TIP3    H2 8224   5.544   0.053   1.507  1.4693  1.1045 -2.3286
 2740TIP3   OH2 8225   1.458   1.480   0.606  0.1898 -0.0012 -0.4826
 2740TIP3    H1 8226   1.430   1.444   0.522  2.0620  1.1202 -1.6733
 2740TIP3    H2 8227   1.435   1.413   0.670 -1.4607 -0.8130 -1.8426
 2741TIP3   OH2 8228   0.043   5.809   0.018  0.1230  0.6693 -0.0481
 2741TIP3    H1 8229  -0.009   5.738   0.056 -1.1251  1.7911  0.4154
 2741TIP3    H2 8230   0.104   5.833   0.087  1.5250 -0.8574 -0.7001
 2742TIP3   OH2 8231   2.669   1.732   0.976 -0.4202  0.5075 -0.0730
 2742TIP3    H1 8232   2.633   1.644   0.964 -2.1865  0.7194  2.7287
 2742TIP3    H2 8233   2.595   1.791   0.962  0.4410  1.4943 -0.6631
 2743TIP3   OH2 8234   5.220   1.691   3.987  0.0482  0.1154  0.1265
 2743TIP3    H1 8235   5.128   1.712   3.998  0.1623  0.8405 -0.2278
 2743TIP3    H2 8236   5.245   1.648   4.069 -0.4126  0.6095  0.5317
 2744TIP3   OH2 8237   0.105   2.516   4.056  0.1809 -0.1003 -0.4028
 2744TIP3    H1 8238   0.022   2.512   4.103  0.2685  0.0397 -0.2357
 2744TIP3    H2 8239   0.137   2.605   4.070  0.7311 -0.3798  0.1727
 2745TIP3   OH2 8240   6.235   2.206   4.234 -0.2481 -0.7550  0.2503
 2745TIP3    H1 8241   6.297   2.147   4.191  1.5291  0.2693  1.2632
 2745TIP3    H2 8242   6.171   2.148   4.276 -0.8712 -1.8103 -2.0299
 2746TIP3   OH2 8243   1.313   1.910   0.644  0.0770  0.5261 -0.1992
 2746TIP3    H1 8244   1.406   1.930   0.656  0.4090 -0.0588 -1.6277
 2746TIP3    H2 8245   1.281   1.890   0.732  1.5022 -0.1059  0.1940
 2747TIP3   OH2 8246   4.946   1.597   0.802  0.0303 -0.1698  0.0269
 2747TIP3    H1 8247   4.867   1.574   0.753 -0.8333  0.5841  1.0200
 2747TIP3    H2 8248   4.980   1.675   0.758  0.7875 -1.0496 -0.9894
 2748TIP3   OH2 8249   4.244  -0.033   3.541  0.1047 -0.3716  0.0820
 2748TIP3    H1 8250   4.304   0.023   3.492  0.9032 -1.2024  0.0600
 2748TIP3    H2 8251   4.198   0.026   3.600  2.2103  0.1386  1.3508
 2749TIP3   OH2 8252   4.651   1.706   3.452  0.0608 -0.3232 -0.1528
 2749TIP3    H1 8253   4.659   1.798   3.478  1.0893 -0.8181  1.4235
 2749TIP3    H2 8254   4.567   1.702   3.406  0.0674  1.4267 -0.4016
 2750TIP3   OH2 8255   2.753   0.354   1.334  0.0763  0.2740 -0.1836
 2750TIP3    H1 8256   2.742   0.423   1.399  1.4332  1.3299 -1.0073
 2750TIP3    H2 8257   2.664   0.332   1.307 -0.3962  1.7963  0.0271
 2751TIP3   OH2 8258   4.092   1.790   2.800 -0.0844 -0.0538 -0.3208
 2751TIP3    H1 8259   4.096   1.702   2.838 -1.7152 -1.2095 -2.5524
 2751TIP3    H2 8260   4.156   1.789   2.729  0.0513  0.6641 -0.2195
 2752TIP3   OH2 8261   6.204   3.751   2.477 -0.2855  1.0214  0.1401
 2752TIP3    H1 8262   6.231   3.714   2.393  0.9438 -3.5646  2.2428
 2752TIP3    H2 8263   6.128   3.804   2.456 -1.3837 -1.6191 -3.6699
 2753TIP3   OH2 8264   4.004   2.974   5.104  0.2058  0.8829  0.2994
 2753TIP3    H1 8265   4.074   2.944   5.162 -0.0610 -0.0132  0.1645
 2753TIP3    H2 8266   4.045   3.041   5.050  0.7044  1.0584  0.8771
 2754TIP3   OH2 8267   4.904   5.837   2.089  0.2567  0.1542  0.4385
 2754TIP3    H1 8268   4.872   5.926   2.102  0.6161  0.4503 -0.6089
 2754TIP3    H2 8269   4.877   5.790   2.167 -1.2617  0.8011  0.3233
 2755TIP3   OH2 8270   4.253   2.345   2.869 -0.3123 -0.1219 -0.3096
 2755TIP3    H1 8271   4.282   2.268   2.819 -0.6682  0.7681 -1.9537
 2755TIP3    H2 8272   4.331   2.375   2.915  0.7564  0.5731 -2.4335
 2756TIP3   OH2 8273   2.226   3.526   3.709 -0.5161 -0.2004 -0.3145
 2756TIP3    H1 8274   2.290   3.495   3.773 -2.3741 -2.4954  0.5775
 2756TIP3    H2 8275   2.277   3.576   3.645  2.1747 -2.0927  0.2306
 2757TIP3   OH2 8276   0.605  -0.007   3.718 -0.1451  0.3434  0.6438
 2757TIP3    H1 8277   0.515  -0.006   3.751 -0.2848  1.0999  0.2572
 2757TIP3    H2 8278   0.636   0.082   3.731 -1.3836  1.7904 -4.3992
 2758TIP3   OH2 8279   6.328   3.260   4.248  0.1645 -0.2011 -0.8900
 2758TIP3    H1 8280   6.331   3.196   4.319  1.8413 -0.0578 -0.8015
 2758TIP3    H2 8281   6.248   3.238   4.200  0.0241 -1.5317 -0.1029
 2759TIP3   OH2 8282   1.011  -0.004   1.997  0.1513  0.0048 -0.3896
 2759TIP3    H1 8283   1.093  -0.026   1.953  2.0141  0.8317  2.4370
 2759TIP3    H2 8284   0.974   0.067   1.944  3.4358  2.5624  0.4677
 2760TIP3   OH2 8285   4.434   5.249   0.778 -0.1564  0.9366  0.0262
 2760TIP3    H1 8286   4.421   5.343   0.786  0.1642  0.9636  0.2491
 2760TIP3    H2 8287   4.424   5.215   0.867  2.0442  1.0666  0.3963
 2761TIP3   OH2 8288   5.209   0.182   4.399  0.3107  0.6696 -0.1904
 2761TIP3    H1 8289   5.232   0.099   4.440 -0.0594  0.6533 -0.0161
 2761TIP3    H2 8290   5.291   0.213   4.361 -0.0195 -0.9879 -2.4665
 2762TIP3   OH2 8291   1.148   1.013   1.976 -0.2382  0.0936  0.2387
 2762TIP3    H1 8292   1.211   1.071   1.933 -0.9102 -0.5700 -1.7433
 2762TIP3    H2 8293   1.181   1.004   2.066  0.8390  2.1097  0.1068
 2763TIP3   OH2 8294   1.804   0.627   0.800  0.4575 -0.1864  0.3672
 2763TIP3    H1 8295   1.762   0.682   0.866  0.5430  0.8722 -0.4328
 2763TIP3    H2 8296   1.747   0.550   0.793 -0.4946  0.4924  0.4346
 2764TIP3   OH2 8297   2.870   1.377   3.893  0.3012  0.0176 -0.7516
 2764TIP3    H1 8298   2.840   1.291   3.864 -0.5385  1.0585 -3.2199
 2764TIP3    H2 8299   2.949   1.394   3.841  1.8445 -0.1475  1.3792
 2765TIP3   OH2 8300   1.311   5.389   5.039 -0.3380 -0.4813 -0.5920
 2765TIP3    H1 8301   1.273   5.411   5.124 -2.8752 -2.0849 -1.2193
 2765TIP3    H2 8302   1.296   5.467   4.985 -0.6856 -0.2768 -0.1975
 2766TIP3   OH2 8303   6.201   0.530   4.917 -0.2056 -0.0795 -0.0280
 2766TIP3    H1 8304   6.173   0.438   4.913  0.8074 -0.3411 -1.4860
 2766TIP3    H2 8305   6.271   0.530   4.983  0.6151 -0.5955 -0.8767
 2767TIP3   OH2 8306   3.701   1.829   1.725 -0.4227 -0.1807  0.0154
 2767TIP3    H1 8307   3.618   1.804   1.685 -0.1472 -1.2568  0.0732
 2767TIP3    H2 8308   3.767   1.806   1.659 -0.2013  1.4582 -0.3876
 2768TIP3   OH2 8309   6.247   1.049   4.726  0.0587 -0.4937 -0.2498
 2768TIP3    H1 8310   6.305   1.025   4.799 -0.2668 -1.0396 -0.1625
 2768TIP3    H2 8311   6.204   0.967   4.702 -1.0361 -0.0147  0.0031
 2769TIP3   OH2 8312   1.870   0.549   3.616  0.2488  0.0141 -0.0597
 2769TIP3    H1 8313   1.898   0.603   3.690 -0.0987 -0.2852  0.2931
 2769TIP3    H2 8314   1.837   0.611   3.551  1.4147  0.3521 -0.3517
 2770TIP3   OH2 8315   2.126   2.538   3.088 -0.2588  0.5419 -0.1211
 2770TIP3    H1 8316   2.185   2.491   3.147  0.4038  0.3386 -0.9139
 2770TIP3    H2 8317   2.116   2.479   3.012 -1.9814  0.3068  0.2505
 2771TIP3   OH2 8318   2.649   2.916   0.861  0.2190  0.3457  0.0391
 2771TIP3    H1 8319   2.679   2.927   0.771  0.8002  0.3215  0.2237
 2771TIP3    H2 8320   2.568   2.865   0.853  0.5479 -0.1198 -0.4387
 2772TIP3   OH2 8321   6.252   0.443   3.801 -0.0046  0.2684 -0.2899
 2772TIP3    H1 8322   6.229   0.524   3.848 -1.8135  1.0497 -2.3281
 2772TIP3    H2 8323   6.340   0.422   3.830  0.2191  2.5448  0.8984
 2773TIP3   OH2 8324   5.575   3.310   4.498 -0.1471 -0.1351  0.0034
 2773TIP3    H1 8325   5.500   3.258   4.470  1.3056 -2.1293 -0.3387
 2773TIP3    H2 8326   5.651   3.263   4.465  1.4237  0.2457  2.7669
 2774TIP3   OH2 8327   3.447   5.228   0.965 -0.2870  0.1536 -0.1313
 2774TIP3    H1 8328   3.450   5.157   1.029  1.4310  2.4229  2.5629
 2774TIP3    H2 8329   3.356   5.258   0.966 -0.4399 -0.3268  0.6886
 2775TIP3   OH2 8330   4.181   4.158   3.334  0.3557  0.0349  0.0259
 2775TIP3    H1 8331   4.252   4.111   3.290  1.9353  2.3774 -0.1343
 2775TIP3    H2 8332   4.188   4.248   3.300 -1.9715  0.6051  0.8999
 2776TIP3   OH2 8333   6.214   0.458   4.346  0.3143 -0.5609 -0.8710
 2776TIP3    H1 8334   6.227   0.372   4.306  2.3703 -0.0677 -1.3548
 2776TIP3    H2 8335   6.282   0.463   4.414 -1.9743 -0.6779  1.6249
 2777TIP3   OH2 8336   5.655   1.895   4.885 -0.0229 -0.4091 -0.2766
 2777TIP3    H1 8337   5.576   1.948   4.875  0.0553 -0.2890 -0.2585
 2777TIP3    H2 8338   5.726   1.953   4.857  0.2605  0.1132  1.4230
 2778TIP3   OH2 8339   4.240   3.705   0.707  0.0481  0.2931 -0.8754
 2778TIP3    H1 8340   4.175   3.765   0.673 -3.0854 -3.1588 -1.6193
 2778TIP3    H2 8341   4.306   3.700   0.638 -1.0571  0.8058 -2.0078
 2779TIP3   OH2 8342   0.158   1.908   4.491 -0.3694  0.1179  0.4449
 2779TIP3    H1 8343   0.230   1.864   4.445 -1.0557 -0.1867 -0.3572
 2779TIP3    H2 8344   0.139   1.850   4.565 -0.4117 -0.2724  0.1296
 2780TIP3   OH2 8345   2.122   2.730   4.584  0.1924  0.0036 -0.0594
 2780TIP3    H1 8346   2.182   2.680   4.528  0.8140  0.0259  0.5785
 2780TIP3    H2 8347   2.138   2.821   4.562  1.6633  0.1215  1.3261
 2781TIP3   OH2 8348   5.553   0.247   2.356 -0.4086 -0.3152 -0.4131
 2781TIP3    H1 8349   5.542   0.219   2.447  1.0820  1.6333  0.4313
 2781TIP3    H2 8350   5.504   0.329   2.350  1.5225  0.8600 -0.6346
 2782TIP3   OH2 8351   5.679   3.445   2.223  0.1672 -0.3693 -0.3740
 2782TIP3    H1 8352   5.671   3.364   2.272 -0.2550  0.8480  1.6796
 2782TIP3    H2 8353   5.726   3.504   2.281 -1.8802  1.6812 -0.6451
 2783TIP3   OH2 8354   1.831   3.798   2.724 -0.2447 -0.1177 -0.4682
 2783TIP3    H1 8355   1.779   3.764   2.650 -0.3098 -1.4126  0.1444
 2783TIP3    H2 8356   1.821   3.732   2.793  0.6118  0.5894  0.3647
 2784TIP3   OH2 8357   3.421   2.244   1.790  0.0275 -0.0817 -0.6865
 2784TIP3    H1 8358   3.409   2.204   1.876 -0.6629  0.6106 -0.4455
 2784TIP3    H2 8359   3.349   2.306   1.782  0.3259  0.1714 -1.5935
 2785TIP3   OH2 8360   0.002   4.816   1.803 -0.2773  0.5717  0.7385
 2785TIP3    H1 8361  -0.064   4.758   1.841  0.3581 -0.9293 -0.3370
 2785TIP3    H2 8362   0.074   4.816   1.866  1.0272 -2.3844 -0.5640
 2786TIP3   OH2 8363   2.383   2.898   0.640 -0.0551  0.1870  0.1804
 2786TIP3    H1 8364   2.335   2.851   0.572  0.2280 -1.2517  0.9443
 2786TIP3    H2 8365   2.446   2.835   0.673 -1.0996  0.3618  2.7353
 2787TIP3   OH2 8366   1.942   1.826   0.198 -0.0148 -0.3291 -0.2171
 2787TIP3    H1 8367   1.935   1.836   0.293  0.2560 -1.8481 -0.0139
 2787TIP3    H2 8368   2.016   1.883   0.174 -0.9641  1.1708  0.2412
 2788TIP3   OH2 8369   2.833   5.579   3.945  0.4742 -0.0639  0.2347
 2788TIP3    H1 8370   2.782   5.589   3.864 -1.9090  0.1473  1.6738
 2788TIP3    H2 8371   2.877   5.495   3.934 -0.2140 -0.2889 -1.0723
 2789TIP3   OH2 8372   4.789   1.339   1.847  0.2578  0.1122 -0.2349
 2789TIP3    H1 8373   4.714   1.296   1.889  1.1220  0.6655  2.0749
 2789TIP3    H2 8374   4.769   1.433   1.855  1.6289  0.3055  1.4018
 2790TIP3   OH2 8375   3.462   5.940   4.336  0.6043 -0.0353  0.1473
 2790TIP3    H1 8376   3.502   5.869   4.386  1.3547 -0.2271 -0.6999
 2790TIP3    H2 8377   3.516   6.017   4.356 -0.8565  0.5984  1.9344
 2791TIP3   OH2 8378   1.625   2.421   1.065 -0.0815  0.1349 -0.1429
 2791TIP3    H1 8379   1.660   2.474   0.993 -0.4075  0.4250 -0.0908
 2791TIP3    H2 8380   1.530   2.434   1.061 -0.2484 -1.1367 -0.6697
 2792TIP3   OH2 8381   6.241   0.825   4.446  0.1872  0.0988  0.2051
 2792TIP3    H1 8382   6.219   0.806   4.537  0.5574  0.8436  0.4582
 2792TIP3    H2 8383   6.329   0.862   4.449  0.9192 -1.4981 -0.6468
 2793TIP3   OH2 8384   4.858   2.607   2.632 -0.0915 -0.5388  0.4740
 2793TIP3    H1 8385   4.845   2.559   2.550  0.6897 -0.9412  0.5800
 2793TIP3    H2 8386   4.952   2.601   2.649  0.1185  1.4285  0.2519
 2794TIP3   OH2 8387   1.462   4.409   3.370  0.4303  0.6801  0.1560
 2794TIP3    H1 8388   1.526   4.458   3.422 -0.7611  1.8015  0.6248
 2794TIP3    H2 8389   1.379   4.423   3.415  0.0668 -2.2422  0.6182
 2795TIP3   OH2 8390   2.875   5.177   4.070 -0.4348  0.0827 -0.2939
 2795TIP3    H1 8391   2.928   5.114   4.119  0.0438  0.5054 -0.2651
 2795TIP3    H2 8392   2.932   5.208   4.000 -0.1395  1.5995  0.5690
 2796TIP3   OH2 8393   1.459   4.874   4.141 -0.2171  0.2274 -0.4047
 2796TIP3    H1 8394   1.544   4.872   4.186  0.0902  1.0769 -0.9058
 2796TIP3    H2 8395   1.452   4.965   4.109 -1.1095  0.0422 -0.7494
 2797TIP3   OH2 8396   2.211   4.541   0.044  0.5519 -0.2040 -0.1250
 2797TIP3    H1 8397   2.300   4.571   0.023  0.9913 -0.6800  0.9506
 2797TIP3    H2 8398   2.219   4.507   0.133 -1.0508  1.2088  0.6143
 2798TIP3   OH2 8399   0.235   0.058   0.978 -0.0915 -0.0663 -0.1555
 2798TIP3    H1 8400   0.192   0.062   1.063  0.1490  1.1396 -0.0669
 2798TIP3    H2 8401   0.247   0.150   0.953  1.3784 -0.3788 -0.7085
 2799TIP3   OH2 8402   1.132   1.357   0.639 -0.3973  0.0896  0.5217
 2799TIP3    H1 8403   1.218   1.394   0.620 -0.7871  0.7474  0.0014
 2799TIP3    H2 8404   1.145   1.262   0.635 -0.0658  0.1745 -1.3438
 2800TIP3   OH2 8405   0.608   0.840   0.918 -0.3015 -0.1918  0.0771
 2800TIP3    H1 8406   0.695   0.801   0.922 -0.2443 -0.0319  0.4224
 2800TIP3    H2 8407   0.587   0.843   0.825  0.6406  1.0772 -0.1127
 2801TIP3   OH2 8408   5.386   5.351   3.804 -0.1997  0.3616  0.1239
 2801TIP3    H1 8409   5.371   5.259   3.787  2.5541  0.1108 -1.5595
 2801TIP3    H2 8410   5.337   5.397   3.736 -1.1784  0.1450  0.6679
 2802TIP3   OH2 8411   1.247   2.269   2.539  0.0255  0.0692  0.0895
 2802TIP3    H1 8412   1.283   2.186   2.506  1.0315  0.7024 -0.4411
 2802TIP3    H2 8413   1.280   2.275   2.629  0.2510  0.0676  0.0075
 2803TIP3   OH2 8414   3.657   5.237   0.793 -0.4127  0.0289 -0.0478
 2803TIP3    H1 8415   3.643   5.330   0.773 -1.9062  0.0663  0.9749
 2803TIP3    H2 8416   3.583   5.214   0.850  1.6162 -0.9620  2.3463
 2804TIP3   OH2 8417   0.723   0.280   5.048 -0.1480  0.1795  0.1226
 2804TIP3    H1 8418   0.786   0.248   4.983 -0.8682 -1.1133  0.0195
 2804TIP3    H2 8419   0.759   0.363   5.077  1.5797 -0.4811  0.0165
 2805TIP3   OH2 8420   1.116   2.392   0.299  0.0001  0.7886 -0.3502
 2805TIP3    H1 8421   1.191   2.435   0.339  1.4098 -1.6194 -0.1848
 2805TIP3    H2 8422   1.053   2.380   0.371  2.4838 -3.4732  1.5417
 2806TIP3   OH2 8423   5.264   4.101   4.393 -0.1442 -0.1304  0.1443
 2806TIP3    H1 8424   5.215   4.160   4.450 -2.3050 -0.0594 -1.6569
 2806TIP3    H2 8425   5.336   4.069   4.448 -0.9716  1.4134  2.2587
 2807TIP3   OH2 8426   2.251   4.589   4.498 -0.2053 -0.5124  0.0213
 2807TIP3    H1 8427   2.313   4.549   4.559 -0.9685 -2.4960 -0.4094
 2807TIP3    H2 8428   2.299   4.662   4.459  2.3347 -2.6581 -1.1833
 2808TIP3   OH2 8429   3.361   2.910   0.556  0.2921 -0.1211 -0.8260
 2808TIP3    H1 8430   3.394   2.878   0.472  0.2504 -0.2740 -0.7842
 2808TIP3    H2 8431   3.355   2.832   0.611 -2.0884 -0.4688 -1.4576
 2809TIP3   OH2 8432   2.818   3.019   2.196  0.2070 -0.9494 -0.0927
 2809TIP3    H1 8433   2.868   3.042   2.274  1.6416  0.2554 -1.2944
 2809TIP3    H2 8434   2.800   2.926   2.205  0.9490 -0.9816  1.3249
 2810TIP3   OH2 8435   2.546   4.444   0.250 -0.0881  0.1049 -0.2796
 2810TIP3    H1 8436   2.558   4.487   0.165 -1.8974 -0.7904 -1.0388
 2810TIP3    H2 8437   2.455   4.462   0.274  1.0984  2.8109  2.9595
 2811TIP3   OH2 8438   5.418   5.149   2.871  0.2461 -0.7606 -0.0444
 2811TIP3    H1 8439   5.453   5.232   2.901  0.9509 -0.6983 -0.9924
 2811TIP3    H2 8440   5.481   5.118   2.807 -0.8868 -1.1683 -1.0042
 2812TIP3   OH2 8441   4.328   4.589   1.595 -0.3251  0.2934 -0.2404
 2812TIP3    H1 8442   4.262   4.620   1.533  0.6150  0.4710 -1.1824
 2812TIP3    H2 8443   4.411   4.599   1.548  0.4716  0.9429  1.2506
 2813TIP3   OH2 8444   0.040   1.763   4.683  0.2944  0.2045 -0.4876
 2813TIP3    H1 8445   0.005   1.765   4.772  1.2416 -4.0280  0.1930
 2813TIP3    H2 8446  -0.027   1.717   4.632  0.5771  0.9245 -1.5478
 2814TIP3   OH2 8447   1.381   1.214   2.062  0.4001  0.3791  0.5128
 2814TIP3    H1 8448   1.309   1.257   2.109 -0.3862 -0.4717  0.1188
 2814TIP3    H2 8449   1.448   1.201   2.129  0.3857  1.5795  0.7890
 2815TIP3   OH2 8450   5.804   4.909   4.137  0.5319  0.1916  0.1190
 2815TIP3    H1 8451   5.717   4.897   4.174  0.0973 -2.0589 -1.4516
 2815TIP3    H2 8452   5.808   5.002   4.115 -0.4068  0.9057  2.6478
 2816TIP3   OH2 8453   4.173   0.397   2.727  0.1795 -0.2496  0.0343
 2816TIP3    H1 8454   4.189   0.412   2.634  0.5757  0.2014  0.1765
 2816TIP3    H2 8455   4.193   0.480   2.770  1.2170 -0.8034  0.6706
 2817TIP3   OH2 8456   3.973   4.484   3.662 -0.3464  0.2214  0.2448
 2817TIP3    H1 8457   3.887   4.483   3.619 -0.0953 -1.9946 -0.3697
 2817TIP3    H2 8458   3.964   4.423   3.735  0.5378  0.4370  0.5434
 2818TIP3   OH2 8459   0.836   2.414   5.126  0.5914  0.3935 -0.0304
 2818TIP3    H1 8460   0.854   2.370   5.209  2.4450 -1.8767 -1.5067
 2818TIP3    H2 8461   0.858   2.349   5.059 -0.0710  2.3959 -2.3282
 2819TIP3   OH2 8462   2.706   3.070   4.424  0.1058 -0.6735  0.1862
 2819TIP3    H1 8463   2.792   3.083   4.464  0.3737 -0.4368 -0.4652
 2819TIP3    H2 8464   2.689   3.150   4.375 -2.1887  1.0040  3.3413
 2820TIP3   OH2 8465   3.451   0.624   3.411 -0.3024  0.1057  0.0493
 2820TIP3    H1 8466   3.437   0.529   3.417 -1.0463  0.0930 -1.5456
 2820TIP3    H2 8467   3.487   0.638   3.324  1.4485  1.1358  0.8753
 2821TIP3   OH2 8468   5.929   4.552   2.977 -0.5302  0.6797  0.0726
 2821TIP3    H1 8469   5.967   4.505   3.051 -3.4039 -0.1459  1.1753
 2821TIP3    H2 8470   5.843   4.580   3.008 -0.5340  3.2470 -1.8969
 2822TIP3   OH2 8471   6.047   5.467   3.460 -0.1015  0.2664  0.2073
 2822TIP3    H1 8472   5.973   5.448   3.518 -0.2227 -0.4159 -0.1547
 2822TIP3    H2 8473   6.008   5.510   3.384 -0.3080 -1.0815 -0.4888
 2823TIP3   OH2 8474   5.536   2.901   2.793 -0.4258 -0.3956 -0.1033
 2823TIP3    H1 8475   5.596   2.841   2.837 -1.5146 -1.7116 -0.3844
 2823TIP3    H2 8476   5.464   2.912   2.855 -0.3722  0.4238 -0.1736
 2824TIP3   OH2 8477   3.521   0.146   4.706 -0.5346  0.2878 -0.4132
 2824TIP3    H1 8478   3.428   0.127   4.702 -0.5086 -0.3009  1.1799
 2824TIP3    H2 8479   3.531   0.205   4.781  0.6500 -1.7141  1.1135
 2825TIP3   OH2 8480   2.134   1.978   2.719 -0.2217  0.4101  0.4098
 2825TIP3    H1 8481   2.102   1.905   2.772  0.5706 -1.2614 -1.2669
 2825TIP3    H2 8482   2.097   1.962   2.632 -0.2564  2.2030  0.0456
 2826TIP3   OH2 8483   4.350  -0.026   2.996 -0.6142 -0.0258 -0.4738
 2826TIP3    H1 8484   4.373   0.064   2.973  0.8697 -0.4596 -0.7434
 2826TIP3    H2 8485   4.286  -0.017   3.067  0.3368  1.2278  0.2627
 2827TIP3   OH2 8486   3.511   2.454   3.628  0.4574  0.0618  0.2891
 2827TIP3    H1 8487   3.525   2.494   3.542  1.9685  0.0447  0.4954
 2827TIP3    H2 8488   3.420   2.476   3.651  0.4656  1.2203 -0.7043
 2828TIP3   OH2 8489   0.554   3.846   1.937 -0.4002  0.9129  0.2070
 2828TIP3    H1 8490   0.531   3.802   1.855  0.6978 -0.2356  0.4729
 2828TIP3    H2 8491   0.644   3.877   1.923 -0.4454  1.2983  0.7458
 2829TIP3   OH2 8492   3.062   1.508   1.087  0.2404  0.1459  0.0022
 2829TIP3    H1 8493   3.012   1.473   1.161  1.8027 -2.3925 -0.0347
 2829TIP3    H2 8494   3.012   1.585   1.059 -2.1230 -0.6616  1.6682
 2830TIP3   OH2 8495   3.382   4.274   4.037  0.7029 -0.4232 -0.0582
 2830TIP3    H1 8496   3.396   4.354   3.986  1.0369 -1.5143 -1.7460
 2830TIP3    H2 8497   3.422   4.205   3.985 -0.6024 -1.8888  0.7996
 2831TIP3   OH2 8498   4.422   2.272   1.240  0.2315 -0.6301 -0.3819
 2831TIP3    H1 8499   4.400   2.223   1.319  1.5345 -0.9130 -0.1666
 2831TIP3    H2 8500   4.441   2.360   1.272 -0.1220 -0.5106 -0.5006
 2832TIP3   OH2 8501   3.480   1.109   4.119 -0.3679 -0.1671 -0.0564
 2832TIP3    H1 8502   3.454   1.075   4.033  0.5825 -1.7211  0.2198
 2832TIP3    H2 8503   3.485   1.204   4.107 -2.0664 -0.1727 -1.1917
 2833TIP3   OH2 8504   3.184   3.811   1.683  0.0602  0.0670 -0.3656
 2833TIP3    H1 8505   3.193   3.716   1.687  1.1041  0.1504 -0.2951
 2833TIP3    H2 8506   3.170   3.838   1.773 -0.9193 -0.0713 -0.4715
 2834TIP3   OH2 8507   6.125   2.987   2.419  0.2902 -0.3406 -0.1506
 2834TIP3    H1 8508   6.163   3.059   2.470 -0.4182 -0.9512  1.2734
 2834TIP3    H2 8509   6.047   3.025   2.378  0.4072 -0.0683 -0.1224
 2835TIP3   OH2 8510   1.213   4.417   1.492  0.2188 -0.1908 -0.5156
 2835TIP3    H1 8511   1.260   4.471   1.556  0.4626  0.0292 -0.8803
 2835TIP3    H2 8512   1.248   4.443   1.407  0.4463 -1.0245 -0.6902
 2836TIP3   OH2 8513   3.161   2.381   1.708 -0.2293 -0.3228 -0.7198
 2836TIP3    H1 8514   3.126   2.466   1.734  2.0711  0.8130 -1.0730
 2836TIP3    H2 8515   3.148   2.379   1.613  2.1930  0.9489 -1.1482
 2837TIP3   OH2 8516   3.676   0.252   4.482  0.1070  0.2511 -0.2984
 2837TIP3    H1 8517   3.762   0.290   4.498 -1.4043  3.1497  1.8553
 2837TIP3    H2 8518   3.654   0.206   4.563 -0.9062  0.7764 -0.2538
 2838TIP3   OH2 8519   5.562   4.240   2.212  0.3597  0.3785  0.6134
 2838TIP3    H1 8520   5.529   4.173   2.273  0.9690  0.6560  1.2519
 2838TIP3    H2 8521   5.487   4.259   2.156  0.2487 -1.0605  0.2126
 2839TIP3   OH2 8522   4.266   0.186   4.483  1.0611 -0.0193 -0.0006
 2839TIP3    H1 8523   4.316   0.237   4.547  1.2128  0.2427 -0.3221
 2839TIP3    H2 8524   4.213   0.126   4.535 -0.4016  1.6164  0.4996
 2840TIP3   OH2 8525   3.998   2.751   1.076  0.1395  0.7125  0.2841
 2840TIP3    H1 8526   4.038   2.837   1.062  0.9831  0.3109  0.1671
 2840TIP3    H2 8527   4.069   2.689   1.060 -0.2764  0.0212  1.0543
 2841TIP3   OH2 8528   3.444   4.749   2.969 -0.5073 -0.0819 -0.0653
 2841TIP3    H1 8529   3.443   4.751   3.065  0.5980  0.0219 -0.0479
 2841TIP3    H2 8530   3.465   4.658   2.948 -0.1415  0.0327 -0.1980
 2842TIP3   OH2 8531   4.555   2.197   0.533 -0.1421 -0.4970  0.2002
 2842TIP3    H1 8532   4.490   2.263   0.508 -0.3373 -1.5384 -2.3945
 2842TIP3    H2 8533   4.603   2.237   0.605 -1.9233  1.3947  0.4442
 2843TIP3   OH2 8534   2.175   4.693   5.121 -0.3073 -0.1520  0.5502
 2843TIP3    H1 8535   2.185   4.609   5.076  0.6184  1.4956 -2.6886
 2843TIP3    H2 8536   2.263   4.716   5.149 -0.4438  0.0079  0.8500
 2844TIP3   OH2 8537   1.880   0.936   3.675 -0.3899 -0.5357 -0.1224
 2844TIP3    H1 8538   1.967   0.937   3.716 -0.2862 -1.8143 -0.2605
 2844TIP3    H2 8539   1.895   0.967   3.586 -0.4396  1.2411  0.4513
 2845TIP3   OH2 8540   2.519   3.218   2.035 -0.4914 -0.0651 -0.0981
 2845TIP3    H1 8541   2.509   3.226   1.940 -1.8362 -0.5305 -0.0165
 2845TIP3    H2 8542   2.517   3.308   2.067  1.0389  0.1768 -0.5723
 2846TIP3   OH2 8543   3.665   4.737   3.202 -0.2772  0.1096  0.1557
 2846TIP3    H1 8544   3.580   4.750   3.244  0.3392 -0.1504  1.5410
 2846TIP3    H2 8545   3.717   4.811   3.232  0.3277 -0.3481  0.2442
 2847TIP3   OH2 8546   1.105   0.228   4.882  0.2237  0.3033  0.4716
 2847TIP3    H1 8547   1.024   0.254   4.838 -0.2551 -0.7392  0.7019
 2847TIP3    H2 8548   1.077   0.163   4.946  1.1298  0.6305  1.2138
 2848TIP3   OH2 8549   4.650   4.151   1.589 -0.4830 -0.3645 -0.0447
 2848TIP3    H1 8550   4.737   4.157   1.548 -0.2829 -1.1078  0.2531
 2848TIP3    H2 8551   4.655   4.211   1.664  0.2969 -1.5213  0.8599
 2849TIP3   OH2 8552   3.967   3.745   3.786  0.2391  0.0473  0.0866
 2849TIP3    H1 8553   3.931   3.770   3.700 -0.0529  0.4210  0.3105
 2849TIP3    H2 8554   4.062   3.752   3.775  0.4544 -3.2405 -1.2299
 2850TIP3   OH2 8555   0.743   5.656   1.826  0.2913 -0.3541  0.0483
 2850TIP3    H1 8556   0.825   5.646   1.778  0.8707  0.6274  0.7895
 2850TIP3    H2 8557   0.763   5.719   1.896 -1.1726  0.1584  0.0525
 2851TIP3   OH2 8558   1.236   0.599   2.907 -0.1882  0.3619 -0.2609
 2851TIP3    H1 8559   1.215   0.650   2.985  1.2260 -0.4893  0.7112
 2851TIP3    H2 8560   1.326   0.571   2.920 -0.7659 -2.0214 -0.9490
 2852TIP3   OH2 8561   1.729   1.396   0.332 -0.3399  0.5542 -0.2028
 2852TIP3    H1 8562   1.771   1.356   0.408  0.7894 -0.4278 -1.2911
 2852TIP3    H2 8563   1.683   1.323   0.289 -0.0034  0.8331 -1.0733
 2853TIP3   OH2 8564   1.394   2.502   4.204 -0.3337  0.0630  0.1914
 2853TIP3    H1 8565   1.408   2.458   4.288  2.5379  2.6020  1.2129
 2853TIP3    H2 8566   1.460   2.464   4.146 -1.2826 -0.5531 -0.5367
 2854TIP3   OH2 8567   2.605   3.303   2.829  0.3583  0.6076 -0.1076
 2854TIP3    H1 8568   2.631   3.246   2.901  1.5163  1.5532  0.2624
 2854TIP3    H2 8569   2.671   3.373   2.829 -0.1252  1.1037 -1.5217
 2855TIP3   OH2 8570   1.466   5.474   3.812  0.0905 -0.2774  0.0156
 2855TIP3    H1 8571   1.457   5.551   3.867 -0.9364 -0.5845  0.2927
 2855TIP3    H2 8572   1.409   5.490   3.737  2.2559  0.6056 -1.5645
 2856TIP3   OH2 8573   0.355   4.417   0.059  0.3133  0.2292  0.1815
 2856TIP3    H1 8574   0.406   4.357   0.114 -0.1275  0.1045  0.4649
 2856TIP3    H2 8575   0.398   4.502   0.070  0.3186  0.1745  0.6098
 2857TIP3   OH2 8576   1.371   1.947   1.827 -0.2508 -0.0771 -0.9549
 2857TIP3    H1 8577   1.449   1.984   1.867 -1.6876  1.3467  0.6496
 2857TIP3    H2 8578   1.396   1.932   1.735  2.8147 -2.4826  0.0861
 2858TIP3   OH2 8579   2.274   0.020   3.087 -0.3312 -0.4776  0.1525
 2858TIP3    H1 8580   2.251   0.016   3.180  0.2535  0.1539  0.3364
 2858TIP3    H2 8581   2.251   0.109   3.060  3.8266  1.0999  0.9583
 2859TIP3   OH2 8582   2.062   1.124   1.940 -0.0825 -0.1218 -0.2670
 2859TIP3    H1 8583   2.134   1.092   1.995 -1.2183 -1.0801  0.7062
 2859TIP3    H2 8584   2.050   1.054   1.875 -0.9223 -0.5482  0.3291
 2860TIP3   OH2 8585   0.600   5.192   1.038  0.0976 -0.0557 -0.1043
 2860TIP3    H1 8586   0.621   5.285   1.028 -0.0780  0.0105  0.1316
 2860TIP3    H2 8587   0.580   5.162   0.949  0.7672 -0.0209 -0.2710
 2861TIP3   OH2 8588   5.669   3.098   1.696 -0.0025  0.4801 -0.3397
 2861TIP3    H1 8589   5.670   3.154   1.773 -0.0810  0.9940 -0.7096
 2861TIP3    H2 8590   5.706   3.152   1.626  0.2748 -0.0522 -0.6138
 2862TIP3   OH2 8591   2.336   3.659   2.835  1.0040 -0.1199  0.6593
 2862TIP3    H1 8592   2.413   3.676   2.781 -0.0427 -0.1849 -0.9146
 2862TIP3    H2 8593   2.321   3.565   2.825  0.3220  0.0147  0.3994
 2863TIP3   OH2 8594   0.867   0.550   1.996  0.4469  0.4081  0.3847
 2863TIP3    H1 8595   0.886   0.637   1.961 -0.8659  0.7462  0.4357
 2863TIP3    H2 8596   0.817   0.507   1.927  1.4869 -0.4992  0.1725
 2864TIP3   OH2 8597   5.514   4.535   2.862 -0.1231  0.2382 -0.4369
 2864TIP3    H1 8598   5.497   4.491   2.946  0.5311  2.1245  0.7445
 2864TIP3    H2 8599   5.446   4.501   2.804  0.5456 -2.5633  0.2572
 2865TIP3   OH2 8600   2.494   1.194   0.874 -0.0482  0.0582  0.3840
 2865TIP3    H1 8601   2.564   1.217   0.935  0.2399 -1.1347  0.5221
 2865TIP3    H2 8602   2.460   1.111   0.907  0.2051 -0.6795 -1.1572
 2866TIP3   OH2 8603   3.322   0.795   1.025  0.0985 -0.1505 -0.0037
 2866TIP3    H1 8604   3.394   0.774   1.084  0.9179 -2.4510 -1.6626
 2866TIP3    H2 8605   3.248   0.744   1.059  0.0372  0.0319  0.1343
 2867TIP3   OH2 8606   0.633   5.427  -0.019  0.1195  0.6012  0.4526
 2867TIP3    H1 8607   0.585   5.368   0.039 -1.3743  2.3178  1.0343
 2867TIP3    H2 8608   0.704   5.462   0.034 -1.2065  2.1189  1.3078
 2868TIP3   OH2 8609   5.932   5.166   3.662 -0.0505  0.3363 -1.0485
 2868TIP3    H1 8610   5.841   5.198   3.658 -0.2098 -0.0800 -0.7930
 2868TIP3    H2 8611   5.941   5.110   3.586 -0.8464 -1.7683  0.3260
 2869TIP3   OH2 8612   1.032   1.073   0.781 -0.5382  0.0801 -0.0295
 2869TIP3    H1 8613   0.956   1.029   0.819 -1.0961  1.6580  0.7696
 2869TIP3    H2 8614   1.064   1.012   0.715 -2.1463 -0.8813  0.0183
 2870TIP3   OH2 8615   2.527   1.859   4.647 -0.1257  0.0173 -0.1516
 2870TIP3    H1 8616   2.593   1.796   4.620 -0.2714 -0.3463  0.3190
 2870TIP3    H2 8617   2.567   1.944   4.632  0.3444 -0.1965 -0.1300
 2871TIP3   OH2 8618   2.887   1.195   3.014 -0.3795 -0.3396 -0.0591
 2871TIP3    H1 8619   2.868   1.112   2.969  1.5898  1.3659 -4.5443
 2871TIP3    H2 8620   2.971   1.179   3.058  0.4376 -0.5234 -1.6354
 2872TIP3   OH2 8621   3.983   0.947   0.741 -0.0329 -0.1462 -0.5468
 2872TIP3    H1 8622   4.042   1.010   0.699 -0.1387 -1.4009 -2.7316
 2872TIP3    H2 8623   4.033   0.914   0.816  0.9811  0.7425 -0.8103
 2873TIP3   OH2 8624   4.856   4.569   0.307  0.4213  0.2600  0.1365
 2873TIP3    H1 8625   4.809   4.515   0.370  1.7848 -1.0722  0.0764
 2873TIP3    H2 8626   4.795   4.580   0.234 -0.0267 -0.9402  0.3073
 2874TIP3   OH2 8627   2.245   3.091   4.999 -0.5532  0.5047 -0.1696
 2874TIP3    H1 8628   2.240   3.011   4.946 -3.7309 -0.1298  0.8754
 2874TIP3    H2 8629   2.241   3.162   4.935  0.9152 -0.1106 -1.0191
 2875TIP3   OH2 8630   3.289   3.199   4.323  0.1680 -0.2091  0.1978
 2875TIP3    H1 8631   3.231   3.124   4.340 -0.7842  0.3833 -0.3103
 2875TIP3    H2 8632   3.375   3.160   4.309 -0.1933 -1.1631  0.5067
 2876TIP3   OH2 8633   4.897   3.956   2.724 -0.2120 -0.2543  0.4514
 2876TIP3    H1 8634   4.846   4.024   2.768  1.9888  1.7515  0.0466
 2876TIP3    H2 8635   4.964   4.003   2.675  0.4246 -2.6556 -1.1615
 2877TIP3   OH2 8636   4.289   4.706   0.941 -0.4277 -0.3956 -0.4549
 2877TIP3    H1 8637   4.221   4.763   0.906 -1.2528 -0.3937  1.0899
 2877TIP3    H2 8638   4.241   4.637   0.988  0.6189 -0.8625 -0.0443
 2878TIP3   OH2 8639   0.581   3.494   2.394 -0.1123  0.3167 -0.0259
 2878TIP3    H1 8640   0.637   3.427   2.353 -0.1905  0.6056 -0.6227
 2878TIP3    H2 8641   0.494   3.454   2.395  0.0092  0.0592  0.4496
 2879TIP3   OH2 8642   4.643   3.224   3.987 -0.7800  0.3152 -0.2821
 2879TIP3    H1 8643   4.700   3.197   4.058 -1.5986 -1.2377 -0.1553
 2879TIP3    H2 8644   4.657   3.318   3.978  0.9490  0.1508  0.4574
 2880TIP3   OH2 8645   1.330   3.417   2.949  0.4933 -0.4557 -0.2109
 2880TIP3    H1 8646   1.252   3.472   2.954  1.4829  0.8537  2.3768
 2880TIP3    H2 8647   1.326   3.362   3.027  3.3003  1.3455  1.3571
 2881TIP3   OH2 8648   0.389   3.539   2.894 -0.1761  0.5836  0.0451
 2881TIP3    H1 8649   0.331   3.507   2.963 -1.4047  1.3227 -0.6219
 2881TIP3    H2 8650   0.435   3.461   2.864 -0.2105  0.1200  1.1350
 2882TIP3   OH2 8651   0.521   0.356   2.366 -0.6047 -0.2319 -0.3460
 2882TIP3    H1 8652   0.526   0.409   2.287  1.2601  0.9641  0.4994
 2882TIP3    H2 8653   0.494   0.417   2.435  1.8473 -0.1924  0.7013
 2883TIP3   OH2 8654   3.592   2.742   4.668  0.0954  0.1878 -0.2167
 2883TIP3    H1 8655   3.518   2.803   4.668 -0.3343 -0.3194  0.5159
 2883TIP3    H2 8656   3.628   2.749   4.580 -2.1001 -1.0780 -1.2967
 2884TIP3   OH2 8657   1.205   2.090   3.001  0.5747 -0.1732  0.2169
 2884TIP3    H1 8658   1.240   2.005   2.976  0.6338 -0.4334  1.1821
 2884TIP3    H2 8659   1.193   2.086   3.096  0.0781  0.7060  0.2100
 2885TIP3   OH2 8660   3.109   1.552   4.302  0.1399 -0.2296 -0.0797
 2885TIP3    H1 8661   3.108   1.492   4.226  2.8812 -0.6557  0.1187
 2885TIP3    H2 8662   3.039   1.519   4.358  0.2107 -1.9952 -0.9325
 2886TIP3   OH2 8663   4.596   1.512   2.158 -0.2292 -0.1092  0.2395
 2886TIP3    H1 8664   4.667   1.577   2.166 -0.0062 -0.5395  2.5813
 2886TIP3    H2 8665   4.535   1.551   2.096  1.8598  0.4235 -1.6338
 2887TIP3   OH2 8666   6.017   0.635   4.400  0.5289 -0.0216  0.3931
 2887TIP3    H1 8667   6.027   0.730   4.396 -0.5470  0.1774  1.5154
 2887TIP3    H2 8668   6.104   0.600   4.381  1.5493  1.2725  2.2769
 2888TIP3   OH2 8669   1.968   2.589   0.054 -0.3150  0.2143  0.3649
 2888TIP3    H1 8670   2.019   2.511   0.034 -0.0642  0.2431  0.8786
 2888TIP3    H2 8671   1.884   2.555   0.085 -1.4785  0.1656 -2.5599
 2889TIP3   OH2 8672   6.327   4.984   4.705 -0.5886  0.5703  0.7130
 2889TIP3    H1 8673   6.267   4.960   4.634 -0.5471 -2.8500  1.6474
 2889TIP3    H2 8674   6.413   4.987   4.664 -0.6661 -0.6133  0.4170
 2890TIP3   OH2 8675   3.332   4.333   1.082  0.3664  0.4912  0.2534
 2890TIP3    H1 8676   3.357   4.408   1.137  2.4163 -1.0656  1.6348
 2890TIP3    H2 8677   3.384   4.261   1.117 -1.1851 -1.4895 -1.3189
 2891TIP3   OH2 8678   4.575   0.206   3.045 -0.4703  0.3309  0.2118
 2891TIP3    H1 8679   4.487   0.233   3.072  0.4005  2.0648  1.5582
 2891TIP3    H2 8680   4.590   0.254   2.963 -0.0861  1.5580  0.9843
 2892TIP3   OH2 8681   2.068   3.418   3.316 -0.1124 -0.6426  0.4788
 2892TIP3    H1 8682   2.047   3.436   3.408 -0.1733 -0.3721  0.4117
 2892TIP3    H2 8683   2.101   3.328   3.317  1.4485 -0.0983  1.0157
 2893TIP3   OH2 8684   4.915   3.910   4.809 -0.3163  0.3243  0.7680
 2893TIP3    H1 8685   4.846   3.871   4.755 -0.4086 -0.9083  1.7336
 2893TIP3    H2 8686   4.878   3.994   4.837 -1.4615 -0.3127  1.2771
 2894TIP3   OH2 8687   2.919   1.171   3.419  0.1918 -0.8630  0.1655
 2894TIP3    H1 8688   2.999   1.189   3.469  1.7509 -2.3615 -1.6027
 2894TIP3    H2 8689   2.869   1.111   3.474  1.0437 -1.1501  0.6473
 2895TIP3   OH2 8690   5.807   4.112   2.867  0.1636  0.2655  0.0767
 2895TIP3    H1 8691   5.823   4.202   2.836 -0.3784  0.3333 -0.0178
 2895TIP3    H2 8692   5.884   4.063   2.838 -0.0885  0.4415 -0.9318
 2896TIP3   OH2 8693   2.952   3.907   0.936 -0.1013 -0.2553  0.5282
 2896TIP3    H1 8694   3.047   3.904   0.936 -0.0399  0.1912  2.7177
 2896TIP3    H2 8695   2.928   3.901   0.843  2.0286 -0.3995 -0.0688
 2897TIP3   OH2 8696   2.798   2.657   4.467  0.4673 -0.1800  0.5264
 2897TIP3    H1 8697   2.836   2.734   4.510  1.3867  0.7016 -1.7402
 2897TIP3    H2 8698   2.753   2.693   4.391  1.5559 -1.9378 -1.0133
 2898TIP3   OH2 8699   3.672   2.596   2.478 -0.6143 -0.2856  0.2911
 2898TIP3    H1 8700   3.643   2.682   2.446 -1.3815  0.0561  1.8320
 2898TIP3    H2 8701   3.593   2.542   2.476 -0.0317 -1.1586 -1.1657
 2899TIP3   OH2 8702   1.488   0.050   1.042  0.3078  0.2325 -0.3374
 2899TIP3    H1 8703   1.538   0.085   0.968  0.0682  0.7763 -0.2480
 2899TIP3    H2 8704   1.479  -0.043   1.022  0.9980  0.2029 -0.5579
 2900TIP3   OH2 8705   3.058   4.491   1.772  0.4621 -0.3811  0.1157
 2900TIP3    H1 8706   3.144   4.502   1.731  0.9577 -0.0698  1.2047
 2900TIP3    H2 8707   2.999   4.545   1.719  0.8122 -1.0053 -0.9553
 2901TIP3   OH2 8708   5.827   3.243   1.253 -0.5180 -0.2552  0.2613
 2901TIP3    H1 8709   5.914   3.214   1.281 -1.5041 -3.8317  0.0974
 2901TIP3    H2 8710   5.783   3.271   1.334  0.2189  0.0465  0.5678
 2902TIP3   OH2 8711   2.449   1.739   3.513  0.0353  0.4248 -0.3621
 2902TIP3    H1 8712   2.406   1.672   3.460 -1.3329  0.2446  0.9316
 2902TIP3    H2 8713   2.515   1.692   3.564 -1.2686 -0.0776  0.9268
 2903TIP3   OH2 8714   1.161   2.632   1.283 -0.5097 -0.3987 -0.1973
 2903TIP3    H1 8715   1.251   2.649   1.256 -0.1266  0.2698  1.3559
 2903TIP3    H2 8716   1.108   2.690   1.229  0.0144 -0.5910 -0.9251
 2904TIP3   OH2 8717   0.644   1.617   3.552  0.4667  0.2701  0.1479
 2904TIP3    H1 8718   0.623   1.526   3.572 -0.3865  0.7838  1.8007
 2904TIP3    H2 8719   0.624   1.626   3.459 -2.8343 -0.3989  0.6538
 2905TIP3   OH2 8720   6.039   1.084   5.002  0.2575  0.5795  0.1612
 2905TIP3    H1 8721   6.079   1.131   4.929  0.6838 -1.1968 -0.8221
 2905TIP3    H2 8722   6.010   1.152   5.062  1.0899  2.0553 -1.0438
 2906TIP3   OH2 8723   3.470   5.123   1.944  1.1334 -0.1218 -0.0088
 2906TIP3    H1 8724   3.431   5.193   1.998  1.0431  1.5662 -2.1348
 2906TIP3    H2 8725   3.397   5.090   1.892  1.1155 -2.0864  1.1772
 2907TIP3   OH2 8726   0.504   0.983   0.151  0.0203  0.0278 -0.2566
 2907TIP3    H1 8727   0.565   1.040   0.197  0.3849  0.2810 -1.0380
 2907TIP3    H2 8728   0.513   0.898   0.195 -0.9037  0.6744  1.2418
 2908TIP3   OH2 8729   4.128   5.656   2.669  0.0195  0.1345  0.0349
 2908TIP3    H1 8730   4.169   5.570   2.666  0.1041  0.1427  0.7504
 2908TIP3    H2 8731   4.067   5.656   2.595 -0.7838 -0.9554  0.6596
 2909TIP3   OH2 8732   1.954   0.905   3.399  0.9797  0.2900  0.0011
 2909TIP3    H1 8733   2.023   0.868   3.455  0.3157 -0.0482  0.6274
 2909TIP3    H2 8734   1.980   0.996   3.385  1.8994 -0.0116 -0.3509
 2910TIP3   OH2 8735   5.894   3.273   4.033 -0.1968  0.0312 -0.1442
 2910TIP3    H1 8736   5.807   3.260   4.069  0.3780 -3.0107  0.4126
 2910TIP3    H2 8737   5.881   3.278   3.939 -1.0621  0.9859  0.0107
 2911TIP3   OH2 8738   3.130   1.421   3.039 -0.1364  0.2281  0.1178
 2911TIP3    H1 8739   3.220   1.426   3.070 -0.1417 -0.8905  0.3415
 2911TIP3    H2 8740   3.096   1.339   3.075 -1.4694  0.9604  0.6022
 2912TIP3   OH2 8741   5.172   1.073   2.265  0.3000  0.3441 -0.6069
 2912TIP3    H1 8742   5.267   1.068   2.252  0.3549 -0.6655  0.0659
 2912TIP3    H2 8743   5.141   0.984   2.250 -0.3312  0.3333  0.6313
 2913TIP3   OH2 8744   2.110   2.858   2.575  0.2246  0.1086 -0.3022
 2913TIP3    H1 8745   2.184   2.797   2.584  0.4466  0.1276 -1.7123
 2913TIP3    H2 8746   2.058   2.821   2.504 -1.2008  0.0502  0.7462
 2914TIP3   OH2 8747   0.647   3.100   3.806 -0.5367 -0.2506 -0.0859
 2914TIP3    H1 8748   0.581   3.052   3.756  0.1514 -0.3436 -0.9340
 2914TIP3    H2 8749   0.598   3.140   3.878 -1.4195 -0.7544 -0.3888
 2915TIP3   OH2 8750   0.921   5.136   4.031  0.2498 -0.6731 -0.0774
 2915TIP3    H1 8751   0.993   5.191   4.062  0.6103 -0.8673 -0.5587
 2915TIP3    H2 8752   0.903   5.077   4.104  0.4665 -0.5140  0.1067
 2916TIP3   OH2 8753   4.707   1.670   2.802 -0.5139 -0.7763  0.0606
 2916TIP3    H1 8754   4.652   1.709   2.734 -0.5899 -2.0582 -0.6395
 2916TIP3    H2 8755   4.741   1.745   2.850  1.8950  0.4446 -3.1688
 2917TIP3   OH2 8756   1.252   3.974   0.807  0.0733 -0.4646 -0.2393
 2917TIP3    H1 8757   1.276   4.023   0.728  0.1521 -0.2147 -0.0612
 2917TIP3    H2 8758   1.335   3.936   0.837  0.1032 -0.2758 -0.0837
 2918TIP3   OH2 8759   3.149   0.281   0.973 -0.4180 -0.0640  0.0953
 2918TIP3    H1 8760   3.064   0.292   1.016  0.1925 -0.3214  1.4266
 2918TIP3    H2 8761   3.131   0.223   0.899 -1.4302  0.0556  0.2331
 2919TIP3   OH2 8762   2.091   0.242   4.144 -0.3455  0.3249 -0.4451
 2919TIP3    H1 8763   2.021   0.266   4.084 -0.7051 -0.2392 -0.2516
 2919TIP3    H2 8764   2.063   0.278   4.228  0.5764  1.9041 -0.7604
 2920TIP3   OH2 8765   1.169   2.624   4.414 -0.2007 -0.3236 -0.2524
 2920TIP3    H1 8766   1.251   2.624   4.365  0.3242  0.2279  0.5979
 2920TIP3    H2 8767   1.196   2.615   4.506 -1.2289 -2.7964 -0.1246
 2921TIP3   OH2 8768   0.746   2.036   5.000  0.6203 -0.4074 -0.2493
 2921TIP3    H1 8769   0.759   1.946   5.028  0.5743 -0.0630  0.9116
 2921TIP3    H2 8770   0.822   2.083   5.033 -0.5791  0.4668  1.4133
 2922TIP3   OH2 8771   5.778   2.488   3.542  0.5574  0.1874 -0.0348
 2922TIP3    H1 8772   5.856   2.542   3.550  1.8784 -1.2173 -2.3158
 2922TIP3    H2 8773   5.811   2.398   3.535 -1.2865 -0.5118 -0.5285
 2923TIP3   OH2 8774   5.206   0.930   1.002 -0.3875 -0.2926 -0.2270
 2923TIP3    H1 8775   5.112   0.945   1.004 -0.3575 -0.0764  2.0270
 2923TIP3    H2 8776   5.233   0.932   1.094  1.9577  0.4951 -0.8462
 2924TIP3   OH2 8777   1.337   5.614   3.275  0.4440  0.4826  0.0616
 2924TIP3    H1 8778   1.248   5.590   3.248 -0.0918  0.6532  1.5673
 2924TIP3    H2 8779   1.388   5.613   3.194 -0.3770 -2.0027 -0.5133
 2925TIP3   OH2 8780   5.927   5.244   3.030  0.0921 -0.1208  0.4922
 2925TIP3    H1 8781   5.854   5.194   2.994 -0.5048  1.0954 -0.0444
 2925TIP3    H2 8782   5.949   5.199   3.111 -1.1325 -0.6094  0.5795
 2926TIP3   OH2 8783   4.213   2.161   4.461 -0.4851  0.6405  0.3476
 2926TIP3    H1 8784   4.179   2.117   4.383  0.0086  3.0231 -1.3147
 2926TIP3    H2 8785   4.307   2.142   4.462 -0.7310 -0.6688  1.3052
 2927TIP3   OH2 8786   5.521   1.348   1.788 -0.3235  0.5755  0.1356
 2927TIP3    H1 8787   5.461   1.285   1.829 -3.1181  1.5763 -2.1214
 2927TIP3    H2 8788   5.587   1.365   1.855 -1.0375 -2.5471  1.8541
 2928TIP3   OH2 8789   2.198   5.996   2.434 -0.2842  0.1705  0.6782
 2928TIP3    H1 8790   2.190   5.970   2.342 -1.7586 -0.2505  0.9021
 2928TIP3    H2 8791   2.133   5.943   2.480 -0.2770  1.1059  1.8190
 2929TIP3   OH2 8792   0.103   5.698   2.915  0.3514 -0.5937  0.2183
 2929TIP3    H1 8793   0.039   5.715   2.985  1.0032  0.0773  0.6633
 2929TIP3    H2 8794   0.155   5.625   2.948 -0.0488 -1.0089 -0.0576
 2930TIP3   OH2 8795   0.540   1.264   1.674 -0.1627 -0.1648 -0.1142
 2930TIP3    H1 8796   0.561   1.333   1.611  0.1160 -0.1423  0.0012
 2930TIP3    H2 8797   0.445   1.269   1.683 -0.0221  1.1525  0.9655
 2931TIP3   OH2 8798   2.966   5.658   1.616 -0.5776  0.8710  0.1523
 2931TIP3    H1 8799   2.925   5.608   1.545  1.9270  2.3913 -2.5591
 2931TIP3    H2 8800   2.966   5.597   1.690 -1.5744 -1.5422 -1.6834
 2932TIP3   OH2 8801   6.014   1.890   0.189 -0.2679  0.0848  0.2450
 2932TIP3    H1 8802   6.079   1.960   0.186 -0.5109  0.2997 -0.1018
 2932TIP3    H2 8803   6.054   1.819   0.138  0.0887 -0.1302  0.8125
 2933TIP3   OH2 8804   0.210   0.980   3.742 -0.3881 -0.1490 -0.5696
 2933TIP3    H1 8805   0.148   1.052   3.727  1.3610  1.4288 -0.5058
 2933TIP3    H2 8806   0.211   0.969   3.837  1.1674  1.4685 -0.3649
 2934TIP3   OH2 8807   3.932   5.571   0.141 -0.0791 -0.3139  0.0315
 2934TIP3    H1 8808   3.945   5.557   0.235  0.8688  0.5314  0.0383
 2934TIP3    H2 8809   3.978   5.653   0.122 -3.4810  1.6773 -0.4236
 2935TIP3   OH2 8810   4.818   2.455   2.329  0.3324 -0.7821 -0.2855
 2935TIP3    H1 8811   4.735   2.491   2.361 -0.5160 -1.8810 -1.1144
 2935TIP3    H2 8812   4.794   2.411   2.247  2.1805  0.8885 -1.8059
 2936TIP3   OH2 8813   2.578   1.987   3.470  0.4399 -0.2959  0.2253
 2936TIP3    H1 8814   2.514   2.019   3.406  0.3781  0.5243  0.6947
 2936TIP3    H2 8815   2.568   1.891   3.467  1.3490 -0.3823 -1.9335
 2937TIP3   OH2 8816   1.966   4.051   4.499 -0.1631 -0.1189  0.0509
 2937TIP3    H1 8817   1.937   4.104   4.573  0.9188  0.2106  0.2530
 2937TIP3    H2 8818   2.056   4.027   4.520  0.4394  0.6363 -1.5064
 2938TIP3   OH2 8819   0.313   1.488   1.218 -0.2807  0.7039  0.4308
 2938TIP3    H1 8820   0.220   1.476   1.233 -0.2619  0.8813  0.7091
 2938TIP3    H2 8821   0.319   1.530   1.132 -0.4986  1.3298  0.7120
 2939TIP3   OH2 8822   5.430   3.356   1.563 -0.3609  0.2292 -0.7265
 2939TIP3    H1 8823   5.462   3.445   1.580 -3.2418  1.3908 -0.7889
 2939TIP3    H2 8824   5.400   3.325   1.648  2.0304 -1.4277 -0.3759
 2940TIP3   OH2 8825   4.364   3.770   2.291 -0.7206 -0.3146 -0.5772
 2940TIP3    H1 8826   4.456   3.772   2.316 -0.7834  1.9464 -0.2421
 2940TIP3    H2 8827   4.353   3.847   2.235 -2.6630  0.3226  0.5750
 2941TIP3   OH2 8828   4.056   0.096   0.300 -0.7319  0.5010  0.3959
 2941TIP3    H1 8829   4.080   0.045   0.378 -0.1116  0.7049  0.3374
 2941TIP3    H2 8830   4.127   0.081   0.239  0.0191  2.3180  0.7860
 2942TIP3   OH2 8831   1.451   1.588   1.620 -0.1368 -0.0163 -0.1538
 2942TIP3    H1 8832   1.487   1.505   1.653 -0.5421 -0.6063 -1.1552
 2942TIP3    H2 8833   1.371   1.601   1.671  1.2216  1.1421  1.8672
 2943TIP3   OH2 8834   2.927   1.787   3.792  0.2137 -0.4470  0.1255
 2943TIP3    H1 8835   2.897   1.748   3.710 -2.1021  1.8773 -0.2684
 2943TIP3    H2 8836   3.021   1.771   3.794  0.0443 -2.1461 -2.0568
 2944TIP3   OH2 8837   0.883   1.905   0.297  0.0591  0.0270 -0.9755
 2944TIP3    H1 8838   0.939   1.966   0.346  0.2679 -0.6148 -0.4030
 2944TIP3    H2 8839   0.800   1.952   0.287  0.4264  0.6611 -1.1135
 2945TIP3   OH2 8840   1.498   4.999   1.496 -0.1004 -0.5808  0.2902
 2945TIP3    H1 8841   1.453   4.916   1.480  3.5009 -2.4139 -1.3984
 2945TIP3    H2 8842   1.502   5.041   1.410  1.0432 -0.3127  0.4560
 2946TIP3   OH2 8843   1.986   2.914   2.201  0.4223 -0.1983  0.0342
 2946TIP3    H1 8844   1.949   2.865   2.127 -0.5516 -0.7055  0.8366
 2946TIP3    H2 8845   2.009   2.846   2.265  2.3467  0.1316 -0.2330
 2947TIP3   OH2 8846   1.851   1.538   2.833  0.0976  0.0717 -0.3625
 2947TIP3    H1 8847   1.892   1.452   2.838 -0.8415 -0.4819 -1.6938
 2947TIP3    H2 8848   1.797   1.544   2.913 -1.3133 -1.3960 -1.1583
 2948TIP3   OH2 8849   3.346   1.011   0.250 -0.6278  0.2038 -0.1055
 2948TIP3    H1 8850   3.389   0.928   0.227  0.6164  0.7509  0.1513
 2948TIP3    H2 8851   3.363   1.068   0.174 -3.8317 -0.5457 -1.5469
 2949TIP3   OH2 8852   1.506   5.175   1.723 -0.4158 -0.0644 -0.1865
 2949TIP3    H1 8853   1.512   5.093   1.674  0.6953 -0.6855  0.9218
 2949TIP3    H2 8854   1.413   5.184   1.744 -0.7117 -0.4369 -1.2852
 2950TIP3   OH2 8855   5.164   1.314   1.621  0.1872 -0.3703 -0.5867
 2950TIP3    H1 8856   5.116   1.238   1.590 -0.9165 -0.9265  2.1994
 2950TIP3    H2 8857   5.251   1.280   1.645 -0.4686 -0.9253  1.1314
 2951TIP3   OH2 8858   2.778   1.111   3.870 -0.1343 -0.4540 -0.1384
 2951TIP3    H1 8859   2.810   1.081   3.785 -2.0876 -3.2739 -0.0247
 2951TIP3    H2 8860   2.683   1.102   3.864 -0.4698  1.1907  1.7285
 2952TIP3   OH2 8861   3.239   0.876   2.275  0.2697  0.9809  0.3212
 2952TIP3    H1 8862   3.281   0.889   2.190  1.5840 -0.4945  0.6798
 2952TIP3    H2 8863   3.288   0.932   2.335  1.4585 -0.3053  0.6299
 2953TIP3   OH2 8864   4.832   1.409   4.604 -0.2182  0.3783 -0.3954
 2953TIP3    H1 8865   4.777   1.391   4.681 -0.3320 -0.9879 -0.7759
 2953TIP3    H2 8866   4.779   1.380   4.530  0.4523  0.3868 -0.8789
 2954TIP3   OH2 8867   4.143   3.525   4.093 -0.6861  0.3765 -0.3499
 2954TIP3    H1 8868   4.102   3.541   4.009 -0.3275 -1.2388 -0.8695
 2954TIP3    H2 8869   4.168   3.433   4.091  0.6470  0.6573  0.9527
 2955TIP3   OH2 8870   1.735   2.913   0.133 -0.0315  0.0387  0.1658
 2955TIP3    H1 8871   1.791   2.971   0.184  0.4731  0.7578 -1.1575
 2955TIP3    H2 8872   1.650   2.957   0.130  0.2838  0.6142 -0.6335
 2956TIP3   OH2 8873   4.603   1.392   0.507  0.1056 -0.2326 -0.0687
 2956TIP3    H1 8874   4.562   1.478   0.498 -0.1962 -0.3179  0.4790
 2956TIP3    H2 8875   4.612   1.379   0.601  0.6986 -0.5440 -0.1630
 2957TIP3   OH2 8876   2.931   0.376   4.022  0.2798  0.4986  0.3542
 2957TIP3    H1 8877   2.845   0.392   4.061  0.1482 -0.9094  0.6662
 2957TIP3    H2 8878   2.945   0.282   4.031  1.7111  0.6539 -0.0004
 2958TIP3   OH2 8879   5.126   3.646   2.332 -0.0873  0.0573 -0.1824
 2958TIP3    H1 8880   5.056   3.583   2.317  0.4282 -0.1742 -1.8947
 2958TIP3    H2 8881   5.204   3.592   2.347  0.5034  0.1862 -2.3573
 2959TIP3   OH2 8882   1.391   5.545   1.367  0.1080 -0.0526  0.5687
 2959TIP3    H1 8883   1.437   5.467   1.399 -1.2053 -1.0571  0.0859
 2959TIP3    H2 8884   1.461   5.607   1.348  1.4128 -1.8716 -1.0847
 2960TIP3   OH2 8885   2.609   5.283   1.389  0.3233  0.7648 -0.0549
 2960TIP3    H1 8886   2.636   5.349   1.452 -1.6595  0.3541  1.3341
 2960TIP3    H2 8887   2.513   5.288   1.389  0.0152 -2.5476  0.6833
 2961TIP3   OH2 8888   1.289   4.368   3.801  0.0963 -0.1649  0.6465
 2961TIP3    H1 8889   1.301   4.302   3.870  0.8054  0.9456  1.6250
 2961TIP3    H2 8890   1.377   4.381   3.765 -0.3739 -1.2341 -0.9873
 2962TIP3   OH2 8891   3.025   4.409   1.464 -0.3271 -0.0236  0.2120
 2962TIP3    H1 8892   3.034   4.357   1.384 -2.5769  2.8534 -2.1172
 2962TIP3    H2 8893   3.093   4.374   1.523  1.8289 -1.9543 -3.0946
 2963TIP3   OH2 8894   1.190   3.808   3.596  0.8087  0.3120  0.1435
 2963TIP3    H1 8895   1.138   3.852   3.663 -0.6401  1.3036 -1.5447
 2963TIP3    H2 8896   1.158   3.717   3.596 -1.2001  0.9527 -1.0201
 2964TIP3   OH2 8897   4.227   2.478   0.770  0.3081  0.2132  0.0362
 2964TIP3    H1 8898   4.152   2.537   0.772  1.0518  1.2410 -1.2380
 2964TIP3    H2 8899   4.244   2.463   0.677  0.4503 -1.6435  0.3114
 2965TIP3   OH2 8900   0.883   1.728   1.044  0.5200 -0.3175 -0.1055
 2965TIP3    H1 8901   0.806   1.785   1.048  1.6051  1.1606  1.1569
 2965TIP3    H2 8902   0.885   1.695   0.954 -3.6033 -3.4048  0.6679
 2966TIP3   OH2 8903   5.407   0.436   3.282 -0.2815 -0.1329 -0.7986
 2966TIP3    H1 8904   5.402   0.497   3.209  2.2294  1.5551  0.3028
 2966TIP3    H2 8905   5.319   0.397   3.287 -1.3636  1.8102 -2.8529
 2967TIP3   OH2 8906   2.051   0.831   4.227  0.8539 -0.6287 -0.1076
 2967TIP3    H1 8907   2.041   0.770   4.301 -1.4501 -1.2138 -0.7928
 2967TIP3    H2 8908   2.044   0.776   4.149  0.5919  0.2898 -0.7520
 2968TIP3   OH2 8909   3.567   3.741   4.781  0.0349  0.1028 -0.4672
 2968TIP3    H1 8910   3.478   3.768   4.757  0.0655 -0.3512 -1.1214
 2968TIP3    H2 8911   3.609   3.821   4.812 -0.5622  0.3455 -0.2614
 2969TIP3   OH2 8912   1.047   2.814   1.504  0.1992 -0.1221 -0.3624
 2969TIP3    H1 8913   1.105   2.752   1.459 -1.2989 -0.8125 -1.4132
 2969TIP3    H2 8914   0.961   2.799   1.465 -1.7386 -2.1651  4.0566
 2970TIP3   OH2 8915   1.829   5.259   3.276  0.2526 -0.4083  0.5654
 2970TIP3    H1 8916   1.772   5.330   3.307  0.7870 -0.3933  1.5622
 2970TIP3    H2 8917   1.908   5.304   3.247  0.4509 -0.5728  0.8574
 2971TIP3   OH2 8918   6.174   5.564   3.891  0.7660 -0.1616  0.2536
 2971TIP3    H1 8919   6.248   5.624   3.894 -1.0494  2.1865  2.2843
 2971TIP3    H2 8920   6.104   5.615   3.851 -0.7118 -1.0600  1.5833
 2972TIP3   OH2 8921   5.837   5.850   4.794 -0.1039  0.6420  0.6438
 2972TIP3    H1 8922   5.808   5.764   4.765  0.1809  1.3235 -1.8875
 2972TIP3    H2 8923   5.879   5.834   4.879 -0.6373 -1.5694  0.5486
 2973TIP3   OH2 8924   3.652   1.545   2.288 -0.0238 -0.9555 -0.4270
 2973TIP3    H1 8925   3.560   1.539   2.263 -0.1204 -2.4572  0.1511
 2973TIP3    H2 8926   3.676   1.636   2.273 -2.8101  0.6790  3.4803
 2974TIP3   OH2 8927   0.363   1.409   3.186  0.1302 -0.7997 -0.0321
 2974TIP3    H1 8928   0.279   1.434   3.149 -0.6029 -1.5343  1.0601
 2974TIP3    H2 8929   0.427   1.432   3.119 -0.9283 -0.1380 -0.8425
 2975TIP3   OH2 8930   1.176   2.429   0.794 -0.1408 -0.3850  0.2148
 2975TIP3    H1 8931   1.157   2.337   0.774 -1.3219  0.2255 -1.6848
 2975TIP3    H2 8932   1.107   2.454   0.857 -0.1438 -0.6597  0.3201
 2976TIP3   OH2 8933   5.765   4.664   5.018  0.4153 -0.1074  0.4716
 2976TIP3    H1 8934   5.751   4.733   5.083 -1.7284  1.0742 -1.0942
 2976TIP3    H2 8935   5.803   4.709   4.943  0.4775 -0.9391 -0.0028
 2977TIP3   OH2 8936   2.871   0.145   4.702 -0.1161  0.3442 -0.6400
 2977TIP3    H1 8937   2.920   0.221   4.733 -0.1636  0.1213 -0.0094
 2977TIP3    H2 8938   2.913   0.122   4.619  0.2907  0.6816 -0.5305
 2978TIP3   OH2 8939   3.699   1.247   5.182 -0.6492  0.5071  0.4628
 2978TIP3    H1 8940   3.770   1.211   5.234  0.9548  3.2258  0.3582
 2978TIP3    H2 8941   3.689   1.187   5.109  1.7943  0.1859  0.3196
 2979TIP3   OH2 8942   1.979   3.219   2.995 -0.0995 -0.6645 -0.8386
 2979TIP3    H1 8943   2.004   3.192   3.083 -1.8576  1.8134  0.5752
 2979TIP3    H2 8944   2.027   3.300   2.980 -3.1171  1.4487 -0.1098
 2980TIP3   OH2 8945   0.037   4.318   3.362 -0.1976  0.1205  0.0314
 2980TIP3    H1 8946   0.079   4.241   3.325 -1.2970 -0.4088 -0.1462
 2980TIP3    H2 8947   0.009   4.291   3.449  1.7162  1.1343  1.0282
 2981TIP3   OH2 8948   2.928   0.491   4.723 -0.2759 -0.3754 -0.6182
 2981TIP3    H1 8949   2.864   0.549   4.764  0.3937  0.8310 -1.2354
 2981TIP3    H2 8950   3.010   0.540   4.725  1.0187 -2.4187  1.4061
 2982TIP3   OH2 8951   5.085   5.674   4.071 -0.2808  0.0756  0.0215
 2982TIP3    H1 8952   5.157   5.659   4.133 -0.2896  0.7052  0.1845
 2982TIP3    H2 8953   5.046   5.757   4.099  0.1849  0.7485 -1.2784
 2983TIP3   OH2 8954   2.517   3.321   1.301  0.3550 -0.4904 -0.6025
 2983TIP3    H1 8955   2.518   3.415   1.316 -1.2257 -0.6157  0.5643
 2983TIP3    H2 8956   2.472   3.310   1.217 -0.2802 -0.2245 -0.3057
 2984TIP3   OH2 8957   3.798   3.838   3.476  0.3638 -0.4422 -0.1296
 2984TIP3    H1 8958   3.835   3.871   3.394 -2.2335 -3.0815 -2.5997
 2984TIP3    H2 8959   3.830   3.748   3.483 -1.4920 -1.1102  0.3059
 2985TIP3   OH2 8960   4.158   3.867   2.078  0.1711  0.1093 -0.2337
 2985TIP3    H1 8961   4.122   3.890   2.164 -0.8857 -0.4697 -0.4997
 2985TIP3    H2 8962   4.096   3.905   2.016  1.3105  1.1475 -0.7734
 2986TIP3   OH2 8963   6.159   2.208   3.596 -0.1411  0.0176  0.1472
 2986TIP3    H1 8964   6.214   2.221   3.673 -0.6430  1.0300  0.3531
 2986TIP3    H2 8965   6.219   2.177   3.529  0.4675  0.0156  0.6786
 2987TIP3   OH2 8966   0.438   4.037   1.468 -0.7833  0.2821 -0.2842
 2987TIP3    H1 8967   0.493   3.971   1.425  0.1635 -0.3422  1.7611
 2987TIP3    H2 8968   0.383   4.072   1.398  1.2613 -0.0564 -2.1585
 2988TIP3   OH2 8969   4.702   0.363   0.739  0.1644 -0.0528 -0.2765
 2988TIP3    H1 8970   4.614   0.326   0.731 -0.2330  0.9396 -0.5985
 2988TIP3    H2 8971   4.733   0.332   0.824 -0.4116 -0.5829 -0.2514
 2989TIP3   OH2 8972   2.335   2.259   2.366  0.3623  0.4328 -0.0413
 2989TIP3    H1 8973   2.344   2.164   2.358  0.9516  0.3085  1.7222
 2989TIP3    H2 8974   2.275   2.284   2.295  1.1209 -1.0840 -1.2638
 2990TIP3   OH2 8975   4.545   4.067   3.098  0.3407 -0.4192 -0.2322
 2990TIP3    H1 8976   4.545   4.120   3.178  2.4716 -0.4302 -0.1679
 2990TIP3    H2 8977   4.543   3.977   3.129  2.9184 -0.4924 -0.0135
 2991TIP3   OH2 8978   0.440   2.076   1.904 -0.5211  0.1484 -0.1653
 2991TIP3    H1 8979   0.415   2.158   1.945 -1.6377  0.0714 -0.6539
 2991TIP3    H2 8980   0.373   2.013   1.931  1.9764 -1.5247  2.8465
 2992TIP3   OH2 8981   2.660   2.394   1.304  0.1623  0.0316 -0.1895
 2992TIP3    H1 8982   2.694   2.431   1.385 -1.1935 -0.2171  0.5292
 2992TIP3    H2 8983   2.596   2.458   1.273 -0.1472 -0.3938 -0.4498
 2993TIP3   OH2 8984   3.300   1.550   1.660 -0.1304  0.3278 -0.4993
 2993TIP3    H1 8985   3.347   1.511   1.733 -1.2693  0.5768  0.3973
 2993TIP3    H2 8986   3.349   1.629   1.639 -0.8913  1.3694  1.3748
 2994TIP3   OH2 8987   4.452   5.652   1.830 -0.2548  0.0679 -0.2399
 2994TIP3    H1 8988   4.424   5.653   1.921  0.1009  1.0031 -0.1265
 2994TIP3    H2 8989   4.505   5.572   1.822 -0.7654 -0.3231  0.2112
 2995TIP3   OH2 8990   0.753   2.631   3.605  0.4710 -0.1680 -0.2126
 2995TIP3    H1 8991   0.804   2.698   3.560 -0.7818  2.2784  1.8212
 2995TIP3    H2 8992   0.777   2.639   3.697 -2.9546  0.6440  0.7577
 2996TIP3   OH2 8993   3.716   0.501   5.077  0.1889 -0.1501  0.0449
 2996TIP3    H1 8994   3.711   0.421   5.129 -0.6823 -1.4467 -1.9420
 2996TIP3    H2 8995   3.625   0.529   5.068  0.2828 -0.1861 -1.1116
 2997TIP3   OH2 8996   5.900   2.798   2.961 -0.5802 -0.4118  0.3915
 2997TIP3    H1 8997   5.814   2.761   2.979 -0.4123 -0.8556  0.2854
 2997TIP3    H2 8998   5.887   2.893   2.965 -1.4319 -0.4287 -1.3090
 2998TIP3   OH2 8999   3.288   5.089   4.126 -0.4892 -0.2307 -0.0100
 2998TIP3    H1 9000   3.352   5.022   4.104  0.4035  0.7475 -0.4758
 2998TIP3    H2 9001   3.338   5.155   4.176 -1.0017  0.7780 -0.7876
 2999TIP3   OH2 9002   6.125   5.272   1.661 -0.3417 -0.6766  0.3580
 2999TIP3    H1 9003   6.198   5.230   1.617 -0.4087 -0.7276  0.2952
 2999TIP3    H2 9004   6.047   5.227   1.627 -0.3303 -1.5919  1.4673
 3000TIP3   OH2 9005   5.665   3.743   1.780  0.0199 -0.3588 -0.2371
 3000TIP3    H1 9006   5.656   3.838   1.782 -0.3749 -0.3834 -0.7050
 3000TIP3    H2 9007   5.672   3.718   1.872  0.8534  0.1834 -0.1359
 3001TIP3   OH2 9008   2.411   5.975   3.636  0.0855 -0.1425  0.3322
 3001TIP3    H1 9009   2.386   5.895   3.589 -0.3461 -1.7263  3.0350
 3001TIP3    H2 9010   2.345   6.039   3.610 -0.3777 -1.0587 -0.8638
 3002TIP3   OH2 9011   1.600   2.124   0.996 -0.1413  0.2976  0.0090
 3002TIP3    H1 9012   1.634   2.203   1.037  1.3987 -0.6302  0.6231
 3002TIP3    H2 9013   1.514   2.149   0.963 -0.8960  1.4966  2.5869
 3003TIP3   OH2 9014   6.264   5.270   5.157 -0.0551  0.4209  0.4975
 3003TIP3    H1 9015   6.246   5.177   5.148 -1.0566  0.7499 -1.4552
 3003TIP3    H2 9016   6.342   5.285   5.105 -1.1398  0.9970 -1.0314
 3004TIP3   OH2 9017   1.145   5.975   3.858 -0.6518  0.9346 -0.5378
 3004TIP3    H1 9018   1.191   5.913   3.801 -0.5814  0.1774  0.3156
 3004TIP3    H2 9019   1.208   5.997   3.927 -0.9018  1.4407 -0.4633
 3005TIP3   OH2 9020   4.208   1.383   2.771  0.4001 -0.1244  0.0657
 3005TIP3    H1 9021   4.117   1.360   2.789  0.3348 -1.0134 -1.2633
 3005TIP3    H2 9022   4.209   1.408   2.679  1.0978  2.1327  0.6172
 3006TIP3   OH2 9023   5.401   1.602   3.332  0.5630  0.1608 -0.1010
 3006TIP3    H1 9024   5.362   1.517   3.310  2.5647 -0.4280 -1.6126
 3006TIP3    H2 9025   5.442   1.587   3.417  1.1389 -0.4964 -0.4794
 3007TIP3   OH2 9026   3.884   4.178   1.623  0.0231 -0.4000 -0.4736
 3007TIP3    H1 9027   3.793   4.202   1.603 -0.4064 -0.7563  0.9384
 3007TIP3    H2 9028   3.885   4.163   1.717  1.4182 -1.0003 -0.5549
 3008TIP3   OH2 9029   2.993   3.787   3.065 -0.5129  0.4154 -0.3067
 3008TIP3    H1 9030   3.026   3.826   3.145 -0.9247  1.0878 -0.4537
 3008TIP3    H2 9031   3.027   3.697   3.066  0.8784  0.9153 -0.2134
 3009TIP3   OH2 9032   3.609   3.838   1.811 -0.3580  0.9222 -0.1549
 3009TIP3    H1 9033   3.687   3.875   1.852  1.1315 -0.3639 -1.6667
 3009TIP3    H2 9034   3.609   3.746   1.837 -2.0607  1.1267  0.7376
 3010TIP3   OH2 9035   1.797   4.165   3.347 -0.0535 -0.3300 -0.5900
 3010TIP3    H1 9036   1.803   4.251   3.305 -1.3663 -0.3807 -0.8963
 3010TIP3    H2 9037   1.731   4.176   3.415  0.2738 -0.9240 -0.1653
 3011TIP3   OH2 9038   4.349   2.722   1.150 -0.4330 -0.5684  0.6185
 3011TIP3    H1 9039   4.377   2.654   1.089 -2.8238  0.9873 -2.4908
 3011TIP3    H2 9040   4.371   2.804   1.106 -1.1525  0.6771  2.4511
 3012TIP3   OH2 9041   0.236   1.770   3.178 -0.3689 -1.4334  0.2127
 3012TIP3    H1 9042   0.227   1.821   3.098 -0.1719 -2.1265 -0.2589
 3012TIP3    H2 9043   0.316   1.804   3.219 -0.9039 -0.5333  0.5254
 3013TIP3   OH2 9044   1.052   3.577   3.631 -0.7014  0.8471  0.0452
 3013TIP3    H1 9045   1.118   3.536   3.687 -1.5638  0.2427  0.6524
 3013TIP3    H2 9046   0.998   3.504   3.601 -1.6228  1.4234  0.2784
 3014TIP3   OH2 9047   0.583   1.345   3.635 -0.0889  0.3776  0.0444
 3014TIP3    H1 9048   0.644   1.287   3.680 -0.7589 -0.5019 -0.1491
 3014TIP3    H2 9049   0.517   1.366   3.701 -0.1805  0.4253 -0.0627
 3015TIP3   OH2 9050   5.284   3.772   0.514 -0.5831 -0.0220  0.2029
 3015TIP3    H1 9051   5.323   3.796   0.430  0.7554  0.6049  0.9843
 3015TIP3    H2 9052   5.202   3.821   0.517 -0.5229  0.1394 -0.6261
 3016TIP3   OH2 9053   3.530   3.848   1.166  0.8705  0.1155  0.1029
 3016TIP3    H1 9054   3.440   3.854   1.198  1.3392 -0.7582  1.6898
 3016TIP3    H2 9055   3.569   3.776   1.215  2.6615  0.9451  0.0168
 3017TIP3   OH2 9056   6.200   3.705   3.555 -0.1866 -0.2822 -0.0512
 3017TIP3    H1 9057   6.112   3.739   3.569 -0.3639 -0.2115 -1.2340
 3017TIP3    H2 9058   6.246   3.725   3.637 -1.2589 -0.3370  0.5981
 3018TIP3   OH2 9059   6.184   2.214   1.931  0.2835 -0.0746 -0.7233
 3018TIP3    H1 9060   6.119   2.270   1.974 -0.0442 -1.0290  0.0562
 3018TIP3    H2 9061   6.156   2.125   1.951  2.0016 -0.5193 -0.0864
 3019TIP3   OH2 9062   3.433   2.610   0.583  0.1666 -0.6297  0.3321
 3019TIP3    H1 9063   3.448   2.528   0.536  0.0351 -1.4710  1.7010
 3019TIP3    H2 9064   3.464   2.593   0.672  1.7329  1.3795  0.2422
 3020TIP3   OH2 9065   0.577   1.537   0.581  0.3250  0.2271  0.3165
 3020TIP3    H1 9066   0.491   1.497   0.591 -1.0952  2.9406 -0.0804
 3020TIP3    H2 9067   0.622   1.520   0.664 -0.7097 -0.9156  0.6635
 3021TIP3   OH2 9068   6.257   2.652   2.037 -0.2337  0.1722 -0.3769
 3021TIP3    H1 9069   6.272   2.721   2.102  1.2061 -0.5739  0.1035
 3021TIP3    H2 9070   6.321   2.670   1.968  0.2373 -0.7650 -0.1856
 3022TIP3   OH2 9071   0.285   5.867   1.770 -0.2344  0.5091 -0.2946
 3022TIP3    H1 9072   0.379   5.852   1.764 -0.0344  1.9278 -1.0355
 3022TIP3    H2 9073   0.277   5.957   1.803 -1.3369  0.2210  0.2853
 3023TIP3   OH2 9074   4.022   0.091   1.795 -0.7527  0.3526  0.1405
 3023TIP3    H1 9075   4.108   0.097   1.753 -1.0484  2.0968 -0.2666
 3023TIP3    H2 9076   3.961   0.073   1.724 -0.8949  0.4998  0.2242
 3024TIP3   OH2 9077   2.548   4.431   3.626 -0.2653 -0.4478 -0.2531
 3024TIP3    H1 9078   2.607   4.460   3.695 -1.0190 -0.9604  0.6343
 3024TIP3    H2 9079   2.537   4.337   3.642 -2.6057 -0.0851  0.6283
 3025TIP3   OH2 9080   4.941   4.953   0.451 -0.9175 -0.2659  0.1032
 3025TIP3    H1 9081   4.860   4.917   0.415 -1.5993  0.2714  1.0552
 3025TIP3    H2 9082   4.946   5.042   0.415 -1.1677 -0.0223  0.6590
 3026TIP3   OH2 9083   4.174   5.718   3.617  0.4793 -0.1087 -0.1369
 3026TIP3    H1 9084   4.211   5.686   3.700 -1.1583  1.3806  1.2145
 3026TIP3    H2 9085   4.202   5.809   3.611 -0.4728  0.1624 -0.6045
 3027TIP3   OH2 9086   1.403   1.363   3.600 -0.2745 -0.5240 -0.1001
 3027TIP3    H1 9087   1.350   1.406   3.533 -0.6464 -0.3208  0.3218
 3027TIP3    H2 9088   1.344   1.300   3.640 -0.0871 -0.5618  0.1168
 3028TIP3   OH2 9089   0.854   3.245   3.100 -0.1649 -0.4226 -0.6916
 3028TIP3    H1 9090   0.777   3.268   3.153 -0.5726 -1.5491 -0.7706
 3028TIP3    H2 9091   0.853   3.308   3.028 -0.8234 -0.2221 -0.5171
 3029TIP3   OH2 9092   5.498   4.556   1.152  0.5578 -0.3017 -0.5045
 3029TIP3    H1 9093   5.577   4.505   1.133  0.9880 -0.2956  1.0737
 3029TIP3    H2 9094   5.529   4.646   1.160  0.2640 -0.1898 -0.6112
 3030TIP3   OH2 9095   3.085   5.844   0.915 -1.0895 -0.0107 -0.2330
 3030TIP3    H1 9096   3.087   5.824   0.821 -0.4634 -1.9379  0.1512
 3030TIP3    H2 9097   3.086   5.758   0.958 -3.8612  0.7141  1.5469
 3031TIP3   OH2 9098   4.388   5.283   4.245  0.5153 -0.0064  0.2072
 3031TIP3    H1 9099   4.396   5.189   4.230  1.2309 -0.0993  1.0441
 3031TIP3    H2 9100   4.374   5.290   4.340  1.4059  0.7631  0.2940
 3032TIP3   OH2 9101   2.354   2.859   2.744  0.6264  0.1001 -0.2819
 3032TIP3    H1 9102   2.313   2.944   2.761  0.6469  0.4926 -2.0221
 3032TIP3    H2 9103   2.369   2.858   2.649  0.4970 -1.9103 -0.3201
 3033TIP3   OH2 9104   6.052   5.849   4.575  0.4161  0.5141  0.3338
 3033TIP3    H1 9105   5.974   5.901   4.594  1.1561  2.6456 -1.8744
 3033TIP3    H2 9106   6.018   5.762   4.555 -1.1670  0.8342  1.4312
 3034TIP3   OH2 9107   0.085   4.421   2.011  0.2346  0.1209  0.3321
 3034TIP3    H1 9108   0.035   4.462   1.940 -0.2145 -0.9483  0.0186
 3034TIP3    H2 9109   0.150   4.487   2.035 -1.6457  1.8193  1.1475
 3035TIP3   OH2 9110   2.556   4.241   1.007 -0.5066 -0.5739  0.1967
 3035TIP3    H1 9111   2.513   4.317   0.967 -1.1380 -0.9736  0.1065
 3035TIP3    H2 9112   2.641   4.274   1.035 -0.3837 -0.0682 -0.7225
 3036TIP3   OH2 9113   1.500   3.858   0.811 -0.1982  0.5393 -0.4822
 3036TIP3    H1 9114   1.468   3.807   0.737  0.3761  1.2647 -1.2487
 3036TIP3    H2 9115   1.594   3.840   0.814 -0.1257  0.9426 -0.2688
 3037TIP3   OH2 9116   2.836   0.534   3.319 -0.3647 -0.0281  0.1198
 3037TIP3    H1 9117   2.829   0.629   3.320 -2.5279 -0.1492 -0.1980
 3037TIP3    H2 9118   2.901   0.515   3.251  1.6125  1.2280  1.5272
 3038TIP3   OH2 9119   6.155   1.006   3.479 -0.3402 -0.9177 -0.0050
 3038TIP3    H1 9120   6.087   1.070   3.502 -0.5176 -0.4998 -1.5373
 3038TIP3    H2 9121   6.114   0.950   3.413  1.1240  0.1077 -1.8970
 3039TIP3   OH2 9122   4.667   4.851   0.404  0.2933  0.1790  0.1854
 3039TIP3    H1 9123   4.586   4.820   0.445  0.4499  1.4833  1.5761
 3039TIP3    H2 9124   4.691   4.782   0.342 -1.7485 -0.3445 -0.0867
 3040TIP3   OH2 9125   3.375   1.121   2.386  0.2500  0.1099  0.3747
 3040TIP3    H1 9126   3.451   1.177   2.402  0.8331 -0.7076  0.6010
 3040TIP3    H2 9127   3.308   1.179   2.351  1.0791  0.8004 -0.0987
 3041TIP3   OH2 9128   2.102   2.199   3.393  0.2748  0.4797  0.1967
 3041TIP3    H1 9129   2.026   2.201   3.335 -0.1597 -0.4523  0.7099
 3041TIP3    H2 9130   2.066   2.179   3.479  0.9582  1.4268  0.7329
 3042TIP3   OH2 9131   4.919   1.492   2.889  0.1754  0.1127  0.1143
 3042TIP3    H1 9132   4.957   1.535   2.965 -1.0483 -0.8976  1.3544
 3042TIP3    H2 9133   4.843   1.547   2.866  0.4498  0.3287 -0.2919
 3043TIP3   OH2 9134   1.426   0.476   3.998 -0.0684  0.1307  0.1414
 3043TIP3    H1 9135   1.477   0.397   4.011 -0.7164  0.0016  2.3099
 3043TIP3    H2 9136   1.490   0.547   3.998  0.2437 -0.1424  1.4065
 3044TIP3   OH2 9137   1.506   4.512   1.879 -0.0485 -0.0500  0.4152
 3044TIP3    H1 9138   1.414   4.538   1.882 -0.5496 -1.8358  1.4487
 3044TIP3    H2 9139   1.506   4.431   1.827  0.3963 -1.9469  3.1870
 3045TIP3   OH2 9140   0.369   2.593   3.358  0.2252 -0.3264  0.0906
 3045TIP3    H1 9141   0.433   2.664   3.362  0.0301  0.0772 -2.4569
 3045TIP3    H2 9142   0.420   2.513   3.375  0.9243  0.1927  0.4839
 3046TIP3   OH2 9143   1.843   2.828   3.549 -0.2539 -0.1519  0.7147
 3046TIP3    H1 9144   1.809   2.742   3.523  0.1140 -0.6750  1.9078
 3046TIP3    H2 9145   1.766   2.876   3.580 -0.4464 -0.0581  0.1166
 3047TIP3   OH2 9146   2.876   5.335   1.114 -0.0535  0.6721  0.5209
 3047TIP3    H1 9147   2.918   5.312   1.196  2.0199 -0.2648 -0.7348
 3047TIP3    H2 9148   2.928   5.408   1.080 -0.2774  0.4094 -0.4159
 3048TIP3   OH2 9149   3.293   1.984   3.492  0.0854 -0.6401 -0.4341
 3048TIP3    H1 9150   3.226   1.918   3.477 -0.5922  0.1058 -0.7962
 3048TIP3    H2 9151   3.373   1.944   3.458 -0.6204 -0.6613 -2.2178
 3049TIP3   OH2 9152   6.230   4.441   4.313 -0.0175 -0.3680 -0.1975
 3049TIP3    H1 9153   6.229   4.348   4.338 -1.5161 -0.6474 -1.1452
 3049TIP3    H2 9154   6.149   4.453   4.264  0.0953  1.4889  0.0035
 3050TIP3   OH2 9155   2.554   3.499   2.203 -0.1220 -0.5275 -0.5042
 3050TIP3    H1 9156   2.501   3.563   2.250 -0.3881 -0.4057 -0.9643
 3050TIP3    H2 9157   2.623   3.550   2.161  0.8481 -0.7740  0.7367
 3051TIP3   OH2 9158   2.195   5.595   4.345 -0.2917  0.1895  0.5484
 3051TIP3    H1 9159   2.129   5.529   4.325 -1.2612  0.7513  1.8255
 3051TIP3    H2 9160   2.230   5.570   4.430  0.1859  0.6677  0.5008
 3052TIP3   OH2 9161   0.600   3.029   0.018  0.0979 -0.1139  0.4939
 3052TIP3    H1 9162   0.554   2.951  -0.013  0.2405  0.5817 -1.6765
 3052TIP3    H2 9163   0.643   3.002   0.099  0.6569 -2.4822 -0.5191
 3053TIP3   OH2 9164   3.622   1.041   2.773  0.3211 -0.0739  0.5424
 3053TIP3    H1 9165   3.663   1.025   2.688 -1.3182  1.0489 -0.5327
 3053TIP3    H2 9166   3.648   1.130   2.795 -0.1997  0.0569  0.6391
 3054TIP3   OH2 9167   3.802   4.362   1.144 -0.3835 -0.1002 -0.8451
 3054TIP3    H1 9168   3.877   4.344   1.089 -0.5484 -0.8452 -0.8421
 3054TIP3    H2 9169   3.773   4.275   1.175  1.0265  0.3771  2.1986
 3055TIP3   OH2 9170   4.018   2.759   4.818 -0.8113  0.1626  0.0008
 3055TIP3    H1 9171   3.952   2.693   4.796 -1.8836  1.5223 -1.0173
 3055TIP3    H2 9172   4.023   2.814   4.741  0.2789  1.1063  0.7242
 3056TIP3   OH2 9173   1.937   3.297   5.146  0.0815 -0.3642  0.0700
 3056TIP3    H1 9174   2.000   3.368   5.148  0.4116 -0.5833 -1.2870
 3056TIP3    H2 9175   1.865   3.330   5.092 -0.8426 -0.2394  1.3234
 3057TIP3   OH2 9176   5.015   5.687   3.283 -0.3053 -0.2161 -0.3939
 3057TIP3    H1 9177   4.930   5.692   3.327  0.1764 -0.4804  0.5973
 3057TIP3    H2 9178   4.995   5.697   3.190 -1.4562 -0.6578 -0.2068
 3058TIP3   OH2 9179   5.697   0.011   3.345  0.4832  0.0601  0.2494
 3058TIP3    H1 9180   5.663   0.090   3.302  0.1802 -0.1239  0.1528
 3058TIP3    H2 9181   5.708   0.036   3.436 -1.0133 -0.2244  0.5271
 3059TIP3   OH2 9182   5.749   1.266   1.125  0.2280 -0.3854  0.0514
 3059TIP3    H1 9183   5.770   1.356   1.101  0.9078  0.0138  2.0131
 3059TIP3    H2 9184   5.676   1.242   1.067  0.8170  0.9935 -1.3155
 3060TIP3   OH2 9185   1.176   1.857   2.753 -0.1005 -0.4756  0.4004
 3060TIP3    H1 9186   1.195   1.791   2.685  2.7272  1.6507 -1.0989
 3060TIP3    H2 9187   1.236   1.836   2.824 -0.7739 -0.7886  0.8853
 3061TIP3   OH2 9188   1.900   5.587   1.223  0.1049  0.3428  0.4692
 3061TIP3    H1 9189   1.982   5.548   1.194  0.2274  0.8522  0.1054
 3061TIP3    H2 9190   1.874   5.536   1.300  1.4416  1.0007  1.3886
 3062TIP3   OH2 9191   1.575   4.327   3.081 -0.1086 -0.5194 -0.5344
 3062TIP3    H1 9192   1.667   4.355   3.087 -0.4456  0.8404 -1.4484
 3062TIP3    H2 9193   1.547   4.317   3.173  0.9005 -0.8289 -0.2455
 3063TIP3   OH2 9194   6.198   5.939   3.426  0.2725  0.4153 -0.1128
 3063TIP3    H1 9195   6.171   5.998   3.356  1.3298  1.2577  0.1489
 3063TIP3    H2 9196   6.121   5.931   3.482  0.2675  2.0861  0.1759
 3064TIP3   OH2 9197   3.453   0.949   5.097 -0.0301  0.3130  0.5536
 3064TIP3    H1 9198   3.504   0.996   5.163  0.3387  0.8077 -0.0616
 3064TIP3    H2 9199   3.501   0.867   5.084  1.8466  1.5942 -1.4548
 3065TIP3   OH2 9200   3.265   5.656   3.636  0.2436  0.0982 -0.2114
 3065TIP3    H1 9201   3.297   5.744   3.617  2.6681 -0.1927  1.8768
 3065TIP3    H2 9202   3.275   5.608   3.554 -0.2041  1.5106 -1.1158
 3066TIP3   OH2 9203   0.866   1.548   4.263  0.7005 -0.0004 -0.1317
 3066TIP3    H1 9204   0.892   1.627   4.311  1.1863 -0.9007  1.1210
 3066TIP3    H2 9205   0.927   1.545   4.189  1.7723 -0.0709  0.7266
 3067TIP3   OH2 9206   6.130   5.014   2.463 -0.6666 -0.6580 -0.2118
 3067TIP3    H1 9207   6.055   4.984   2.515 -0.9496 -1.2718 -0.9543
 3067TIP3    H2 9208   6.206   4.983   2.512 -0.7558  2.1218  1.8897
 3068TIP3   OH2 9209   2.153   0.571   4.186 -0.4243  0.4914  0.9868
 3068TIP3    H1 9210   2.115   0.515   4.254 -0.7168  0.2804  0.6536
 3068TIP3    H2 9211   2.117   0.537   4.104  0.6516  0.1423  0.6374
 3069TIP3   OH2 9212   3.611   3.440   3.183  0.2326 -0.0698 -0.4453
 3069TIP3    H1 9213   3.541   3.404   3.239  0.7903 -1.5408 -0.6305
 3069TIP3    H2 9214   3.690   3.394   3.211  0.8770  0.5829 -1.1464
 3070TIP3   OH2 9215   0.119   0.298   0.883 -0.0325 -0.0515  0.0941
 3070TIP3    H1 9216   0.137   0.388   0.910 -1.2331  0.2689 -0.1048
 3070TIP3    H2 9217   0.031   0.280   0.917  0.6536 -1.5649  1.1554
 3071TIP3   OH2 9218   5.023   2.975   4.560 -0.4663  0.2841 -0.7181
 3071TIP3    H1 9219   4.934   2.958   4.531 -0.3186  0.9818 -1.6539
 3071TIP3    H2 9220   5.026   3.070   4.575 -0.6321 -0.0516  2.0421
 3072TIP3   OH2 9221   3.391   0.337   3.378  0.1319 -0.5571  0.1308
 3072TIP3    H1 9222   3.474   0.322   3.333 -0.1307  0.0627 -0.5709
 3072TIP3    H2 9223   3.324   0.316   3.314 -0.2445  1.0262 -0.0366
 3073TIP3   OH2 9224   1.647   1.571   0.777  0.4564  0.2373  0.2410
 3073TIP3    H1 9225   1.732   1.541   0.744 -0.4231 -0.9400 -1.0324
 3073TIP3    H2 9226   1.585   1.549   0.708 -0.4709  4.1352 -0.4119
 3074TIP3   OH2 9227   2.141   0.926   3.822 -0.3676 -0.1294  0.5757
 3074TIP3    H1 9228   2.185   0.874   3.889 -2.5339  0.8074  2.8504
 3074TIP3    H2 9229   2.185   1.011   3.823  1.3056 -0.8930 -1.1475
 3075TIP3   OH2 9230   5.893   4.866   3.063  0.2299 -0.0455  0.0854
 3075TIP3    H1 9231   5.973   4.857   3.115 -0.7858 -0.8773  1.5588
 3075TIP3    H2 9232   5.894   4.789   3.005  1.1001  0.6078 -0.8005
 3076TIP3   OH2 9233   1.418   5.917   1.097 -0.0677 -0.2933  0.4536
 3076TIP3    H1 9234   1.366   5.998   1.088 -1.0008 -0.9136  0.0648
 3076TIP3    H2 9235   1.443   5.915   1.189  1.4076  1.2866  0.1381
 3077TIP3   OH2 9236   1.063   5.012   1.248  0.3348 -0.2022  0.0812
 3077TIP3    H1 9237   1.017   5.065   1.313 -0.8489 -1.1418  0.0466
 3077TIP3    H2 9238   1.098   5.075   1.186 -1.9859  0.5182 -0.5755
 3078TIP3   OH2 9239   5.593   5.310   3.042  0.2191 -0.3732 -0.2970
 3078TIP3    H1 9240   5.645   5.346   2.970 -0.2429 -1.6679 -1.3260
 3078TIP3    H2 9241   5.528   5.378   3.061  1.0558  0.4504 -0.3285
 3079TIP3   OH2 9242   2.624   1.200   0.024 -0.3214 -0.5336  0.9575
 3079TIP3    H1 9243   2.662   1.233  -0.057 -0.3350 -0.4329  0.9923
 3079TIP3    H2 9244   2.554   1.262   0.045 -0.0099 -0.2946  1.3005
 3080TIP3   OH2 9245   3.382   0.223   2.353  0.0047 -0.3849  0.0280
 3080TIP3    H1 9246   3.421   0.141   2.386  2.6455  0.4321 -0.8236
 3080TIP3    H2 9247   3.341   0.262   2.430  1.4500 -1.0258  1.1839
 3081TIP3   OH2 9248   6.277   5.947   1.867  0.0330  0.0417 -0.3584
 3081TIP3    H1 9249   6.268   5.966   1.960 -0.1487  4.0740 -1.0097
 3081TIP3    H2 9250   6.191   5.915   1.840 -1.0375  2.1511  0.3159
 3082TIP3   OH2 9251   3.863   0.716   5.203  0.0594  0.1410 -0.0376
 3082TIP3    H1 9252   3.953   0.700   5.173  0.1143 -1.6305  0.9559
 3082TIP3    H2 9253   3.811   0.651   5.156 -0.9068  1.8146 -1.3850
 3083TIP3   OH2 9254   1.347   5.365   2.847 -0.1850  0.0592 -0.4387
 3083TIP3    H1 9255   1.346   5.420   2.769 -0.3225 -1.7170 -1.7526
 3083TIP3    H2 9256   1.399   5.289   2.822 -1.7469 -1.4086  0.5718
 3084TIP3   OH2 9257   3.512   2.305   4.855  0.9078 -0.1572  0.0345
 3084TIP3    H1 9258   3.550   2.257   4.928 -0.2682 -0.2828  0.5890
 3084TIP3    H2 9259   3.446   2.245   4.819 -0.4444  0.9347  0.6097
 3085TIP3   OH2 9260   0.977   1.741   0.538  0.9283  0.4926  0.3657
 3085TIP3    H1 9261   0.939   1.798   0.471  0.6298  0.6764  0.6918
 3085TIP3    H2 9262   1.070   1.735   0.514  1.2550  2.1592  1.0598
 3086TIP3   OH2 9263   4.904   2.104   1.623 -0.6125  0.6755 -0.2428
 3086TIP3    H1 9264   4.965   2.166   1.663 -0.0428 -0.7339  1.1954
 3086TIP3    H2 9265   4.954   2.061   1.554 -0.6966  1.0925 -0.5679
 3087TIP3   OH2 9266   0.045   5.729   4.233 -0.1144  0.6261 -0.0313
 3087TIP3    H1 9267   0.085   5.787   4.168 -0.2739  1.0961  0.2922
 3087TIP3    H2 9268   0.119   5.681   4.271 -0.1262 -0.6225 -1.4868
 3088TIP3   OH2 9269   1.715   1.813   4.928  0.1950 -0.2056 -0.4827
 3088TIP3    H1 9270   1.623   1.833   4.945 -0.0309  0.4013 -2.2249
 3088TIP3    H2 9271   1.760   1.898   4.932  0.7928 -0.5626  0.8851
 3089TIP3   OH2 9272   0.397   2.907   0.761 -0.2646  0.2338  0.0837
 3089TIP3    H1 9273   0.302   2.907   0.773 -0.3773  0.0963 -0.7506
 3089TIP3    H2 9274   0.417   2.994   0.727 -0.3324 -0.3025 -1.4041
 3090TIP3   OH2 9275   6.232   3.924   0.677  0.4039 -0.1883  0.2094
 3090TIP3    H1 9276   6.212   3.954   0.766 -1.5365  0.6152 -0.4230
 3090TIP3    H2 9277   6.273   4.000   0.635 -2.3155  0.9388 -0.6766
 3091TIP3   OH2 9278   4.858   5.643   0.873 -0.5918 -0.0846  0.0401
 3091TIP3    H1 9279   4.846   5.568   0.815  0.1000 -1.2016  1.2823
 3091TIP3    H2 9280   4.779   5.696   0.861 -0.9831 -0.8843 -1.0318
 3092TIP3   OH2 9281   6.027   1.861   3.464  0.0672  1.2101 -0.0207
 3092TIP3    H1 9282   5.954   1.918   3.488  0.7524  1.6091  1.2526
 3092TIP3    H2 9283   6.005   1.776   3.504  0.2094  1.2815  0.2123
 3093TIP3   OH2 9284   4.572   2.905   3.283 -0.2330  0.0666 -0.1140
 3093TIP3    H1 9285   4.540   2.869   3.200  0.4172 -0.5384 -0.1165
 3093TIP3    H2 9286   4.548   2.997   3.280 -0.5169 -0.0201 -0.8288
 3094TIP3   OH2 9287   2.210   3.661   2.009 -0.8264  0.0152 -0.3800
 3094TIP3    H1 9288   2.300   3.660   2.043 -1.1472 -0.4513  0.4748
 3094TIP3    H2 9289   2.157   3.627   2.080 -1.6109 -0.3214 -1.1138
 3095TIP3   OH2 9290   0.041   1.418   0.116  0.1811  0.4463  0.4242
 3095TIP3    H1 9291   0.038   1.403   0.021 -0.2509  1.4308  0.2654
 3095TIP3    H2 9292  -0.049   1.442   0.139 -0.1905 -1.7267  1.4509
 3096TIP3   OH2 9293  -0.003   4.576   4.073  0.0050  0.4269  0.0897
 3096TIP3    H1 9294  -0.022   4.534   4.157 -0.9384 -0.2839 -0.4485
 3096TIP3    H2 9295   0.065   4.521   4.035  0.3496  0.6811  0.3376
 3097TIP3   OH2 9296   2.982   5.406   0.720 -0.7808  0.4308 -0.0135
 3097TIP3    H1 9297   3.053   5.463   0.749  0.9686 -2.2601  1.4749
 3097TIP3    H2 9298   2.961   5.437   0.631  1.9543  1.6491 -0.3491
 3098TIP3   OH2 9299   4.836   2.347   0.953  0.4341 -0.1146  0.3077
 3098TIP3    H1 9300   4.759   2.343   0.896 -0.1538 -0.9493  1.1118
 3098TIP3    H2 9301   4.881   2.264   0.939  0.2551 -0.3509  1.0722
 3099TIP3   OH2 9302   4.504   3.215   3.332  0.5211  0.2928  0.2336
 3099TIP3    H1 9303   4.456   3.267   3.268  3.3464  2.7187 -0.1384
 3099TIP3    H2 9304   4.445   3.209   3.407 -1.0799  1.3736 -0.8610
 3100TIP3   OH2 9305   2.730   3.956   2.593 -0.3369  0.4776  0.7556
 3100TIP3    H1 9306   2.715   3.998   2.677 -0.9322  1.2046  0.2960
 3100TIP3    H2 9307   2.824   3.968   2.576  0.3758 -1.9128  2.4740
 3101TIP3   OH2 9308   0.142   1.533   3.061 -0.2337 -0.2302 -0.2945
 3101TIP3    H1 9309   0.157   1.625   3.085 -0.0897 -0.1966 -0.5173
 3101TIP3    H2 9310   0.151   1.531   2.966 -0.5327 -0.4209 -0.3193
 3102TIP3   OH2 9311   5.085   2.206   4.846 -0.0416  0.4849 -0.2298
 3102TIP3    H1 9312   5.088   2.298   4.821  2.0062  0.2093 -1.2973
 3102TIP3    H2 9313   5.120   2.160   4.769  0.6668 -0.9968  0.9302
 3103TIP3   OH2 9314   0.952   3.031   1.766  0.2827 -0.4139 -0.2846
 3103TIP3    H1 9315   1.031   3.000   1.810  0.9597  3.3394  1.5376
 3103TIP3    H2 9316   0.978   3.046   1.676  2.0837  1.8375  0.5366
 3104TIP3   OH2 9317   3.225   1.964   5.042 -0.1151  0.3219  0.2199
 3104TIP3    H1 9318   3.231   1.977   5.136 -0.8326 -1.3874  0.5393
 3104TIP3    H2 9319   3.275   2.037   5.004  0.9161  0.5513  1.9258
 3105TIP3   OH2 9320   4.161   3.001   0.528  0.6412 -0.3701  0.3713
 3105TIP3    H1 9321   4.138   2.931   0.590  2.0195 -1.0484  0.1614
 3105TIP3    H2 9322   4.144   3.082   0.576 -0.4837 -0.8334  0.8072
 3106TIP3   OH2 9323   4.735   4.819   4.419  0.1620 -0.4178  0.0409
 3106TIP3    H1 9324   4.758   4.882   4.487 -0.8313  0.5751 -0.5255
 3106TIP3    H2 9325   4.657   4.775   4.453  0.4442 -0.8568  0.1256
 3107TIP3   OH2 9326   1.735   3.479   0.730 -0.4215  0.4009 -0.6696
 3107TIP3    H1 9327   1.716   3.424   0.806  3.3106 -0.6348 -0.2565
 3107TIP3    H2 9328   1.731   3.569   0.763 -0.5003  0.0486  0.3070
 3108TIP3   OH2 9329   3.849   4.073   0.148 -0.1361 -0.4636  0.1932
 3108TIP3    H1 9330   3.929   4.124   0.160 -0.9379  1.4586 -1.8615
 3108TIP3    H2 9331   3.879   3.989   0.114  1.0559 -0.1099  0.3428
 3109TIP3   OH2 9332   0.872   1.385   4.838  0.0968  0.0745  0.2699
 3109TIP3    H1 9333   0.876   1.291   4.857 -0.6381  0.0965  0.5693
 3109TIP3    H2 9334   0.837   1.389   4.749  1.8485  0.0257 -0.4625
 3110TIP3   OH2 9335   1.415   3.879   4.229 -0.2861  0.8558 -0.6098
 3110TIP3    H1 9336   1.330   3.856   4.267  0.1436 -1.9806 -1.1863
 3110TIP3    H2 9337   1.469   3.903   4.305 -0.7251 -0.3736  0.1240
 3111TIP3   OH2 9338   0.849   3.493   3.861 -0.2908  0.1408 -0.2057
 3111TIP3    H1 9339   0.922   3.536   3.818  2.2872 -2.9420  0.6899
 3111TIP3    H2 9340   0.801   3.450   3.791 -1.6483  2.5247 -0.8492
 3112TIP3   OH2 9341   2.785   1.449   4.940  0.8901 -0.0586 -0.4811
 3112TIP3    H1 9342   2.709   1.396   4.914 -0.4130  1.6451 -0.3556
 3112TIP3    H2 9343   2.859   1.389   4.935 -0.5373 -1.9583 -0.0505
 3113TIP3   OH2 9344   5.117   3.399   3.886  0.0992 -0.3363  0.2583
 3113TIP3    H1 9345   5.091   3.466   3.950 -0.3903  1.2333 -1.5013
 3113TIP3    H2 9346   5.205   3.372   3.913 -0.6758 -0.8691  2.4530
 3114TIP3   OH2 9347   4.347   0.353   3.087  0.0036  0.7226  0.1566
 3114TIP3    H1 9348   4.350   0.448   3.082  0.7841  0.6987  0.0573
 3114TIP3    H2 9349   4.282   0.334   3.154  0.6289  1.3406  0.9488
 3115TIP3   OH2 9350   5.138   5.918   3.125 -0.1092  0.0293 -0.7601
 3115TIP3    H1 9351   5.110   5.957   3.042  0.8409 -0.2824 -1.2531
 3115TIP3    H2 9352   5.072   5.945   3.189  0.0422  1.6982 -1.2583
 3116TIP3   OH2 9353   4.969   0.382   2.182  0.5496 -0.0205  0.7028
 3116TIP3    H1 9354   4.999   0.350   2.096  0.1549  0.5275  0.3574
 3116TIP3    H2 9355   4.874   0.376   2.178  0.5467 -0.4952  1.3095
 3117TIP3   OH2 9356   4.994   5.096   4.494  0.6530  0.4539 -0.0272
 3117TIP3    H1 9357   5.014   5.115   4.585  0.7072  0.0060  0.0550
 3117TIP3    H2 9358   4.898   5.088   4.492  0.7692 -1.3586  0.3538
 3118TIP3   OH2 9359   3.169   2.898   4.014  0.4037  0.4361 -0.2555
 3118TIP3    H1 9360   3.179   2.903   4.109 -0.2019  0.5490 -0.1936
 3118TIP3    H2 9361   3.109   2.825   4.000 -1.8329  2.1866 -0.3658
 3119TIP3   OH2 9362   1.886   0.666   4.425 -0.2808  0.0655  0.5318
 3119TIP3    H1 9363   1.865   0.754   4.455  0.3306  1.4427 -2.6147
 3119TIP3    H2 9364   1.805   0.633   4.388  0.2989  0.9563 -1.7264
 3120TIP3   OH2 9365   5.799   1.624   3.422  0.2658 -0.5369 -0.4762
 3120TIP3    H1 9366   5.821   1.602   3.512  0.6456  0.5500 -0.2848
 3120TIP3    H2 9367   5.883   1.646   3.382 -0.1070  0.8022 -0.5673
 3121TIP3   OH2 9368   1.845   3.155   2.235 -0.3031  0.3157  0.2000
 3121TIP3    H1 9369   1.891   3.073   2.250 -0.1574  0.3775  0.0903
 3121TIP3    H2 9370   1.775   3.133   2.174  0.3284  0.4648 -0.5926
 3122TIP3   OH2 9371   2.496   1.870   1.341  0.0453  0.3630 -0.5011
 3122TIP3    H1 9372   2.404   1.892   1.353  0.0925  0.5381 -0.4584
 3122TIP3    H2 9373   2.499   1.775   1.351 -0.0550  0.4072 -0.0108
 3123TIP3   OH2 9374   5.225   3.027   3.155  0.1461 -0.1261 -0.2824
 3123TIP3    H1 9375   5.150   2.970   3.138 -0.2054  0.7347 -1.7547
 3123TIP3    H2 9376   5.286   3.008   3.084 -0.1608  1.5860 -1.0558
 3124TIP3   OH2 9377   3.058   1.729   0.427 -0.5581 -0.2733 -0.7476
 3124TIP3    H1 9378   3.100   1.673   0.361  1.2763 -0.6225  0.6235
 3124TIP3    H2 9379   3.115   1.722   0.503 -0.4508  3.1795 -0.3706
 3125TIP3   OH2 9380   4.913   0.468   0.614 -0.3013 -0.4036 -0.1586
 3125TIP3    H1 9381   4.848   0.445   0.680 -0.1076  1.7283  0.8699
 3125TIP3    H2 9382   4.989   0.497   0.664 -0.0300  0.9453 -1.2846
 3126TIP3   OH2 9383   4.384   0.182   3.453  0.0882 -0.3286 -0.0831
 3126TIP3    H1 9384   4.463   0.176   3.400 -0.4349  1.7911 -1.1902
 3126TIP3    H2 9385   4.332   0.252   3.413 -1.1517  0.1544  2.1535
 3127TIP3   OH2 9386   1.189   2.810   0.090  0.2950  0.3925  0.1688
 3127TIP3    H1 9387   1.158   2.900   0.098  0.7059  0.5028  0.6280
 3127TIP3    H2 9388   1.112   2.756   0.109 -0.5655  0.5978 -2.4347
 3128TIP3   OH2 9389   1.043   1.388   0.178 -0.2816 -0.2799  0.0762
 3128TIP3    H1 9390   1.027   1.470   0.224 -0.3407  0.0821 -0.5849
 3128TIP3    H2 9391   1.123   1.405   0.127  0.5716 -1.1172  1.0912
 3129TIP3   OH2 9392   5.931   3.404   0.559  0.0764  0.0559  0.2710
 3129TIP3    H1 9393   5.943   3.496   0.536 -1.5225 -0.4628 -3.4349
 3129TIP3    H2 9394   5.836   3.392   0.561  0.2243 -1.7519 -0.8851
 3130TIP3   OH2 9395   6.188   3.357   1.068 -0.4806  0.2474  0.2637
 3130TIP3    H1 9396   6.134   3.340   1.144  0.6422  0.3560  1.1089
 3130TIP3    H2 9397   6.131   3.338   0.993 -1.1732 -1.1661  1.1184
 3131TIP3   OH2 9398   0.768   0.338   3.041  0.3292  0.4320 -0.2883
 3131TIP3    H1 9399   0.805   0.251   3.022  0.7370  0.6685 -0.5796
 3131TIP3    H2 9400   0.690   0.343   2.987  0.7665  0.5796 -0.9121
 3132TIP3   OH2 9401   4.760   1.431   4.295  0.2872 -0.4115  0.5752
 3132TIP3    H1 9402   4.728   1.511   4.253 -1.0403 -0.6919  1.0017
 3132TIP3    H2 9403   4.851   1.450   4.317  0.5158  0.3438 -0.8897
 3133TIP3   OH2 9404   3.159   0.165   1.855  0.1231 -0.3208 -0.3136
 3133TIP3    H1 9405   3.121   0.081   1.831 -0.6886  0.3676 -1.5536
 3133TIP3    H2 9406   3.130   0.225   1.786  0.3936  1.0553  0.7236
 3134TIP3   OH2 9407   2.093   1.561   0.444  0.0372 -0.3587  0.5295
 3134TIP3    H1 9408   2.020   1.543   0.385 -0.8866 -1.6451  1.9954
 3134TIP3    H2 9409   2.098   1.484   0.500  3.1101 -0.7271 -0.0701
 3135TIP3   OH2 9410   2.866   5.591   3.342  0.0593 -0.1145 -0.2785
 3135TIP3    H1 9411   2.905   5.661   3.394  0.5167  0.7310 -1.6792
 3135TIP3    H2 9412   2.774   5.615   3.335 -0.2227 -0.7711  0.9441
 3136TIP3   OH2 9413   0.702   2.977   0.506  0.4809  0.2590  0.2565
 3136TIP3    H1 9414   0.776   3.016   0.553 -1.1163  0.8388  2.4486
 3136TIP3    H2 9415   0.714   2.882   0.517  0.9193  0.3427  0.5340
 3137TIP3   OH2 9416   2.730   1.603   3.952 -0.0060 -0.4304 -0.0401
 3137TIP3    H1 9417   2.745   1.517   3.913 -0.3302 -1.0393  1.1424
 3137TIP3    H2 9418   2.795   1.660   3.911  0.8216 -1.4505 -0.1667
 3138TIP3   OH2 9419   4.017   4.045   4.043 -0.0799  0.4941  0.5335
 3138TIP3    H1 9420   4.107   4.048   4.075 -0.1180  0.2946  0.6648
 3138TIP3    H2 9421   3.979   3.969   4.087 -0.1249  0.1965 -0.0182
 3139TIP3   OH2 9422   0.924   2.255   3.890 -0.4571  0.0292 -0.2074
 3139TIP3    H1 9423   0.848   2.197   3.902 -0.8963  0.9932  2.5641
 3139TIP3    H2 9424   0.899   2.335   3.936  2.1011  0.5075  0.4891
 3140TIP3   OH2 9425   2.390   2.117   3.331 -0.4692 -0.4671  0.4012
 3140TIP3    H1 9426   2.308   2.109   3.380 -1.4028  1.5791 -0.6819
 3140TIP3    H2 9427   2.370   2.078   3.246 -0.4094  0.2002  0.0733
 3141TIP3   OH2 9428   5.719   2.538   4.834  0.1857 -0.0320  0.2165
 3141TIP3    H1 9429   5.744   2.464   4.778 -0.8316 -0.1079 -0.1599
 3141TIP3    H2 9430   5.660   2.500   4.899  0.2710  0.3122  0.4985
 3142TIP3   OH2 9431   2.696   2.418   2.835 -0.3825 -0.3964 -0.0898
 3142TIP3    H1 9432   2.645   2.498   2.842 -1.3048 -0.6765 -2.4295
 3142TIP3    H2 9433   2.632   2.351   2.808  0.9086 -1.1210 -1.5286
 3143TIP3   OH2 9434   6.029   3.051   3.608  0.3526 -0.1121 -0.0752
 3143TIP3    H1 9435   6.071   3.047   3.522 -0.6780  4.4094 -1.0541
 3143TIP3    H2 9436   6.092   3.097   3.663 -1.1845  2.3101 -0.1989
 3144TIP3   OH2 9437   5.292   4.829   3.438 -0.5629  0.4311 -0.1767
 3144TIP3    H1 9438   5.277   4.873   3.355  0.4875  1.9249  0.3675
 3144TIP3    H2 9439   5.373   4.779   3.425  0.3162  1.6753  0.2694
 3145TIP3   OH2 9440   3.639   1.534   3.544 -0.3199  0.1661  0.3882
 3145TIP3    H1 9441   3.583   1.525   3.621 -2.5638 -0.7988 -1.2262
 3145TIP3    H2 9442   3.579   1.525   3.470  1.6995  1.2346 -1.5014
 3146TIP3   OH2 9443   2.864   4.918   3.560 -0.0416 -0.2873 -0.6646
 3146TIP3    H1 9444   2.836   4.888   3.646  1.4184  1.6329  0.5591
 3146TIP3    H2 9445   2.791   4.970   3.526 -0.0336  0.2535  0.1311
 3147TIP3   OH2 9446   5.156   4.782   3.680 -0.5720 -0.0171  0.2259
 3147TIP3    H1 9447   5.158   4.766   3.585  0.5834  1.7242 -0.0896
 3147TIP3    H2 9448   5.248   4.784   3.706 -0.8155  1.0070  1.0921
 3148TIP3   OH2 9449   3.283   4.209   4.932 -0.2421  1.1251 -0.2410
 3148TIP3    H1 9450   3.203   4.255   4.909  0.0239  1.8739  0.3081
 3148TIP3    H2 9451   3.317   4.256   5.008 -0.4735 -0.5322  0.9678
 3149TIP3   OH2 9452   3.990   5.436   4.443  0.0370 -0.3019 -0.3073
 3149TIP3    H1 9453   3.990   5.342   4.461  0.0411 -0.1848  0.3466
 3149TIP3    H2 9454   3.968   5.443   4.351  0.5066 -0.9709 -0.4815
 3150TIP3   OH2 9455   3.006   2.451   0.937  0.1094 -0.2492  0.1455
 3150TIP3    H1 9456   2.923   2.452   0.984  0.2794  2.1259  0.4931
 3150TIP3    H2 9457   3.066   2.404   0.995 -0.0463  1.4051  1.7419
 3151TIP3   OH2 9458   3.967   1.243   2.801 -0.1464  0.1199  0.1411
 3151TIP3    H1 9459   3.876   1.253   2.772 -0.1915 -1.2638 -0.2564
 3151TIP3    H2 9460   3.965   1.173   2.866  0.6701 -0.0997 -0.0521
 3152TIP3   OH2 9461   5.678   3.484   2.570  0.6109  0.8284 -0.0886
 3152TIP3    H1 9462   5.587   3.489   2.599  0.1401 -1.1441 -1.1222
 3152TIP3    H2 9463   5.728   3.506   2.649 -0.7281  1.3017  0.6703
 3153TIP3   OH2 9464   3.920   0.411   4.563 -0.0450 -0.1025  0.1855
 3153TIP3    H1 9465   3.993   0.416   4.502  0.9114 -0.5996  1.2612
 3153TIP3    H2 9466   3.945   0.343   4.625  0.9383  3.0226  3.5856
 3154TIP3   OH2 9467   5.837   0.987   1.334  0.0681  0.3219 -0.4773
 3154TIP3    H1 9468   5.809   0.984   1.426  3.4284 -0.4396  0.7074
 3154TIP3    H2 9469   5.877   1.074   1.324 -0.2343  0.3829 -1.2254
 3155TIP3   OH2 9470   5.979   5.556   0.039 -0.3747  0.1521  0.3879
 3155TIP3    H1 9471   5.962   5.490  -0.028 -4.4553  3.3443 -2.1883
 3155TIP3    H2 9472   5.916   5.537   0.109 -0.3675  0.3110  0.4389
 3156TIP3   OH2 9473   1.873   4.384   4.954 -0.2941 -0.1211  0.1449
 3156TIP3    H1 9474   1.833   4.298   4.938 -1.8939  0.3668  1.3181
 3156TIP3    H2 9475   1.800   4.441   4.976  0.8342  1.3680  0.1811
 3157TIP3   OH2 9476   5.273   5.335   4.121  0.0913 -0.2902  0.4044
 3157TIP3    H1 9477   5.251   5.394   4.194 -1.1304 -0.1484 -0.0680
 3157TIP3    H2 9478   5.210   5.356   4.053  1.7895  0.2314 -1.0877
 3158TIP3   OH2 9479   0.883   4.130   4.536  0.0922 -0.0264  0.5768
 3158TIP3    H1 9480   0.859   4.082   4.457  1.0751 -1.0888  0.8783
 3158TIP3    H2 9481   0.860   4.071   4.607  1.9187 -0.3888  0.9341
 3159TIP3   OH2 9482   5.458   1.201   3.795  0.2502 -0.2726  0.0755
 3159TIP3    H1 9483   5.438   1.285   3.835  0.9430 -0.2389  0.3666
 3159TIP3    H2 9484   5.372   1.159   3.783 -0.0563  0.2349  0.4471
 3160TIP3   OH2 9485   4.419   5.889   3.284  0.1636  0.1058  0.0458
 3160TIP3    H1 9486   4.364   5.845   3.348  0.6457 -0.9017 -0.1995
 3160TIP3    H2 9487   4.454   5.965   3.329 -1.0853  0.5264  0.3332
 3161TIP3   OH2 9488   6.163   5.027   1.952 -0.5144  0.3523  0.8640
 3161TIP3    H1 9489   6.197   4.971   1.882 -1.9514 -0.7838  1.0365
 3161TIP3    H2 9490   6.169   4.972   2.031  0.5044  1.3995  1.5554
 3162TIP3   OH2 9491   4.827   0.010   1.417 -0.2014  0.3047  0.0548
 3162TIP3    H1 9492   4.860   0.072   1.352 -0.2310 -0.4707 -0.7173
 3162TIP3    H2 9493   4.904  -0.036   1.448 -0.2337  0.4062  0.2853
 3163TIP3   OH2 9494   4.082   5.925   2.694 -0.4516 -0.0001  0.1847
 3163TIP3    H1 9495   4.086   5.941   2.600 -0.7949  0.0912  0.1846
 3163TIP3    H2 9496   4.097   5.831   2.703  2.7069  0.4109  0.2631
 3164TIP3   OH2 9497   1.247   0.190   1.050  0.1898 -0.0951 -0.1126
 3164TIP3    H1 9498   1.330   0.145   1.035  0.4680  0.8290 -1.4214
 3164TIP3    H2 9499   1.217   0.216   0.963  0.1523  2.4425  0.5974
 3165TIP3   OH2 9500   1.045   0.322   3.404  0.3721 -0.1490  0.2127
 3165TIP3    H1 9501   1.075   0.331   3.313 -0.9220  1.0379 -0.1338
 3165TIP3    H2 9502   1.037   0.411   3.436  0.2848 -0.5415  1.3212
 3166TIP3   OH2 9503   2.118   4.207   2.968  0.8196  0.5085 -0.0912
 3166TIP3    H1 9504   2.089   4.116   2.978 -0.2429  0.7971 -0.3928
 3166TIP3    H2 9505   2.090   4.251   3.048  0.1458  0.8602 -0.5149
 3167TIP3   OH2 9506   2.202   3.967   0.660  0.3068 -0.1774  0.0931
 3167TIP3    H1 9507   2.262   3.925   0.599  1.4260  0.3352  0.8098
 3167TIP3    H2 9508   2.251   4.041   0.696 -0.0873 -0.7728  2.0203
 3168TIP3   OH2 9509   1.000   2.782   1.121  0.3530  0.0640 -0.0204
 3168TIP3    H1 9510   0.929   2.784   1.186  1.1850 -1.8567  1.0050
 3168TIP3    H2 9511   1.024   2.874   1.111 -0.8702  0.5637  1.1881
 3169TIP3   OH2 9512   3.570   3.564   3.615 -0.3673  0.4587 -0.1891
 3169TIP3    H1 9513   3.658   3.576   3.577 -1.7394 -0.4348 -4.2091
 3169TIP3    H2 9514   3.511   3.602   3.549 -3.1397 -1.7354  0.8403
 3170TIP3   OH2 9515   6.237   4.943   0.982  0.5652  0.2059 -0.5508
 3170TIP3    H1 9516   6.186   4.897   0.915  1.2353 -2.1203  0.4070
 3170TIP3    H2 9517   6.327   4.939   0.951  0.6735  0.5800 -0.2879
 3171TIP3   OH2 9518   0.705   4.717   2.807 -0.1082  0.1554 -0.6151
 3171TIP3    H1 9519   0.611   4.712   2.794 -0.0448  2.0643 -2.3478
 3171TIP3    H2 9520   0.741   4.645   2.755 -0.5988 -1.0719  0.6849
 3172TIP3   OH2 9521   5.689   5.051   0.420 -0.2010 -0.6588  0.2355
 3172TIP3    H1 9522   5.649   4.995   0.353  2.4268 -3.1789  0.5672
 3172TIP3    H2 9523   5.734   5.119   0.371 -0.3907 -0.9934 -0.4128
 3173TIP3   OH2 9524   5.503   5.399   4.949 -0.2635  0.4538 -0.4454
 3173TIP3    H1 9525   5.475   5.394   5.040  0.7141 -0.9860 -0.1858
 3173TIP3    H2 9526   5.424   5.421   4.900 -0.8238  1.1088  0.7323
 3174TIP3   OH2 9527   3.791   2.020   4.460  0.7105  0.4033 -0.6467
 3174TIP3    H1 9528   3.861   1.975   4.413  3.3640  1.9210  1.6148
 3174TIP3    H2 9529   3.829   2.103   4.488 -2.1419  1.4904  0.3979
 3175TIP3   OH2 9530   2.129   4.730   1.235  0.3051  0.3185 -0.1271
 3175TIP3    H1 9531   2.136   4.726   1.330 -3.4033 -0.8153  0.2781
 3175TIP3    H2 9532   2.111   4.822   1.217  1.4313  0.6153  0.1844
 3176TIP3   OH2 9533   1.588   5.638   1.216 -0.1394  0.1048  0.1238
 3176TIP3    H1 9534   1.673   5.598   1.199 -0.6901 -1.2463  0.3839
 3176TIP3    H2 9535   1.587   5.716   1.161  1.0318 -0.1822 -0.3438
 3177TIP3   OH2 9536   1.380   3.712   0.618  0.6850 -0.1568 -0.3678
 3177TIP3    H1 9537   1.426   3.687   0.538 -0.6278 -1.9915 -0.5995
 3177TIP3    H2 9538   1.288   3.716   0.593  0.2517 -0.7601  1.0341
 3178TIP3   OH2 9539   4.119   4.007   4.850 -0.0525  0.2964 -0.7113
 3178TIP3    H1 9540   4.200   4.014   4.800  0.3987  1.1417  0.0890
 3178TIP3    H2 9541   4.104   4.096   4.883  0.0608 -0.3484  1.2281
 3179TIP3   OH2 9542   3.696   2.796   4.419 -0.1803  0.3574 -0.3319
 3179TIP3    H1 9543   3.665   2.886   4.426 -0.5574  0.4232 -2.2616
 3179TIP3    H2 9544   3.784   2.804   4.382  0.4386 -0.0396  0.9668
 3180TIP3   OH2 9545   2.843   2.036   1.829  0.0245 -0.0025  0.6294
 3180TIP3    H1 9546   2.916   2.066   1.882 -0.1709  2.9549 -0.5875
 3180TIP3    H2 9547   2.802   2.116   1.796 -1.5397 -1.6102 -1.6909
 3181TIP3   OH2 9548   5.938   3.929   4.428  0.0674  0.2901 -0.6435
 3181TIP3    H1 9549   5.994   3.896   4.357  0.4036  0.1549 -0.3161
 3181TIP3    H2 9550   5.988   4.001   4.466  0.0790  0.0761 -0.2572
 3182TIP3   OH2 9551   2.356   5.899   1.962  0.1234  0.4027 -0.7170
 3182TIP3    H1 9552   2.419   5.970   1.953  0.6040 -0.0689 -1.0718
 3182TIP3    H2 9553   2.409   5.821   1.976 -0.3845  0.0161 -0.9151
 3183TIP3   OH2 9554   2.933   2.618   2.334 -0.1748  0.1221 -0.9919
 3183TIP3    H1 9555   2.987   2.676   2.389  0.3564 -0.2261 -1.1385
 3183TIP3    H2 9556   2.951   2.646   2.245  1.0332 -1.0344 -1.1502
 3184TIP3   OH2 9557   1.602   2.915   4.061  0.2354 -0.1783  0.4356
 3184TIP3    H1 9558   1.638   3.002   4.046 -0.3699  0.1933  1.1180
 3184TIP3    H2 9559   1.619   2.897   4.153 -1.2575 -0.0211  0.7545
 3185TIP3   OH2 9560   5.742   3.951   3.124 -0.2264  0.1635  0.3411
 3185TIP3    H1 9561   5.693   3.876   3.089 -1.1002  0.5431  0.7138
 3185TIP3    H2 9562   5.789   3.986   3.049 -0.3714 -0.3387  0.0117
 3186TIP3   OH2 9563   5.651   1.155   3.513  0.2323 -0.1901  0.1068
 3186TIP3    H1 9564   5.594   1.093   3.557 -0.9994  0.3084 -0.7240
 3186TIP3    H2 9565   5.592   1.206   3.457  1.4256  0.6859 -0.3950
 3187TIP3   OH2 9566   2.285   5.001   0.883  0.1523 -0.3167  0.6910
 3187TIP3    H1 9567   2.350   5.069   0.901  0.5047 -0.3641 -0.3653
 3187TIP3    H2 9568   2.210   5.024   0.938  0.3503  0.7887  0.5144
 3188TIP3   OH2 9569   0.040   5.568   1.682  0.7574 -0.4923 -0.1691
 3188TIP3    H1 9570  -0.004   5.532   1.759 -0.8537 -1.4090 -1.4544
 3188TIP3    H2 9571   0.131   5.579   1.709 -0.1364  1.2772  2.5377
 3189TIP3   OH2 9572   0.591   1.625   3.283  0.5585 -0.5634 -0.7737
 3189TIP3    H1 9573   0.619   1.677   3.208  0.7262 -0.5820 -0.7263
 3189TIP3    H2 9574   0.512   1.669   3.315  0.3152 -0.7305 -1.1396
 3190TIP3   OH2 9575   1.763   3.248   1.846  0.6094  0.3557 -0.4186
 3190TIP3    H1 9576   1.681   3.253   1.895  1.2778  0.4282  0.7313
 3190TIP3    H2 9577   1.736   3.243   1.754 -0.6783  0.1752 -0.0483
 3191TIP3   OH2 9578   0.721   4.308   0.220 -0.2507 -0.1135 -0.2054
 3191TIP3    H1 9579   0.735   4.397   0.254  0.9879 -0.1540 -0.5681
 3191TIP3    H2 9580   0.679   4.322   0.135 -0.2476  0.1159 -0.1712
 3192TIP3   OH2 9581   4.064   4.349   4.161  0.1737 -0.0911  0.0826
 3192TIP3    H1 9582   4.104   4.409   4.224  1.3843  0.5355 -1.2108
 3192TIP3    H2 9583   4.059   4.265   4.207 -0.0512  0.6049  1.3845
 3193TIP3   OH2 9584   6.016   1.995   1.974 -0.2127 -0.4491 -0.3249
 3193TIP3    H1 9585   5.923   2.017   1.966 -0.3983 -1.4351 -1.0894
 3193TIP3    H2 9586   6.019   1.922   2.035 -0.2121 -1.9923 -2.1025
 3194TIP3   OH2 9587   5.329   5.744   0.074  0.0954  0.0360  0.3992
 3194TIP3    H1 9588   5.378   5.697   0.141 -0.5453  1.6327  2.0939
 3194TIP3    H2 9589   5.268   5.799   0.123  0.8161  2.6443 -1.4086
 3195TIP3   OH2 9590   2.223   3.395   4.124  0.2044 -0.2699 -0.1549
 3195TIP3    H1 9591   2.166   3.319   4.110 -0.4231  0.1461  0.0999
 3195TIP3    H2 9592   2.202   3.426   4.212 -0.3531  0.8529 -0.6547
 3196TIP3   OH2 9593   3.763   1.636   1.944 -0.1259 -0.1517  0.1473
 3196TIP3    H1 9594   3.760   1.697   1.870 -0.1701 -0.4133 -0.0679
 3196TIP3    H2 9595   3.674   1.636   1.979 -0.6521 -1.6242 -1.1086
 3197TIP3   OH2 9596   2.504   3.873   4.175 -0.2249  0.5151  0.5983
 3197TIP3    H1 9597   2.586   3.841   4.213 -0.0233  1.6255  1.1300
 3197TIP3    H2 9598   2.512   3.968   4.178 -1.8581  0.6559  1.3884
 3198TIP3   OH2 9599   3.194   5.404   1.914  0.0216 -0.2627  0.2617
 3198TIP3    H1 9600   3.235   5.364   1.991 -1.6905  0.1085  1.4237
 3198TIP3    H2 9601   3.258   5.468   1.883 -0.2503  1.5049  3.0040
 3199TIP3   OH2 9602   5.180   4.721   1.031  0.1022 -0.0530  0.1095
 3199TIP3    H1 9603   5.109   4.769   0.988 -0.0803 -0.5643 -0.1732
 3199TIP3    H2 9604   5.254   4.728   0.970 -0.4376 -1.5933 -0.7859
 3200TIP3   OH2 9605   2.565   3.650   2.713  0.6828 -0.2091 -0.1760
 3200TIP3    H1 9606   2.602   3.688   2.634  0.7926  1.6789  0.7179
 3200TIP3    H2 9607   2.640   3.607   2.755  0.9274 -0.0510 -0.4423
 3201TIP3   OH2 9608   5.216   2.255   4.353  0.2371  0.6038 -0.0664
 3201TIP3    H1 9609   5.274   2.197   4.303  0.7275 -0.3196  1.4994
 3201TIP3    H2 9610   5.220   2.221   4.442  0.3264  2.9132  0.8667
 3202TIP3   OH2 9611   5.915   1.745   0.799  0.3146  0.2368  0.6816
 3202TIP3    H1 9612   5.876   1.681   0.740 -1.0534  0.5810  1.1814
 3202TIP3    H2 9613   5.944   1.816   0.741 -2.9882  1.6110  0.4580
 3203TIP3   OH2 9614   4.513   1.128   4.022 -0.0255  0.1197 -0.2388
 3203TIP3    H1 9615   4.529   1.182   4.100  1.7683  0.4998 -0.8224
 3203TIP3    H2 9616   4.418   1.116   4.020 -0.1743  0.7188  1.5872
 3204TIP3   OH2 9617   3.894   0.942   4.793 -0.5138  0.4220 -0.2114
 3204TIP3    H1 9618   3.802   0.939   4.819 -0.1901  1.4372  1.1349
 3204TIP3    H2 9619   3.901   1.022   4.741 -0.1102  1.1138  0.8889
 3205TIP3   OH2 9620   0.770   5.477   0.227 -0.0537  0.6078  0.5649
 3205TIP3    H1 9621   0.767   5.382   0.237 -1.8496  0.2140 -2.5246
 3205TIP3    H2 9622   0.700   5.509   0.285  0.9626  0.1517  2.0840
 3206TIP3   OH2 9623   2.620   1.235   4.213  0.2721 -0.2926 -0.6061
 3206TIP3    H1 9624   2.576   1.186   4.143 -0.1836 -1.6150  0.5640
 3206TIP3    H2 9625   2.702   1.189   4.227  0.6715  0.3716 -0.7064
 3207TIP3   OH2 9626   0.115   3.043   3.607 -0.2518  0.1443 -0.4113
 3207TIP3    H1 9627   0.056   3.104   3.652 -0.9593 -1.2329  0.6443
 3207TIP3    H2 9628   0.147   2.986   3.677  1.3586  0.0564 -1.1739
 3208TIP3   OH2 9629   6.209   5.633   0.158 -0.5359  0.5695  0.1897
 3208TIP3    H1 9630   6.120   5.609   0.133 -0.3273 -0.4471  0.3762
 3208TIP3    H2 9631   6.223   5.589   0.242  0.4174  0.0291 -0.2318
 3209TIP3   OH2 9632   5.539   0.484   0.485 -0.4594  0.2330  0.0635
 3209TIP3    H1 9633   5.607   0.417   0.491  0.7233  1.2794 -1.0462
 3209TIP3    H2 9634   5.510   0.481   0.394 -0.1601  1.4196 -0.0880
 3210TIP3   OH2 9635   0.588   1.527   4.314  0.7524  0.4887 -0.0424
 3210TIP3    H1 9636   0.576   1.549   4.406 -0.0840 -1.0345  0.2429
 3210TIP3    H2 9637   0.654   1.589   4.283  0.7421  1.2949  1.4657
 3211TIP3   OH2 9638   0.322   1.681   4.096  0.2346  0.5010 -0.2064
 3211TIP3    H1 9639   0.391   1.630   4.055 -0.6494 -0.4755 -0.5300
 3211TIP3    H2 9640   0.304   1.752   4.035 -0.4302 -0.4083 -1.0881
 3212TIP3   OH2 9641   5.815   1.034   2.641 -0.3755  0.3164  0.1139
 3212TIP3    H1 9642   5.843   0.974   2.572  0.7090  0.6001  0.2907
 3212TIP3    H2 9643   5.887   1.032   2.705 -0.7190  1.1418  0.5408
 3213TIP3   OH2 9644   3.857   4.334   0.774  0.0736  0.2638  0.2761
 3213TIP3    H1 9645   3.866   4.250   0.729 -2.3899 -0.0018  0.1525
 3213TIP3    H2 9646   3.765   4.338   0.800  0.6602  1.8955  2.3939
 3214TIP3   OH2 9647   5.675   5.513   3.497  0.1509 -0.4217 -0.2165
 3214TIP3    H1 9648   5.693   5.439   3.438  0.2384  0.7070 -1.6643
 3214TIP3    H2 9649   5.610   5.565   3.450 -0.3030  0.1707  1.0235
 3215TIP3   OH2 9650   2.211   5.808   1.196 -0.0291 -0.1769  0.4083
 3215TIP3    H1 9651   2.229   5.843   1.109 -1.3334  1.0310  0.5965
 3215TIP3    H2 9652   2.157   5.874   1.238  1.7039 -0.0801  2.6722
 3216TIP3   OH2 9653   1.091   2.224   4.193  0.3067 -0.3119  0.1566
 3216TIP3    H1 9654   1.115   2.273   4.115  0.3591 -0.6076 -0.0152
 3216TIP3    H2 9655   1.025   2.278   4.237 -0.1837 -0.4357 -0.4220
 3217TIP3   OH2 9656   0.042   2.400   3.514 -0.4124 -0.0969  0.1979
 3217TIP3    H1 9657   0.055   2.349   3.594  0.3818 -0.1265  0.0519
 3217TIP3    H2 9658   0.049   2.335   3.444 -0.0629  0.1011  0.0492
 3218TIP3   OH2 9659   5.876   1.165   0.378 -0.4304 -0.0078  0.1391
 3218TIP3    H1 9660   5.806   1.221   0.412 -0.9197 -0.5044 -0.0332
 3218TIP3    H2 9661   5.957   1.211   0.400 -0.8123  0.5684  0.3506
 3219TIP3   OH2 9662   4.018   5.849   1.071  0.3002  0.0636  0.1300
 3219TIP3    H1 9663   3.925   5.842   1.050 -0.6645  0.9642  3.5295
 3219TIP3    H2 9664   4.063   5.808   0.996 -2.8395 -1.8479 -0.8811
 3220TIP3   OH2 9665   3.766   0.404   0.010 -0.0951 -0.0646 -0.2999
 3220TIP3    H1 9666   3.754   0.408   0.104 -1.0165 -4.1981 -0.0788
 3220TIP3    H2 9667   3.709   0.473  -0.025 -0.8095  0.6245  2.0765
 3221TIP3   OH2 9668   5.194   4.605   1.302 -0.3498 -0.4611  0.4634
 3221TIP3    H1 9669   5.189   4.616   1.207 -1.3154  0.1016  0.5661
 3221TIP3    H2 9670   5.219   4.692   1.334  3.0610 -1.3361  0.5513
 3222TIP3   OH2 9671   4.939   5.536   1.251  0.0229  0.8881  0.0488
 3222TIP3    H1 9672   4.985   5.621   1.250  0.6306  0.5797  0.5733
 3222TIP3    H2 9673   4.943   5.509   1.342 -0.1443  0.2779 -0.1243
 3223TIP3   OH2 9674   4.077   5.917   2.182 -0.6652  0.6019 -0.1830
 3223TIP3    H1 9675   4.101   5.825   2.190 -1.5899  0.4225  0.7002
 3223TIP3    H2 9676   4.137   5.952   2.116 -1.5751 -1.0896 -1.9933
 3224TIP3   OH2 9677   5.887   0.179   0.907  0.4102 -0.1054 -0.3719
 3224TIP3    H1 9678   5.878   0.262   0.953 -2.6880 -0.5531  0.1019
 3224TIP3    H2 9679   5.819   0.123   0.946  1.8557 -2.6203 -1.2090
 3225TIP3   OH2 9680   1.710   2.246   2.540 -0.2631 -0.0056 -0.1885
 3225TIP3    H1 9681   1.696   2.152   2.525 -0.7967  0.0487 -0.0624
 3225TIP3    H2 9682   1.654   2.288   2.474 -0.8836  0.2257  0.4689
 3226TIP3   OH2 9683   6.092   0.945   1.228 -0.0315 -0.7167 -0.2760
 3226TIP3    H1 9684   6.057   0.949   1.139 -0.1682  1.9251 -0.1636
 3226TIP3    H2 9685   6.022   0.981   1.283  1.6523  1.8881  0.3149
 3227TIP3   OH2 9686   4.973   2.780   1.954  0.6772  0.3122 -0.0811
 3227TIP3    H1 9687   4.882   2.808   1.948  0.7151  0.4209 -0.1555
 3227TIP3    H2 9688   4.977   2.731   2.036  0.1764 -1.1345 -0.8869
 3228TIP3   OH2 9689   0.898   3.908   4.747 -0.3703 -0.3834  0.3256
 3228TIP3    H1 9690   0.811   3.946   4.759 -0.5886 -0.4477 -0.8770
 3228TIP3    H2 9691   0.885   3.814   4.754  0.0503 -0.3296  2.5932
 3229TIP3   OH2 9692   6.255   0.228   4.203 -0.3170  0.1120 -0.0384
 3229TIP3    H1 9693   6.278   0.141   4.234 -0.7599  0.7271  2.2108
 3229TIP3    H2 9694   6.239   0.217   4.109 -0.1034 -2.1475  0.1421
 3230TIP3   OH2 9695   5.679   3.385   3.118  0.1244  0.0544 -0.0295
 3230TIP3    H1 9696   5.645   3.330   3.189 -1.1021  0.4563 -0.2816
 3230TIP3    H2 9697   5.722   3.458   3.162  2.9194 -1.6766  0.3478
 3231TIP3   OH2 9698   3.301   4.762   4.736  0.1634  0.1039  0.1704
 3231TIP3    H1 9699   3.261   4.681   4.767  1.9707 -1.4779 -1.3339
 3231TIP3    H2 9700   3.256   4.831   4.784 -3.1856 -1.5834 -0.2181
 3232TIP3   OH2 9701   1.721   5.699   1.466  0.1200  0.7204  0.2310
 3232TIP3    H1 9702   1.789   5.764   1.447 -1.3108  2.1534 -0.2514
 3232TIP3    H2 9703   1.676   5.687   1.383 -0.3700 -0.0263  0.5941
 3233TIP3   OH2 9704   3.718   0.945   0.806  0.1906 -0.6386 -0.1232
 3233TIP3    H1 9705   3.720   0.944   0.902 -0.7101 -0.1786 -0.0864
 3233TIP3    H2 9706   3.810   0.944   0.780  0.4444 -0.6858  0.7498
 3234TIP3   OH2 9707   2.665   3.185   0.184  0.3283 -0.0279  0.0015
 3234TIP3    H1 9708   2.637   3.181   0.093  2.4724 -2.2745 -0.7027
 3234TIP3    H2 9709   2.749   3.231   0.181  1.4931 -1.9900  0.4123
 3235TIP3   OH2 9710   1.215   5.227   3.880 -0.1034  0.0661  0.1186
 3235TIP3    H1 9711   1.158   5.153   3.862 -0.7836  0.0136  2.1775
 3235TIP3    H2 9712   1.230   5.268   3.795 -3.3249  0.1407 -0.5382
 3236TIP3   OH2 9713   0.410   1.821   5.152  0.4215 -0.3964 -0.1146
 3236TIP3    H1 9714   0.375   1.743   5.108 -1.5064 -0.8677  2.0362
 3236TIP3    H2 9715   0.505   1.815   5.142  0.2598 -2.5575 -0.7506
 3237TIP3   OH2 9716   1.526   4.665   2.143 -0.1088 -0.2374  0.1365
 3237TIP3    H1 9717   1.578   4.587   2.162 -0.8893 -0.4890  1.3665
 3237TIP3    H2 9718   1.569   4.735   2.192 -0.6568 -0.3632  0.8216
 3238TIP3   OH2 9719   2.888   1.452   1.293  0.2720 -0.1272 -0.6599
 3238TIP3    H1 9720   2.937   1.377   1.326 -0.4404 -1.1441 -1.8267
 3238TIP3    H2 9721   2.872   1.506   1.370  0.5418 -1.3318  0.2676
 3239TIP3   OH2 9722   2.623   4.824   2.677 -0.1200  0.3060 -0.1391
 3239TIP3    H1 9723   2.663   4.910   2.661 -0.3538  0.5526  0.5456
 3239TIP3    H2 9724   2.654   4.799   2.764 -1.3053  0.4384  0.3478
 3240TIP3   OH2 9725   3.060   3.003   1.274 -0.0241  0.9840 -0.1382
 3240TIP3    H1 9726   2.966   3.014   1.286 -0.0559  0.6194 -0.0437
 3240TIP3    H2 9727   3.082   3.060   1.200 -0.2811  1.2338 -0.0213
 3241TIP3   OH2 9728   3.551   5.460   1.168  0.1308  0.1145 -0.0298
 3241TIP3    H1 9729   3.644   5.475   1.183  0.7139 -2.3708 -0.6310
 3241TIP3    H2 9730   3.548   5.382   1.112 -2.3378 -0.3583  0.6272
 3242TIP3   OH2 9731   2.260   1.107   0.154 -0.3991  0.5008  0.8322
 3242TIP3    H1 9732   2.341   1.149   0.125 -0.0075 -0.0170  1.1629
 3242TIP3    H2 9733   2.235   1.049   0.082 -0.9853  1.3358  0.3394
 3243TIP3   OH2 9734   1.772   4.749   3.178  0.1382 -0.2862 -0.2959
 3243TIP3    H1 9735   1.813   4.703   3.105  0.6596 -1.7644  0.8717
 3243TIP3    H2 9736   1.845   4.777   3.233 -0.2032  1.5121 -0.6878
 3244TIP3   OH2 9737   3.760   4.086   1.162  0.2922 -0.1529  0.0351
 3244TIP3    H1 9738   3.823   4.056   1.097 -0.0039  0.3047 -0.4730
 3244TIP3    H2 9739   3.697   4.014   1.169  0.5456 -0.3713  0.1250
 3245TIP3   OH2 9740   0.302   2.246   0.126 -0.6703 -0.0514  0.1895
 3245TIP3    H1 9741   0.206   2.247   0.132 -0.7610  0.0817 -1.0244
 3245TIP3    H2 9742   0.324   2.154   0.113 -1.0385  0.2754 -4.2002
 3246TIP3   OH2 9743   5.163   0.275   0.795  0.2491  0.0684  0.0550
 3246TIP3    H1 9744   5.101   0.207   0.821 -0.0643  0.4358  0.2750
 3246TIP3    H2 9745   5.137   0.352   0.845  0.3875  0.4467 -0.4516
 3247TIP3   OH2 9746   2.040   4.806   3.527 -0.5108 -0.1485 -0.5732
 3247TIP3    H1 9747   2.066   4.714   3.529  2.4838  0.5900  0.5834
 3247TIP3    H2 9748   1.986   4.818   3.605 -0.9729 -0.8996 -0.7651
 3248TIP3   OH2 9749   4.645   4.426   0.440 -0.3495  0.2821 -0.0956
 3248TIP3    H1 9750   4.604   4.363   0.381  0.7265 -1.2654  0.7374
 3248TIP3    H2 9751   4.576   4.448   0.503 -0.5992 -0.5033 -0.0846
 3249TIP3   OH2 9752   0.069   1.819   1.497 -0.1642 -0.7186 -0.2060
 3249TIP3    H1 9753   0.148   1.868   1.520  0.0241 -1.3262  0.4572
 3249TIP3    H2 9754  -0.003   1.880   1.513  0.0741 -0.6278  0.5373
 3250TIP3   OH2 9755   2.309   2.755   4.368  0.0299  0.6154  0.0756
 3250TIP3    H1 9756   2.307   2.849   4.351  0.3627  0.5075 -0.5793
 3250TIP3    H2 9757   2.248   2.718   4.304  0.0504  0.3675  0.1993
 3251TIP3   OH2 9758   3.610   0.454   4.305 -0.0556 -0.3130  0.1940
 3251TIP3    H1 9759   3.602   0.389   4.376  0.2819  0.3611  0.8663
 3251TIP3    H2 9760   3.630   0.401   4.228 -1.4945 -1.1576  0.3667
 3252TIP3   OH2 9761   3.926   2.522   2.541  0.4540  0.0733  0.5791
 3252TIP3    H1 9762   3.944   2.559   2.627 -0.0017  0.0803  0.6707
 3252TIP3    H2 9763   3.839   2.554   2.518  0.6986  0.3410 -0.0235
 3253TIP3   OH2 9764   4.224   3.450   1.169  0.1341 -0.6759 -0.0434
 3253TIP3    H1 9765   4.269   3.485   1.245 -2.1211  0.8174  0.6890
 3253TIP3    H2 9766   4.209   3.526   1.113 -2.0704 -0.9471  0.0995
 3254TIP3   OH2 9767   1.355   1.352   0.371  0.3896 -0.0008  0.0621
 3254TIP3    H1 9768   1.358   1.373   0.278  0.3497  1.5588  0.3927
 3254TIP3    H2 9769   1.306   1.270   0.376  2.3280 -1.3666 -1.4689
 3255TIP3   OH2 9770   2.357   1.345   0.699  0.5449  0.0396 -0.0369
 3255TIP3    H1 9771   2.347   1.435   0.732 -1.7302 -0.8538  1.9944
 3255TIP3    H2 9772   2.399   1.298   0.771 -1.2956 -1.2085  0.2633
 3256TIP3   OH2 9773   1.937   2.764   1.081 -0.2141 -0.2229 -0.1521
 3256TIP3    H1 9774   2.027   2.733   1.078 -0.2353 -0.2003 -1.6423
 3256TIP3    H2 9775   1.933   2.818   1.160  0.8083 -1.0046  0.4563
 3257TIP3   OH2 9776   0.831   5.712   2.190  0.1257 -0.2102 -0.5167
 3257TIP3    H1 9777   0.744   5.675   2.204  0.4146 -1.7994 -2.3812
 3257TIP3    H2 9778   0.815   5.799   2.154 -0.6608  0.0459  0.4385
 3258TIP3   OH2 9779   3.887   4.215   4.946 -0.4834  0.4180 -0.3204
 3258TIP3    H1 9780   3.879   4.299   4.901 -0.8055  0.6947  0.2376
 3258TIP3    H2 9781   3.969   4.222   4.996 -1.3138  1.0494  1.0150
 3259TIP3   OH2 9782   5.362   0.813   2.751  0.1052 -0.2711 -0.0941
 3259TIP3    H1 9783   5.424   0.866   2.701  0.7652 -1.0369 -0.1031
 3259TIP3    H2 9784   5.415   0.743   2.788 -0.3475  0.3126  1.7599
 3260TIP3   OH2 9785   5.490   0.548   0.944 -0.7729  0.1682  0.3936
 3260TIP3    H1 9786   5.537   0.608   1.002 -2.0623  1.6855 -0.0374
 3260TIP3    H2 9787   5.557   0.509   0.889  0.1598  0.9407  0.9553
 3261TIP3   OH2 9788   0.569   4.935   0.133  0.3976 -0.4202  0.2482
 3261TIP3    H1 9789   0.541   4.990   0.206 -1.4257 -0.9371 -0.0070
 3261TIP3    H2 9790   0.575   4.996   0.059 -0.8764 -0.4196  0.1327
 3262TIP3   OH2 9791   5.055   2.297   3.776 -0.0595 -0.1041 -0.5217
 3262TIP3    H1 9792   5.062   2.329   3.866 -0.4823 -2.3427  0.3554
 3262TIP3    H2 9793   4.969   2.326   3.747 -0.2615 -0.0716  0.0919
 3263TIP3   OH2 9794   4.149   1.498   4.593 -0.1357 -0.0882  0.0008
 3263TIP3    H1 9795   4.216   1.483   4.659  0.1103  2.2190  0.3755
 3263TIP3    H2 9796   4.069   1.517   4.643  0.1455  2.0730 -0.2808
 3264TIP3   OH2 9797   5.324   5.887   2.299  0.5844  0.2047 -0.0552
 3264TIP3    H1 9798   5.248   5.830   2.290  0.6363  0.3921 -2.0580
 3264TIP3    H2 9799   5.304   5.942   2.375 -1.1904  0.1449 -0.4409
 3265TIP3   OH2 9800   5.570   2.549   0.403 -0.2983  1.1302 -0.5144
 3265TIP3    H1 9801   5.563   2.531   0.497 -1.2725  4.3930  0.1469
 3265TIP3    H2 9802   5.649   2.602   0.394  0.5407 -0.2406 -1.8253
 3266TIP3   OH2 9803   1.651   4.938   3.949 -0.0942 -0.0010  0.1382
 3266TIP3    H1 9804   1.733   4.932   3.996 -0.7780 -0.4590  1.3085
 3266TIP3    H2 9805   1.623   4.847   3.936 -0.6162  0.1519  0.1369
 3267TIP3   OH2 9806   3.522   0.466   2.880  0.0217 -0.7539 -0.0673
 3267TIP3    H1 9807   3.588   0.535   2.890 -0.2839 -0.3865 -0.5307
 3267TIP3    H2 9808   3.562   0.402   2.822  0.8415 -1.6637  1.4563
 3268TIP3   OH2 9809   0.628   4.320   1.251 -0.4529 -0.2611  0.0362
 3268TIP3    H1 9810   0.656   4.234   1.221 -1.8550 -0.3300 -1.1910
 3268TIP3    H2 9811   0.641   4.378   1.176 -1.1325  0.2153  0.2724
 3269TIP3   OH2 9812   2.043   5.201   3.987  0.5536 -0.9211 -0.1670
 3269TIP3    H1 9813   2.130   5.241   3.980  0.4811 -0.4261  1.3801
 3269TIP3    H2 9814   2.028   5.193   4.082 -1.7186  0.3787 -0.3581
 3270TIP3   OH2 9815   3.809   5.538   0.933 -0.0908 -0.3063 -0.3366
 3270TIP3    H1 9816   3.824   5.444   0.947  1.2914  0.0124  0.4372
 3270TIP3    H2 9817   3.808   5.576   1.020 -0.6437  0.4218 -0.6471
 3271TIP3   OH2 9818   4.815   1.083   2.149  0.0339  0.3543  0.1174
 3271TIP3    H1 9819   4.786   0.995   2.124 -0.7457  0.9295 -1.0801
 3271TIP3    H2 9820   4.892   1.099   2.095 -0.6554  0.9369 -0.7270
 3272TIP3   OH2 9821   5.318   0.291   0.561 -0.1297  0.5793  0.1684
 3272TIP3    H1 9822   5.370   0.371   0.563  1.0738 -0.1567 -0.0478
 3272TIP3    H2 9823   5.272   0.289   0.644  0.4916  1.0849  0.5313
 3273TIP3   OH2 9824   5.672   2.239   4.877 -0.0839 -0.8643 -0.1080
 3273TIP3    H1 9825   5.651   2.228   4.970  0.8981 -0.1188  0.2134
 3273TIP3    H2 9826   5.753   2.190   4.865 -0.8219 -1.9469 -0.8609
 3274TIP3   OH2 9827   1.095   3.472   2.680 -0.2917 -0.0067  0.3221
 3274TIP3    H1 9828   1.020   3.513   2.638 -0.1283 -0.0873 -0.0541
 3274TIP3    H2 9829   1.120   3.532   2.750 -0.3275  0.3187  0.0586
 3275TIP3   OH2 9830   0.153   0.895   4.457 -0.7162  0.1121 -0.1114
 3275TIP3    H1 9831   0.171   0.977   4.501  0.4182 -0.2842  0.1806
 3275TIP3    H2 9832   0.229   0.840   4.475 -1.2704 -0.8599 -0.6422
 3276TIP3   OH2 9833   4.155   1.690   1.161 -0.3500 -0.5208 -0.0214
 3276TIP3    H1 9834   4.212   1.691   1.238  1.7997  2.1766 -1.4651
 3276TIP3    H2 9835   4.124   1.600   1.156 -0.0460 -0.9981  3.5482
 3277TIP3   OH2 9836   1.740   0.739   3.799 -0.5277 -0.5761 -0.3155
 3277TIP3    H1 9837   1.786   0.820   3.776  1.0664 -1.3980 -0.2077
 3277TIP3    H2 9838   1.681   0.724   3.725 -0.3912  0.3474 -0.6325
 3278TIP3   OH2 9839   4.664   1.432   2.679 -0.2125 -0.2808  0.3092
 3278TIP3    H1 9840   4.666   1.511   2.733  2.0353  0.4989 -0.7633
 3278TIP3    H2 9841   4.671   1.465   2.589  0.4297 -1.6764 -0.1722
 3279TIP3   OH2 9842   2.365   5.507   0.616  0.0298 -0.6189 -0.1100
 3279TIP3    H1 9843   2.407   5.581   0.572 -0.0124 -0.9690 -0.7431
 3279TIP3    H2 9844   2.339   5.542   0.701  1.2378 -0.2818  0.1404
 3280TIP3   OH2 9845   0.818   1.243   4.270 -0.2823  0.2480  0.2578
 3280TIP3    H1 9846   0.813   1.334   4.299  0.6096  0.5179 -0.3659
 3280TIP3    H2 9847   0.869   1.198   4.337  1.4830  0.7954 -0.6473
 3281TIP3   OH2 9848   5.105   3.310   4.687 -0.1130  0.3480  0.3405
 3281TIP3    H1 9849   5.023   3.353   4.663 -0.2738 -0.3411 -0.4001
 3281TIP3    H2 9850   5.166   3.336   4.618 -0.1398 -0.3760  0.0328
 3282TIP3   OH2 9851   1.728   2.201   4.504  0.3643 -0.2460  0.2117
 3282TIP3    H1 9852   1.683   2.191   4.588  1.2770  1.5841  0.9525
 3282TIP3    H2 9853   1.657   2.196   4.439 -0.3802 -1.4136  1.0651
 3283TIP3   OH2 9854   1.556   3.229   4.759 -0.3520  0.1469 -0.0675
 3283TIP3    H1 9855   1.607   3.286   4.817 -0.5002 -1.4939  1.8007
 3283TIP3    H2 9856   1.561   3.271   4.673 -0.0542  2.6870  1.0855
 3284TIP3   OH2 9857   5.519   2.239   4.128  0.0084  0.1845  0.8492
 3284TIP3    H1 9858   5.564   2.217   4.046  0.5492 -0.0458  1.2002
 3284TIP3    H2 9859   5.481   2.325   4.112 -1.3530 -0.5913 -0.2316
 3285TIP3   OH2 9860   3.312   0.567   3.855  0.0749  0.6374  0.5544
 3285TIP3    H1 9861   3.372   0.640   3.838 -0.0282  0.8751  1.1742
 3285TIP3    H2 9862   3.369   0.492   3.872  0.1934  0.7800  0.7878
 3286TIP3   OH2 9863   2.753   5.371   0.408 -0.1381 -0.1939  0.0768
 3286TIP3    H1 9864   2.807   5.450   0.420  0.8905 -0.4552 -2.2264
 3286TIP3    H2 9865   2.696   5.393   0.334 -1.0034 -1.0756  0.4609
 3287TIP3   OH2 9866   4.117   1.714   0.718  0.0362  0.0811  0.2441
 3287TIP3    H1 9867   4.034   1.703   0.766 -0.3956  0.3201 -0.4372
 3287TIP3    H2 9868   4.180   1.740   0.785 -0.6076  0.6092  0.6557
 3288TIP3   OH2 9869   1.452   1.068   1.847 -0.2337 -0.1781 -0.0596
 3288TIP3    H1 9870   1.492   1.122   1.778 -1.1351 -0.3604 -0.7484
 3288TIP3    H2 9871   1.431   1.130   1.917  0.6921  0.0096  0.0651
 3289TIP3   OH2 9872   1.345   4.685   4.540 -0.7131  1.0352 -0.2449
 3289TIP3    H1 9873   1.348   4.697   4.445 -1.1499 -0.8418 -0.5318
 3289TIP3    H2 9874   1.252   4.673   4.560 -0.3788 -2.0959 -0.1273
 3290TIP3   OH2 9875   3.026   0.643   1.623 -0.8508 -0.2724 -0.0722
 3290TIP3    H1 9876   3.043   0.632   1.530  0.3586  0.0490  0.0929
 3290TIP3    H2 9877   3.085   0.713   1.651 -0.1354 -1.3231  1.2101
 3291TIP3   OH2 9878   5.632   3.381   0.610 -0.4541 -0.3369  0.6592
 3291TIP3    H1 9879   5.589   3.404   0.528  0.6742 -0.6632 -0.0406
 3291TIP3    H2 9880   5.579   3.310   0.646 -1.3814  0.3007  0.6050
 3292TIP3   OH2 9881   2.930   4.648   3.049 -0.1749 -0.1457 -0.0978
 3292TIP3    H1 9882   2.892   4.565   3.079  1.2155 -1.4195 -1.6312
 3292TIP3    H2 9883   2.962   4.690   3.128 -2.8195  0.0266  1.0042
 3293TIP3   OH2 9884   2.298   4.055   1.731 -0.2651  0.5413 -0.1723
 3293TIP3    H1 9885   2.241   3.978   1.726 -0.9144  1.0213 -0.1988
 3293TIP3    H2 9886   2.334   4.051   1.820  1.8313 -1.2632 -0.9893
 3294TIP3   OH2 9887   0.708   5.211   3.258 -0.5695  0.4211  0.5222
 3294TIP3    H1 9888   0.725   5.149   3.188  0.6943  2.5233 -1.1276
 3294TIP3    H2 9889   0.792   5.223   3.302 -0.6276  1.4747  0.3729
 3295TIP3   OH2 9890   1.880   4.786   2.054 -0.1466  0.3715  0.2377
 3295TIP3    H1 9891   1.835   4.807   2.136 -0.2641  0.5408  0.1313
 3295TIP3    H2 9892   1.850   4.698   2.031  1.3787 -0.5064  1.3971
 3296TIP3   OH2 9893   5.594   5.500   4.330  0.0292 -0.5047 -0.0279
 3296TIP3    H1 9894   5.614   5.412   4.362 -1.4253 -0.1485  2.0629
 3296TIP3    H2 9895   5.657   5.514   4.260  0.9276 -2.8364  0.1987
 3297TIP3   OH2 9896   0.980   5.456   2.072 -0.3018  0.0554 -0.3042
 3297TIP3    H1 9897   0.974   5.549   2.094 -0.1340  0.3013 -1.2262
 3297TIP3    H2 9898   0.896   5.419   2.099 -0.2794  0.4246  0.2841
 3298TIP3   OH2 9899   2.025   4.689   2.365 -0.1870 -0.0331 -0.3813
 3298TIP3    H1 9900   1.945   4.716   2.321  0.2987  1.5739 -0.3407
 3298TIP3    H2 9901   2.040   4.756   2.432  1.0100 -0.4786 -0.1724
 3299TIP3   OH2 9902   0.940   2.039   1.301  0.4249  0.0391  0.1065
 3299TIP3    H1 9903   0.912   2.131   1.306 -0.2302 -0.0888 -0.9896
 3299TIP3    H2 9904   0.859   1.990   1.284  0.9225 -0.6291 -0.3842
 3300TIP3   OH2 9905   1.987   4.806   4.529  0.1581  0.6946 -0.2076
 3300TIP3    H1 9906   2.027   4.861   4.461 -0.8326  1.0607 -0.5032
 3300TIP3    H2 9907   1.926   4.750   4.483  0.4297  0.0340  0.2277
 3301TIP3   OH2 9908   0.368   1.484   1.509 -0.1007  0.3637 -0.3321
 3301TIP3    H1 9909   0.340   1.403   1.467  0.8233  0.2682 -0.7836
 3301TIP3    H2 9910   0.399   1.539   1.436  0.8360  0.4804  0.1386
 3302TIP3   OH2 9911   3.911   0.116   4.260  0.4140 -0.3016  0.1603
 3302TIP3    H1 9912   3.937   0.201   4.225  0.1919  0.3044  1.4361
 3302TIP3    H2 9913   3.815   0.116   4.253  0.4008 -0.3701  0.3451
 3303TIP3   OH2 9914   1.046   2.532   3.017 -0.0756  0.2046 -0.5781
 3303TIP3    H1 9915   1.051   2.455   2.961 -0.9597 -0.0596 -0.3101
 3303TIP3    H2 9916   0.972   2.582   2.982 -2.5254 -1.3313  1.9670
 3304TIP3   OH2 9917   5.856   1.401   1.689 -0.5796  0.1254 -0.2288
 3304TIP3    H1 9918   5.935   1.429   1.642  0.3192 -0.1831  1.0199
 3304TIP3    H2 9919   5.784   1.424   1.632  0.4929 -0.9947 -2.1261
 3305TIP3   OH2 9920   3.739   0.206   0.620 -0.2685  0.1663 -0.4664
 3305TIP3    H1 9921   3.770   0.177   0.535  0.5122  0.0047 -0.1353
 3305TIP3    H2 9922   3.798   0.278   0.643 -0.9073  0.6679 -0.3683
 3306TIP3   OH2 9923   1.339   0.043   3.982  0.0601 -0.0722 -0.2222
 3306TIP3    H1 9924   1.294   0.048   4.066  0.9597 -0.0457  0.2737
 3306TIP3    H2 9925   1.271   0.061   3.917 -0.3953  1.2038  0.5652
 3307TIP3   OH2 9926   4.429   5.112   2.563 -0.3592  0.3032  0.0620
 3307TIP3    H1 9927   4.447   5.022   2.536 -2.5323  0.1042 -0.9398
 3307TIP3    H2 9928   4.378   5.149   2.491 -2.3568  1.2805  1.8541
 3308TIP3   OH2 9929   3.872   3.214   4.832  0.2773 -0.4403 -0.1291
 3308TIP3    H1 9930   3.881   3.267   4.912  0.2795  0.4081 -0.6862
 3308TIP3    H2 9931   3.820   3.268   4.773 -2.8233 -2.4693  0.5154
 3309TIP3   OH2 9932   0.699   2.925   5.053 -0.0322 -0.5065  0.3129
 3309TIP3    H1 9933   0.650   2.889   4.978 -2.3122  2.2973  0.2805
 3309TIP3    H2 9934   0.633   2.932   5.123  1.6554 -1.4885  2.0898
 3310TIP3   OH2 9935   6.077   3.369   0.768  0.2066  0.0233 -0.3587
 3310TIP3    H1 9936   6.150   3.311   0.746 -0.0952 -1.3097  1.8734
 3310TIP3    H2 9937   6.018   3.362   0.693  1.2940 -0.6649 -1.1883
 3311TIP3   OH2 9938   1.238   4.572   1.257 -0.7902 -0.2609 -0.1110
 3311TIP3    H1 9939   1.321   4.608   1.288  0.1336 -3.3154  1.3940
 3311TIP3    H2 9940   1.172   4.636   1.285  0.5346 -0.3241  3.8488
 3312TIP3   OH2 9941   3.826   4.259   0.446 -0.2136  0.9741 -0.3441
 3312TIP3    H1 9942   3.858   4.221   0.363 -1.3227 -0.8215 -0.0074
 3312TIP3    H2 9943   3.770   4.331   0.419  0.5558  1.3206 -1.0869
 3313TIP3   OH2 9944   2.272   4.444   0.280 -0.5101 -0.4132 -0.0977
 3313TIP3    H1 9945   2.194   4.445   0.336  0.8008 -1.8303  1.9094
 3313TIP3    H2 9946   2.328   4.377   0.319  1.6666  0.4582 -1.5565
 3314TIP3   OH2 9947   4.803   0.165   4.262 -0.0166  0.4367  0.0510
 3314TIP3    H1 9948   4.861   0.241   4.270  1.1576 -0.4231 -0.0104
 3314TIP3    H2 9949   4.862   0.092   4.241 -1.2625 -0.2364 -1.2708
 3315TIP3   OH2 9950   4.687   2.950   0.727  0.0646 -0.1325 -0.0181
 3315TIP3    H1 9951   4.612   2.941   0.668 -0.1670 -0.1405  0.2756
 3315TIP3    H2 9952   4.730   2.865   0.723  0.5624  0.1445 -0.8575
 3316TIP3   OH2 9953   6.213   0.339   2.546  0.2490 -0.0617  0.4825
 3316TIP3    H1 9954   6.163   0.391   2.483  0.6918  0.6619  0.7189
 3316TIP3    H2 9955   6.230   0.257   2.500 -0.1098  0.1537 -0.0486
 3317TIP3   OH2 9956   2.379   3.173   0.774 -0.3767 -0.4858 -0.4099
 3317TIP3    H1 9957   2.391   3.085   0.810  0.2425 -0.2823 -0.1111
 3317TIP3    H2 9958   2.379   3.161   0.679 -1.0083 -0.8958 -0.3635
 3318TIP3   OH2 9959   4.162   5.427   4.162 -0.4787  0.1948  0.1070
 3318TIP3    H1 9960   4.100   5.363   4.128 -1.0788 -0.0985  1.6426
 3318TIP3    H2 9961   4.228   5.374   4.207 -0.2906  0.5929  0.3038
 3319TIP3   OH2 9962   3.159   4.180   4.634 -0.0870 -0.9478  0.1768
 3319TIP3    H1 9963   3.229   4.123   4.601  0.6155 -0.2485  0.4398
 3319TIP3    H2 9964   3.090   4.119   4.662  0.1253 -1.6196 -0.7264
 3320TIP3   OH2 9965   2.352   1.570   3.775  0.2204  0.2445 -0.2521
 3320TIP3    H1 9966   2.330   1.479   3.756  1.1634  0.2351 -1.4468
 3320TIP3    H2 9967   2.309   1.589   3.858 -2.6315 -0.3381 -1.4978
 3321TIP3   OH2 9968   6.255   1.434   3.723  0.4698 -1.0377  0.2484
 3321TIP3    H1 9969   6.313   1.497   3.766 -0.5439  0.4867 -0.5124
 3321TIP3    H2 9970   6.232   1.476   3.640 -2.3289 -1.1981  0.8455
 3322TIP3   OH2 9971   1.987   5.588   4.048  0.1852  0.2876 -0.1131
 3322TIP3    H1 9972   2.004   5.530   4.123  2.6178  0.2066 -0.6377
 3322TIP3    H2 9973   1.982   5.529   3.973 -1.2510  0.4607 -0.1718
 3323TIP3   OH2 9974   3.570   3.243   1.115 -0.0982 -0.1294 -0.0235
 3323TIP3    H1 9975   3.485   3.224   1.075 -0.0644 -3.9068  1.3240
 3323TIP3    H2 9976   3.565   3.336   1.139 -3.1754  0.1948 -1.4452
 3324TIP3   OH2 9977   5.397   2.520   0.053  0.5234 -0.8440 -0.9397
 3324TIP3    H1 9978   5.389   2.576   0.130  0.9950 -0.5250 -1.1165
 3324TIP3    H2 9979   5.309   2.519   0.015  0.4381 -0.4680 -0.7606
 3325TIP3   OH2 9980   2.694   2.897   2.639  0.1305  0.3786  0.5709
 3325TIP3    H1 9981   2.718   2.990   2.627  0.8339  0.0993 -0.3398
 3325TIP3    H2 9982   2.619   2.885   2.582 -0.8810  0.7205  1.7834
 3326TIP3   OH2 9983   4.101   0.948   1.883 -0.1360 -0.0173  0.1185
 3326TIP3    H1 9984   4.146   0.951   1.967  0.6442  0.7047 -0.3193
 3326TIP3    H2 9985   4.101   0.856   1.859  0.0030 -0.1749  0.7112
 3327TIP3   OH2 9986   3.482   5.797   1.123  0.3416  0.0214  0.1455
 3327TIP3    H1 9987   3.451   5.715   1.163  0.0888  0.2307  0.3868
 3327TIP3    H2 9988   3.525   5.844   1.195  1.4518 -0.3764 -0.2482
 3328TIP3   OH2 9989   2.708   2.696   5.026  0.0389 -0.2056 -0.3924
 3328TIP3    H1 9990   2.639   2.681   4.961 -0.2106  0.2678 -0.2372
 3328TIP3    H2 9991   2.790   2.683   4.977 -0.1503 -0.2629 -0.6985
 3329TIP3   OH2 9992   4.499   2.901   0.545 -0.2851  0.6941  0.5247
 3329TIP3    H1 9993   4.557   2.888   0.470 -1.4940 -1.5922 -0.1046
 3329TIP3    H2 9994   4.418   2.935   0.507 -0.7863 -0.1570  0.8005
 3330TIP3   OH2 9995   1.354   0.121   2.481 -0.4785 -0.2950 -0.5811
 3330TIP3    H1 9996   1.447   0.133   2.462 -0.7741  0.9129 -1.4287
 3330TIP3    H2 9997   1.318   0.210   2.483 -0.9896 -0.3998  3.3256
 3331TIP3   OH2 9998   1.745   5.749   1.750 -0.3237  0.5057 -0.7942
 3331TIP3    H1 9999   1.737   5.843   1.731  1.7763  0.4957 -2.0634
 3331TIP3    H210000   1.741   5.707   1.664  2.4158 -0.1904 -0.6788
 3332TIP3   OH210001   5.706   3.028   3.582  0.3096 -0.1075  0.3306
 3332TIP3    H110002   5.801   3.032   3.594  0.7313  0.0632 -2.3986
 3332TIP3    H210003   5.690   2.939   3.552 -0.4528 -0.2012  0.9856
 3333TIP3   OH210004   0.443   4.782   3.422 -0.0225 -0.1676  0.3075
 3333TIP3    H110005   0.370   4.835   3.389 -1.3259 -2.4673 -0.7421
 3333TIP3    H210006   0.427   4.775   3.516  0.1160  1.1524  0.4535
 3334TIP3   OH210007   4.325   0.702   0.201  0.4583  0.1102  0.2292
 3334TIP3    H110008   4.396   0.638   0.206 -0.0179 -0.3790  0.7908
 3334TIP3    H210009   4.255   0.657   0.153  0.6789  0.7509 -0.7358
 3335TIP3   OH210010   5.564   2.815   0.620 -0.0056 -0.0452 -0.3836
 3335TIP3    H110011   5.653   2.848   0.631  0.0992 -0.1892 -0.8121
 3335TIP3    H210012   5.547   2.766   0.701  0.2056  0.2005 -0.1870
 3336TIP3   OH210013   2.801   1.519   2.396  0.5936  0.2909  0.1565
 3336TIP3    H110014   2.730   1.456   2.383 -0.4684  1.3299  0.7914
 3336TIP3    H210015   2.836   1.534   2.309 -0.0639 -0.1265 -0.1883
 3337TIP3   OH210016   6.206   2.976   1.804  0.0560  0.1042 -0.3528
 3337TIP3    H110017   6.194   2.897   1.752  0.9116 -0.1432 -0.1816
 3337TIP3    H210018   6.161   2.957   1.887 -1.0432  0.3854 -0.8606
 3338TIP3   OH210019   4.416   2.670   3.690 -0.3688  0.2213  0.6034
 3338TIP3    H110020   4.340   2.637   3.642 -0.8927  0.3549  1.3163
 3338TIP3    H210021   4.443   2.748   3.642 -1.5184  0.9467  1.0883
 3339TIP3   OH210022   0.566   1.988   1.595  0.5745  0.0109  0.4978
 3339TIP3    H110023   0.601   1.966   1.682 -1.2904 -0.0283  1.2811
 3339TIP3    H210024   0.627   1.947   1.534  1.9296  0.0312  1.7736
 3340TIP3   OH210025   3.731   4.370   3.473  0.1358 -0.3992 -0.3009
 3340TIP3    H110026   3.774   4.289   3.502 -0.4286 -0.8833 -0.7892
 3340TIP3    H210027   3.699   4.349   3.386 -1.1312 -0.0627  0.0751
 3341TIP3   OH210028   5.342   3.869   2.636  0.2574 -0.3632  0.2781
 3341TIP3    H110029   5.417   3.898   2.585 -0.2507  0.1672 -0.1758
 3341TIP3    H210030   5.267   3.881   2.578 -0.2256 -0.5407  0.8529
 3342TIP3   OH210031   4.378   2.778   3.420 -0.0085 -0.0679 -0.4835
 3342TIP3    H110032   4.441   2.707   3.411 -0.9430 -1.2661  1.6089
 3342TIP3    H210033   4.417   2.851   3.373  1.5722 -1.5965 -1.6622
 3343TIP3   OH210034   4.504   3.321   4.893 -0.3724  0.1617  0.0667
 3343TIP3    H110035   4.549   3.377   4.955  0.1528 -1.3239  1.0750
 3343TIP3    H210036   4.411   3.331   4.914 -0.1992 -0.2930  1.0673
 3344TIP3   OH210037   5.274   4.141   3.364 -0.4621 -0.2437  0.2298
 3344TIP3    H110038   5.230   4.185   3.436  1.5038 -0.0732  1.3835
 3344TIP3    H210039   5.247   4.191   3.286 -1.7079  0.2693  0.9544
 3345TIP3   OH210040   2.971   5.385   2.199  0.3880 -0.2500  0.3227
 3345TIP3    H110041   2.980   5.304   2.149  0.9775  0.4622 -0.7746
 3345TIP3    H210042   2.902   5.434   2.153  0.4397  0.1137  0.6264
 3346TIP3   OH210043   2.283   1.598   1.177  0.8011  0.6642 -0.6424
 3346TIP3    H110044   2.284   1.693   1.166 -0.8033  0.8415  0.3943
 3346TIP3    H210045   2.196   1.572   1.146  1.5131 -0.5795 -1.6659
 3347TIP3   OH210046   1.467   0.831   3.284  0.0181  0.2676 -0.6594
 3347TIP3    H110047   1.445   0.885   3.360 -0.9207 -0.6900 -0.2349
 3347TIP3    H210048   1.563   0.836   3.278  0.2515 -0.8729  1.5117
 3348TIP3   OH210049   0.475   4.234   1.876 -0.6092  0.7864 -0.1251
 3348TIP3    H110050   0.444   4.319   1.909  1.4009  1.2851  0.6334
 3348TIP3    H210051   0.409   4.208   1.812 -1.0234  3.1829 -0.7834
 3349TIP3   OH210052   3.560   4.245   4.337 -0.3292 -0.5382  0.3477
 3349TIP3    H110053   3.480   4.285   4.304 -2.3641 -1.9441  3.1659
 3349TIP3    H210054   3.631   4.289   4.290 -2.6907  1.4233 -1.5914
 3350TIP3   OH210055   2.743   5.301   5.099  0.6244  0.4213  0.4900
 3350TIP3    H110056   2.664   5.247   5.090  0.2340  1.0932 -0.3562
 3350TIP3    H210057   2.813   5.239   5.117 -0.2333 -0.1183  2.1688
 3351TIP3   OH210058   1.188   3.268   1.939 -0.0605  0.6173  0.3194
 3351TIP3    H110059   1.117   3.214   1.973 -0.5941  0.0304 -1.5630
 3351TIP3    H210060   1.170   3.273   1.845  1.0933  2.4406  0.1525
 3352TIP3   OH210061   0.982   2.427   4.718 -0.4706  0.4133 -0.0174
 3352TIP3    H110062   1.042   2.501   4.717  0.8973 -0.6482  0.4188
 3352TIP3    H210063   0.993   2.386   4.632 -1.4245  0.8382 -0.3628
 3353TIP3   OH210064   1.356   4.009   2.154  0.0868  0.1907  0.0082
 3353TIP3    H110065   1.372   4.103   2.147  0.6266  0.1431  0.5113
 3353TIP3    H210066   1.406   3.982   2.231  0.1242 -0.5496 -0.2675
 3354TIP3   OH210067   4.004   2.911   2.409 -0.4842  0.5046  0.3461
 3354TIP3    H110068   4.047   2.970   2.470  0.1891  0.2973  0.0880
 3354TIP3    H210069   3.931   2.874   2.458  1.2717 -1.3038  1.8085
 3355TIP3   OH210070   4.168   2.418   3.274 -0.3284 -0.2180 -0.1848
 3355TIP3    H110071   4.116   2.471   3.214 -0.9800 -0.1987  0.3827
 3355TIP3    H210072   4.250   2.402   3.228  0.3828  2.2891  0.0873
 3356TIP3   OH210073   0.508   3.804   3.689  0.2727  0.5271  0.4690
 3356TIP3    H110074   0.596   3.839   3.701  0.1257  0.9648  0.2965
 3356TIP3    H210075   0.466   3.865   3.628 -0.3098  0.5962  0.9288
 3357TIP3   OH210076   1.195   5.040   4.659  0.3978  0.0682 -0.8208
 3357TIP3    H110077   1.219   5.086   4.579 -0.1298  2.6182  0.4060
 3357TIP3    H210078   1.240   5.088   4.729 -1.5407 -0.2126  0.7004
 3358TIP3   OH210079   3.325   5.251   1.499  0.3660  1.0376  0.1102
 3358TIP3    H110080   3.405   5.280   1.543 -0.4415  2.4106  0.7462
 3358TIP3    H210081   3.311   5.317   1.430 -1.5905  2.4020  1.6776
 3359TIP3   OH210082   4.234   0.530   4.070 -0.3412  0.2895 -0.0845
 3359TIP3    H110083   4.241   0.587   3.993 -0.1373  2.2565  1.3221
 3359TIP3    H210084   4.254   0.587   4.144  0.0354 -1.6754  1.4084
 3360TIP3   OH210085   2.490   2.043   0.518 -0.1278  0.1513  0.3053
 3360TIP3    H110086   2.421   1.977   0.517  1.2127 -1.3355 -1.3709
 3360TIP3    H210087   2.479   2.088   0.602 -3.1583  0.0747  0.0555
 3361TIP3   OH210088   1.032   4.240   1.616  0.6470 -0.1896  0.5102
 3361TIP3    H110089   1.085   4.311   1.580  0.5751  0.2862  1.3257
 3361TIP3    H210090   0.979   4.210   1.542 -0.0349  1.2571  0.3719
 3362TIP3   OH210091   5.175   0.628   0.344  0.0094  0.9412 -0.0780
 3362TIP3    H110092   5.250   0.667   0.388  1.0638  0.2601 -1.2334
 3362TIP3    H210093   5.104   0.634   0.409  1.6472 -0.6138  2.0208
 3363TIP3   OH210094   3.908   3.572   2.959 -0.0433 -0.5708  0.1607
 3363TIP3    H110095   3.846   3.502   2.980  0.7271 -1.0415  0.9403
 3363TIP3    H210096   3.952   3.542   2.879  0.6763 -1.2596  0.7995
 3364TIP3   OH210097   2.721   5.541   1.468  0.4385 -0.1905 -0.3466
 3364TIP3    H110098   2.680   5.627   1.474  1.9337  0.4548  1.5482
 3364TIP3    H210099   2.800   5.555   1.416  1.7373  0.0856  1.6009
 3365TIP3   OH210100   2.044   4.384   0.434 -0.0279 -0.0259  0.1457
 3365TIP3    H110101   2.023   4.439   0.510  1.1197  0.3633  0.1970
 3365TIP3    H210102   2.083   4.305   0.471 -0.6725 -0.4096  0.0169
 3366TIP3   OH210103   6.260   5.679   1.080  0.1445 -0.4549 -0.1003
 3366TIP3    H110104   6.189   5.634   1.034 -0.1196 -1.5237  1.2990
 3366TIP3    H210105   6.315   5.609   1.115  0.7003  0.3231  0.6285
 3367TIP3   OH210106   0.954   4.094   2.773  0.5016  0.0676 -0.0064
 3367TIP3    H110107   1.004   4.059   2.847  1.7612  0.8537 -0.4517
 3367TIP3    H210108   0.988   4.183   2.762 -1.2027  0.7375 -0.1653
 3368TIP3   OH210109   0.792   3.962   3.653 -0.2243 -0.3921 -0.6280
 3368TIP3    H110110   0.886   3.972   3.669 -0.5190  0.6319  0.6255
 3368TIP3    H210111   0.785   3.883   3.600  1.3912 -0.1589 -1.2487
 3369TIP3   OH210112   0.641   1.729   4.513 -0.6426  0.4126 -0.4363
 3369TIP3    H110113   0.602   1.767   4.592  0.1590  0.4733 -0.0569
 3369TIP3    H210114   0.636   1.798   4.448 -2.4219 -0.0336 -0.8351
 3370TIP3   OH210115   1.140   3.100   0.123 -0.1358  0.0230  0.2724
 3370TIP3    H110116   1.175   3.186   0.101  4.8461 -1.4120  1.1990
 3370TIP3    H210117   1.111   3.109   0.214  1.7928  0.5206  0.8992
 3371TIP3   OH210118   5.572   1.146   4.816  0.0965 -0.2928  0.2868
 3371TIP3    H110119   5.601   1.229   4.778 -1.1461  0.1113  0.1853
 3371TIP3    H210120   5.504   1.170   4.878  1.9722 -0.9431  2.7778
 3372TIP3   OH210121   3.043   1.362   4.978  0.1591  0.1661  0.3496
 3372TIP3    H110122   3.103   1.333   4.910  0.3578  0.6179  0.3313
 3372TIP3    H210123   3.004   1.281   5.011  0.7340 -0.1300  0.3232
 3373TIP3   OH210124   1.999   0.101   2.121 -0.2410  0.4711  0.2999
 3373TIP3    H110125   2.043   0.087   2.205 -1.4895  0.1264  0.9279
 3373TIP3    H210126   2.066   0.139   2.064  0.5180  1.1084  1.5800
 3374TIP3   OH210127   4.707   4.674   3.764  0.1346 -0.1667  0.3164
 3374TIP3    H110128   4.639   4.711   3.708  0.0997 -1.9071 -0.8615
 3374TIP3    H210129   4.674   4.686   3.853 -0.6712  0.9974 -0.1130
 3375TIP3   OH210130   0.879   1.042   3.681 -0.7066 -0.4029 -0.3057
 3375TIP3    H110131   0.857   1.095   3.604 -2.5804  0.0720  0.4903
 3375TIP3    H210132   0.826   1.080   3.752  0.1868 -1.4747  0.9854
 3376TIP3   OH210133   4.985   1.101   3.982  0.3989  0.3736  0.3757
 3376TIP3    H110134   4.904   1.066   3.945  0.7364  0.1360 -0.1421
 3376TIP3    H210135   4.959   1.184   4.022 -0.1804  0.0963  0.5838
 3377TIP3   OH210136   2.745   2.998   0.604 -0.1540 -0.4111 -0.1164
 3377TIP3    H110137   2.714   3.008   0.514 -2.4067 -0.9924  0.5278
 3377TIP3    H210138   2.707   3.073   0.650 -0.6810 -1.1832  0.7332
 3378TIP3   OH210139   3.997   1.891   0.346 -0.3901 -0.3197  0.0840
 3378TIP3    H110140   3.930   1.870   0.411 -0.5693  0.5059  0.1736
 3378TIP3    H210141   3.968   1.973   0.307 -0.2211 -0.7458 -0.9673
 3379TIP3   OH210142   3.225   1.311   2.274 -0.0610 -0.9242  0.3332
 3379TIP3    H110143   3.212   1.296   2.180  3.0597 -0.9079 -0.1866
 3379TIP3    H210144   3.291   1.379   2.279 -0.4745 -0.6076  2.5939
 3380TIP3   OH210145   0.758   4.192   0.493 -0.3930 -0.3053 -0.4022
 3380TIP3    H110146   0.712   4.248   0.556  0.3096  0.4664 -0.5491
 3380TIP3    H210147   0.761   4.245   0.413  1.7834  0.1764 -0.0530
 3381TIP3   OH210148   3.408   0.335   1.952  0.3217  0.3347 -0.0855
 3381TIP3    H110149   3.376   0.258   1.905 -0.5562  0.3488  0.4658
 3381TIP3    H210150   3.402   0.406   1.888  1.0312 -0.0150 -0.5607
 3382TIP3   OH210151   4.227   3.785   3.745 -0.0534  0.4642 -0.5584
 3382TIP3    H110152   4.285   3.742   3.682 -0.5854 -1.2387  0.0673
 3382TIP3    H210153   4.282   3.800   3.822  0.1363  0.9518 -0.7830
 3383TIP3   OH210154   1.250   2.709   2.984 -0.1564 -0.2591  0.0476
 3383TIP3    H110155   1.206   2.751   2.909  1.4661  0.1948 -0.6973
 3383TIP3    H210156   1.188   2.643   3.014 -0.5548 -0.9955 -2.2004
 3384TIP3   OH210157   1.666   0.626   2.757 -0.2068  0.1866  0.5172
 3384TIP3    H110158   1.609   0.691   2.799 -0.6565 -0.0349  0.2555
 3384TIP3    H210159   1.675   0.557   2.822 -1.4367 -0.4664  0.0341
 3385TIP3   OH210160   3.488   2.133   2.033  0.2667 -0.0085  0.6079
 3385TIP3    H110161   3.431   2.185   2.090  0.9099 -1.0106  2.2258
 3385TIP3    H210162   3.531   2.071   2.092  1.5365 -0.5942 -0.8688
 3386TIP3   OH210163   0.839   0.807   2.982 -0.1958 -0.9088 -0.5997
 3386TIP3    H110164   0.805   0.764   2.904 -0.7629  0.9114 -1.4267
 3386TIP3    H210165   0.902   0.745   3.019  0.0489 -1.8394 -2.4760
 3387TIP3   OH210166   1.907   2.351   3.638  0.1033  0.4372  0.3001
 3387TIP3    H110167   1.833   2.300   3.606 -1.0225  1.2210  1.5327
 3387TIP3    H210168   1.969   2.286   3.671 -1.0254 -0.1867  1.2704
 3388TIP3   OH210169   1.627   5.333   3.618 -0.1920  0.3547 -0.4128
 3388TIP3    H110170   1.571   5.378   3.681 -0.7682 -0.1107 -0.5773
 3388TIP3    H210171   1.661   5.257   3.665 -0.5930  0.0270 -0.6454
 3389TIP3   OH210172   0.248   2.490   0.361 -0.4516  0.5202  0.2076
 3389TIP3    H110173   0.252   2.420   0.295 -0.0909  2.3623 -1.8146
 3389TIP3    H210174   0.168   2.471   0.410 -1.0886 -0.5665 -1.1752
 3390TIP3   OH210175   1.119   3.771   2.756 -0.1444 -0.5835 -0.4208
 3390TIP3    H110176   1.105   3.854   2.802  0.1246 -1.9147  2.2553
 3390TIP3    H210177   1.214   3.760   2.757 -0.1655 -0.8146 -0.9869
 3391TIP3   OH210178   2.811   2.750   3.473 -0.0253 -0.2522  0.0852
 3391TIP3    H110179   2.731   2.789   3.437 -0.2669 -0.6528  0.1763
 3391TIP3    H210180   2.828   2.799   3.553  0.8203  1.0081 -0.8273
 3392TIP3   OH210181   4.940   4.257   0.355  0.2142  0.6093  0.4226
 3392TIP3    H110182   4.903   4.204   0.285 -1.1668  0.7901  0.9798
 3392TIP3    H210183   4.992   4.324   0.309  1.0243 -0.4775 -0.3186
 3393TIP3   OH210184   5.064   4.844   0.136  0.1777 -0.3838  0.1924
 3393TIP3    H110185   5.067   4.811   0.226  1.0669 -0.2540  0.2119
 3393TIP3    H210186   5.090   4.769   0.082 -2.2984 -1.0994 -0.1623
 3394TIP3   OH210187   3.437   5.864   3.790  0.5912  0.1539  0.2929
 3394TIP3    H110188   3.345   5.890   3.782  0.4282 -0.2828  0.7493
 3394TIP3    H210189   3.435   5.780   3.834  1.2290  0.2733  0.5622
 3395TIP3   OH210190   2.155   3.243   1.698  0.6385 -0.0335  0.4005
 3395TIP3    H110191   2.109   3.187   1.761 -0.2916  0.1802 -0.0603
 3395TIP3    H210192   2.104   3.234   1.617  2.2137 -0.8572 -0.5403
 3396TIP3   OH210193   4.216   4.891   4.868 -0.3050 -0.0528  0.5561
 3396TIP3    H110194   4.261   4.856   4.945  0.3515 -0.5343 -0.0310
 3396TIP3    H210195   4.283   4.893   4.800 -0.8563  0.4365  0.0132
 3397TIP3   OH210196   0.074   5.318   0.389 -0.1792  0.5338 -0.5351
 3397TIP3    H110197   0.093   5.381   0.458 -2.0093 -0.3592  0.8652
 3397TIP3    H210198   0.154   5.315   0.337  1.2676  1.2831  1.5123
 3398TIP3   OH210199   1.320   4.815   0.523 -1.0055  0.5944  0.5262
 3398TIP3    H110200   1.415   4.803   0.530 -1.0565  0.4976  1.1122
 3398TIP3    H210201   1.287   4.792   0.610 -1.7247 -0.8957 -0.1012
 3399TIP3   OH210202   3.232   5.966   4.560  0.2758  0.0602 -0.1319
 3399TIP3    H110203   3.232   5.886   4.507 -0.3314 -0.9206  1.2556
 3399TIP3    H210204   3.173   5.945   4.633 -1.0765  2.3048 -0.4732
 3400TIP3   OH210205   5.139   1.846   2.468 -0.1706  0.3477  0.2768
 3400TIP3    H110206   5.112   1.936   2.489  0.1712 -0.0568  2.8833
 3400TIP3    H210207   5.226   1.839   2.508  0.9281 -0.4311 -2.0802
 3401TIP3   OH210208   3.471   5.138   4.991  0.9251 -0.2979  0.0113
 3401TIP3    H110209   3.506   5.211   4.939 -0.1245 -0.8348 -1.5180
 3401TIP3    H210210   3.390   5.172   5.027 -1.1770 -1.4882 -3.1424
 3402TIP3   OH210211   2.872   3.663   2.371 -0.2784  0.0008 -0.4366
 3402TIP3    H110212   2.929   3.645   2.445  0.3646  0.0692 -0.9131
 3402TIP3    H210213   2.887   3.592   2.309 -0.7712 -0.0282 -0.5347
 3403TIP3   OH210214   5.470   3.717   2.856  0.4865 -0.0444  0.3003
 3403TIP3    H110215   5.439   3.795   2.902 -1.1131 -0.8136  0.5770
 3403TIP3    H210216   5.446   3.730   2.765 -1.2953 -0.8963  0.6058
 3404TIP3   OH210217   3.054   0.095   4.500 -0.3461 -0.0092  0.0275
 3404TIP3    H110218   3.006   0.027   4.453  1.8358 -0.6851 -1.3783
 3404TIP3    H210219   3.025   0.177   4.460 -2.2066 -0.1437  1.0083
 3405TIP3   OH210220   6.160   0.722   0.059 -0.1281 -0.2141 -0.0797
 3405TIP3    H110221   6.153   0.660   0.132 -1.7325  0.4972  0.4026
 3405TIP3    H210222   6.175   0.807   0.101  2.9933 -0.3188 -0.7708
 3406TIP3   OH210223   4.636   2.340   2.697 -0.0305  0.5676  0.0991
 3406TIP3    H110224   4.582   2.344   2.618 -0.7513 -1.9184  0.3936
 3406TIP3    H210225   4.717   2.297   2.669 -0.5384 -0.9001  0.7792
 3407TIP3   OH210226   0.626   5.851   4.764  0.9004  0.1615 -0.2624
 3407TIP3    H110227   0.701   5.910   4.769  1.1630 -0.2577  0.9928
 3407TIP3    H210228   0.611   5.823   4.854  0.1103 -0.8517 -0.6870
 3408TIP3   OH210229   4.415   2.297   4.624 -0.4817  0.4943 -0.1371
 3408TIP3    H110230   4.492   2.351   4.608 -0.0149  0.2722  1.2604
 3408TIP3    H210231   4.357   2.315   4.550 -0.0526  2.3973 -0.0466
 3409TIP3   OH210232   6.332   1.227   1.734  0.1603  0.4465  0.4129
 3409TIP3    H110233   6.258   1.266   1.780 -0.0101 -2.1854  2.6433
 3409TIP3    H210234   6.305   1.225   1.642 -2.2644  0.2220  1.0598
 3410TIP3   OH210235   5.726   2.836   0.298  0.2614  0.2910 -0.2902
 3410TIP3    H110236   5.673   2.804   0.225 -1.1780  2.2493 -0.1899
 3410TIP3    H210237   5.746   2.927   0.275 -0.4704  1.0571  1.8405
 3411TIP3   OH210238   3.974   0.603   1.468 -0.3845  0.0390 -0.1193
 3411TIP3    H110239   4.055   0.654   1.466 -0.8632  0.7923 -1.2729
 3411TIP3    H210240   3.909   0.664   1.503 -0.4896 -0.5314  0.7069
 3412TIP3   OH210241   4.025   4.701   2.881  0.0578  0.5655  0.5080
 3412TIP3    H110242   3.932   4.693   2.901 -0.4656 -2.0968 -2.3055
 3412TIP3    H210243   4.069   4.647   2.947 -0.7415 -0.9813 -0.1995
 3413TIP3   OH210244   4.481   1.401   4.565  0.2702  0.1578  0.8661
 3413TIP3    H110245   4.453   1.469   4.503  0.7753  0.3557  0.8534
 3413TIP3    H210246   4.444   1.320   4.529 -0.5780  0.4529  1.0315
 3414TIP3   OH210247   3.257   2.670   1.922 -0.0752  0.3220 -0.4839
 3414TIP3    H110248   3.234   2.739   1.860 -1.4833 -0.2540 -0.6421
 3414TIP3    H210249   3.310   2.714   1.988  0.9950  1.0664 -1.7829
 3415TIP3   OH210250   4.893   2.651   2.937 -0.3784 -0.1460  0.3263
 3415TIP3    H110251   4.861   2.601   2.862  0.1138 -0.6695  0.4580
 3415TIP3    H210252   4.964   2.704   2.902 -2.7596  2.7757 -0.4937
 3416TIP3   OH210253   3.844   2.409   3.788 -0.2777 -0.4417 -0.3516
 3416TIP3    H110254   3.869   2.467   3.860 -2.9319 -1.3320  1.4618
 3416TIP3    H210255   3.779   2.459   3.739 -2.1975 -1.5200  0.9239
 3417TIP3   OH210256   2.001   4.839   3.260 -0.1422 -0.3009  0.2989
 3417TIP3    H110257   2.090   4.811   3.240 -0.0384  0.8662 -1.0733
 3417TIP3    H210258   1.997   4.842   3.355  1.0919 -0.9541  0.3865
 3418TIP3   OH210259   5.994   4.474   4.140  0.0141  0.8180 -0.4656
 3418TIP3    H110260   5.989   4.411   4.069  1.4466  0.0217  0.0958
 3418TIP3    H210261   5.915   4.458   4.192  1.2704 -1.9199  0.7549
 3419TIP3   OH210262   1.467   5.310   3.123  0.1832  0.0875  0.2959
 3419TIP3    H110263   1.501   5.228   3.158  1.0959  0.2782 -0.1149
 3419TIP3    H210264   1.414   5.284   3.048  2.3546 -0.0134 -1.2785
 3420TIP3   OH210265   2.992   2.645   0.505 -0.1764 -0.0651 -0.1501
 3420TIP3    H110266   2.983   2.560   0.547  1.5216 -1.2733 -2.0539
 3420TIP3    H210267   2.906   2.662   0.467 -1.5398  0.7321  2.9578
 3421TIP3   OH210268   2.082   3.093   3.244 -0.6489  0.2761  0.0347
 3421TIP3    H110269   2.142   3.102   3.318  0.5253  1.6455 -1.0066
 3421TIP3    H210270   2.060   2.999   3.242  0.6669 -0.0880  1.0604
 3422TIP3   OH210271   5.341   2.013   3.625  0.2704 -0.1231 -0.0161
 3422TIP3    H110272   5.368   1.963   3.702 -0.8825 -1.1187 -0.2221
 3422TIP3    H210273   5.336   1.947   3.555 -1.4427  0.2320 -0.2570
 3423TIP3   OH210274   0.415   4.189   0.216  0.0706  0.8486 -0.3364
 3423TIP3    H110275   0.460   4.117   0.260 -2.6190 -0.4866  0.4284
 3423TIP3    H210276   0.350   4.219   0.280 -1.7581  1.0376 -2.1913
 3424TIP3   OH210277   4.892   2.798  -0.005  0.0308  0.3672 -0.1471
 3424TIP3    H110278   4.886   2.885  -0.045 -1.1215  0.6845  0.6544
 3424TIP3    H210279   4.933   2.814   0.080  2.4283 -0.2983 -1.1009
 3425TIP3   OH210280   5.083   4.570   4.762  0.6801  0.4662 -0.4566
 3425TIP3    H110281   5.017   4.524   4.711 -0.1322  0.7236  0.3354
 3425TIP3    H210282   5.064   4.663   4.749  2.7211  0.6800 -2.5986
 3426TIP3   OH210283   6.002   4.890   1.496 -0.0359 -0.8114 -0.2226
 3426TIP3    H110284   6.019   4.810   1.448  0.2967 -1.5661  1.0920
 3426TIP3    H210285   6.084   4.939   1.493 -0.7333  0.3524 -2.5067
 3427TIP3   OH210286   0.864   1.434   3.866 -0.0825  0.6056 -0.2882
 3427TIP3    H110287   0.944   1.452   3.816  0.0491  0.8880  0.0271
 3427TIP3    H210288   0.823   1.520   3.877 -0.4392  0.4610 -0.4580
 3428TIP3   OH210289   2.553   5.098   5.075 -0.4646  0.4261  0.2668
 3428TIP3    H110290   2.638   5.056   5.082 -0.5496  0.1117 -0.5056
 3428TIP3    H210291   2.503   5.063   5.149  0.2348  1.0243  1.0442
 3429TIP3   OH210292   2.494   0.765   0.525 -0.2773  0.0464 -0.0150
 3429TIP3    H110293   2.483   0.783   0.618  0.4571  0.1953  0.0418
 3429TIP3    H210294   2.507   0.851   0.485  1.1605 -0.1552 -0.0152
 3430TIP3   OH210295   4.527   1.293   4.224 -0.1746  0.5246  0.4997
 3430TIP3    H110296   4.608   1.339   4.247  1.2783 -0.4252 -2.2917
 3430TIP3    H210297   4.499   1.252   4.306  2.9940 -0.3276  1.3045
 3431TIP3   OH210298   1.034   2.712   2.778  0.4397 -0.2540  0.2830
 3431TIP3    H110299   1.011   2.646   2.712  1.6621  0.8209 -1.3078
 3431TIP3    H210300   0.950   2.754   2.799 -0.1096 -1.2181  0.1053
 3432TIP3   OH210301   4.832   2.421   3.660 -0.1639  0.3050  0.5973
 3432TIP3    H110302   4.845   2.516   3.657  1.4131  0.1214  0.7694
 3432TIP3    H210303   4.743   2.411   3.693 -0.3054  1.7231  0.7444
 3433TIP3   OH210304   4.989   2.666   1.486 -0.0188 -0.1003  0.0163
 3433TIP3    H110305   4.990   2.750   1.533  0.2567 -0.0376 -0.0942
 3433TIP3    H210306   5.071   2.624   1.512 -0.1542 -0.3316  0.0642
 3434TIP3   OH210307   6.303   3.182   0.688  0.2276 -0.3146 -0.2519
 3434TIP3    H110308   6.347   3.258   0.648  0.9593  0.1108  1.3163
 3434TIP3    H210309   6.309   3.114   0.621  0.5081  0.6763 -1.2794
 3435TIP3   OH210310   6.137   1.389   1.888  1.0708 -0.0375 -0.0505
 3435TIP3    H110311   6.123   1.474   1.847  0.4789  0.6932  1.5643
 3435TIP3    H210312   6.096   1.397   1.974  1.7089 -1.6972  0.4520
 3436TIP3   OH210313   1.613   0.674   4.577 -0.5417  0.0822  0.3799
 3436TIP3    H110314   1.692   0.648   4.624 -0.2841 -0.0668 -0.1389
 3436TIP3    H210315   1.617   0.628   4.494 -1.7887 -0.9077  0.8299
 3437TIP3   OH210316   1.952   1.234   4.954  0.1512  0.2612 -0.3406
 3437TIP3    H110317   1.966   1.295   5.027  0.6445 -0.8537  0.5227
 3437TIP3    H210318   1.896   1.283   4.893  1.0286  1.7949  0.0229
 3438TIP3   OH210319   2.143   5.253   1.547 -0.7757 -0.3109 -0.0013
 3438TIP3    H110320   2.128   5.159   1.557  0.4449 -0.5246  0.0428
 3438TIP3    H210321   2.189   5.278   1.628  1.6400 -0.3264 -1.2720
 3439TIP3   OH210322   3.493   5.838   1.849  0.2123 -0.7329 -0.0335
 3439TIP3    H110323   3.586   5.852   1.830  0.4622  0.5686  1.8231
 3439TIP3    H210324   3.457   5.927   1.853 -0.8904 -1.1853  0.2567
 3440TIP3   OH210325   5.775   5.872   1.670  0.5018  0.1502  0.1110
 3440TIP3    H110326   5.709   5.846   1.735 -0.1370 -0.8204 -0.8876
 3440TIP3    H210327   5.783   5.796   1.613 -0.5356  1.6966 -2.2218
 3441TIP3   OH210328   0.993   2.282   2.621 -0.1464 -0.3241  0.5407
 3441TIP3    H110329   0.991   2.187   2.627 -1.4730 -0.4505 -1.1926
 3441TIP3    H210330   1.071   2.301   2.569 -0.8279 -0.6095 -0.6245
 3442TIP3   OH210331   5.572   3.876   4.161  0.0673  0.0155  0.2056
 3442TIP3    H110332   5.627   3.955   4.166 -0.1832  0.1393  1.2143
 3442TIP3    H210333   5.482   3.910   4.163 -0.1128 -0.1389 -2.1046
 3443TIP3   OH210334   5.050   5.591   0.115  0.1180 -0.2081 -0.1734
 3443TIP3    H110335   5.058   5.677   0.073  1.1142  0.1098  0.6329
 3443TIP3    H210336   5.002   5.608   0.196  3.6021  0.3529  1.9605
 3444TIP3   OH210337   2.874   5.804   2.905  0.3020  0.1437  0.3069
 3444TIP3    H110338   2.833   5.719   2.922 -0.0860  0.5836  1.7436
 3444TIP3    H210339   2.852   5.824   2.814 -0.1148 -1.0095  0.1378
 3445TIP3   OH210340   0.298   2.018   3.697  0.2830 -0.3216 -0.6980
 3445TIP3    H110341   0.268   1.982   3.780  0.5013  2.5472  0.7721
 3445TIP3    H210342   0.244   1.975   3.631 -3.1758  0.5066  1.3232
 3446TIP3   OH210343   1.095   1.601   0.776 -0.4290 -0.1241  0.1147
 3446TIP3    H110344   1.084   1.525   0.718  0.6649 -0.5797  0.4703
 3446TIP3    H210345   1.108   1.675   0.717 -2.3933 -0.0137 -0.2640
 3447TIP3   OH210346   4.082   3.499   2.529  0.1067  0.0603 -0.2582
 3447TIP3    H110347   4.028   3.444   2.472 -1.7486  1.3653  0.1179
 3447TIP3    H210348   4.073   3.587   2.492 -0.3239  0.7713  1.4312
 3448TIP3   OH210349   3.203   2.453   4.085 -0.4091 -0.1003 -0.1160
 3448TIP3    H110350   3.248   2.402   4.017  0.4995  1.8948 -1.0812
 3448TIP3    H210351   3.234   2.416   4.167 -0.9385 -2.0630 -0.7361
 3449TIP3   OH210352   2.731   5.575   0.008  0.1570  0.0635  0.5481
 3449TIP3    H110353   2.684   5.514   0.064  1.2175 -2.0011 -0.6745
 3449TIP3    H210354   2.812   5.528  -0.016  0.3791  1.3747 -1.5728
 3450TIP3   OH210355   4.750   3.119   1.718 -0.2539  0.1184  0.2298
 3450TIP3    H110356   4.728   3.190   1.658  0.6821 -0.5128 -0.8798
 3450TIP3    H210357   4.840   3.138   1.745  0.6480 -1.5292 -1.4218
 3451TIP3   OH210358   0.036   4.146   0.549  0.1549  0.3322 -0.7449
 3451TIP3    H110359   0.117   4.192   0.570 -0.4098  1.5253 -1.1109
 3451TIP3    H210360  -0.031   4.214   0.545 -0.7664 -0.5533 -1.0437
 3452TIP3   OH210361   3.109   3.709   4.552  0.3007 -0.4412  0.0513
 3452TIP3    H110362   3.057   3.683   4.476  0.9858  1.2162 -1.0235
 3452TIP3    H210363   3.051   3.694   4.626 -0.1295 -2.8411 -0.6566
 3453TIP3   OH210364   3.757   4.846   1.942  0.3620 -0.3132 -0.2312
 3453TIP3    H110365   3.716   4.779   1.887  1.0200 -0.5626 -0.4289
 3453TIP3    H210366   3.737   4.929   1.898 -1.3510 -0.2513  0.5691
 3454TIP3   OH210367   6.134   2.513   2.246  0.6795  0.1624  0.1258
 3454TIP3    H110368   6.071   2.577   2.278  1.3569 -0.1092  2.1510
 3454TIP3    H210369   6.168   2.551   2.165 -0.6922  1.1818 -0.0002
 3455TIP3   OH210370   6.083   1.240   0.551  0.0033  0.1179 -0.3672
 3455TIP3    H110371   6.074   1.328   0.512 -1.8595  0.4583  0.7191
 3455TIP3    H210372   6.111   1.257   0.641 -1.9708 -0.2617  0.3577
 3456TIP3   OH210373   0.439   4.789   1.012  0.5833  0.6823  0.3197
 3456TIP3    H110374   0.374   4.751   0.954  2.0266 -0.3763 -0.6724
 3456TIP3    H210375   0.519   4.792   0.960  1.4544  1.5457  1.6308
 3457TIP3   OH210376   4.714   5.551   5.084  0.8700  0.5468 -0.1782
 3457TIP3    H110377   4.744   5.476   5.136 -1.0642 -0.0538  0.1288
 3457TIP3    H210378   4.725   5.626   5.142 -1.4808 -0.1406  1.3107
 3458TIP3   OH210379   5.102   1.463   2.673  0.0091  0.3520  0.2195
 3458TIP3    H110380   5.109   1.395   2.606 -0.1187 -0.0459  0.6069
 3458TIP3    H210381   5.033   1.433   2.731  0.8991  0.1080  1.1854
 3459TIP3   OH210382   1.088   3.708   2.470  0.2692  0.4686  0.5358
 3459TIP3    H110383   1.075   3.764   2.546 -1.6973  1.8066 -0.7112
 3459TIP3    H210384   1.018   3.643   2.476  2.2668 -1.7303  1.7402
 3460TIP3   OH210385   3.411   2.554   0.885 -0.1306 -0.2064  0.7427
 3460TIP3    H110386   3.377   2.486   0.943  0.0603  1.7341  3.3385
 3460TIP3    H210387   3.333   2.591   0.843 -0.4551 -0.5669  1.0212
 3461TIP3   OH210388   0.468   3.257   0.086 -0.4281  0.0055 -0.1570
 3461TIP3    H110389   0.427   3.193   0.145  0.0620  0.2081  0.4122
 3461TIP3    H210390   0.547   3.214   0.054 -0.4850  0.0494 -0.3591
 3462TIP3   OH210391   1.739   2.253   0.089  0.4322 -0.3289 -0.4739
 3462TIP3    H110392   1.754   2.162   0.114 -1.7360 -0.7693 -0.6141
 3462TIP3    H210393   1.774   2.260   0.000 -0.6738 -1.4373 -1.0140
 3463TIP3   OH210394   1.229   2.456   3.412 -0.1461 -0.1871 -0.1848
 3463TIP3    H110395   1.268   2.491   3.492 -0.3741  1.4178 -0.7509
 3463TIP3    H210396   1.254   2.363   3.413  0.3804 -0.0688  1.4163
 3464TIP3   OH210397   0.986   2.545   0.960 -0.1430  0.3119  0.9322
 3464TIP3    H110398   0.894   2.553   0.986 -0.6033 -0.0440 -0.5261
 3464TIP3    H210399   1.030   2.617   1.005 -1.3468  1.2112  0.6946
 3465TIP3   OH210400   1.114   1.887   0.899 -0.0570  0.7891 -0.2763
 3465TIP3    H110401   1.087   1.797   0.916  1.3924  0.3050 -0.3365
 3465TIP3    H210402   1.100   1.933   0.981  0.7024  0.0932  0.2558
 3466TIP3   OH210403   5.428   3.652   5.113  0.1422 -0.1605 -0.3446
 3466TIP3    H110404   5.441   3.741   5.081 -0.4778 -0.2843 -0.9675
 3466TIP3    H210405   5.369   3.662   5.188 -0.6514 -0.1182 -0.9615
 3467TIP3   OH210406   5.746   2.021   4.235  0.2131  0.1213  0.1567
 3467TIP3    H110407   5.747   1.959   4.162  0.4605  0.9375 -0.5430
 3467TIP3    H210408   5.654   2.029   4.259  0.0379  0.4811 -0.6149
 3468TIP3   OH210409   4.834   0.353   1.772  0.1811 -0.5122 -0.0869
 3468TIP3    H110410   4.849   0.259   1.783 -2.4913 -1.1389 -1.0153
 3468TIP3    H210411   4.885   0.376   1.694  0.8524 -1.1866  0.1381
 3469TIP3   OH210412   0.203   3.678   2.101  0.0526  0.3609 -0.4903
 3469TIP3    H110413   0.237   3.765   2.121  1.2329 -0.2527  0.2661
 3469TIP3    H210414   0.247   3.653   2.020  1.5131 -0.4694  0.5353
 3470TIP3   OH210415   1.604   4.463   4.186  0.2309 -0.3960  0.0266
 3470TIP3    H110416   1.512   4.436   4.191  0.0100  0.3163 -0.0872
 3470TIP3    H210417   1.616   4.519   4.263  0.2179  0.5381 -0.6333
 3471TIP3   OH210418   1.897   2.887   1.379  0.4780  0.9865  0.0954
 3471TIP3    H110419   1.827   2.890   1.445  0.5101 -0.6588  0.2393
 3471TIP3    H210420   1.964   2.946   1.413  0.2805  0.5414  1.2907
 3472TIP3   OH210421   3.422   0.298   3.812  0.7394 -0.6702  0.5205
 3472TIP3    H110422   3.500   0.269   3.766  0.3893 -2.2949  0.8871
 3472TIP3    H210423   3.352   0.292   3.746  0.4105 -2.1081  0.9509
 3473TIP3   OH210424   0.814   1.773   0.759 -0.1488  0.3960  0.5983
 3473TIP3    H110425   0.774   1.686   0.753  0.8202  0.0177 -0.8332
 3473TIP3    H210426   0.888   1.769   0.699 -1.4191  2.9390 -1.3228
 3474TIP3   OH210427   4.350   2.016   4.695 -0.3025 -0.2712  0.7207
 3474TIP3    H110428   4.373   2.094   4.644 -0.3982  0.4829  1.8033
 3474TIP3    H210429   4.255   2.008   4.686 -0.0402 -1.9096 -1.6522
 3475TIP3   OH210430   2.108   3.098   3.886 -0.2685 -0.7613  0.3667
 3475TIP3    H110431   2.078   3.071   3.973 -1.1400 -0.4339  0.1815
 3475TIP3    H210432   2.064   3.036   3.827  0.3018 -0.9669  0.1575
 3476TIP3   OH210433   5.389   1.026   4.294  0.1074  0.0935 -0.0142
 3476TIP3    H110434   5.377   0.934   4.319 -0.0916  0.1609  0.1386
 3476TIP3    H210435   5.332   1.038   4.219  0.3120  0.0301 -0.1805
 3477TIP3   OH210436   0.890   0.902   4.279  0.2534 -0.2607 -0.5352
 3477TIP3    H110437   0.967   0.893   4.224 -0.3156 -0.6008 -1.2889
 3477TIP3    H210438   0.821   0.932   4.220 -0.2075  0.0010  0.1189
 3478TIP3   OH210439   6.103   3.545   2.014  0.3197 -0.6062 -0.5483
 3478TIP3    H110440   6.026   3.512   1.966 -0.5702 -0.6981  0.8700
 3478TIP3    H210441   6.176   3.493   1.980 -0.6883 -2.4625 -0.0183
 3479TIP3   OH210442   6.120   5.904   0.279 -0.0937  0.7221 -0.3982
 3479TIP3    H110443   6.089   5.994   0.285 -1.0517  0.3837 -0.1995
 3479TIP3    H210444   6.171   5.902   0.198 -1.3520  1.0588 -1.2165
 3480TIP3   OH210445   1.592   5.306   5.003 -0.4596 -0.0776 -0.4180
 3480TIP3    H110446   1.552   5.255   5.074 -1.4984 -2.1328 -2.3642
 3480TIP3    H210447   1.663   5.251   4.971  0.4506  1.1333 -0.5704
 3481TIP3   OH210448   3.423   0.856   3.542 -0.6010 -0.1980 -0.0064
 3481TIP3    H110449   3.448   0.770   3.509 -1.4688  0.1506 -1.6464
 3481TIP3    H210450   3.416   0.910   3.464 -1.4916  0.9985  0.8813
 3482TIP3   OH210451   3.535   1.334   1.489 -0.0911  0.0581  0.0150
 3482TIP3    H110452   3.534   1.242   1.515  3.8285 -0.2087 -0.0462
 3482TIP3    H210453   3.547   1.381   1.572 -0.8859  0.3989 -0.0652
 3483TIP3   OH210454   3.110   4.572   4.873  0.1598 -0.0723  0.2559
 3483TIP3    H110455   3.149   4.485   4.868  0.2885  0.0222 -0.7411
 3483TIP3    H210456   3.024   4.561   4.831 -0.9062 -0.2735  2.3869
 3484TIP3   OH210457   4.381   1.583   1.983  0.0470 -0.0373  0.1487
 3484TIP3    H110458   4.408   1.655   1.926 -1.0153 -0.5186 -0.9964
 3484TIP3    H210459   4.323   1.624   2.047  0.0834  0.2535 -0.0039
 3485TIP3   OH210460   4.276   1.284   3.443 -0.1640  0.5822  0.5787
 3485TIP3    H110461   4.285   1.275   3.348  1.6354  0.6969  0.7210
 3485TIP3    H210462   4.185   1.312   3.455 -0.1658  1.4619 -1.1685
 3486TIP3   OH210463   1.355   2.289   4.714  0.1251 -0.5228 -0.2886
 3486TIP3    H110464   1.362   2.270   4.808  1.0224 -0.6843 -0.3837
 3486TIP3    H210465   1.318   2.377   4.711  2.2693  0.4721  0.2815
 3487TIP3   OH210466   0.455   2.919   3.685  0.0732  0.3427  0.2032
 3487TIP3    H110467   0.424   3.004   3.651  0.4929  0.5956  0.4424
 3487TIP3    H210468   0.385   2.891   3.745 -1.0964 -0.5396 -1.5171
 3488TIP3   OH210469   0.874   0.249   1.345 -0.0140 -0.3205  0.6881
 3488TIP3    H110470   0.939   0.190   1.384  1.4054  0.5267 -0.3100
 3488TIP3    H210471   0.926   0.317   1.302 -1.5891  1.3319  1.2636
 3489TIP3   OH210472   6.331   3.092   0.363  0.2074  0.1377  0.6732
 3489TIP3    H110473   6.340   3.067   0.271  1.7247  1.2979  0.4682
 3489TIP3    H210474   6.264   3.161   0.362 -0.1280 -0.1866  0.5133
 3490TIP3   OH210475   4.557   1.831   1.234 -0.2050 -0.2398  0.6230
 3490TIP3    H110476   4.610   1.908   1.215  0.9366 -0.9792  0.7296
 3490TIP3    H210477   4.471   1.866   1.259 -0.1035  0.9326 -0.6053
 3491TIP3   OH210478   3.632   2.080   0.669  0.7188 -0.2368 -0.4520
 3491TIP3    H110479   3.678   2.111   0.592  0.5467 -0.5837 -0.6959
 3491TIP3    H210480   3.697   2.084   0.740  1.1879 -0.9159 -0.8328
 3492TIP3   OH210481   2.201   3.090   2.686 -0.2416 -0.1827  0.5017
 3492TIP3    H110482   2.163   3.007   2.658  1.4356 -0.9168  0.2922
 3492TIP3    H210483   2.211   3.141   2.605 -0.7276 -0.0100  0.5506
 3493TIP3   OH210484   3.234   4.663   0.725  0.2734 -0.2718  0.3638
 3493TIP3    H110485   3.162   4.618   0.769  1.5111 -0.9658  1.7907
 3493TIP3    H210486   3.215   4.756   0.737  1.2481 -0.3751  3.7549
 3494TIP3   OH210487   5.224   1.313   1.221 -0.0554 -0.2941  0.7408
 3494TIP3    H110488   5.238   1.362   1.140  0.0383 -0.3701  0.7108
 3494TIP3    H210489   5.131   1.323   1.239 -0.1222 -0.4605  0.5044
 3495TIP3   OH210490   2.044   4.079   2.605 -0.1339 -0.1856  0.5621
 3495TIP3    H110491   2.072   4.033   2.526  1.8959  0.9004  0.5743
 3495TIP3    H210492   1.955   4.048   2.621  0.0703 -1.7916 -1.1051
 3496TIP3   OH210493   1.825   4.530   4.436  0.2126  0.9950 -0.7244
 3496TIP3    H110494   1.882   4.487   4.500 -0.9903  2.6880  1.6224
 3496TIP3    H210495   1.743   4.480   4.441 -0.1497  1.6191 -0.3134
 3497TIP3   OH210496   2.152   5.798   4.063  0.7619  0.3484 -0.3530
 3497TIP3    H110497   2.231   5.754   4.094  0.4277 -0.0671 -0.0886
 3497TIP3    H210498   2.089   5.727   4.046 -0.2664  0.7789  1.4276
 3498TIP3   OH210499   4.623   5.338   2.704  0.0078 -0.0677 -0.0348
 3498TIP3    H110500   4.635   5.419   2.753  1.1490 -0.6880  0.7716
 3498TIP3    H210501   4.609   5.365   2.613 -0.6783  1.0508  0.3931
 3499TIP3   OH210502   0.786   1.085   0.975 -0.0708  0.2128  0.3391
 3499TIP3    H110503   0.727   1.014   0.950 -0.8114  0.6713  0.7541
 3499TIP3    H210504   0.754   1.113   1.061  0.0632  1.2033  0.0736
 3500TIP3   OH210505   1.631   2.439   4.953 -0.2270  0.2470 -0.3383
 3500TIP3    H110506   1.572   2.491   5.008 -0.9985 -0.8592 -0.0942
 3500TIP3    H210507   1.702   2.413   5.011 -0.0818  0.6066 -0.3457
 3501TIP3   OH210508   0.744   3.073   0.916 -0.4780 -0.7060 -1.0363
 3501TIP3    H110509   0.687   3.115   0.980  1.5966 -0.9338  1.0995
 3501TIP3    H210510   0.723   3.116   0.833  0.0220  3.0723  0.5975
 3502TIP3   OH210511   0.537   4.274   4.394  0.1329  0.4880 -0.0117
 3502TIP3    H110512   0.515   4.204   4.333 -0.6613  0.7984 -0.0971
 3502TIP3    H210513   0.460   4.282   4.450  1.0433 -0.1469  1.3884
 3503TIP3   OH210514   1.820   2.643   1.784  0.4519 -0.3807  0.3473
 3503TIP3    H110515   1.862   2.712   1.732  0.5019 -0.7336 -0.0817
 3503TIP3    H210516   1.752   2.607   1.727 -1.4982  1.1829  1.5317
 3504TIP3   OH210517   5.248   0.556   1.066  0.5371  0.2335  0.1996
 3504TIP3    H110518   5.329   0.559   1.016  0.2100  0.9373 -0.3038
 3504TIP3    H210519   5.258   0.623   1.133 -0.4946  1.9255 -1.2536
 3505TIP3   OH210520   1.930   3.203   1.033  0.2321  0.2322 -0.1387
 3505TIP3    H110521   1.975   3.144   1.094  1.7353  0.7253 -0.7038
 3505TIP3    H210522   1.953   3.169   0.946 -1.4808 -0.1722 -0.4698
 3506TIP3   OH210523   6.190   4.954   2.901  0.0428  0.7373  0.1024
 3506TIP3    H110524   6.158   5.044   2.899  3.2025  1.9795 -0.9473
 3506TIP3    H210525   6.189   4.925   2.810 -0.0179  0.0733  0.3046
 3507TIP3   OH210526   1.813   2.043   2.734 -0.0922  0.0382 -0.3264
 3507TIP3    H110527   1.863   2.055   2.815 -1.4395 -0.4995  0.6447
 3507TIP3    H210528   1.878   2.047   2.664  1.0422  1.1502  0.7239
 3508TIP3   OH210529   6.174   2.252   3.903 -0.3693  0.7013  0.5289
 3508TIP3    H110530   6.267   2.233   3.918 -0.1872  0.8295 -0.3675
 3508TIP3    H210531   6.130   2.168   3.915 -0.0137  0.4386  0.0413
 3509TIP3   OH210532   4.425   2.278   0.880  0.0225 -0.4827  0.3037
 3509TIP3    H110533   4.441   2.190   0.845  1.0325 -0.2177  0.0589
 3509TIP3    H210534   4.348   2.268   0.936 -0.6594 -1.2495 -0.7280
 3510TIP3   OH210535   5.855   5.903   0.368 -0.4217 -0.7238  0.0284
 3510TIP3    H110536   5.778   5.943   0.329  0.2669  0.6521  0.0473
 3510TIP3    H210537   5.928   5.932   0.314  0.4501  0.5709  1.8067
 3511TIP3   OH210538   4.165   1.380   4.346 -0.3347 -0.4155 -0.1207
 3511TIP3    H110539   4.160   1.414   4.436  1.1202 -0.7761  0.1109
 3511TIP3    H210540   4.180   1.286   4.357 -0.7755 -0.5620 -0.7496
 3512TIP3   OH210541   3.662   1.109   3.707 -0.6798  0.2106  0.1229
 3512TIP3    H110542   3.670   1.203   3.695 -0.6901 -0.1235 -3.7775
 3512TIP3    H210543   3.708   1.071   3.633 -0.9511 -2.9028  1.3731
 3513TIP3   OH210544   2.524   1.712   1.805  0.6400 -0.0641  0.0294
 3513TIP3    H110545   2.562   1.647   1.865  1.6424  1.2455  0.8656
 3513TIP3    H210546   2.493   1.660   1.730  0.7277 -1.5743  0.9966
 3514TIP3   OH210547   1.636   3.751   3.077  0.5667 -0.2607 -0.4292
 3514TIP3    H110548   1.554   3.731   3.120 -0.1972  0.7188 -1.3618
 3514TIP3    H210549   1.635   3.847   3.066  3.6092  0.4025  3.0758
 3515TIP3   OH210550   4.705   2.408   1.457 -0.0957  0.3525 -0.4037
 3515TIP3    H110551   4.633   2.470   1.451 -0.5294  0.0658  1.3248
 3515TIP3    H210552   4.757   2.424   1.379 -0.6883  2.2678 -0.4554
 3516TIP3   OH210553   0.552   2.462   4.961 -0.5581 -0.0089  0.1669
 3516TIP3    H110554   0.469   2.467   4.915 -0.1116  0.9351 -0.5669
 3516TIP3    H210555   0.558   2.544   5.010  0.3985  0.4267 -0.6316
 3517TIP3   OH210556   3.880   5.051   0.633  0.1482 -0.2342  0.6364
 3517TIP3    H110557   3.913   5.023   0.548 -1.2524 -3.4060  1.0353
 3517TIP3    H210558   3.785   5.046   0.625 -0.0466  0.6402  2.0554
 3518TIP3   OH210559   4.866   3.461   4.597  0.2702  0.3413 -0.3280
 3518TIP3    H110560   4.798   3.394   4.598 -0.5966  1.1907  1.5124
 3518TIP3    H210561   4.851   3.512   4.676  1.6222  2.0031 -1.0753
 3519TIP3   OH210562   3.702   3.360   4.676 -0.2575 -0.5568 -0.3828
 3519TIP3    H110563   3.661   3.406   4.603 -2.5046  1.0349  1.6911
 3519TIP3    H210564   3.652   3.388   4.753  1.4827 -2.7022  1.7010
 3520TIP3   OH210565   4.933   2.986   0.467 -0.8011  0.1272  0.2898
 3520TIP3    H110566   4.900   3.073   0.492  0.4296  0.4172  0.9606
 3520TIP3    H210567   4.867   2.925   0.500 -2.2294  0.8287 -1.1188
 3521TIP3   OH210568   0.984   3.541   1.056 -0.0130 -0.4356  0.1167
 3521TIP3    H110569   0.982   3.472   1.122 -1.0974  1.7300  2.5051
 3521TIP3    H210570   0.921   3.513   0.990 -2.1806 -0.7664  2.1674
 3522TIP3   OH210571   2.996   2.950   5.001  0.7787 -0.7054  0.7201
 3522TIP3    H110572   3.083   2.961   5.039  0.1492  0.6416  1.9048
 3522TIP3    H210573   3.008   2.887   4.930  2.8856  0.2037  0.2051
 3523TIP3   OH210574   5.085   3.382   1.056 -0.0835  0.3936  0.0712
 3523TIP3    H110575   5.014   3.430   1.098 -1.4950 -0.8257 -0.8053
 3523TIP3    H210576   5.090   3.299   1.104  1.5771  0.9152  0.8701
 3524TIP3   OH210577   3.016   0.063   3.519 -0.5631 -0.1859  0.0691
 3524TIP3    H110578   2.974   0.147   3.503 -2.2514 -0.7791  1.1993
 3524TIP3    H210579   3.060   0.042   3.436 -2.3693  0.5421 -1.1274
 3525TIP3   OH210580   5.186   1.847   4.557 -0.0293 -0.0162 -0.1687
 3525TIP3    H110581   5.144   1.798   4.628  0.6234  0.9555  0.9330
 3525TIP3    H210582   5.256   1.789   4.527 -1.2584 -1.0721 -1.0958
 3526TIP3   OH210583   3.432   0.076   2.574 -0.7460  0.4654 -0.2123
 3526TIP3    H110584   3.527   0.082   2.578 -0.3059 -1.2850 -3.9343
 3526TIP3    H210585   3.407   0.034   2.657  1.7598  0.4387  0.6009
 3527TIP3   OH210586   3.295   3.328   1.859  0.3620  0.0395 -0.0317
 3527TIP3    H110587   3.248   3.336   1.943  0.4452  0.7390 -0.0502
 3527TIP3    H210588   3.355   3.254   1.872 -1.3003 -1.4323 -0.2769
 3528TIP3   OH210589   0.709   4.662   1.225  0.7653 -0.4212  0.2560
 3528TIP3    H110590   0.647   4.650   1.296  0.3998  0.3362  0.0744
 3528TIP3    H210591   0.684   4.597   1.159  0.5305 -0.5014  0.4238
 3529TIP3   OH210592   0.508   2.780   4.147 -0.4889 -0.1122  0.1011
 3529TIP3    H110593   0.420   2.766   4.181 -1.3530  1.6481 -1.2456
 3529TIP3    H210594   0.520   2.710   4.083 -0.3991 -1.0741  1.1370
 3530TIP3   OH210595   5.080   4.209   3.574 -0.3759  0.7530  0.1677
 3530TIP3    H110596   5.040   4.122   3.575 -0.4937  0.7967 -0.3790
 3530TIP3    H210597   5.090   4.232   3.666  1.1144 -0.5069  0.3525
 3531TIP3   OH210598   2.971   5.880   1.457 -0.0248  0.0698  0.0691
 3531TIP3    H110599   2.982   5.820   1.531 -2.1889 -1.5953 -0.8153
 3531TIP3    H210600   3.029   5.845   1.389  1.7000  1.3953  0.7863
 3532TIP3   OH210601   0.460   3.856   3.983  0.4461  0.5308 -0.0686
 3532TIP3    H110602   0.537   3.800   3.993 -0.4887 -0.8536 -0.2693
 3532TIP3    H210603   0.453   3.871   3.889  0.0095 -0.0427 -0.1321
 3533TIP3   OH210604   6.314   0.682   1.375 -0.2906 -0.5019  0.0966
 3533TIP3    H110605   6.308   0.609   1.437  1.6499 -1.5672 -0.8962
 3533TIP3    H210606   6.342   0.756   1.428  1.9179 -1.5368  0.4640
 3534TIP3   OH210607   1.352   3.397   3.387  0.2775  0.1813  0.3314
 3534TIP3    H110608   1.335   3.350   3.305  0.1115 -1.2285  1.1376
 3534TIP3    H210609   1.420   3.461   3.365  0.3751 -0.3037 -0.8493
 3535TIP3   OH210610   3.634   4.063   0.498 -1.0033  0.8301 -0.1662
 3535TIP3    H110611   3.607   4.080   0.588 -1.2902  0.4764 -0.1829
 3535TIP3    H210612   3.700   4.130   0.479  0.0347  0.0990  0.7630
 3536TIP3   OH210613   5.122   5.126   4.751  0.1674  0.5741 -0.0112
 3536TIP3    H110614   5.163   5.125   4.838 -1.2117  0.2391  0.6651
 3536TIP3    H210615   5.176   5.186   4.700  1.6751 -0.0912  0.7338
 3537TIP3   OH210616   2.162   0.173   4.645 -0.1917 -0.1796  0.3410
 3537TIP3    H110617   2.213   0.135   4.573  0.6108 -0.1362  0.8852
 3537TIP3    H210618   2.128   0.097   4.692 -0.0795 -0.2113  0.3709
 3538TIP3   OH210619   4.594   2.501   3.839  0.5556  0.5695  0.2130
 3538TIP3    H110620   4.597   2.541   3.925 -0.5203  1.8876 -0.3310
 3538TIP3    H210621   4.544   2.562   3.785  0.4317 -0.6472 -1.1263
 3539TIP3   OH210622   1.320   0.685   4.185 -0.2469  0.4689 -0.4433
 3539TIP3    H110623   1.225   0.682   4.192 -0.1252 -1.0605  3.3349
 3539TIP3    H210624   1.341   0.628   4.111 -2.2367  1.2335 -1.6563
 3540TIP3   OH210625   3.897   5.949   2.901  0.2046  0.4571 -0.2320
 3540TIP3    H110626   3.962   5.954   2.831  2.4101 -0.5242  1.6237
 3540TIP3    H210627   3.920   6.021   2.960  0.3176 -0.5811  1.0174
 3541TIP3   OH210628   4.122   5.047   3.135 -0.3066  0.6740  0.0808
 3541TIP3    H110629   4.171   5.081   3.060  0.9442  1.9736  1.4529
 3541TIP3    H210630   4.069   5.121   3.165 -0.1589  0.4048  1.0104
 3542TIP3   OH210631   4.160   1.957   3.911 -0.2851 -0.1266  0.0514
 3542TIP3    H110632   4.251   1.938   3.933 -0.5998 -0.2462  1.3485
 3542TIP3    H210633   4.161   1.976   3.817  1.0974  0.0322  0.0773
 3543TIP3   OH210634   2.240   1.304   3.734  0.1777 -0.0857 -0.5998
 3543TIP3    H110635   2.279   1.228   3.690  1.0744 -0.2343  0.4184
 3543TIP3    H210636   2.243   1.282   3.827  0.4836  1.2064 -0.2884
 3544TIP3   OH210637   0.201   2.793   1.345 -0.7951  0.1197  0.0790
 3544TIP3    H110638   0.116   2.825   1.376 -1.0594 -0.2621 -0.2379
 3544TIP3    H210639   0.179   2.733   1.273 -0.2314  0.5282 -0.4481
 3545TIP3   OH210640   2.761   5.901   3.867  0.1006 -0.2231  0.2483
 3545TIP3    H110641   2.825   5.846   3.911 -1.2018 -2.2435 -0.2128
 3545TIP3    H210642   2.683   5.895   3.921 -0.8436 -0.9529 -1.1164
 3546TIP3   OH210643   0.545   5.412   3.352  1.0649  0.3157  0.4052
 3546TIP3    H110644   0.600   5.358   3.295  0.4224  0.4337 -0.3475
 3546TIP3    H210645   0.568   5.385   3.440 -0.3712 -2.4049  0.0688
 3547TIP3   OH210646   3.830   4.023   0.875 -0.1214  0.1332 -0.1049
 3547TIP3    H110647   3.893   4.082   0.918  0.3955  1.7409 -2.8376
 3547TIP3    H210648   3.883   3.969   0.817 -0.7790 -2.1290  1.2687
 3548TIP3   OH210649   5.134   3.111   0.326 -0.1896  0.7875  0.0448
 3548TIP3    H110650   5.222   3.092   0.359 -0.0827 -0.1342 -0.7305
 3548TIP3    H210651   5.076   3.068   0.390  0.0272 -1.3039 -1.0615
 3549TIP3   OH210652   5.180   0.918   2.918  0.0694 -0.2116  0.1845
 3549TIP3    H110653   5.255   0.867   2.888 -1.6914 -2.2322 -1.0873
 3549TIP3    H210654   5.151   0.965   2.840  1.7881  3.1800  1.3618
 3550TIP3   OH210655   4.297   1.129   2.167  0.0620  0.6412  0.8279
 3550TIP3    H110656   4.336   1.183   2.097 -0.4858  0.6144  0.4991
 3550TIP3    H210657   4.353   1.051   2.170 -0.4702  0.1928 -0.2578
 3551TIP3   OH210658   2.440   4.572   3.407 -0.0478  0.1144 -0.0402
 3551TIP3    H110659   2.469   4.532   3.488  0.0232  0.3933  0.0721
 3551TIP3    H210660   2.511   4.631   3.382  0.4579 -0.8246 -0.9208
 3552TIP3   OH210661   3.332   5.867   0.590  0.5326  0.4032 -0.4520
 3552TIP3    H110662   3.354   5.859   0.683 -2.7812  0.8585  0.5000
 3552TIP3    H210663   3.317   5.777   0.561  0.3988  0.3561 -0.2349
 3553TIP3   OH210664   6.033   5.222   4.662 -0.0054  0.6731 -0.1998
 3553TIP3    H110665   6.018   5.276   4.739  2.5275 -0.7491  1.4455
 3553TIP3    H210666   6.034   5.283   4.588 -3.1693  1.9871  0.7067
 3554TIP3   OH210667   2.852   1.554   4.425  0.0493 -0.7955 -0.5288
 3554TIP3    H110668   2.776   1.581   4.373 -0.5731 -0.0397  0.7368
 3554TIP3    H210669   2.819   1.483   4.480  0.2543 -0.4562  0.0319
 3555TIP3   OH210670   1.667   4.644   2.545 -0.2013 -0.1813  0.4623
 3555TIP3    H110671   1.695   4.707   2.479  0.0995  0.5687  1.2802
 3555TIP3    H210672   1.572   4.655   2.549 -0.1752  0.0732  0.4415
 3556TIP3   OH210673   4.055   0.640   0.116 -0.2893  0.0548 -0.7762
 3556TIP3    H110674   4.022   0.555   0.088 -0.8550  0.4486 -1.3583
 3556TIP3    H210675   4.008   0.703   0.060  0.4419  0.7195 -0.6614
 3557TIP3   OH210676   1.350   1.477   4.189 -0.5486 -0.4791  0.2935
 3557TIP3    H110677   1.417   1.519   4.135 -0.1610 -1.1962  0.2029
 3557TIP3    H210678   1.268   1.519   4.163 -0.0412  1.0572  1.0533
 3558TIP3   OH210679   0.763   4.563   0.303 -0.0467 -0.3511 -0.2714
 3558TIP3    H110680   0.679   4.602   0.279  0.7369  1.2914 -0.5395
 3558TIP3    H210681   0.792   4.613   0.380  1.7961  0.8530 -1.6527
 3559TIP3   OH210682   1.387   3.190   2.736  0.8788 -0.4117  0.6151
 3559TIP3    H110683   1.398   3.224   2.648 -0.6169  0.8876  0.8737
 3559TIP3    H210684   1.460   3.227   2.786  2.5036 -2.2268 -0.3133
 3560TIP3   OH210685   5.930   3.783   3.441  0.2771  0.3201  0.0086
 3560TIP3    H110686   5.923   3.821   3.528 -0.9070 -0.9098  0.4868
 3560TIP3    H210687   5.961   3.855   3.385  0.1394  1.3709  1.2472
 3561TIP3   OH210688   1.846   2.727   2.713 -0.4088  0.2637 -0.0939
 3561TIP3    H110689   1.858   2.810   2.758  1.2606 -0.7911  1.5356
 3561TIP3    H210690   1.858   2.748   2.620  1.6310  1.5824  0.4118
 3562TIP3   OH210691   4.391   4.960   2.857  0.4150 -0.0975  0.1523
 3562TIP3    H110692   4.402   4.885   2.915 -0.0896 -2.1901 -2.2685
 3562TIP3    H210693   4.303   4.950   2.821  0.8423  0.8491 -1.2617
 3563TIP3   OH210694   1.208   0.245   2.206  0.1011 -0.0121 -0.0639
 3563TIP3    H110695   1.278   0.179   2.214 -0.8716 -1.6253 -3.0119
 3563TIP3    H210696   1.246   0.312   2.149 -0.3442 -0.3018 -0.7099
 3564TIP3   OH210697   6.154   4.577   3.846  0.0390 -0.0662  0.6043
 3564TIP3    H110698   6.100   4.503   3.874 -0.9817  0.9593  1.4655
 3564TIP3    H210699   6.194   4.548   3.764 -0.9053 -1.2967  0.5484
 3565TIP3   OH210700   4.582   2.020   0.074 -0.0288 -0.0152 -0.1250
 3565TIP3    H110701   4.488   2.009   0.087  0.1188 -0.3947  0.6813
 3565TIP3    H210702   4.619   2.019   0.162  0.7117  0.3612 -0.4170
 3566TIP3   OH210703   1.055   0.043   3.471  0.1417 -0.3774  0.0666
 3566TIP3    H110704   1.037   0.122   3.420  2.1579  0.2481  0.2310
 3566TIP3    H210705   1.088   0.075   3.555  2.6484 -1.2857 -0.4669
 3567TIP3   OH210706   3.158   2.976   2.823  0.3237  0.4167  0.0016
 3567TIP3    H110707   3.165   2.907   2.889 -0.9390  0.6591  0.4369
 3567TIP3    H210708   3.064   2.981   2.805  0.7290 -0.9543 -3.2618
 3568TIP3   OH210709   5.738   1.799   3.688  0.6183  0.0161 -0.1317
 3568TIP3    H110710   5.671   1.822   3.623  0.2666 -1.6981 -0.4439
 3568TIP3    H210711   5.697   1.729   3.739  1.5850  0.0784  0.7482
 3569TIP3   OH210712   3.464  -0.005   3.495 -0.2448  0.0348 -0.5529
 3569TIP3    H110713   3.515   0.066   3.535 -1.2743 -0.6275  2.1307
 3569TIP3    H210714   3.530  -0.060   3.452  1.0947  0.2635  1.1128
 3570TIP3   OH210715   3.932   3.910   2.499 -0.3298 -0.0564 -0.4469
 3570TIP3    H110716   3.842   3.878   2.495 -0.4509  0.0209  0.9747
 3570TIP3    H210717   3.982   3.846   2.449 -0.7959 -1.6609  1.0233
 3571TIP3   OH210718   2.561   5.271   1.744 -0.3665  0.2961 -0.0125
 3571TIP3    H110719   2.492   5.220   1.786  0.3761 -1.4164 -0.7816
 3571TIP3    H210720   2.515   5.331   1.686 -1.2560 -0.0440  0.3329
 3572TIP3   OH210721   0.271   3.923   1.861  0.2965 -0.5084  0.1335
 3572TIP3    H110722   0.242   3.985   1.928  0.5223  0.5180 -0.7016
 3572TIP3    H210723   0.361   3.903   1.885  0.8906  1.0393 -0.6860
 3573TIP3   OH210724   2.592   3.483   1.838  0.3656 -0.4421  0.0865
 3573TIP3    H110725   2.563   3.555   1.894 -1.1633 -2.6766  2.3869
 3573TIP3    H210726   2.678   3.459   1.871 -0.1010 -1.0977  0.8614
 3574TIP3   OH210727   2.730   3.943   1.281 -0.1145 -0.8614  0.0339
 3574TIP3    H110728   2.647   3.985   1.258 -1.0569 -1.4565  2.1158
 3574TIP3    H210729   2.741   3.875   1.215 -1.6327 -1.1803  0.0717
 3575TIP3   OH210730   4.700   0.998   3.093  0.0960  0.2582  0.4268
 3575TIP3    H110731   4.664   1.031   3.010  1.4887 -0.7581 -0.6331
 3575TIP3    H210732   4.788   1.036   3.097  0.4568 -0.6138  0.8767
 3576TIP3   OH210733   0.338   5.303   3.733 -0.1487  0.2226  0.0481
 3576TIP3    H110734   0.301   5.343   3.811 -1.1136 -1.0505  0.2668
 3576TIP3    H210735   0.341   5.374   3.669  0.5188  1.2476  1.1589
 3577TIP3   OH210736   5.051   5.833   1.551  0.2267  0.1470 -0.2788
 3577TIP3    H110737   5.073   5.757   1.605  0.2005  0.8622  0.7618
 3577TIP3    H210738   5.081   5.809   1.463  0.7617 -0.8260  0.1495
 3578TIP3   OH210739   2.966   2.463   4.359  0.0003  0.2701  0.3001
 3578TIP3    H110740   2.953   2.403   4.433 -1.2900  0.1498 -0.0089
 3578TIP3    H210741   2.913   2.539   4.381 -3.3356 -1.1515 -2.0437
 3579TIP3   OH210742   4.477   4.924   1.088  0.2059  0.0914 -0.0453
 3579TIP3    H110743   4.382   4.914   1.098  0.0199  1.4900 -0.2285
 3579TIP3    H210744   4.505   4.847   1.040 -0.1991 -2.4830  3.4413
 3580TIP3   OH210745   4.769   0.996   3.594  0.4057  0.1051  0.3991
 3580TIP3    H110746   4.804   1.084   3.576 -0.0797  0.4057  0.8737
 3580TIP3    H210747   4.814   0.939   3.533 -0.3382  0.9016 -0.9491
 3581TIP3   OH210748   0.061   3.922   4.302  0.2067 -0.0169  0.1758
 3581TIP3    H110749   0.110   3.893   4.226 -0.0153  0.6363 -0.2196
 3581TIP3    H210750   0.015   3.843   4.333  1.3649 -0.5960  0.4633
 3582TIP3   OH210751   3.826   3.375   0.138 -0.1981 -0.4449 -0.6135
 3582TIP3    H110752   3.825   3.459   0.092 -0.3623  0.5388  1.0934
 3582TIP3    H210753   3.738   3.366   0.175  0.2515 -0.6062  0.4682
 3583TIP3   OH210754   0.330   1.415   4.256  0.4299 -0.7456  0.1538
 3583TIP3    H110755   0.340   1.509   4.245 -0.1614 -0.7387 -0.3537
 3583TIP3    H210756   0.420   1.381   4.254  0.5454 -0.4520 -2.0827
 3584TIP3   OH210757   1.374   0.834   4.748  0.4901 -0.1208 -0.5083
 3584TIP3    H110758   1.308   0.807   4.812 -0.0195 -0.0058 -0.9798
 3584TIP3    H210759   1.434   0.888   4.799 -2.4454  4.0553 -0.9087
 3585TIP3   OH210760   0.092   4.316   0.865 -0.5043  0.5707  0.2251
 3585TIP3    H110761   0.098   4.244   0.928 -4.4603 -1.4748 -1.4172
 3585TIP3    H210762   0.009   4.359   0.886 -0.7891  1.2891 -2.1427
 3586TIP3   OH210763   1.447   5.362   1.145 -0.2992 -0.1156  0.2932
 3586TIP3    H110764   1.399   5.436   1.182 -2.1961 -0.6384 -0.9659
 3586TIP3    H210765   1.463   5.387   1.054 -0.6830 -1.1238 -0.0588
 3587TIP3   OH210766   3.836   1.030   2.538  0.2939 -0.4311 -0.4336
 3587TIP3    H110767   3.866   1.005   2.451  0.5999  0.8889 -0.7271
 3587TIP3    H210768   3.874   1.116   2.553 -1.3023  0.2013  0.2167
 3588TIP3   OH210769   3.074   0.956   0.171  0.1843  0.9204 -0.1369
 3588TIP3    H110770   3.094   0.863   0.167 -0.9722  0.6709 -0.4987
 3588TIP3    H210771   3.149   0.995   0.216  0.1906 -0.3436  1.0093
 3589TIP3   OH210772   0.488   1.409   1.918 -0.3429 -0.1322 -0.1910
 3589TIP3    H110773   0.499   1.472   1.846  0.9868  0.4095  0.4346
 3589TIP3    H210774   0.564   1.351   1.910 -1.3468 -1.4197 -0.5129
 3590TIP3   OH210775   0.784   5.030   1.434  0.3508  0.2344 -0.2410
 3590TIP3    H110776   0.813   4.970   1.503  1.2885  1.3887  0.3897
 3590TIP3    H210777   0.755   5.109   1.480 -0.4487  0.4642 -1.0907
 3591TIP3   OH210778   0.771   4.990   2.558 -0.0873 -0.1043 -0.0959
 3591TIP3    H110779   0.683   5.010   2.592  1.0043  1.7905  1.8253
 3591TIP3    H210780   0.777   5.042   2.478 -0.5613  0.0927 -0.0116
 3592TIP3   OH210781   5.404   3.239   0.403  0.3584  0.3347  0.5081
 3592TIP3    H110782   5.454   3.321   0.409  0.2420  0.5333 -0.8538
 3592TIP3    H210783   5.315   3.264   0.427  0.4926  0.4147  0.9395
 3593TIP3   OH210784   2.184   1.135   4.632  0.6343 -0.4064 -0.8415
 3593TIP3    H110785   2.222   1.210   4.677 -0.7127 -0.2528  0.1269
 3593TIP3    H210786   2.158   1.075   4.703 -1.2166 -0.3213 -1.3843
 3594TIP3   OH210787   4.831   4.930   2.187  0.8204 -0.5230  0.0334
 3594TIP3    H110788   4.800   5.008   2.232 -0.1023 -0.6517 -0.3607
 3594TIP3    H210789   4.752   4.879   2.169  1.1052 -0.2949 -2.0987
 3595TIP3   OH210790   5.562   2.859   1.203  0.0719  0.1799 -0.3446
 3595TIP3    H110791   5.523   2.775   1.228  3.4863 -1.1704  0.9767
 3595TIP3    H210792   5.562   2.911   1.284 -1.3480  1.2533 -0.9853
 3596TIP3   OH210793   0.235   5.435   3.004  0.5322 -0.4360 -0.2710
 3596TIP3    H110794   0.234   5.404   3.095  0.0533 -0.6390 -0.3411
 3596TIP3    H210795   0.180   5.372   2.957 -0.2898  0.4037 -0.4601
 3597TIP3   OH210796   2.209   2.216   0.585  0.1540  0.6311 -0.0543
 3597TIP3    H110797   2.226   2.153   0.654 -0.5594  1.2455  0.7060
 3597TIP3    H210798   2.248   2.298   0.617 -1.5530  1.3241  0.3849
 3598TIP3   OH210799   3.629   1.275   2.376 -0.7002  0.1989  0.1337
 3598TIP3    H110800   3.717   1.266   2.414 -0.3654  2.2236 -0.0804
 3598TIP3    H210801   3.628   1.362   2.338 -1.4422 -1.2198 -3.4853
 3599TIP3   OH210802   4.191   4.084   3.809 -0.7070 -0.6053  0.3096
 3599TIP3    H110803   4.136   4.084   3.887 -2.7188  0.4450 -0.9995
 3599TIP3    H210804   4.149   4.022   3.750 -1.1160  0.9100 -1.0797
 3600TIP3   OH210805   2.270   3.212   3.397  0.4397  0.6429  0.8263
 3600TIP3    H110806   2.308   3.265   3.326 -0.0320  1.0697  0.8845
 3600TIP3    H210807   2.337   3.212   3.465  0.5657  0.9283  0.7062
 3601TIP3   OH210808   2.433   4.879   4.909  0.0444  0.2046  0.8213
 3601TIP3    H110809   2.493   4.825   4.858 -0.2104  0.1012  0.6254
 3601TIP3    H210810   2.439   4.966   4.869 -0.2612  0.0896  0.5186
 3602TIP3   OH210811   1.531   2.793   0.493 -0.1210 -0.0725 -0.6549
 3602TIP3    H110812   1.623   2.816   0.488 -0.2989  0.4635 -1.9564
 3602TIP3    H210813   1.486   2.861   0.443 -1.3599  0.3378  0.9124
 3603TIP3   OH210814   0.895   0.814   0.804 -0.0176  0.1007  0.2012
 3603TIP3    H110815   0.880   0.779   0.891  0.9865 -0.8787 -0.0063
 3603TIP3    H210816   0.985   0.789   0.782  0.1948  1.4417 -0.6022
 3604TIP3   OH210817   1.825   3.637   2.007  0.3038 -0.1027 -0.2100
 3604TIP3    H110818   1.889   3.608   1.941 -0.6326  0.1588 -1.2739
 3604TIP3    H210819   1.786   3.715   1.969 -0.6400 -0.2567  0.4289
 3605TIP3   OH210820   4.225   2.232   1.881  0.3049  0.2001  0.1243
 3605TIP3    H110821   4.239   2.326   1.864  1.3518 -0.1030 -0.8446
 3605TIP3    H210822   4.274   2.215   1.962 -1.2526  0.8003  1.2426
 3606TIP3   OH210823   2.863   4.240   0.463 -0.2835  0.0773 -0.2433
 3606TIP3    H110824   2.862   4.309   0.397 -0.2019  0.2938 -0.0195
 3606TIP3    H210825   2.814   4.168   0.423  0.5172 -0.1232 -0.8831
 3607TIP3   OH210826   2.429   4.142   3.426 -0.7617 -0.1433  0.0728
 3607TIP3    H110827   2.429   4.074   3.493  1.2780 -1.8562 -1.5491
 3607TIP3    H210828   2.395   4.099   3.348 -0.6389  1.0692 -0.6756
 3608TIP3   OH210829   6.336   3.545   4.639 -0.0577 -0.0098  0.0325
 3608TIP3    H110830   6.400   3.510   4.577  0.6779 -1.0330  1.3168
 3608TIP3    H210831   6.253   3.543   4.591  0.6719  0.3843 -1.3153
 3609TIP3   OH210832   4.817   1.421   4.888 -0.5188  0.5403 -0.2034
 3609TIP3    H110833   4.757   1.490   4.861 -0.5484 -0.3091 -2.4969
 3609TIP3    H210834   4.771   1.340   4.869  0.6095 -0.1191 -0.2320
 3610TIP3   OH210835   5.265   2.570   4.552 -0.1642  0.0634  0.6203
 3610TIP3    H110836   5.233   2.646   4.602  2.3030  1.5216  0.1629
 3610TIP3    H210837   5.324   2.525   4.613  0.9520  0.4602 -0.1256
 3611TIP3   OH210838   3.693   5.252   3.182 -0.2696  0.4665 -0.3370
 3611TIP3    H110839   3.621   5.193   3.203  0.7847 -1.1107 -0.9355
 3611TIP3    H210840   3.661   5.304   3.108 -1.3367  0.9292  0.4153
 3612TIP3   OH210841   0.938   1.671   0.147 -0.2584  0.1418 -0.3731
 3612TIP3    H110842   0.992   1.717   0.083 -2.1639  1.0646 -1.4081
 3612TIP3    H210843   0.907   1.739   0.206 -0.3023 -0.3754  0.2194
 3613TIP3   OH210844   4.537   1.814   1.818 -0.0294  0.1339 -0.2063
 3613TIP3    H110845   4.449   1.846   1.797 -0.1880  0.3847  0.8225
 3613TIP3    H210846   4.596   1.878   1.778 -0.3121  0.0101 -0.8301
 3614TIP3   OH210847   4.161   4.578   3.936 -0.4479  0.2389  0.2351
 3614TIP3    H110848   4.110   4.503   3.964 -0.7041  0.9055  1.6462
 3614TIP3    H210849   4.252   4.547   3.935 -0.4210  0.1663  1.8768
 3615TIP3   OH210850   1.022   2.899   4.501  0.0702  1.2733  0.1874
 3615TIP3    H110851   1.027   2.912   4.595  1.0882  0.3747  0.2764
 3615TIP3    H210852   1.091   2.836   4.482 -1.1102  0.2596 -0.9388
 3616TIP3   OH210853   5.044   5.768   3.753 -0.2732 -0.3770  0.3261
 3616TIP3    H110854   4.983   5.841   3.741  0.8367  0.6662  0.7480
 3616TIP3    H210855   5.099   5.770   3.674 -0.0240 -0.5322  0.4937
 3617TIP3   OH210856   0.355   2.351   1.189 -0.1015 -0.3241  0.3314
 3617TIP3    H110857   0.280   2.305   1.227 -0.5211  0.2568  0.2171
 3617TIP3    H210858   0.320   2.435   1.159  0.2991 -0.5998 -0.9880
 3618TIP3   OH210859   1.153   5.965   0.215  0.3913  0.5277  0.2315
 3618TIP3    H110860   1.061   5.989   0.228  0.5388  1.8855 -1.0801
 3618TIP3    H210861   1.154   5.869   0.223 -1.0842  0.5192  0.5319
 3619TIP3   OH210862   2.773   3.004   1.315 -0.1191  0.1009 -0.0963
 3619TIP3    H110863   2.744   2.928   1.366 -0.3629  0.5221  0.3978
 3619TIP3    H210864   2.713   3.006   1.241  0.5331 -0.7978 -0.6723
 3620TIP3   OH210865   5.248   4.016   0.057 -0.1462 -0.2117  0.2611
 3620TIP3    H110866   5.196   3.942   0.087  0.8898 -0.9786  0.2109
 3620TIP3    H210867   5.257   4.003  -0.038 -0.6493  0.4315  0.1154
 3621TIP3   OH210868   1.928   4.170   1.371 -0.4736  0.2884 -0.0229
 3621TIP3    H110869   1.959   4.247   1.323  1.4581 -0.7070 -0.4747
 3621TIP3    H210870   1.842   4.152   1.334  0.6101  0.0181 -2.6440
 3622TIP3   OH210871   5.228   5.761   1.362 -0.4246 -0.7875 -0.0743
 3622TIP3    H110872   5.206   5.760   1.269 -0.2673  0.6344 -0.1607
 3622TIP3    H210873   5.320   5.734   1.365 -0.4838 -1.0181 -0.3083
 3623TIP3   OH210874   6.121   1.934   4.529 -0.1547 -0.1650 -0.1249
 3623TIP3    H110875   6.067   1.874   4.477 -0.3465 -0.7604  0.7448
 3623TIP3    H210876   6.198   1.951   4.474 -0.4016 -0.7097 -0.6420
 3624TIP3   OH210877   0.432   2.950   2.217  0.2258 -0.4955 -0.1552
 3624TIP3    H110878   0.355   2.998   2.184  0.4276  0.6591  0.9616
 3624TIP3    H210879   0.436   2.972   2.310  0.6328 -2.3394  0.3011
 3625TIP3   OH210880   5.044   0.827   2.199  0.2398 -0.3637  0.1768
 3625TIP3    H110881   5.086   0.743   2.214 -0.3112 -0.7918 -0.6038
 3625TIP3    H210882   4.958   0.804   2.163  0.0334  0.5265  0.0892
 3626TIP3   OH210883   2.340   4.749   0.944 -0.3249  0.0996 -0.1986
 3626TIP3    H110884   2.303   4.836   0.928 -2.4459 -1.0699 -2.2433
 3626TIP3    H210885   2.363   4.750   1.037 -2.6562  2.0520  0.4657
 3627TIP3   OH210886   0.606   3.537   3.666  0.1991 -0.4038  0.2841
 3627TIP3    H110887   0.568   3.624   3.673 -0.6070 -0.8312  1.6187
 3627TIP3    H210888   0.538   3.478   3.699  0.2528 -1.6874 -1.7556
 3628TIP3   OH210889   5.914   4.832   2.314 -0.4385 -0.3710  0.0629
 3628TIP3    H110890   5.958   4.749   2.333  0.7361  0.4314  0.9540
 3628TIP3    H210891   5.969   4.873   2.247  0.3446  0.7471  1.3543
 3629TIP3   OH210892   3.697   5.084   1.826 -0.1910  0.4675  0.4129
 3629TIP3    H110893   3.724   5.170   1.792 -2.4570  0.5160 -1.4622
 3629TIP3    H210894   3.617   5.102   1.875 -1.0354 -0.6389 -0.5327
 3630TIP3   OH210895   1.554   0.636   2.086  0.3037  0.8080 -0.1040
 3630TIP3    H110896   1.567   0.552   2.042 -0.6295 -0.5270  2.0072
 3630TIP3    H210897   1.486   0.619   2.150  2.9452  1.9899  3.3464
 3631TIP3   OH210898   2.372   2.875   1.534  0.9042 -0.5280  0.2095
 3631TIP3    H110899   2.406   2.950   1.485  0.0813 -0.9217 -1.0039
 3631TIP3    H210900   2.387   2.898   1.626  0.9139  1.0154 -0.1478
 3632TIP3   OH210901   1.659   2.212   4.780 -0.1398 -0.5623  0.2076
 3632TIP3    H110902   1.642   2.289   4.833 -1.1620 -1.0200  0.5605
 3632TIP3    H210903   1.673   2.142   4.843 -0.2152 -0.8756 -0.1207
 3633TIP3   OH210904   3.930   3.135   4.537  0.4872  0.5762 -1.0660
 3633TIP3    H110905   3.999   3.171   4.593  3.0368 -2.1327 -2.1805
 3633TIP3    H210906   3.856   3.121   4.595  2.1266  0.2343  1.0638
 3634TIP3   OH210907   2.901   3.561   4.044 -0.2671  0.5559 -1.0836
 3634TIP3    H110908   2.990   3.571   4.009 -0.0418  0.2455 -0.6055
 3634TIP3    H210909   2.873   3.651   4.061  0.5344  0.5929  0.1767
 3635TIP3   OH210910   3.017   4.945   4.543  0.0535  0.0739 -0.3484
 3635TIP3    H110911   3.078   4.922   4.613 -2.0239 -3.8127  0.4796
 3635TIP3    H210912   3.073   4.956   4.466  1.9893 -1.3704  0.7474
 3636TIP3   OH210913   2.542   0.752   4.270 -0.0821 -0.0828  0.4301
 3636TIP3    H110914   2.456   0.774   4.305 -0.7539  0.0808 -1.2160
 3636TIP3    H210915   2.560   0.664   4.301 -0.0480  0.5174  2.1979
 3637TIP3   OH210916   1.814   0.081   1.533  0.3794 -0.4435  0.1688
 3637TIP3    H110917   1.801   0.042   1.446 -0.1493 -1.0983  0.5293
 3637TIP3    H210918   1.874   0.020   1.577  0.6654 -0.1010  0.2574
 3638TIP3   OH210919   4.379   2.640   4.279 -0.2908 -0.2119  0.0854
 3638TIP3    H110920   4.429   2.690   4.343 -0.0195 -1.0439  0.5320
 3638TIP3    H210921   4.433   2.640   4.201  0.1648 -0.6427  0.3944
 3639TIP3   OH210922   3.233   2.518   0.404 -0.4357  1.0344 -0.4077
 3639TIP3    H110923   3.157   2.539   0.458 -0.1617  1.2735 -0.1109
 3639TIP3    H210924   3.304   2.570   0.442 -0.1117  0.7686 -0.6485
 3640TIP3   OH210925   5.887   0.435   4.555 -0.7523  0.3021 -0.6724
 3640TIP3    H110926   5.870   0.500   4.623  0.3361  0.4830 -0.5448
 3640TIP3    H210927   5.939   0.482   4.490  2.5445 -1.0382  0.7422
 3641TIP3   OH210928   2.405   5.991   4.990  0.2052 -0.2646 -0.3276
 3641TIP3    H110929   2.365   5.927   4.930  0.7409  0.8720 -1.9675
 3641TIP3    H210930   2.493   6.005   4.955  0.4881  0.5602  0.6642
 3642TIP3   OH210931   4.658   1.117   1.133 -0.1892 -0.1422  0.0930
 3642TIP3    H110932   4.656   1.188   1.197  0.6269 -0.2967  0.2938
 3642TIP3    H210933   4.703   1.154   1.058  0.3649 -0.4884  0.2518
 3643TIP3   OH210934   5.652   2.484   3.905  0.2095 -0.2179 -0.4425
 3643TIP3    H110935   5.738   2.445   3.889  1.0289  1.5414 -0.5031
 3643TIP3    H210936   5.590   2.415   3.881  1.5820 -1.4377 -0.6447
 3644TIP3   OH210937   0.830   5.484   2.938 -0.4872  0.5601  0.1426
 3644TIP3    H110938   0.793   5.571   2.925  0.8119  1.0210 -0.7365
 3644TIP3    H210939   0.902   5.479   2.875 -0.9376 -1.4151 -0.2993
 3645TIP3   OH210940   0.832   4.404   3.712 -0.4562 -0.1530  0.2762
 3645TIP3    H110941   0.776   4.472   3.676 -0.3494  0.0729  0.5325
 3645TIP3    H210942   0.870   4.443   3.790  2.4981  0.8013 -1.5163
 3646TIP3   OH210943   4.791   1.525   3.622  0.1509  0.4661 -0.0336
 3646TIP3    H110944   4.796   1.595   3.557  0.9842  1.2911  0.8695
 3646TIP3    H210945   4.713   1.546   3.673  0.8302  1.2246  0.7326
 3647TIP3   OH210946   0.572   1.732   4.945  0.7259 -0.0815  0.3070
 3647TIP3    H110947   0.562   1.786   4.867  0.7301 -0.8352 -0.2286
 3647TIP3    H210948   0.538   1.646   4.919  0.1694 -0.1875  1.3195
 3648TIP3   OH210949   4.802   2.923   4.810  0.0710  0.3771 -0.1584
 3648TIP3    H110950   4.714   2.957   4.794 -0.8005 -2.4455 -1.9773
 3648TIP3    H210951   4.851   2.999   4.841 -2.9045  2.1102  0.7205
 3649TIP3   OH210952   1.929   0.189   3.207 -0.6656 -0.0016  0.1457
 3649TIP3    H110953   1.903   0.265   3.258 -2.4082 -1.7295  2.0488
 3649TIP3    H210954   1.849   0.160   3.163  0.1193 -0.3421 -1.1081
 3650TIP3   OH210955   0.970   2.259   4.934  0.1344 -0.0724 -0.0398
 3650TIP3    H110956   0.980   2.175   4.887 -0.2858  0.1374 -0.5155
 3650TIP3    H210957   0.992   2.325   4.868 -0.3229  0.2229  0.0993
 3651TIP3   OH210958   0.305   0.811   0.403 -0.1000  0.0414 -0.2904
 3651TIP3    H110959   0.235   0.779   0.459 -0.0425 -1.1433 -0.8642
 3651TIP3    H210960   0.357   0.869   0.459 -1.5125  0.9355  0.1474
 3652TIP3   OH210961   6.027   4.071   0.092 -0.0711  0.2377  0.6493
 3652TIP3    H110962   6.087   4.090   0.164  0.2904  1.0346  0.1545
 3652TIP3    H210963   6.081   4.027   0.026 -0.1668  0.4280  0.4437
 3653TIP3   OH210964   1.605   1.382   3.304  0.0260 -0.1341  0.3246
 3653TIP3    H110965   1.514   1.353   3.305 -0.3834  1.0937  0.6271
 3653TIP3    H210966   1.600   1.477   3.317  1.3805 -0.1236  0.9100
 3654TIP3   OH210967   1.666   2.569   1.307 -0.4557  0.1959 -0.2659
 3654TIP3    H110968   1.686   2.494   1.251  0.0616  0.0869  0.0571
 3654TIP3    H210969   1.752   2.603   1.333 -0.6730  1.1264 -0.7070
 3655TIP3   OH210970   4.609   5.597   0.593  0.5377  0.8522 -0.0563
 3655TIP3    H110971   4.555   5.665   0.632  0.6050  0.6025  0.4757
 3655TIP3    H210972   4.653   5.555   0.667 -1.4802 -1.5136 -0.0733
 3656TIP3   OH210973   5.568   1.799   5.132  0.1424  0.0556 -0.0364
 3656TIP3    H110974   5.621   1.823   5.208  0.2621  0.6306 -0.2932
 3656TIP3    H210975   5.622   1.823   5.056  0.1344 -0.7468 -0.3140
 3657TIP3   OH210976   2.886   3.915   2.215 -0.0123 -0.0913  0.2976
 3657TIP3    H110977   2.952   3.880   2.156  0.9263 -0.9217  1.7563
 3657TIP3    H210978   2.870   3.843   2.277  1.2755  1.6516  2.8474
 3658TIP3   OH210979   3.158   2.567   3.158 -0.6575 -0.8838  0.2376
 3658TIP3    H110980   3.073   2.528   3.138 -0.2171 -1.8457  0.2126
 3658TIP3    H210981   3.221   2.517   3.106 -0.3132  1.5125 -1.9167
 3659TIP3   OH210982   3.965   1.293   2.520  0.5203  0.1264  0.9180
 3659TIP3    H110983   3.965   1.326   2.610  0.5259 -0.0114  0.9702
 3659TIP3    H210984   3.960   1.371   2.465  0.2916  0.2008  1.0426
 3660TIP3   OH210985   5.738   4.384   2.816 -0.1218 -0.2746 -0.1026
 3660TIP3    H110986   5.810   4.434   2.854 -0.9197  0.6449  0.2403
 3660TIP3    H210987   5.660   4.421   2.856 -0.8842 -0.3840 -1.4370
 3661TIP3   OH210988   4.107   2.204   1.180  0.1896 -0.0015 -0.1450
 3661TIP3    H110989   4.058   2.155   1.245 -0.6643  1.3075  0.2509
 3661TIP3    H210990   4.103   2.295   1.211 -0.8781  0.7841 -2.3515
 3662TIP3   OH210991   3.121   5.046   0.325  0.2590 -0.6752  0.4911
 3662TIP3    H110992   3.122   4.950   0.333  2.2436 -0.6324  1.4182
 3662TIP3    H210993   3.084   5.076   0.408  0.1538 -0.6109  0.4215
 3663TIP3   OH210994   0.060   3.814   4.743 -0.3244 -0.2623  0.3172
 3663TIP3    H110995   0.010   3.742   4.707 -0.4446 -1.2009  2.2167
 3663TIP3    H210996   0.148   3.778   4.756  0.9343  1.3098 -2.8339
 3664TIP3   OH210997   0.367   2.980   4.474 -0.2159 -0.1247 -0.3244
 3664TIP3    H110998   0.367   2.976   4.570  0.0585 -0.1213 -0.3225
 3664TIP3    H210999   0.413   3.062   4.454 -0.2682 -0.1284 -0.4595
 3665TIP3   OH211000   2.316   5.007   3.644 -0.4853  0.1828  0.1848
 3665TIP3    H111001   2.309   4.912   3.634  0.4019  0.0424  0.7762
 3665TIP3    H211002   2.327   5.039   3.555 -1.0004 -0.2467 -0.0396
 3666TIP3   OH211003   0.585   1.611   1.162 -0.1004  0.0791  0.3165
 3666TIP3    H111004   0.521   1.567   1.105  0.2761 -0.0260 -0.0308
 3666TIP3    H211005   0.534   1.678   1.207 -0.5714 -0.3675  0.4591
 3667TIP3   OH211006   2.273   4.104   2.723 -0.5627  0.0423  0.1892
 3667TIP3    H111007   2.191   4.096   2.675 -1.3715  1.5646  1.2322
 3667TIP3    H211008   2.252   4.158   2.799  1.5051  0.8735  0.2630
 3668TIP3   OH211009   5.726   2.131   0.239 -0.1085  0.1181 -0.3292
 3668TIP3    H111010   5.798   2.138   0.176  1.5673 -0.4596  1.4248
 3668TIP3    H211011   5.739   2.206   0.298 -1.4166  0.4237 -0.3999
 3669TIP3   OH211012   1.676   1.891   4.024  0.1002 -0.0176 -0.3398
 3669TIP3    H111013   1.710   1.854   4.105  2.2467  1.4659 -0.4997
 3669TIP3    H211014   1.713   1.836   3.955  1.0028  0.7079 -0.4460
 3670TIP3   OH211015   5.772   2.604   2.521  0.0655 -0.0923  0.0239
 3670TIP3    H111016   5.763   2.693   2.487  0.2843 -0.6308 -1.5346
 3670TIP3    H211017   5.726   2.549   2.457 -1.7730 -0.9476  1.9640
 3671TIP3   OH211018   5.704   0.248   0.491  0.3534  0.3818 -0.8826
 3671TIP3    H111019   5.799   0.243   0.480  1.2054  0.5962  4.0340
 3671TIP3    H211020   5.678   0.158   0.510 -0.0301  0.6371 -0.1640
 3672TIP3   OH211021   6.068   3.353   4.723 -0.1073 -0.2432 -0.7081
 3672TIP3    H111022   6.042   3.280   4.666 -0.6911  0.9875 -2.0884
 3672TIP3    H211023   6.131   3.314   4.784 -0.0547 -1.8008 -1.6787
 3673TIP3   OH211024   0.422   3.608   4.635 -0.2709 -0.3074  0.2170
 3673TIP3    H111025   0.506   3.580   4.598  0.3633  1.0437  0.5448
 3673TIP3    H211026   0.439   3.697   4.665 -1.7764 -0.0965  0.4935
 3674TIP3   OH211027   0.790   1.207   2.949  0.2114  0.4876 -0.4869
 3674TIP3    H111028   0.743   1.164   3.020  1.2086  0.3061  0.0740
 3674TIP3    H211029   0.732   1.279   2.923 -0.3730  0.2774  0.1876
 3675TIP3   OH211030   5.319   2.011   4.191 -0.6147 -0.0208 -0.2832
 3675TIP3    H111031   5.300   2.019   4.098 -1.2971 -0.0602 -0.1491
 3675TIP3    H211032   5.410   2.039   4.199  0.3978 -2.6726 -1.3646
 3676TIP3   OH211033   2.569   1.153   4.644 -0.0336 -0.8374  0.2826
 3676TIP3    H111034   2.581   1.182   4.553  0.7648  0.9436  0.9184
 3676TIP3    H211035   2.492   1.096   4.641 -1.3818  0.9465 -1.1750
 3677TIP3   OH211036   3.948   4.752   1.340  0.7027  1.0097  0.8639
 3677TIP3    H111037   3.894   4.676   1.360  2.8788 -0.4543  1.5319
 3677TIP3    H211038   3.965   4.746   1.246 -0.0448  1.3340  0.7009
 3678TIP3   OH211039   1.217   1.761   0.429 -0.0014  0.6669 -0.0244
 3678TIP3    H111040   1.264   1.820   0.488  1.2216 -0.1295 -0.1783
 3678TIP3    H211041   1.274   1.753   0.352 -0.9972  0.7079 -0.7962
 3679TIP3   OH211042   0.649   2.342   3.757 -0.5953  0.3095  0.2104
 3679TIP3    H111043   0.608   2.424   3.729  0.0164  0.9961  1.2837
 3679TIP3    H211044   0.626   2.334   3.850  2.4395  1.2232  1.1475
 3680TIP3   OH211045   3.534   1.284   3.352  0.0307 -0.4330 -0.6280
 3680TIP3    H111046   3.480   1.309   3.426 -0.0252 -1.3597 -0.3496
 3680TIP3    H211047   3.620   1.321   3.372 -0.4926  1.1817 -1.1452
 3681TIP3   OH211048   3.144   0.321   2.101 -0.0445  0.2703 -0.2322
 3681TIP3    H111049   3.145   0.274   2.018  1.2786  0.5265 -0.3921
 3681TIP3    H211050   3.209   0.391   2.089 -1.6545  1.8899  0.1355
 3682TIP3   OH211051   0.620   5.669   4.265 -0.4837  0.2551  0.8125
 3682TIP3    H111052   0.582   5.589   4.301 -0.9826 -0.4474 -1.1734
 3682TIP3    H211053   0.558   5.738   4.290 -2.3905 -0.6474 -1.0762
 3683TIP3   OH211054   1.804   3.602   2.280 -0.2558  0.1336  0.7266
 3683TIP3    H111055   1.856   3.524   2.302 -1.2769 -0.7986 -0.0711
 3683TIP3    H211056   1.823   3.617   2.188 -0.2514  0.6954  0.8205
 3684TIP3   OH211057   4.419   3.898   2.015  0.3123 -0.3829 -0.0917
 3684TIP3    H111058   4.329   3.872   2.036 -0.2167  1.7529  0.5278
 3684TIP3    H211059   4.432   3.868   1.925 -0.8037 -1.2487  0.0043
 3685TIP3   OH211060   5.549   2.466   3.050  0.1814 -0.3650  0.2518
 3685TIP3    H111061   5.547   2.412   3.129  1.1212 -0.0687  0.4906
 3685TIP3    H211062   5.459   2.494   3.037 -0.4030 -2.2483 -0.0594
 3686TIP3   OH211063   6.259   5.783   2.479 -0.1287 -0.1695 -0.0055
 3686TIP3    H111064   6.217   5.732   2.410  0.8016  0.0950 -0.8048
 3686TIP3    H211065   6.278   5.868   2.438  2.9451 -0.9190 -0.3811
 3687TIP3   OH211066   1.287   5.661   4.896 -0.0575 -0.3177  0.0396
 3687TIP3    H111067   1.241   5.672   4.813 -0.3102 -1.1658  0.0539
 3687TIP3    H211068   1.265   5.739   4.947  1.2154  0.8938 -1.1882
 3688TIP3   OH211069   2.933   1.131   5.011 -0.4536 -0.1364 -0.3137
 3688TIP3    H111070   2.857   1.101   4.962 -0.1422 -1.2917 -0.1174
 3688TIP3    H211071   3.001   1.067   4.991  0.4130  0.7703 -0.3363
 3689TIP3   OH211072   0.100   2.760   1.869  0.0965 -0.3915 -0.0809
 3689TIP3    H111073   0.153   2.819   1.816 -1.4002  1.7756  0.6842
 3689TIP3    H211074   0.156   2.739   1.944 -0.3531  2.7893  1.3167
 3690TIP3   OH211075   0.465   2.604   2.183 -0.2451  0.3420 -0.3318
 3690TIP3    H111076   0.488   2.573   2.270  1.3980  0.2502 -0.7658
 3690TIP3    H211077   0.540   2.656   2.155 -0.7184  0.3298 -1.7199
 3691TIP3   OH211078   2.665   2.087   4.653 -0.0973 -0.0444  0.7457
 3691TIP3    H111079   2.736   2.042   4.606 -0.4231 -0.4672  0.6527
 3691TIP3    H211080   2.688   2.077   4.745 -0.5199 -1.0051  0.7563
 3692TIP3   OH211081   2.055   1.748   2.854 -0.6554 -0.4259  0.5578
 3692TIP3    H111082   2.058   1.734   2.948 -1.0715 -1.4845  0.4297
 3692TIP3    H211083   1.995   1.681   2.822 -0.4351 -0.1477 -0.4743
 3693TIP3   OH211084   2.668   4.988   0.746  0.4274  0.0326  0.1689
 3693TIP3    H111085   2.695   5.059   0.805  0.1472  1.3818 -1.2551
 3693TIP3    H211086   2.592   5.024   0.700  0.2910 -1.2090 -0.6055
 3694TIP3   OH211087   4.890   5.158   4.976 -0.1730  0.3368  0.4619
 3694TIP3    H111088   4.964   5.188   4.924 -0.1694  0.3970  0.5015
 3694TIP3    H211089   4.859   5.080   4.930  0.9674 -0.6893  1.3562
 3695TIP3   OH211090   1.808   5.720   0.466  0.5808  0.7579 -0.0407
 3695TIP3    H111091   1.783   5.667   0.542 -1.1449  0.7246 -0.5768
 3695TIP3    H211092   1.769   5.806   0.483  1.0582  1.0559 -0.4147
 3696TIP3   OH211093   4.901   3.534   4.904  0.5211 -0.2318  0.2136
 3696TIP3    H111094   4.907   3.474   4.978 -0.3332 -0.6690 -0.0641
 3696TIP3    H211095   4.988   3.574   4.898  0.7521 -0.5948  1.1106
 3697TIP3   OH211096   2.363   5.917   2.729  0.1113 -0.0787 -0.1589
 3697TIP3    H111097   2.312   5.932   2.809  1.2845 -0.6401  0.7164
 3697TIP3    H211098   2.437   5.864   2.757  1.9017  1.7715 -1.1342
 3698TIP3   OH211099   5.995   3.819   5.003  0.3921 -0.0908 -0.5249
 3698TIP3    H111100   5.984   3.843   4.911  1.5213  1.7293 -0.2279
 3698TIP3    H211101   5.974   3.898   5.052  2.8714 -0.0308  0.5964
 3699TIP3   OH211102   3.538   5.443   2.630 -0.1706 -0.6574  0.1395
 3699TIP3    H111103   3.629   5.455   2.603 -0.5822 -0.6431 -1.3133
 3699TIP3    H211104   3.524   5.512   2.696  0.7235 -0.3605  0.0404
 3700TIP3   OH211105   4.786   4.450   3.223  0.0560 -0.1650  0.4019
 3700TIP3    H111106   4.798   4.382   3.157 -0.9962  0.1392 -0.1302
 3700TIP3    H211107   4.821   4.413   3.304  0.3649 -0.9644 -0.0989
 3701TIP3   OH211108   4.968   4.248   0.630  0.1779  0.3346 -0.7134
 3701TIP3    H111109   5.026   4.319   0.658  2.4893 -0.9459 -1.8985
 3701TIP3    H211110   4.968   4.254   0.535 -0.9269 -0.2941 -0.7661
 3702TIP3   OH211111   3.153   0.474   4.281 -0.2708 -0.2094 -0.4613
 3702TIP3    H111112   3.186   0.412   4.216  0.1761 -1.1177  0.6128
 3702TIP3    H211113   3.189   0.444   4.364  1.5124  2.5832 -0.1171
 3703TIP3   OH211114   5.711   3.638   2.015  0.1083 -0.0009 -0.0823
 3703TIP3    H111115   5.668   3.589   2.084 -0.8048  0.8864 -0.0006
 3703TIP3    H211116   5.787   3.678   2.058 -1.4385  2.0484  0.9487
 3704TIP3   OH211117   1.960   2.364   2.528 -0.2986  0.2081 -0.2456
 3704TIP3    H111118   1.985   2.388   2.617 -0.2205 -2.4269  0.5353
 3704TIP3    H211119   1.868   2.339   2.535  0.0581 -1.3112 -0.5517
 3705TIP3   OH211120   0.547   0.514   2.119 -0.1002 -0.3705 -0.9952
 3705TIP3    H111121   0.629   0.562   2.106 -1.0789  1.5558 -0.4671
 3705TIP3    H211122   0.513   0.499   2.031  0.2719 -0.1736 -1.1740
 3706TIP3   OH211123   4.287   1.772   4.554 -0.3269  0.1089 -0.4934
 3706TIP3    H111124   4.319   1.857   4.583  1.2729 -0.2734 -1.0641
 3706TIP3    H211125   4.262   1.727   4.634 -0.3376  0.7626 -0.1193
 3707TIP3   OH211126   2.459   4.763   2.204  0.1547  0.3391 -0.4158
 3707TIP3    H111127   2.510   4.825   2.255  0.3586  0.2831 -0.5493
 3707TIP3    H211128   2.387   4.815   2.168  0.3413  0.5052 -0.5519
 3708TIP3   OH211129   0.380   4.052   4.247 -0.2295  0.3194  0.1974
 3708TIP3    H111130   0.372   4.006   4.163 -0.7193 -1.0452  0.9551
 3708TIP3    H211131   0.333   4.134   4.234  1.2974  0.9872 -1.4330
 3709TIP3   OH211132   2.127   5.723   0.501  0.5139 -0.4090 -1.2786
 3709TIP3    H111133   2.094   5.655   0.560  0.3574 -0.1492 -1.0595
 3709TIP3    H211134   2.055   5.786   0.494  0.1102 -0.9960 -2.6564
 3710TIP3   OH211135   5.859   4.712   1.834  0.2540 -0.5346 -0.0421
 3710TIP3    H111136   5.822   4.731   1.749  0.7360 -1.1194 -0.3894
 3710TIP3    H211137   5.787   4.726   1.896 -0.3265 -0.9279 -0.6232
 3711TIP3   OH211138   2.192   1.356   4.441  0.3043  0.3157  0.3491
 3711TIP3    H111139   2.130   1.421   4.473 -1.4465  0.4298 -2.8531
 3711TIP3    H211140   2.153   1.272   4.462 -0.2038  0.3803 -0.3034
 3712TIP3   OH211141   1.544   0.334   4.255  0.3365 -0.3671  0.4352
 3712TIP3    H111142   1.559   0.253   4.305 -0.2521 -0.2610  0.8022
 3712TIP3    H211143   1.449   0.334   4.238  0.2694  0.4087  0.7408
 3713TIP3   OH211144   1.977   5.038   3.100 -0.7845  0.2821  0.4250
 3713TIP3    H111145   1.974   4.974   3.171 -0.1529  1.6138  1.7170
 3713TIP3    H211146   1.956   5.121   3.142 -0.7272  1.0645 -1.0237
 3714TIP3   OH211147   1.318   4.766   3.654 -0.8309  0.2998  0.4951
 3714TIP3    H111148   1.318   4.861   3.656 -1.6585  0.3111  0.4048
 3714TIP3    H211149   1.331   4.740   3.745 -0.5867  0.5016  0.5168
 3715TIP3   OH211150   5.381   3.382   3.973  0.3621  0.5290  0.1933
 3715TIP3    H111151   5.393   3.464   4.021 -0.1466  1.2472 -0.8715
 3715TIP3    H211152   5.432   3.393   3.893  0.3700 -0.2319  0.0874
 3716TIP3   OH211153   3.389   5.386   2.100 -0.0396  0.2642 -0.0454
 3716TIP3    H111154   3.413   5.477   2.087 -2.7718  0.8679 -1.5266
 3716TIP3    H211155   3.371   5.379   2.194  0.8334  1.0720  0.1839
 3717TIP3   OH211156   1.662   3.474   0.459  0.1820 -0.6147 -0.4167
 3717TIP3    H111157   1.629   3.564   0.450  2.2403  0.0036 -2.4944
 3717TIP3    H211158   1.715   3.477   0.538 -0.4040 -0.2443 -0.0190
 3718TIP3   OH211159   4.008   0.507   1.767  0.2184  0.0064 -0.4251
 3718TIP3    H111160   4.061   0.501   1.688 -1.0312 -1.3425 -1.2094
 3718TIP3    H211161   3.934   0.562   1.742 -0.0793 -0.2659 -0.1551
 3719TIP3   OH211162   5.766   1.351   4.024  0.8308 -0.1170 -0.2181
 3719TIP3    H111163   5.740   1.323   3.936  1.2808 -1.5854  0.0965
 3719TIP3    H211164   5.740   1.279   4.081  2.4044 -0.0979  0.5711
 3720TIP3   OH211165   4.720   1.926   0.848 -0.9325 -0.1239 -0.2073
 3720TIP3    H111166   4.626   1.940   0.842 -0.8538  0.2644 -0.5762
 3720TIP3    H211167   4.740   1.864   0.777 -1.1613 -1.5647  0.9347
 3721TIP3   OH211168   5.657   4.899   4.620  0.1827  0.0193 -0.6595
 3721TIP3    H111169   5.713   4.955   4.566 -1.4785  1.5082 -0.9422
 3721TIP3    H211170   5.568   4.919   4.591 -0.5932 -1.2780  0.6847
 3722TIP3   OH211171   6.079   0.287   0.232 -0.1763  0.3137 -0.0036
 3722TIP3    H111172   6.116   0.256   0.150 -0.9141  2.6291 -1.2957
 3722TIP3    H211173   6.096   0.381   0.233 -0.2934  0.3873  2.4619
 3723TIP3   OH211174   5.496   5.499   4.064 -0.1474 -0.2099 -0.4708
 3723TIP3    H111175   5.514   5.524   4.155 -0.2647 -2.1124  0.1220
 3723TIP3    H211176   5.418   5.444   4.069 -0.8612  0.6174 -1.8986
 3724TIP3   OH211177   2.164   0.066   1.110 -0.1784  0.0639  0.0500
 3724TIP3    H111178   2.091   0.128   1.118 -0.5856 -0.3907 -0.1216
 3724TIP3    H211179   2.142  -0.004   1.171 -0.1998 -0.3850 -0.4679
 3725TIP3   OH211180   2.243   2.226   2.627 -0.2414 -0.1077  0.0842
 3725TIP3    H111181   2.254   2.240   2.533 -0.0478  0.3599  0.1747
 3725TIP3    H211182   2.219   2.134   2.635 -0.6474 -0.0528 -0.4561
 3726TIP3   OH211183   1.093   2.750   2.445 -0.0785  0.4145  0.0260
 3726TIP3    H111184   1.184   2.731   2.421 -0.2338  0.2467 -0.4405
 3726TIP3    H211185   1.070   2.681   2.507 -0.4519 -0.6326 -1.2157
 3727TIP3   OH211186   2.227   3.279   4.791 -0.4158  0.2039 -0.1059
 3727TIP3    H111187   2.309   3.321   4.764 -0.8625  0.4491 -1.1354
 3727TIP3    H211188   2.165   3.351   4.797 -0.2137  0.2723  2.2821
 3728TIP3   OH211189   0.633   3.708   4.328  0.0637  0.0675  0.2283
 3728TIP3    H111190   0.551   3.735   4.368  0.0621 -1.5590  1.4005
 3728TIP3    H211191   0.606   3.654   4.253  0.0425 -0.6868  0.7693
 3729TIP3   OH211192   4.137   5.438   1.744  0.4382 -0.2860 -0.0122
 3729TIP3    H111193   4.191   5.399   1.812  0.6907 -2.1593 -1.2003
 3729TIP3    H211194   4.192   5.434   1.665 -0.4098  0.3797 -0.6595
 3730TIP3   OH211195   3.939   5.752   4.270  0.6041  0.1120 -0.3498
 3730TIP3    H111196   3.857   5.796   4.249 -0.1002 -0.7518  0.5474
 3730TIP3    H211197   4.000   5.783   4.202 -0.2759  1.2370 -0.6613
 3731TIP3   OH211198   1.748   1.503   4.260  0.7127 -1.0652 -0.0867
 3731TIP3    H111199   1.676   1.472   4.314  1.4073 -1.6791  0.5213
 3731TIP3    H211200   1.713   1.506   4.171 -1.1848  2.2074  0.6109
 3732TIP3   OH211201   4.669   5.729   2.343 -0.4918 -0.0686 -0.4890
 3732TIP3    H111202   4.627   5.706   2.260 -0.4241 -1.0549 -0.2617
 3732TIP3    H211203   4.760   5.704   2.332 -0.9967 -2.8245  0.7957
 3733TIP3   OH211204   5.494   3.808   3.309  0.4356 -0.2776  0.2936
 3733TIP3    H111205   5.571   3.753   3.318  1.9464  1.0743 -2.8516
 3733TIP3    H211206   5.509   3.881   3.369  0.5470 -1.0313  1.2064
 3734TIP3   OH211207   0.929   1.819   3.218  0.1946  0.2780  0.1840
 3734TIP3    H111208   1.009   1.851   3.259  0.5902 -0.1739 -0.2145
 3734TIP3    H211209   0.862   1.885   3.238  1.4924  2.6964 -2.6206
 3735TIP3   OH211210   1.147   0.541   0.093 -0.6118 -0.7208 -0.1600
 3735TIP3    H111211   1.085   0.615   0.097  0.0070  0.0325 -2.5063
 3735TIP3    H211212   1.133   0.504   0.006  1.1857 -1.4924 -0.1590
 3736TIP3   OH211213   4.916   2.243   2.630  0.3992  0.2075  0.6421
 3736TIP3    H111214   4.925   2.148   2.623 -2.1593 -0.1354  1.1130
 3736TIP3    H211215   4.997   2.278   2.591  2.5104 -2.1398  2.5708
 3737TIP3   OH211216   4.208   1.075   2.694  0.2086  0.2672 -0.1993
 3737TIP3    H111217   4.193   1.095   2.601 -2.6135  1.3722  0.4071
 3737TIP3    H211218   4.202   1.160   2.738 -0.5212 -0.4949  1.2205
 3738TIP3   OH211219   1.735   5.272   4.453 -0.1521  0.5605 -0.4807
 3738TIP3    H111220   1.713   5.235   4.368 -2.0120 -0.2852  0.3206
 3738TIP3    H211221   1.739   5.196   4.512 -1.1665  1.3214  0.6209
 3739TIP3   OH211222   2.087   1.983   5.062 -0.2298  0.1640  0.4199
 3739TIP3    H111223   2.161   1.934   5.097 -1.4741 -2.0466  0.2007
 3739TIP3    H211224   2.061   1.934   4.984 -2.1257  0.5988  0.7139
 3740TIP3   OH211225   4.692   1.689   0.671  0.1944 -0.0832 -0.4935
 3740TIP3    H111226   4.641   1.695   0.591 -1.2881 -0.4706  0.3778
 3740TIP3    H211227   4.626   1.684   0.741  1.4357 -0.0956  0.7142
 3741TIP3   OH211228   6.345   0.127   0.072 -0.2763 -0.0469  0.9282
 3741TIP3    H111229   6.280   0.184   0.030 -2.1409 -1.8167  1.2840
 3741TIP3    H211230   6.400   0.097  -0.000 -0.7157  0.3798  0.4011
 3742TIP3   OH211231   2.910   4.199   3.455 -1.0046  0.2299 -0.2157
 3742TIP3    H111232   2.984   4.139   3.463 -0.6243  0.8717  1.2113
 3742TIP3    H211233   2.858   4.163   3.382 -0.1216 -1.0997 -0.2104
 3743TIP3   OH211234   4.313   3.153   3.520 -0.4011  0.1125  0.6874
 3743TIP3    H111235   4.274   3.229   3.564 -0.8849  0.2398  0.0577
 3743TIP3    H211236   4.261   3.142   3.441 -0.7680 -1.2936  1.0901
 3744TIP3   OH211237   2.447   4.133   5.191 -0.5204 -0.0892 -0.1360
 3744TIP3    H111238   2.492   4.165   5.113  0.1737 -1.5242 -0.3683
 3744TIP3    H211239   2.510   4.075   5.233 -0.9049  0.6025  1.4816
 3745TIP3   OH211240   1.681   2.247   3.525 -0.1833 -0.0316  0.3323
 3745TIP3    H111241   1.656   2.204   3.443  1.3718 -2.5859  1.1037
 3745TIP3    H211242   1.598   2.266   3.569 -0.9565 -1.0797 -0.6322
 3746TIP3   OH211243   3.515   4.026   2.693 -0.4991  0.9178  0.3103
 3746TIP3    H111244   3.447   4.054   2.633  0.2563 -0.0530 -1.0482
 3746TIP3    H211245   3.577   3.976   2.639 -0.5056 -1.2277  2.1191
 3747TIP3   OH211246   1.696   5.100   1.936  0.1565 -0.2243 -0.1006
 3747TIP3    H111247   1.682   5.011   1.967 -1.1518 -0.3595 -1.0097
 3747TIP3    H211248   1.634   5.111   1.864  1.8567  0.6827 -1.4921
 3748TIP3   OH211249   2.733   5.518   3.666 -0.2253 -0.0473  0.1317
 3748TIP3    H111250   2.725   5.596   3.610 -0.2181  1.8245  2.5669
 3748TIP3    H211251   2.820   5.484   3.647 -1.1903 -1.1530 -2.9047
 3749TIP3   OH211252   0.053   1.458   1.283  0.0432 -0.0956 -0.5103
 3749TIP3    H111253   0.016   1.414   1.207  1.5458 -2.1405 -0.1319
 3749TIP3    H211254  -0.007   1.438   1.355 -0.3477  0.2175 -0.7432
 3750TIP3   OH211255   3.730   5.777   1.732 -0.5143 -0.0494 -0.0643
 3750TIP3    H111256   3.796   5.844   1.750 -0.4630 -0.0565 -0.2256
 3750TIP3    H211257   3.738   5.716   1.805  0.9100 -1.0428 -1.0079
 3751TIP3   OH211258   0.520   0.564   2.548  0.4914 -0.0542  0.0278
 3751TIP3    H111259   0.493   0.580   2.639 -1.6672  2.5309 -0.9544
 3751TIP3    H211260   0.554   0.647   2.518  1.3588 -0.9328 -1.5162
 3752TIP3   OH211261   0.215   0.291   3.127  0.7222 -0.1416 -0.3352
 3752TIP3    H111262   0.159   0.222   3.161 -0.0942  1.2914  1.4299
 3752TIP3    H211263   0.155   0.352   3.084  1.4767 -0.6825 -2.2755
 3753TIP3   OH211264   2.474   5.496   2.348  0.3404  0.1334  0.3253
 3753TIP3    H111265   2.429   5.547   2.416  0.0586 -1.5911  1.5118
 3753TIP3    H211266   2.412   5.491   2.276 -0.4481 -0.2018  1.0074
 3754TIP3   OH211267   6.204   3.527   3.903 -0.3417 -0.0713  0.7459
 3754TIP3    H111268   6.238   3.605   3.858 -0.8061  0.5810  1.5076
 3754TIP3    H211269   6.205   3.458   3.836  2.4826 -0.1095  0.6976
 3755TIP3   OH211270   5.996   5.673   5.047  0.1733 -0.3185 -0.0465
 3755TIP3    H111271   5.902   5.671   5.061  0.2060  0.0831  0.2639
 3755TIP3    H211272   6.032   5.611   5.111  0.1866  0.2087  0.4665
 3756TIP3   OH211273   0.637   2.130   2.645 -0.2834 -0.5701 -0.3591
 3756TIP3    H111274   0.713   2.102   2.594  0.6872  0.7360  0.3141
 3756TIP3    H211275   0.625   2.222   2.621  0.1965  0.0799  1.6956
 3757TIP3   OH211276   5.340   0.364   1.871  0.1141  0.0180  0.1659
 3757TIP3    H111277   5.290   0.440   1.841  0.7059  0.0734 -0.7143
 3757TIP3    H211278   5.316   0.354   1.963  0.3089  1.4950  0.3937
 3758TIP3   OH211279   1.131   3.794   1.358  0.3416 -0.2943 -0.3607
 3758TIP3    H111280   1.051   3.846   1.364  1.0214  0.7387  0.1299
 3758TIP3    H211281   1.193   3.839   1.416  1.2233 -1.1717 -0.5909
 3759TIP3   OH211282   4.498   3.588   4.111  0.3397 -0.2099  0.3809
 3759TIP3    H111283   4.456   3.529   4.172  0.2152 -1.7532 -1.1291
 3759TIP3    H211284   4.585   3.550   4.096  0.1838 -0.1574 -0.7618
 3760TIP3   OH211285   4.073   4.839   0.831  0.2359  0.2234 -0.2201
 3760TIP3    H111286   4.087   4.780   0.756  2.3486  2.3794 -1.6706
 3760TIP3    H211287   3.991   4.885   0.810 -0.4613 -0.8683  0.0340
 3761TIP3   OH211288   4.101   0.544   3.601 -0.6322  0.2792 -0.4937
 3761TIP3    H111289   4.129   0.629   3.635  0.6599 -0.2286 -0.2172
 3761TIP3    H211290   4.007   0.540   3.619 -0.6059  1.4141 -0.0304
 3762TIP3   OH211291   1.529   4.614   0.987 -0.4839 -0.1130  0.1190
 3762TIP3    H111292   1.499   4.695   0.946 -0.8640 -0.3396 -0.0484
 3762TIP3    H211293   1.451   4.559   0.994 -0.1706 -0.5873 -0.0425
 3763TIP3   OH211294   5.123   4.354   1.221  0.0656  0.6027  0.0676
 3763TIP3    H111295   5.137   4.444   1.252  0.0602  0.3631  0.7810
 3763TIP3    H211296   5.179   4.300   1.278  0.4025  0.1918 -0.6368
 3764TIP3   OH211297   4.444   4.293   0.823 -0.5725  0.0767 -0.3895
 3764TIP3    H111298   4.514   4.253   0.770 -0.5240  0.7732 -0.8740
 3764TIP3    H211299   4.394   4.219   0.857  0.8573 -0.4800  0.6062
 3765TIP3   OH211300   1.644   0.588   4.301 -0.1738  0.2725  0.0772
 3765TIP3    H111301   1.630   0.635   4.218 -0.6588 -1.0182 -0.6025
 3765TIP3    H211302   1.597   0.505   4.289 -1.3753  0.6061  2.1599
 3766TIP3   OH211303   0.349   1.476   0.060 -0.4919 -0.3702 -0.2097
 3766TIP3    H111304   0.418   1.529   0.100  0.1551 -1.9024  0.8286
 3766TIP3    H211305   0.312   1.532  -0.008  0.9587  0.9440  0.0141
 3767TIP3   OH211306   2.075   1.393   1.074  0.5506 -0.0638  0.2740
 3767TIP3    H111307   2.138   1.360   1.138  0.2470  0.1795  0.7078
 3767TIP3    H211308   1.990   1.363   1.107  0.3268  0.6564  0.3565
 3768TIP3   OH211309   4.758   3.292   3.284  0.0672  0.1251 -0.1702
 3768TIP3    H111310   4.674   3.247   3.290 -0.1278 -0.0285 -2.8041
 3768TIP3    H211311   4.736   3.385   3.286  0.0427  0.1032  0.9903
 3769TIP3   OH211312   0.606   3.029   4.664 -0.2052  0.7404  0.1627
 3769TIP3    H111313   0.614   3.020   4.569 -1.0953  0.6650  0.0855
 3769TIP3    H211314   0.637   2.945   4.699 -1.5215  0.0802 -0.1710
 3770TIP3   OH211315   1.950   3.776   4.813  0.0217 -0.4866 -0.0764
 3770TIP3    H111316   1.919   3.745   4.898  0.5001  0.8606  0.6022
 3770TIP3    H211317   2.024   3.833   4.832  0.5598 -0.6719 -1.4447
 3771TIP3   OH211318   4.479   1.880   2.093 -0.1811  0.1700 -0.1965
 3771TIP3    H111319   4.524   1.932   2.026  0.6837 -1.2869 -0.8197
 3771TIP3    H211320   4.389   1.872   2.061 -0.4299  1.5463  0.0970
 3772TIP3   OH211321   2.287   4.244   4.659 -0.4390 -0.5375  0.4099
 3772TIP3    H111322   2.306   4.155   4.631 -3.1291 -1.6091  1.6810
 3772TIP3    H211323   2.373   4.285   4.667  0.8995 -3.0550 -0.0439
 3773TIP3   OH211324   5.731   2.304   1.083 -0.0407 -0.4310 -0.4972
 3773TIP3    H111325   5.748   2.242   1.012 -1.0186  0.4543 -1.5360
 3773TIP3    H211326   5.636   2.310   1.088  0.0012 -0.5878  1.0123
 3774TIP3   OH211327   4.456   1.580   1.164 -0.5152  0.1644 -0.0140
 3774TIP3    H111328   4.389   1.568   1.231 -1.9974  0.9600 -1.2679
 3774TIP3    H211329   4.499   1.662   1.187 -0.4218 -0.0032  0.4231
 3775TIP3   OH211330   2.594   4.252   4.990  0.0061 -0.7207  0.6263
 3775TIP3    H111331   2.653   4.317   5.028 -1.0036  0.0894  0.8247
 3775TIP3    H211332   2.580   4.281   4.900 -1.3040 -0.0321  1.0295
 3776TIP3   OH211333   0.920   4.440  -0.021  0.3899  0.1107  0.3153
 3776TIP3    H111334   0.962   4.441   0.065 -0.3314 -0.7558  0.7068
 3776TIP3    H211335   0.898   4.531  -0.038  3.3265  0.7526 -0.4026
 3777TIP3   OH211336   5.744   1.627   2.360 -0.3560  0.3879 -0.4500
 3777TIP3    H111337   5.726   1.593   2.448  0.1196 -0.8713 -0.8243
 3777TIP3    H211338   5.803   1.701   2.375 -0.1925  0.1174  0.2874
 3778TIP3   OH211339   2.487   4.794   0.479  0.1157  0.5029  0.3422
 3778TIP3    H111340   2.437   4.874   0.495  2.5088  2.8389 -2.6046
 3778TIP3    H211341   2.460   4.768   0.390  0.6876 -0.9493  0.5767
 3779TIP3   OH211342   1.937   5.406   3.836  0.2528  0.2863  0.0294
 3779TIP3    H111343   1.944   5.314   3.862 -2.1103 -0.3759 -1.4042
 3779TIP3    H211344   1.940   5.405   3.741 -2.0062  1.3742 -0.1269
 3780TIP3   OH211345   1.075   4.288   2.894  0.7240 -0.6976  0.1734
 3780TIP3    H111346   1.009   4.246   2.949 -1.0731  0.1074 -1.2650
 3780TIP3    H211347   1.139   4.323   2.957 -1.4098  0.4953  1.8399
 3781TIP3   OH211348   5.459   5.713   3.387 -0.1949 -0.4633  0.3566
 3781TIP3    H111349   5.392   5.731   3.452  0.6248 -0.9133  1.3450
 3781TIP3    H211350   5.412   5.673   3.314 -1.3269  1.2772  0.0850
 3782TIP3   OH211351   2.523   5.526   3.870  0.0071 -0.9149 -0.8274
 3782TIP3    H111352   2.588   5.523   3.940 -1.1016 -0.2206  0.2835
 3782TIP3    H211353   2.573   5.547   3.792  0.8688  2.2544  0.4270
 3783TIP3   OH211354   4.883   3.523   3.800  0.3268  0.3054 -0.5617
 3783TIP3    H111355   4.968   3.480   3.816  1.1538  1.8343 -0.6624
 3783TIP3    H211356   4.879   3.534   3.705 -0.1003  0.0209 -0.5770
 3784TIP3   OH211357   0.635   1.125   1.905  0.4307 -0.4754  0.9763
 3784TIP3    H111358   0.617   1.170   1.822 -0.5279  0.3794  1.6267
 3784TIP3    H211359   0.726   1.096   1.896 -0.2869 -2.3211 -1.2343
 3785TIP3   OH211360   5.617   5.238   4.401 -0.3186 -0.1685 -0.4674
 3785TIP3    H111361   5.561   5.174   4.357 -0.1902 -0.7257  0.1571
 3785TIP3    H211362   5.595   5.229   4.493 -1.5020  1.8826 -0.4953
 3786TIP3   OH211363   1.481   1.036   3.507 -0.1171  0.0250  0.0424
 3786TIP3    H111364   1.567   1.070   3.533 -0.6953  0.0794  2.0961
 3786TIP3    H211365   1.421   1.110   3.520 -0.7785 -0.6138  0.7347
 3787TIP3   OH211366   2.132   2.850   0.177 -0.2198 -0.4654 -0.4123
 3787TIP3    H111367   2.057   2.831   0.121 -1.1179  2.0422 -0.1852
 3787TIP3    H211368   2.146   2.944   0.168  1.7868 -0.5672  0.9452
 3788TIP3   OH211369   5.611   1.351   0.366  0.3817 -0.3641  0.7853
 3788TIP3    H111370   5.589   1.371   0.275  1.6891 -0.0777  0.5102
 3788TIP3    H211371   5.636   1.436   0.404  2.4925 -0.8510  0.6173
 3789TIP3   OH211372   2.827   0.412   0.452 -0.3265  0.3213  0.3634
 3789TIP3    H111373   2.895   0.416   0.384 -1.2182 -1.6507 -0.7087
 3789TIP3    H211374   2.862   0.351   0.517 -0.9191 -0.4531 -0.0355
 3790TIP3   OH211375   0.926   2.551   2.578 -0.1612  0.1393 -0.0922
 3790TIP3    H111376   0.928   2.456   2.577  0.7917  0.1354 -1.4934
 3790TIP3    H211377   0.854   2.574   2.637  0.1692 -1.4222  0.9661
 3791TIP3   OH211378   5.923   1.144   3.437  0.0907  0.2778  0.2899
 3791TIP3    H111379   5.829   1.140   3.456 -0.2841  1.5665 -1.1060
 3791TIP3    H211380   5.934   1.226   3.389  1.8133 -0.2396 -0.2569
 3792TIP3   OH211381   3.923   0.441   0.708 -0.1078 -0.3777  0.2096
 3792TIP3    H111382   3.968   0.363   0.742 -0.3578 -0.2766  0.7747
 3792TIP3    H211383   3.910   0.496   0.785  2.5700  1.5182 -0.5482
 3793TIP3   OH211384   4.578   2.459   0.370  0.3384  0.1178  0.3622
 3793TIP3    H111385   4.588   2.387   0.309 -0.0586 -0.3922  0.8891
 3793TIP3    H211386   4.659   2.457   0.423  1.1264  1.1593 -0.7447
 3794TIP3   OH211387   1.600   5.393   3.337 -0.5704  0.3691  0.4257
 3794TIP3    H111388   1.548   5.368   3.414 -2.4372 -0.3361 -0.9955
 3794TIP3    H211389   1.550   5.360   3.263  1.4742  0.5225 -1.0927
 3795TIP3   OH211390   1.479   4.570   0.616 -0.3475  0.4719 -0.3537
 3795TIP3    H111391   1.557   4.528   0.652  0.5618  1.3201 -1.2658
 3795TIP3    H211392   1.456   4.638   0.680 -0.2407  0.3164 -0.1512
 3796TIP3   OH211393   1.127   2.913   5.207 -0.1028 -0.1150  0.5307
 3796TIP3    H111394   1.056   2.859   5.171  0.5228  0.0968 -1.1104
 3796TIP3    H211395   1.188   2.923   5.135  0.1538  2.2086  0.9933
 3797TIP3   OH211396   2.669   5.019   0.169  0.1167 -0.4521  0.1303
 3797TIP3    H111397   2.631   5.106   0.156  2.3311  0.6697  0.6027
 3797TIP3    H211398   2.679   5.012   0.264  0.9063 -0.7684  0.0297
 3798TIP3   OH211399   1.308   1.111   3.708  0.0244 -0.8992  0.0451
 3798TIP3    H111400   1.379   1.081   3.765 -0.0067  0.8612  1.0760
 3798TIP3    H211401   1.231   1.113   3.764 -0.4588 -1.0985 -0.6055
 3799TIP3   OH211402   3.075   5.987   1.784  0.3468 -0.1894  0.1289
 3799TIP3    H111403   3.099   5.923   1.850  2.1493 -0.6388 -0.8646
 3799TIP3    H211404   3.123   5.959   1.705 -1.8745  0.1847 -1.4456
 3800TIP3   OH211405   0.570   3.759   1.682 -0.2596 -0.2126  0.6221
 3800TIP3    H111406   0.513   3.729   1.611  0.9662 -0.6115 -0.2190
 3800TIP3    H211407   0.589   3.850   1.661  0.3614 -0.4249  0.2675
 3801TIP3   OH211408   4.314   4.466   0.626  0.3479  0.5400  0.2777
 3801TIP3    H111409   4.243   4.416   0.584  0.3421  0.1944  0.6917
 3801TIP3    H211410   4.362   4.401   0.677  0.1695  1.0114  1.0535
 3802TIP3   OH211411   3.189   2.527   1.366  0.7542  0.3757  0.0084
 3802TIP3    H111412   3.164   2.448   1.318  0.2411 -0.5836  1.7567
 3802TIP3    H211413   3.109   2.579   1.369  0.6758  0.2424  0.1995
 3803TIP3   OH211414   2.182   1.259   0.501 -0.4423 -0.2264 -0.0557
 3803TIP3    H111415   2.215   1.172   0.480 -2.7133 -1.2431  0.2766
 3803TIP3    H211416   2.220   1.280   0.586  0.2123 -0.8329 -0.1905
 3804TIP3   OH211417   2.699   1.686   5.063 -0.3904  0.0458 -0.2045
 3804TIP3    H111418   2.711   1.599   5.025 -4.2002 -0.3405 -0.9004
 3804TIP3    H211419   2.715   1.746   4.990  1.3049 -0.0542  0.0395
 3805TIP3   OH211420   1.840   0.697   1.494  0.0261  0.1704 -0.7025
 3805TIP3    H111421   1.811   0.608   1.513 -0.1507  0.3490 -0.1182
 3805TIP3    H211422   1.929   0.701   1.530  0.3694 -0.0314 -1.5012
 3806TIP3   OH211423   6.168   2.472   4.167  0.1964 -0.3343  0.2589
 3806TIP3    H111424   6.078   2.467   4.200  1.1159 -0.4553  3.0238
 3806TIP3    H211425   6.193   2.381   4.152  0.4176 -0.4594  1.2893
 3807TIP3   OH211426   4.603   0.544   1.676  0.3977  0.1652  0.3715
 3807TIP3    H111427   4.663   0.489   1.726  1.4166 -0.3634 -1.3308
 3807TIP3    H211428   4.633   0.633   1.693  1.0793 -0.0403  0.2649
 3808TIP3   OH211429   0.368   3.729   5.113  0.6611  0.0076 -0.0231
 3808TIP3    H111430   0.373   3.683   5.197  0.5639 -2.8122 -1.4273
 3808TIP3    H211431   0.442   3.696   5.063 -2.0471 -2.5939 -2.8212
 3809TIP3   OH211432   1.902   3.672   1.053 -0.6233  0.0931 -0.4788
 3809TIP3    H111433   1.971   3.706   1.110  2.0874 -2.8975 -1.6256
 3809TIP3    H211434   1.859   3.604   1.105 -1.7238  0.8910 -0.3064
 3810TIP3   OH211435   3.444   4.254   1.829  0.0906  0.1616  0.0618
 3810TIP3    H111436   3.408   4.329   1.782 -1.0460  0.2931  1.1001
 3810TIP3    H211437   3.429   4.180   1.770  0.3731  0.5880 -0.5634
 3811TIP3   OH211438   3.984   3.115   2.596  0.3363  0.2947  0.8265
 3811TIP3    H111439   3.932   3.035   2.596  1.6698 -0.6468 -1.0747
 3811TIP3    H211440   4.071   3.088   2.624  1.7492  0.2482 -2.9653
 3812TIP3   OH211441   1.161   0.983   4.642 -0.3022 -0.2769 -0.6238
 3812TIP3    H111442   1.200   1.046   4.581 -1.7333 -0.3867 -1.6772
 3812TIP3    H211443   1.228   0.915   4.652  0.7487  0.7387 -0.4758
 3813TIP3   OH211444   3.723   0.654   2.411 -0.0221  0.1264 -0.2217
 3813TIP3    H111445   3.661   0.726   2.405 -1.1586 -0.6569  1.3175
 3813TIP3    H211446   3.743   0.647   2.505  0.0009 -1.5851 -0.3185
 3814TIP3   OH211447   2.542   2.617   4.814  0.3229  0.1525 -0.1777
 3814TIP3    H111448   2.510   2.661   4.735  0.8217  0.7804 -0.0414
 3814TIP3    H211449   2.513   2.527   4.805 -1.5916  0.7037 -0.0070
 3815TIP3   OH211450   1.335   1.790   2.973  0.2461 -0.4804 -0.2856
 3815TIP3    H111451   1.398   1.809   3.042  1.4618  0.0042 -1.4986
 3815TIP3    H211452   1.275   1.726   3.013  1.7340 -1.2863  0.7531
 3816TIP3   OH211453   4.032   2.894   4.572  0.1416 -0.3660 -0.1266
 3816TIP3    H111454   4.005   2.838   4.500 -2.1454 -0.1567  0.4894
 3816TIP3    H211455   3.999   2.981   4.548 -3.7721 -0.8514  2.5272
 3817TIP3   OH211456   1.621   3.229   0.613  0.5807 -0.1229 -0.1201
 3817TIP3    H111457   1.663   3.314   0.598 -0.0239  0.0874 -0.6349
 3817TIP3    H211458   1.690   3.175   0.651  0.5865  1.0477  1.7039
 3818TIP3   OH211459   0.270   5.599   5.173  0.4715 -0.5868 -0.3371
 3818TIP3    H111460   0.356   5.556   5.167  0.3059 -0.9523 -0.1553
 3818TIP3    H211461   0.209   5.537   5.133  0.0049 -1.1889  1.2121
 3819TIP3   OH211462   4.951   1.184   4.431 -0.8356  0.8326  0.0922
 3819TIP3    H111463   4.981   1.213   4.517  1.0029  2.5473 -1.0238
 3819TIP3    H211464   4.857   1.169   4.441 -0.5948  0.5653  2.4663
 3820TIP3   OH211465   5.288   1.242   0.271  0.0541 -0.6729 -0.7788
 3820TIP3    H111466   5.257   1.181   0.204 -1.7215 -1.3971  0.6309
 3820TIP3    H211467   5.277   1.195   0.353  3.6371 -0.4275  0.0222
 3821TIP3   OH211468   1.019   5.035   1.877 -0.0781 -0.2787  0.0761
 3821TIP3    H111469   1.060   5.104   1.929 -0.0238 -0.0174 -0.3116
 3821TIP3    H211470   1.089   5.000   1.822 -0.0307 -0.8602  0.4891
 3822TIP3   OH211471   0.893   1.928   2.010 -0.1061  0.0910 -0.3261
 3822TIP3    H111472   0.898   2.020   2.036  0.7025 -0.0063 -0.1141
 3822TIP3    H211473   0.983   1.905   1.987  0.2940 -1.4637  2.3943
 3823TIP3   OH211474   3.803   5.582   2.607  0.0715  0.0970  0.6117
 3823TIP3    H111475   3.857   5.602   2.684  1.9606 -0.3577 -0.5302
 3823TIP3    H211476   3.822   5.652   2.545 -1.2496  0.3289  0.4428
 3824TIP3   OH211477   6.282   3.172   3.317  0.3147 -0.1557 -0.0739
 3824TIP3    H111478   6.231   3.102   3.358  0.4786 -0.5996 -0.6074
 3824TIP3    H211479   6.316   3.132   3.237  1.1651  0.2582  0.0724
 3825TIP3   OH211480   4.130   4.025   0.163  0.0157 -0.2589  0.4460
 3825TIP3    H111481   4.196   3.992   0.223  0.9271  1.4628  0.4351
 3825TIP3    H211482   4.137   4.120   0.168 -1.0055 -0.0525 -1.1538
 3826TIP3   OH211483   0.155   3.886   0.311  0.1512 -0.2404 -0.4059
 3826TIP3    H111484   0.089   3.956   0.305  0.4380  0.0841  0.1844
 3826TIP3    H211485   0.122   3.828   0.380  0.3691 -0.2001 -0.2684
 3827TIP3   OH211486   6.067   2.766   2.586  0.7080 -0.2855 -0.3392
 3827TIP3    H111487   6.094   2.834   2.524 -0.1569  0.7030  0.3265
 3827TIP3    H211488   5.988   2.729   2.547  1.9529 -1.9500 -1.4114
 3828TIP3   OH211489   1.933   1.512   3.927  0.4825  0.0555  0.2918
 3828TIP3    H111490   1.868   1.441   3.928 -0.3335  0.7802  0.3353
 3828TIP3    H211491   1.888   1.584   3.882  0.8722  0.9219  1.2418
 3829TIP3   OH211492   0.677   3.468   4.528  1.1572  0.2440 -0.1677
 3829TIP3    H111493   0.678   3.437   4.438 -2.0029 -1.3357  0.2005
 3829TIP3    H211494   0.680   3.388   4.581 -1.1162  0.8187  0.9572
 3830TIP3   OH211495   4.575   2.499   4.637  0.2785 -0.4056 -0.0726
 3830TIP3    H111496   4.661   2.541   4.644 -0.5619  1.6679 -1.2811
 3830TIP3    H211497   4.546   2.488   4.727  0.1050  2.7236  0.3580
 3831TIP3   OH211498   4.592   4.453   2.089  0.6623 -0.5016 -0.2191
 3831TIP3    H111499   4.627   4.374   2.131 -1.2872 -1.7780 -0.8797
 3831TIP3    H211500   4.497   4.447   2.102  0.3689  1.1446 -1.3119
 3832TIP3   OH211501   1.494   2.319   1.615  1.0832  0.1937  0.2663
 3832TIP3    H111502   1.490   2.260   1.690 -0.3355 -0.7762 -0.5161
 3832TIP3    H211503   1.465   2.265   1.541  0.9502  1.5470 -0.7026
 3833TIP3   OH211504   4.473   0.627   4.963 -0.3148  0.1156  0.2226
 3833TIP3    H111505   4.448   0.717   4.983 -1.1375 -0.2091  0.7167
 3833TIP3    H211506   4.548   0.610   5.021  0.0189  0.5684 -0.0747
 3834TIP3   OH211507   2.266   2.584   2.040  0.3028  0.6927 -0.4361
 3834TIP3    H111508   2.350   2.538   2.043  0.4939  1.0317 -0.5648
 3834TIP3    H211509   2.201   2.516   2.057  0.6818  0.6363  0.9036
 3835TIP3   OH211510   1.723   5.458   1.014 -0.0264 -0.1545 -0.1877
 3835TIP3    H111511   1.628   5.467   1.023 -0.1435 -0.2706 -1.2165
 3835TIP3    H211512   1.755   5.461   1.104 -1.0559 -0.7591  0.2213
 3836TIP3   OH211513   4.706   1.064   4.491 -0.6618 -0.5006 -0.2802
 3836TIP3    H111514   4.729   1.041   4.400  1.1630  0.3950 -0.0865
 3836TIP3    H211515   4.690   0.979   4.533 -2.0512 -0.8989 -1.5499
 3837TIP3   OH211516   3.310   5.898   1.467 -0.6495 -0.2652 -0.4170
 3837TIP3    H111517   3.257   5.870   1.392 -1.4895  1.2639 -0.4239
 3837TIP3    H211518   3.322   5.818   1.519 -3.5202 -0.5807 -0.0773
 3838TIP3   OH211519   4.646   4.179   2.118 -0.0602 -0.1000  0.1677
 3838TIP3    H111520   4.575   4.117   2.100  1.2038 -1.7209  0.5399
 3838TIP3    H211521   4.692   4.141   2.193  1.7496  0.3992 -0.6430
 3839TIP3   OH211522   0.542   5.316   1.789  0.0866 -0.3918  0.0878
 3839TIP3    H111523   0.494   5.234   1.781  0.0765 -0.2936 -1.1901
 3839TIP3    H211524   0.614   5.307   1.725 -0.0189  0.6522 -0.1943
 3840TIP3   OH211525   0.902   5.242   1.170 -0.4525  0.4495 -1.0870
 3840TIP3    H111526   0.884   5.336   1.174  0.2636  0.5779 -0.6428
 3840TIP3    H211527   0.993   5.237   1.140  0.1203 -0.0375  0.6273
 3841TIP3   OH211528   1.606   4.671   3.942  0.1722  0.3354  0.9693
 3841TIP3    H111529   1.512   4.691   3.945  0.2490  0.7013  0.9609
 3841TIP3    H211530   1.616   4.595   3.999 -0.0298  0.7019  1.4937
 3842TIP3   OH211531   6.298   1.052   0.756 -0.3471  0.0244  0.2114
 3842TIP3    H111532   6.328   1.137   0.722  0.0077 -0.4936 -0.7980
 3842TIP3    H211533   6.313   1.058   0.850 -2.1116  1.8027  0.4567
 3843TIP3   OH211534   3.632   5.238   2.218 -0.2651  0.4174  0.4948
 3843TIP3    H111535   3.552   5.196   2.249 -0.7158 -0.8190 -2.0572
 3843TIP3    H211536   3.693   5.165   2.201  0.1769  1.0328 -0.7343
 3844TIP3   OH211537   1.656   1.705   3.806 -0.0127  0.0886 -0.1309
 3844TIP3    H111538   1.624   1.774   3.747  1.8216  0.1551 -1.1222
 3844TIP3    H211539   1.709   1.649   3.750  1.2253 -0.2455  1.3232
 3845TIP3   OH211540   1.200   2.031   4.316  0.4022 -0.0069 -0.2401
 3845TIP3    H111541   1.164   2.107   4.271 -1.0202 -0.8358 -0.5912
 3845TIP3    H211542   1.177   2.045   4.408  1.3755  0.6352 -0.0817
 3846TIP3   OH211543   3.723   1.223   0.801 -0.1297 -0.0189 -0.2431
 3846TIP3    H111544   3.705   1.129   0.805  0.7581 -0.1739  0.7832
 3846TIP3    H211545   3.637   1.264   0.788 -0.4276 -0.9969 -1.5059
 3847TIP3   OH211546   2.096   4.668   1.821  0.6114  0.3482 -0.1981
 3847TIP3    H111547   2.022   4.717   1.788 -0.5501 -0.6033  0.8998
 3847TIP3    H211548   2.119   4.712   1.903  2.2115  1.4969 -1.2003
 3848TIP3   OH211549   3.081   3.543   3.056 -0.1300 -0.2758 -0.7939
 3848TIP3    H111550   3.048   3.488   3.127 -0.4151  0.6656 -0.1720
 3848TIP3    H211551   3.163   3.501   3.030  0.5105 -0.0858  0.7994
 3849TIP3   OH211552   5.583   2.650   4.117 -0.7155  0.0127 -0.1808
 3849TIP3    H111553   5.613   2.626   4.030  0.2055 -0.3903  0.2277
 3849TIP3    H211554   5.656   2.700   4.154 -1.3408  0.6970  0.1381
 3850TIP3   OH211555   2.583   4.575   4.614  0.6658 -0.1928  0.4653
 3850TIP3    H111556   2.627   4.539   4.537 -3.5872 -0.3698 -2.1889
 3850TIP3    H211557   2.601   4.669   4.610  0.3067 -0.1706 -0.8920
 3851TIP3   OH211558   5.793   0.613   0.621  0.6364  0.0191 -0.3581
 3851TIP3    H111559   5.703   0.604   0.650  1.0649 -2.0386  0.5519
 3851TIP3    H211560   5.789   0.600   0.526 -0.0897  0.5749 -0.4060
 3852TIP3   OH211561   4.535   4.003   2.415  0.4024 -0.5104 -0.4412
 3852TIP3    H111562   4.606   4.061   2.387  0.3370 -0.5620 -0.7168
 3852TIP3    H211563   4.565   3.915   2.391 -0.1105 -0.4588 -1.3265
 3853TIP3   OH211564   1.058   5.496   3.206  0.2763  0.8716 -0.0703
 3853TIP3    H111565   1.065   5.437   3.131  0.5079  0.3894  0.3279
 3853TIP3    H211566   0.964   5.496   3.227  0.3635  0.1167  0.3447
 3854TIP3   OH211567   0.508   0.394   3.486 -0.1096  0.0208 -0.2360
 3854TIP3    H111568   0.449   0.320   3.499  2.2644 -2.1162 -0.7229
 3854TIP3    H211569   0.570   0.389   3.559  0.0657  1.5992 -0.2411
 3855TIP3   OH211570   3.189   3.816   0.669  0.4195  0.1441 -0.8692
 3855TIP3    H111571   3.170   3.728   0.701 -1.4888  0.6022 -0.5855
 3855TIP3    H211572   3.221   3.863   0.746  0.2174  0.0219 -0.7079
 3856TIP3   OH211573   1.072   2.363   1.489  0.0762 -0.0347  0.2395
 3856TIP3    H111574   1.100   2.434   1.431  0.6767 -0.1090  0.4345
 3856TIP3    H211575   0.995   2.398   1.534  0.7152  0.7240  0.7788
 3857TIP3   OH211576   5.462   4.562   2.256  0.2268 -0.1917  0.1940
 3857TIP3    H111577   5.388   4.616   2.228  0.6572  1.3405  1.8650
 3857TIP3    H211578   5.427   4.473   2.259 -0.9577  0.1952 -1.0049
 3858TIP3   OH211579   5.913   2.222   0.732 -0.3154  0.2942 -0.3759
 3858TIP3    H111580   5.890   2.315   0.731  1.8398  0.9069  0.7595
 3858TIP3    H211581   5.854   2.182   0.668 -1.7847  2.2982 -0.3803
 3859TIP3   OH211582   6.019   5.974   3.648 -0.3086  0.6507 -0.3638
 3859TIP3    H111583   5.982   5.894   3.685  0.5701  0.1996 -0.4333
 3859TIP3    H211584   5.946   6.016   3.604 -0.4105 -1.0891 -1.9945
 3860TIP3   OH211585   1.544   3.531   3.683  0.4285  0.0253  0.0935
 3860TIP3    H111586   1.505   3.479   3.753 -0.0186  1.0646  0.6374
 3860TIP3    H211587   1.630   3.491   3.670 -1.0806 -2.9475 -1.8415
 3861TIP3   OH211588   2.511   5.090   1.966 -0.0998  0.2772 -0.7516
 3861TIP3    H111589   2.501   5.020   1.901  2.0941  0.6744 -1.6336
 3861TIP3    H211590   2.593   5.069   2.011 -1.1326  0.5020  1.3199
 3862TIP3   OH211591   2.720   0.177   3.650  0.3097 -0.3031  0.2235
 3862TIP3    H111592   2.713   0.166   3.745  0.5844 -3.6150 -0.0133
 3862TIP3    H211593   2.795   0.124   3.625  1.0904  1.6026 -1.7538
 3863TIP3   OH211594   0.027   2.232   2.735 -0.3622 -0.0138  0.0145
 3863TIP3    H111595   0.007   2.290   2.808 -0.5583 -0.9135  0.6879
 3863TIP3    H211596   0.052   2.291   2.664  3.2416  0.8403  1.7353
 3864TIP3   OH211597   0.380   5.622   4.605 -0.0813 -0.1076 -0.1890
 3864TIP3    H111598   0.470   5.612   4.573 -0.6255 -0.7438 -1.6164
 3864TIP3    H211599   0.387   5.611   4.700  1.2366 -0.9182 -0.3514
 3865TIP3   OH211600   6.160   1.728   0.018 -0.3088  0.8157 -0.6722
 3865TIP3    H111601   6.147   1.634   0.036  1.0805  0.8124  0.5560
 3865TIP3    H211602   6.252   1.734  -0.010 -0.1055  1.9046  0.1613
 3866TIP3   OH211603   1.595   5.751   1.957 -0.1226  0.0152 -0.0418
 3866TIP3    H111604   1.634   5.743   1.870  0.5996 -0.3401  0.3115
 3866TIP3    H211605   1.503   5.769   1.940  0.0902  0.3621 -0.8857
 3867TIP3   OH211606   0.898   2.750   3.400  0.1976  0.5464  0.7657
 3867TIP3    H111607   0.978   2.716   3.360 -0.7612 -0.7021 -0.1972
 3867TIP3    H211608   0.873   2.824   3.346  0.4433  0.6396  0.7805
 3868TIP3   OH211609   4.290   1.153   4.828 -0.1750  0.2447  0.1735
 3868TIP3    H111610   4.372   1.146   4.879 -0.7682 -0.3866  1.0756
 3868TIP3    H211611   4.263   1.244   4.838 -1.3364 -0.2912  2.7476
 3869TIP3   OH211612   0.218   4.274   4.198  0.4064  0.0264 -0.0302
 3869TIP3    H111613   0.242   4.340   4.133  0.7277 -0.6928 -0.6582
 3869TIP3    H211614   0.214   4.322   4.281  1.0753  0.7442 -0.4045
 3870TIP3   OH211615   2.609   2.109   2.495 -0.3332  0.3988 -0.7039
 3870TIP3    H111616   2.628   2.020   2.523 -1.4624  0.3740  0.0396
 3870TIP3    H211617   2.533   2.100   2.437  0.0214  0.8004 -1.2417
 3871TIP3   OH211618   1.533   5.844   2.480 -0.6748  0.4916 -0.2126
 3871TIP3    H111619   1.465   5.852   2.412 -1.7521 -0.8137  0.6663
 3871TIP3    H211620   1.508   5.767   2.530  1.0134  0.4793  0.6782
 3872TIP3   OH211621   5.528   5.177   1.337 -0.3420  0.0445  0.1650
 3872TIP3    H111622   5.533   5.096   1.286 -0.1670 -0.3366  0.7778
 3872TIP3    H211623   5.524   5.148   1.428 -2.9882  0.6087  0.3235
 3873TIP3   OH211624   1.603   2.520   0.488 -0.2163  0.1572 -0.5411
 3873TIP3    H111625   1.666   2.495   0.555  1.1094 -1.3222 -2.2374
 3873TIP3    H211626   1.611   2.615   0.482  3.3565 -0.0591 -1.9739
 3874TIP3   OH211627   1.968   2.067   3.608  0.1542  0.0317 -0.2800
 3874TIP3    H111628   1.905   2.005   3.571 -0.5229 -0.2708  1.2877
 3874TIP3    H211629   2.005   2.021   3.683 -0.2304  1.4396  0.8181
 3875TIP3   OH211630   0.022   1.707   3.988 -0.2306  0.5923 -0.2010
 3875TIP3    H111631  -0.055   1.659   3.956  0.4622 -0.8366  0.1785
 3875TIP3    H211632   0.094   1.644   3.980  0.6903  1.5347  0.4701
 3876TIP3   OH211633   6.115   0.583   0.283  0.0879  0.2102  0.2347
 3876TIP3    H111634   6.047   0.646   0.306 -0.2397 -0.4070  0.9822
 3876TIP3    H211635   6.167   0.574   0.363  1.0900  0.7004 -0.3290
 3877TIP3   OH211636   2.674   3.968   0.991  0.2948 -0.1924 -0.1777
 3877TIP3    H111637   2.644   4.059   0.997  1.3874  0.1344  0.5433
 3877TIP3    H211638   2.764   3.974   0.959  0.5683 -0.9787  0.4014
 3878TIP3   OH211639   4.664   4.232   4.202 -0.0462  0.0438  0.1864
 3878TIP3    H111640   4.687   4.228   4.109 -0.1899  0.6129  0.1220
 3878TIP3    H211641   4.733   4.182   4.246  1.1053  1.3479 -0.0492
 3879TIP3   OH211642   2.085   5.321   3.125  0.0920 -0.2181  0.2478
 3879TIP3    H111643   2.115   5.377   3.054 -1.6768 -0.9863 -1.1877
 3879TIP3    H211644   2.118   5.363   3.205 -1.8597  3.4285 -0.6497
 3880TIP3   OH211645   5.830   0.844   2.435 -0.9212 -0.1339 -0.2177
 3880TIP3    H111646   5.845   0.897   2.357  0.9447 -0.7568 -0.3352
 3880TIP3    H211647   5.857   0.756   2.409 -3.2158 -1.0199  0.2137
 3881TIP3   OH211648   1.947   5.356   0.421 -0.5968 -0.3848  0.2888
 3881TIP3    H111649   2.000   5.287   0.461 -1.6259 -1.5858 -0.3360
 3881TIP3    H211650   1.857   5.325   0.431 -0.9890  0.1804 -1.2719
 3882TIP3   OH211651   2.580   0.295   0.397 -0.0255 -0.4305  0.0436
 3882TIP3    H111652   2.540   0.257   0.475 -0.5391 -1.3917 -0.6603
 3882TIP3    H211653   2.659   0.339   0.429 -0.2205 -0.8141  1.0937
 3883TIP3   OH211654   2.265   2.373   2.871  0.4806  0.0765 -0.2865
 3883TIP3    H111655   2.229   2.291   2.904 -1.3912  0.9080 -0.1817
 3883TIP3    H211656   2.233   2.379   2.781 -1.1786  1.6543  0.3506
 3884TIP3   OH211657   1.410   3.052   0.580  0.1076  0.5058 -0.0645
 3884TIP3    H111658   1.406   3.038   0.675  1.1945  0.3397 -0.0294
 3884TIP3    H211659   1.495   3.094   0.566 -0.0073  0.4388 -0.9772
 3885TIP3   OH211660   4.330   5.492   4.995 -0.4248  0.0551  0.1968
 3885TIP3    H111661   4.376   5.535   5.067 -0.2505  0.6777 -0.2778
 3885TIP3    H211662   4.291   5.414   5.035 -0.5383  0.5210  1.0150
 3886TIP3   OH211663   0.444   1.216   4.000 -0.0884  0.1085  0.2086
 3886TIP3    H111664   0.469   1.232   4.091 -0.3261 -0.8892  0.4626
 3886TIP3    H211665   0.437   1.303   3.961  1.4183  0.5127  0.7589
 3887TIP3   OH211666   6.012   2.265   2.444 -0.3663 -0.0770  0.2836
 3887TIP3    H111667   6.031   2.201   2.375 -2.7214 -0.9214  0.3427
 3887TIP3    H211668   6.032   2.349   2.404  0.1841 -0.6703 -0.7479
 3888TIP3   OH211669   4.155   2.669   1.466  0.6637  0.2052  0.4977
 3888TIP3    H111670   4.182   2.578   1.452 -0.9180  0.1005 -2.8872
 3888TIP3    H211671   4.238   2.716   1.479  1.5371 -1.6002  1.9074
 3889TIP3   OH211672   0.911   0.568   1.361 -0.4870  0.9279 -0.0891
 3889TIP3    H111673   0.991   0.619   1.355 -0.8457  1.8039  1.7512
 3889TIP3    H211674   0.873   0.593   1.445 -1.1448 -1.7316  0.4956
 3890TIP3   OH211675   4.699   0.324   2.149  0.2028  0.1201  0.2837
 3890TIP3    H111676   4.621   0.378   2.161  0.5369  0.7864 -0.4772
 3890TIP3    H211677   4.678   0.242   2.195  0.1326  1.2869  2.4918
 3891TIP3   OH211678   4.341   0.128   4.220  0.3725  0.0283 -0.3207
 3891TIP3    H111679   4.283   0.052   4.226  0.4824 -0.1891 -1.6434
 3891TIP3    H211680   4.315   0.183   4.294 -0.7471 -0.5969 -0.2130
 3892TIP3   OH211681   3.803   5.771   1.472  0.1077 -0.1256  0.6193
 3892TIP3    H111682   3.736   5.816   1.421 -0.3320  1.7212  2.6765
 3892TIP3    H211683   3.765   5.762   1.560  0.4590 -4.0125  0.5419
 3893TIP3   OH211684   0.767   1.685   3.036 -0.9203  0.0170  0.6182
 3893TIP3    H111685   0.758   1.734   2.954  0.8118 -1.4899 -0.5416
 3893TIP3    H211686   0.828   1.736   3.088  0.5866 -0.6517 -0.4303
 3894TIP3   OH211687   5.308   0.152   3.393 -0.5850  0.1373  0.3204
 3894TIP3    H111688   5.295   0.210   3.468  0.9878  1.0388 -0.0539
 3894TIP3    H211689   5.269   0.199   3.319 -1.1332 -0.2323  0.3717
 3895TIP3   OH211690   5.656   2.429   2.337 -0.3626  0.0111  0.5532
 3895TIP3    H111691   5.581   2.428   2.277  1.4886  1.0872 -1.9499
 3895TIP3    H211692   5.692   2.341   2.331 -0.4973 -0.0426  0.5254
 3896TIP3   OH211693   1.548   3.764   0.386  0.1668 -0.2200  0.6165
 3896TIP3    H111694   1.550   3.858   0.402 -0.9761 -0.3624  1.7196
 3896TIP3    H211695   1.541   3.756   0.291 -0.2758  0.8095  0.5495
 3897TIP3   OH211696   5.129   1.274   2.470 -0.3086  0.4601 -0.1166
 3897TIP3    H111697   5.218   1.311   2.469  0.3086 -0.9779 -0.1466
 3897TIP3    H211698   5.138   1.190   2.425 -1.8653  0.6770 -0.8665
 3898TIP3   OH211699   4.900   3.475   3.500  0.2216 -0.0089  0.6566
 3898TIP3    H111700   4.973   3.500   3.443 -0.1702 -0.6330 -0.1415
 3898TIP3    H211701   4.836   3.434   3.441 -0.0860 -0.9094  1.5728
 3899TIP3   OH211702   4.527   5.527   3.117 -0.4931 -0.2654 -0.0637
 3899TIP3    H111703   4.563   5.565   3.197 -1.1357 -0.1457  0.1739
 3899TIP3    H211704   4.440   5.566   3.109  0.6026  2.0111 -2.4062
 3900TIP3   OH211705   1.976   5.957   0.565  0.2435  0.1542  0.8660
 3900TIP3    H111706   1.936   5.988   0.647  0.6593  2.4034  0.2994
 3900TIP3    H211707   2.065   5.993   0.568  1.1941 -2.0395  0.6236
 3901TIP3   OH211708   3.248   4.223   1.400 -0.0232 -0.2755  0.3699
 3901TIP3    H111709   3.222   4.211   1.309 -1.2284 -0.7682  0.7639
 3901TIP3    H211710   3.219   4.143   1.444 -0.2923  0.3513  1.3639
 3902TIP3   OH211711   5.405   0.787   0.817  0.2480 -0.2777  0.5195
 3902TIP3    H111712   5.431   0.696   0.830 -0.5979 -0.8450 -1.3738
 3902TIP3    H211713   5.383   0.819   0.905  0.9198 -1.7732  1.2569
 3903TIP3   OH211714   0.084   4.386   5.121 -0.1861 -0.3520  0.3851
 3903TIP3    H111715   0.164   4.370   5.071 -0.2673 -0.7600  0.3848
 3903TIP3    H211716   0.082   4.316   5.186 -0.8371 -0.6835  0.0164
 3904TIP3   OH211717   2.693   2.489   3.803  0.4227  0.0374  0.0965
 3904TIP3    H111718   2.706   2.555   3.872 -0.4263 -0.3023  0.5933
 3904TIP3    H211719   2.778   2.444   3.798  1.3069  1.7018 -0.8587
 3905TIP3   OH211720   5.137   1.920   3.208  0.0243 -0.2977  0.6254
 3905TIP3    H111721   5.113   2.011   3.194 -3.1982 -1.1305  0.0709
 3905TIP3    H211722   5.162   1.888   3.121 -2.6579 -0.8693 -0.0124
 3906TIP3   OH211723   6.174   2.262   1.669 -0.3533 -0.0478  0.1408
 3906TIP3    H111724   6.188   2.265   1.763 -0.4252  0.1914  0.1438
 3906TIP3    H211725   6.142   2.349   1.646  0.6449  0.2292 -0.2633
 3907TIP3   OH211726   5.669   3.736   3.874 -0.7699 -0.7538  0.4416
 3907TIP3    H111727   5.634   3.778   3.953 -1.6351  0.0055 -0.3325
 3907TIP3    H211728   5.754   3.703   3.901 -0.7859  0.0383  1.5373
 3908TIP3   OH211729   4.483   4.416   2.876 -0.0489  0.0761 -0.0568
 3908TIP3    H111730   4.476   4.486   2.811 -0.7800  0.9777  0.9581
 3908TIP3    H211731   4.493   4.337   2.825 -0.6165  0.7663 -1.2746
 3909TIP3   OH211732   0.757   3.598   2.001 -0.6097 -0.1239 -0.2787
 3909TIP3    H111733   0.665   3.611   2.023 -0.6346 -0.1077 -0.3895
 3909TIP3    H211734   0.792   3.687   1.988 -0.7074 -0.1472 -0.7449
 3910TIP3   OH211735   5.226   3.053   0.901  0.0543 -0.3159 -0.5365
 3910TIP3    H111736   5.298   3.036   0.963 -1.6088 -0.1051  1.5965
 3910TIP3    H211737   5.214   2.971   0.855  1.6435 -0.3557 -0.9385
 3911TIP3   OH211738   0.400   2.074   0.515  0.5181 -0.2190 -0.0190
 3911TIP3    H111739   0.432   1.984   0.505 -0.3012 -0.5300  0.0248
 3911TIP3    H211740   0.452   2.110   0.586  3.2752  0.5183 -2.2378
 3912TIP3   OH211741   0.772   2.879   2.922  0.8841 -0.1170 -0.0740
 3912TIP3    H111742   0.834   2.927   2.867  1.0742 -0.3318 -0.0506
 3912TIP3    H211743   0.797   2.902   3.012  0.3566  0.5049 -0.0758
 3913TIP3   OH211744   5.884   0.250   3.805  0.3582 -0.6703 -0.1886
 3913TIP3    H111745   5.917   0.303   3.732 -0.6185 -1.1350 -1.0002
 3913TIP3    H211746   5.959   0.199   3.834  0.7781 -0.4286 -0.8278
 3914TIP3   OH211747   1.069   4.520   5.048  0.0017 -0.1407  0.4726
 3914TIP3    H111748   1.053   4.426   5.059 -0.0628 -0.1831  0.0174
 3914TIP3    H211749   1.023   4.561   5.121 -1.8756 -0.2823 -0.5772
 3915TIP3   OH211750   0.142   2.400   1.740  0.5162  0.1106  0.0224
 3915TIP3    H111751   0.211   2.334   1.737 -2.5202 -3.3649 -1.3753
 3915TIP3    H211752   0.100   2.387   1.825 -0.6521 -0.4754 -0.6169
 3916TIP3   OH211753   6.288   1.673   2.041  0.2317 -0.2867  0.2666
 3916TIP3    H111754   6.377   1.659   2.073 -0.0474 -1.0920  0.7069
 3916TIP3    H211755   6.288   1.636   1.952  0.7699  1.1809 -0.3764
 3917TIP3   OH211756   5.118   3.749   4.025  0.0240  0.8428  0.4114
 3917TIP3    H111757   5.170   3.784   4.098 -1.4959  2.7672  0.6402
 3917TIP3    H211758   5.183   3.726   3.958  1.4338 -0.6070  2.1509
 3918TIP3   OH211759   0.243   0.805   1.836  0.0102  0.5930 -0.1249
 3918TIP3    H111760   0.226   0.759   1.919 -1.2335  0.3248 -0.5050
 3918TIP3    H211761   0.322   0.855   1.852  0.7980 -0.8476  0.6587
 3919TIP3   OH211762   4.741   5.123   2.375  0.0680  0.3349 -0.0919
 3919TIP3    H111763   4.708   5.154   2.459 -0.4432  0.6595 -0.4031
 3919TIP3    H211764   4.836   5.135   2.380 -0.0250  1.0008  0.1774
 3920TIP3   OH211765   0.547   2.060   2.903  0.2588 -0.4393 -0.6369
 3920TIP3    H111766   0.610   2.131   2.913 -2.2796  1.8127  0.5203
 3920TIP3    H211767   0.534   2.052   2.809 -0.2768  1.5077 -0.7602
 3921TIP3   OH211768   1.982   2.149   4.621  0.4662  0.4276 -0.5412
 3921TIP3    H111769   1.901   2.173   4.576  1.1924  1.1015 -1.5357
 3921TIP3    H211770   2.051   2.176   4.561  1.4821  1.2217  0.9276
 3922TIP3   OH211771   5.130   5.927   2.600 -0.2913 -0.2031 -0.1212
 3922TIP3    H111772   5.037   5.916   2.579 -0.4454  1.5973 -0.5319
 3922TIP3    H211773   5.140   6.020   2.621  1.3889 -0.3864  0.0808
 3923TIP3   OH211774   4.084   1.970   0.919 -0.2802 -0.3552 -0.2468
 3923TIP3    H111775   4.082   2.066   0.928 -1.3664 -0.3957  0.0550
 3923TIP3    H211776   4.097   1.938   1.008  0.0506 -0.4932 -0.3434
 3924TIP3   OH211777   3.099   2.068   1.978  0.2219 -0.1660 -0.2092
 3924TIP3    H111778   3.109   2.019   2.060  1.6868 -0.5703 -0.5853
 3924TIP3    H211779   3.155   2.021   1.916  0.1842  0.9063 -1.0849
 3925TIP3   OH211780   3.860   1.757   0.835  0.2182 -0.0293 -0.0236
 3925TIP3    H111781   3.895   1.779   0.922  0.7294  1.5248 -0.5845
 3925TIP3    H211782   3.785   1.701   0.853  0.6718 -0.2247  1.3985
 3926TIP3   OH211783   2.433   1.465   1.355 -0.0611  0.2451  0.5782
 3926TIP3    H111784   2.394   1.507   1.432 -0.7956  0.2200  0.2369
 3926TIP3    H211785   2.365   1.473   1.288 -0.5547 -2.1132  0.6912
 3927TIP3   OH211786   0.147   3.765   3.095 -0.1422  0.5133  0.2475
 3927TIP3    H111787   0.119   3.807   3.177  0.8511  3.1205 -0.6678
 3927TIP3    H211788   0.242   3.777   3.094 -0.2400  1.4060 -1.7154
 3928TIP3   OH211789   2.300   2.744   1.799 -0.4656 -0.3145  0.0953
 3928TIP3    H111790   2.350   2.825   1.808 -1.3667  0.3149 -0.4232
 3928TIP3    H211791   2.281   2.718   1.889  1.9225 -1.3257  0.3867
 3929TIP3   OH211792   2.345   5.637   4.973  0.4659  0.4039  0.2245
 3929TIP3    H111793   2.282   5.627   5.044  2.1861 -0.0573  1.7711
 3929TIP3    H211794   2.305   5.701   4.914 -1.1829  0.5191  1.4065
 3930TIP3   OH211795   2.480   2.329   0.469  0.2364  0.1962 -0.2827
 3930TIP3    H111796   2.558   2.306   0.418 -0.7913 -1.1856 -1.2774
 3930TIP3    H211797   2.434   2.246   0.482 -1.7826  1.1555 -0.9088
 3931TIP3   OH211798   5.605   1.648   4.457 -0.3695 -0.1968 -0.1049
 3931TIP3    H111799   5.681   1.631   4.512 -0.6329 -0.8637  0.0638
 3931TIP3    H211800   5.630   1.617   4.370 -0.2817  0.0180 -0.1574
 3932TIP3   OH211801   0.692   5.630   4.937 -0.5650 -0.0245  1.0971
 3932TIP3    H111802   0.680   5.693   5.008  2.3982  3.4149 -1.1327
 3932TIP3    H211803   0.775   5.654   4.897 -0.4748 -3.8676 -1.5552
 3933TIP3   OH211804   5.757   4.464   1.452  0.1079  0.0261  0.0503
 3933TIP3    H111805   5.795   4.527   1.392  1.0823 -0.4608  0.1369
 3933TIP3    H211806   5.690   4.418   1.401  0.3712  0.1658 -0.4170
 3934TIP3   OH211807   2.455   2.987   5.129 -0.1678 -0.1642  0.7386
 3934TIP3    H111808   2.386   3.033   5.079 -0.6208  0.7845  2.1854
 3934TIP3    H211809   2.418   2.900   5.144  0.1863 -0.6580 -0.9678
 3935TIP3   OH211810   0.609   2.368   4.667 -0.4425 -0.1658 -0.4580
 3935TIP3    H111811   0.622   2.410   4.752 -0.8741  0.1675 -0.5559
 3935TIP3    H211812   0.620   2.438   4.604  2.2232 -0.8253 -0.8470
 3936TIP3   OH211813   1.919   5.090   2.312 -0.1139  0.0932  0.0094
 3936TIP3    H111814   1.863   5.016   2.288  1.3555 -1.0359 -0.0897
 3936TIP3    H211815   1.905   5.101   2.406  0.6737 -1.2486  0.3119
 3937TIP3   OH211816   5.961   0.266   3.301 -0.0758  0.3012 -0.5264
 3937TIP3    H111817   5.922   0.194   3.351  1.2167 -0.0716 -0.0066
 3937TIP3    H211818   5.911   0.268   3.220 -0.2775 -1.0676 -0.4678
 3938TIP3   OH211819   5.715   5.320   3.305  0.2849  0.1871  0.6187
 3938TIP3    H111820   5.669   5.282   3.230  0.6565  1.1091 -0.0977
 3938TIP3    H211821   5.791   5.264   3.318  0.4867  0.3022 -0.0204
 3939TIP3   OH211822   0.702   3.248   0.656 -0.2209 -0.1247  1.2009
 3939TIP3    H111823   0.793   3.274   0.669  0.1463 -0.5436 -0.2908
 3939TIP3    H211824   0.682   3.275   0.566 -1.0493 -1.4555  0.9479
 3940TIP3   OH211825   2.970   3.113   4.541 -0.1290  0.1480 -0.2282
 3940TIP3    H111826   2.997   3.196   4.581 -0.0693 -0.9935  2.2603
 3940TIP3    H211827   2.939   3.060   4.614 -1.2615 -1.6354 -1.9110
 3941TIP3   OH211828   3.549   4.063   1.495 -0.1318 -0.2815  0.2920
 3941TIP3    H111829   3.628   4.008   1.494 -1.4505 -2.3182 -1.8807
 3941TIP3    H211830   3.508   4.044   1.580  0.6509 -0.8261  0.5599
 3942TIP3   OH211831   1.507   0.699   1.423 -0.3828 -0.2329 -0.3862
 3942TIP3    H111832   1.491   0.701   1.517 -2.4296 -0.6489 -0.6782
 3942TIP3    H211833   1.486   0.609   1.398  1.4051 -0.5069 -1.0818
 3943TIP3   OH211834   3.662   3.596   2.359  0.0410  0.1362 -0.3182
 3943TIP3    H111835   3.721   3.521   2.354 -0.7109 -0.3811 -1.8974
 3943TIP3    H211836   3.577   3.560   2.383  0.0149  0.6835  0.4388
 3944TIP3   OH211837   3.249   0.049   4.724 -0.0930  0.0634 -0.0179
 3944TIP3    H111838   3.182   0.115   4.705  0.6496  0.7848 -0.1467
 3944TIP3    H211839   3.249  -0.007   4.647  0.2520  0.7402 -0.5124
 3945TIP3   OH211840   2.781   4.145   3.189 -0.0372  0.2183 -0.6676
 3945TIP3    H111841   2.798   4.051   3.185 -0.7396  0.0871 -0.7618
 3945TIP3    H211842   2.708   4.159   3.129 -1.6208  0.4115  1.1716
 3946TIP3   OH211843   6.189   0.662   1.112 -0.1041 -0.1052  0.0484
 3946TIP3    H111844   6.248   0.631   1.181  0.7571  2.2959  0.4708
 3946TIP3    H211845   6.144   0.738   1.150 -0.3141  0.7027 -1.6999
 3947TIP3   OH211846   4.865   2.679   3.643 -0.0039  0.3563  0.4344
 3947TIP3    H111847   4.787   2.717   3.683 -0.0151  0.4508  0.3245
 3947TIP3    H211848   4.869   2.718   3.556 -0.4222 -0.4490  0.0478
 3948TIP3   OH211849   0.366   5.087   1.467  0.2109 -0.3334  0.2661
 3948TIP3    H111850   0.455   5.107   1.439 -0.1279  0.0796 -0.5513
 3948TIP3    H211851   0.371   5.081   1.563  0.8886  0.8439  0.3227
 3949TIP3   OH211852   4.985   4.239   0.933  0.1147 -0.8825 -0.2191
 3949TIP3    H111853   4.976   4.203   0.845 -2.0565 -0.0976 -0.3773
 3949TIP3    H211854   4.959   4.330   0.924  1.3971 -0.3616  0.9781
 3950TIP3   OH211855   0.200   4.731   3.022  0.0402 -0.3355  0.9132
 3950TIP3    H111856   0.241   4.654   3.061 -0.3347 -1.1281 -0.2071
 3950TIP3    H211857   0.188   4.791   3.095  0.4096 -1.3044  1.7978
 3951TIP3   OH211858   4.485   0.903   2.145 -0.0613 -0.6655  0.1949
 3951TIP3    H111859   4.501   0.824   2.093  0.8475 -0.3619 -0.0138
 3951TIP3    H211860   4.533   0.888   2.227  0.7346 -0.0462 -0.1358
 3952TIP3   OH211861   1.823   5.952   0.807 -0.1625 -0.0294 -0.7148
 3952TIP3    H111862   1.754   5.965   0.742 -1.6549  0.4350  0.9207
 3952TIP3    H211863   1.804   5.867   0.846  0.7058 -0.2824 -0.8024
 3953TIP3   OH211864   1.098   2.152   0.764  0.4608  0.3073  0.3105
 3953TIP3    H111865   1.128   2.069   0.800  1.4600  0.6276  0.2540
 3953TIP3    H211866   1.005   2.140   0.748  0.4276 -0.5192  1.0900
 3954TIP3   OH211867   3.273   4.218   4.308 -0.0531  0.1525  0.0299
 3954TIP3    H111868   3.210   4.147   4.318 -0.5336  0.5246 -0.3225
 3954TIP3    H211869   3.308   4.207   4.220 -0.8278  0.9103 -0.3796
 3955TIP3   OH211870   1.096   1.071   3.882  0.0143 -0.4679  0.0786
 3955TIP3    H111871   1.041   1.057   3.804 -0.8204 -0.4495  0.6484
 3955TIP3    H211872   1.048   1.136   3.933  1.1292  0.3784  0.0770
 3956TIP3   OH211873   2.450   0.755   3.448 -0.0199 -0.3547  0.6406
 3956TIP3    H111874   2.445   0.677   3.394  1.6314  0.3885 -0.7111
 3956TIP3    H211875   2.510   0.731   3.519 -0.4806 -0.6875  0.9155
 3957TIP3   OH211876   2.549   0.233   2.808  0.2194  0.1085  0.2237
 3957TIP3    H111877   2.621   0.260   2.865 -1.0421  1.4090  1.2695
 3957TIP3    H211878   2.520   0.150   2.843 -0.1730  0.6236  1.1492
 3958TIP3   OH211879   5.119   3.484   3.143 -0.4883  0.2724 -0.5860
 3958TIP3    H111880   5.153   3.410   3.193 -1.2156 -1.1031 -2.0346
 3958TIP3    H211881   5.085   3.544   3.209  3.8573  1.4496  0.9824
 3959TIP3   OH211882   3.020   3.937   4.767 -0.3903 -0.2177  0.5438
 3959TIP3    H111883   3.017   3.953   4.673  0.2328 -0.2244  0.5184
 3959TIP3    H211884   2.932   3.904   4.789 -0.5369 -0.2106 -0.0292
 3960TIP3   OH211885   4.283   3.583   4.634  0.1883 -0.0710  0.2366
 3960TIP3    H111886   4.227   3.578   4.557 -0.5888  1.5526  0.6533
 3960TIP3    H211887   4.235   3.534   4.702  0.7992 -1.3653 -0.2373
 3961TIP3   OH211888   0.902   5.345   3.659 -0.0597 -0.1259 -0.1067
 3961TIP3    H111889   0.818   5.390   3.665 -0.1057 -0.3556  1.2130
 3961TIP3    H211890   0.885   5.256   3.691  0.7273 -0.1008  0.4173
 3962TIP3   OH211891   1.551   1.547   3.998 -0.6404 -0.0992  0.1697
 3962TIP3    H111892   1.567   1.472   3.940  0.2949  0.2380 -0.0220
 3962TIP3    H211893   1.569   1.624   3.944 -2.6744  0.3374  0.0217
 3963TIP3   OH211894   5.299   3.634   3.499 -0.8129 -0.2871  0.4213
 3963TIP3    H111895   5.291   3.659   3.591  0.5567 -1.0922  0.7869
 3963TIP3    H211896   5.393   3.624   3.485 -1.0398 -0.7312 -0.9201
 3964TIP3   OH211897   4.633   0.763   3.193  0.0959  0.0806  0.2616
 3964TIP3    H111898   4.651   0.750   3.286  1.8714 -1.7372 -0.2759
 3964TIP3    H211899   4.677   0.845   3.172  2.8260 -1.2536  0.3298
 3965TIP3   OH211900   3.198   0.722   3.083  0.5179 -0.4597  0.8070
 3965TIP3    H111901   3.189   0.796   3.143  0.1658 -1.1497  1.6247
 3965TIP3    H211902   3.206   0.762   2.997  0.3813  0.5344  1.2425
 3966TIP3   OH211903   1.013   4.947   3.285  0.0901 -0.2632 -0.5364
 3966TIP3    H111904   1.033   4.983   3.199 -0.0018  1.1946  0.0228
 3966TIP3    H211905   1.084   4.978   3.341 -0.5820 -0.0235  0.2059
 3967TIP3   OH211906   3.677   4.299   4.588  0.0182 -0.0436 -0.0721
 3967TIP3    H111907   3.635   4.275   4.505 -0.1116 -0.9249  0.2315
 3967TIP3    H211908   3.608   4.342   4.638 -0.2771 -0.6824  0.0774
 3968TIP3   OH211909   5.223   0.333   4.782  0.0119 -0.0520  0.3778
 3968TIP3    H111910   5.318   0.344   4.786 -0.2161  2.0466  0.7646
 3968TIP3    H211911   5.194   0.334   4.873 -0.4446 -0.1402  0.2381
 3969TIP3   OH211912   5.204   0.616   5.001 -0.6299 -0.4040 -0.1808
 3969TIP3    H111913   5.241   0.635   4.915  1.7185 -1.6342  0.4758
 3969TIP3    H211914   5.220   0.522   5.014  0.9924  0.1247  2.3943
 3970TIP3   OH211915   5.092   5.623   1.694 -0.6376  0.7520  0.0558
 3970TIP3    H111916   5.103   5.605   1.787  0.7425 -0.4398 -0.3086
 3970TIP3    H211917   5.054   5.543   1.658  0.5941  0.4752 -0.6985
 3971TIP3   OH211918   4.274   5.135   3.717 -0.2366  0.4423 -0.1400
 3971TIP3    H111919   4.281   5.168   3.628 -0.5391  1.1267  0.0793
 3971TIP3    H211920   4.245   5.211   3.768  1.5022  0.4869  0.8340
 3972TIP3   OH211921   6.297   3.066   4.436  0.2954  0.2723  0.6053
 3972TIP3    H111922   6.353   3.077   4.513  0.1458  2.0390  0.5004
 3972TIP3    H211923   6.221   3.018   4.469  2.1670 -3.0219  0.5587
 3973TIP3   OH211924   0.465   4.221   2.998 -0.3448  0.1507  0.1000
 3973TIP3    H111925   0.513   4.299   2.970 -1.3700  1.0319  0.6923
 3973TIP3    H211926   0.524   4.177   3.059  1.0052 -0.5857 -1.6584
 3974TIP3   OH211927   3.179   4.113   3.621  0.2804  0.4025  0.6245
 3974TIP3    H111928   3.169   4.068   3.704 -0.1683  0.5781  0.6660
 3974TIP3    H211929   3.169   4.045   3.555  1.9562  0.0109  0.7269
 3975TIP3   OH211930   4.772   5.573   4.234 -0.0664  0.5240 -0.0839
 3975TIP3    H111931   4.676   5.573   4.233 -0.1165  1.4972  1.4761
 3975TIP3    H211932   4.795   5.483   4.259 -0.5277  0.0807 -1.1783
 3976TIP3   OH211933   4.421   4.632   3.375  0.0831  0.4298 -0.3593
 3976TIP3    H111934   4.439   4.574   3.301  0.8716 -0.8504  0.7809
 3976TIP3    H211935   4.372   4.705   3.337 -0.2707 -0.5966 -1.9846
 3977TIP3   OH211936   5.401   2.108   2.300  0.3168 -0.6801 -0.5982
 3977TIP3    H111937   5.440   2.040   2.246 -0.9356 -1.4718 -0.5296
 3977TIP3    H211938   5.309   2.085   2.306 -0.1035  0.9122 -0.3999
 3978TIP3   OH211939   6.353   1.506   0.552 -0.3417  0.1934  0.1547
 3978TIP3    H111940   6.278   1.501   0.611  0.8136  0.8390  1.7816
 3978TIP3    H211941   6.338   1.585   0.500 -0.9501  0.1256  0.2206
 3979TIP3   OH211942   4.637   4.820   1.263 -0.3626  0.2502  0.0675
 3979TIP3    H111943   4.624   4.811   1.357 -0.1303  1.9323  0.2861
 3979TIP3    H211944   4.561   4.869   1.232 -0.3357 -0.1070 -0.5841
 3980TIP3   OH211945   4.854   5.433   2.555 -0.8668 -0.1250 -0.6974
 3980TIP3    H111946   4.935   5.484   2.561 -0.3764 -0.9235 -0.3136
 3980TIP3    H211947   4.883   5.342   2.555 -1.8380 -0.4789  1.1825
 3981TIP3   OH211948   2.274   4.032   4.280  0.4439  0.3677 -0.1347
 3981TIP3    H111949   2.331   4.107   4.298  1.6640 -0.6794  0.6035
 3981TIP3    H211950   2.331   3.969   4.235 -0.4894 -0.2082 -0.5499
 3982TIP3   OH211951   3.574   2.719   5.178  0.1733 -0.4454  0.5347
 3982TIP3    H111952   3.645   2.779   5.158 -0.7985  0.3715 -0.6474
 3982TIP3    H211953   3.574   2.656   5.106 -1.1561  0.4266 -0.2951
 3983TIP3   OH211954   1.245   2.867   0.498  0.1763  0.3614 -0.4912
 3983TIP3    H111955   1.296   2.800   0.544  0.5586  0.4863 -0.7363
 3983TIP3    H211956   1.292   2.949   0.515 -0.2694  0.5679 -0.2238
 3984TIP3   OH211957   1.439   5.135   0.936  0.1600 -0.0597  0.2735
 3984TIP3    H111958   1.378   5.068   0.906 -1.4303  0.6261  1.7537
 3984TIP3    H211959   1.518   5.121   0.885 -1.2766 -0.9020 -1.8595
 3985TIP3   OH211960   4.987   5.184   4.108  0.2820 -0.3983 -0.0180
 3985TIP3    H111961   4.896   5.188   4.080  0.6957 -1.2570 -1.5595
 3985TIP3    H211962   5.033   5.245   4.051  0.6182  0.4755  1.1327
 3986TIP3   OH211963   2.252   0.504   1.959  0.9156 -0.6755  0.6032
 3986TIP3    H111964   2.187   0.467   1.898  0.6668 -1.5275  1.3561
 3986TIP3    H211965   2.324   0.532   1.903  0.0283  0.0148 -0.2238
 3987TIP3   OH211966   1.328   4.430   4.108 -0.1496 -0.4465 -0.5932
 3987TIP3    H111967   1.310   4.383   4.189 -1.6264  0.6600 -0.2336
 3987TIP3    H211968   1.357   4.362   4.047 -3.0178 -2.0649 -0.3778
 3988TIP3   OH211969   4.067   5.781   1.350  0.1317 -0.3987  0.4345
 3988TIP3    H111970   3.977   5.771   1.383  0.2072  1.3120  1.3154
 3988TIP3    H211971   4.056   5.812   1.261 -0.1188 -1.6611  0.0080
 3989TIP3   OH211972   2.566   0.673   3.045  0.3539  0.5440  0.1272
 3989TIP3    H111973   2.559   0.755   3.093  0.3604  0.1695  0.7719
 3989TIP3    H211974   2.612   0.696   2.964 -1.1255  1.5075 -0.4797
 3990TIP3   OH211975   5.973   0.209   0.485 -0.0140 -0.1407  0.2136
 3990TIP3    H111976   6.007   0.266   0.554  0.3604 -0.2471  0.1215
 3990TIP3    H211977   6.003   0.249   0.403  1.1329 -0.9989  0.1781
 3991TIP3   OH211978   3.153   3.993   1.468 -0.4957 -0.0300  0.2702
 3991TIP3    H111979   3.150   3.916   1.525 -1.3327  0.8280  1.4688
 3991TIP3    H211980   3.062   4.024   1.466 -0.6047 -0.3730 -2.0799
 3992TIP3   OH211981   4.936   4.040   1.740 -0.0866 -0.2167 -0.2877
 3992TIP3    H111982   4.864   4.040   1.804 -0.2011 -1.8110 -0.3861
 3992TIP3    H211983   4.974   4.128   1.748 -0.0815 -0.3573  2.0029
 3993TIP3   OH211984   3.475   0.439   1.149  0.4494  0.3761 -0.2876
 3993TIP3    H111985   3.520   0.358   1.177 -1.3613 -0.4860  0.2590
 3993TIP3    H211986   3.486   0.440   1.054  0.1834 -0.7428 -0.3522
 3994TIP3   OH211987   4.618   3.864   1.515 -0.2898 -0.2173  0.1511
 3994TIP3    H111988   4.713   3.867   1.503 -0.3954 -0.9726 -1.1711
 3994TIP3    H211989   4.593   3.955   1.532  0.6701 -0.0143  0.5510
 3995TIP3   OH211990   4.869   2.901   1.244 -0.5161  0.1435 -0.4062
 3995TIP3    H111991   4.954   2.876   1.208 -1.2610 -2.5992 -0.5078
 3995TIP3    H211992   4.830   2.956   1.177  0.7542  0.5735 -0.8235
 3996TIP3   OH211993   2.659   0.461   0.117  0.2575 -0.0556 -0.2482
 3996TIP3    H111994   2.682   0.424   0.202 -1.7703 -1.0649 -0.0624
 3996TIP3    H211995   2.642   0.554   0.135  2.2238  0.3108 -0.0774
 3997TIP3   OH211996   1.802   0.123   2.451  0.5329 -0.0755 -0.4961
 3997TIP3    H111997   1.881   0.148   2.500  0.5146 -1.2364  0.1698
 3997TIP3    H211998   1.759   0.206   2.431  0.9848  0.4855  0.7269
 3998TIP3   OH211999   0.073   0.036   4.634 -0.0199  0.7693 -0.2085
 3998TIP3    H112000   0.130   0.113   4.643 -1.2959  1.8739 -1.1206
 3998TIP3    H212001   0.118  -0.020   4.571  0.2141  1.4741 -0.6767
 3999TIP3   OH212002   5.998   1.978   3.983 -0.3688  0.2781 -0.6188
 3999TIP3    H112003   6.028   1.919   4.052  0.3130  0.8236 -0.4376
 3999TIP3    H212004   5.999   1.925   3.904 -0.4425 -0.1435 -0.3422
 4000TIP3   OH212005   5.489   1.137   2.290  0.2169 -0.2724 -0.2349
 4000TIP3    H112006   5.530   1.054   2.310  1.2677  0.0533 -0.9060
 4000TIP3    H212007   5.478   1.136   2.194  0.9459  0.6389 -0.3526
 4001TIP3   OH212008   4.885   4.652   3.538  0.1498  0.2535  0.4878
 4001TIP3    H112009   4.896   4.746   3.527 -1.6136  0.3660 -0.7623
 4001TIP3    H212010   4.822   4.643   3.609 -0.9930  0.1084 -0.5181
 4002TIP3   OH212011   5.215   4.005   5.067  0.1910 -0.1479  0.3521
 4002TIP3    H112012   5.179   4.091   5.045 -2.8827 -1.6442 -0.9630
 4002TIP3    H212013   5.207   4.000   5.163  0.2670  0.9484  0.4312
 4003TIP3   OH212014   1.548   0.502   0.862 -0.4873  0.3452  0.1138
 4003TIP3    H112015   1.557   0.471   0.953  1.6908  0.7756  0.0998
 4003TIP3    H212016   1.553   0.423   0.809 -1.3526  0.1347  0.3281
 4004TIP3   OH212017   1.523   4.242   0.822 -0.0588  0.6066 -0.2009
 4004TIP3    H112018   1.432   4.260   0.796 -0.9491 -1.7744  1.0002
 4004TIP3    H212019   1.531   4.283   0.908 -0.9318 -1.4383  0.9173
 4005TIP3   OH212020   2.129   4.499   2.164  0.6486 -0.5329  0.2192
 4005TIP3    H112021   2.140   4.407   2.142 -0.2459 -0.2479 -1.6958
 4005TIP3    H212022   2.044   4.504   2.209  0.8509 -0.6782  0.6186
 4006TIP3   OH212023   4.159   2.222   3.945  0.5954 -0.3930  0.2653
 4006TIP3    H112024   4.111   2.139   3.946 -0.0107 -0.0913 -1.2474
 4006TIP3    H212025   4.251   2.197   3.946  0.4392 -1.0172  1.6417
 4007TIP3   OH212026   4.938   5.030  -0.031  0.2539  0.3136 -0.1847
 4007TIP3    H112027   4.874   5.065   0.031  0.7987  1.6577 -0.3600
 4007TIP3    H212028   4.982   4.960   0.017 -0.0225  0.6696  0.6059
 4008TIP3   OH212029   2.836   0.224   0.646 -0.1048  0.0995  0.3354
 4008TIP3    H112030   2.888   0.146   0.666  1.0041  0.8953  0.6665
 4008TIP3    H212031   2.775   0.232   0.719 -0.4609 -0.6429  0.1270
 4009TIP3   OH212032   4.110   2.607   4.149 -0.2421  0.3162 -0.1019
 4009TIP3    H112033   4.141   2.517   4.161 -1.0036  0.0603  0.0012
 4009TIP3    H212034   4.190   2.658   4.133  0.0067 -0.8082 -3.0111
 4010TIP3   OH212035   3.252   1.682   4.528  0.4026 -0.1612 -0.0379
 4010TIP3    H112036   3.179   1.647   4.477  1.0621  0.0041 -1.1285
 4010TIP3    H212037   3.270   1.768   4.488  0.8824  0.0034  0.5231
 4011TIP3   OH212038   0.883   1.089   0.392  0.3605  0.2416 -0.1779
 4011TIP3    H112039   0.849   1.173   0.424 -1.6957 -0.2560 -0.9159
 4011TIP3    H212040   0.855   1.086   0.300  0.6171 -1.1540 -0.2216
 4012TIP3   OH212041   4.421   4.879   4.635  0.0175 -0.2823 -0.0989
 4012TIP3    H112042   4.374   4.939   4.576 -1.0907  0.5378  1.5416
 4012TIP3    H212043   4.426   4.797   4.586 -3.5936 -0.5740 -0.2221
 4013TIP3   OH212044   2.562   1.721   2.280  0.1151  0.0653 -0.1676
 4013TIP3    H112045   2.650   1.741   2.248  0.4023 -2.2384 -0.9810
 4013TIP3    H212046   2.505   1.729   2.204  0.0344 -0.8046 -0.2139
 4014TIP3   OH212047   3.009   0.017   5.040  0.4868 -0.2713  0.1047
 4014TIP3    H112048   3.051   0.103   5.035 -0.9608  0.4417 -0.2214
 4014TIP3    H212049   2.918   0.033   5.018  0.7422 -2.3525 -3.1965
 4015TIP3   OH212050   5.427   2.353   2.145 -0.0483 -0.3279  0.0558
 4015TIP3    H112051   5.468   2.335   2.061 -1.0883 -1.1034 -0.3111
 4015TIP3    H212052   5.394   2.268   2.174  1.3094 -0.3168  1.8352
 4016TIP3   OH212053   4.433   1.227   0.817  0.1400  0.3081 -0.4228
 4016TIP3    H112054   4.365   1.160   0.805  1.2606 -0.7200 -1.2273
 4016TIP3    H212055   4.389   1.296   0.868 -1.4659 -0.3680 -0.8102
 4017TIP3   OH212056   1.323   5.898   4.379 -0.3884 -0.1592  0.1430
 4017TIP3    H112057   1.259   5.968   4.374  0.5101  0.7507  0.9204
 4017TIP3    H212058   1.316   5.852   4.296 -1.1745  0.6949 -0.2728
 4018TIP3   OH212059   0.030   2.361   2.493 -0.4762 -0.5603  0.3337
 4018TIP3    H112060  -0.001   2.450   2.507 -0.3523 -0.5826  0.7829
 4018TIP3    H212061   0.046   2.355   2.399  1.9751  0.7113  0.5947
 4019TIP3   OH212062   2.146   3.373   4.409 -0.3216  0.0274  0.6250
 4019TIP3    H112063   2.053   3.362   4.427 -0.7737  0.3808 -1.3461
 4019TIP3    H212064   2.175   3.288   4.376 -0.5686  0.6289 -1.2172
 4020TIP3   OH212065   2.666   0.313   2.337  0.7323  0.1826  0.1864
 4020TIP3    H112066   2.673   0.223   2.305  0.0695  0.1844  0.0305
 4020TIP3    H212067   2.597   0.310   2.403  0.2255  0.7097 -0.3081
 4021TIP3   OH212068   3.222   4.520   2.846  0.3602 -0.5901  0.8169
 4021TIP3    H112069   3.159   4.483   2.908 -0.0516  1.7010  1.8736
 4021TIP3    H212070   3.307   4.506   2.888  0.2877 -1.0226  0.8253
 4022TIP3   OH212071   1.351   2.214   2.784 -0.2388  0.0325  0.2720
 4022TIP3    H112072   1.443   2.239   2.796 -0.4809  0.5281  1.1885
 4022TIP3    H212073   1.323   2.184   2.870 -0.7381 -0.8194 -0.1753
 4023TIP3   OH212074   0.944   0.031   4.315 -0.5976  0.0598  0.4178
 4023TIP3    H112075   0.933  -0.023   4.393 -1.2821  0.0674  0.3381
 4023TIP3    H212076   0.862   0.018   4.266 -1.1978  1.9099  0.8642
 4024TIP3   OH212077   3.193   3.350   2.107 -0.3543  0.2964 -0.6374
 4024TIP3    H112078   3.239   3.433   2.122 -0.0505  0.1963 -1.0235
 4024TIP3    H212079   3.103   3.369   2.133  0.0690  0.2402  0.9921
 4025TIP3   OH212080   5.548   0.636   2.826 -0.2904 -0.5668 -0.6153
 4025TIP3    H112081   5.574   0.603   2.740  2.3094  1.5910 -0.7824
 4025TIP3    H212082   5.630   0.663   2.867 -1.5760 -0.4941  2.1464
 4026TIP3   OH212083   3.210   4.947   0.749 -0.3126  0.2171 -0.3462
 4026TIP3    H112084   3.269   4.951   0.674 -1.2719  0.0415 -1.1230
 4026TIP3    H212085   3.132   4.996   0.722 -2.1952 -2.8180 -0.9223
 4027TIP3   OH212086   5.579   0.962   1.194  0.6895 -0.0747 -0.1723
 4027TIP3    H112087   5.661   0.960   1.243 -0.4813  2.4798  2.2089
 4027TIP3    H212088   5.595   1.023   1.122  0.5383  1.7866  1.2737
 4028TIP3   OH212089   5.184   1.531   0.597 -0.0927 -0.5174  0.2734
 4028TIP3    H112090   5.125   1.568   0.662 -0.0850 -0.3129  0.1654
 4028TIP3    H212091   5.134   1.462   0.555 -0.3263 -0.2178  0.0498
 4029TIP3   OH212092   4.137   3.177   3.869 -0.2056 -0.5082  0.3906
 4029TIP3    H112093   4.109   3.232   3.943 -0.6483 -2.5049  1.7949
 4029TIP3    H212094   4.226   3.149   3.893 -0.0945 -0.6361 -0.1731
 4030TIP3   OH212095   5.483   5.176   2.399  0.0958  0.0877 -0.1640
 4030TIP3    H112096   5.403   5.184   2.346  0.6695 -0.5740 -1.1753
 4030TIP3    H212097   5.541   5.122   2.345  0.0817 -2.1600  1.8958
 4031TIP3   OH212098   2.451   5.320   3.598  0.5165  0.3152  0.4256
 4031TIP3    H112099   2.486   5.261   3.531 -2.8206 -0.5801 -0.6788
 4031TIP3    H212100   2.428   5.400   3.551  1.3020  1.0297  1.2027
 4032TIP3   OH212101   0.871   1.334   0.854 -0.3097  0.3249  1.1615
 4032TIP3    H112102   0.953   1.342   0.807 -1.3175  1.5888 -0.5097
 4032TIP3    H212103   0.864   1.241   0.875  0.8602 -0.0427  0.0470
 4033TIP3   OH212104   3.633   3.116   1.475  0.2584 -0.0828  0.4409
 4033TIP3    H112105   3.572   3.171   1.525  1.0804  0.8217  0.4677
 4033TIP3    H212106   3.593   3.108   1.389  0.3003  0.8729  0.3214
 4034TIP3   OH212107   2.282   1.382   4.728  0.0713 -0.1743  0.1983
 4034TIP3    H112108   2.208   1.440   4.747 -1.6780 -2.1759 -0.1360
 4034TIP3    H212109   2.331   1.377   4.810 -0.8660  0.2426  0.7900
 4035TIP3   OH212110   3.038   4.586   2.648  0.5405  0.0345  0.3621
 4035TIP3    H112111   3.111   4.562   2.706  0.9161 -0.8485 -0.4615
 4035TIP3    H212112   2.966   4.530   2.675  0.8610 -0.7271 -0.3279
 4036TIP3   OH212113   1.434   1.748   4.593  0.1034 -0.4393 -0.3533
 4036TIP3    H112114   1.397   1.771   4.679 -0.3873 -2.3777  0.0049
 4036TIP3    H212115   1.501   1.683   4.613  0.1906 -0.6865 -1.4069
 4037TIP3   OH212116   5.296   0.996   4.723 -0.0101 -0.3560 -0.4456
 4037TIP3    H112117   5.392   1.002   4.720  0.0936 -0.7813  1.0289
 4037TIP3    H212118   5.278   0.903   4.711 -0.1005 -0.5580  1.0155
 4038TIP3   OH212119   0.956   4.141   2.069 -0.3439  0.1484 -0.1353
 4038TIP3    H112120   0.888   4.171   2.009  0.1691 -0.1272 -0.8701
 4038TIP3    H212121   1.038   4.151   2.020 -0.0405 -1.2927  0.0268
 4039TIP3   OH212122   5.122   1.395   3.820 -0.2340 -0.4353 -0.2504
 4039TIP3    H112123   5.041   1.346   3.808  0.1431 -1.4727  1.0978
 4039TIP3    H212124   5.094   1.479   3.857 -0.7406 -0.4872 -0.5077
 4040TIP3   OH212125   5.273   5.274   4.595  0.3135  0.2050 -0.0450
 4040TIP3    H112126   5.368   5.274   4.585  0.1809  1.4446 -1.8713
 4040TIP3    H212127   5.251   5.365   4.614 -0.5206 -0.0210  0.1278
 4041TIP3   OH212128   2.441   4.321   1.486  0.1842  0.3257 -0.1087
 4041TIP3    H112129   2.467   4.344   1.575  1.6645  0.3440 -0.5227
 4041TIP3    H212130   2.459   4.227   1.479 -1.3090  0.0086  0.0553
 4042TIP3   OH212131   4.724   5.003   2.792 -0.4107 -0.0695 -0.7900
 4042TIP3    H112132   4.770   4.975   2.871 -1.3622  1.5130  0.3795
 4042TIP3    H212133   4.706   4.921   2.745  0.3587 -1.0271  0.4993
 4043TIP3   OH212134   5.771   0.713   0.920 -0.3282  0.2063 -0.2911
 4043TIP3    H112135   5.814   0.773   0.859  0.8960 -0.9078 -0.5617
 4043TIP3    H212136   5.814   0.730   1.004 -1.4575  1.1680  0.1318
 4044TIP3   OH212137   1.740   5.231   0.715 -0.0344 -0.2604  0.3113
 4044TIP3    H112138   1.791   5.164   0.670  0.8928 -0.5056  1.6469
 4044TIP3    H212139   1.806   5.288   0.755 -0.7988  0.0218  1.2219
 4045TIP3   OH212140   2.898  -0.011   1.751  0.4077 -0.0977  0.3582
 4045TIP3    H112141   2.900  -0.001   1.846  0.5686 -2.6581  0.6926
 4045TIP3    H212142   2.860   0.072   1.719  0.7965  1.0099  2.5755
 4046TIP3   OH212143   3.769   2.134   1.413  0.2488 -0.1929  0.9440
 4046TIP3    H112144   3.731   2.221   1.426 -2.4126 -0.8953 -1.2868
 4046TIP3    H212145   3.725   2.079   1.478  1.6434 -0.0313  2.0844
 4047TIP3   OH212146   6.075   2.946   0.758 -0.1378  0.7127 -0.2228
 4047TIP3    H112147   6.151   2.916   0.709  1.3901 -0.5688  2.6561
 4047TIP3    H212148   6.112   2.991   0.834 -2.3555  2.8994 -0.3214
 4048TIP3   OH212149   4.607   2.612   3.408 -0.3070  0.1524  0.3465
 4048TIP3    H112150   4.633   2.568   3.327  1.2474 -1.3985  1.6067
 4048TIP3    H212151   4.661   2.690   3.413  0.1297 -0.1400  0.2281
 4049TIP3   OH212152   4.194   3.241   4.420  0.0802 -0.7905  0.0892
 4049TIP3    H112153   4.220   3.148   4.423  0.2393 -0.8266 -1.5308
 4049TIP3    H212154   4.179   3.264   4.512  0.7443 -2.2188  0.5999
 4050TIP3   OH212155   3.533   1.498   3.811  0.1712  0.1226  0.0096
 4050TIP3    H112156   3.505   1.583   3.846 -2.0902 -0.9765  1.0189
 4050TIP3    H212157   3.598   1.466   3.874  0.1961  0.5907  0.2246
 4051TIP3   OH212158   3.893   0.274   3.130 -0.0531 -0.3464 -0.2400
 4051TIP3    H112159   3.848   0.191   3.147 -1.8376  0.6068 -0.0853
 4051TIP3    H212160   3.924   0.267   3.040  2.2475 -2.2138  0.5796
 4052TIP3   OH212161   4.613   2.224   2.273  0.0921  0.4580 -0.1286
 4052TIP3    H112162   4.681   2.157   2.276 -1.7647 -1.6579 -1.6563
 4052TIP3    H212163   4.579   2.229   2.362  0.2980 -0.5959  0.0120
 4053TIP3   OH212164   1.260   0.899   2.894  0.4090  0.9339  0.1637
 4053TIP3    H112165   1.248   0.858   2.979 -3.2538  0.5689 -0.3691
 4053TIP3    H212166   1.254   0.826   2.832 -0.6954  1.5954 -0.5384
 4054TIP3   OH212167   2.754   4.456   0.709  0.1777 -0.8091 -0.3196
 4054TIP3    H112168   2.702   4.536   0.700  0.7377 -0.1832  1.4799
 4054TIP3    H212169   2.691   4.385   0.701 -0.8274 -0.0958  0.7859
 4055TIP3   OH212170   4.579   3.568   2.624 -0.3070  0.2414 -0.0778
 4055TIP3    H112171   4.492   3.532   2.610 -0.3623  0.3227  0.0551
 4055TIP3    H212172   4.636   3.518   2.566 -0.0484 -1.3889  1.5007
 4056TIP3   OH212173   2.869   2.426   4.102  0.1845  0.5410 -0.3525
 4056TIP3    H112174   2.886   2.435   4.196 -3.2089  0.7387  0.3544
 4056TIP3    H212175   2.891   2.335   4.083  1.4128  0.6334  0.4739
 4057TIP3   OH212176   4.209   2.630   5.004  0.4031  0.3676  0.4258
 4057TIP3    H112177   4.141   2.662   4.945  0.8250 -1.0622 -0.9141
 4057TIP3    H212178   4.232   2.705   5.058 -2.2074  0.9157  0.9296
 4058TIP3   OH212179   5.360   1.233   2.711  0.2912 -0.0225 -0.0460
 4058TIP3    H112180   5.414   1.289   2.766  0.1592 -0.7125  0.8182
 4058TIP3    H212181   5.416   1.157   2.692 -0.5510 -1.0665  1.4180
 4059TIP3   OH212182   4.965   5.230   0.933 -0.2896 -0.3357  0.1121
 4059TIP3    H112183   4.958   5.194   0.845 -0.1758 -0.9148  0.3342
 4059TIP3    H212184   5.034   5.296   0.927 -1.0508  0.4264 -0.4813
 4060TIP3   OH212185   1.158   5.435   3.647 -0.1889 -0.3100  0.0088
 4060TIP3    H112186   1.142   5.491   3.723 -0.5901 -0.1499 -0.1901
 4060TIP3    H212187   1.074   5.390   3.632 -0.6108  0.8282 -1.2919
 4061TIP3   OH212188   3.711   0.297   2.037  0.1510 -0.1091 -0.1193
 4061TIP3    H112189   3.702   0.223   1.978  0.4777 -0.6871  0.5468
 4061TIP3    H212190   3.803   0.321   2.033 -0.1207  0.8461 -1.0153
 4062TIP3   OH212191   2.137   0.898   1.811  0.2442  0.5840  0.4144
 4062TIP3    H112192   2.131   0.840   1.734 -1.9699  1.1891  0.0553
 4062TIP3    H212193   2.124   0.839   1.885  1.6888  0.1027  0.3252
 4063TIP3   OH212194   5.867   2.608   3.189 -0.3155 -0.6057  0.3599
 4063TIP3    H112195   5.878   2.701   3.211  0.6625 -0.6941  0.2905
 4063TIP3    H212196   5.776   2.588   3.213 -0.4919  0.3323  0.5034
 4064TIP3   OH212197   2.248   2.789   3.800 -0.2993  0.0159  0.4127
 4064TIP3    H112198   2.217   2.814   3.887 -0.5188  0.3671  0.2358
 4064TIP3    H212199   2.203   2.706   3.782 -1.5857  0.7808 -0.0622
 4065TIP3   OH212200   0.933   3.020   4.217  0.2719 -0.3117  0.1418
 4065TIP3    H112201   0.953   2.926   4.216 -0.6615 -0.5450 -2.0563
 4065TIP3    H212202   0.842   3.026   4.188  0.4519  1.2837 -0.1977
 4066TIP3   OH212203   3.561   1.944   3.453 -0.2729 -0.0955  0.2299
 4066TIP3    H112204   3.549   1.916   3.543 -1.5983 -0.1301  0.0608
 4066TIP3    H212205   3.598   2.032   3.460 -0.6303  0.0132  0.8138
 4067TIP3   OH212206   3.315   4.849   3.464  0.0178  0.5657 -0.1717
 4067TIP3    H112207   3.286   4.791   3.534 -2.5679 -0.7957 -2.2116
 4067TIP3    H212208   3.347   4.927   3.510  2.2069 -1.7279  2.6231
 4068TIP3   OH212209   3.381   5.287   3.418 -0.6386  0.4092  0.5681
 4068TIP3    H112210   3.405   5.231   3.344  1.6237  1.3151  0.5267
 4068TIP3    H212211   3.336   5.361   3.377 -2.4939 -0.6840  0.5043
 4069TIP3   OH212212   4.240   5.935   0.862 -0.4504 -0.1210  0.2720
 4069TIP3    H112213   4.165   5.993   0.874  0.0930  0.5812  0.3938
 4069TIP3    H212214   4.310   5.977   0.911  0.6350  0.4622 -1.6485
 4070TIP3   OH212215   4.926   0.292   3.438 -0.4682  0.1066  0.3219
 4070TIP3    H112216   4.873   0.222   3.476 -0.3400  0.5339  1.3257
 4070TIP3    H212217   4.954   0.344   3.514 -0.3965  1.1209 -0.3825
 4071TIP3   OH212218   3.361   2.392   1.108 -0.0205 -0.4818  0.2407
 4071TIP3    H112219   3.406   2.474   1.124 -1.3291  0.2388  0.3895
 4071TIP3    H212220   3.371   2.342   1.189  1.2393 -0.7164 -0.0400
 4072TIP3   OH212221   0.647   1.950   0.582 -0.5430 -0.2559 -0.0911
 4072TIP3    H112222   0.687   1.900   0.653 -2.3574  1.0016  1.9691
 4072TIP3    H212223   0.701   2.029   0.574  0.6110 -1.1395 -1.2958
 4073TIP3   OH212224   1.866   0.176   4.393 -0.0657 -0.1733 -0.3461
 4073TIP3    H112225   1.779   0.137   4.401 -0.3960  0.5368 -0.4563
 4073TIP3    H212226   1.912   0.146   4.472  0.2549 -2.1538 -1.2159
 4074TIP3   OH212227   5.894   4.716   0.989 -0.2701 -0.3049  0.6041
 4074TIP3    H112228   5.933   4.802   0.973 -1.7803  0.7706  2.2746
 4074TIP3    H212229   5.868   4.685   0.902  2.2106 -0.1148 -0.2991
 4075TIP3   OH212230   4.306   5.250   2.845 -0.1293 -0.4143 -0.1551
 4075TIP3    H112231   4.226   5.200   2.829  0.3791 -1.7001  1.0652
 4075TIP3    H212232   4.305   5.266   2.939  0.6825  0.2058 -0.2432
 4076TIP3   OH212233   4.759   5.929   0.782 -0.1796 -0.3605  0.0370
 4076TIP3    H112234   4.801   6.014   0.797  0.1258 -0.4667 -0.2112
 4076TIP3    H212235   4.680   5.951   0.732  1.0387 -0.4027 -2.0571
 4077TIP3   OH212236   5.800   0.253   1.923 -0.4052  0.8487 -0.0608
 4077TIP3    H112237   5.752   0.215   1.996 -0.1619 -0.4312 -0.5307
 4077TIP3    H212238   5.733   0.292   1.867 -0.7853  0.1704 -0.0906
 4078TIP3   OH212239   5.962   0.176   2.381 -0.3453 -0.1217 -0.1388
 4078TIP3    H112240   5.883   0.124   2.378 -0.1377 -0.6308  1.7677
 4078TIP3    H212241   5.933   0.266   2.364 -0.9213 -0.6231 -1.9279
 4079TIP3   OH212242   1.363   1.823   4.892  0.1974  0.6209  0.6737
 4079TIP3    H112243   1.380   1.911   4.927 -0.9162  0.4447  1.7633
 4079TIP3    H212244   1.377   1.765   4.967 -0.5658  0.0369  0.3786
 4080TIP3   OH212245   2.577   1.197   1.286 -0.5351  0.2702  0.2085
 4080TIP3    H112246   2.570   1.139   1.361  2.0364  0.6703  0.8292
 4080TIP3    H212247   2.493   1.244   1.284 -1.1763 -0.7245  1.9715
 4081TIP3   OH212248   2.497   1.040   2.122  0.1689  0.2069  0.3477
 4081TIP3    H112249   2.511   1.025   2.215 -0.4265  0.4326  0.4759
 4081TIP3    H212250   2.405   1.020   2.107 -0.2875  2.1144  0.2313
 4082TIP3   OH212251   5.735   3.173   1.974 -0.0678 -0.1375 -0.2511
 4082TIP3    H112252   5.817   3.168   1.925  1.5998 -0.5485  2.4122
 4082TIP3    H212253   5.742   3.254   2.025 -1.2013 -0.3003  0.1980
 4083TIP3   OH212254   2.616   3.772   2.444  0.0146 -0.7111  0.0901
 4083TIP3    H112255   2.695   3.721   2.426 -0.3288 -1.6085  1.0447
 4083TIP3    H212256   2.648   3.850   2.489  0.4149 -0.7550 -0.1149
 4084TIP3   OH212257   3.050   5.156   3.802 -0.4213  0.4327  0.0471
 4084TIP3    H112258   2.979   5.146   3.738 -0.7096 -0.8173  0.5169
 4084TIP3    H212259   3.120   5.200   3.755 -1.0429  0.5286 -0.8059
 4085TIP3   OH212260   0.171   5.345   3.267 -0.0949 -0.4196  0.6221
 4085TIP3    H112261   0.143   5.350   3.359  0.3827  2.1708  0.6948
 4085TIP3    H212262   0.159   5.434   3.234  3.9571 -0.1214 -0.5234
 4086TIP3   OH212263   0.931   3.617   0.286  0.1778 -0.1303 -0.5007
 4086TIP3    H112264   0.912   3.667   0.365  0.5642  0.2077 -0.6134
 4086TIP3    H212265   0.988   3.675   0.235  0.3648 -0.5586 -0.7825
 4087TIP3   OH212266   3.916   3.929   4.675  0.0820  0.7380 -0.4566
 4087TIP3    H112267   3.873   3.952   4.757 -0.7830  2.5457 -1.3650
 4087TIP3    H212268   4.009   3.942   4.692 -0.0261  0.3542  0.4578
 4088TIP3   OH212269   5.493   1.869   1.046 -0.2263 -0.1794 -0.0454
 4088TIP3    H112270   5.475   1.889   0.954 -1.5682 -2.6010 -0.3990
 4088TIP3    H212271   5.587   1.855   1.050 -0.0230  0.8230 -0.8203
 4089TIP3   OH212272   1.591   1.233   0.169 -0.2895  0.0019 -0.0260
 4089TIP3    H112273   1.668   1.178   0.156  0.2978  0.8817 -0.3612
 4089TIP3    H212274   1.517   1.172   0.168  0.2373 -0.6633 -1.6580
 4090TIP3   OH212275   3.894   1.174   0.521 -0.0494  0.6519 -0.0806
 4090TIP3    H112276   3.935   1.258   0.500  0.4452  0.3861 -0.1770
 4090TIP3    H212277   3.854   1.188   0.607  1.6179  0.4284  0.7658
 4091TIP3   OH212278   3.944   1.604   3.850 -0.1309 -0.7101 -0.5667
 4091TIP3    H112279   3.861   1.570   3.885 -0.1695 -0.3696 -0.3260
 4091TIP3    H212280   3.918   1.670   3.786 -0.0779 -1.9321 -1.8895
 4092TIP3   OH212281   0.148   4.814   4.855  0.2130  0.2096 -0.3516
 4092TIP3    H112282   0.087   4.851   4.791 -0.2251 -0.1740 -0.1701
 4092TIP3    H212283   0.091   4.774   4.921  0.6625  0.2741  0.0829
 4093TIP3   OH212284   6.046   4.025   1.267 -0.1682  0.3093 -0.2415
 4093TIP3    H112285   5.965   3.986   1.234 -0.2724 -0.3352  0.7645
 4093TIP3    H212286   6.092   3.954   1.311  0.6550  0.8199 -0.2444
 4094TIP3   OH212287   3.523   1.717   2.033  0.4216 -0.0461 -0.3524
 4094TIP3    H112288   3.430   1.711   2.012  0.3934 -0.3964 -0.1409
 4094TIP3    H212289   3.526   1.767   2.114  0.3555 -0.6976  0.0612
 4095TIP3   OH212290   1.678   5.942   4.026 -0.2876  0.5174  0.0342
 4095TIP3    H112291   1.711   5.906   4.108  0.7255  1.0821 -0.1027
 4095TIP3    H212292   1.757   5.963   3.976 -0.8037  2.5968 -0.0175
 4096TIP3   OH212293   3.805   0.282   2.399 -0.1072 -0.3664  0.1744
 4096TIP3    H112294   3.801   0.322   2.485  0.2937 -1.0794  0.5359
 4096TIP3    H212295   3.897   0.286   2.374 -0.4998  1.6785 -1.1364
 4097TIP3   OH212296   2.984   2.737   0.098  0.6576 -0.1907 -0.0273
 4097TIP3    H112297   3.078   2.722   0.085  0.4363 -1.1697 -0.6072
 4097TIP3    H212298   2.952   2.657   0.139 -0.1447 -0.3884 -0.9896
 4098TIP3   OH212299   0.909   5.231   2.766  0.0514 -0.2372 -0.1753
 4098TIP3    H112300   0.955   5.315   2.761 -0.4969  0.0931  0.1628
 4098TIP3    H212301   0.824   5.253   2.806 -0.1707 -0.9219 -0.2625
 4099TIP3   OH212302   3.279   2.660   2.634 -0.5696 -0.0110  0.0023
 4099TIP3    H112303   3.185   2.675   2.625 -0.5582  0.7893  1.1231
 4099TIP3    H212304   3.319   2.742   2.605 -0.3293  0.5539  1.8334
 4100TIP3   OH212305   3.490   3.282   1.628 -0.4610 -0.4335 -0.6229
 4100TIP3    H112306   3.517   3.292   1.719 -3.6924  0.5206  0.3617
 4100TIP3    H212307   3.545   3.342   1.579  1.0086 -0.6134  0.7435
 4101TIP3   OH212308   3.850   2.629   1.425  0.1035  0.2235  0.3504
 4101TIP3    H112309   3.794   2.707   1.419  0.9355  0.9026  1.2605
 4101TIP3    H212310   3.937   2.663   1.446  0.7244 -0.8786 -0.3309
 4102TIP3   OH212311   4.669   3.459   2.315 -0.2346  0.0568 -0.1896
 4102TIP3    H112312   4.748   3.418   2.280 -0.8001 -1.9254  0.6937
 4102TIP3    H212313   4.597   3.407   2.280 -0.9149 -0.7173  2.1674
 4103TIP3   OH212314   0.995   5.012   4.923 -0.3751  0.5426 -0.2713
 4103TIP3    H112315   1.049   4.935   4.901  0.2199  1.3156 -1.6111
 4103TIP3    H212316   0.909   4.975   4.943  0.2731 -0.5977  0.5759
 4104TIP3   OH212317   3.541   5.389   1.662  0.0943  0.0844  0.0519
 4104TIP3    H112318   3.463   5.427   1.704 -1.3814 -3.2063  0.5842
 4104TIP3    H212319   3.603   5.376   1.734  0.4728  1.0674 -0.0781
 4105TIP3   OH212320   2.120   4.586   4.060 -0.0582 -0.1379  0.1010
 4105TIP3    H112321   2.043   4.530   4.061 -0.7064  0.7443  0.5840
 4105TIP3    H212322   2.173   4.556   4.134  0.0778 -0.7439 -0.2330
 4106TIP3   OH212323   5.814   0.507   3.613 -0.0533  0.8818  0.4908
 4106TIP3    H112324   5.894   0.465   3.580 -1.1158 -0.4857 -0.4525
 4106TIP3    H212325   5.842   0.551   3.694  1.2110 -1.4726  1.4449
 4107TIP3   OH212326   0.782   1.770   5.106  0.1298 -0.2912 -0.4322
 4107TIP3    H112327   0.709   1.751   5.046  0.6654 -3.7239 -0.1715
 4107TIP3    H212328   0.740   1.780   5.191 -0.2279  0.1257 -0.6507
 4108TIP3   OH212329   2.379   1.928   1.745 -0.4419  0.1775 -0.1294
 4108TIP3    H112330   2.377   1.955   1.836 -0.5626 -0.4785  0.0681
 4108TIP3    H212331   2.436   1.851   1.744 -0.6402  0.0318 -0.5580
 4109TIP3   OH212332   3.631   0.093   2.269 -0.2579 -0.3934  0.1430
 4109TIP3    H112333   3.638  -0.002   2.280 -0.2782 -0.3906  0.1805
 4109TIP3    H212334   3.713   0.128   2.304  0.3301 -0.4923 -1.0810
 4110TIP3   OH212335   3.229   5.265   0.623  0.2970 -0.3184 -0.9030
 4110TIP3    H112336   3.245   5.271   0.718  1.4502  0.5698 -1.1281
 4110TIP3    H212337   3.136   5.284   0.614 -0.4298 -2.9005  0.2411
 4111TIP3   OH212338   2.260   0.494   1.317  0.0370  0.2297  0.1403
 4111TIP3    H112339   2.227   0.439   1.388  2.1676  0.2805  1.2703
 4111TIP3    H212340   2.182   0.535   1.279 -1.2077 -0.0985  2.2096
 4112TIP3   OH212341   5.004   3.180   0.873  0.1811 -0.0712 -0.3723
 4112TIP3    H112342   5.034   3.268   0.893 -1.6488  0.2994  0.9850
 4112TIP3    H212343   5.075   3.123   0.903  0.3492  0.8486  1.0893
 4113TIP3   OH212344   4.790   5.531   2.807 -0.2404  0.2227  0.0510
 4113TIP3    H112345   4.728   5.603   2.796  1.5756  1.8782 -0.0668
 4113TIP3    H212346   4.808   5.501   2.718  0.5674  1.1009 -0.1066
 4114TIP3   OH212347   4.912   1.945   3.438  0.2239 -0.1719  0.5829
 4114TIP3    H112348   4.927   1.967   3.346  0.4681 -1.2776  0.3432
 4114TIP3    H212349   4.985   1.987   3.485  1.8905 -2.1372 -0.1050
 4115TIP3   OH212350   2.621   4.592   1.148  0.0495 -0.2117 -0.3049
 4115TIP3    H112351   2.547   4.649   1.169 -0.3926 -0.1301 -1.9505
 4115TIP3    H212352   2.581   4.512   1.114  0.7010 -0.6377 -0.0859
 4116TIP3   OH212353   4.738   0.561   1.925 -0.1603  0.1641  0.9263
 4116TIP3    H112354   4.742   0.493   1.992  0.7141 -0.2527  0.4597
 4116TIP3    H212355   4.790   0.527   1.852 -0.3052  1.0227  0.4071
 4117TIP3   OH212356   2.851   5.306   2.739 -0.0892 -0.5736  0.0089
 4117TIP3    H112357   2.826   5.325   2.649 -0.4721 -0.5890  0.1077
 4117TIP3    H212358   2.779   5.253   2.773 -0.4551  0.3075  0.6409
 4118TIP3   OH212359   5.119   2.474   1.222 -0.7573 -0.1030 -0.2274
 4118TIP3    H112360   5.151   2.391   1.184  1.0852  0.9615 -1.1567
 4118TIP3    H212361   5.024   2.467   1.216 -0.6232 -1.4955 -1.8029
 4119TIP3   OH212362   1.092   1.483   1.408  0.5100  0.0495 -0.1671
 4119TIP3    H112363   1.065   1.515   1.494  1.7144 -1.1769  0.7220
 4119TIP3    H212364   1.187   1.484   1.410  0.5674 -0.5070 -1.2862
 4120TIP3   OH212365   4.157   3.705   0.098  0.2536  0.5174 -0.1536
 4120TIP3    H112366   4.111   3.761   0.036  0.9659  3.1527  1.4903
 4120TIP3    H212367   4.118   3.726   0.183 -0.2574 -2.4771  0.4733
 4121TIP3   OH212368   1.170   0.376   3.179 -0.3870 -0.3649 -0.4508
 4121TIP3    H112369   1.203   0.292   3.149  0.4057  0.0179 -0.6872
 4121TIP3    H212370   1.243   0.415   3.227 -0.0721  1.0084 -1.9736
 4122TIP3   OH212371   4.627   1.961   2.686 -0.0780 -0.0639 -0.3737
 4122TIP3    H112372   4.566   2.013   2.739  1.1411 -0.6832  1.7546
 4122TIP3    H212373   4.570   1.912   2.626 -1.7242 -0.5372  1.4435
 4123TIP3   OH212374   6.107   0.988   1.544  0.2470 -0.1665  0.2425
 4123TIP3    H112375   6.164   0.918   1.576 -1.2752 -0.7739  1.7252
 4123TIP3    H212376   6.060   1.019   1.621 -2.4413 -0.6207 -1.1083
 4124TIP3   OH212377   3.527   0.036   0.684 -0.1190 -0.5374 -0.1168
 4124TIP3    H112378   3.606   0.090   0.673 -0.6080  0.3682  0.6359
 4124TIP3    H212379   3.506   0.006   0.596  0.6850 -0.2195 -0.4260
 4125TIP3   OH212380   2.695   2.141   0.345 -0.3849 -0.1822  0.4090
 4125TIP3    H112381   2.640   2.116   0.420  2.1377 -1.2360  2.0426
 4125TIP3    H212382   2.691   2.067   0.285 -1.2510  0.0403  0.1814
 4126TIP3   OH212383   2.934   1.843   4.876 -0.4706 -0.4258  0.7244
 4126TIP3    H112384   3.014   1.853   4.926  0.4880 -0.0818 -0.8148
 4126TIP3    H212385   2.959   1.791   4.800 -1.5630  0.1347 -0.0568
 4127TIP3   OH212386   4.895   5.200   2.695 -0.1358  0.3584  0.0181
 4127TIP3    H112387   4.890   5.112   2.734  0.6578  0.7378  1.0434
 4127TIP3    H212388   4.821   5.247   2.733  0.1890  0.5022  0.4799
 4128TIP3   OH212389   1.914   5.067   0.580 -0.3736 -0.1677  0.1828
 4128TIP3    H112390   1.872   5.064   0.494 -0.9749 -2.4627  0.4755
 4128TIP3    H212391   2.000   5.027   0.566 -0.9781 -1.8037  0.8280
 4129TIP3   OH212392   3.255   3.925   0.433  0.2181 -0.0072  0.2088
 4129TIP3    H112393   3.228   3.873   0.508 -0.6665 -0.0544 -0.1275
 4129TIP3    H212394   3.286   4.007   0.470  0.3584 -0.2637  0.6629
 4130TIP3   OH212395   0.650   4.617   4.034  0.0278 -0.1591  0.0608
 4130TIP3    H112396   0.614   4.538   3.994 -0.1157  0.5140 -1.2008
 4130TIP3    H212397   0.622   4.612   4.126 -0.8616 -1.0531 -0.2362
 4131TIP3   OH212398  -0.001   5.219   4.857 -0.2720 -0.1843 -0.1875
 4131TIP3    H112399   0.020   5.129   4.833  1.3329 -0.0623  0.5947
 4131TIP3    H212400   0.053   5.273   4.798  0.2396  0.2012  0.6165
 4132TIP3   OH212401   5.710   2.127   1.618 -0.2453 -0.4565 -0.3278
 4132TIP3    H112402   5.759   2.200   1.656  0.7859 -0.7439 -1.0815
 4132TIP3    H212403   5.713   2.059   1.685  0.2231 -0.3991 -0.2869
 4133TIP3   OH212404   1.665   0.724   1.029  0.3163 -0.4686 -0.0985
 4133TIP3    H112405   1.680   0.673   1.108  1.4141  1.5484  1.0846
 4133TIP3    H212406   1.570   0.735   1.025  0.2643 -0.3781  1.1155
 4134TIP3   OH212407   5.926   2.415   3.939 -0.0237 -0.2696 -0.1848
 4134TIP3    H112408   6.016   2.391   3.918  0.4510  2.3811 -1.5803
 4134TIP3    H212409   5.921   2.407   4.035  2.0057  0.4315  0.0321
 4135TIP3   OH212410   3.799   2.920   2.627  0.4797 -0.2093 -0.0271
 4135TIP3    H112411   3.718   2.972   2.632 -1.5366 -3.0343 -0.7613
 4135TIP3    H212412   3.777   2.838   2.670  2.4948 -1.6164 -1.5284
 4136TIP3   OH212413   5.300   0.081   1.120 -0.1017  0.2022 -0.1232
 4136TIP3    H112414   5.357   0.060   1.046 -1.4016  0.8097 -1.3254
 4136TIP3    H212415   5.264   0.167   1.099 -1.3518 -0.1046  0.6919
 4137TIP3   OH212416   1.735   3.771   4.123 -0.0100  0.5132 -0.5543
 4137TIP3    H112417   1.830   3.774   4.120  0.0222  1.9053  0.5856
 4137TIP3    H212418   1.707   3.815   4.043  0.3008  0.3522 -0.7524
 4138TIP3   OH212419   5.648   2.282   5.149  0.3709  0.3008 -0.5695
 4138TIP3    H112420   5.694   2.297   5.232  2.2724 -0.4339 -1.4288
 4138TIP3    H212421   5.622   2.369   5.119 -4.4805  0.4634  2.8542
 4139TIP3   OH212422   5.470   4.908   1.292  0.6288  0.0850 -0.9341
 4139TIP3    H112423   5.533   4.868   1.232  0.5283 -0.0470 -0.9500
 4139TIP3    H212424   5.481   4.859   1.374  0.4656 -0.0119 -0.9706
 4140TIP3   OH212425   0.512   4.162   3.865 -0.0037  0.4597 -0.1758
 4140TIP3    H112426   0.556   4.218   3.928 -0.2383  1.7772 -1.1293
 4140TIP3    H212427   0.510   4.214   3.784  0.4266 -1.2171 -1.3221
 4141TIP3   OH212428   0.679   1.461   4.585 -0.2744 -0.4316 -0.3808
 4141TIP3    H112429   0.669   1.556   4.584 -0.5723 -0.4675 -1.5827
 4141TIP3    H212430   0.769   1.445   4.556 -0.7154 -0.5566 -1.7453
 4142TIP3   OH212431   2.645   1.520   4.248 -0.9105 -0.3075  0.1288
 4142TIP3    H112432   2.612   1.431   4.237 -3.6144  0.8527 -3.1240
 4142TIP3    H212433   2.706   1.532   4.175 -1.2882  0.7360 -0.0394
 4143TIP3   OH212434   6.163   2.075   4.757  0.1799  0.3616  0.4106
 4143TIP3    H112435   6.252   2.039   4.762  0.3985  0.8735  0.2356
 4143TIP3    H212436   6.137   2.063   4.665 -0.0540 -0.0648  0.5278
 4144TIP3   OH212437   3.978   2.136   0.252 -0.3440 -0.1872 -0.2734
 4144TIP3    H112438   3.976   2.227   0.281  0.8034 -0.3333  0.3465
 4144TIP3    H212439   3.971   2.141   0.157 -0.3474  0.5439 -0.2384
 4145TIP3   OH212440   3.258   1.903   0.555 -0.6994 -0.2403  0.0597
 4145TIP3    H112441   3.190   1.929   0.616 -1.0704 -0.8524 -0.0768
 4145TIP3    H212442   3.316   1.846   0.606  0.3091  1.0879  0.4558
 4146TIP3   OH212443   4.302   5.985   4.223  0.6561  0.0857  0.2773
 4146TIP3    H112444   4.329   5.976   4.315  0.5863 -1.0524  0.1920
 4146TIP3    H212445   4.351   5.917   4.177  0.3225  0.3388 -0.4640
 4147TIP3   OH212446   0.892   2.215   1.918  0.3861 -0.1394  0.3713
 4147TIP3    H112447   0.807   2.214   1.963  0.7059 -0.7399  0.9817
 4147TIP3    H212448   0.871   2.238   1.828 -0.5287 -1.1565  0.2990
 4148TIP3   OH212449   5.104   2.142   3.559  0.2075 -0.9477 -0.8515
 4148TIP3    H112450   5.195   2.114   3.552  0.6315  0.1739 -0.1835
 4148TIP3    H212451   5.104   2.203   3.633 -1.0601 -0.8067 -0.9495
 4149TIP3   OH212452   5.173   4.480   0.732  0.2693  0.0748  0.0409
 4149TIP3    H112453   5.202   4.488   0.823  1.0659 -1.0882 -0.0893
 4149TIP3    H212454   5.080   4.503   0.734  0.2571 -0.0237  1.1658
 4150TIP3   OH212455   0.694   0.019   4.180  0.3365 -0.1338  0.1686
 4150TIP3    H112456   0.691   0.084   4.110 -2.2873  0.5647  0.8201
 4150TIP3    H212457   0.647  -0.056   4.145  1.2608 -0.7929  0.2953
 4151TIP3   OH212458   5.915   3.176   3.243 -0.1299  0.4253 -0.4970
 4151TIP3    H112459   5.961   3.260   3.231  0.7544  0.1511  0.7188
 4151TIP3    H212460   5.978   3.121   3.290 -1.1572 -0.5037 -0.1610
 4152TIP3   OH212461   0.803   0.077   2.924  0.4548  0.0994 -0.6354
 4152TIP3    H112462   0.802   0.100   2.831 -0.9677  1.9454 -0.2056
 4152TIP3    H212463   0.721   0.029   2.937 -0.0876  1.1844 -0.0273
 4153TIP3   OH212464   5.492   3.206   3.274  0.9219  0.0612 -0.0060
 4153TIP3    H112465   5.400   3.213   3.300  0.6578  0.5330 -1.0328
 4153TIP3    H212466   5.540   3.224   3.355  0.1464 -2.1748  1.0399
 4154TIP3   OH212467   6.194   0.197   3.925  0.1681  0.1195  0.2946
 4154TIP3    H112468   6.161   0.131   3.864  3.2424 -1.3732  0.0598
 4154TIP3    H212469   6.205   0.276   3.872 -2.4726  0.6231  0.3284
 4155TIP3   OH212470   3.978   2.568   3.137  0.1791  0.3218 -0.1324
 4155TIP3    H112471   3.893   2.527   3.123 -0.1598  0.5752  1.0798
 4155TIP3    H212472   3.958   2.660   3.156  0.6943  0.3317  0.4061
 4156TIP3   OH212473   2.846   5.087   4.743  0.1546 -0.0076 -0.7252
 4156TIP3    H112474   2.778   5.110   4.679 -0.4316  0.0842 -0.0825
 4156TIP3    H212475   2.907   5.032   4.694 -0.6750 -0.5432 -1.1763
 4157TIP3   OH212476   2.778   0.691   0.656  0.3791 -0.6093  0.6296
 4157TIP3    H112477   2.735   0.762   0.607  1.5840  0.5322  1.1525
 4157TIP3    H212478   2.754   0.611   0.610  1.3944  0.4048 -1.8073
 4158TIP3   OH212479   1.960   1.498   4.495  0.0101 -0.0183 -0.0254
 4158TIP3    H112480   1.875   1.460   4.474 -0.7494  1.4734  0.2584
 4158TIP3    H212481   1.966   1.575   4.439  0.8729  0.2870  0.4688
 4159TIP3   OH212482   0.838   1.028   0.084  0.1426  0.5790  0.0185
 4159TIP3    H112483   0.759   0.975   0.088  0.7017 -0.2947 -0.2376
 4159TIP3    H212484   0.829   1.078   0.003 -0.5522  1.1529  0.4429
 4160TIP3   OH212485   1.552   4.001   3.992 -0.3212 -0.4797  0.0833
 4160TIP3    H112486   1.510   3.974   4.073  0.7529 -2.2502  0.0773
 4160TIP3    H212487   1.566   3.920   3.943  0.4113  0.3879 -1.2139
 4161TIP3   OH212488   0.659   0.002   3.227  0.0175  0.2460 -0.7623
 4161TIP3    H112489   0.588  -0.062   3.219 -0.1939  0.2313  0.9159
 4161TIP3    H212490   0.614   0.087   3.229  0.1493  0.3211 -0.9931
 4162TIP3   OH212491   3.852   5.203   4.989 -0.1407  0.2204 -0.4205
 4162TIP3    H112492   3.891   5.124   4.952 -0.2716 -0.2781  0.4854
 4162TIP3    H212493   3.772   5.217   4.939 -0.7931 -0.9657  0.2526
 4163TIP3   OH212494   3.167   0.665   0.152  0.6388  0.4386  0.3375
 4163TIP3    H112495   3.169   0.651   0.247 -1.1607  0.5728  0.4294
 4163TIP3    H212496   3.076   0.651   0.128  0.8931  1.2970 -1.2454
 4164TIP3   OH212497   5.957   5.895   2.171  0.6364  0.0004  0.1459
 4164TIP3    H112498   6.001   5.926   2.250  0.7725 -1.0863  0.5221
 4164TIP3    H212499   6.024   5.844   2.125 -0.3962 -2.4621  1.1875
 4165TIP3   OH212500   1.541   3.951   3.661  0.3378 -0.2790 -0.1342
 4165TIP3    H112501   1.569   3.886   3.726  1.3824 -1.1167 -1.3593
 4165TIP3    H212502   1.605   4.022   3.670  1.8189 -1.3401 -1.6239
 4166TIP3   OH212503   3.339   2.780   4.335  0.2816  0.2187 -0.3589
 4166TIP3    H112504   3.379   2.867   4.336 -0.0262  0.3934 -1.4744
 4166TIP3    H212505   3.385   2.733   4.264 -1.5290  0.4765 -1.7757
 4167TIP3   OH212506   2.072   3.881   1.217 -0.2758  0.0945  0.0539
 4167TIP3    H112507   1.995   3.938   1.222 -0.3284  0.1801 -1.3738
 4167TIP3    H212508   2.138   3.935   1.174  0.3356 -0.2499  0.5536
 4168TIP3   OH212509   3.515   4.508   2.905 -0.0419  0.6758  0.3115
 4168TIP3    H112510   3.547   4.444   2.841 -1.4715  1.0233 -0.7959
 4168TIP3    H212511   3.477   4.454   2.975 -2.3606  0.1993 -1.1828
 4169TIP3   OH212512   4.243   0.431   1.578 -0.3850  0.1882  0.2703
 4169TIP3    H112513   4.245   0.341   1.609 -1.9085  0.3252  0.8602
 4169TIP3    H212514   4.219   0.424   1.485  0.4051 -0.0476  0.0806
 4170TIP3   OH212515   5.362   2.666   0.271 -0.4162  0.0379 -0.0699
 4170TIP3    H112516   5.354   2.755   0.305  0.4495  0.8424 -1.8216
 4170TIP3    H212517   5.434   2.627   0.320 -0.5366  0.4365  0.4298
 4171TIP3   OH212518   3.370   1.209   0.045 -0.2932 -0.0309  0.2533
 4171TIP3    H112519   3.412   1.208  -0.041  2.5521 -2.7564  1.4964
 4171TIP3    H212520   3.405   1.288   0.088  0.4333 -0.1200 -0.1548
 4172TIP3   OH212521   0.050   3.952  -0.011 -0.3001 -0.4570 -0.1159
 4172TIP3    H112522   0.044   4.009   0.065  1.4364 -1.7129  1.0166
 4172TIP3    H212523   0.003   3.872   0.014 -1.7678 -0.0104 -1.2817
 4173TIP3   OH212524   0.966   5.333   1.561 -0.8471 -0.0291 -0.8492
 4173TIP3    H112525   0.944   5.426   1.559 -0.5489  0.0781  0.0750
 4173TIP3    H212526   1.023   5.320   1.486 -1.2555  0.4360 -1.2444
 4174TIP3   OH212527   1.350   4.765   1.824  0.0884 -0.5258  0.2439
 4174TIP3    H112528   1.311   4.843   1.787 -0.2809 -0.7867  0.0764
 4174TIP3    H212529   1.298   4.746   1.902 -2.1733 -2.6120 -1.5779
 4175TIP3   OH212530   5.198   4.697   2.154  0.1305 -0.0559  0.4599
 4175TIP3    H112531   5.239   4.781   2.173 -0.4605  1.0105 -2.4620
 4175TIP3    H212532   5.131   4.687   2.222  0.4587  1.6319  1.0749
 4176TIP3   OH212533   6.288   1.152   0.366 -0.2615  0.2205 -0.1450
 4176TIP3    H112534   6.221   1.170   0.431 -1.8795  1.1691 -1.9785
 4176TIP3    H212535   6.343   1.084   0.406 -0.4666  1.5609  2.6151
 4177TIP3   OH212536   1.995   4.201   0.213  0.4535  0.4257 -0.2654
 4177TIP3    H112537   2.005   4.118   0.259 -1.8437  0.1788 -0.0850
 4177TIP3    H212538   2.001   4.268   0.282 -2.1712  0.0980  0.4069
 4178TIP3   OH212539   3.318   5.148   4.657 -0.1332  0.5297 -0.2739
 4178TIP3    H112540   3.380   5.220   4.668  1.5360 -0.7178 -1.0232
 4178TIP3    H212541   3.250   5.183   4.599 -0.2346  1.9855  0.6900
 4179TIP3   OH212542   0.298   0.329   2.198  0.6902  0.3560  0.1135
 4179TIP3    H112543   0.369   0.308   2.258  0.3674 -1.8093 -0.2043
 4179TIP3    H212544   0.331   0.305   2.111 -0.2149 -0.1061 -0.1106
 4180TIP3   OH212545   6.013   1.429   3.899 -0.2448 -0.4014  0.4182
 4180TIP3    H112546   6.095   1.391   3.866 -0.7773 -1.6898  0.5038
 4180TIP3    H212547   5.971   1.357   3.947 -2.7272 -0.7083 -1.9398
 4181TIP3   OH212548   3.478   0.642   5.082 -0.4308 -0.7207 -0.4330
 4181TIP3    H112549   3.428   0.611   5.006 -0.4615 -2.9413  0.4369
 4181TIP3    H212550   3.415   0.642   5.154 -0.3064  1.0081 -0.2882
 4182TIP3   OH212551   4.131   3.421   0.059  0.3692  0.0147  0.1055
 4182TIP3    H112552   4.189   3.497   0.072  1.0853 -0.5226  0.1013
 4182TIP3    H212553   4.045   3.452   0.086  0.4340  1.1790 -0.9590
 4183TIP3   OH212554   4.109   5.019   5.104  0.0427  0.3140 -0.1463
 4183TIP3    H112555   4.117   4.972   5.021  0.9646  1.3149 -0.6500
 4183TIP3    H212556   4.028   4.985   5.144  0.8828 -2.0206 -0.2581
 4184TIP3   OH212557   0.942   3.065   2.829  0.4336  0.2727  0.0068
 4184TIP3    H112558   1.030   3.063   2.867  1.6533 -1.7343 -2.6715
 4184TIP3    H212559   0.922   3.159   2.820  2.5654  0.7853  0.0956
 4185TIP3   OH212560   1.789   5.010   3.351 -0.0761  0.3548 -0.0246
 4185TIP3    H112561   1.798   5.104   3.342 -1.2334  0.5723  0.8196
 4185TIP3    H212562   1.797   4.976   3.261  1.0785  1.1629 -0.2386
 4186TIP3   OH212563   5.984   4.746   0.295 -0.6127 -0.4644  0.8860
 4186TIP3    H112564   5.928   4.787   0.361 -0.0336 -0.8120  1.6022
 4186TIP3    H212565   6.013   4.819   0.240 -0.2351 -0.0135  1.6656
 4187TIP3   OH212566   4.524   0.896   0.625  0.1382 -0.0649  0.1070
 4187TIP3    H112567   4.533   0.803   0.604  0.2174  0.3901 -2.1924
 4187TIP3    H212568   4.431   0.914   0.615  0.2379  0.2635 -0.2526
 4188TIP3   OH212569   5.386   5.397   1.266 -0.1838 -0.3632 -1.0739
 4188TIP3    H112570   5.427   5.311   1.275 -0.3696 -0.4160 -0.7088
 4188TIP3    H212571   5.381   5.412   1.172 -1.6112 -1.4464 -1.1967
 4189TIP3   OH212572   0.692   3.996   2.214 -0.4654  0.1072  0.3058
 4189TIP3    H112573   0.694   3.900   2.215  1.0912  0.0805 -1.3109
 4189TIP3    H212574   0.620   4.019   2.272 -0.3533 -2.0190  1.3660
 4190TIP3   OH212575   5.675   4.613   0.759  0.2489  0.3125 -0.4607
 4190TIP3    H112576   5.605   4.617   0.694 -0.5223 -0.1934  0.3146
 4190TIP3    H212577   5.694   4.519   0.768  0.1544  0.3531  0.2335
 4191TIP3   OH212578   2.753   0.954   0.847 -0.7086 -0.0412 -0.4595
 4191TIP3    H112579   2.707   1.038   0.850 -0.2756  0.1786  0.5599
 4191TIP3    H212580   2.684   0.889   0.834 -1.4806  0.1962  1.9217
 4192TIP3   OH212581   1.776   4.534   1.960 -0.4219  0.8603 -0.1797
 4192TIP3    H112582   1.687   4.512   1.932 -0.1444  0.6242 -0.9019
 4192TIP3    H212583   1.813   4.451   1.991  0.1714  0.5466 -1.6474
 4193TIP3   OH212584   3.702   4.335   1.451  0.0643  0.9066  0.2841
 4193TIP3    H112585   3.651   4.416   1.456 -1.3534 -0.0315  2.2747
 4193TIP3    H212586   3.637   4.267   1.430  1.5210  0.4494 -3.4424
 4194TIP3   OH212587   6.020   2.622   4.439 -0.4007 -0.3468 -0.6244
 4194TIP3    H112588   5.947   2.602   4.381 -0.9448 -0.6608  0.1570
 4194TIP3    H212589   6.039   2.539   4.483 -1.6155  0.4327  1.4574
 4195TIP3   OH212590   6.196   0.030   2.445  0.3923  0.5197  0.2948
 4195TIP3    H112591   6.160  -0.006   2.364 -0.0674  1.9745 -0.1672
 4195TIP3    H212592   6.135   0.098   2.471  1.6642  1.5603  0.6773
 4196TIP3   OH212593   3.688   4.937   2.406  0.4243 -0.4559  0.4277
 4196TIP3    H112594   3.702   4.971   2.317  0.3997  0.0669  0.6239
 4196TIP3    H212595   3.726   4.849   2.404  2.0765  0.2198  0.4093
 4197TIP3   OH212596   5.247   3.562   1.744 -0.6489  0.3464  0.3103
 4197TIP3    H112597   5.295   3.483   1.769 -1.6321 -1.2743 -2.3965
 4197TIP3    H212598   5.156   3.543   1.766 -0.7723  1.1843  0.5629
 4198TIP3   OH212599   3.082   2.948   0.469  0.6331 -0.6175 -0.4155
 4198TIP3    H112600   3.158   2.963   0.524 -0.1034 -0.0269  0.4882
 4198TIP3    H212601   3.059   2.856   0.484  0.2449 -0.3808  0.5561
 4199TIP3   OH212602   4.121   1.704   4.033  0.2137  0.0434 -0.2019
 4199TIP3    H112603   4.134   1.788   3.990 -1.2972 -0.4663 -1.8105
 4199TIP3    H212604   4.059   1.658   3.976 -0.0655 -1.6194  1.3534
 4200TIP3   OH212605   5.206   4.848   1.403 -0.0794 -0.2897  0.3073
 4200TIP3    H112606   5.169   4.933   1.428 -0.3966 -0.3297 -0.0077
 4200TIP3    H212607   5.264   4.868   1.329  0.2102 -0.2838  0.5352
 4201TIP3   OH212608   4.896   5.994   0.373  0.2760  0.3353  0.1705
 4201TIP3    H112609   4.949   6.009   0.451 -0.3409  3.5633  0.0918
 4201TIP3    H212610   4.826   5.936   0.403 -0.5873  2.3627  2.4267
 4202TIP3   OH212611   5.615   4.336   0.726 -0.6087 -0.5084 -0.1518
 4202TIP3    H112612   5.675   4.288   0.669  0.7320 -1.6719  2.1205
 4202TIP3    H212613   5.531   4.291   0.714  0.0160 -1.7327 -0.0584
 4203TIP3   OH212614   5.508   2.536   4.402 -0.2182 -0.6228 -0.5873
 4203TIP3    H112615   5.528   2.618   4.357  1.4771 -0.3261  0.5940
 4203TIP3    H212616   5.413   2.537   4.415 -0.3877  0.4990 -1.7755
 4204TIP3   OH212617   1.906   2.648   3.956 -0.4444  0.0180  0.0042
 4204TIP3    H112618   1.813   2.642   3.937 -0.4003 -0.4310 -0.0654
 4204TIP3    H212619   1.926   2.570   4.008  0.5142 -1.5550 -2.5428
 4205TIP3   OH212620   3.854   2.294   0.627 -0.5476 -0.2358  0.0989
 4205TIP3    H112621   3.893   2.336   0.551 -0.5475 -1.4336 -0.5837
 4205TIP3    H212622   3.917   2.226   0.652 -0.8596 -0.2951  0.7565
 4206TIP3   OH212623   1.752   1.464   1.989 -0.2134  0.0155  0.0755
 4206TIP3    H112624   1.711   1.533   1.938  0.6064  0.9567  0.6550
 4206TIP3    H212625   1.804   1.414   1.926 -0.9980 -0.2491 -0.3843
 4207TIP3   OH212626   0.643   4.733   4.419  0.1636 -0.8170  0.3224
 4207TIP3    H112627   0.702   4.666   4.452 -0.1629 -1.4183 -0.2750
 4207TIP3    H212628   0.567   4.684   4.386 -0.3407 -0.1138  0.4060
 4208TIP3   OH212629   5.957   1.410   4.244 -0.2449 -0.8902 -0.1027
 4208TIP3    H112630   5.944   1.480   4.180 -1.3819 -1.4897 -0.5515
 4208TIP3    H212631   6.027   1.356   4.208  0.2105 -0.3393 -0.0559
 4209TIP3   OH212632   3.830   1.377   1.384  0.1634  0.6534 -0.0618
 4209TIP3    H112633   3.889   1.443   1.422  0.0949  0.9250 -0.4244
 4209TIP3    H212634   3.797   1.328   1.460 -0.2122  1.3872  0.2594
 4210TIP3   OH212635   1.309   0.140   3.354  0.1364  0.1421 -0.3057
 4210TIP3    H112636   1.364   0.062   3.338  1.1442  0.8536 -0.4151
 4210TIP3    H212637   1.220   0.105   3.359  0.5626 -1.0271 -0.3455
 4211TIP3   OH212638   3.248   1.057   1.019 -0.2488  0.4064 -0.0614
 4211TIP3    H112639   3.285   0.976   1.054 -1.1393 -0.0393 -0.1329
 4211TIP3    H212640   3.266   1.054   0.925 -1.2320 -0.2398 -0.2414
 4212TIP3   OH212641   5.409   5.297   3.398 -0.6460  0.1983  0.0416
 4212TIP3    H112642   5.492   5.258   3.370 -0.7475  0.2411 -0.3213
 4212TIP3    H212643   5.355   5.221   3.423 -0.3506  0.1992  0.6851
 4213TIP3   OH212644   1.266   0.561   3.752 -0.4319  0.0793 -0.2174
 4213TIP3    H112645   1.348   0.519   3.777  0.4541  1.1146 -1.2580
 4213TIP3    H212646   1.291   0.650   3.728 -1.8439  0.3769 -0.6786
 4214TIP3   OH212647   5.713   0.245  -0.026  0.1093  0.0960  0.7205
 4214TIP3    H112648   5.641   0.307  -0.019  0.5785  0.6340  0.9141
 4214TIP3    H212649   5.709   0.194   0.055 -2.3477 -2.4819 -0.8517
 4215TIP3   OH212650   3.140   5.728   2.029  0.4640  0.0392  0.3331
 4215TIP3    H112651   3.184   5.681   2.100  1.5971  0.7777  0.1446
 4215TIP3    H212652   3.191   5.705   1.951 -0.3876 -0.2581 -0.1422
 4216TIP3   OH212653   4.542   4.478   1.349 -0.2592  0.3969  0.1994
 4216TIP3    H112654   4.612   4.429   1.392  0.2195  2.0759  1.4130
 4216TIP3    H212655   4.551   4.567   1.382 -2.5213  0.8182 -0.1768
 4217TIP3   OH212656   1.267   0.749   3.131  0.2873 -0.0614 -0.2350
 4217TIP3    H112657   1.200   0.744   3.199  0.3485 -2.1191 -0.2686
 4217TIP3    H212658   1.348   0.764   3.178  0.4250 -2.0999  0.2684
 4218TIP3   OH212659   5.145   5.930   0.191  0.2095 -0.4830  0.1766
 4218TIP3    H112660   5.155   5.957   0.283 -1.4574 -1.8919  0.8299
 4218TIP3    H212661   5.051   5.917   0.180  0.2623  0.5353 -2.0409
 4219TIP3   OH212662   5.547   2.767   1.843  0.8055  0.3265  0.3207
 4219TIP3    H112663   5.477   2.808   1.894  0.5150 -1.2202  1.2210
 4219TIP3    H212664   5.504   2.695   1.796  1.5096  0.3281 -0.3496
 4220TIP3   OH212665   4.278   5.638   1.086 -0.2473  0.1871 -0.3948
 4220TIP3    H112666   4.362   5.672   1.057  0.3276 -1.9520 -1.4921
 4220TIP3    H212667   4.215   5.672   1.023 -0.9394  4.5847  2.2985
 4221TIP3   OH212668   4.701   1.822   2.341  0.4844  0.2638 -0.4336
 4221TIP3    H112669   4.760   1.765   2.292 -1.2941 -0.9825 -1.2346
 4221TIP3    H212670   4.638   1.852   2.276  0.2218  1.5989  0.3937
 4222TIP3   OH212671   1.225   5.168   2.417 -0.1494 -0.4956  0.1103
 4222TIP3    H112672   1.174   5.242   2.383 -0.8256 -0.7390  0.6014
 4222TIP3    H212673   1.304   5.209   2.452 -0.8628  0.0959  1.0840
 4223TIP3   OH212674   1.159   1.180   4.886  0.2670 -0.2785  0.5823
 4223TIP3    H112675   1.153   1.190   4.791 -0.3510  0.0866  0.6522
 4223TIP3    H212676   1.252   1.165   4.903  0.3760 -0.3743 -0.0826
 4224TIP3   OH212677   4.039   1.936   4.374  0.2526  0.3618 -0.5069
 4224TIP3    H112678   4.076   1.854   4.343  0.5690  0.1932  0.2984
 4224TIP3    H212679   4.021   1.986   4.294  1.8165  0.2660 -0.9508
 4225TIP3   OH212680   5.275   5.543   4.919  0.0789 -0.1641 -0.0134
 4225TIP3    H112681   5.200   5.503   4.963  0.4944  0.3281  1.1746
 4225TIP3    H212682   5.246   5.555   4.828 -0.8590 -1.0356  0.1586
 4226TIP3   OH212683   0.460   5.309   2.440  0.0349 -0.0878 -0.6202
 4226TIP3    H112684   0.405   5.387   2.433 -0.4256 -0.4772 -1.4034
 4226TIP3    H212685   0.529   5.334   2.502 -2.9806 -0.7261  3.3986
 4227TIP3   OH212686   1.468   2.827   3.339  0.3144 -0.0859  0.1016
 4227TIP3    H112687   1.475   2.808   3.432  0.9657 -0.7969 -0.0809
 4227TIP3    H212688   1.499   2.747   3.296  0.3643  0.3655 -0.7215
 4228TIP3   OH212689   2.447   3.906   0.487 -0.2894  0.2939  0.1163
 4228TIP3    H112690   2.479   3.870   0.570 -1.5581 -0.0915  0.4658
 4228TIP3    H212691   2.523   3.904   0.429  0.6181  0.5241  1.2468
 4229TIP3   OH212692   5.412   0.793   4.519  0.0598 -0.1962  0.0606
 4229TIP3    H112693   5.436   0.702   4.500 -0.9374 -0.2497 -1.0596
 4229TIP3    H212694   5.318   0.790   4.533 -0.1371  0.7860 -0.8996
 4230TIP3   OH212695   1.141   0.908   4.103  0.3929  0.2384  0.3637
 4230TIP3    H112696   1.186   0.982   4.142  0.5258  1.4044 -1.8141
 4230TIP3    H212697   1.091   0.946   4.030  0.4841 -1.7985 -0.8566
 4231TIP3   OH212698   5.557   4.869   0.226  0.4986  0.5347  0.0760
 4231TIP3    H112699   5.543   4.829   0.312  0.1464  1.3277  0.3960
 4231TIP3    H212700   5.473   4.909   0.204  1.1349  2.1059  0.3129
 4232TIP3   OH212701   0.013   4.003   2.119 -0.1149 -0.5796  0.0470
 4232TIP3    H112702   0.081   4.066   2.094 -0.2449 -1.1456 -1.9205
 4232TIP3    H212703   0.050   3.956   2.193  1.6451 -0.8111 -0.9170
 4233TIP3   OH212704   5.173   0.538   3.545 -0.2073 -0.7386  0.0555
 4233TIP3    H112705   5.081   0.541   3.573 -0.8552  0.8390 -1.9663
 4233TIP3    H212706   5.172   0.578   3.458  2.5872  0.3259  0.4227
 4234TIP3   OH212707   5.083   5.321   3.475 -0.4499  0.5809  0.3733
 4234TIP3    H112708   5.109   5.247   3.530  0.5563  0.0058 -0.8282
 4234TIP3    H212709   5.044   5.384   3.536  0.6744 -0.0076  1.7481
 4235TIP3   OH212710   4.987   0.693   5.161  0.3192 -0.1034  0.3651
 4235TIP3    H112711   5.063   0.671   5.107 -1.1947  0.4973 -2.1868
 4235TIP3    H212712   5.024   0.738   5.237  2.6274 -1.7986  0.3647
 4236TIP3   OH212713   2.369   4.908   0.225  0.1043 -0.5225 -0.6604
 4236TIP3    H112714   2.444   4.911   0.167  0.4064  0.6730 -0.2333
 4236TIP3    H212715   2.328   4.994   0.217 -0.3116 -0.6117  0.2921
 4237TIP3   OH212716   0.833   2.585   4.886 -0.2488  0.1215  0.3168
 4237TIP3    H112717   0.858   2.537   4.807  0.5839  1.1954 -0.0976
 4237TIP3    H212718   0.822   2.518   4.953  1.5189 -0.6051 -0.0724
 4238TIP3   OH212719   1.802   4.217   4.301  0.4613  0.0753 -0.0395
 4238TIP3    H112720   1.733   4.266   4.345 -1.7801 -1.6494 -1.3826
 4238TIP3    H212721   1.837   4.159   4.368 -1.0753 -0.6642  0.1707
 4239TIP3   OH212722   4.896   3.180   4.872 -0.1655 -0.5759  0.1729
 4239TIP3    H112723   4.901   3.199   4.966 -1.7785  0.8450  0.0182
 4239TIP3    H212724   4.978   3.216   4.837 -0.6101  1.0923  0.7255
 4240TIP3   OH212725   4.517   4.213   2.708 -0.1938  0.0271 -0.3916
 4240TIP3    H112726   4.468   4.163   2.643 -0.4769  0.2952 -0.3891
 4240TIP3    H212727   4.559   4.147   2.763 -0.6350 -0.2059 -0.3310
 4241TIP3   OH212728   3.230   4.987   4.860 -0.0051  0.6372  0.6377
 4241TIP3    H112729   3.178   5.053   4.907  0.0398  1.9080 -0.9761
 4241TIP3    H212730   3.299   5.038   4.817  0.4344 -0.5687 -0.1134
 4242TIP3   OH212731   5.928   4.326   4.437  0.2695 -0.4903 -0.3245
 4242TIP3    H112732   5.938   4.268   4.513 -0.1276 -1.0097 -0.6623
 4242TIP3    H212733   5.935   4.414   4.474  0.8766 -0.7445  0.1974
 4243TIP3   OH212734   5.168   4.103   4.129 -0.6495  0.0126 -0.7748
 4243TIP3    H112735   5.258   4.110   4.098 -0.1061 -2.5548 -0.0511
 4243TIP3    H212736   5.172   4.131   4.221 -0.4820 -0.4372 -0.6390
 4244TIP3   OH212737   2.363   3.138   3.956  0.4816  0.2244  0.2771
 4244TIP3    H112738   2.388   3.075   3.887  0.8676  1.4485 -0.7397
 4244TIP3    H212739   2.269   3.149   3.945  0.6351  0.8997 -0.5151
 4245TIP3   OH212740   5.029   3.503   0.706 -0.7314  0.4352 -0.0819
 4245TIP3    H112741   5.104   3.546   0.748  0.0612  1.0323 -1.9982
 4245TIP3    H212742   4.953   3.545   0.746 -0.0231  1.1230  0.6016
 4246TIP3   OH212743   6.227   4.809   2.651  0.0168 -0.0174 -0.1316
 4246TIP3    H112744   6.176   4.732   2.674  2.4892 -1.1117  2.1958
 4246TIP3    H212745   6.317   4.778   2.645  1.1315  2.6683  0.9807
 4247TIP3   OH212746   4.748   4.679   2.917 -0.4602  0.4502 -0.3638
 4247TIP3    H112747   4.655   4.660   2.928 -0.2031  0.3484  2.4023
 4247TIP3    H212748   4.783   4.601   2.872 -1.7847  0.8439 -2.1669
 4248TIP3   OH212749   0.480   5.617   2.600 -0.2371 -0.3021  0.3219
 4248TIP3    H112750   0.429   5.627   2.681 -2.0691  1.4775 -0.9664
 4248TIP3    H212751   0.415   5.595   2.533  1.3701 -2.7736 -0.5698
 4249TIP3   OH212752   0.736   1.405   2.008 -0.2623 -0.2026 -0.7930
 4249TIP3    H112753   0.727   1.495   2.039  0.0644 -0.6942  0.8093
 4249TIP3    H212754   0.830   1.389   2.005 -0.3383 -0.8439  0.0237
 4250TIP3   OH212755   3.706   5.593   5.103 -0.1193 -0.3377 -0.2106
 4250TIP3    H112756   3.772   5.658   5.081  0.1787 -0.8264 -0.7770
 4250TIP3    H212757   3.661   5.630   5.179  0.8492 -0.0310  0.2326
 4251TIP3   OH212758   5.761   5.918   2.944 -0.2050 -0.0764 -0.0071
 4251TIP3    H112759   5.719   5.844   2.899 -0.6717 -0.3564  0.8541
 4251TIP3    H212760   5.741   5.904   3.036  2.8032 -0.8825  0.6362
 4252TIP3   OH212761   2.391   0.521   0.451  0.0489 -0.5057  0.9858
 4252TIP3    H112762   2.468   0.467   0.469 -0.2861 -0.8549  1.3788
 4252TIP3    H212763   2.424   0.611   0.451  0.5932 -0.6983  0.4180
 4253TIP3   OH212764   2.488   2.360   1.762 -0.5150 -0.2432 -0.2860
 4253TIP3    H112765   2.484   2.371   1.857 -0.3615 -0.2003 -0.2854
 4253TIP3    H212766   2.420   2.295   1.743  0.6927 -1.6534  0.0657
 4254TIP3   OH212767   2.779   3.289   1.353  0.5827  0.5045 -0.6913
 4254TIP3    H112768   2.787   3.193   1.355  0.8903  0.5345  0.5969
 4254TIP3    H212769   2.685   3.305   1.353  0.4308  0.1673  2.2044
 4255TIP3   OH212770   0.354   0.091   1.946  0.0934 -0.5125 -0.0019
 4255TIP3    H112771   0.448   0.107   1.939  0.0064  0.1309  0.1446
 4255TIP3    H212772   0.346   0.026   2.016  0.3823  0.2351  0.7591
 4256TIP3   OH212773   2.186   5.296   3.696  0.4162 -0.1836  0.0838
 4256TIP3    H112774   2.157   5.245   3.620  0.6376  2.1407 -1.7151
 4256TIP3    H212775   2.279   5.315   3.678  0.8135 -0.5913  1.5691
 4257TIP3   OH212776   1.377   4.602   1.611 -0.7484 -0.6867  0.6526
 4257TIP3    H112777   1.378   4.666   1.682 -0.7069  1.4736 -1.1949
 4257TIP3    H212778   1.470   4.580   1.597 -0.8010 -1.6701  1.6668
 4258TIP3   OH212779   2.244   2.111   4.427  0.0927 -0.6143  0.0263
 4258TIP3    H112780   2.264   2.046   4.361  0.2580 -0.6507  0.1104
 4258TIP3    H212781   2.328   2.128   4.470 -0.3731 -2.2514  1.7518
 4259TIP3   OH212782   2.292   2.565   1.445  0.0608  0.4618 -0.2035
 4259TIP3    H112783   2.322   2.636   1.502 -0.6642 -0.7714  1.8053
 4259TIP3    H212784   2.242   2.507   1.503 -1.6454 -0.3150 -2.3148
 4260TIP3   OH212785   4.656   2.815   2.227  0.6140 -0.1872  0.5718
 4260TIP3    H112786   4.605   2.833   2.148  0.7020 -2.7431 -0.1564
 4260TIP3    H212787   4.608   2.746   2.272  2.9701 -2.1935  0.2153
 4261TIP3   OH212788   6.042   1.528   0.480  0.6216  0.7235 -0.2128
 4261TIP3    H112789   5.951   1.540   0.508  0.6627  0.5920 -0.0147
 4261TIP3    H212790   6.068   1.612   0.443  0.4264  0.7682 -0.2489
 4262TIP3   OH212791   3.796   2.198   4.011 -0.2847 -0.0250 -0.2172
 4262TIP3    H112792   3.819   2.256   4.083 -2.3576  0.5606  0.0576
 4262TIP3    H212793   3.774   2.257   3.938  3.2750 -0.5939 -1.9886
 4263TIP3   OH212794   2.915   2.870   1.035  0.1658 -0.0796 -0.2136
 4263TIP3    H112795   2.906   2.947   1.091  0.4823  0.8388 -1.3815
 4263TIP3    H212796   2.832   2.863   0.989  0.9091  0.9688 -1.8007
 4264TIP3   OH212797   2.080   2.832   3.382 -0.5438 -0.4152 -0.2038
 4264TIP3    H112798   2.070   2.739   3.361 -1.9624 -0.7813  1.7902
 4264TIP3    H212799   1.995   2.858   3.416  0.1454  1.3429  0.2774
 4265TIP3   OH212800   3.196   5.324   3.623 -0.1278  0.2853 -0.3254
 4265TIP3    H112801   3.115   5.355   3.581  0.8643  1.8274 -1.1969
 4265TIP3    H212802   3.239   5.271   3.557 -1.2649 -2.1858  0.7835
 4266TIP3   OH212803   1.733   5.929   0.163 -0.2375  0.0476  0.3608
 4266TIP3    H112804   1.662   5.982   0.127 -0.5243 -0.7807 -0.3273
 4266TIP3    H212805   1.794   5.993   0.200 -0.2925  0.9050 -0.9632
 4267TIP3   OH212806   3.003   0.926   0.727  0.0706 -0.1787 -0.1632
 4267TIP3    H112807   2.987   0.842   0.683 -1.0622  0.9306 -1.9812
 4267TIP3    H212808   2.926   0.938   0.783  0.8475 -0.9219  1.1148
 4268TIP3   OH212809   3.243   2.234   2.180 -0.0105  0.8318 -0.0566
 4268TIP3    H112810   3.269   2.320   2.148 -1.7282  1.0462 -0.9783
 4268TIP3    H212811   3.228   2.247   2.274  1.8175  0.9959  0.2453
 4269TIP3   OH212812   4.989   4.296   1.537  0.1440  0.1948  0.3922
 4269TIP3    H112813   5.082   4.315   1.520  0.1473  0.0971  0.2931
 4269TIP3    H212814   4.958   4.258   1.455 -0.6732  2.6594 -0.5310
 4270TIP3   OH212815   6.183   0.371   0.987 -0.6023  0.2569  0.2384
 4270TIP3    H112816   6.200   0.307   1.056 -0.0338 -2.1147 -1.9540
 4270TIP3    H212817   6.125   0.435   1.028  1.2405  0.0805  3.4522
 4271TIP3   OH212818   0.567   0.802   4.771 -0.1142  0.1136 -0.1100
 4271TIP3    H112819   0.642   0.747   4.750 -0.3806  0.4107 -2.0529
 4271TIP3    H212820   0.594   0.852   4.847  1.4346 -0.2272 -0.3994
 4272TIP3   OH212821   0.487   4.530   4.296  0.4506 -0.2114  0.0875
 4272TIP3    H112822   0.523   4.447   4.266 -0.6629 -0.8718  0.5087
 4272TIP3    H212823   0.392   4.520   4.285  0.2121  0.5465  1.2556
 4273TIP3   OH212824   3.878   4.497   0.233  0.2949 -0.4856  0.0070
 4273TIP3    H112825   3.902   4.589   0.240 -0.4698 -0.2486 -0.4166
 4273TIP3    H212826   3.830   4.478   0.314 -1.1767 -0.0040 -0.7327
 4274TIP3   OH212827   5.329   1.393   4.657  0.3288  0.0602  0.4905
 4274TIP3    H112828   5.308   1.313   4.609  1.5328 -0.0432  0.0947
 4274TIP3    H212829   5.250   1.412   4.707  0.2470 -1.7941  1.1632
 4275TIP3   OH212830   5.267   1.379   3.216  0.0445 -0.2569 -0.4150
 4275TIP3    H112831   5.317   1.309   3.258  1.8531  0.8228 -0.6789
 4275TIP3    H212832   5.249   1.346   3.128 -0.6573 -1.0825  0.0278
 4276TIP3   OH212833   5.430   4.405   0.386 -0.5624  0.1710 -0.4608
 4276TIP3    H112834   5.515   4.420   0.344  0.0226 -1.8069 -0.0802
 4276TIP3    H212835   5.366   4.434   0.321  0.3496 -1.3345 -2.1351
 4277TIP3   OH212836   5.513   5.698   4.941  0.7381 -0.5243  0.2875
 4277TIP3    H112837   5.450   5.629   4.918  1.9535 -1.9344  0.9825
 4277TIP3    H212838   5.494   5.769   4.881  0.6505 -2.2030 -1.7657
 4278TIP3   OH212839   5.379   1.660   4.961  0.5344  0.1150 -0.2847
 4278TIP3    H112840   5.459   1.709   4.978  0.5325  0.0696 -0.1483
 4278TIP3    H212841   5.372   1.598   5.034 -0.5136  1.2437  0.6198
 4279TIP3   OH212842   4.104   5.204   1.529 -0.1577 -0.2709 -0.2966
 4279TIP3    H112843   4.131   5.145   1.459  0.3789 -0.0891 -0.2514
 4279TIP3    H212844   4.044   5.152   1.584 -0.4563 -0.4595 -0.7993
 4280TIP3   OH212845   0.979   4.725   2.038 -0.7249  0.3710 -0.1746
 4280TIP3    H112846   0.937   4.641   2.055  0.4437 -0.1281  0.3244
 4280TIP3    H212847   1.073   4.705   2.035 -0.4922  1.5023 -0.9760
 4281TIP3   OH212848   1.100   5.003   3.035 -1.2356 -0.3611  0.6244
 4281TIP3    H112849   1.036   5.001   2.964 -0.3600 -0.4154 -0.1786
 4281TIP3    H212850   1.169   4.943   3.008  0.8518  2.2041 -0.2084
 4282TIP3   OH212851   2.480   2.707   0.864 -0.1021 -0.5333  0.3333
 4282TIP3    H112852   2.394   2.688   0.902 -1.7447  1.6400 -1.9759
 4282TIP3    H212853   2.493   2.640   0.798 -0.1588 -0.6855  0.4764
 4283TIP3   OH212854   2.263   4.752   3.233  0.0707 -0.5657 -0.1345
 4283TIP3    H112855   2.301   4.744   3.145  2.2802  1.1193  0.5767
 4283TIP3    H212856   2.298   4.676   3.280  1.7933  0.4100  0.2181
 4284TIP3   OH212857   0.954   1.878   1.686 -0.1066 -0.0927  0.3707
 4284TIP3    H112858   0.868   1.907   1.718  0.4630 -0.2298  2.1558
 4284TIP3    H212859   0.998   1.958   1.659 -0.0843  0.2434  1.3456
 4285TIP3   OH212860   2.228   3.748   0.446  0.1958 -0.5625  0.0878
 4285TIP3    H112861   2.244   3.679   0.510 -1.2450 -1.6929 -0.7048
 4285TIP3    H212862   2.315   3.779   0.421  0.8097 -0.6985  1.9105
 4286TIP3   OH212863   2.240   0.328   2.441 -0.2295  0.4448 -0.3762
 4286TIP3    H112864   2.281   0.389   2.378 -1.2142  1.7962  0.2476
 4286TIP3    H212865   2.308   0.313   2.506  0.8430 -1.0460 -1.7362
 4287TIP3   OH212866   6.112   5.621   2.322  0.1659  0.0101 -0.3009
 4287TIP3    H112867   6.022   5.645   2.342  0.0829  0.1536 -0.8224
 4287TIP3    H212868   6.104   5.554   2.254  0.4519  0.0866 -0.4123
 4288TIP3   OH212869   3.549   2.015   4.024 -0.4479  0.1680  0.1282
 4288TIP3    H112870   3.503   2.085   4.070  1.3207  0.9494  0.8176
 4288TIP3    H212871   3.638   2.049   4.011  0.4371 -1.8915  0.3706
 4289TIP3   OH212872   5.140   3.875   3.213 -0.7302 -0.1372  0.7375
 4289TIP3    H112873   5.221   3.925   3.211 -1.4158  0.9687 -0.0857
 4289TIP3    H212874   5.070   3.940   3.211 -1.6538 -1.0812  0.9003
 4290TIP3   OH212875   0.366   3.993   2.862  1.0478  0.2455  0.3559
 4290TIP3    H112876   0.366   3.951   2.948 -0.1864  0.1498  0.3236
 4290TIP3    H212877   0.402   4.080   2.879  0.4421  0.3723  1.0522
 4291TIP3   OH212878   3.809   1.786   0.549  0.0421 -0.7092  0.0611
 4291TIP3    H112879   3.715   1.770   0.546  0.0177 -0.5689  0.0557
 4291TIP3    H212880   3.828   1.798   0.642 -0.4250  2.0202 -0.1178
 4292TIP3   OH212881   4.259   5.618   3.860  0.3368  0.1882  0.0958
 4292TIP3    H112882   4.235   5.633   3.951  0.9257 -1.8372  0.6400
 4292TIP3    H212883   4.354   5.617   3.860  0.3596  1.0404 -0.7224
 4293TIP3   OH212884   5.799   5.570   0.248  0.7439  0.2238  0.0711
 4293TIP3    H112885   5.873   5.594   0.304 -0.8421 -0.3532  2.5740
 4293TIP3    H212886   5.735   5.640   0.261 -0.0098 -0.3712 -0.3483
 4294TIP3   OH212887   1.285   1.610   3.375  0.2452 -0.5431 -0.0400
 4294TIP3    H112888   1.213   1.556   3.407 -1.1491  1.2040 -0.0482
 4294TIP3    H212889   1.282   1.601   3.280 -0.1612 -0.2479 -0.0566
 4295TIP3   OH212890   5.469   5.797   0.430 -0.1278 -0.5088 -0.2637
 4295TIP3    H112891   5.415   5.735   0.381  1.3118 -0.4357 -2.0335
 4295TIP3    H212892   5.534   5.827   0.367 -0.4972  2.4952  0.6155
 4296TIP3   OH212893   4.960   1.633   3.794 -0.0159  0.2410  0.5893
 4296TIP3    H112894   4.907   1.712   3.800  0.3461  0.8015 -2.1504
 4296TIP3    H212895   4.912   1.576   3.733  0.8930 -0.6215  0.6466
 4297TIP3   OH212896   3.212   3.267   1.515  0.0331  0.3341 -0.3657
 4297TIP3    H112897   3.243   3.283   1.426 -0.1085 -0.4135 -0.5581
 4297TIP3    H212898   3.291   3.268   1.569 -0.0725  2.7636 -0.1783
 4298TIP3   OH212899   5.183   0.138   0.161 -0.5635  0.5722 -0.1051
 4298TIP3    H112900   5.242   0.078   0.117 -0.0767  0.3001  0.8881
 4298TIP3    H212901   5.230   0.165   0.240 -1.6276  0.6028  0.5438
 4299TIP3   OH212902   5.437   1.594   1.116  0.0605 -0.2586 -0.3665
 4299TIP3    H112903   5.427   1.678   1.072  0.0261  0.7160  1.4355
 4299TIP3    H212904   5.432   1.529   1.045 -0.4029  1.2085 -1.7239
 4300TIP3   OH212905   1.638   4.195   4.947  0.0341  0.5601 -0.9633
 4300TIP3    H112906   1.720   4.165   4.986 -1.3087 -1.5223  0.4606
 4300TIP3    H212907   1.581   4.119   4.950 -2.6243  2.4286  0.0021
 4301TIP3   OH212908   3.766   4.636   4.228 -0.1172 -0.2370  0.3531
 4301TIP3    H112909   3.838   4.580   4.257  1.1364  1.5953  0.9274
 4301TIP3    H212910   3.770   4.634   4.133  1.5004  0.7830  0.3690
 4302TIP3   OH212911   5.543   0.999   2.641  0.3388  0.0691 -0.3406
 4302TIP3    H112912   5.638   1.015   2.639  0.0703  1.8031 -0.8044
 4302TIP3    H212913   5.523   0.966   2.554  0.3981  0.5736 -0.5513
 4303TIP3   OH212914   3.338   3.148   2.733  0.1872 -0.0637 -0.0245
 4303TIP3    H112915   3.275   3.086   2.770 -0.0013  0.6402  0.8697
 4303TIP3    H212916   3.420   3.099   2.729  0.9382  0.5235  3.8820
 4304TIP3   OH212917   2.639   2.200   3.934 -0.6226  0.5681 -0.3210
 4304TIP3    H112918   2.642   2.134   3.864 -0.6615 -0.7397  0.8697
 4304TIP3    H212919   2.653   2.283   3.889  1.9472 -0.4334 -1.5690
 4305TIP3   OH212920   1.100   5.246   4.833  0.6040  0.0947 -0.4307
 4305TIP3    H112921   1.046   5.172   4.859  1.5795 -0.4047  0.2496
 4305TIP3    H212922   1.043   5.322   4.843  0.2333 -0.3404  0.9499
 4306TIP3   OH212923   6.122   0.298   1.435  0.4370 -0.6254 -0.4675
 4306TIP3    H112924   6.070   0.253   1.501  1.1011 -2.2247 -0.9835
 4306TIP3    H212925   6.172   0.364   1.484 -0.0467 -0.9094  0.4202
 4307TIP3   OH212926   4.112   3.288   4.681  0.0919 -0.2138  0.2009
 4307TIP3    H112927   4.061   3.357   4.723 -0.2542  0.2970 -1.0055
 4307TIP3    H212928   4.139   3.231   4.753  0.8947  1.4752  1.2996
 4308TIP3   OH212929   2.171   5.541   1.117  0.0717 -0.1297 -0.0643
 4308TIP3    H112930   2.207   5.615   1.165  1.2537  0.1845 -1.3727
 4308TIP3    H212931   2.136   5.580   1.036 -0.2662 -0.8567 -0.2781
 4309TIP3   OH212932   2.715   5.796   3.619 -0.3418 -0.1955 -0.1974
 4309TIP3    H112933   2.697   5.883   3.582  0.9188 -0.0659 -0.5659
 4309TIP3    H212934   2.758   5.815   3.703  0.4408 -0.4393 -0.5313
 4310TIP3   OH212935   2.840   0.832   4.918  0.1762  0.1437  0.2059
 4310TIP3    H112936   2.827   0.861   4.828  0.2423  2.2582  0.8339
 4310TIP3    H212937   2.754   0.800   4.945  0.4302 -1.6758 -0.9482
 4311TIP3   OH212938   4.052   4.755   3.512  0.7538  0.1862 -0.5920
 4311TIP3    H112939   3.965   4.724   3.485  1.3886 -1.3747 -0.9543
 4311TIP3    H212940   4.039   4.848   3.529 -1.1849 -0.1609  0.1778
 4312TIP3   OH212941   5.074   0.929   3.588  0.3350 -0.4480  0.0381
 4312TIP3    H112942   5.006   0.862   3.596  1.7931 -1.8295  1.8601
 4312TIP3    H212943   5.053   0.975   3.507 -0.2391 -3.7278 -1.8676
 4313TIP3   OH212944   0.700   5.587   3.740  0.4643  0.6064  0.0480
 4313TIP3    H112945   0.655   5.643   3.803  1.9465  0.3293  1.4296
 4313TIP3    H212946   0.730   5.512   3.792 -0.0671 -0.6781 -1.4283
 4314TIP3   OH212947   2.592   4.780   3.367  0.4417 -0.3478  0.0828
 4314TIP3    H112948   2.590   4.840   3.293  1.0075 -1.5115 -0.9007
 4314TIP3    H212949   2.603   4.838   3.443  2.1460  0.7548 -0.9237
 4315TIP3   OH212950   2.430   4.749   5.169  0.1537 -0.4899 -0.2846
 4315TIP3    H112951   2.453   4.762   5.077  0.9847 -0.1141 -0.0318
 4315TIP3    H212952   2.474   4.820   5.216  0.7462 -1.3684  0.5459
 4316TIP3   OH212953   4.999   5.247   1.216  0.2475 -0.3378  0.6153
 4316TIP3    H112954   5.089   5.236   1.246  0.2381  0.6068  1.0114
 4316TIP3    H212955   5.000   5.217   1.125  1.0125 -0.0996  0.5416
 4317TIP3   OH212956   2.188   5.653   3.186  0.0644  0.2579 -0.7829
 4317TIP3    H112957   2.153   5.590   3.250 -0.5626 -0.1881 -1.5532
 4317TIP3    H212958   2.110   5.694   3.148  0.4560  1.1302 -0.6702
 4318TIP3   OH212959   1.817   1.055   0.221  0.1150 -0.1453 -0.6008
 4318TIP3    H112960   1.835   1.003   0.300  0.3844  0.1139 -0.4884
 4318TIP3    H212961   1.891   1.116   0.216 -0.7400  0.9832 -0.1090
 4319TIP3   OH212962   1.419   4.752   2.446  0.1496 -0.0396  0.8304
 4319TIP3    H112963   1.360   4.772   2.374  0.5123  1.4857  0.9351
 4319TIP3    H212964   1.507   4.766   2.411  0.3536  0.0045  1.3467
 4320TIP3   OH212965   6.095   0.275   4.954  0.5290 -0.4151  0.0669
 4320TIP3    H112966   6.050   0.279   5.039 -0.6976  1.9514 -0.5937
 4320TIP3    H212967   6.172   0.220   4.970  0.0084 -0.5525  2.5352
 4321TIP3   OH212968   3.616   5.324   3.842 -0.0446  0.3608 -0.6218
 4321TIP3    H112969   3.598   5.395   3.904  1.2897  0.4459 -0.3146
 4321TIP3    H212970   3.576   5.354   3.760  0.6021  1.5490 -0.5339
 4322TIP3   OH212971   3.891   2.626   3.941 -0.3767 -0.1162  0.4114
 4322TIP3    H112972   3.968   2.612   3.997 -1.0766 -0.8294  1.2322
 4322TIP3    H212973   3.857   2.711   3.970 -0.4699 -0.2682  0.7628
 4323TIP3   OH212974   1.071   3.488   4.455  0.5682  0.1679 -0.5782
 4323TIP3    H112975   1.158   3.484   4.415  0.9221  1.9167 -0.0667
 4323TIP3    H212976   1.030   3.566   4.417 -0.9389 -0.7987 -1.0609
 4324TIP3   OH212977   0.392   1.990   0.137  0.4298 -0.1476  0.6578
 4324TIP3    H112978   0.469   1.948   0.175 -0.0242 -0.8261  0.8513
 4324TIP3    H212979   0.320   1.966   0.196  0.0101  0.1888  0.2928
 4325TIP3   OH212980   5.438   0.907   0.567 -0.1900  0.1328 -0.1595
 4325TIP3    H112981   5.439   0.848   0.492 -0.0461  0.2413 -0.2429
 4325TIP3    H212982   5.441   0.849   0.643  2.5437  0.0481 -0.2346
 4326TIP3   OH212983   6.136   2.734   3.963 -0.2660 -0.6392  0.1786
 4326TIP3    H112984   6.080   2.706   3.891  0.5210 -0.7043 -0.4076
 4326TIP3    H212985   6.175   2.653   3.996  1.1234 -0.3883 -0.7829
 4327TIP3   OH212986   2.667   1.391   1.534  0.1491 -0.2196  0.1191
 4327TIP3    H112987   2.601   1.385   1.465  0.3361  0.4862 -0.1301
 4327TIP3    H212988   2.710   1.305   1.534 -0.7702 -0.6952  0.3024
 4328TIP3   OH212989   5.358   4.637   0.571  0.3950 -0.0273 -0.8169
 4328TIP3    H112990   5.285   4.648   0.509 -0.3117  1.7659  0.2813
 4328TIP3    H212991   5.320   4.587   0.643  1.2853 -2.3364 -1.8522
 4329TIP3   OH212992   5.355   4.497   2.643 -0.0223 -0.1239  0.0723
 4329TIP3    H112993   5.355   4.406   2.614 -1.2837 -0.0476 -0.2273
 4329TIP3    H212994   5.380   4.547   2.565 -0.9174 -0.1108 -0.2220
 4330TIP3   OH212995   0.543   5.594   1.266 -0.2690  0.0427 -0.3586
 4330TIP3    H112996   0.614   5.570   1.325 -1.2392  0.6063  1.0919
 4330TIP3    H212997   0.582   5.659   1.207  0.1017  1.3163  1.2447
 4331TIP3   OH212998   0.059   4.911   0.073  0.2946 -0.2566  0.2179
 4331TIP3    H112999   0.080   4.948  -0.013  2.1378 -1.3258  0.1751
 4331TIP3    H213000   0.019   4.984   0.121 -1.3191  0.2126 -1.6875
 4332TIP3   OH213001   2.516   3.466   0.436 -0.0846  0.2594  0.7932
 4332TIP3    H113002   2.593   3.520   0.422  1.4216 -2.0622 -0.5752
 4332TIP3    H213003   2.458   3.485   0.362 -0.4219  1.2897  1.3045
 4333TIP3   OH213004   1.586   3.283   4.270  0.1573 -0.5989 -0.1703
 4333TIP3    H113005   1.662   3.260   4.216  0.6778 -0.4285  0.4896
 4333TIP3    H213006   1.564   3.372   4.244 -0.0410 -0.7736 -0.6145
 4334TIP3   OH213007   0.580   3.273   2.619  0.2353 -0.0543 -0.1565
 4334TIP3    H113008   0.532   3.327   2.556 -0.0365  0.9707  0.8880
 4334TIP3    H213009   0.671   3.280   2.593 -0.1309 -2.5291 -2.5540
 4335TIP3   OH213010   3.747   4.726   2.915  0.0208 -0.5048 -0.3317
 4335TIP3    H113011   3.740   4.707   3.009 -0.0633  0.1112 -0.2094
 4335TIP3    H213012   3.660   4.706   2.880 -0.7065  1.5291  0.1546
 4336TIP3   OH213013   5.710   0.641   2.186 -0.3538 -0.3183  0.1134
 4336TIP3    H113014   5.715   0.731   2.154  0.9366 -0.6837 -0.7740
 4336TIP3    H213015   5.628   0.607   2.151 -0.9473  0.5611  0.6251
 4337TIP3   OH213016   1.312   4.274   4.324  0.1484 -0.0218 -0.3394
 4337TIP3    H113017   1.250   4.289   4.395  2.0789  3.8920  0.7846
 4337TIP3    H213018   1.349   4.188   4.342 -1.9506 -0.6543  1.2964
 4338TIP3   OH213019   5.835   3.527   1.177 -0.0128 -0.0597  0.2973
 4338TIP3    H113020   5.827   3.432   1.188  1.3623 -0.1099  1.1127
 4338TIP3    H213021   5.832   3.540   1.082 -1.8533 -0.7218  0.2284
 4339TIP3   OH213022   4.195   2.915   3.126 -0.0513 -0.1220  0.9586
 4339TIP3    H113023   4.106   2.920   3.162 -0.6717  0.6846 -0.6038
 4339TIP3    H213024   4.188   2.852   3.054  0.4820  0.4719  0.3785
 4340TIP3   OH213025   3.255   1.637   2.542 -0.3290 -0.2681  0.2256
 4340TIP3    H113026   3.235   1.719   2.587 -1.1867  1.1495 -2.4711
 4340TIP3    H213027   3.175   1.585   2.550 -0.4705 -0.0343  0.3383
 4341TIP3   OH213028   1.897   2.958   4.093 -0.1362 -0.1498  0.2140
 4341TIP3    H113029   1.837   3.031   4.082 -1.0936 -0.9411  0.0299
 4341TIP3    H213030   1.910   2.952   4.188 -3.2692 -2.1871  0.6430
 4342TIP3   OH213031   4.599   0.633   0.648 -0.4602  0.2923  0.1325
 4342TIP3    H113032   4.627   0.543   0.665  2.5341  0.8329 -1.2789
 4342TIP3    H213033   4.607   0.676   0.733  0.2421 -0.2847  0.3717
 4343TIP3   OH213034   3.395   4.019   1.746 -0.9081 -0.5646 -0.9421
 4343TIP3    H113035   3.465   3.961   1.776  1.8818  1.2455 -3.3256
 4343TIP3    H213036   3.331   3.960   1.706  2.3741 -2.2111 -4.4437
 4344TIP3   OH213037   5.142   1.458   0.992  0.0840  0.6516  0.3279
 4344TIP3    H113038   5.106   1.393   0.932 -0.1121  0.5235  0.5789
 4344TIP3    H213039   5.124   1.542   0.951 -0.1780  0.5722  0.2755
 4345TIP3   OH213040   3.363   3.862   3.246  0.1158  0.3592  0.1798
 4345TIP3    H113041   3.270   3.885   3.250 -0.0484  0.0609 -1.3295
 4345TIP3    H213042   3.366   3.781   3.195  1.2544  0.7471 -0.4190
 4346TIP3   OH213043   0.032   1.162   3.679  0.3654 -0.0979 -0.3476
 4346TIP3    H113044  -0.016   1.227   3.730 -0.5880 -1.3397  0.3930
 4346TIP3    H213045  -0.015   1.158   3.595  1.7947  1.7729 -1.3322
 4347TIP3   OH213046   3.415   1.035   3.768  0.4839 -0.4273 -0.1449
 4347TIP3    H113047   3.506   1.012   3.751  0.7889  1.3473 -1.2492
 4347TIP3    H213048   3.365   0.985   3.703  0.9176  0.3402 -1.0962
 4348TIP3   OH213049   0.896   4.487   4.338  0.3604  0.6306 -0.1107
 4348TIP3    H113050   0.827   4.499   4.403  1.2098  1.5039  0.6660
 4348TIP3    H213051   0.937   4.573   4.329  1.3655  0.1353 -0.5332
 4349TIP3   OH213052   4.858   1.433   0.153  0.6908 -0.3474  0.2187
 4349TIP3    H113053   4.763   1.428   0.162  0.6482 -0.3948 -0.2174
 4349TIP3    H213054   4.891   1.368   0.215  0.4162 -0.6920  0.0155
 4350TIP3   OH213055   0.333   1.784   0.549 -0.2046 -0.9949 -0.2930
 4350TIP3    H113056   0.314   1.692   0.568 -0.4159 -0.7791  0.6178
 4350TIP3    H213057   0.247   1.826   0.543 -0.1052 -0.8017 -0.4063
 4351TIP3   OH213058   3.936   0.590   3.041 -0.0057 -0.3278  0.0865
 4351TIP3    H113059   4.018   0.585   2.992 -0.6211  0.0440 -1.0170
 4351TIP3    H213060   3.917   0.500   3.066  0.4550 -0.4889 -0.1363
 4352TIP3   OH213061   5.964   0.201   4.389 -0.6579 -0.0050  0.4542
 4352TIP3    H113062   5.996   0.263   4.454  1.1041  0.6240 -0.9364
 4352TIP3    H213063   6.007   0.118   4.412 -0.4598  0.0879  0.4227
 4353TIP3   OH213064   2.004   4.374   0.004 -0.4307  0.0883 -0.1833
 4353TIP3    H113065   1.997   4.318   0.081 -0.4327  1.5621  0.9530
 4353TIP3    H213066   2.090   4.416   0.013 -1.6196  2.5125  0.6770
 4354TIP3   OH213067   1.214   5.307   3.344  0.0936  0.3086 -0.4709
 4354TIP3    H113068   1.132   5.335   3.304 -0.3975 -0.9603 -0.3892
 4354TIP3    H213069   1.282   5.347   3.290 -0.5645  1.3044 -0.5940
 4355TIP3   OH213070   4.401   2.981   1.081 -0.1411 -0.0614  0.0674
 4355TIP3    H113071   4.440   3.036   1.149 -0.4022 -0.2305  0.3562
 4355TIP3    H213072   4.395   3.038   1.004  0.9104 -0.1112 -0.0593
 4356TIP3   OH213073   4.743   3.343   1.278  0.2092  0.5412 -0.7843
 4356TIP3    H113074   4.768   3.261   1.237 -0.2454  0.0413 -0.0923
 4356TIP3    H213075   4.824   3.394   1.281  0.6968 -0.2320 -0.4241
 4357TIP3   OH213076   1.496   0.999   0.360  0.2899  0.2270 -0.2811
 4357TIP3    H113077   1.429   1.039   0.414 -0.0175  0.1715 -0.6201
 4357TIP3    H213078   1.467   1.012   0.270 -0.3294 -1.5884 -0.3966
 4358TIP3   OH213079   2.330   5.703   0.824 -0.6883 -0.4031  0.6620
 4358TIP3    H113080   2.365   5.740   0.905  0.1042  0.2058  0.0529
 4358TIP3    H213081   2.331   5.776   0.762 -1.4363 -0.8246  0.1456
 4359TIP3   OH213082   5.685   4.416   1.012  0.0559  0.2184 -0.5702
 4359TIP3    H113083   5.641   4.425   0.927  0.0649  0.3939 -0.5563
 4359TIP3    H213084   5.766   4.368   0.991 -0.1327 -0.0926 -0.5969
 4360TIP3   OH213085   2.984   5.100   0.786  0.0029 -0.3038 -0.1161
 4360TIP3    H113086   2.904   5.104   0.838 -0.1188  1.7911 -0.3745
 4360TIP3    H213087   3.047   5.154   0.834  1.1177 -1.5137 -0.1801
 4361TIP3   OH213088   0.794   5.748   3.989  0.2329  0.2698 -0.0989
 4361TIP3    H113089   0.729   5.708   4.046 -0.5027  0.0967 -1.0251
 4361TIP3    H213090   0.746   5.815   3.941  0.9156  0.6656 -0.2519
 4362TIP3   OH213091   0.379   3.846   0.861 -0.4753  0.1355  0.1445
 4362TIP3    H113092   0.298   3.810   0.897 -0.0940 -1.3791 -0.4466
 4362TIP3    H213093   0.449   3.801   0.908  0.0334  1.0768  0.3098
 4363TIP3   OH213094   4.729   3.878   2.089 -0.2583  0.4547  0.7382
 4363TIP3    H113095   4.634   3.885   2.082 -0.0967  1.7898 -0.7419
 4363TIP3    H213096   4.755   3.820   2.018  0.0363 -0.0332  1.2326
 4364TIP3   OH213097   5.695   0.795   3.978 -0.2059 -0.1691 -0.1274
 4364TIP3    H113098   5.646   0.719   4.009  0.6851 -0.6652  0.1094
 4364TIP3    H213099   5.739   0.829   4.056  0.0609  0.0856 -0.3837
 4365TIP3   OH213100   0.761   0.649   1.572 -0.1016  0.1692  0.1054
 4365TIP3    H113101   0.674   0.625   1.605 -0.7992  0.2361 -1.5517
 4365TIP3    H213102   0.793   0.716   1.633 -0.8326 -0.4828  1.2312
 4366TIP3   OH213103   1.482   0.956   1.368 -0.8762 -0.0672  0.4689
 4366TIP3    H113104   1.397   0.947   1.326  0.0710 -2.7003 -1.1463
 4366TIP3    H213105   1.508   0.866   1.389  2.0619  0.4889 -0.3330
 4367TIP3   OH213106   1.567   0.294   0.396  0.3848  0.2653 -0.2131
 4367TIP3    H113107   1.480   0.259   0.373 -0.3508  2.6269 -1.3428
 4367TIP3    H213108   1.568   0.294   0.492 -0.2889 -1.0469 -0.1762
 4368TIP3   OH213109   5.673   0.695   3.250 -0.5210  0.1112  0.1721
 4368TIP3    H113110   5.591   0.744   3.239 -0.6338 -0.1360 -0.0980
 4368TIP3    H213111   5.700   0.715   3.339 -0.3084  1.0703 -0.0877
 4369TIP3   OH213112   4.976   2.017   1.231 -0.3596 -0.3069  0.0633
 4369TIP3    H113113   4.933   1.940   1.193  0.3730 -0.6183 -0.1602
 4369TIP3    H213114   5.035   2.047   1.162 -0.0532 -0.0302  0.4464
 4370TIP3   OH213115   3.103   3.886   1.951  0.1648 -0.4375 -0.4769
 4370TIP3    H113116   3.157   3.965   1.950  0.4697 -0.6316  0.0473
 4370TIP3    H213117   3.127   3.843   2.033 -1.2047 -0.2373  0.0485
 4371TIP3   OH213118   5.662   2.765   3.530  0.3230 -0.0616 -0.1750
 4371TIP3    H113119   5.585   2.749   3.585  0.2151  0.4855 -0.1662
 4371TIP3    H213120   5.718   2.689   3.546 -0.5936 -0.8992 -0.8402
 4372TIP3   OH213121   3.353   4.890   0.507  0.0720  0.1676  0.1016
 4372TIP3    H113122   3.412   4.833   0.557  0.0241  1.3496  1.5833
 4372TIP3    H213123   3.403   4.970   0.493 -0.7479  0.7232  0.3071
 4373TIP3   OH213124   0.406   3.568   0.657 -0.2543  0.0559  0.4374
 4373TIP3    H113125   0.408   3.663   0.672 -2.0838  0.1616  0.2019
 4373TIP3    H213126   0.469   3.533   0.720 -0.0107  1.3643  0.9629
 4374TIP3   OH213127   1.153   5.300   3.044  0.4147 -0.0770 -0.3543
 4374TIP3    H113128   1.136   5.206   3.053  0.1150  0.0625  0.7253
 4374TIP3    H213129   1.191   5.310   2.957 -0.7951 -1.0129 -1.0102
 4375TIP3   OH213130   3.048   2.979   0.204 -0.6598  0.3134  0.0382
 4375TIP3    H113131   3.006   2.899   0.172 -1.4338  0.8026 -0.1998
 4375TIP3    H213132   3.045   2.972   0.299  0.8590 -0.7441  0.0333
 4376TIP3   OH213133   4.156   5.255   3.477 -0.2078 -0.1645  0.6532
 4376TIP3    H113134   4.091   5.231   3.411 -0.7903 -0.6197  1.3889
 4376TIP3    H213135   4.110   5.317   3.534  0.5457  0.8694  0.1654
 4377TIP3   OH213136   4.152   5.383   3.798  0.2813  0.5906  0.1559
 4377TIP3    H113137   4.194   5.469   3.810 -0.2249  1.1649 -1.8026
 4377TIP3    H213138   4.074   5.402   3.746 -0.1862 -0.9903  0.2449
 4378TIP3   OH213139   5.819   3.611   0.257  0.7234 -0.3714 -0.4045
 4378TIP3    H113140   5.792   3.662   0.333 -0.3417  0.0311 -1.0463
 4378TIP3    H213141   5.859   3.675   0.198 -1.9154  0.0695 -1.8526
 4379TIP3   OH213142   2.969   5.606   4.413 -0.9513  0.8008 -0.6618
 4379TIP3    H113143   2.973   5.664   4.489  0.7595 -0.2093  0.0740
 4379TIP3    H213144   2.932   5.524   4.447 -0.0220  0.2842 -0.8609
 4380TIP3   OH213145   3.515   3.520   3.915  0.0104 -0.6307  0.1106
 4380TIP3    H113146   3.573   3.589   3.948 -1.1895 -0.5476  2.2137
 4380TIP3    H213147   3.521   3.528   3.820  2.1205  0.4583  0.2583
 4381TIP3   OH213148   0.578   1.637   0.129 -0.7705 -0.2926  0.2400
 4381TIP3    H113149   0.560   1.717   0.177 -0.9723 -1.2248  1.7809
 4381TIP3    H213150   0.647   1.593   0.180 -0.1081 -0.7545 -0.9900
 4382TIP3   OH213151   3.963   0.682   4.817 -0.6424  0.1608 -0.9890
 4382TIP3    H113152   3.949   0.773   4.842 -0.0997 -0.2467  0.9877
 4382TIP3    H213153   3.876   0.646   4.804 -0.9314  0.5093 -0.0283
 4383TIP3   OH213154   2.768   3.586   3.233  0.5378 -0.4538  0.0197
 4383TIP3    H113155   2.735   3.497   3.225  0.3947 -0.3354 -0.8641
 4383TIP3    H213156   2.779   3.615   3.142 -1.9239  1.3385  0.2064
 4384TIP3   OH213157   4.793   1.508   1.246  0.2959 -0.5103 -0.3390
 4384TIP3    H113158   4.874   1.495   1.296  0.6005 -0.1594 -0.7336
 4384TIP3    H213159   4.817   1.569   1.177 -0.9329  1.7512  1.1071
 4385TIP3   OH213160   3.196   3.340   0.819 -0.3282  0.4109 -0.6071
 4385TIP3    H113161   3.150   3.261   0.850  0.9316 -0.9683 -2.0860
 4385TIP3    H213162   3.289   3.315   0.818  0.7717  3.3671  3.1275
 4386TIP3   OH213163   2.909   2.697   4.798 -0.1701 -0.0114 -0.4573
 4386TIP3    H113164   3.000   2.725   4.807 -0.7102  1.3458  1.4026
 4386TIP3    H213165   2.868   2.768   4.748 -0.6940  0.5956  0.7992
 4387TIP3   OH213166   1.970   2.451   2.173  0.0272  0.4100  0.0202
 4387TIP3    H113167   2.062   2.445   2.150 -0.0525  0.3249 -0.2768
 4387TIP3    H213168   1.935   2.364   2.155 -0.9772  1.4155 -3.6418
 4388TIP3   OH213169   1.862   4.003   1.075 -0.2379  0.3609 -0.4551
 4388TIP3    H113170   1.818   4.020   0.992  2.3346  0.4554 -1.9045
 4388TIP3    H213171   1.935   3.946   1.053 -0.9759 -1.8759  2.2344
 4389TIP3   OH213172   5.640   1.056   0.732  0.5349 -0.1228  0.2182
 4389TIP3    H113173   5.575   1.012   0.677  0.8030  2.1611 -2.1162
 4389TIP3    H213174   5.720   1.003   0.722  0.3871 -0.1270 -1.0630
 4390TIP3   OH213175   0.116   4.881   3.585 -0.3811  0.0451  0.5452
 4390TIP3    H113176   0.186   4.946   3.590 -0.0107 -0.2591 -0.3378
 4390TIP3    H213177   0.053   4.919   3.524 -0.9267  0.2609  1.2387
 4391TIP3   OH213178   4.219   4.131   2.756 -0.2077 -0.0733  0.1137
 4391TIP3    H113179   4.259   4.068   2.696  0.4566 -0.0184  0.4827
 4391TIP3    H213180   4.125   4.115   2.749 -0.0265 -1.6290  0.7584
 4392TIP3   OH213181   5.765   0.763   3.489  0.5994  0.0986 -0.3200
 4392TIP3    H113182   5.788   0.684   3.539  0.0395 -0.0791 -0.3348
 4392TIP3    H213183   5.733   0.824   3.555  2.6440  0.9684 -0.0660
 4393TIP3   OH213184   4.376   5.888   2.119 -0.1324 -0.2346 -0.1815
 4393TIP3    H113185   4.362   5.893   2.025 -0.4258  0.4345 -0.1035
 4393TIP3    H213186   4.325   5.812   2.147  0.2429 -0.6505 -0.6086
 4394TIP3   OH213187   2.021   4.390   1.240 -0.0291 -0.0788 -0.5788
 4394TIP3    H113188   2.094   4.425   1.290 -0.2413 -1.7009  0.9751
 4394TIP3    H213189   2.056   4.313   1.196 -1.0959 -1.8867  1.5331
 4395TIP3   OH213190   2.051   5.338   4.984  0.2820  0.0512 -0.1872
 4395TIP3    H113191   1.963   5.301   4.992  1.0382 -1.9990 -0.5029
 4395TIP3    H213192   2.107   5.261   4.969  2.2043  1.2260  0.5962
 4396TIP3   OH213193   5.280   2.931   3.711  0.5648  0.5238  0.4902
 4396TIP3    H113194   5.308   2.918   3.620 -0.6056  0.2372  0.1599
 4396TIP3    H213195   5.194   2.971   3.705 -0.0773 -0.6353  1.4433
 4397TIP3   OH213196   0.515   1.243   4.536 -0.4303 -0.1167 -0.5207
 4397TIP3    H113197   0.566   1.320   4.560  0.4220 -0.1508 -2.0844
 4397TIP3    H213198   0.580   1.172   4.533 -0.1573  0.1153 -3.9859
 4398TIP3   OH213199   5.745   1.706   3.175 -0.4061  0.2060  0.1987
 4398TIP3    H113200   5.667   1.760   3.158 -0.9536 -0.6141  0.0812
 4398TIP3    H213201   5.736   1.680   3.266  0.4060  1.1633  0.5787
 4399TIP3   OH213202   1.729   0.319   2.906 -0.0105 -0.0534 -0.3198
 4399TIP3    H113203   1.674   0.302   2.982  2.1858 -2.5015  0.8649
 4399TIP3    H213204   1.793   0.384   2.937  0.9815 -1.1667  0.0650
 4400TIP3   OH213205   2.307   0.943   4.467 -0.4528 -0.0898  0.5066
 4400TIP3    H113206   2.359   1.006   4.418  1.6952 -2.1213  0.0421
 4400TIP3    H213207   2.242   0.997   4.513 -0.3909  2.1896 -1.8320
 4401TIP3   OH213208   3.293   4.328   0.186  0.3874 -0.0856 -0.0988
 4401TIP3    H113209   3.360   4.349   0.122 -0.5710  0.6938 -0.8878
 4401TIP3    H213210   3.254   4.246   0.156  1.0455 -0.6016  0.4256
 4402TIP3   OH213211   0.421   0.650   3.331 -0.0712 -0.4327 -0.2422
 4402TIP3    H113212   0.456   0.615   3.412  0.9107 -2.2732 -1.4011
 4402TIP3    H213213   0.491   0.640   3.267 -0.0918  2.7581 -0.9602
 4403TIP3   OH213214   4.241   3.346   4.973 -0.5034  0.2310 -0.3847
 4403TIP3    H113215   4.227   3.434   5.008  1.5922  0.2370  0.5921
 4403TIP3    H213216   4.213   3.287   5.043  0.3348  0.1735 -0.0940
 4404TIP3   OH213217   4.688   0.803   1.759  0.2282 -0.5354 -0.0912
 4404TIP3    H113218   4.645   0.866   1.817 -0.2895 -0.8656 -0.1046
 4404TIP3    H213219   4.681   0.842   1.672  0.7875 -0.1542  0.0276
 4405TIP3   OH213220   1.112   0.527   4.423  0.1007  0.2816 -0.2848
 4405TIP3    H113221   1.078   0.440   4.405 -0.6323  0.4875  0.0360
 4405TIP3    H213222   1.158   0.519   4.507 -0.8636  0.4153  0.2738
 4406TIP3   OH213223   2.853   1.837   2.197 -0.1693 -0.2903  0.1680
 4406TIP3    H113224   2.843   1.782   2.275  0.8649  0.8956  1.1904
 4406TIP3    H213225   2.904   1.783   2.136 -0.1008 -0.8570  0.7153
 4407TIP3   OH213226   0.610   0.854   2.567 -0.1775  0.0675 -0.3057
 4407TIP3    H113227   0.652   0.903   2.638 -0.7160 -0.6275  0.5171
 4407TIP3    H213228   0.521   0.887   2.565 -0.5411 -0.8437  0.2441
 4408TIP3   OH213229   0.480   0.255   1.714  0.3640 -0.1855  0.5555
 4408TIP3    H113230   0.528   0.194   1.658 -0.1959 -0.6692  0.5860
 4408TIP3    H213231   0.391   0.219   1.717  0.3389 -0.0599  1.5944
 4409TIP3   OH213232   0.284   1.964   1.564 -0.5555  0.3017 -0.5035
 4409TIP3    H113233   0.378   1.947   1.557 -0.5579 -0.0465  0.2049
 4409TIP3    H213234   0.279   2.051   1.604 -0.5477  0.8518 -1.6422
 4410TIP3   OH213235   2.148   2.202   1.476 -0.2755  0.1207 -0.0655
 4410TIP3    H113236   2.166   2.265   1.547 -4.3159 -0.9927  2.2693
 4410TIP3    H213237   2.107   2.255   1.407 -0.4228  0.5928  0.3725
 4411TIP3   OH213238   0.833   0.591   5.086 -0.5419  0.0240 -0.2521
 4411TIP3    H113239   0.749   0.607   5.129 -0.9972 -1.5530 -0.4912
 4411TIP3    H213240   0.821   0.624   4.996 -1.3329 -1.2564 -0.6382
 4412TIP3   OH213241   2.205   3.804   1.781 -0.2835  0.1311  0.4092
 4412TIP3    H113242   2.145   3.754   1.726  0.3502 -0.9753  0.7062
 4412TIP3    H213243   2.201   3.760   1.866  0.3837  0.5051  0.6359
 4413TIP3   OH213244   4.008   1.341   4.996 -0.5018 -0.0158 -0.0625
 4413TIP3    H113245   4.070   1.367   4.928  0.9213  0.3088  1.3078
 4413TIP3    H213246   3.985   1.423   5.041 -3.3683  0.1750 -1.6243
 4414TIP3   OH213247   0.105   0.383   2.002 -0.1386  0.1449  0.4800
 4414TIP3    H113248   0.021   0.349   2.032 -0.6227  1.0229  0.1767
 4414TIP3    H213249   0.151   0.410   2.082 -1.2379  2.0724  0.5409
 4415TIP3   OH213250   0.715   5.062   5.133  0.3049 -0.1127 -0.5359
 4415TIP3    H113251   0.789   5.082   5.191  0.9493 -2.3641 -0.4843
 4415TIP3    H213252   0.727   4.970   5.109 -1.7304 -0.1540 -1.6624
 4416TIP3   OH213253   2.894   2.083   1.141  0.1824 -0.2860  0.2042
 4416TIP3    H113254   2.969   2.137   1.167 -1.6237  2.2623  0.4901
 4416TIP3    H213255   2.865   2.042   1.222 -1.3686  2.3411  1.1235
 4417TIP3   OH213256   5.544   2.497   5.034  0.4356  0.2021  0.0233
 4417TIP3    H113257   5.450   2.496   5.015  0.2801  0.0802  0.7659
 4417TIP3    H213258   5.559   2.579   5.080  0.6294  0.0628  0.2112
 4418TIP3   OH213259   5.871   0.468   0.997  0.0996 -0.4998  0.8385
 4418TIP3    H113260   5.897   0.489   1.086  1.5414  0.8523  0.1547
 4418TIP3    H213261   5.844   0.552   0.959 -0.6515 -1.0764  0.0386
 4419TIP3   OH213262   5.485   0.595   1.443  0.0801  0.1327 -0.0680
 4419TIP3    H113263   5.400   0.557   1.463  0.4935 -0.2378  1.0713
 4419TIP3    H213264   5.548   0.525   1.462  0.5976  0.0789 -1.7960
 4420TIP3   OH213265   2.603   3.054   1.097 -0.0214  0.7567  0.2475
 4420TIP3    H113266   2.536   2.995   1.133 -1.9766  1.6485 -1.6932
 4420TIP3    H213267   2.622   3.019   1.010  0.4778  1.7018 -0.0400
 4421TIP3   OH213268   4.998   1.692   3.433  0.0687  0.1980  0.2812
 4421TIP3    H113269   4.971   1.781   3.456  1.5580  1.5058 -2.5604
 4421TIP3    H213270   5.087   1.685   3.467 -0.0292 -0.2004  0.4553
 4422TIP3   OH213271   1.228   0.321   0.542 -0.0614  0.1253 -0.0786
 4422TIP3    H113272   1.253   0.275   0.463  5.2250  2.1041  0.0554
 4422TIP3    H213273   1.175   0.395   0.511 -0.5450 -0.7036 -1.3200
 4423TIP3   OH213274   0.801   0.622   2.754  0.4077  0.6194 -0.3027
 4423TIP3    H113275   0.828   0.676   2.679 -0.5234 -1.0596 -1.9437
 4423TIP3    H213276   0.858   0.546   2.751 -0.8548 -0.3676 -0.5208
 4424TIP3   OH213277   1.994   5.416   4.305  0.0554  0.2270 -0.0794
 4424TIP3    H113278   1.914   5.456   4.340  1.1447  0.0047  2.9431
 4424TIP3    H213279   1.973   5.322   4.299 -0.6105  0.4373 -1.5967
 4425TIP3   OH213280   2.129   5.533   0.310  0.0100  0.6682  0.0698
 4425TIP3    H113281   2.066   5.484   0.363 -0.0183 -0.8379 -1.3028
 4425TIP3    H213282   2.157   5.604   0.368  0.5860 -1.3246  2.4370
 4426TIP3   OH213283   2.951   5.903   2.072  0.2723  0.0222 -0.0419
 4426TIP3    H113284   3.014   5.833   2.087  0.3820  0.5703  2.6376
 4426TIP3    H213285   2.865   5.861   2.084  0.3368  0.6562  4.5574
 4427TIP3   OH213286   6.218   2.004   1.577 -0.3093  0.1478  0.1632
 4427TIP3    H113287   6.210   2.097   1.598  0.6835  0.3540 -0.3263
 4427TIP3    H213288   6.191   1.959   1.657 -1.6361  0.8319  0.1271
 4428TIP3   OH213289   4.786   3.630   4.333  0.5852  0.3356  0.2258
 4428TIP3    H113290   4.846   3.633   4.407  1.2103  0.4968 -0.2822
 4428TIP3    H213291   4.766   3.537   4.323  2.1754  0.0637 -0.7236
 4429TIP3   OH213292   6.187   5.647   4.384 -0.2141 -0.1526 -0.3996
 4429TIP3    H113293   6.264   5.690   4.347  1.0486 -1.6142  0.3901
 4429TIP3    H213294   6.194   5.662   4.479 -0.2403 -1.2912 -0.2034
 4430TIP3   OH213295   0.504   3.064   1.741  0.0309 -0.2503 -0.1557
 4430TIP3    H113296   0.571   3.100   1.683  0.7177  2.3645  2.0387
 4430TIP3    H213297   0.544   3.066   1.828 -3.3130  3.3617  1.6450
 4431TIP3   OH213298   1.298   1.977   2.486  0.2960 -0.2892  0.0251
 4431TIP3    H113299   1.272   1.924   2.410  0.3988 -0.4480  0.1000
 4431TIP3    H213300   1.237   1.951   2.555  1.6174 -1.8341  0.6775
 4432TIP3   OH213301   2.724   1.537   0.074 -0.2499  0.1082 -0.3060
 4432TIP3    H113302   2.787   1.609   0.082  0.6075 -0.7152  0.6279
 4432TIP3    H213303   2.763   1.465   0.125 -1.7242 -0.5832 -0.1069
 4433TIP3   OH213304   3.143   0.324   4.762  0.3254  0.7580 -0.0930
 4433TIP3    H113305   3.125   0.334   4.856 -0.1593  2.6728 -0.3477
 4433TIP3    H213306   3.085   0.387   4.720  0.0856 -0.5039 -1.7566
 4434TIP3   OH213307   5.947   3.714   4.225  0.3433  0.4098  0.2226
 4434TIP3    H113308   5.855   3.688   4.224  0.5257 -0.2835 -1.2480
 4434TIP3    H213309   5.994   3.638   4.192  1.4895  0.6546  1.2327
 4435TIP3   OH213310   4.218   2.414   5.181  0.3915 -0.4022 -0.4154
 4435TIP3    H113311   4.157   2.453   5.245  1.9036  0.8184  0.3447
 4435TIP3    H213312   4.214   2.473   5.106 -0.5667 -1.2376 -1.0439
 4436TIP3   OH213313   5.900   2.066   4.834  0.0820  0.5774  0.5013
 4436TIP3    H113314   5.987   2.072   4.875  0.7862  1.8324 -1.0673
 4436TIP3    H213315   5.909   2.114   4.752 -0.7054 -3.4054 -2.1997
 4437TIP3   OH213316   4.515   5.867   1.412  0.3699 -0.1721  0.2059
 4437TIP3    H113317   4.460   5.790   1.396  1.0596 -1.1977  2.4241
 4437TIP3    H213318   4.462   5.924   1.467  0.8154 -0.2702  0.7383
 4438TIP3   OH213319   3.396   2.791   1.316 -0.2497  0.1362  0.0788
 4438TIP3    H113320   3.401   2.886   1.312  0.3194  0.0723 -1.5397
 4438TIP3    H213321   3.324   2.769   1.257  1.6549 -0.5507 -2.1243
 4439TIP3   OH213322   4.076   3.308   1.332  0.6148  0.5744 -0.7501
 4439TIP3    H113323   3.984   3.296   1.307 -0.1745 -0.0723  2.1069
 4439TIP3    H213324   4.117   3.343   1.253 -2.1091  1.0904 -2.0869
 4440TIP3   OH213325   0.085   1.552   0.921  0.9294  0.6013  0.3149
 4440TIP3    H113326   0.043   1.486   0.976  1.2222  1.2591  1.3727
 4440TIP3    H213327   0.013   1.605   0.888  0.4870 -1.3720 -2.1842
 4441TIP3   OH213328   5.784   0.981   4.850 -0.5352 -0.2812 -0.0859
 4441TIP3    H113329   5.847   0.997   4.780  1.2407  0.8998  1.6656
 4441TIP3    H213330   5.718   1.050   4.840 -1.4413 -1.3047 -1.7040
 4442TIP3   OH213331   0.253   1.002   4.012 -0.0571  0.0552 -0.6106
 4442TIP3    H113332   0.323   1.066   3.997 -0.4480 -0.0760 -3.3756
 4442TIP3    H213333   0.291   0.938   4.072  1.3321  1.2829 -0.1299
 4443TIP3   OH213334   3.177   2.775   1.171  0.2369  0.3678 -0.7429
 4443TIP3    H113335   3.139   2.852   1.213  1.0582 -0.8824  2.5843
 4443TIP3    H213336   3.102   2.718   1.153 -0.0410  0.3978  0.2624
 4444TIP3   OH213337   4.760   0.246   1.002  0.3921 -0.4056 -0.1051
 4444TIP3    H113338   4.830   0.193   1.042  2.3809  2.1502  0.0637
 4444TIP3    H213339   4.739   0.311   1.069  0.4035  1.0284 -1.4555
 4445TIP3   OH213340   6.322   3.081   1.322 -0.4665 -0.3277  0.1347
 4445TIP3    H113341   6.321   3.005   1.380  0.1444 -0.6529 -0.2722
 4445TIP3    H213342   6.389   3.138   1.358 -2.1528  0.8955  1.5103
 4446TIP3   OH213343   2.345   3.696   4.353  0.4369  0.2586 -0.0751
 4446TIP3    H113344   2.406   3.723   4.285  0.5779  0.9921  0.3245
 4446TIP3    H213345   2.291   3.774   4.368 -0.8550 -0.4761 -0.6840
 4447TIP3   OH213346   1.437   4.726   3.404 -0.3168 -0.0966  0.4579
 4447TIP3    H113347   1.446   4.760   3.494  0.4497 -0.1905  0.4282
 4447TIP3    H213348   1.357   4.675   3.406 -1.0039  0.9465  0.7517
 4448TIP3   OH213349   3.434   0.792   4.101  0.6911  0.1193  0.6427
 4448TIP3    H113350   3.349   0.758   4.127  0.7237 -0.3580  0.1546
 4448TIP3    H213351   3.451   0.866   4.160 -0.6894  1.1075 -0.1460
 4449TIP3   OH213352   0.462   3.896   4.696 -0.2436  0.6884 -0.1268
 4449TIP3    H113353   0.416   3.928   4.773  0.0829 -0.7580  0.7030
 4449TIP3    H213354   0.552   3.926   4.707  0.0716 -0.4904  0.6702
 4450TIP3   OH213355   4.982   5.456   4.991  0.2976  0.4492 -0.1006
 4450TIP3    H113356   4.907   5.399   5.006  1.7127 -1.6839 -0.7118
 4450TIP3    H213357   4.945   5.534   4.950 -1.3603 -1.3899 -2.3350
 4451TIP3   OH213358   1.424   4.028   4.928 -0.8789 -0.2195  0.2222
 4451TIP3    H113359   1.337   4.062   4.947 -1.3830 -1.0114 -0.5686
 4451TIP3    H213360   1.433   3.952   4.985 -0.4776  0.1776  0.6963
 4452TIP3   OH213361   2.330   5.570   3.548  0.1808  0.6936  0.0339
 4452TIP3    H113362   2.322   5.631   3.475 -0.8097  0.3020 -0.1965
 4452TIP3    H213363   2.279   5.611   3.618  0.6989  0.8166  0.3406
 4453TIP3   OH213364   5.382   1.768   2.624 -0.3151  0.4131 -0.4498
 4453TIP3    H113365   5.442   1.829   2.666  0.9859 -0.8797 -0.3324
 4453TIP3    H213366   5.346   1.716   2.696 -0.4906  0.2578 -0.6476
 4454TIP3   OH213367   2.498   3.810   3.247  0.0646  0.2294  0.4131
 4454TIP3    H113368   2.556   3.833   3.318  0.4057  1.1133 -0.1411
 4454TIP3    H213369   2.555   3.805   3.170 -0.5514  0.9354 -0.1010
 4455TIP3   OH213370   5.108   5.808   0.811 -0.4514 -0.2287 -0.0617
 4455TIP3    H113371   5.182   5.790   0.870 -1.2994  2.3051  1.9381
 4455TIP3    H213372   5.031   5.776   0.858 -0.8760 -0.6863 -1.0537
 4456TIP3   OH213373   2.602   5.521   4.911  0.4427  0.6313  0.1691
 4456TIP3    H113374   2.661   5.576   4.962  0.5591  0.7997 -0.1458
 4456TIP3    H213375   2.524   5.575   4.898  1.2936  1.4883 -1.7943
 4457TIP3   OH213376   1.321   1.217   1.538 -0.2217 -0.2779 -0.4354
 4457TIP3    H113377   1.324   1.300   1.490 -1.4420 -0.1018 -0.2480
 4457TIP3    H213378   1.412   1.192   1.548  0.3997  2.3426  1.7128
 4458TIP3   OH213379   5.077   0.046   5.026  0.0614  0.7717 -0.3795
 4458TIP3    H113380   5.037   0.086   5.102  1.1748 -0.9326  1.1890
 4458TIP3    H213381   5.023  -0.031   5.007  1.3605 -0.4310  0.5409
 4459TIP3   OH213382   4.543   4.243   0.269  0.3265  0.2651  0.0831
 4459TIP3    H113383   4.466   4.203   0.229 -0.5757  0.4471  1.5532
 4459TIP3    H213384   4.600   4.169   0.290 -0.3332 -0.0758  0.7447
 4460TIP3   OH213385   0.104   0.046   1.230  0.3055 -0.0350  0.0429
 4460TIP3    H113386   0.061   0.042   1.315 -0.4432  3.3249 -0.0318
 4460TIP3    H213387   0.190   0.006   1.244 -0.8154 -2.0369  1.5941
 4461TIP3   OH213388   1.803   1.301   0.574 -0.2477 -0.0510  0.1610
 4461TIP3    H113389   1.812   1.339   0.662 -1.7717 -1.9572  1.2229
 4461TIP3    H213390   1.881   1.247   0.564 -0.1366  0.0599  0.3982
 4462TIP3   OH213391   6.212   2.315   4.943  0.4395 -0.6440  0.0922
 4462TIP3    H113392   6.174   2.280   5.024  0.2633 -1.4273 -0.3115
 4462TIP3    H213393   6.236   2.237   4.893 -0.0190 -0.1801 -0.8769
 4463TIP3   OH213394   2.051   1.806   1.350 -0.3259 -0.5620  0.3846
 4463TIP3    H113395   2.126   1.851   1.388  0.1887 -1.9832  1.0881
 4463TIP3    H213396   1.975   1.853   1.385  0.1773 -0.7767  1.8000
 4464TIP3   OH213397   4.683   2.123   1.386 -0.0964 -0.5933 -0.3828
 4464TIP3    H113398   4.709   2.104   1.296  1.9901 -0.6163  0.1685
 4464TIP3    H213399   4.690   2.218   1.394 -1.3480 -0.4795 -0.5319
 4465TIP3   OH213400   0.874   3.409   2.870 -0.2333 -0.1313 -0.2286
 4465TIP3    H113401   0.869   3.502   2.890  1.1832 -0.4554  2.0006
 4465TIP3    H213402   0.942   3.403   2.802 -1.9687  0.6107 -2.1062
 4466TIP3   OH213403   0.375   3.499   4.039 -0.0597 -0.3923 -0.1253
 4466TIP3    H113404   0.344   3.502   3.949 -0.1150 -1.4253 -0.1549
 4466TIP3    H213405   0.299   3.472   4.090  0.5146 -2.0382 -0.0778
 4467TIP3   OH213406   0.525   2.173   3.539  0.0256 -0.1709 -0.1724
 4467TIP3    H113407   0.447   2.159   3.593 -1.5949  2.2163 -1.6180
 4467TIP3    H213408   0.583   2.225   3.594 -0.8239  0.7120 -0.0635
 4468TIP3   OH213409   3.910   1.469   2.308  0.0554 -0.0901 -0.1742
 4468TIP3    H113410   3.967   1.435   2.239  0.0643 -1.9535  0.6964
 4468TIP3    H213411   3.821   1.454   2.276  0.0494 -1.7608  0.5420
 4469TIP3   OH213412   3.976   4.671   4.482 -0.2728 -0.2513  0.1158
 4469TIP3    H113413   4.003   4.680   4.574 -0.8328 -1.4003  0.4118
 4469TIP3    H213414   3.886   4.703   4.481 -0.0508  0.3588 -0.1628
 4470TIP3   OH213415   0.059   1.139   2.593 -0.1424  0.0113 -0.2109
 4470TIP3    H113416   0.050   1.075   2.664  0.4821 -0.0370 -0.1667
 4470TIP3    H213417   0.135   1.191   2.618  1.4441 -1.3464 -1.8550
 4471TIP3   OH213418   3.279   1.574   1.222 -0.2419 -0.3914  0.0793
 4471TIP3    H113419   3.225   1.514   1.170  1.2250 -1.2223 -0.5394
 4471TIP3    H213420   3.269   1.659   1.178  4.0291 -1.7286 -4.3080
 4472TIP3   OH213421   3.593   3.067   4.057 -0.2340 -0.0876  0.9134
 4472TIP3    H113422   3.555   3.155   4.053 -0.9552 -0.4357 -0.4952
 4472TIP3    H213423   3.627   3.051   3.969 -0.2995 -1.3059  1.0910
 4473TIP3   OH213424   0.499   1.512   2.591 -0.4457  0.4949 -0.0925
 4473TIP3    H113425   0.501   1.498   2.497  0.7918  1.3335 -0.2097
 4473TIP3    H213426   0.418   1.561   2.606 -0.5229  0.5802 -0.7626
 4474TIP3   OH213427   2.811   3.218   0.834  0.1271 -0.2221  0.2064
 4474TIP3    H113428   2.793   3.239   0.742  1.3765  1.1098  0.2268
 4474TIP3    H213429   2.757   3.279   0.884  1.5594  1.0603  0.2883
 4475TIP3   OH213430   5.905   2.299   1.660 -0.2884  0.0012 -0.9066
 4475TIP3    H113431   5.973   2.237   1.632 -1.5643 -0.8890 -2.2196
 4475TIP3    H213432   5.928   2.381   1.616  0.4106 -0.0475 -0.6411
 4476TIP3   OH213433   3.487   0.472   0.369 -0.2785 -0.4132 -0.3857
 4476TIP3    H113434   3.466   0.464   0.276  0.0944  0.9991 -0.5966
 4476TIP3    H213435   3.436   0.547   0.399 -1.0377 -1.3324  0.7687
 4477TIP3   OH213436   1.533   0.873   4.216  0.3436 -0.7909 -0.3460
 4477TIP3    H113437   1.508   0.897   4.305  0.0283  0.0966 -0.6564
 4477TIP3    H213438   1.462   0.818   4.184  0.5981 -1.3491  0.0481
 4478TIP3   OH213439   5.439   3.631   4.145  0.3986  0.0480 -0.2772
 4478TIP3    H113440   5.365   3.670   4.192  0.4832 -0.3083  0.1575
 4478TIP3    H213441   5.505   3.700   4.143 -0.5802  1.0155 -2.2436
 4479TIP3   OH213442   2.652   0.744   1.786  0.2031 -0.1353 -0.3162
 4479TIP3    H113443   2.672   0.767   1.695 -0.3427 -0.2197 -0.4572
 4479TIP3    H213444   2.728   0.692   1.814  0.1136 -0.5971 -0.9066
 4480TIP3   OH213445   2.066   5.738   2.870  0.2701  0.1214 -0.4250
 4480TIP3    H113446   2.036   5.820   2.830  1.2973  0.6940 -0.0605
 4480TIP3    H213447   2.141   5.763   2.923 -1.1229 -0.5827  2.0243
 4481TIP3   OH213448   5.401   3.930   0.264 -0.3020  0.2014  0.4045
 4481TIP3    H113449   5.350   3.982   0.201 -1.1726 -0.9834  0.0939
 4481TIP3    H213450   5.492   3.954   0.246 -0.7043  2.4213  1.0175
 4482TIP3   OH213451   3.099   1.808   3.409  0.1928  0.5393  0.0233
 4482TIP3    H113452   3.099   1.718   3.377  1.1756  1.4568 -2.8853
 4482TIP3    H213453   3.012   1.842   3.387  0.2862  0.6799 -0.1342
 4483TIP3   OH213454   2.646   5.354   4.686  0.9371  0.1018 -0.0671
 4483TIP3    H113455   2.557   5.320   4.686  0.1208  1.8344 -3.1972
 4483TIP3    H213456   2.645   5.426   4.748 -0.0790  0.5937 -0.6476
 4484TIP3   OH213457   0.062   5.890   1.606  0.2131  0.6967  0.4833
 4484TIP3    H113458   0.019   5.916   1.687  0.0501  1.3400  0.1991
 4484TIP3    H213459   0.153   5.874   1.631 -0.3650 -1.7496  1.3092
 4485TIP3   OH213460   0.989   4.666   3.949 -0.4733 -0.2129  0.2235
 4485TIP3    H113461   1.055   4.709   4.004 -0.7757 -0.4206  0.7448
 4485TIP3    H213462   1.011   4.695   3.860 -0.1751  0.3719  0.4816
 4486TIP3   OH213463   0.387   0.568   4.907  0.0085  0.1907 -0.2484
 4486TIP3    H113464   0.305   0.618   4.915  0.8300  1.4478  0.6672
 4486TIP3    H213465   0.448   0.629   4.864  1.3393  0.4219  1.8246
 4487TIP3   OH213466   3.706   5.227   4.176  0.3989  0.0711  0.0682
 4487TIP3    H113467   3.772   5.166   4.146  1.2768  1.0576 -0.0762
 4487TIP3    H213468   3.753   5.309   4.190 -0.9819  1.1553 -1.2066
 4488TIP3   OH213469   5.530   2.692   3.762  0.2907 -0.1821  0.3050
 4488TIP3    H113470   5.437   2.699   3.783  0.2668  1.4249 -0.2511
 4488TIP3    H213471   5.561   2.621   3.818 -1.0934 -0.2316  1.0643
 4489TIP3   OH213472   4.104   5.651   0.862 -0.5893  0.0170  0.5861
 4489TIP3    H113473   4.011   5.629   0.872 -1.0294  1.8139  0.7181
 4489TIP3    H213474   4.108   5.703   0.782 -0.3348  3.0188  2.4011
 4490TIP3   OH213475   5.381   5.091   0.406 -0.1178  0.6441  0.2807
 4490TIP3    H113476   5.372   5.131   0.492  0.7994  1.7701 -0.1300
 4490TIP3    H213477   5.462   5.127   0.371  0.6866 -1.4607 -0.1730
 4491TIP3   OH213478   4.612   0.953   4.804 -0.6419  0.2223  0.1454
 4491TIP3    H113479   4.616   0.908   4.888 -0.9503  0.0857  0.0883
 4491TIP3    H213480   4.631   0.885   4.739 -2.2724 -0.0975 -0.0246
 4492TIP3   OH213481   0.213   0.648   1.202 -0.0007  0.1215 -0.1455
 4492TIP3    H113482   0.147   0.621   1.267  0.4849  1.2565  0.8552
 4492TIP3    H213483   0.248   0.730   1.236  1.5377 -0.1611 -0.9479
 4493TIP3   OH213484   1.592   4.535   0.345 -0.5241 -0.4913 -0.6190
 4493TIP3    H113485   1.527   4.538   0.415 -0.6286  0.2931 -0.7360
 4493TIP3    H213486   1.574   4.613   0.292  0.0303 -0.6704 -1.0854
 4494TIP3   OH213487   1.797   4.797   0.379  0.3559  0.0910  0.2494
 4494TIP3    H113488   1.796   4.838   0.292  1.3277 -0.6813 -0.1506
 4494TIP3    H213489   1.830   4.709   0.363 -0.0898 -0.2775  1.3248
 4495TIP3   OH213490   2.514   2.634   1.635 -0.4710  0.7908 -0.3150
 4495TIP3    H113491   2.504   2.539   1.647 -2.0884  0.8566 -0.8465
 4495TIP3    H213492   2.440   2.672   1.683  0.4073  1.8291  0.2684
 4496TIP3   OH213493   5.994   0.034   1.805 -0.0228  0.1897  0.1698
 4496TIP3    H113494   6.062   0.096   1.831  0.1388 -0.2386  0.7866
 4496TIP3    H213495   5.923   0.048   1.869  0.4771 -1.0427  1.0380
 4497TIP3   OH213496   2.768   5.224   3.095  0.0749  0.1908 -0.3620
 4497TIP3    H113497   2.676   5.251   3.099 -0.3816 -1.3788  2.8739
 4497TIP3    H213498   2.768   5.152   3.032 -0.9830  0.0547 -0.2278
 4498TIP3   OH213499   4.333   0.257   2.216 -0.3480  0.4476  0.1819
 4498TIP3    H113500   4.277   0.189   2.254  1.1270 -1.9414 -1.6119
 4498TIP3    H213501   4.293   0.277   2.131  0.3324  0.2453 -0.2023
 4499TIP3   OH213502   6.191   0.762   4.709 -0.3542 -0.2779 -0.1131
 4499TIP3    H113503   6.270   0.711   4.692  0.8435  1.0638  1.1140
 4499TIP3    H213504   6.123   0.697   4.724  1.1530 -1.5489  1.5901
 4500TIP3   OH213505   3.039   1.212   1.347  0.0386  0.1280  0.1861
 4500TIP3    H113506   2.971   1.190   1.410  0.9505 -0.5350  0.9711
 4500TIP3    H213507   3.104   1.260   1.398  0.4420  0.2311 -0.4132
 4501TIP3   OH213508   1.757   4.947   1.409 -0.0209 -0.2953  0.3554
 4501TIP3    H113509   1.685   4.943   1.471 -1.2235  2.7142 -0.6966
 4501TIP3    H213510   1.717   4.927   1.324  0.9168 -1.0265  0.0659
 4502TIP3   OH213511   6.050   2.133   1.315 -0.1392  0.2889 -0.1470
 4502TIP3    H113512   6.028   2.224   1.294 -0.5347  0.2751  0.2006
 4502TIP3    H213513   5.968   2.095   1.347  0.2928  0.1281  0.8030
 4503TIP3   OH213514   3.125   2.921   1.857  0.7149 -0.0060  0.3099
 4503TIP3    H113515   3.156   2.983   1.790  0.0432 -0.7392 -0.7209
 4503TIP3    H213516   3.090   2.976   1.927 -0.3542  0.8126 -0.8193
 4504TIP3   OH213517   0.542   2.953   3.231 -0.0546 -0.4804 -0.5396
 4504TIP3    H113518   0.539   2.918   3.320 -0.6353  1.7650  0.3907
 4504TIP3    H213519   0.518   2.879   3.175 -1.8220 -1.4127  1.3255
 4505TIP3   OH213520   3.502   1.598   4.495  0.0108 -0.2959  0.1364
 4505TIP3    H113521   3.529   1.671   4.440  0.1066 -0.5720 -0.1803
 4505TIP3    H213522   3.408   1.612   4.508  0.1564  0.2637  0.6493
 4506TIP3   OH213523   2.277   2.732   2.289 -0.2482 -0.2492  0.1924
 4506TIP3    H113524   2.202   2.693   2.335 -1.1939  2.0116  0.7657
 4506TIP3    H213525   2.268   2.702   2.199  1.0093 -3.9023  1.1448
 4507TIP3   OH213526   3.386   0.609   1.366  0.2456  0.5494 -0.0839
 4507TIP3    H113527   3.392   0.533   1.308  1.3573  1.1166 -0.7551
 4507TIP3    H213528   3.459   0.599   1.427 -0.0556  0.7012  0.3125
 4508TIP3   OH213529   4.998   2.029   3.870 -0.3876 -0.3149 -0.2861
 4508TIP3    H113530   5.015   2.114   3.831 -0.0339 -0.3665 -0.2457
 4508TIP3    H213531   4.951   2.048   3.951 -0.6505 -0.1805 -0.4677
 4509TIP3   OH213532   4.488   5.298   5.200  0.3662  0.3959  0.3579
 4509TIP3    H113533   4.487   5.240   5.123 -0.0237  0.1001  0.5788
 4509TIP3    H213534   4.580   5.317   5.214  0.4569  0.2979 -0.0715
 4510TIP3   OH213535   3.426   3.826   5.107  0.0781  0.1988 -0.7612
 4510TIP3    H113536   3.468   3.741   5.093 -0.8131 -0.3022 -0.4438
 4510TIP3    H213537   3.340   3.805   5.142 -0.0082  1.2519 -0.3057
 4511TIP3   OH213538   3.318   2.315   3.838  0.4797 -0.2245 -0.3824
 4511TIP3    H113539   3.279   2.239   3.796  2.8565 -2.8267  1.7673
 4511TIP3    H213540   3.410   2.313   3.812  0.6681  1.7987 -0.0476
 4512TIP3   OH213541   0.594   4.485   2.982  0.3315  0.1471  0.3813
 4512TIP3    H113542   0.567   4.574   2.958 -1.5447 -0.5212 -0.1102
 4512TIP3    H213543   0.684   4.478   2.948 -0.0623  1.3067 -1.0149
 4513TIP3   OH213544   2.896   0.330   1.090 -0.4323  0.2467  0.1146
 4513TIP3    H113545   2.863   0.338   1.180  0.1505 -1.1308  0.4716
 4513TIP3    H213546   2.875   0.241   1.064 -1.3384  0.8752 -1.4551
 4514TIP3   OH213547   6.207   2.089   2.289  0.3702 -0.5253  0.0955
 4514TIP3    H113548   6.228   2.029   2.361  3.1226  1.0732  0.7709
 4514TIP3    H213549   6.253   2.053   2.213 -0.2170 -0.7016 -0.1823
 4515TIP3   OH213550   1.925   5.432   2.369  0.6933  0.2801  0.4331
 4515TIP3    H113551   1.883   5.423   2.283 -1.4306  2.5133  1.1136
 4515TIP3    H213552   1.887   5.361   2.421  0.5908  0.0344  0.0327
 4516TIP3   OH213553   5.474   2.568   2.549  0.9011  0.1777  0.2111
 4516TIP3    H113554   5.470   2.472   2.540  0.1282  0.3104 -1.0165
 4516TIP3    H213555   5.567   2.585   2.566  0.8541 -0.8728  1.7566
 4517TIP3   OH213556   3.935   3.885   3.236 -0.2129  0.3094  0.6579
 4517TIP3    H113557   4.027   3.910   3.248  0.6369 -1.6360 -1.2369
 4517TIP3    H213558   3.911   3.919   3.150 -0.8989 -0.1744  0.6468
 4518TIP3   OH213559   1.429   0.806   3.896 -0.4378  0.3708  0.2462
 4518TIP3    H113560   1.345   0.828   3.937  0.0019  2.2633  0.2361
 4518TIP3    H213561   1.479   0.887   3.899  1.0788 -0.4868 -0.5445
 4519TIP3   OH213562   1.594   1.202   5.153  0.5752 -0.3343  0.0881
 4519TIP3    H113563   1.623   1.176   5.240  0.1927  1.9319  0.9635
 4519TIP3    H213564   1.668   1.250   5.116  0.5077 -0.7417 -0.6037
 4520TIP3   OH213565   1.737   3.937   4.703  0.2945  0.0129 -0.1276
 4520TIP3    H113566   1.685   3.898   4.633  1.6480  0.7720 -1.6134
 4520TIP3    H213567   1.795   3.867   4.731 -0.1443 -0.2455  0.1600
 4521TIP3   OH213568   0.029   5.875   1.320  0.6344  0.3426  0.2442
 4521TIP3    H113569   0.055   5.899   1.408 -1.2608  2.1765  0.3860
 4521TIP3    H213570  -0.052   5.825   1.331 -1.3271  3.1486 -0.4722
 4522TIP3   OH213571   4.841   2.801   3.390 -0.5952 -0.4377 -0.6795
 4522TIP3    H113572   4.903   2.819   3.319  0.9925  0.3086  0.8373
 4522TIP3    H213573   4.780   2.875   3.387 -0.7723 -0.6037 -1.4850
 4523TIP3   OH213574   1.646   0.757   3.055 -0.7888  0.0157 -0.2669
 4523TIP3    H113575   1.704   0.685   3.030 -2.5987 -1.6513  0.1311
 4523TIP3    H213576   1.561   0.733   3.018 -1.5113  1.8263  0.1196
 4524TIP3   OH213577   2.354   0.573   5.025  0.2358 -0.1308 -0.1027
 4524TIP3    H113578   2.303   0.493   5.039 -0.5891  0.5175  0.7284
 4524TIP3    H213579   2.419   0.549   4.958 -1.7371 -0.7287 -1.9034
 4525TIP3   OH213580   1.299   5.441   4.323  0.2356  0.2757 -0.0328
 4525TIP3    H113581   1.343   5.515   4.365 -0.9778  1.0853 -0.1215
 4525TIP3    H213582   1.267   5.475   4.240 -1.2905  0.0124  0.3995
 4526TIP3   OH213583   5.188   3.609   2.657  0.3738  0.4911  0.4651
 4526TIP3    H113584   5.102   3.579   2.626  0.8642 -1.8699  1.1933
 4526TIP3    H213585   5.173   3.639   2.746 -0.0138  1.9343 -0.0640
 4527TIP3   OH213586   5.606   1.397   4.693  0.6172  0.3571  0.1474
 4527TIP3    H113587   5.511   1.397   4.681  0.6455 -1.0526 -0.2666
 4527TIP3    H213588   5.628   1.489   4.705 -1.0238  0.5861  2.0768
 4528TIP3   OH213589   3.477   1.868   2.502 -0.6103  0.0645  0.4148
 4528TIP3    H113590   3.530   1.801   2.546 -1.5821 -1.1160 -0.1470
 4528TIP3    H213591   3.488   1.946   2.556 -0.2272 -0.8131  1.6558
 4529TIP3   OH213592   6.336   2.503   0.408 -0.0408 -0.2482 -0.6211
 4529TIP3    H113593   6.259   2.508   0.464 -1.2800 -2.8930 -1.8889
 4529TIP3    H213594   6.301   2.503   0.319  1.2659 -2.5128 -1.2147
 4530TIP3   OH213595   1.979   0.983   1.163  0.5587  0.2019 -0.0683
 4530TIP3    H113596   1.905   0.981   1.224 -1.7795  2.0725 -2.5643
 4530TIP3    H213597   1.978   0.897   1.121  0.4796 -0.1554  0.6484
 4531TIP3   OH213598   2.672   1.189   0.665  0.1769  0.3436 -0.2466
 4531TIP3    H113599   2.610   1.191   0.738  0.1237  0.7133 -0.2996
 4531TIP3    H213600   2.618   1.208   0.588  0.1847 -0.3172 -0.4171
 4532TIP3   OH213601   2.953   5.371   3.515 -0.1790 -0.1461  0.2237
 4532TIP3    H113602   2.966   5.312   3.441  0.0866 -0.4147  0.4818
 4532TIP3    H213603   2.905   5.445   3.478 -0.9239 -0.7245 -0.0123
 4533TIP3   OH213604   3.664   5.279   1.409 -0.1793 -0.1007  0.1850
 4533TIP3    H113605   3.740   5.338   1.410 -0.7791  0.8559 -2.6520
 4533TIP3    H213606   3.606   5.314   1.477  1.5484 -0.4387  1.9234
 4534TIP3   OH213607   5.686   1.918   3.949 -0.2842  0.0073  0.6005
 4534TIP3    H113608   5.709   2.011   3.941  0.8311 -0.3714 -1.0617
 4534TIP3    H213609   5.704   1.881   3.863  1.0475 -2.1306  1.7214
 4535TIP3   OH213610   5.846   4.760   4.784 -0.2330  0.5512  0.4630
 4535TIP3    H113611   5.769   4.806   4.749  0.2402  1.7312  0.9027
 4535TIP3    H213612   5.910   4.830   4.800  0.7695 -0.3512  0.5430
 4536TIP3   OH213613   1.579   5.669   3.114  0.4696  0.1512 -0.6477
 4536TIP3    H113614   1.611   5.736   3.053 -0.9850  0.9128 -0.6092
 4536TIP3    H213615   1.647   5.666   3.182 -0.7993  3.9969  1.1186
 4537TIP3   OH213616   2.035   1.247   0.252  0.2001  0.0493  0.2481
 4537TIP3    H113617   2.081   1.273   0.332 -0.1554 -0.0568  0.4868
 4537TIP3    H213618   2.099   1.193   0.205 -0.0554 -1.0647  1.1197
 4538TIP3   OH213619   5.892   3.329   3.749 -0.7871  0.2532  0.2591
 4538TIP3    H113620   5.873   3.417   3.716 -1.8972 -0.3254 -0.7510
 4538TIP3    H213621   5.983   3.312   3.725 -0.3847  1.3195  0.9660
 4539TIP3   OH213622   2.995   4.176   0.976 -0.0462  0.1937  0.1532
 4539TIP3    H113623   3.005   4.170   0.881 -0.4359  1.8710 -0.0274
 4539TIP3    H213624   3.003   4.086   1.006 -0.7303 -0.4900 -1.5469
 4540TIP3   OH213625   5.092   2.073   0.398  0.2791 -0.2356  0.0570
 4540TIP3    H113626   5.146   2.053   0.322 -2.8330 -0.1357 -2.3570
 4540TIP3    H213627   5.037   2.145   0.371 -2.0688 -1.2184  1.8127
 4541TIP3   OH213628   4.531   3.516   0.974  0.5823 -0.5023 -0.4426
 4541TIP3    H113629   4.456   3.468   0.937  1.0090 -1.3743 -0.2094
 4541TIP3    H213630   4.527   3.497   1.068  0.0141  0.9857 -0.1459
 4542TIP3   OH213631   4.609   0.134   3.328  0.1272 -0.7786 -0.2883
 4542TIP3    H113632   4.593   0.183   3.247  1.0789 -1.0351 -0.6445
 4542TIP3    H213633   4.704   0.128   3.334  0.2330  1.2480  2.0522
 4543TIP3   OH213634   4.876   4.681   1.242  0.2923  0.0304 -0.6469
 4543TIP3    H113635   4.788   4.720   1.240  0.2719  0.0450  0.1838
 4543TIP3    H213636   4.912   4.707   1.327  0.1927 -1.8997  0.0395
 4544TIP3   OH213637   4.563   1.624   0.894 -0.0719 -0.2206 -0.4209
 4544TIP3    H113638   4.468   1.639   0.892  0.1405  1.3417  0.0945
 4544TIP3    H213639   4.590   1.649   0.983  0.4128 -3.6437  0.5390
 4545TIP3   OH213640   4.046   0.954   0.450  0.4232 -0.5416  0.0380
 4545TIP3    H113641   3.971   1.013   0.454  0.9075  0.0867  0.0585
 4545TIP3    H213642   4.115   0.999   0.498  0.6643 -1.3507  0.4707
 4546TIP3   OH213643   0.195   0.108   3.827 -0.4917  0.2281 -0.2063
 4546TIP3    H113644   0.131   0.173   3.859 -0.3896  0.5669 -0.6708
 4546TIP3    H213645   0.257   0.098   3.899 -0.7368  0.3394  0.0246
 4547TIP3   OH213646   1.775   3.495   3.896 -0.0347  0.6057 -0.5989
 4547TIP3    H113647   1.860   3.469   3.861  0.8209  0.8700  1.1785
 4547TIP3    H213648   1.792   3.514   3.988 -1.8674  1.4507 -0.3960
 4548TIP3   OH213649   5.438   3.872   1.369 -0.1614  0.5913  1.2646
 4548TIP3    H113650   5.519   3.826   1.345  0.3479  1.4547  1.2962
 4548TIP3    H213651   5.388   3.807   1.418 -0.2027 -0.4692 -0.1168
 4549TIP3   OH213652   4.721   2.702   1.391 -0.3997 -0.0768 -0.3304
 4549TIP3    H113653   4.746   2.778   1.339 -0.7608 -1.4191 -2.6230
 4549TIP3    H213654   4.803   2.658   1.410 -0.3869 -0.6182 -1.5371
 4550TIP3   OH213655   2.221   0.340   5.098  0.1166 -0.4063 -0.4947
 4550TIP3    H113656   2.240   0.246   5.109  1.3699 -0.0861  0.2973
 4550TIP3    H213657   2.137   0.353   5.141  0.9340 -0.7931  1.2960
 4551TIP3   OH213658   6.063   1.523   4.747  0.2986 -0.8358 -0.0665
 4551TIP3    H113659   6.068   1.619   4.748  0.0158 -0.8224  0.5465
 4551TIP3    H213660   6.113   1.497   4.669  0.8124 -0.2176  0.0505
 4552TIP3   OH213661   3.189   1.326   0.945 -0.3107  0.1108 -0.1465
 4552TIP3    H113662   3.133   1.388   0.991 -0.5024  0.9792 -1.4750
 4552TIP3    H213663   3.255   1.300   1.009  0.2389  2.2909  0.2333
 4553TIP3   OH213664   2.193   2.647   1.028 -0.0263  0.1532 -0.4291
 4553TIP3    H113665   2.166   2.556   1.016  1.2037 -0.1293 -1.2208
 4553TIP3    H213666   2.274   2.642   1.078  0.2654  0.7765 -0.8194
 4554TIP3   OH213667   1.487   4.742   1.313 -0.5683 -0.0607  0.2427
 4554TIP3    H113668   1.503   4.651   1.339 -1.1502  0.0377  0.9531
 4554TIP3    H213669   1.547   4.756   1.239  0.1850 -0.7364  0.7060
 4555TIP3   OH213670   6.099   4.666   1.346 -0.0695  0.1119 -0.4919
 4555TIP3    H113671   6.175   4.709   1.307 -1.0079  2.4211  0.0761
 4555TIP3    H213672   6.134   4.584   1.381  2.3690  1.4870  0.5523
 4556TIP3   OH213673   1.516   4.818   3.162 -0.3888 -0.7816 -0.2874
 4556TIP3    H113674   1.604   4.780   3.156  1.0953  2.2600  0.1527
 4556TIP3    H213675   1.486   4.794   3.250  2.5439  2.6828  1.9500
 4557TIP3   OH213676   0.267   2.561   4.595  0.2541  0.2064 -0.2969
 4557TIP3    H113677   0.279   2.526   4.683  0.4010  0.1348 -0.3459
 4557TIP3    H213678   0.186   2.611   4.601  2.0041  3.2135  0.8596
 4558TIP3   OH213679   2.197   0.139   0.264 -0.2499  0.2168  0.0199
 4558TIP3    H113680   2.169   0.175   0.348 -0.0614  0.2502  0.0690
 4558TIP3    H213681   2.218   0.216   0.210  1.0400  0.1792  0.4262
 4559TIP3   OH213682   4.369   0.587   1.146 -0.0411  1.3296 -0.4064
 4559TIP3    H113683   4.280   0.616   1.166 -0.5071 -0.1710 -0.1666
 4559TIP3    H213684   4.408   0.571   1.232 -0.3072 -0.1469 -0.5383
 4560TIP3   OH213685   2.556   3.349   4.978  0.3169 -0.1685 -0.2230
 4560TIP3    H113686   2.520   3.328   5.064 -2.4999  0.3062 -1.1811
 4560TIP3    H213687   2.604   3.431   4.991 -0.8401  0.3832  0.7365
 4561TIP3   OH213688   5.951   1.434   2.716 -0.1560 -0.2848  0.6793
 4561TIP3    H113689   5.937   1.453   2.809 -0.4401 -2.4986  1.1280
 4561TIP3    H213690   5.866   1.446   2.676  0.3396  2.5742  0.2705
 4562TIP3   OH213691   0.384   1.865   0.830 -0.3334  0.2308  1.3922
 4562TIP3    H113692   0.327   1.941   0.814  1.8429  2.1168  2.0208
 4562TIP3    H213693   0.391   1.822   0.745 -3.2369 -0.5410  1.4578
 4563TIP3   OH213694   2.062   3.245   0.802 -0.1014 -0.4787 -0.2727
 4563TIP3    H113695   2.145   3.201   0.817  0.2939  0.2161 -0.3990
 4563TIP3    H213696   2.051   3.302   0.877 -0.6804 -0.8839 -0.0409
 4564TIP3   OH213697   5.178   5.478   3.267 -0.1296  0.1085 -0.2013
 4564TIP3    H113698   5.152   5.410   3.329 -1.4253  0.8420  0.1032
 4564TIP3    H213699   5.124   5.554   3.291 -0.5767  0.4592 -2.1450
 4565TIP3   OH213700   2.376   0.295   3.948 -0.1135 -0.0734 -0.1855
 4565TIP3    H113701   2.293   0.343   3.943 -1.4293 -2.3423 -1.8773
 4565TIP3    H213702   2.429   0.332   3.878 -0.4251  0.1082 -0.3292
 4566TIP3   OH213703   2.068   2.109   4.110  0.6379  0.1661 -0.0125
 4566TIP3    H113704   2.071   2.014   4.095  0.5460  0.3454 -1.2096
 4566TIP3    H213705   1.974   2.130   4.109  0.6299  0.2084  0.7407
 4567TIP3   OH213706   0.635   5.865   3.332 -0.4391 -0.4001  0.3020
 4567TIP3    H113707   0.672   5.782   3.363 -1.2946 -0.2154  1.9097
 4567TIP3    H213708   0.671   5.875   3.244 -0.4338 -2.5500  0.0055
 4568TIP3   OH213709   4.847   4.002   4.482  0.3851 -0.3480 -0.1704
 4568TIP3    H113710   4.902   3.925   4.498  0.9334  0.1396  0.3397
 4568TIP3    H213711   4.845   4.009   4.386  2.0461  0.1821 -0.2046
 4569TIP3   OH213712   2.580   0.151   1.154  0.4338 -0.0045  0.1985
 4569TIP3    H113713   2.651   0.124   1.096 -0.8166  1.6505 -2.2821
 4569TIP3    H213714   2.500   0.130   1.106 -0.8146 -1.0645  2.5455
 4570TIP3   OH213715   5.014   2.261   2.898 -0.1590 -0.5655 -0.2091
 4570TIP3    H113716   5.084   2.324   2.882 -0.7254  0.1961  0.2542
 4570TIP3    H213717   4.976   2.244   2.812 -1.2674  1.2392 -0.1276
 4571TIP3   OH213718   4.256   0.757   3.906  0.7203 -0.1077  0.1639
 4571TIP3    H113719   4.306   0.774   3.826 -1.2234 -0.0414 -1.0954
 4571TIP3    H213720   4.247   0.843   3.947  3.0295 -0.3566  1.3211
 4572TIP3   OH213721   3.469   4.488   1.407  0.1692 -0.3816  0.1700
 4572TIP3    H113722   3.383   4.466   1.372  0.2476 -0.4278  0.0095
 4572TIP3    H213723   3.500   4.559   1.351  0.1814 -0.2777  0.3070
 4573TIP3   OH213724   3.770   3.824   0.595 -0.1187  0.2964 -0.4323
 4573TIP3    H113725   3.730   3.903   0.559 -1.3297 -0.2496 -0.3301
 4573TIP3    H213726   3.697   3.776   0.633  0.9435  0.3504  1.8250
 4574TIP3   OH213727   3.605   0.283   3.196 -0.0862 -0.0790 -0.2121
 4574TIP3    H113728   3.685   0.327   3.167 -0.8285  0.1060 -2.1820
 4574TIP3    H213729   3.612   0.195   3.159 -1.5352  0.4805 -1.9858
 4575TIP3   OH213730   0.761   2.204   3.025 -0.0526 -0.2540 -0.1193
 4575TIP3    H113731   0.850   2.226   2.996  0.5065 -2.1423  0.0538
 4575TIP3    H213732   0.773   2.153   3.104 -1.2215 -1.5255 -0.7166
 4576TIP3   OH213733   0.546   3.002   2.689 -0.1151  0.1970  0.1332
 4576TIP3    H113734   0.566   2.976   2.779  1.2826  0.4997 -0.0740
 4576TIP3    H213735   0.577   3.092   2.683 -0.8812  0.4298 -0.4493
 4577TIP3   OH213736   6.128   2.828   3.092  0.1795  0.3774  0.6301
 4577TIP3    H113737   6.141   2.899   3.029 -0.7659  0.1434  0.1522
 4577TIP3    H213738   6.048   2.785   3.063  0.5976 -0.7335  1.0659
 4578TIP3   OH213739   3.031   1.524   0.229 -0.1419 -0.1916  0.0722
 4578TIP3    H113740   3.062   1.438   0.202  1.7975  0.6616 -0.6451
 4578TIP3    H213741   2.952   1.507   0.280  2.4576 -2.7965  3.7814
 4579TIP3   OH213742   3.156   4.505   2.020  0.2631  0.1665 -0.0023
 4579TIP3    H113743   3.109   4.492   1.937  0.4515  0.6317 -0.1874
 4579TIP3    H213744   3.093   4.480   2.087 -1.0460  2.8098 -0.1345
 4580TIP3   OH213745   3.288   2.290   0.255  0.3260 -0.0189 -0.4468
 4580TIP3    H113746   3.297   2.224   0.323 -1.8723 -0.2439 -0.3001
 4580TIP3    H213747   3.274   2.372   0.303 -0.7925 -0.1075 -0.6013
 4581TIP3   OH213748   4.736   5.599   3.636 -0.0261  0.2960  0.4420
 4581TIP3    H113749   4.781   5.669   3.588 -1.1358  1.1293  0.5606
 4581TIP3    H213750   4.645   5.604   3.604 -1.0259  1.4533  3.1731
 4582TIP3   OH213751   4.344   4.070   4.652 -0.0676  1.0279 -0.4023
 4582TIP3    H113752   4.433   4.085   4.621  1.7657 -3.3058  1.8008
 4582TIP3    H213753   4.303   4.017   4.583  0.8893 -1.0184  0.4980
 4583TIP3   OH213754   0.069   3.255   2.352  0.6111  0.2614  0.2700
 4583TIP3    H113755   0.044   3.327   2.294 -1.6540 -0.5159  0.1908
 4583TIP3    H213756   0.101   3.187   2.293 -1.3819 -0.4061 -0.0910
 4584TIP3   OH213757   0.103   5.613   3.239 -0.3563  0.6054 -0.6583
 4584TIP3    H113758   0.017   5.590   3.203 -1.3704  1.5196  1.0604
 4584TIP3    H213759   0.084   5.652   3.324  1.7834  0.8165 -0.2183
 4585TIP3   OH213760   2.006   0.296   1.561  0.0414  0.3064 -0.1361
 4585TIP3    H113761   2.086   0.260   1.521  1.1658  1.2739  1.1380
 4585TIP3    H213762   1.942   0.225   1.555  1.8794 -1.6139  1.4413
 4586TIP3   OH213763   3.281   1.929   1.477 -0.0495 -0.1411 -0.1156
 4586TIP3    H113764   3.233   1.929   1.395  0.3580 -0.5373 -0.3613
 4586TIP3    H213765   3.215   1.945   1.544 -0.2897  0.8101 -0.5711
 4587TIP3   OH213766   2.765   4.727   0.482  0.1272 -0.0900  0.3447
 4587TIP3    H113767   2.805   4.725   0.569  0.7762  1.5456  0.1325
 4587TIP3    H213768   2.678   4.766   0.497  0.3653  0.4930  0.2285
 4588TIP3   OH213769   4.126   1.672   4.343 -0.3329  0.2088 -0.1783
 4588TIP3    H113770   4.041   1.627   4.339 -1.5860  2.4294  0.0757
 4588TIP3    H213771   4.145   1.680   4.436 -0.2028  0.3696 -0.2184
 4589TIP3   OH213772   1.424   5.097   3.990 -0.1458  0.0358 -0.7301
 4589TIP3    H113773   1.479   5.059   3.922  0.2323 -0.6819 -0.0468
 4589TIP3    H213774   1.351   5.136   3.943  0.9575  1.0486 -1.6669
 4590TIP3   OH213775   4.652   3.532   3.343 -0.0930 -0.0895 -0.0249
 4590TIP3    H113776   4.667   3.618   3.302 -0.5494 -0.4003 -0.8777
 4590TIP3    H213777   4.565   3.538   3.380  0.7418  0.5683  1.9346
 4591TIP3   OH213778   5.993   1.934   1.067  0.2035 -0.3188  0.2355
 4591TIP3    H113779   6.073   1.901   1.025 -1.0164 -2.1415 -0.8481
 4591TIP3    H213780   6.017   1.947   1.158  2.5800  2.3842 -0.6217
 4592TIP3   OH213781   6.315   3.743   3.810 -0.1376  0.0070 -0.3864
 4592TIP3    H113782   6.402   3.782   3.799 -1.2312  2.3955 -1.3947
 4592TIP3    H213783   6.269   3.805   3.866 -1.2031 -1.2383  0.1513
 4593TIP3   OH213784   4.897   4.587   4.443 -0.0552 -0.0708 -0.3786
 4593TIP3    H113785   4.884   4.554   4.532 -0.5257  2.3428  0.5222
 4593TIP3    H213786   4.833   4.658   4.434  0.5109  0.2474 -2.3722
 4594TIP3   OH213787   1.465   4.555   4.796  0.5305  0.0113  0.8825
 4594TIP3    H113788   1.507   4.469   4.787  0.0926 -0.1151 -0.0976
 4594TIP3    H213789   1.423   4.570   4.711 -0.6314  0.5396  1.5218
 4595TIP3   OH213790   1.108   1.767   2.479  0.9251 -0.4296  0.2153
 4595TIP3    H113791   1.071   1.820   2.408  0.7956  0.7886  1.1666
 4595TIP3    H213792   1.034   1.745   2.534  1.3425  0.6094  1.2220
 4596TIP3   OH213793   0.503   3.597   2.101  0.3805 -0.0992  0.2049
 4596TIP3    H113794   0.447   3.624   2.028  1.3799 -3.4282 -2.0122
 4596TIP3    H213795   0.447   3.542   2.155 -0.0128  1.3862  1.3959
 4597TIP3   OH213796   5.564   5.103   2.644 -0.2284 -0.2439 -0.3238
 4597TIP3    H113797   5.554   5.147   2.560 -0.6475 -1.5823 -0.9981
 4597TIP3    H213798   5.658   5.089   2.653 -0.2993 -1.5442 -1.3650
 4598TIP3   OH213799   4.183   0.044   1.311  0.6508 -0.3641  0.2157
 4598TIP3    H113800   4.141   0.111   1.256  1.6178 -1.1425 -1.5734
 4598TIP3    H213801   4.253   0.091   1.356  0.9363 -0.0315 -0.5554
 4599TIP3   OH213802   3.254   0.054   0.686 -0.6858  0.1782 -0.4911
 4599TIP3    H113803   3.237   0.147   0.673  0.7972  0.9056  2.0264
 4599TIP3    H213804   3.347   0.049   0.706 -1.3374 -1.3053  2.8797
 4600TIP3   OH213805   5.467   0.713   0.370  0.6720  0.1104 -0.4157
 4600TIP3    H113806   5.486   0.632   0.417 -0.6144 -0.5860 -1.0520
 4600TIP3    H213807   5.522   0.710   0.292 -1.3291 -1.5324 -1.8657
 4601TIP3   OH213808   0.250   4.242   1.692  0.5714 -0.1416 -0.2730
 4601TIP3    H113809   0.283   4.304   1.627  1.4377 -2.3270 -2.0500
 4601TIP3    H213810   0.238   4.160   1.643  0.9704 -1.8136  2.2536
 4602TIP3   OH213811   6.048   2.511   1.576  0.2813 -0.0551 -0.4790
 4602TIP3    H113812   6.117   2.563   1.618 -0.1251  0.2966 -0.2476
 4602TIP3    H213813   6.005   2.573   1.517 -0.3546 -0.0725 -0.0322
 4603TIP3   OH213814   4.107   4.992   0.137  0.1379 -0.6941 -0.1739
 4603TIP3    H113815   4.144   4.996   0.049  1.3912 -0.8674  0.3330
 4603TIP3    H213816   4.181   5.007   0.195 -0.6185 -0.9062  0.8673
 4604TIP3   OH213817   5.456   2.095   1.195  0.5622  0.1065 -0.9516
 4604TIP3    H113818   5.493   2.015   1.159 -1.7545 -1.0327 -0.9877
 4604TIP3    H213819   5.476   2.091   1.288  1.3447  0.0253 -1.1142
 4605TIP3   OH213820   1.091   0.830   0.107 -0.0584  0.1578 -0.3046
 4605TIP3    H113821   1.095   0.823   0.202  3.3546  0.2465 -0.3211
 4605TIP3    H213822   1.035   0.906   0.091 -0.0327  0.6466  1.6729
 4606TIP3   OH213823   0.740   1.660   3.918  0.1007 -0.4892  0.3719
 4606TIP3    H113824   0.780   1.721   3.980 -1.3404  1.4282 -0.4377
 4606TIP3    H213825   0.721   1.715   3.841 -1.4255 -1.9219 -0.3374
 4607TIP3   OH213826   2.366   5.226   2.152 -0.3340  0.1432 -0.0908
 4607TIP3    H113827   2.440   5.196   2.100 -0.9020  0.1608 -0.9276
 4607TIP3    H213828   2.316   5.147   2.172 -0.3155  0.1815  0.1065
 4608TIP3   OH213829   1.476   4.023   0.364 -0.0457 -0.1011  0.6602
 4608TIP3    H113830   1.487   4.105   0.317 -1.3171 -0.0250  0.4793
 4608TIP3    H213831   1.399   4.036   0.419  0.1151 -0.9535  1.1164
 4609TIP3   OH213832   2.392   4.835   4.334 -0.1299 -0.4984 -0.2827
 4609TIP3    H113833   2.464   4.873   4.386 -0.7895  0.1125  0.2007
 4609TIP3    H213834   2.404   4.872   4.247 -0.8416  0.9605  0.2149
 4610TIP3   OH213835   5.739   5.861   1.341 -0.3643 -0.3046 -0.1033
 4610TIP3    H113836   5.734   5.936   1.400 -2.0210 -0.4433  0.0022
 4610TIP3    H213837   5.765   5.788   1.397 -1.0185 -0.2469  0.2973
 4611TIP3   OH213838   4.621   0.452   3.236  0.0580 -0.2156  0.2885
 4611TIP3    H113839   4.550   0.504   3.199  0.5068 -0.4673 -0.9535
 4611TIP3    H213840   4.684   0.442   3.165 -0.7870 -3.9834 -0.1493
 4612TIP3   OH213841   2.743   1.668   3.245  0.4964 -0.0837 -0.6630
 4612TIP3    H113842   2.770   1.620   3.167 -0.2478  1.1278 -1.7005
 4612TIP3    H213843   2.706   1.750   3.212 -0.0112  0.3854  0.9536
 4613TIP3   OH213844   5.596   4.178   4.973 -0.4005  0.1332  0.0171
 4613TIP3    H113845   5.592   4.271   4.948 -0.6404  0.0031 -0.4415
 4613TIP3    H213846   5.689   4.160   4.985 -0.3566  0.4526  0.1925
 4614TIP3   OH213847   4.670   3.077   2.397 -0.0190  0.3844 -0.1783
 4614TIP3    H113848   4.680   2.992   2.354  1.9902  1.1512 -1.3912
 4614TIP3    H213849   4.578   3.080   2.422 -0.6100 -1.3497 -1.8410
 4615TIP3   OH213850   0.169   0.670   3.236  0.1900  0.1667  0.1573
 4615TIP3    H113851   0.134   0.759   3.248 -0.1833  0.1104 -0.4497
 4615TIP3    H213852   0.262   0.678   3.258  0.0765  0.6176  0.4998
 4616TIP3   OH213853   5.775   5.045   1.488  0.0867 -0.6791  0.3140
 4616TIP3    H113854   5.826   4.965   1.495  2.0632  0.2900 -1.7896
 4616TIP3    H213855   5.818   5.096   1.420 -0.9961  2.2700  1.6428
 4617TIP3   OH213856   4.719   3.655   0.102 -0.1622 -0.3572  0.4955
 4617TIP3    H113857   4.684   3.583   0.051 -0.3500 -1.3318  1.9365
 4617TIP3    H213858   4.740   3.616   0.187  3.4564  0.3687  0.1043
 4618TIP3   OH213859   3.804   1.149   4.082 -0.0583 -0.1871 -0.4465
 4618TIP3    H113860   3.856   1.082   4.037 -0.1825  0.6401 -1.9011
 4618TIP3    H213861   3.718   1.110   4.094  0.2367 -0.7428 -0.0984
 4619TIP3   OH213862   0.341   1.276   3.746  0.3927 -0.6577  0.6096
 4619TIP3    H113863   0.252   1.262   3.713  0.1460  1.0641  0.4540
 4619TIP3    H213864   0.354   1.207   3.811 -1.1189 -0.8410  0.7467
 4620TIP3   OH213865   3.666   5.502   0.694  0.4068  0.0529  0.5615
 4620TIP3    H113866   3.721   5.497   0.773  0.6508  1.0211  0.4762
 4620TIP3    H213867   3.659   5.596   0.677 -2.1752  0.0298  1.1806
 4621TIP3   OH213868   1.675   4.131   1.280 -0.1151  0.1665  0.1965
 4621TIP3    H113869   1.590   4.162   1.250 -0.2672  0.3593  0.8094
 4621TIP3    H213870   1.698   4.062   1.218 -1.6969 -1.3703  1.1897
 4622TIP3   OH213871   0.195   4.081   2.622  0.0251  0.1006  0.5135
 4622TIP3    H113872   0.232   4.169   2.616 -1.4467  0.6879 -0.5649
 4622TIP3    H213873   0.243   4.040   2.694  0.8310  1.7297  0.9592
 4623TIP3   OH213874   0.606   4.548   3.614 -0.3139  0.0955  0.1423
 4623TIP3    H113875   0.532   4.600   3.645  0.1433 -0.3188  2.0715
 4623TIP3    H213876   0.567   4.463   3.593 -0.9111  0.8855 -2.1578
 4624TIP3   OH213877   3.032   5.171   1.969 -0.5694 -0.4847 -0.5272
 4624TIP3    H113878   3.066   5.206   1.887 -0.6079  0.6677 -0.0725
 4624TIP3    H213879   2.944   5.207   1.976 -0.6598 -0.7744 -0.1039
 4625TIP3   OH213880   2.822   1.972   0.732 -0.4334 -0.6958  0.3463
 4625TIP3    H113881   2.761   2.033   0.773 -0.5366  0.0521 -0.8606
 4625TIP3    H213882   2.909   2.006   0.757 -0.3759  1.6808 -2.4720
 4626TIP3   OH213883   3.097   4.065   4.006  0.0303  0.1549 -0.5397
 4626TIP3    H113884   3.068   4.000   3.943  0.7083 -1.8941  1.1519
 4626TIP3    H213885   3.192   4.072   3.992  0.0586  0.3035 -0.2841
 4627TIP3   OH213886   3.499  -0.021   0.390  0.1583 -0.3170 -0.1816
 4627TIP3    H113887   3.441  -0.025   0.314  0.8335  0.3451 -0.7667
 4627TIP3    H213888   3.508   0.073   0.408  0.0311 -0.4668  0.7026
 4628TIP3   OH213889   0.583   5.078   2.373 -0.5011  0.1816  0.1662
 4628TIP3    H113890   0.530   5.037   2.304 -0.4266 -1.6796  1.1469
 4628TIP3    H213891   0.528   5.149   2.406 -0.9556  0.4445 -1.0986
 4629TIP3   OH213892   3.750   5.798   1.017 -0.3409 -0.7752  0.2149
 4629TIP3    H113893   3.743   5.761   0.929  1.7611 -0.0356 -0.3344
 4629TIP3    H213894   3.660   5.813   1.045 -1.0678  1.1936 -2.8013
 4630TIP3   OH213895   4.893   1.728   1.612 -0.7581 -0.0057  0.1172
 4630TIP3    H113896   4.798   1.738   1.620 -0.5731  0.8390  1.6854
 4630TIP3    H213897   4.907   1.633   1.611 -1.5843 -0.1335  0.3372
 4631TIP3   OH213898   0.132   3.941   2.355  0.2543  0.1416  0.1451
 4631TIP3    H113899   0.172   3.854   2.349  0.6908  0.3488 -0.0182
 4631TIP3    H213900   0.151   3.970   2.445 -0.9620 -0.4333  0.6073
 4632TIP3   OH213901   2.636   1.310   2.293  0.4604  0.7954  0.1040
 4632TIP3    H113902   2.701   1.262   2.241  1.5049  2.0592  0.2034
 4632TIP3    H213903   2.575   1.345   2.227 -0.7060 -1.1314  0.0675
 4633TIP3   OH213904   0.442   4.107   0.763 -0.4696  0.2973  0.1194
 4633TIP3    H113905   0.415   4.072   0.678  0.2737 -1.0106  0.3971
 4633TIP3    H213906   0.407   4.044   0.827  0.0826  0.5735  0.7040
 4634TIP3   OH213907   0.168   2.476   0.750 -0.1631 -0.8025 -0.2648
 4634TIP3    H113908   0.164   2.438   0.662  0.8968  0.2754 -0.8041
 4634TIP3    H213909   0.253   2.448   0.784 -0.9414 -1.9833  0.8198
 4635TIP3   OH213910   5.309   2.107   2.002 -0.1611 -0.7054  0.4941
 4635TIP3    H113911   5.299   2.022   1.958 -1.0283 -0.0232 -0.6698
 4635TIP3    H213912   5.228   2.120   2.049  0.1756 -0.7452  1.0932
 4636TIP3   OH213913   0.422   4.874   4.283  0.5165 -0.4405 -0.5345
 4636TIP3    H113914   0.501   4.819   4.294 -0.1705 -1.2947  0.3839
 4636TIP3    H213915   0.382   4.842   4.203  0.7632 -0.4529 -0.6543
 4637TIP3   OH213916   3.858   3.668   4.364 -0.4144  0.2904 -0.7595
 4637TIP3    H113917   3.904   3.702   4.441  1.1761 -1.2478 -0.9645
 4637TIP3    H213918   3.805   3.596   4.399 -0.0168 -0.1366 -1.0315
 4638TIP3   OH213919   6.108   4.032   0.921 -0.0231 -0.0104  0.2947
 4638TIP3    H113920   6.148   4.061   1.003  0.0145  0.2078  0.1983
 4638TIP3    H213921   6.093   3.938   0.934  0.7514 -0.1460  0.2318
 4639TIP3   OH213922   2.060   4.978   1.534 -0.3340 -0.1031 -0.6816
 4639TIP3    H113923   2.125   4.929   1.584 -0.8996 -2.3442 -2.0340
 4639TIP3    H213924   1.976   4.942   1.561 -0.9386  1.4847 -0.3310
 4640TIP3   OH213925   0.308   0.270   1.390 -0.0223 -0.0104 -0.3258
 4640TIP3    H113926   0.360   0.228   1.321  0.2646 -1.2734  0.6248
 4640TIP3    H213927   0.255   0.199   1.427  0.3906  0.4654  1.2582
 4641TIP3   OH213928   4.546   5.735   0.106  0.2227  0.3337  0.1356
 4641TIP3    H113929   4.599   5.657   0.090 -2.0650 -1.0021 -1.4151
 4641TIP3    H213930   4.459   5.702   0.127 -0.2654  2.4580  1.8981
 4642TIP3   OH213931   1.024   3.218   4.743 -0.2884  0.4002 -0.3320
 4642TIP3    H113932   1.108   3.228   4.788  0.2731  0.6704 -1.4158
 4642TIP3    H213933   1.046   3.218   4.650 -1.1952 -2.0911 -0.6335
 4643TIP3   OH213934   4.493   0.480   2.220 -0.6217 -0.0518  0.4053
 4643TIP3    H113935   4.445   0.557   2.190 -0.8928  0.1912  1.4250
 4643TIP3    H213936   4.426   0.414   2.238 -0.4226 -0.3831 -0.0487
 4644TIP3   OH213937   0.440   4.543   0.630 -0.0887 -0.7048 -0.0282
 4644TIP3    H113938   0.486   4.614   0.584 -0.7513 -0.7967 -0.8628
 4644TIP3    H213939   0.364   4.585   0.669 -1.1807 -1.1374 -1.5877
 4645TIP3   OH213940   2.330   1.264   2.725 -0.3309 -0.0001  0.0744
 4645TIP3    H113941   2.305   1.308   2.644 -2.1719  0.3883  0.7971
 4645TIP3    H213942   2.420   1.235   2.710 -0.1933  1.1563 -1.6277
 4646TIP3   OH213943   3.547   5.515   4.016 -0.2365  0.1651 -0.0299
 4646TIP3    H113944   3.602   5.534   4.093  0.5296  0.3326 -0.6016
 4646TIP3    H213945   3.502   5.597   3.998 -0.5035  0.0946  0.3001
 4647TIP3   OH213946   5.471   2.694   4.781 -0.1749 -0.1752 -0.2916
 4647TIP3    H113947   5.454   2.755   4.709 -0.8728 -0.9967 -0.8465
 4647TIP3    H213948   5.562   2.666   4.768  0.1135  0.6357 -0.0989
 4648TIP3   OH213949   5.206   1.114   3.753 -0.2120  0.4366 -0.0818
 4648TIP3    H113950   5.159   1.041   3.712  0.6397 -1.5861  2.3044
 4648TIP3    H213951   5.156   1.133   3.832  0.1709  1.7896 -0.1367
 4649TIP3   OH213952   2.826   1.466   3.068  0.2233 -0.5132  0.0071
 4649TIP3    H113953   2.772   1.431   3.139  2.4240  0.1604  2.1199
 4649TIP3    H213954   2.889   1.396   3.049  1.7767  0.5073  1.1448
 4650TIP3   OH213955   0.266   4.561   0.838  0.5577  0.0407  0.3306
 4650TIP3    H113956   0.204   4.488   0.829  0.9074 -0.4835  1.7480
 4650TIP3    H213957   0.336   4.525   0.893 -0.0393  1.8984  2.4424
 4651TIP3   OH213958   3.818   0.585   0.905 -0.2223 -0.2366  0.1148
 4651TIP3    H113959   3.807   0.573   0.999 -2.4113  0.7160  0.0210
 4651TIP3    H213960   3.731   0.574   0.868  0.6346 -0.9540 -1.8871
 4652TIP3   OH213961   4.758   3.736   3.527  0.0748  0.0298  0.5147
 4652TIP3    H113962   4.833   3.677   3.532 -0.2534 -0.3382  1.2514
 4652TIP3    H213963   4.684   3.680   3.504  0.0829  0.4506 -0.5988
 4653TIP3   OH213964   2.525   3.218   4.164  0.0177 -0.6491  0.2377
 4653TIP3    H113965   2.475   3.227   4.082  0.3378  1.3741  0.2290
 4653TIP3    H213966   2.616   3.230   4.137  0.0877  0.5013  0.9387
 4654TIP3   OH213967   4.089   3.814   4.472 -0.0659  0.1402  0.1258
 4654TIP3    H113968   4.083   3.718   4.474 -4.1365  0.1606 -1.5832
 4654TIP3    H213969   4.164   3.832   4.416  1.7950 -1.9434  1.7560
 4655TIP3   OH213970   2.734   5.555   2.909 -0.0099 -0.2431 -0.1436
 4655TIP3    H113971   2.784   5.489   2.958 -2.3839 -0.5935  2.0391
 4655TIP3    H213972   2.670   5.504   2.859 -0.6235  0.3134  0.0657
 4656TIP3   OH213973   5.715   3.125   0.259 -0.3549 -0.2232 -0.1253
 4656TIP3    H113974   5.715   3.163   0.347 -0.9853 -0.5209  0.0048
 4656TIP3    H213975   5.760   3.190   0.206 -0.5702  0.2744  0.2891
 4657TIP3   OH213976   1.109   2.655   3.256  0.3249  0.2415  0.7423
 4657TIP3    H113977   1.061   2.619   3.181  0.0639  0.9097  0.5802
 4657TIP3    H213978   1.150   2.579   3.297  2.1083  0.0580 -1.2227
 4658TIP3   OH213979   2.154   3.133   4.198 -0.2268  0.3709 -0.4265
 4658TIP3    H113980   2.104   3.052   4.209  1.3031 -0.7683 -1.3921
 4658TIP3    H213981   2.228   3.124   4.258  0.0251  0.9966 -0.6310
 4659TIP3   OH213982   4.608   0.185   4.643  0.3411 -0.0902 -0.2938
 4659TIP3    H113983   4.516   0.210   4.654 -0.0462 -0.6763 -1.7912
 4659TIP3    H213984   4.608   0.130   4.564  2.0460  0.2532 -0.5838
 4660TIP3   OH213985   3.833   0.763   2.653 -0.5124  0.0675  0.0624
 4660TIP3    H113986   3.922   0.730   2.644 -1.1155 -1.5001 -0.5830
 4660TIP3    H213987   3.834   0.849   2.611 -0.2210 -1.6582 -3.8202
 4661TIP3   OH213988   2.110   5.004   1.099 -0.0535 -0.7430 -0.0322
 4661TIP3    H113989   2.178   5.047   1.150 -0.9154 -0.6778  1.0886
 4661TIP3    H213990   2.033   5.060   1.109 -0.5817 -1.3926 -0.3851
 4662TIP3   OH213991   2.135   0.456   3.902 -0.3749 -0.1942 -0.1006
 4662TIP3    H113992   2.059   0.511   3.921  0.5509  1.1615 -0.1944
 4662TIP3    H213993   2.124   0.431   3.810 -1.0423 -0.5804  0.0774
 4663TIP3   OH213994   5.424   4.218   2.621  0.3370 -0.1430 -0.3313
 4663TIP3    H113995   5.501   4.220   2.564 -0.2029  0.8974 -1.0642
 4663TIP3    H213996   5.367   4.153   2.579  0.1898  0.1859 -0.6441
 4664TIP3   OH213997   0.814   2.083   2.401  0.1073 -0.2221  0.2862
 4664TIP3    H113998   0.868   2.113   2.328  0.1491 -2.2758 -0.6010
 4664TIP3    H213999   0.870   2.023   2.450 -0.9363 -1.3747  0.1094
 4665TIP3   OH214000   0.310   0.108   3.405  0.2980  0.8050  0.2183
 4665TIP3    H114001   0.376   0.108   3.334 -1.2340  1.2589 -1.2701
 4665TIP3    H214002   0.272   0.195   3.402  0.0895  0.7759  1.5411
 4666TIP3   OH214003   4.150   2.154   2.299 -0.4370  0.3111  0.0577
 4666TIP3    H114004   4.115   2.155   2.211  2.8633 -0.6809 -1.4462
 4666TIP3    H214005   4.224   2.215   2.297  0.2486 -0.3612  1.8478
 4667TIP3   OH214006   1.522   5.116   1.229  0.0975 -0.0318 -0.0991
 4667TIP3    H114007   1.496   5.180   1.163 -0.7221 -1.6798 -1.4515
 4667TIP3    H214008   1.569   5.048   1.180 -0.5377 -1.3061  0.9677
 4668TIP3   OH214009   4.302   1.410   4.042  0.1206  0.0504  0.0582
 4668TIP3    H114010   4.361   1.365   4.103  1.6239  1.1499 -0.5340
 4668TIP3    H214011   4.289   1.347   3.971  2.2791  0.5004 -0.8102
 4669TIP3   OH214012   6.118   0.222   3.038 -0.1003 -0.2399  0.4198
 4669TIP3    H114013   6.043   0.273   3.009  0.0407 -1.0050 -1.4552
 4669TIP3    H214014   6.194   0.269   3.002  0.1428 -0.7659  0.2356
 4670TIP3   OH214015   0.668   0.619   1.280  0.0472 -0.6013  0.0344
 4670TIP3    H114016   0.623   0.650   1.358  0.3000 -2.6590  1.0729
 4670TIP3    H214017   0.761   0.617   1.304  0.2992  0.1042 -0.8260
 4671TIP3   OH214018   5.232   5.069   2.561  0.2215  0.4191  0.8263
 4671TIP3    H114019   5.326   5.055   2.574 -0.0550 -0.9795  1.6262
 4671TIP3    H214020   5.191   5.020   2.633 -1.1175  1.0260  0.5034
 4672TIP3   OH214021   4.230   3.667   1.637  0.2164 -0.3075 -0.3548
 4672TIP3    H114022   4.137   3.688   1.636 -0.3081 -2.3657 -0.7620
 4672TIP3    H214023   4.251   3.647   1.546  1.0548  0.0550 -0.2539
 4673TIP3   OH214024   5.034   5.373   4.325 -0.8854  0.0602  0.3609
 4673TIP3    H114025   5.019   5.280   4.339 -0.7442 -0.2625 -1.3974
 4673TIP3    H214026   5.019   5.386   4.231  0.0938  1.6130  0.3863
 4674TIP3   OH214027   0.515   0.314   4.744  0.4101  0.3174  0.4050
 4674TIP3    H114028   0.496   0.351   4.830 -0.9613  0.2287  0.1680
 4674TIP3    H214029   0.514   0.220   4.757 -2.3794  0.1869 -0.1287
 4675TIP3   OH214030   0.509   2.670   0.263  0.2402 -0.1817 -0.8883
 4675TIP3    H114031   0.545   2.657   0.350  0.1401 -0.5273 -0.8957
 4675TIP3    H214032   0.566   2.618   0.206  0.2848  0.0149 -1.0241
 4676TIP3   OH214033   0.321   3.150   3.211  0.2205  0.1108 -0.3097
 4676TIP3    H114034   0.318   3.112   3.123  1.8181 -0.5832 -0.1064
 4676TIP3    H214035   0.397   3.109   3.252  0.6419  1.8399  0.7379
 4677TIP3   OH214036   0.360   2.227   1.693 -0.1655  0.1418  0.0462
 4677TIP3    H114037   0.426   2.296   1.697  0.3881 -0.2844 -1.0503
 4677TIP3    H214038   0.388   2.163   1.758  0.5209 -0.0403 -0.4201
 4678TIP3   OH214039   5.155   5.741   2.100  0.0138 -0.8260  0.1750
 4678TIP3    H114040   5.217   5.815   2.093  1.1079 -1.7192  0.1466
 4678TIP3    H214041   5.071   5.779   2.074  0.1184  0.9237  2.1181
 4679TIP3   OH214042   3.735   2.038   1.898  0.2577 -0.0087 -0.2150
 4679TIP3    H114043   3.643   2.063   1.896 -0.3357 -1.6764  1.8974
 4679TIP3    H214044   3.738   1.954   1.853  0.7681  0.0867 -0.3653
 4680TIP3   OH214045   1.506   2.396   0.103  0.6509  0.1990 -0.1516
 4680TIP3    H114046   1.535   2.453   0.032  0.0415  3.1215  1.7385
 4680TIP3    H214047   1.570   2.326   0.106  1.5619  0.8416 -2.5602
 4681TIP3   OH214048   0.735   4.673   1.744 -0.2949  0.2011  0.5528
 4681TIP3    H114049   0.783   4.599   1.783  0.8322  1.1092  0.9477
 4681TIP3    H214050   0.798   4.714   1.685 -1.4540 -0.1416 -0.9830
 4682TIP3   OH214051   1.185   2.340   3.933 -0.5858  0.0464  0.2135
 4682TIP3    H114052   1.101   2.370   3.898 -0.2636  0.7414  0.0378
 4682TIP3    H214053   1.180   2.244   3.927 -0.6797  0.1307 -1.3817
 4683TIP3   OH214054   1.736   5.381   1.320 -0.2910 -0.1873  0.6692
 4683TIP3    H114055   1.805   5.316   1.337  1.5687  2.2088  2.9574
 4683TIP3    H214056   1.671   5.365   1.388  1.0086  1.3554  2.3378
 4684TIP3   OH214057   1.757   2.794   4.882 -0.0568  0.1680  0.1115
 4684TIP3    H114058   1.815   2.724   4.852 -1.8155 -2.2478  1.9026
 4684TIP3    H214059   1.673   2.775   4.841 -0.7259  0.8183  1.1250
 4685TIP3   OH214060   4.678   5.488   1.608  0.3442 -0.3551  0.0804
 4685TIP3    H114061   4.732   5.423   1.564  2.4418 -0.0403  2.0278
 4685TIP3    H214062   4.710   5.572   1.576 -1.2518 -0.1880 -1.1912
 4686TIP3   OH214063   1.403   0.155   4.969 -0.1793  0.2977  0.2560
 4686TIP3    H114064   1.309   0.152   4.950 -0.2293 -0.4533  0.5661
 4686TIP3    H214065   1.420   0.247   4.992 -0.6059  0.6708 -0.8833
 4687TIP3   OH214066   5.600   0.910   3.700  0.5784  0.3972  0.1946
 4687TIP3    H114067   5.648   0.913   3.783 -1.2740  1.7314  1.2903
 4687TIP3    H214068   5.514   0.874   3.723  0.3301 -0.0814 -1.3380
 4688TIP3   OH214069   5.387   2.301   4.774 -0.8439 -0.3737  0.1665
 4688TIP3    H114070   5.357   2.229   4.829  1.3535 -1.0199  0.6127
 4688TIP3    H214071   5.388   2.377   4.831 -1.8152 -0.2702  0.0685
 4689TIP3   OH214072   2.728   3.606   0.107  0.3227 -0.6338 -0.0375
 4689TIP3    H114073   2.742   3.591   0.201  1.3734  0.2095 -0.0444
 4689TIP3    H214074   2.746   3.699   0.095 -0.5294 -0.5754 -0.9610
 4690TIP3   OH214075   4.702   2.551   3.126 -0.2407 -0.3264 -0.2855
 4690TIP3    H114076   4.770   2.606   3.088 -0.8795 -0.1695 -1.2426
 4690TIP3    H214077   4.646   2.527   3.052  0.0299 -2.3067  0.0879
 4691TIP3   OH214078   1.659   3.378   2.379 -0.3019  0.1390 -0.4700
 4691TIP3    H114079   1.731   3.314   2.378  0.6930  1.1649  1.0119
 4691TIP3    H214080   1.698   3.458   2.344 -1.6281 -0.0752 -2.6309
 4692TIP3   OH214081   6.167   1.705   2.747 -0.5167  0.1048 -0.0965
 4692TIP3    H114082   6.109   1.780   2.735  0.9651  1.1635 -1.0762
 4692TIP3    H214083   6.132   1.637   2.690 -2.6057 -0.4639  1.7393
 4693TIP3   OH214084   3.010   2.678   4.006  0.0205 -0.1564 -0.2291
 4693TIP3    H114085   2.987   2.588   3.984 -1.2961 -0.2394  1.3080
 4693TIP3    H214086   3.029   2.676   4.100  0.1148  1.1446 -0.1965
 4694TIP3   OH214087   3.156   5.604   4.125  0.1245  0.2319  0.5020
 4694TIP3    H114088   3.090   5.669   4.104 -0.4900 -0.0919  1.3907
 4694TIP3    H214089   3.169   5.556   4.043 -1.5134 -0.3718  0.5574
 4695TIP3   OH214090   0.964   4.407   4.074  0.6478 -0.2905  0.3275
 4695TIP3    H114091   0.938   4.454   4.154  2.5969  0.4039  0.6102
 4695TIP3    H214092   0.999   4.475   4.017  0.1474 -0.9293 -0.7631
 4696TIP3   OH214093   1.684   5.828   2.907  0.5167  0.1457 -0.3824
 4696TIP3    H114094   1.757   5.889   2.892 -0.4139  1.0567 -1.4176
 4696TIP3    H214095   1.679   5.777   2.827  0.0172  0.0950 -0.3206
 4697TIP3   OH214096   3.737   0.326   2.676 -0.3119  0.6798  0.1783
 4697TIP3    H114097   3.720   0.233   2.657  2.9367  0.1047 -0.5863
 4697TIP3    H214098   3.655   0.370   2.653 -1.7571 -1.9003 -0.0833
 4698TIP3   OH214099   3.571   4.590   2.597 -0.1941  0.3261  0.3896
 4698TIP3    H114100   3.661   4.605   2.568 -0.1166  1.2912  1.0797
 4698TIP3    H214101   3.571   4.500   2.627  0.6469  0.4238  0.7227
 4699TIP3   OH214102   3.665   2.683   2.761  0.3122 -0.0441 -0.1060
 4699TIP3    H114103   3.630   2.632   2.833 -2.1384  1.8954  0.2160
 4699TIP3    H214104   3.645   2.633   2.682  0.6336 -0.9349  0.3731
 4700TIP3   OH214105   3.500   5.811   2.276 -0.4120 -0.3410 -0.0513
 4700TIP3    H114106   3.414   5.828   2.314 -1.0588  0.5260 -1.7638
 4700TIP3    H214107   3.562   5.852   2.336 -1.2381 -0.5064  0.9278
 4701TIP3   OH214108   3.834   4.564   3.973  0.0016  0.2413  0.2158
 4701TIP3    H114109   3.875   4.633   3.921 -0.7285 -0.9359 -2.0304
 4701TIP3    H214110   3.877   4.483   3.945 -0.5751 -0.4666  1.3006
 4702TIP3   OH214111   1.728   4.058   0.799 -0.7671 -0.3174 -0.6632
 4702TIP3    H114112   1.682   3.983   0.762 -3.2078  1.1993 -0.9429
 4702TIP3    H214113   1.666   4.130   0.791  0.2375  1.0763  2.4144
 4703TIP3   OH214114   3.436   2.933   3.174 -0.6954 -0.0746  0.5782
 4703TIP3    H114115   3.431   2.878   3.096  1.4217  0.3269  0.1238
 4703TIP3    H214116   3.394   2.880   3.243 -0.0592 -1.6206 -0.1833
 4704TIP3   OH214117   1.880   0.945   5.120 -0.0088 -0.0369  0.2467
 4704TIP3    H114118   1.948   0.963   5.185  0.9402  1.0409 -0.9950
 4704TIP3    H214119   1.867   1.029   5.076 -0.1082 -0.9090 -1.4357
 4705TIP3   OH214120   0.341   5.669   0.149 -0.1076 -0.2676  0.3574
 4705TIP3    H114121   0.287   5.718   0.210 -0.1838  2.0267 -1.3943
 4705TIP3    H214122   0.398   5.735   0.108  0.7284 -1.8442 -1.2203
 4706TIP3   OH214123   3.571   5.663   0.023 -0.7888  0.3123  0.2954
 4706TIP3    H114124   3.517   5.679   0.100 -0.1444  1.1267  0.5861
 4706TIP3    H214125   3.607   5.748   0.001  1.1462 -0.3707  0.6645
 4707TIP3   OH214126   5.376   5.595   2.186  0.4878 -0.3686 -0.2692
 4707TIP3    H114127   5.307   5.626   2.127 -1.3416 -1.1710  1.3191
 4707TIP3    H214128   5.399   5.508   2.153  0.6059 -0.1817 -0.6862
 4708TIP3   OH214129   5.085   0.734   1.244 -0.2363  0.2254 -0.5057
 4708TIP3    H114130   5.148   0.795   1.281  1.5356 -0.9336 -1.4816
 4708TIP3    H214131   5.069   0.766   1.155 -2.2163  1.3298  0.1765
 4709TIP3   OH214132   0.912   2.781   0.095 -0.2260 -0.1479 -0.1865
 4709TIP3    H114133   0.865   2.863   0.112  1.9010  1.0954  0.0035
 4709TIP3    H214134   0.899   2.730   0.175 -1.2647  0.1301 -0.1555
 4710TIP3   OH214135   5.231   3.125   1.580  0.0871  0.3440 -0.4070
 4710TIP3    H114136   5.298   3.064   1.551 -0.0619  0.7883 -1.7590
 4710TIP3    H214137   5.262   3.211   1.551 -0.0965  0.8334  0.7487
 4711TIP3   OH214138   3.875   3.841   5.137  0.0810  0.1514  0.3721
 4711TIP3    H114139   3.824   3.895   5.077 -1.3234  0.1984  1.5587
 4711TIP3    H214140   3.941   3.900   5.173  0.7759  0.1785 -0.9103
 4712TIP3   OH214141   5.450   3.224   0.730  0.2363  0.3946  0.3403
 4712TIP3    H114142   5.372   3.259   0.687  0.6572  0.3382 -0.4828
 4712TIP3    H214143   5.415   3.162   0.794 -0.3862 -0.4075 -0.7284
 4713TIP3   OH214144   0.093   2.012   4.252 -0.1474 -0.0664  0.1377
 4713TIP3    H114145   0.033   1.942   4.227 -0.9822  0.6516  0.0917
 4713TIP3    H214146   0.119   1.990   4.341  1.9683 -2.0357 -0.8630
 4714TIP3   OH214147   6.137   4.001   3.591  0.0688 -0.4967  0.7362
 4714TIP3    H114148   6.210   4.006   3.653 -1.5976  0.5481  2.7744
 4714TIP3    H214149   6.067   4.051   3.633 -1.4843 -0.5235 -1.6315
 4715TIP3   OH214150   5.811   0.491   1.270  0.0960 -0.4912 -0.4790
 4715TIP3    H114151   5.874   0.530   1.331 -0.6391  0.1428 -0.0978
 4715TIP3    H214152   5.767   0.423   1.322  0.4385 -0.9118 -0.7345
 4716TIP3   OH214153   6.003   1.774   3.814 -0.1857  0.0721 -0.1434
 4716TIP3    H114154   6.006   1.678   3.823 -0.4849  0.1340  0.6493
 4716TIP3    H214155   5.918   1.792   3.774  0.5195 -0.0903 -1.8266
 4717TIP3   OH214156   1.599   4.641   2.829 -0.7206 -0.8198  0.1720
 4717TIP3    H114157   1.524   4.604   2.876 -0.9298  0.8858  1.3128
 4717TIP3    H214158   1.674   4.588   2.857 -1.2421 -1.4724  0.3571
 4718TIP3   OH214159   3.977   3.063   3.311  0.2182 -0.3814 -0.2477
 4718TIP3    H114160   3.886   3.050   3.287 -1.8782  3.9619  3.7832
 4718TIP3    H214161   3.993   2.998   3.380 -0.2123 -0.4479 -0.2091
 4719TIP3   OH214162   6.289   0.214   0.481 -0.5444  0.1112  0.5167
 4719TIP3    H114163   6.325   0.146   0.538  0.8795  0.1124 -0.3219
 4719TIP3    H214164   6.218   0.172   0.434 -0.3309 -0.5027  0.7382
 4720TIP3   OH214165   1.596   2.602   2.786 -0.8983 -0.0016 -0.1925
 4720TIP3    H114166   1.513   2.637   2.752  0.5863  1.2166 -2.7916
 4720TIP3    H214167   1.663   2.662   2.753  1.3156 -2.4830 -0.5397
 4721TIP3   OH214168   4.418   3.380   3.127  0.1371 -0.2866 -0.2997
 4721TIP3    H114169   4.490   3.437   3.099  0.5488 -0.0918  1.0798
 4721TIP3    H214170   4.339   3.432   3.108  0.3355 -0.4869 -1.7830
 4722TIP3   OH214171   1.166   1.618   3.099 -0.3156  0.6249  0.2237
 4722TIP3    H114172   1.103   1.649   3.164  1.1554  0.0387  2.0147
 4722TIP3    H214173   1.113   1.569   3.036 -1.7717  1.0172  1.0911
 4723TIP3   OH214174   0.474   5.076   0.338 -0.2471 -0.3305 -0.2390
 4723TIP3    H114175   0.493   5.037   0.423 -0.2030  2.3830  1.1053
 4723TIP3    H214176   0.388   5.041   0.314  0.3680 -2.2185  0.2122
 4724TIP3   OH214177   2.902   2.423   0.240  0.2192  0.4049  0.1714
 4724TIP3    H114178   2.994   2.403   0.229 -0.2658 -1.4306 -0.9442
 4724TIP3    H214179   2.878   2.382   0.323  0.2507  0.2803  0.1191
 4725TIP3   OH214180   5.270   1.935   0.606  0.5381  0.5147  0.8398
 4725TIP3    H114181   5.314   1.879   0.542 -0.3391  1.5390 -0.7554
 4725TIP3    H214182   5.231   2.005   0.553 -0.8501  1.0230  2.4460
 4726TIP3   OH214183   5.059   5.382   1.554 -0.5764  0.2862 -0.2249
 4726TIP3    H114184   5.126   5.314   1.556 -0.4047  0.3880 -1.8576
 4726TIP3    H214185   4.977   5.336   1.537 -0.5389  0.4178 -0.7866
 4727TIP3   OH214186   4.219   5.309   0.982  0.1463  0.0350 -0.1268
 4727TIP3    H114187   4.255   5.390   0.945 -0.0984  0.0383 -0.3715
 4727TIP3    H214188   4.279   5.285   1.051 -0.4456  1.1228  0.8120
 4728TIP3   OH214189   0.750   3.285   4.762  0.0126  0.0552 -0.4322
 4728TIP3    H114190   0.846   3.278   4.756  0.2480  2.5247 -0.5430
 4728TIP3    H214191   0.718   3.225   4.694  1.5593  0.5764 -1.7022
 4729TIP3   OH214192   0.049   0.940   3.313  0.1173  0.3095  0.4021
 4729TIP3    H114193  -0.012   0.985   3.371 -0.6400  0.9393 -0.8628
 4729TIP3    H214194   0.129   0.932   3.366  0.8190  4.3734  0.3130
 4730TIP3   OH214195   3.676   5.924   0.006  0.3793  0.0907  0.6932
 4730TIP3    H114196   3.739   5.898  -0.061  0.9056 -0.8904  1.5406
 4730TIP3    H214197   3.728   5.973   0.070 -0.1553  1.1862  0.3036
 4731TIP3   OH214198   4.241   0.730   0.475 -0.7226 -0.8389 -0.2790
 4731TIP3    H114199   4.175   0.801   0.475 -0.2900 -0.4202 -1.0003
 4731TIP3    H214200   4.274   0.729   0.385  0.2925 -1.0180  0.0901
 4732TIP3   OH214201   2.701   4.671   5.014  0.1739  0.5325 -0.3274
 4732TIP3    H114202   2.686   4.647   5.106 -2.1828  0.6690 -0.6184
 4732TIP3    H214203   2.704   4.767   5.015 -1.0666  0.5854 -0.5237
 4733TIP3   OH214204   3.224   3.531   1.673  0.0080  0.0068 -0.3290
 4733TIP3    H114205   3.268   3.473   1.734  0.7003  0.4267 -0.4275
 4733TIP3    H214206   3.139   3.489   1.658  0.2894 -0.7013  0.0084
 4734TIP3   OH214207   3.439   2.266   1.320 -0.1460 -0.2709  0.1284
 4734TIP3    H114208   3.355   2.230   1.349  0.0745 -2.0834 -1.3181
 4734TIP3    H214209   3.499   2.248   1.391 -1.1258  2.0903  1.7145
 4735TIP3   OH214210   5.343   1.631   4.502 -0.2023 -0.2293  0.2439
 4735TIP3    H114211   5.341   1.558   4.565  0.4178  1.0162  1.7866
 4735TIP3    H214212   5.430   1.627   4.464 -0.4706 -0.7958 -0.3432
 4736TIP3   OH214213   2.601   0.743   4.990 -0.0982 -0.0326 -0.5142
 4736TIP3    H114214   2.528   0.769   4.935  0.7785  1.5983 -0.9591
 4736TIP3    H214215   2.561   0.709   5.069 -1.3399  0.2830 -0.9897
 4737TIP3   OH214216   3.384   1.456   3.150 -0.4549  0.1387 -0.6215
 4737TIP3    H114217   3.343   1.456   3.236 -1.2675 -1.5405 -0.9720
 4737TIP3    H214218   3.469   1.415   3.164 -1.2955 -1.7917 -0.8792
 4738TIP3   OH214219   6.279   4.149   4.385  0.3546  0.0896 -0.8749
 4738TIP3    H114220   6.299   4.174   4.475  0.1503  2.7208 -1.4716
 4738TIP3    H214221   6.325   4.066   4.372 -2.0439 -2.0234  2.5017
 4739TIP3   OH214222   4.010   3.371   3.487  0.2962  0.2959  0.2593
 4739TIP3    H114223   4.101   3.393   3.503  1.0723 -1.9516 -0.6298
 4739TIP3    H214224   3.994   3.293   3.539 -0.6511 -0.2229 -0.7445
 4740TIP3   OH214225   3.337   5.534   5.163  1.0317  0.0317 -0.2818
 4740TIP3    H114226   3.347   5.629   5.167 -0.1701  0.1861 -0.5557
 4740TIP3    H214227   3.426   5.500   5.169  1.6218  1.2229 -1.7005
 4741TIP3   OH214228   3.239   5.887   2.406 -0.0566  1.2190 -0.3101
 4741TIP3    H114229   3.221   5.953   2.338 -0.5759 -0.3622 -1.7687
 4741TIP3    H214230   3.159   5.882   2.457 -0.1146  1.4932 -0.3722
 4742TIP3   OH214231   2.994   5.237   3.268  0.0130 -0.1121  0.1206
 4742TIP3    H114232   3.005   5.142   3.271  3.1140 -0.0268 -2.7714
 4742TIP3    H214233   2.912   5.249   3.219  0.0211 -1.3166 -0.2395
 4743TIP3   OH214234   1.726   5.625   2.690 -0.1770 -0.3620 -0.4309
 4743TIP3    H114235   1.737   5.639   2.597  0.8980 -1.4934 -0.4945
 4743TIP3    H214236   1.718   5.530   2.700 -0.3858 -0.2567  0.6216
 4744TIP3   OH214237   2.797   1.571   2.662  0.1353 -0.0678  0.2672
 4744TIP3    H114238   2.805   1.534   2.574  2.5159  0.3204  0.2634
 4744TIP3    H214239   2.815   1.497   2.721 -1.7448 -0.4000  0.4947
 4745TIP3   OH214240   1.370   4.070   4.668 -0.1631 -0.3945 -0.2976
 4745TIP3    H114241   1.282   4.033   4.674 -0.0449 -0.4954  2.1907
 4745TIP3    H214242   1.411   4.046   4.752  1.0013  2.6407  0.1163
 4746TIP3   OH214243   0.870   3.687   2.848  0.1817  0.3826  0.0620
 4746TIP3    H114244   0.816   3.726   2.779  0.2953 -0.7337 -0.6810
 4746TIP3    H214245   0.960   3.700   2.818  0.2518  0.3171  0.2421
 4747TIP3   OH214246   5.783   3.674   5.138  0.1589  0.0400  0.6180
 4747TIP3    H114247   5.865   3.717   5.115  0.1921 -0.3397 -0.0119
 4747TIP3    H214248   5.715   3.730   5.102  0.0234  1.3101  2.6816
 4748TIP3   OH214249   3.798   1.432   1.107 -0.5898  0.3761 -0.1050
 4748TIP3    H114250   3.782   1.409   1.198  0.0564 -0.7765 -0.2622
 4748TIP3    H214251   3.710   1.433   1.067 -0.8680  0.8491  0.5125
 4749TIP3   OH214252   5.833   5.777   2.689  0.2788 -0.0785 -0.1010
 4749TIP3    H114253   5.925   5.754   2.701  0.2251  0.0299  0.5631
 4749TIP3    H214254   5.832   5.873   2.685  0.2290 -0.0909 -0.4349
 4750TIP3   OH214255   0.704   2.223   1.203 -0.0713  0.1737  0.2944
 4750TIP3    H114256   0.672   2.265   1.283 -0.1740 -1.0979  0.9451
 4750TIP3    H214257   0.765   2.286   1.165  0.4369  0.5506  1.6887
 4751TIP3   OH214258   1.441   1.167   4.904 -0.8156  0.1493 -0.1329
 4751TIP3    H114259   1.508   1.172   4.972 -1.2770  1.2754  0.2648
 4751TIP3    H214260   1.432   1.257   4.873 -1.5449 -0.1332 -0.7704
 4752TIP3   OH214261   6.280   0.299   4.706  0.2972  0.1922 -1.1442
 4752TIP3    H114262   6.204   0.264   4.753  1.0248  0.6055  0.4205
 4752TIP3    H214263   6.334   0.222   4.689  0.2431  0.0887 -0.8623
 4753TIP3   OH214264   1.561   5.152   2.311 -0.0051 -0.4285 -0.1844
 4753TIP3    H114265   1.595   5.067   2.282  1.9112 -0.5157  2.0137
 4753TIP3    H214266   1.629   5.215   2.286 -0.6166  0.2183 -0.2681
 4754TIP3   OH214267   1.204   3.793   4.349 -0.1088 -0.7262  0.3767
 4754TIP3    H114268   1.126   3.750   4.315 -0.6292  2.2952 -2.7625
 4754TIP3    H214269   1.176   3.834   4.431 -1.4068 -0.8703  0.0268
 4755TIP3   OH214270   0.536   2.610   4.527 -0.0592  0.3313 -0.4508
 4755TIP3    H114271   0.550   2.693   4.572 -0.0263  0.0427  0.0822
 4755TIP3    H214272   0.442   2.595   4.533 -0.1348  0.5736 -0.9893
 4756TIP3   OH214273   3.134   3.400   4.377 -0.1277 -0.0569  0.0562
 4756TIP3    H114274   3.209   3.341   4.366  0.1643  0.4629 -0.8217
 4756TIP3    H214275   3.154   3.449   4.457  0.7335  0.4446 -0.4526
 4757TIP3   OH214276   1.251   0.274   3.580  0.2492  0.1749 -0.4219
 4757TIP3    H114277   1.292   0.208   3.524  1.1078  1.4456 -1.3669
 4757TIP3    H214278   1.225   0.344   3.519 -3.4843 -0.5632  0.0749
 4758TIP3   OH214279   2.734   0.236   1.646  0.1436  0.2059  0.0026
 4758TIP3    H114280   2.686   0.172   1.594 -0.9547  0.0552  1.1540
 4758TIP3    H214281   2.719   0.320   1.603 -0.1665 -0.0107 -0.3071
 4759TIP3   OH214282   3.163   5.565   4.842 -0.2137  0.0810 -0.3561
 4759TIP3    H114283   3.078   5.526   4.825 -0.1610  0.3771 -1.3806
 4759TIP3    H214284   3.148   5.627   4.914 -0.3877 -1.4533  0.9787
 4760TIP3   OH214285   6.141   5.931   5.021  0.2912 -0.6400 -0.2295
 4760TIP3    H114286   6.108   5.856   5.070  0.2716 -0.3955  0.1328
 4760TIP3    H214287   6.108   6.007   5.068 -1.1892 -0.3899 -1.6235
 4761TIP3   OH214288   4.312   1.172   0.111 -0.0414 -0.3372  0.5416
 4761TIP3    H114289   4.325   1.081   0.086 -1.2120 -0.6180  0.8968
 4761TIP3    H214290   4.352   1.178   0.198  3.1721  0.4051 -0.8540
 4762TIP3   OH214291   0.698   1.904   1.247  0.5092 -0.0663  0.1368
 4762TIP3    H114292   0.658   1.870   1.168  2.1959  0.4565 -1.0012
 4762TIP3    H214293   0.637   1.970   1.279 -0.5452 -0.8100 -0.2913
 4763TIP3   OH214294   0.954   1.709   3.645 -0.4949 -0.4152 -0.3886
 4763TIP3    H114295   0.892   1.780   3.628 -1.5013 -1.6458 -2.3059
 4763TIP3    H214296   0.921   1.636   3.593  2.8594 -1.0113 -1.9677
 4764TIP3   OH214297   5.193   1.759   2.954  0.1146  0.4548  0.0021
 4764TIP3    H114298   5.199   1.704   2.875 -3.1633  0.7551 -0.6005
 4764TIP3    H214299   5.191   1.849   2.921  1.8691  0.7958  0.7267
 4765TIP3   OH214300   4.287   0.997   4.612 -0.0200 -0.3975 -0.3488
 4765TIP3    H114301   4.204   0.952   4.597 -0.2822 -0.0482  0.0287
 4765TIP3    H214302   4.274   1.044   4.694  1.2421 -1.9712  0.8229
 4766TIP3   OH214303   2.100   1.669   2.497  0.8133 -0.1673  0.2853
 4766TIP3    H114304   2.053   1.753   2.498 -0.1039 -0.5942 -1.6883
 4766TIP3    H214305   2.191   1.693   2.512  0.2879  0.8826  2.3165
 4767TIP3   OH214306   4.627   5.795   4.522 -0.5177 -0.1075 -0.2537
 4767TIP3    H114307   4.634   5.699   4.524  0.3954 -0.0444  1.3950
 4767TIP3    H214308   4.601   5.819   4.611 -0.5978  1.1923 -0.6085
 4768TIP3   OH214309   3.341   4.387   1.635  0.0248 -0.1713  0.5047
 4768TIP3    H114310   3.309   4.317   1.579 -1.8368  1.0934 -0.1154
 4768TIP3    H214311   3.392   4.443   1.576 -0.7775  0.4174  0.3439
 4769TIP3   OH214312   6.357   3.471   0.784  0.1315 -0.0351 -0.5425
 4769TIP3    H114313   6.283   3.525   0.755 -0.3022 -0.3809 -0.0842
 4769TIP3    H214314   6.386   3.426   0.705  0.9850  1.4290 -1.1000
 4770TIP3   OH214315   3.222   5.041   2.124 -0.0120  0.7453 -0.4517
 4770TIP3    H114316   3.142   5.080   2.087  0.3193 -0.1015 -2.1656
 4770TIP3    H214317   3.263   4.996   2.050 -0.4278 -2.9637  1.3394
 4771TIP3   OH214318   4.000   5.018   3.574 -0.2203  0.2324  0.0968
 4771TIP3    H114319   3.906   5.005   3.574 -0.0110 -1.5554  0.2123
 4771TIP3    H214320   4.019   5.054   3.661 -0.9881  2.6581 -0.6766
 4772TIP3   OH214321   6.093   2.981   3.336 -0.2067  0.7808 -0.0427
 4772TIP3    H114322   6.006   2.944   3.344  0.1641 -0.7093 -2.0428
 4772TIP3    H214323   6.136   2.929   3.268  2.1117  1.7233  0.5656
 4773TIP3   OH214324   0.993   4.179   0.191  0.2961  0.6121 -0.0486
 4773TIP3    H114325   0.908   4.209   0.222 -0.5202 -1.8307  0.3069
 4773TIP3    H214326   0.973   4.136   0.107  0.8960 -1.2694  0.7334
 4774TIP3   OH214327   1.309   3.067   2.209  0.1539 -0.3535  0.2929
 4774TIP3    H114328   1.360   3.010   2.152  0.6101 -0.2548  0.5885
 4774TIP3    H214329   1.374   3.101   2.272 -0.2979 -0.3008  0.7375
 4775TIP3   OH214330   1.625   2.355   2.299  0.2874 -0.1450 -0.1814
 4775TIP3    H114331   1.557   2.375   2.235  0.4716  1.8601  0.1765
 4775TIP3    H214332   1.646   2.439   2.338  2.9593 -0.7116 -0.2283
 4776TIP3   OH214333   4.184   2.473   3.834  0.4751 -0.4244  0.0425
 4776TIP3    H114334   4.162   2.399   3.890  0.5119 -0.8355 -0.4803
 4776TIP3    H214335   4.218   2.433   3.754  0.4018  0.1587 -0.2814
 4777TIP3   OH214336   5.104   4.201   3.842  0.1670 -0.1175  0.0593
 4777TIP3    H114337   5.109   4.111   3.875 -0.1241 -0.1066  0.1430
 4777TIP3    H214338   5.080   4.253   3.919  0.2427  0.0181 -0.0084
 4778TIP3   OH214339   4.608   0.603   0.191  0.3593 -0.0092  0.2749
 4778TIP3    H114340   4.629   0.520   0.148  1.4897  1.2219 -1.7305
 4778TIP3    H214341   4.676   0.614   0.257 -0.0733 -0.8797  0.8797
 4779TIP3   OH214342   6.184   5.017   5.108  0.5049  0.0293 -0.5510
 4779TIP3    H114343   6.093   5.029   5.136  0.4645 -0.2288 -0.5641
 4779TIP3    H214344   6.177   4.989   5.016  0.5096 -1.6292 -0.0758
 4780TIP3   OH214345   0.525   2.703   1.807  0.2258 -0.2258  0.3224
 4780TIP3    H114346   0.441   2.679   1.848  0.8920 -0.7949  1.3992
 4780TIP3    H214347   0.551   2.783   1.852 -0.3349  0.6679 -0.8973
 4781TIP3   OH214348   1.299   3.250   3.171 -0.3484  0.1084  0.1038
 4781TIP3    H114349   1.222   3.214   3.214 -1.2799  1.5093 -0.3246
 4781TIP3    H214350   1.333   3.177   3.118 -1.9476 -0.2627 -0.4664
 4782TIP3   OH214351   4.167   5.661   2.211  0.5757 -0.3187  0.7678
 4782TIP3    H114352   4.130   5.653   2.123 -2.1910  1.0689  1.6704
 4782TIP3    H214353   4.139   5.582   2.256 -0.1095  0.0820  1.0574
 4783TIP3   OH214354   6.070   4.188   2.204 -0.3867  0.0530 -0.5391
 4783TIP3    H114355   6.119   4.158   2.281 -1.6284  1.6938  0.9704
 4783TIP3    H214356   6.032   4.107   2.167 -0.1416 -0.7290  0.8547
 4784TIP3   OH214357   5.319   0.328   3.622  0.0720  0.3077 -0.0316
 4784TIP3    H114358   5.275   0.408   3.595 -0.4985  0.2410  0.6847
 4784TIP3    H214359   5.412   0.348   3.612 -0.0613  1.0764  0.1914
 4785TIP3   OH214360   0.128   5.404   4.184 -0.4852  0.2337 -0.3375
 4785TIP3    H114361   0.047   5.439   4.220 -0.4400 -0.3126  0.3283
 4785TIP3    H214362   0.111   5.310   4.172  0.0499  0.1049 -0.1549
 4786TIP3   OH214363   0.044   1.374   2.064  0.0683 -0.3203  0.5178
 4786TIP3    H114364   0.108   1.317   2.023 -0.4487 -0.2661 -0.3848
 4786TIP3    H214365  -0.038   1.354   2.019 -0.5338 -0.3123  1.5749
 4787TIP3   OH214366   4.068   2.030   0.652  0.0664  0.4025 -0.2690
 4787TIP3    H114367   4.088   2.069   0.737  0.6753  0.3408 -0.3780
 4787TIP3    H214368   4.060   1.936   0.670  2.1230  0.1244 -0.5795
 4788TIP3   OH214369   3.038   4.925   2.305 -0.6212 -0.3785  0.3263
 4788TIP3    H114370   3.046   4.844   2.256 -1.3869 -0.5153  0.4078
 4788TIP3    H214371   3.111   4.979   2.276 -0.8797 -0.5764 -0.7240
 4789TIP3   OH214372   6.220   3.284   1.941  0.0721 -0.3185 -0.0527
 4789TIP3    H114373   6.284   3.343   1.900  1.3354 -1.9553 -0.5499
 4789TIP3    H214374   6.235   3.199   1.899 -0.7971 -1.3132  1.5371
 4790TIP3   OH214375   3.685   1.321   2.748 -0.1353  0.1181  0.2812
 4790TIP3    H114376   3.713   1.396   2.697 -1.8678  1.1110  0.6974
 4790TIP3    H214377   3.593   1.308   2.722 -0.0462 -1.4828  0.6534
 4791TIP3   OH214378   0.796   3.921   4.336  0.7620 -0.6143  0.4709
 4791TIP3    H114379   0.724   3.858   4.344  0.2920 -0.1219  0.1481
 4791TIP3    H214380   0.779   3.967   4.254  0.6795  0.4513  1.0748
 4792TIP3   OH214381   0.434   3.156   3.937 -0.6236  0.3515  0.8197
 4792TIP3    H114382   0.380   3.209   3.878  0.6343  1.8129  0.9271
 4792TIP3    H214383   0.393   3.166   4.023 -0.5670  0.9334  0.7826
 4793TIP3   OH214384   3.382   2.873   2.527  0.5258 -0.3512 -0.0074
 4793TIP3    H114385   3.449   2.901   2.589  2.4528 -0.4489 -1.9473
 4793TIP3    H214386   3.430   2.847   2.448 -1.7575 -0.9426 -1.3123
 4794TIP3   OH214387   2.451   4.961   1.551  0.8749  0.3604 -0.7720
 4794TIP3    H114388   2.396   4.968   1.629  2.4789  1.5360  0.3110
 4794TIP3    H214389   2.505   4.883   1.566  0.8861  0.3375 -0.9226
 4795TIP3   OH214390   3.291   1.154   3.026 -0.2937 -0.4209 -0.0982
 4795TIP3    H114391   3.215   1.167   3.082 -0.3106  1.6822 -0.5414
 4795TIP3    H214392   3.360   1.208   3.065  0.1631 -0.1656 -1.1959
 4796TIP3   OH214393   4.484   4.852   2.611 -0.3371 -0.4713  0.3426
 4796TIP3    H114394   4.526   4.766   2.618 -1.5429 -1.2605 -1.3035
 4796TIP3    H214395   4.454   4.871   2.699  2.3492 -0.4135  1.3336
 4797TIP3   OH214396   1.509   5.321   1.466 -0.2914 -0.2098 -0.0244
 4797TIP3    H114397   1.502   5.283   1.553 -1.5010 -0.3733 -0.1729
 4797TIP3    H214398   1.471   5.256   1.407 -0.5611  0.3812 -0.5269
 4798TIP3   OH214399   4.028   4.467   0.946  0.0086  0.7073  0.5153
 4798TIP3    H114400   3.978   4.401   0.897 -0.3441  0.3367  1.3499
 4798TIP3    H214401   4.114   4.426   0.959  0.5711  1.3677 -0.9698
 4799TIP3   OH214402   1.154   1.277   2.212 -0.4815 -0.0204 -0.5224
 4799TIP3    H114403   1.100   1.202   2.237  2.0072 -1.1710  1.7420
 4799TIP3    H214404   1.172   1.323   2.294 -0.6858  2.2405 -1.6668
 4800TIP3   OH214405   5.654   4.004   1.854 -0.6039 -0.4924 -0.1249
 4800TIP3    H114406   5.690   4.009   1.943 -0.6867 -0.8876 -0.0678
 4800TIP3    H214407   5.608   4.087   1.842  0.8684  0.3078 -0.4439
 4801TIP3   OH214408   1.573   5.850   4.660 -0.0097 -0.1196  0.3108
 4801TIP3    H114409   1.515   5.926   4.666  1.9301  1.3531  4.4530
 4801TIP3    H214410   1.654   5.884   4.621  0.0614 -0.6510 -0.0099
 4802TIP3   OH214411   5.680   2.991   2.144 -0.5759  0.0427  0.0797
 4802TIP3    H114412   5.700   3.047   2.069 -0.4049  0.0617  0.1390
 4802TIP3    H214413   5.586   3.002   2.158 -0.6251 -0.0297 -0.1862
 4803TIP3   OH214414   5.831   0.500   1.672 -0.2045 -0.7288 -0.2717
 4803TIP3    H114415   5.818   0.415   1.630 -0.7453 -0.1076 -1.4176
 4803TIP3    H214416   5.889   0.482   1.746 -1.1260 -2.2473  0.1128
 4804TIP3   OH214417   0.923   5.823   4.830 -0.3765  0.4146  0.1713
 4804TIP3    H114418   0.973   5.887   4.781  1.5172 -0.3580  0.9890
 4804TIP3    H214419   0.902   5.866   4.913 -0.3797  0.4594  0.1469
 4805TIP3   OH214420   6.200   1.280   4.458  0.2133  0.3127 -0.0362
 4805TIP3    H114421   6.132   1.214   4.439  0.9038 -1.2278  2.3582
 4805TIP3    H214422   6.276   1.251   4.407  0.4237 -0.6262  0.7771
 4806TIP3   OH214423   1.460   0.224   1.579  0.4896 -0.5103 -0.4007
 4806TIP3    H114424   1.456   0.212   1.484  1.9521  2.2834 -0.9380
 4806TIP3    H214425   1.381   0.274   1.599  1.1798  0.6777 -0.5419
 4807TIP3   OH214426   3.145   1.186   2.788 -0.5072 -0.3231 -0.0589
 4807TIP3    H114427   3.217   1.189   2.851 -2.2164  1.0671  1.9845
 4807TIP3    H214428   3.188   1.183   2.702  1.9772  1.1421  1.0143
 4808TIP3   OH214429   4.295   2.907   4.920  0.0402 -0.6092 -0.6561
 4808TIP3    H114430   4.287   2.890   5.014 -0.5231  0.7103 -0.4439
 4808TIP3    H214431   4.231   2.976   4.902  1.8715  0.9835 -1.5013
 4809TIP3   OH214432   2.691   2.090   0.964 -0.5538  0.6574  0.2108
 4809TIP3    H114433   2.638   2.031   1.017  0.1257 -0.4699 -0.3219
 4809TIP3    H214434   2.778   2.088   1.004 -0.1718  0.2089 -0.6108
 4810TIP3   OH214435   4.870   3.909   0.180 -0.0564  0.5402 -0.1949
 4810TIP3    H114436   4.822   3.834   0.143 -1.2954  1.3925 -0.3831
 4810TIP3    H214437   4.814   3.939   0.252  1.3220  0.1728  1.0880
 4811TIP3   OH214438   5.436   3.827   2.192  0.3676  0.0387  0.0491
 4811TIP3    H114439   5.358   3.871   2.156  0.5923  0.1623 -0.2965
 4811TIP3    H214440   5.429   3.737   2.160  0.3925  0.0631 -0.0263
 4812TIP3   OH214441   0.043   4.600   3.634  0.0922 -0.5545 -0.1080
 4812TIP3    H114442   0.072   4.690   3.621  1.5550 -0.9943 -0.0580
 4812TIP3    H214443  -0.034   4.591   3.578  0.0609  0.6498 -0.2864
 4813TIP3   OH214444   2.401   2.355   4.829  0.1681  0.2015 -0.1082
 4813TIP3    H114445   2.399   2.291   4.759 -1.1246  0.1998 -0.0931
 4813TIP3    H214446   2.352   2.314   4.901  1.5624  0.1504  0.8606
 4814TIP3   OH214447   0.799   4.082   2.528 -0.3537 -0.5188  0.6301
 4814TIP3    H114448   0.718   4.122   2.562 -0.0044 -0.2769  1.1904
 4814TIP3    H214449   0.862   4.092   2.599 -0.4562 -2.7838  1.1118
 4815TIP3   OH214450   3.900   3.164  -0.013  0.0777  0.1068 -0.0924
 4815TIP3    H114451   3.890   3.237   0.049 -0.9829 -1.3244  1.4890
 4815TIP3    H214452   3.861   3.089   0.031  0.1871 -1.2145 -2.1148
 4816TIP3   OH214453   3.082   1.158   3.200 -0.1879  0.3882  0.0633
 4816TIP3    H114454   3.095   1.065   3.216 -1.3901  0.2036  0.0327
 4816TIP3    H214455   3.013   1.184   3.262  0.5996  1.4186  0.5484
 4817TIP3   OH214456   2.873   4.381   2.730  0.1906 -0.0289 -0.2601
 4817TIP3    H114457   2.823   4.303   2.707 -0.9799 -0.0695  2.1040
 4817TIP3    H214458   2.932   4.351   2.800  0.2487  1.0279  0.1602
 4818TIP3   OH214459   2.356   4.743   2.668 -0.0591  0.2411  0.5127
 4818TIP3    H114460   2.358   4.697   2.584 -2.2008 -0.2403  0.6704
 4818TIP3    H214461   2.445   4.777   2.679  0.4385 -0.2179 -1.6422
 4819TIP3   OH214462   5.730   1.241   4.504  0.0501 -0.2712 -0.3485
 4819TIP3    H114463   5.806   1.259   4.559 -0.5380  0.3627  0.2699
 4819TIP3    H214464   5.658   1.284   4.548 -1.0011 -2.2154 -0.0612
 4820TIP3   OH214465   3.212   1.161   3.944 -0.1535  0.5072 -0.2139
 4820TIP3    H114466   3.268   1.126   3.874  1.7291  0.4042  1.2691
 4820TIP3    H214467   3.153   1.089   3.965  1.9779 -1.0139  1.0333
 4821TIP3   OH214468   2.347   2.429   3.808  0.4645  0.1882 -0.2197
 4821TIP3    H114469   2.384   2.444   3.895  1.2548  0.9938 -0.6765
 4821TIP3    H214470   2.259   2.469   3.812  1.0758  1.6092 -0.2340
 4822TIP3   OH214471   3.056   2.115   0.807  0.5434  0.0891 -0.0678
 4822TIP3    H114472   3.125   2.152   0.752  1.2923  1.6823  1.7870
 4822TIP3    H214473   3.044   2.180   0.877 -1.4034 -1.1120  0.8033
 4823TIP3   OH214474   1.583   1.136   1.167  0.2722 -0.1452  0.9971
 4823TIP3    H114475   1.564   1.093   1.251 -0.7168 -0.5828  0.5653
 4823TIP3    H214476   1.588   1.064   1.104 -1.5945  0.3273  0.2273
 4824TIP3   OH214477   0.691   5.029   4.451  0.5808  0.2244  0.2427
 4824TIP3    H114478   0.647   4.949   4.481 -1.6079  0.9384 -0.8312
 4824TIP3    H214479   0.727   5.005   4.365 -0.4077  0.4574 -0.2542
 4825TIP3   OH214480   1.728   2.922   3.274 -0.2043  0.1636  0.2290
 4825TIP3    H114481   1.635   2.927   3.298 -0.2962  0.2218 -0.1320
 4825TIP3    H214482   1.758   3.013   3.279 -0.5425  0.3694 -1.1072
 4826TIP3   OH214483   3.360   2.858   0.959  0.2957  0.0830 -0.2461
 4826TIP3    H114484   3.405   2.775   0.948 -0.4624 -0.4758  0.6976
 4826TIP3    H214485   3.278   2.836   1.005 -0.2829  1.2407 -0.6625
 4827TIP3   OH214486   3.207   1.849   3.867 -0.3195  0.1626  0.5289
 4827TIP3    H114487   3.232   1.932   3.827  0.0280 -0.2782 -0.1991
 4827TIP3    H214488   3.214   1.864   3.961 -0.2189  0.9397  0.4040
 4828TIP3   OH214489   5.044   4.903   5.008 -0.0058 -0.6221 -0.1703
 4828TIP3    H114490   5.136   4.898   5.037 -0.3118 -0.3027  0.9241
 4828TIP3    H214491   5.002   4.959   5.074 -0.9215 -0.5010 -0.8408
 4829TIP3   OH214492   1.421   2.720   0.756 -0.0445 -0.2310  0.4221
 4829TIP3    H114493   1.489   2.737   0.691 -0.6872  1.5327  0.1517
 4829TIP3    H214494   1.421   2.798   0.811 -1.2654 -0.5836  0.9509
 4830TIP3   OH214495   3.230   2.784   1.564 -0.4114 -0.1308  0.8877
 4830TIP3    H114496   3.256   2.857   1.620 -2.2639  0.7334  0.6924
 4830TIP3    H214497   3.300   2.776   1.500  0.3577  0.7391  1.5942
 4831TIP3   OH214498   0.739   5.917   2.049  0.1845  0.0766  0.2915
 4831TIP3    H114499   0.647   5.919   2.076  0.1066  1.7502  0.0139
 4831TIP3    H214500   0.777   5.996   2.089  2.0375 -1.6139  2.1178
 4832TIP3   OH214501   6.293   2.181   0.446 -0.3842  0.2789 -0.5456
 4832TIP3    H114502   6.250   2.264   0.427  0.5846  0.4462 -2.1677
 4832TIP3    H214503   6.232   2.134   0.503 -1.4959  1.5747 -0.6349
 4833TIP3   OH214504   0.434   4.735   2.885  0.5688  0.1445  0.1331
 4833TIP3    H114505   0.476   4.737   2.971  1.2890 -0.7698 -0.1831
 4833TIP3    H214506   0.340   4.731   2.904  0.7273 -0.1368  0.8789
 4834TIP3   OH214507   5.844   1.536   0.177  0.9109  0.4736  0.2646
 4834TIP3    H114508   5.755   1.572   0.176  1.0353  0.8100  1.0885
 4834TIP3    H214509   5.835   1.451   0.133  0.2577  0.6715 -0.0003
 4835TIP3   OH214510   0.185   5.463   0.591 -0.0301  0.7012  0.1531
 4835TIP3    H114511   0.278   5.452   0.615 -0.4963 -1.9283  1.1401
 4835TIP3    H214512   0.153   5.531   0.651  0.9767  0.7079  0.7153
 4836TIP3   OH214513   5.012   3.387   1.734 -0.1004  0.4538 -0.1773
 4836TIP3    H114514   5.019   3.390   1.638 -0.2134 -0.2355 -0.2117
 4836TIP3    H214515   5.013   3.294   1.755 -1.3806  0.5550  0.3996
 4837TIP3   OH214516   3.038   4.520   0.531 -0.1033  0.4879  0.2081
 4837TIP3    H114517   2.978   4.452   0.502  1.4660 -0.4127 -1.0830
 4837TIP3    H214518   3.056   4.499   0.623 -0.2767 -0.3569  0.0565
 4838TIP3   OH214519   0.753   2.112   4.690 -0.0236  0.3880 -0.0289
 4838TIP3    H114520   0.689   2.183   4.691  0.8287  1.2098  1.6791
 4838TIP3    H214521   0.743   2.071   4.776  1.5340  0.3785  0.1789
 4839TIP3   OH214522   1.765   5.960   4.496 -0.5651  0.5149  0.1976
 4839TIP3    H114523   1.797   5.871   4.486 -0.2110  0.4075  1.9559
 4839TIP3    H214524   1.773   5.999   4.409 -0.4835 -1.0780 -0.5268
 4840TIP3   OH214525   2.129   4.947   4.342  0.4005  0.0003  0.0075
 4840TIP3    H114526   2.207   4.927   4.392  0.6918  0.4370 -0.2645
 4840TIP3    H214527   2.143   4.907   4.256 -0.0474 -0.6495  0.2341
 4841TIP3   OH214528   4.040   1.750   1.730  0.2660  0.0986 -0.5201
 4841TIP3    H114529   4.059   1.658   1.708  0.6074  0.0762 -0.1350
 4841TIP3    H214530   3.997   1.784   1.651 -1.6644 -0.9152  0.0380
 4842TIP3   OH214531   5.863   5.137   1.212  0.2952 -0.6413 -0.2020
 4842TIP3    H114532   5.829   5.114   1.125  2.0857  0.0341 -1.1449
 4842TIP3    H214533   5.958   5.144   1.199  0.3175  3.3753  0.8584
 4843TIP3   OH214534   4.422   2.053   3.988  0.1096 -0.3661 -0.5844
 4843TIP3    H114535   4.451   2.123   4.046 -1.0545 -0.8127  0.5673
 4843TIP3    H214536   4.471   2.067   3.907  1.8918  0.1625  0.5454
 4844TIP3   OH214537   0.843   1.511   5.080 -0.0675  0.2507  0.0370
 4844TIP3    H114538   0.861   1.604   5.067 -2.4090  0.5796 -1.5123
 4844TIP3    H214539   0.848   1.473   4.992  0.4625 -1.0283  0.5961
 4845TIP3   OH214540   1.234   2.149   2.231  0.1161 -0.3847  0.0473
 4845TIP3    H114541   1.263   2.057   2.227 -0.8477 -0.6657 -1.0090
 4845TIP3    H214542   1.140   2.144   2.246 -0.0016  0.4309 -0.3783
 4846TIP3   OH214543   0.969   1.774   4.395 -0.3740 -0.0443 -0.0640
 4846TIP3    H114544   1.059   1.748   4.375 -0.9753 -2.0341 -0.3692
 4846TIP3    H214545   0.964   1.770   4.491 -0.4206 -1.0225 -0.0977
 4847TIP3   OH214546   1.166   3.700   1.704  0.0354 -0.4272  0.1515
 4847TIP3    H114547   1.224   3.776   1.707 -0.4676  0.0482 -1.3021
 4847TIP3    H214548   1.079   3.736   1.721 -0.2927 -0.5461 -1.1858
 4848TIP3   OH214549   2.725   3.640   0.395 -0.0704 -0.2410 -0.4559
 4848TIP3    H114550   2.799   3.603   0.443  1.1672  0.1661 -1.9528
 4848TIP3    H214551   2.741   3.734   0.394 -2.6332  0.3710  2.3918
 4849TIP3   OH214552   5.605   5.704   2.572  0.5608 -0.5291  0.2044
 4849TIP3    H114553   5.550   5.782   2.582 -0.7295 -1.3326 -0.3838
 4849TIP3    H214554   5.670   5.711   2.642 -1.4336 -0.4846  2.1474
 4850TIP3   OH214555   5.764   2.910   5.012  0.0879  0.1409  0.4307
 4850TIP3    H114556   5.771   2.837   5.073 -0.4780 -0.9178 -0.7317
 4850TIP3    H214557   5.816   2.980   5.052  1.0387 -1.0459  1.3366
 4851TIP3   OH214558   3.193   3.870   2.248 -0.4197  0.4762  0.0256
 4851TIP3    H114559   3.203   3.965   2.251  1.5799  0.4441 -2.1475
 4851TIP3    H214560   3.168   3.845   2.337 -0.5828  2.9830  0.7445
 4852TIP3   OH214561   0.971   5.526   4.568 -0.0884 -0.6384 -0.6245
 4852TIP3    H114562   0.898   5.467   4.585 -0.4108 -0.3044 -0.8414
 4852TIP3    H214563   0.974   5.535   4.473  0.1600 -0.5560 -0.6104
 4853TIP3   OH214564   3.270   3.891   1.236  0.7725 -0.2070 -0.5688
 4853TIP3    H114565   3.255   3.924   1.324  1.9613  2.1378 -1.1625
 4853TIP3    H214566   3.229   3.804   1.235 -0.3788  0.2369  1.8649
 4854TIP3   OH214567   3.400   1.261   1.103  0.3148  0.2283  0.2393
 4854TIP3    H114568   3.487   1.221   1.106 -0.0909 -0.6462  0.7464
 4854TIP3    H214569   3.339   1.187   1.103 -0.4356  0.8262 -0.1913
 4855TIP3   OH214570   3.282   2.319   3.068 -0.2870  0.2283 -0.1298
 4855TIP3    H114571   3.208   2.290   3.015  0.2342 -0.4260 -0.5241
 4855TIP3    H214572   3.274   2.270   3.150 -1.0199  1.1427  0.3650
 4856TIP3   OH214573   3.702   4.032   4.174  0.0544  0.3042 -0.0914
 4856TIP3    H114574   3.759   4.033   4.251  1.3871  0.5388 -1.0446
 4856TIP3    H214575   3.675   4.124   4.164 -0.2891  0.2364  0.2220
 4857TIP3   OH214576   5.314   2.325   2.838 -0.3220  0.2833 -0.2348
 4857TIP3    H114577   5.405   2.333   2.812 -0.7482 -0.0896 -1.9211
 4857TIP3    H214578   5.317   2.273   2.919  0.9047 -0.3430 -0.6572
 4858TIP3   OH214579   1.987   5.499   1.807 -0.0423  0.4872  0.0063
 4858TIP3    H114580   1.929   5.444   1.755 -0.1100  0.1637  0.4181
 4858TIP3    H214581   1.929   5.548   1.865  0.0314  0.8640 -0.2307
 4859TIP3   OH214582   4.679   5.838   0.382  0.1164 -0.3743 -0.2640
 4859TIP3    H114583   4.600   5.839   0.329  0.0822 -2.0735 -0.2911
 4859TIP3    H214584   4.664   5.768   0.445  0.7497  0.6609  1.0931
 4860TIP3   OH214585   3.575   4.274   3.785 -0.3383 -0.1574  0.3564
 4860TIP3    H114586   3.558   4.240   3.697 -0.1356  1.6823 -0.4384
 4860TIP3    H214587   3.659   4.236   3.810 -0.4844 -0.8302 -0.1621
 4861TIP3   OH214588   2.021   4.052   4.181 -0.1123 -0.2630  0.5330
 4861TIP3    H114589   1.991   4.126   4.233  0.8503  0.5488 -0.0288
 4861TIP3    H214590   2.108   4.032   4.217  0.0505 -0.4651  0.0329
 4862TIP3   OH214591   2.624   5.032   3.513  0.1471  0.6993  0.2421
 4862TIP3    H114592   2.590   5.096   3.451  0.1918  2.3648  1.8536
 4862TIP3    H214593   2.579   5.051   3.595 -0.1132 -1.6073  0.7091
 4863TIP3   OH214594   6.007   1.758   4.339  0.5655 -0.6354  0.4315
 4863TIP3    H114595   5.964   1.692   4.393  0.5063 -0.1166  1.0324
 4863TIP3    H214596   5.949   1.768   4.264 -1.3306  1.2527  1.9908
 4864TIP3   OH214597   1.557   3.770   3.856  0.8472  0.4998 -0.0501
 4864TIP3    H114598   1.589   3.692   3.810  0.6713  0.9342 -0.9307
 4864TIP3    H214599   1.463   3.753   3.869  1.0267  0.0842  0.7699
 4865TIP3   OH214600   0.116   1.275   0.723  0.2334  0.3787 -0.0085
 4865TIP3    H114601   0.038   1.328   0.706 -0.1183  1.4708  4.0009
 4865TIP3    H214602   0.188   1.338   0.723  0.2830  0.3596  1.5747
 4866TIP3   OH214603   0.550   4.524   1.975 -0.3062 -0.0471  0.5343
 4866TIP3    H114604   0.498   4.598   1.942  3.9076  3.0052 -0.1058
 4866TIP3    H214605   0.634   4.532   1.931  2.3974 -1.7348  4.7165
 4867TIP3   OH214606   0.241   5.757   1.114  0.4933 -0.8421 -0.1090
 4867TIP3    H114607   0.227   5.666   1.138  0.2189 -0.5599  0.8943
 4867TIP3    H214608   0.165   5.803   1.151 -0.0200 -0.3652 -1.6746
 4868TIP3   OH214609   6.164   5.776   1.532 -0.0050  0.3257 -0.0204
 4868TIP3    H114610   6.133   5.696   1.575  0.1085  0.0016 -0.5300
 4868TIP3    H214611   6.256   5.784   1.559 -0.1261  0.5038  0.3465
 4869TIP3   OH214612   2.499   1.736   4.380 -0.3353 -0.1196 -0.2879
 4869TIP3    H114613   2.455   1.698   4.456 -2.9548  1.8327 -0.6788
 4869TIP3    H214614   2.564   1.670   4.354 -2.6593 -3.0214  0.7031
 4870TIP3   OH214615   5.738   0.359   5.156  0.4227  0.3133 -0.4246
 4870TIP3    H114616   5.826   0.396   5.147  1.2784 -1.7249 -0.7920
 4870TIP3    H214617   5.697   0.375   5.071  1.7582 -1.9234 -1.5620
 4871TIP3   OH214618   4.441   5.774   0.764 -0.1455 -0.2323 -0.0126
 4871TIP3    H114619   4.350   5.796   0.785 -0.1933 -0.9537  0.5696
 4871TIP3    H214620   4.490   5.794   0.845 -0.1406 -1.8845  0.4311
 4872TIP3   OH214621   4.789   3.068   3.520  0.5331 -0.5619  0.2354
 4872TIP3    H114622   4.731   3.114   3.459  0.1799 -1.6731 -0.2851
 4872TIP3    H214623   4.769   3.107   3.605  1.3288  1.3033 -0.3903
 4873TIP3   OH214624   2.847   0.968   2.591  0.0080 -0.1982  0.5972
 4873TIP3    H114625   2.899   0.981   2.512 -0.4793  1.0478  0.4569
 4873TIP3    H214626   2.812   0.879   2.584  0.0289 -0.1209 -0.5435
 4874TIP3   OH214627   0.147   0.915   2.788 -0.2962 -0.1340  0.2126
 4874TIP3    H114628   0.150   0.834   2.838 -0.4383  0.6497  1.5569
 4874TIP3    H214629   0.169   0.890   2.699 -0.9158 -1.7335  0.4818
 4875TIP3   OH214630   2.541   5.692   2.088  0.2503 -0.3476 -0.2582
 4875TIP3    H114631   2.472   5.632   2.115  0.2564 -0.3855 -0.3244
 4875TIP3    H214632   2.595   5.640   2.028 -0.7146  0.2271 -1.6978
 4876TIP3   OH214633   2.494   4.391   0.563  0.4748  0.1411 -0.1045
 4876TIP3    H114634   2.451   4.468   0.601 -1.1471 -0.7449 -0.0941
 4876TIP3    H214635   2.541   4.426   0.487  1.4797  1.4673  1.0641
 4877TIP3   OH214636   4.787   0.565   4.223 -0.2442 -0.1137 -0.3131
 4877TIP3    H114637   4.697   0.595   4.236  0.1334  1.1741 -0.5473
 4877TIP3    H214638   4.788   0.533   4.133 -0.6312 -0.7639 -0.0919
 4878TIP3   OH214639   4.680   2.642   1.105  0.0396  0.1186 -0.4332
 4878TIP3    H114640   4.685   2.738   1.108 -1.6662  0.2177  1.0737
 4878TIP3    H214641   4.599   2.624   1.059  0.5119 -0.6320 -0.9875
 4879TIP3   OH214642   3.521   4.193   1.258 -0.0180 -0.4597 -0.1237
 4879TIP3    H114643   3.614   4.175   1.248  0.0410 -1.3140  1.5103
 4879TIP3    H214644   3.496   4.142   1.336 -1.1142  2.2409  1.4282
 4880TIP3   OH214645   0.831   0.849   3.348  0.2397  0.8046 -0.0642
 4880TIP3    H114646   0.886   0.909   3.298  0.8406  0.2549 -0.0747
 4880TIP3    H214647   0.754   0.836   3.293  0.7950  0.3757 -0.7693
 4881TIP3   OH214648   0.892   4.442   1.812  0.1360 -0.1598 -0.0835
 4881TIP3    H114649   0.931   4.424   1.897  0.1460 -0.6954 -0.2006
 4881TIP3    H214650   0.932   4.378   1.753 -1.3986 -1.1647 -0.0848
 4882TIP3   OH214651   5.480   5.636   1.698  0.0801  0.0706 -0.4082
 4882TIP3    H114652   5.460   5.722   1.735  2.4428  0.2486  0.6105
 4882TIP3    H214653   5.407   5.580   1.725 -0.5762  1.3262  0.4949
 4883TIP3   OH214654   0.317   2.684   4.331  0.2934 -0.5210 -0.1701
 4883TIP3    H114655   0.330   2.770   4.369  1.2698  0.4162 -2.4634
 4883TIP3    H214656   0.291   2.629   4.405  1.0706  1.3854  1.6152
 4884TIP3   OH214657   0.040   3.761   1.868 -0.6162 -0.6316 -0.3665
 4884TIP3    H114658   0.120   3.813   1.860 -1.0332 -0.2135 -2.1955
 4884TIP3    H214659  -0.013   3.810   1.931  0.0718 -0.2560 -0.0662
 4885TIP3   OH214660   4.268   1.001   0.832 -0.1210  0.0772 -0.0561
 4885TIP3    H114661   4.297   0.912   0.811  0.4684  0.4966 -1.0712
 4885TIP3    H214662   4.278   1.007   0.927  0.9664 -0.5517 -0.1121
 4886TIP3   OH214663   5.165   2.588   2.106 -0.1778 -0.0589 -0.0331
 4886TIP3    H114664   5.212   2.531   2.167  0.5682  0.3062 -0.2425
 4886TIP3    H214665   5.115   2.647   2.161 -0.5066 -0.5512  0.1976
 4887TIP3   OH214666   0.243   4.091   3.565  0.0630  0.0488  0.1501
 4887TIP3    H114667   0.302   4.042   3.507  0.4916 -1.1200  1.5301
 4887TIP3    H214668   0.300   4.155   3.608 -0.5066  1.9242 -1.7005
 4888TIP3   OH214669   1.697   1.414   1.385  0.4220 -0.1058  0.1279
 4888TIP3    H114670   1.741   1.498   1.371 -1.3426  0.5260 -2.2327
 4888TIP3    H214671   1.726   1.359   1.313 -1.4027 -0.1688 -0.6196
 4889TIP3   OH214672   0.291   0.083   0.664  0.4130  0.2818  0.2073
 4889TIP3    H114673   0.201   0.051   0.650  0.4584  1.0225 -2.3075
 4889TIP3    H214674   0.284   0.142   0.739 -1.6005  1.6126 -0.9313
 4890TIP3   OH214675   1.656   2.829   1.544 -0.4377  0.4986 -0.1834
 4890TIP3    H114676   1.629   2.740   1.567 -0.5039  0.3331 -0.8797
 4890TIP3    H214677   1.574   2.874   1.522 -0.3401  0.5351 -0.4798
 4891TIP3   OH214678   1.545   5.734   0.085 -0.7088 -0.8574  0.0475
 4891TIP3    H114679   1.597   5.670   0.036 -1.8819 -2.1281  0.3984
 4891TIP3    H214680   1.610   5.788   0.130  0.3421 -1.0028 -1.2141
 4892TIP3   OH214681   4.648   3.140   1.988  0.1031 -0.0430 -0.3628
 4892TIP3    H114682   4.552   3.139   1.998  0.2043  2.0218  1.3273
 4892TIP3    H214683   4.662   3.146   1.893 -1.3405 -2.5125 -0.8303
 4893TIP3   OH214684   3.511   4.655   0.950  0.0274 -0.4658  0.7400
 4893TIP3    H114685   3.503   4.588   0.882  0.1031  0.6726 -0.4396
 4893TIP3    H214686   3.421   4.677   0.973 -0.0042 -0.5996  0.7427
 4894TIP3   OH214687   1.166   0.080   1.361  0.8943  1.0193  0.7059
 4894TIP3    H114688   1.132   0.064   1.449  3.4997 -1.1827  1.4651
 4894TIP3    H214689   1.168  -0.006   1.320 -0.0614  1.9743 -1.4879
 4895TIP3   OH214690   2.866   4.315   4.643  0.4258  0.0305  0.0998
 4895TIP3    H114691   2.932   4.256   4.680  1.6327  0.8491 -0.6958
 4895TIP3    H214692   2.869   4.393   4.698 -0.5322 -0.2711  0.6026
 4896TIP3   OH214693   3.651   3.053   4.614 -0.1813 -0.0357  1.2205
 4896TIP3    H114694   3.600   3.134   4.608  0.4969  0.3992  1.2270
 4896TIP3    H214695   3.656   3.035   4.708 -0.5823 -0.2544  1.2037
 4897TIP3   OH214696   1.192   5.592   2.321 -0.5004  0.3547 -0.2449
 4897TIP3    H114697   1.141   5.516   2.346 -0.7005  1.0114  1.4991
 4897TIP3    H214698   1.207   5.582   2.227 -0.3228 -1.9289 -0.0136
 4898TIP3   OH214699   4.560   5.440   0.071 -0.0219  0.1486 -0.5376
 4898TIP3    H114700   4.555   5.354   0.029  1.2602 -0.5916  0.7406
 4898TIP3    H214701   4.516   5.428   0.156  0.4724  0.6585 -0.2014
 4899TIP3   OH214702   4.848   1.952   1.846 -0.3116 -0.1945 -0.4941
 4899TIP3    H114703   4.869   2.013   1.774 -0.5733  0.6177  0.0994
 4899TIP3    H214704   4.933   1.927   1.881 -0.2171  0.7209 -0.0314
 4900TIP3   OH214705   2.638   1.488   1.170  0.8487  0.2952 -0.7712
 4900TIP3    H114706   2.565   1.483   1.232  1.0508 -0.0752 -0.5540
 4900TIP3    H214707   2.715   1.503   1.225  1.2360 -1.4233 -0.7680
 4901TIP3   OH214708   3.419   2.093   0.078 -0.1794 -0.2706 -0.0122
 4901TIP3    H114709   3.361   2.161   0.110 -1.0095 -0.6234 -0.7149
 4901TIP3    H214710   3.507   2.121   0.104  0.0626  3.0499 -3.4197
 4902TIP3   OH214711   3.306   3.518   0.612 -0.1046 -0.0357 -0.2002
 4902TIP3    H114712   3.241   3.470   0.663  1.0230 -1.0373  0.3411
 4902TIP3    H214713   3.282   3.502   0.520 -0.1108 -1.1456 -0.0171
 4903TIP3   OH214714   0.159   0.883   0.899 -0.2529  0.5289  0.3517
 4903TIP3    H114715   0.116   0.807   0.939  1.6963 -0.8160  0.0137
 4903TIP3    H214716   0.100   0.910   0.829 -0.6886 -1.1135  0.0423
 4904TIP3   OH214717   0.208   3.382   3.115  0.2042 -0.2175  0.1233
 4904TIP3    H114718   0.151   3.439   3.166  1.1343 -0.3681  1.3714
 4904TIP3    H214719   0.221   3.305   3.170  0.3782 -0.8589 -0.7970
 4905TIP3   OH214720   2.457   3.799   3.903  0.0133  0.2490 -0.0018
 4905TIP3    H114721   2.498   3.716   3.928 -0.1817  0.6337  1.7732
 4905TIP3    H214722   2.420   3.833   3.985 -1.2087  1.3755 -0.9698
 4906TIP3   OH214723   0.777   2.302   0.760 -0.3415 -0.1832 -0.1127
 4906TIP3    H114724   0.749   2.291   0.669  1.2518 -0.9661 -0.5535
 4906TIP3    H214725   0.810   2.392   0.764 -1.7677  0.3481  0.1057
 4907TIP3   OH214726   1.526   5.705   3.986 -0.1947  0.0999  0.0063
 4907TIP3    H114727   1.544   5.655   4.066  1.0279  0.7759  0.1760
 4907TIP3    H214728   1.549   5.795   4.008 -1.6348  0.6248 -0.5470
 4908TIP3   OH214729   2.064   1.100   2.762  0.0989  0.0372 -0.4196
 4908TIP3    H114730   2.014   1.033   2.808  2.1675 -1.3476 -0.0190
 4908TIP3    H214731   2.154   1.068   2.763  0.9833  2.2248 -1.3743
 4909TIP3   OH214732   5.686   2.174   3.847  0.6160 -0.4866 -0.5458
 4909TIP3    H114733   5.765   2.227   3.834 -0.4287  0.7295 -2.2793
 4909TIP3    H214734   5.628   2.199   3.775 -0.4504 -3.0772 -0.6789
 4910TIP3   OH214735   5.893   0.034   3.160 -0.3563 -0.2216 -0.1988
 4910TIP3    H114736   5.838   0.013   3.236  0.1990 -0.5745  0.1126
 4910TIP3    H214737   5.977   0.060   3.199 -0.7837  1.9749 -0.5737
 4911TIP3   OH214738   5.482   3.158   1.235  0.9143 -0.4390  0.1719
 4911TIP3    H114739   5.419   3.087   1.222  2.6904 -2.0085 -0.2027
 4911TIP3    H214740   5.495   3.161   1.330  0.3900 -0.1876  0.2417
 4912TIP3   OH214741   2.132   1.703   1.724  0.1345 -0.1511 -0.0362
 4912TIP3    H114742   2.111   1.670   1.812  3.7343 -1.9022  0.3331
 4912TIP3    H214743   2.196   1.773   1.738 -0.3110  0.5399 -1.2509
 4913TIP3   OH214744   5.275   4.393   0.992  0.3895 -0.2844  0.2319
 4913TIP3    H114745   5.210   4.365   1.055 -0.1491  1.2081  0.3813
 4913TIP3    H214746   5.326   4.461   1.038  0.3443  0.4250 -0.7285
 4914TIP3   OH214747   1.408   4.515   2.985  0.3665  0.6154 -0.1330
 4914TIP3    H114748   1.470   4.459   3.032 -0.7074 -0.1598  0.4004
 4914TIP3    H214749   1.326   4.506   3.033 -0.7666 -0.1494 -2.1028
 4915TIP3   OH214750   4.425   0.118   1.488  0.1774  0.3663  0.4455
 4915TIP3    H114751   4.507   0.166   1.496 -0.7618  1.6876  3.4696
 4915TIP3    H214752   4.400   0.097   1.578 -1.9976 -1.4470 -0.4684
 4916TIP3   OH214753   5.100   4.278   5.041 -0.1198 -0.2696  0.4414
 4916TIP3    H114754   5.040   4.257   4.970 -0.6138  1.2138  0.3796
 4916TIP3    H214755   5.068   4.361   5.076  1.7030  0.4346  0.5901
 4917TIP3   OH214756   3.402   2.627   4.039  0.7090 -0.1678 -0.2006
 4917TIP3    H114757   3.312   2.599   4.054  1.1038 -1.3927  0.0370
 4917TIP3    H214758   3.451   2.593   4.114  1.8150 -1.8785 -1.6043
 4918TIP3   OH214759   1.187   3.076   4.127 -0.0793  0.1952 -0.9523
 4918TIP3    H114760   1.099   3.053   4.156  0.1659 -0.5989 -0.7986
 4918TIP3    H214761   1.198   3.029   4.044  0.1344  0.4392 -1.0632
 4919TIP3   OH214762   4.132   0.347   1.100 -0.2909 -0.2456 -0.1560
 4919TIP3    H114763   4.221   0.312   1.104  0.7334  2.0058 -1.5822
 4919TIP3    H214764   4.106   0.355   1.192  2.0372  1.4923  0.4520
 4920TIP3   OH214765   3.565   2.477   0.114  0.0646 -0.6625  0.3389
 4920TIP3    H114766   3.611   2.545   0.066 -2.8360  0.3918 -1.1649
 4920TIP3    H214767   3.556   2.511   0.203 -0.1491  0.2993 -0.0488
 4921TIP3   OH214768   4.085   0.439   4.336 -0.1553 -0.4476  0.2960
 4921TIP3    H114769   4.160   0.384   4.356  0.8947  0.2424 -1.4871
 4921TIP3    H214770   4.116   0.497   4.266 -2.3096 -0.0678 -0.4193
 4922TIP3   OH214771   4.310   3.001   1.672  0.1253 -0.1462  0.6056
 4922TIP3    H114772   4.267   3.001   1.587 -0.7920  1.1980  1.0534
 4922TIP3    H214773   4.304   2.910   1.702  1.3218 -0.8656 -1.1508
 4923TIP3   OH214774   4.462   2.913   3.054  0.3356 -0.4757 -0.1841
 4923TIP3    H114775   4.486   2.956   2.972  0.6609 -1.1969 -0.4744
 4923TIP3    H214776   4.372   2.940   3.069  0.4645  0.1379 -0.4676
 4924TIP3   OH214777   3.873   5.028   0.939 -0.1971  0.5996 -0.5070
 4924TIP3    H114778   3.852   5.039   1.032  0.5819 -1.1290 -0.0754
 4924TIP3    H214779   3.811   4.962   0.908  2.2959 -2.2133  0.0043
 4925TIP3   OH214780   1.722   3.913   4.379  0.1322  0.4574  0.3721
 4925TIP3    H114781   1.806   3.944   4.414 -0.0250  1.0548  0.2311
 4925TIP3    H214782   1.747   3.862   4.302  0.2913  2.0024 -0.6380
 4926TIP3   OH214783   5.401   3.503   0.083 -0.3141  0.1412  0.2878
 4926TIP3    H114784   5.370   3.494   0.173 -0.9398 -1.2126 -0.0345
 4926TIP3    H214785   5.332   3.552   0.038  0.6862  2.1820  0.8473
 4927TIP3   OH214786   0.817   3.215   0.081 -0.0380  0.0715  0.0320
 4927TIP3    H114787   0.789   3.157   0.151  0.2514  0.8275  0.8042
 4927TIP3    H214788   0.786   3.302   0.107  3.5296  1.1272  1.3703
 4928TIP3   OH214789   1.363   1.273   2.668  0.0210 -0.1775 -0.2284
 4928TIP3    H114790   1.436   1.244   2.613 -0.1391 -0.3660 -0.3398
 4928TIP3    H214791   1.290   1.216   2.644 -0.3140  0.3491 -0.4894
 4929TIP3   OH214792   6.061   3.411   2.892 -0.0541  0.3407 -0.0445
 4929TIP3    H114793   6.055   3.411   2.987 -0.7745  0.1680 -0.0838
 4929TIP3    H214794   6.149   3.378   2.873 -0.2728 -0.6220  0.5416
 4930TIP3   OH214795   0.958   2.239   4.531 -0.3348 -0.3475  0.3760
 4930TIP3    H114796   0.872   2.207   4.561  0.3573 -2.1175  0.6400
 4930TIP3    H214797   1.020   2.174   4.565  1.1890  1.2327  0.7310
 4931TIP3   OH214798   1.104   1.826   1.254 -0.0742 -0.4922  0.1339
 4931TIP3    H114799   1.048   1.896   1.288  1.2197  0.1765  0.9692
 4931TIP3    H214800   1.160   1.802   1.328  2.4126  0.5520 -1.2598
 4932TIP3   OH214801   1.872   4.875   4.074 -0.5113  0.0891 -0.0805
 4932TIP3    H114802   1.967   4.877   4.069 -0.5271  0.5108 -0.2196
 4932TIP3    H214803   1.854   4.811   4.143 -0.1152  0.3497  0.2731
 4933TIP3   OH214804   4.854   5.258   3.317 -0.3143 -0.2093 -0.2709
 4933TIP3    H114805   4.868   5.299   3.232 -0.5452 -0.4620 -0.4311
 4933TIP3    H214806   4.941   5.258   3.358 -0.2556  0.1579 -0.3932
 4934TIP3   OH214807   4.795   1.156   2.420 -0.2999  0.4006 -0.3320
 4934TIP3    H114808   4.771   1.249   2.422 -0.6353  0.3014  0.9510
 4934TIP3    H214809   4.819   1.140   2.329  0.4191  1.9115 -0.4371
 4935TIP3   OH214810   0.495   5.404   4.315  0.0219  0.0016  0.4021
 4935TIP3    H114811   0.484   5.379   4.407 -0.5696  0.8445  0.5795
 4935TIP3    H214812   0.491   5.322   4.267  0.8239 -0.5062  1.1629
 4936TIP3   OH214813   1.194   1.942   3.249 -0.9458  0.1038  0.1386
 4936TIP3    H114814   1.284   1.941   3.215 -1.2567 -0.6067 -0.7015
 4936TIP3    H214815   1.197   2.001   3.324 -0.0329  1.0192 -0.5960
 4937TIP3   OH214816   2.894   0.949   2.312 -0.2816  0.1098 -0.5840
 4937TIP3    H114817   2.948   0.882   2.270  1.3697  0.1877  1.2817
 4937TIP3    H214818   2.893   1.022   2.250  2.3209  0.3432 -0.4422
 4938TIP3   OH214819   2.359   1.585   3.263 -0.3739  0.3038 -1.0943
 4938TIP3    H114820   2.325   1.586   3.174 -1.7891  0.9367 -0.5653
 4938TIP3    H214821   2.286   1.554   3.317  0.9102 -1.5586 -0.3092
 4939TIP3   OH214822   3.044   5.227   4.908 -0.5490  0.2072 -0.0578
 4939TIP3    H114823   2.972   5.190   4.858 -0.0215 -1.3793  0.3220
 4939TIP3    H214824   3.045   5.320   4.883 -1.5823 -0.1191 -1.4158
 4940TIP3   OH214825   1.177   5.019   4.273 -0.2684 -0.0242  0.6812
 4940TIP3    H114826   1.266   5.045   4.297 -0.6632  1.5818  0.5298
 4940TIP3    H214827   1.121   5.077   4.324 -1.1985 -0.0144 -0.3212
 4941TIP3   OH214828   1.950   4.411   0.858 -0.8442  0.1727  0.0636
 4941TIP3    H114829   2.003   4.469   0.913 -1.2459  0.5477  0.0681
 4941TIP3    H214830   1.877   4.385   0.914 -1.6236  1.1007 -0.4740
 4942TIP3   OH214831   2.141   4.028   0.928 -0.1666  0.6109  0.5523
 4942TIP3    H114832   2.088   4.093   0.881 -0.6155  0.1030  0.3379
 4942TIP3    H214833   2.182   3.977   0.859 -1.7948 -0.9310  0.6499
 4943TIP3   OH214834   1.571   3.260   2.916 -0.0888 -0.3633  0.2536
 4943TIP3    H114835   1.624   3.253   2.995 -0.4749 -0.1361  0.5347
 4943TIP3    H214836   1.524   3.343   2.926  0.9677  0.4152 -0.8831
 4944TIP3   OH214837   3.512   2.400   3.335 -0.1618 -0.2780 -0.3418
 4944TIP3    H114838   3.550   2.391   3.247  0.7841  2.1698 -0.2627
 4944TIP3    H214839   3.421   2.374   3.324 -0.8081  2.4160 -2.7661
 4945TIP3   OH214840   0.890   0.807   3.838  0.1349  0.0281 -0.1387
 4945TIP3    H114841   0.929   0.865   3.772  1.8058 -1.1122 -0.2049
 4945TIP3    H214842   0.866   0.728   3.789 -0.4205 -0.0600  0.2743
 4946TIP3   OH214843   4.933   2.113   0.830 -0.3336  0.4127  0.0132
 4946TIP3    H114844   4.868   2.058   0.875 -0.2201 -0.0739 -0.4136
 4946TIP3    H214845   4.914   2.101   0.737 -0.2980  1.0919 -0.0888
 4947TIP3   OH214846   1.910   5.898   1.490 -0.3427  0.3537 -0.0091
 4947TIP3    H114847   1.971   5.945   1.432 -1.0824  0.0929 -1.0339
 4947TIP3    H214848   1.829   5.949   1.484 -0.2939  0.5972  1.2040
 4948TIP3   OH214849   3.458   4.227   3.016 -0.0794 -0.3686 -0.0111
 4948TIP3    H114850   3.549   4.197   3.023  0.4555  0.8061 -1.3051
 4948TIP3    H214851   3.407   4.147   3.001  0.3902 -1.3222  2.8101
 4949TIP3   OH214852   3.795   3.583   2.066 -0.6349 -0.1781  0.8528
 4949TIP3    H114853   3.701   3.566   2.072 -0.9709  1.2474 -0.0440
 4949TIP3    H214854   3.802   3.674   2.040  1.0161 -0.2098  1.0532
 4950TIP3   OH214855   2.610   2.447   4.230 -1.1686  0.7135  0.1774
 4950TIP3    H114856   2.536   2.484   4.181 -0.3727  1.1238 -0.7800
 4950TIP3    H214857   2.677   2.432   4.163  0.3519  2.2524  1.2510
 4951TIP3   OH214858   2.539   5.770   1.406 -0.0335 -0.2002  0.0063
 4951TIP3    H114859   2.535   5.865   1.406 -0.4284 -0.1486 -2.2340
 4951TIP3    H214860   2.610   5.750   1.345  0.2450 -1.3478  0.6842
 4952TIP3   OH214861   4.225   4.391   2.684 -0.0828 -0.1453 -0.7166
 4952TIP3    H114862   4.176   4.393   2.602  2.3204 -0.1396 -2.2425
 4952TIP3    H214863   4.242   4.298   2.699  2.6629 -0.0101 -2.3476
 4953TIP3   OH214864   3.298   2.433   0.029  0.3315  0.3477 -0.5020
 4953TIP3    H114865   3.280   2.376   0.103 -1.2358  1.2950 -0.1033
 4953TIP3    H214866   3.391   2.456   0.038  0.8930 -1.7194 -0.4354
 4954TIP3   OH214867   3.075   1.418   2.496  0.1597  0.2942 -0.1045
 4954TIP3    H114868   3.115   1.353   2.437  0.1778 -0.2567  0.5121
 4954TIP3    H214869   2.983   1.420   2.471  0.2109  0.2218 -0.3011
 4955TIP3   OH214870   4.922   4.310   0.059 -0.2010 -0.6875  0.3853
 4955TIP3    H114871   4.969   4.320  -0.024 -0.8357 -2.4797 -0.2455
 4955TIP3    H214872   4.986   4.334   0.126 -0.0431  1.9881 -0.6147
 4956TIP3   OH214873   2.462   1.612   4.821 -0.4812  0.9881 -0.0358
 4956TIP3    H114874   2.430   1.649   4.739 -1.4004 -0.1228 -0.1982
 4956TIP3    H214875   2.556   1.602   4.807 -0.8928 -1.2420 -1.8316
 4957TIP3   OH214876   5.977   2.739   2.270  0.7108 -0.0996  0.6243
 4957TIP3    H114877   5.987   2.834   2.263  0.0810 -0.0055  0.9189
 4957TIP3    H214878   5.889   2.722   2.236  0.4995 -0.4777  1.3451
 4958TIP3   OH214879   3.010   2.793   2.124  0.2406  0.6683 -0.0458
 4958TIP3    H114880   3.065   2.829   2.194  1.1515 -1.2779  0.3102
 4958TIP3    H214881   3.070   2.783   2.050 -0.2958  1.0306 -0.5310
 4959TIP3   OH214882   4.315   4.794   4.034  0.5791 -0.0881  0.0324
 4959TIP3    H114883   4.228   4.767   4.064  0.4662 -0.0674 -0.2676
 4959TIP3    H214884   4.306   4.799   3.938  1.5629 -2.4856 -0.2639
 4960TIP3   OH214885   6.049   2.914   4.435 -0.4698 -0.5326  0.3368
 4960TIP3    H114886   6.046   2.919   4.339  1.9366  0.2962  0.2482
 4960TIP3    H214887   6.047   2.821   4.455 -2.4118 -0.7001 -0.4013
 4961TIP3   OH214888   2.503   0.939   2.678  0.2436  0.1652  0.5434
 4961TIP3    H114889   2.446   0.891   2.618 -1.3392 -0.0422  2.1139
 4961TIP3    H214890   2.519   1.023   2.634  0.8753 -0.7565 -1.0553
 4962TIP3   OH214891   5.208   2.146   0.817  0.1789  0.3796 -0.2631
 4962TIP3    H114892   5.220   2.080   0.749  0.5180 -0.1717  0.3154
 4962TIP3    H214893   5.115   2.141   0.839  0.3058 -0.3399  0.1837
 4963TIP3   OH214894   2.446   2.602   2.843 -0.3385  0.8308 -0.0093
 4963TIP3    H114895   2.385   2.663   2.802 -0.1785  0.4704 -0.8026
 4963TIP3    H214896   2.389   2.532   2.878 -0.4838  1.1959  0.4927
 4964TIP3   OH214897   3.159   2.192   2.824 -0.1561 -0.1425  0.1305
 4964TIP3    H114898   3.096   2.127   2.856 -0.5114 -0.4857 -1.2173
 4964TIP3    H214899   3.190   2.157   2.740  2.5986 -0.4730  1.1728
 4965TIP3   OH214900   4.686   5.824   4.898  0.2890 -0.0769  0.1208
 4965TIP3    H114901   4.670   5.848   4.990  0.3575  1.9763 -0.3530
 4965TIP3    H214902   4.601   5.797   4.865 -1.1747  4.5538 -0.6241
 4966TIP3   OH214903   5.639   3.902   0.632 -0.2258  0.1767 -0.1771
 4966TIP3    H114904   5.669   3.935   0.716 -0.7900 -3.3225  1.5933
 4966TIP3    H214905   5.572   3.964   0.603 -2.1100  0.0507  3.4423
 4967TIP3   OH214906   4.876   2.045   0.565 -0.1903  0.4390  0.7311
 4967TIP3    H114907   4.816   2.118   0.556 -0.6068 -0.1305 -2.2210
 4967TIP3    H214908   4.957   2.075   0.523  0.3395 -0.0674  1.3732
 4968TIP3   OH214909   5.948   1.248   0.919 -0.0226  0.0097  0.5727
 4968TIP3    H114910   5.878   1.236   0.855  0.0512 -0.5226  0.5833
 4968TIP3    H214911   5.903   1.251   1.004 -0.0513 -0.1395  0.5634
 4969TIP3   OH214912   1.793   4.553   1.241 -0.2114 -0.4081 -0.0631
 4969TIP3    H114913   1.873   4.504   1.263 -0.1636  0.6138  2.4437
 4969TIP3    H214914   1.825   4.631   1.196  0.0186 -0.9087 -0.7882
 4970TIP3   OH214915   2.038   3.721   1.613  0.6145  0.0017  0.4057
 4970TIP3    H114916   2.092   3.671   1.552  0.9599  0.7188  0.1220
 4970TIP3    H214917   2.041   3.810   1.581  0.6706  0.3652  1.3716
 4971TIP3   OH214918   5.254   2.574   1.440 -0.0762  0.1517 -0.1032
 4971TIP3    H114919   5.335   2.527   1.421  0.5242  0.9812  0.3653
 4971TIP3    H214920   5.190   2.534   1.381  0.7144 -0.3621 -0.6471
 4972TIP3   OH214921   5.975   2.359   2.045 -0.1383 -0.2490  0.0707
 4972TIP3    H114922   5.893   2.388   2.004 -2.0217 -2.6470  1.8309
 4972TIP3    H214923   5.998   2.430   2.105 -0.1774  1.0160 -1.3556
 4973TIP3   OH214924   4.316   3.958   2.569  0.1428  0.6261  0.1817
 4973TIP3    H114925   4.258   3.914   2.507  0.5098 -0.5427  0.6359
 4973TIP3    H214926   4.399   3.967   2.521  0.3252  0.0276  0.3734
 4974TIP3   OH214927   4.116   4.731   2.578  0.0044 -0.2293  0.6122
 4974TIP3    H114928   4.103   4.754   2.486 -0.1886 -1.7267  0.2404
 4974TIP3    H214929   4.123   4.816   2.623  1.7439  0.5610 -0.9801
 4975TIP3   OH214930   2.802   1.104   0.263  0.4260 -0.4306  0.5734
 4975TIP3    H114931   2.878   1.057   0.229  0.1233 -0.8442  0.4629
 4975TIP3    H214932   2.756   1.135   0.185  0.7313  0.2170  0.6514
 4976TIP3   OH214933   4.661   1.386   0.784 -0.0593  0.3941 -0.3050
 4976TIP3    H114934   4.593   1.319   0.793  0.7456 -0.3914  0.0377
 4976TIP3    H214935   4.620   1.465   0.820 -1.8411  0.7177 -2.7876
 4977TIP3   OH214936   0.536   0.957   2.865  0.0148 -0.3548  0.8237
 4977TIP3    H114937   0.578   1.041   2.845 -0.1852 -0.2674  0.7720
 4977TIP3    H214938   0.448   0.980   2.892  0.2163 -0.4841  1.6188
 4978TIP3   OH214939   4.053   3.541   4.788  0.6668 -0.3926 -0.2078
 4978TIP3    H114940   3.970   3.568   4.749  2.2489  0.1374 -3.5529
 4978TIP3    H214941   4.071   3.607   4.854 -0.1276  1.2640 -1.5775
 4979TIP3   OH214942   4.591   1.206   1.481  0.2436  0.3479 -0.5891
 4979TIP3    H114943   4.558   1.248   1.401 -2.1383 -1.1138 -0.4602
 4979TIP3    H214944   4.517   1.209   1.542  1.1211 -0.9849  0.6055
 4980TIP3   OH214945   4.823   5.251   1.961 -0.4985  0.0696  0.2341
 4980TIP3    H114946   4.767   5.176   1.945  0.1187 -0.6149  1.1714
 4980TIP3    H214947   4.911   5.221   1.940 -0.4048  0.9781 -0.7602
 4981TIP3   OH214948   1.361   3.964   3.253  0.3777  0.3422 -0.5310
 4981TIP3    H114949   1.328   4.052   3.236  2.0120  0.8906 -1.0271
 4981TIP3    H214950   1.418   3.945   3.179 -0.1130 -1.2479 -0.5448
 4982TIP3   OH214951   4.426   2.581   2.083 -0.4118 -0.4444  0.0119
 4982TIP3    H114952   4.436   2.624   2.168 -2.0211  0.9156 -0.4255
 4982TIP3    H214953   4.455   2.647   2.020 -2.6736 -0.0155 -0.6663
 4983TIP3   OH214954   5.956   5.293   1.939  0.1227  0.3699  0.2293
 4983TIP3    H114955   5.966   5.266   1.848  0.4687  1.5389 -0.0847
 4983TIP3    H214956   6.039   5.268   1.981 -0.4820 -1.2782  0.5417
 4984TIP3   OH214957   0.249   4.694   0.466 -0.4393  0.1825  0.5188
 4984TIP3    H114958   0.314   4.762   0.483 -1.3723  1.6374 -1.2677
 4984TIP3    H214959   0.223   4.710   0.375 -1.8723 -1.5856  0.5803
 4985TIP3   OH214960   4.500   0.176   2.563  0.0082 -0.0559 -0.2157
 4985TIP3    H114961   4.502   0.080   2.571  0.1244 -0.0281  0.0788
 4985TIP3    H214962   4.488   0.191   2.469  0.6881 -0.3516 -0.3536
 4986TIP3   OH214963   5.661   0.144   3.607 -0.6343 -0.1679 -0.0390
 4986TIP3    H114964   5.751   0.153   3.636 -0.1322 -2.4447 -0.6990
 4986TIP3    H214965   5.625   0.233   3.613  2.0073  1.0808 -1.0491
 4987TIP3   OH214966   3.180   4.479   4.227  0.0192  0.4343 -0.0336
 4987TIP3    H114967   3.216   4.474   4.139  1.2182 -1.0870  0.5028
 4987TIP3    H214968   3.212   4.400   4.271  2.4054  2.7279  2.8360
 4988TIP3   OH214969   4.266   2.150   5.069 -0.0166 -0.3139  0.6075
 4988TIP3    H114970   4.343   2.181   5.021 -0.2818  1.8169  1.4569
 4988TIP3    H214971   4.235   2.226   5.118 -1.8502 -1.4825  1.4018
 4989TIP3   OH214972   1.685   3.915   5.143  0.8230  0.5751  0.2372
 4989TIP3    H114973   1.778   3.895   5.147  0.6710 -0.0427  1.0774
 4989TIP3    H214974   1.653   3.864   5.069  0.8498 -0.6216  1.0167
 4990TIP3   OH214975   4.749   4.963   4.652  0.0764 -0.3098  0.1537
 4990TIP3    H114976   4.714   5.038   4.605 -0.0994  0.0062  0.7731
 4990TIP3    H214977   4.722   4.977   4.743  0.3048 -0.9640  0.3287
 4991TIP3   OH214978   2.267   5.274   0.067 -0.0703 -0.0352 -0.2315
 4991TIP3    H114979   2.286   5.354   0.019 -0.4526 -0.2088 -0.6887
 4991TIP3    H214980   2.330   5.210   0.033 -1.2064 -0.5287 -1.5275
 4992TIP3   OH214981   4.654   0.106   1.961 -0.2813 -0.6832  0.0651
 4992TIP3    H114982   4.659   0.199   1.984 -0.7251 -0.5700 -0.2841
 4992TIP3    H214983   4.732   0.090   1.908 -0.1952 -0.5123  0.1401
 4993TIP3   OH214984   6.275   2.832   1.448  0.4793  0.4433 -0.1903
 4993TIP3    H114985   6.252   2.792   1.532 -0.0945 -0.9801 -0.9951
 4993TIP3    H214986   6.192   2.851   1.406  0.7208 -0.6967 -1.2599
 4994TIP3   OH214987   5.337   1.533   0.180 -0.6855  0.5241 -0.0332
 4994TIP3    H114988   5.420   1.495   0.152  0.5552  1.5388  2.0002
 4994TIP3    H214989   5.294   1.462   0.228  0.5899  0.8834  1.7785
 4995TIP3   OH214990   1.828   3.493   4.401 -0.5467 -0.4537  0.4960
 4995TIP3    H114991   1.821   3.530   4.489 -2.0782 -2.5901  1.3581
 4995TIP3    H214992   1.845   3.400   4.416  1.6634 -0.4738 -1.5371
 4996TIP3   OH214993   5.930   2.832   3.740  0.2000  0.2672 -0.4249
 4996TIP3    H114994   5.974   2.908   3.701  1.3157 -0.7877 -1.3111
 4996TIP3    H214995   5.943   2.762   3.676 -1.1076 -0.5920  0.2156
 4997TIP3   OH214996   2.348   4.353   3.256 -0.3906 -0.1687 -0.0016
 4997TIP3    H114997   2.377   4.431   3.302  0.7744  0.0057 -0.9621
 4997TIP3    H214998   2.389   4.281   3.303  0.7082  0.0017 -0.6631
 4998TIP3   OH214999   4.048   5.805   0.612 -0.3935 -0.7777  0.2442
 4998TIP3    H115000   4.124   5.860   0.592  0.3317 -1.1783  1.7487
 4998TIP3    H215001   3.982   5.866   0.644  0.4772 -0.7433  2.1091
 4999TIP3   OH215002   4.049   5.855   5.144 -0.3529 -0.1458  0.6105
 4999TIP3    H115003   4.071   5.763   5.152 -0.6113 -0.1019  2.0198
 4999TIP3    H215004   3.966   5.864   5.191 -1.3466  0.4515 -1.1621
 5000TIP3   OH215005   2.686   5.699   5.133  0.3265  0.6364  0.7771
 5000TIP3    H115006   2.617   5.713   5.198 -0.2405 -0.1612  0.3633
 5000TIP3    H215007   2.740   5.629   5.169  0.6196  0.8996  0.8579
 5001TIP3   OH215008   4.403   3.123   0.158  0.4075 -0.4479  0.0386
 5001TIP3    H115009   4.312   3.152   0.158  0.7093  0.5293 -0.3009
 5001TIP3    H215010   4.402   3.041   0.208 -0.5959 -0.2633  0.3438
 5002TIP3   OH215011   5.933   4.867   2.652  0.0159 -0.7480 -0.4690
 5002TIP3    H115012   6.003   4.809   2.620  0.7519  0.7156 -1.6832
 5002TIP3    H215013   5.889   4.817   2.720  2.2257 -1.7688  0.3244
 5003TIP3   OH215014   5.590   2.015   2.902  0.2740  0.1045  0.2875
 5003TIP3    H115015   5.591   2.004   2.807  0.3197 -1.5845  0.4605
 5003TIP3    H215016   5.601   2.110   2.915  0.3792  0.3509 -1.3698
 5004TIP3   OH215017   2.875   1.238   2.690 -0.1406  0.2398 -0.2770
 5004TIP3    H115018   2.861   1.147   2.663 -1.3524 -0.3903  2.1866
 5004TIP3    H215019   2.953   1.234   2.745 -0.7606  0.4864  0.6344
 5005TIP3   OH215020   0.827   4.869   0.202 -0.6251  0.1122 -0.5403
 5005TIP3    H115021   0.735   4.896   0.194 -0.8650 -0.2432  0.8336
 5005TIP3    H215022   0.846   4.875   0.296  0.3897 -0.9991 -0.6486
 5006TIP3   OH215023   1.148   4.763   2.775  0.3510  0.4619 -0.0120
 5006TIP3    H115024   1.064   4.800   2.802  0.4335  2.3536 -2.0970
 5006TIP3    H215025   1.207   4.783   2.848 -1.0982 -1.7073  1.9135
 5007TIP3   OH215026   3.091   0.918   1.376 -0.0487  0.1395 -0.1891
 5007TIP3    H115027   3.099   1.012   1.361 -0.0551  0.4909  1.8093
 5007TIP3    H215028   3.171   0.894   1.422 -0.8347 -0.4858  0.8801
 5008TIP3   OH215029   3.272   3.779   0.136 -0.3319 -0.3646  0.5933
 5008TIP3    H115030   3.292   3.853   0.079 -0.6195 -0.4285  0.4035
 5008TIP3    H215031   3.222   3.818   0.208  0.8568 -0.1300  1.3156
 5009TIP3   OH215032   3.308   5.632   1.810  0.1196 -0.2375  0.0556
 5009TIP3    H115033   3.358   5.712   1.826  0.1722 -0.3743  0.6135
 5009TIP3    H215034   3.291   5.632   1.716  0.8563 -0.0064 -0.0835
 5010TIP3   OH215035   3.101   2.075   4.730  0.5358  0.1835 -0.3024
 5010TIP3    H115036   3.057   2.105   4.810  0.4911  3.2849 -1.3531
 5010TIP3    H215037   3.052   1.997   4.704 -4.2291  3.0464 -1.1140
 5011TIP3   OH215038   2.906   4.167   2.121  0.0544 -0.0765  0.5878
 5011TIP3    H115039   2.886   4.078   2.149  2.1962 -0.2803  1.6735
 5011TIP3    H215040   2.867   4.174   2.034  0.4271 -2.3400  0.1752
 5012TIP3   OH215041   5.334   2.385   3.791 -0.6403 -0.0032 -0.0048
 5012TIP3    H115042   5.280   2.308   3.809 -0.9173  0.2740  0.3572
 5012TIP3    H215043   5.317   2.444   3.864  0.6921 -0.1946  0.4881
 5013TIP3   OH215044   2.145   3.120   0.122  0.7288 -0.0971 -0.1488
 5013TIP3    H115045   2.102   3.102   0.038  0.7864  0.5508 -0.3193
 5013TIP3    H215046   2.096   3.194   0.158  1.8662  0.8251 -0.4670
 5014TIP3   OH215047   4.803   5.729   1.847 -0.2745  0.1543  0.0897
 5014TIP3    H115048   4.827   5.769   1.931 -0.0331 -0.2590  0.2177
 5014TIP3    H215049   4.767   5.644   1.870 -1.1919  0.4599 -0.1548
 5015TIP3   OH215050   6.145   4.861   3.173 -0.2381 -0.2086  0.6796
 5015TIP3    H115051   6.174   4.879   3.084 -2.0439  0.0870  0.1075
 5015TIP3    H215052   6.194   4.783   3.199 -0.9537 -1.3729 -1.2479
 5016TIP3   OH215053   4.893   4.263   2.356  0.2229 -0.5589  0.4967
 5016TIP3    H115054   4.859   4.186   2.311 -2.8647  1.9537 -1.9112
 5016TIP3    H215055   4.819   4.298   2.404  1.6395  0.7594  1.8344
 5017TIP3   OH215056   4.453   1.285   3.656 -0.4792  0.4451 -0.4061
 5017TIP3    H115057   4.387   1.288   3.586  0.9737 -0.1546 -1.8570
 5017TIP3    H215058   4.535   1.266   3.611  0.5222  0.0499  1.4852
 5018TIP3   OH215059   6.229   4.141   1.517  0.2258  0.3372  0.2488
 5018TIP3    H115060   6.172   4.215   1.498 -2.5797 -1.9094 -0.7175
 5018TIP3    H215061   6.255   4.154   1.609  0.9763  3.1111 -0.2505
 5019TIP3   OH215062   0.326   4.545   1.792 -0.5660  0.4043 -0.0422
 5019TIP3    H115063   0.251   4.507   1.746 -1.2332  0.3726  1.0435
 5019TIP3    H215064   0.337   4.631   1.753 -1.0370  0.3299 -0.3451
 5020TIP3   OH215065   3.258   2.725   0.020  0.2088 -0.3947  0.0708
 5020TIP3    H115066   3.283   2.722  -0.072  0.3031 -0.6666  0.1032
 5020TIP3    H215067   3.294   2.644   0.057 -0.4594 -0.6499  0.1835
 5021TIP3   OH215068   3.577   0.703   1.151 -0.0563 -0.1834 -0.0923
 5021TIP3    H115069   3.604   0.700   1.243 -0.5732  0.2586  0.0804
 5021TIP3    H215070   3.592   0.614   1.119 -1.1229 -0.7130  0.7903
 5022TIP3   OH215071   0.922   3.038   3.539  0.5459  0.4066  0.1142
 5022TIP3    H115072   0.997   2.979   3.542 -0.3766 -0.7849  0.3968
 5022TIP3    H215073   0.903   3.057   3.631 -0.4839 -0.6202  0.1381
 5023TIP3   OH215074   3.803   5.113   3.873  0.2565  0.4223  0.5867
 5023TIP3    H115075   3.747   5.189   3.887 -0.4485 -0.1122  0.7031
 5023TIP3    H215076   3.799   5.097   3.778  1.2281  1.1430  0.4074
 5024TIP3   OH215077   0.980   1.599   1.677 -0.4179  0.4681 -0.1233
 5024TIP3    H115078   0.961   1.692   1.680  0.3650  0.6373 -0.2148
 5024TIP3    H215079   0.931   1.562   1.751  1.3353  1.3440  1.5766
 5025TIP3   OH215080   0.338   5.161   1.086 -0.0981  0.0569 -0.4251
 5025TIP3    H115081   0.338   5.240   1.141 -0.5736 -0.4145  0.2779
 5025TIP3    H215082   0.395   5.100   1.132 -0.6225 -0.3989 -0.3818
 5026TIP3   OH215083   6.261   4.645   0.334  0.3721 -0.4975 -0.2354
 5026TIP3    H115084   6.320   4.607   0.269  0.5861 -2.3789  0.9614
 5026TIP3    H215085   6.175   4.645   0.292  0.8664  0.3315 -1.2651
 5027TIP3   OH215086   2.377   4.159   0.753  0.1725  0.4949 -0.0031
 5027TIP3    H115087   2.438   4.115   0.812  0.3623  1.0399  0.2104
 5027TIP3    H215088   2.431   4.220   0.702  0.0281 -0.0483 -0.8236
 5028TIP3   OH215089   0.402   3.458   4.931  0.1090 -0.3384  0.5438
 5028TIP3    H115090   0.328   3.516   4.917 -1.4918 -2.4997 -0.5100
 5028TIP3    H215091   0.465   3.483   4.863 -1.2127 -0.8046 -0.9145
 5029TIP3   OH215092   1.798   1.011   3.081  0.2827  0.2716  0.5265
 5029TIP3    H115093   1.728   0.946   3.075 -1.5992  2.1239  1.2831
 5029TIP3    H215094   1.877   0.959   3.098 -1.1492 -1.8033  1.2730
 5030TIP3   OH215095   0.309   5.544   2.377 -0.2046  0.0696 -0.3639
 5030TIP3    H115096   0.216   5.560   2.391 -0.2495  1.6250 -2.0587
 5030TIP3    H215097   0.329   5.587   2.294  1.8589 -0.9258 -0.4547
 5031TIP3   OH215098   5.293   2.072   3.932  0.4722 -0.0514  0.4225
 5031TIP3    H115099   5.351   2.009   3.890 -0.3088 -2.1716  2.2701
 5031TIP3    H215100   5.209   2.061   3.887  0.7950  1.0723 -0.4868
 5032TIP3   OH215101   5.695   2.887   4.497 -0.0836  0.1463 -0.0827
 5032TIP3    H115102   5.612   2.935   4.494  1.4726  3.0647 -0.5056
 5032TIP3    H215103   5.719   2.888   4.589 -0.2488 -0.2090 -0.0351
 5033TIP3   OH215104   0.196   3.131   1.090  0.0151 -0.1127 -0.3586
 5033TIP3    H115105   0.161   3.117   1.178 -0.8818  0.1826 -0.6540
 5033TIP3    H215106   0.271   3.072   1.084  0.8993  0.8400  1.0608
 5034TIP3   OH215107   5.735   1.791   1.058  0.0664  0.4003  0.4165
 5034TIP3    H115108   5.742   1.695   1.066 -0.8334 -0.1542 -3.4242
 5034TIP3    H215109   5.820   1.818   1.023  0.8327  1.3001  2.8266
 5035TIP3   OH215110   2.977   3.420   1.503  0.1393  0.1302 -0.0392
 5035TIP3    H115111   2.911   3.369   1.457  1.2118 -1.7937  0.4575
 5035TIP3    H215112   3.057   3.369   1.496  1.4807  2.1137 -0.1237
 5036TIP3   OH215113   4.518   4.940   1.657 -0.4847 -0.0104 -0.0328
 5036TIP3    H115114   4.452   5.007   1.642 -1.8986 -1.3281  0.0491
 5036TIP3    H215115   4.591   4.986   1.699 -0.2132  2.0127 -2.4507
 5037TIP3   OH215116   4.234   5.276   0.157  0.4280  0.2105  0.4202
 5037TIP3    H115117   4.187   5.238   0.231  1.0260  0.4999  0.9536
 5037TIP3    H215118   4.321   5.238   0.161  0.0400 -0.9459 -1.0413
 5038TIP3   OH215119   0.661   3.345   4.257 -0.1416 -0.1512  0.2375
 5038TIP3    H115120   0.738   3.306   4.217 -0.5122  0.7002 -1.3904
 5038TIP3    H215121   0.618   3.392   4.186 -2.4639 -1.0314  0.9780
 5039TIP3   OH215122   4.492   1.229   5.006  0.3513  0.3457 -0.2732
 5039TIP3    H115123   4.516   1.317   5.037  0.4366  0.2646 -0.1037
 5039TIP3    H215124   4.567   1.175   5.030 -0.0484  0.0617  0.3790
 5040TIP3   OH215125   1.717   1.245   3.508  0.6292 -0.1538 -0.5109
 5040TIP3    H115126   1.667   1.268   3.430  0.7840  2.1872  0.0303
 5040TIP3    H215127   1.725   1.326   3.557  2.7642 -1.0153  0.6977
 5041TIP3   OH215128   4.717   2.273   3.227 -0.7879 -0.2690  0.6668
 5041TIP3    H115129   4.720   2.364   3.199  2.2967 -0.8235 -1.2312
 5041TIP3    H215130   4.741   2.275   3.319  2.0778  0.7666  0.0086
 5042TIP3   OH215131   1.108   3.553   3.044  0.6440 -1.1129 -0.0558
 5042TIP3    H115132   1.061   3.494   3.103  0.6076 -1.3799 -0.3489
 5042TIP3    H215133   1.096   3.639   3.082  0.4176 -1.2553  0.1992
 5043TIP3   OH215134   2.571   4.329   4.736 -0.0284 -0.3322 -0.2179
 5043TIP3    H115135   2.568   4.420   4.705 -0.7733 -0.2473  0.0824
 5043TIP3    H215136   2.646   4.291   4.691  0.8095  0.6668  0.2948
 5044TIP3   OH215137   1.888   2.442   0.793  0.1156 -0.0618  0.5633
 5044TIP3    H115138   1.819   2.389   0.754  0.5348 -2.3129  2.6842
 5044TIP3    H215139   1.845   2.524   0.816 -1.0733 -0.2237 -0.8883
 5045TIP3   OH215140   5.556   3.746   0.432 -0.1565 -0.3165  0.2193
 5045TIP3    H115141   5.515   3.785   0.509  0.7874 -0.2018  0.6793
 5045TIP3    H215142   5.517   3.792   0.358  0.9025  1.5253  0.7494
 5046TIP3   OH215143   3.861   4.520   2.531  0.0013  0.2211  0.0045
 5046TIP3    H115144   3.955   4.539   2.539  0.5827 -1.6443 -1.7666
 5046TIP3    H215145   3.856   4.426   2.518 -2.2624  0.0689  1.3570
 5047TIP3   OH215146   5.205   2.164   0.079  0.2913 -0.6113 -0.1878
 5047TIP3    H115147   5.241   2.239   0.126  1.1857 -0.9526 -0.3178
 5047TIP3    H215148   5.280   2.124   0.034 -0.2641 -1.2543 -0.5780
 5048TIP3   OH215149   1.109   1.977   4.886  0.7420  0.1722  0.3333
 5048TIP3    H115150   1.135   1.891   4.853  0.6382 -0.0155  0.7348
 5048TIP3    H215151   1.082   1.961   4.976  1.4850  0.7571  0.6762
 5049TIP3   OH215152   1.246   0.880   1.735  0.8812  0.6567 -0.1720
 5049TIP3    H115153   1.249   0.963   1.688  2.5931  1.2094  0.7788
 5049TIP3    H215154   1.222   0.905   1.825  0.8670  0.0692 -0.0098
 5050TIP3   OH215155   3.476   0.566   4.669  0.1154  0.0534  0.3751
 5050TIP3    H115156   3.561   0.609   4.672 -1.0356  2.4520  1.5520
 5050TIP3    H215157   3.443   0.584   4.581  0.8816 -1.1110 -0.1768
 5051TIP3   OH215158   2.569   3.715   0.658  0.2391 -0.0578  0.0639
 5051TIP3    H115159   2.520   3.635   0.677  2.5941 -0.9901  3.0883
 5051TIP3    H215160   2.626   3.692   0.585  0.7344 -1.1383  0.7619
 5052TIP3   OH215161   3.635   3.331   1.855  0.4488 -0.7476  0.3936
 5052TIP3    H115162   3.604   3.258   1.909 -0.5812 -0.8475 -0.2903
 5052TIP3    H215163   3.730   3.324   1.856  0.3946 -3.7334 -1.7624
 5053TIP3   OH215164   4.125   2.770   2.221  0.0915 -0.2832  0.1190
 5053TIP3    H115165   4.108   2.850   2.271  1.2648 -0.8533  1.4944
 5053TIP3    H215166   4.150   2.705   2.287  1.2564 -1.1969 -1.1717
 5054TIP3   OH215167   3.797   2.826   5.081 -0.0355 -0.2413 -0.1370
 5054TIP3    H115168   3.839   2.740   5.091  1.2116  0.1415 -1.5411
 5054TIP3    H215169   3.865   2.888   5.107 -0.0264  0.3732 -1.5415
 5055TIP3   OH215170   3.427   2.962   1.704 -0.1897  0.2761 -0.2718
 5055TIP3    H115171   3.453   2.874   1.728  0.2582  0.5288  0.1759
 5055TIP3    H215172   3.475   2.981   1.624 -2.7338 -1.0990 -2.3059
 5056TIP3   OH215173   4.816   2.628   4.348 -0.2612 -0.0349 -0.0906
 5056TIP3    H115174   4.863   2.561   4.399  0.5229  1.5249  1.3643
 5056TIP3    H215175   4.724   2.602   4.354  0.0168 -0.9695  0.4392
 5057TIP3   OH215176   6.229   4.000   4.852 -0.5595 -0.6715 -0.6120
 5057TIP3    H115177   6.303   3.956   4.812  0.3094  0.2007  0.0015
 5057TIP3    H215178   6.157   3.936   4.845 -0.3073 -0.7804 -2.9451
 5058TIP3   OH215179   3.954   5.348   2.553  0.6603 -0.1056  0.1228
 5058TIP3    H115180   3.886   5.408   2.582  1.0786 -0.5277  2.0826
 5058TIP3    H215181   3.908   5.265   2.540  0.4691  0.0895 -0.4849
 5059TIP3   OH215182   3.004   1.399   0.739  0.2226 -0.1747  0.0521
 5059TIP3    H115183   2.981   1.325   0.682 -0.0954 -0.5215  0.6207
 5059TIP3    H215184   3.068   1.363   0.800 -1.1224 -0.4265  1.3555
 5060TIP3   OH215185   5.245   4.163   1.435 -0.0626  0.1117  0.3164
 5060TIP3    H115186   5.287   4.088   1.394 -2.3362 -0.9228 -0.2993
 5060TIP3    H215187   5.310   4.196   1.496  0.7299 -3.0079  1.3881
 5061TIP3   OH215188   4.251   3.107   2.689 -0.2331  0.0880 -0.3792
 5061TIP3    H115189   4.323   3.119   2.627  0.1747  0.2197  0.1116
 5061TIP3    H215190   4.281   3.149   2.769 -0.6913 -0.2137 -0.0420
 5062TIP3   OH215191   6.065   4.405   2.529 -0.2340 -0.3916 -0.3048
 5062TIP3    H115192   6.111   4.323   2.511 -0.9504 -1.0798  0.8346
 5062TIP3    H215193   5.974   4.379   2.542 -0.5178  0.6247 -0.1982
 5063TIP3   OH215194   1.827   5.721   2.374  0.5282  0.3518 -0.2997
 5063TIP3    H115195   1.741   5.681   2.386 -0.3472  1.8933 -1.0825
 5063TIP3    H215196   1.886   5.647   2.361 -0.2336 -0.8709  2.4679
 5064TIP3   OH215197   2.112   5.102   2.638 -0.0281  0.1682  0.0608
 5064TIP3    H115198   2.111   5.091   2.733  0.5781  1.4765  0.2408
 5064TIP3    H215199   2.085   5.017   2.603 -0.0681 -0.3819  1.3956
 5065TIP3   OH215200   3.525   2.132   1.556 -0.2036  0.2626  0.4749
 5065TIP3    H115201   3.489   2.172   1.635  0.9648 -1.2057  1.8241
 5065TIP3    H215202   3.459   2.067   1.530 -0.3954  0.4534  0.4819
 5066TIP3   OH215203   3.666   4.464   0.413 -0.5902 -0.4880  0.2886
 5066TIP3    H115204   3.596   4.516   0.375 -1.6549 -1.3466  1.0231
 5066TIP3    H215205   3.693   4.513   0.491  1.0725  0.8821 -1.0681
 5067TIP3   OH215206   1.108   0.458   3.961 -0.1996 -0.4044 -0.4956
 5067TIP3    H115207   1.065   0.468   3.876 -0.0468 -1.4237 -0.7071
 5067TIP3    H215208   1.193   0.500   3.950 -0.5303  0.2679 -0.5515
 5068TIP3   OH215209   4.084   4.370   0.499 -0.1146  0.0580  0.7722
 5068TIP3    H115210   3.988   4.377   0.498 -0.2157  0.9285 -3.6296
 5068TIP3    H215211   4.101   4.276   0.495 -1.0403 -0.0790 -2.3706
 5069TIP3   OH215212   2.672   0.174   3.958  0.2301 -0.2224 -0.6366
 5069TIP3    H115213   2.629   0.249   4.000  0.4064  0.3434 -1.4501
 5069TIP3    H215214   2.715   0.128   4.030 -0.5892 -0.0222 -0.0080
 5070TIP3   OH215215   0.235   2.605   3.080 -0.3061 -0.2542 -0.1442
 5070TIP3    H115216   0.283   2.522   3.087 -0.2463 -0.1897  0.2210
 5070TIP3    H215217   0.164   2.597   3.143  1.1958  0.9823  1.8348
 5071TIP3   OH215218   6.171   1.953   2.533  0.9074 -0.1164 -0.2384
 5071TIP3    H115219   6.114   1.992   2.599  0.3914 -0.2732 -0.5791
 5071TIP3    H215220   6.252   1.934   2.579  0.8373  0.5128  0.1509
 5072TIP3   OH215221   2.477   0.131   0.059 -0.4251 -0.1014  0.2764
 5072TIP3    H115222   2.495   0.041   0.032  1.8531  0.7631 -1.4691
 5072TIP3    H215223   2.506   0.135   0.150  0.0089 -1.0089  0.1883
 5073TIP3   OH215224   4.631   4.288   2.417 -0.3252  0.6782  0.2060
 5073TIP3    H115225   4.557   4.345   2.393  1.0020  2.6829  0.6328
 5073TIP3    H215226   4.615   4.265   2.508 -1.6563 -0.9707 -0.3984
 5074TIP3   OH215227   6.243   2.372   0.795 -0.2477  0.2138 -0.6314
 5074TIP3    H115228   6.337   2.385   0.806 -0.1458  0.5636 -1.7252
 5074TIP3    H215229   6.207   2.380   0.883  0.7375  0.1413 -0.2071
 5075TIP3   OH215230   1.607   0.117   3.495 -0.2327 -0.3551 -0.4372
 5075TIP3    H115231   1.530   0.071   3.529  1.8419 -3.2553  0.7630
 5075TIP3    H215232   1.631   0.069   3.415  1.8424 -1.3416  0.6925
 5076TIP3   OH215233   4.098   3.535   5.151 -0.1410 -0.0873  0.4705
 5076TIP3    H115234   4.188   3.567   5.138 -0.4889  0.5885 -0.3488
 5076TIP3    H215235   4.064   3.586   5.224 -0.3726  0.7606 -0.2168
 5077TIP3   OH215236   4.641   2.894   4.084 -0.7506  1.0179 -0.5602
 5077TIP3    H115237   4.622   2.968   4.142 -0.8291  1.5692 -1.2692
 5077TIP3    H215238   4.733   2.906   4.060 -1.2739  2.0377 -2.2390
 5078TIP3   OH215239   0.443   2.914   1.384 -0.1493  0.7212 -0.1006
 5078TIP3    H115240   0.354   2.878   1.385 -0.4497  1.4515  0.4446
 5078TIP3    H215241   0.468   2.915   1.292 -0.9988  1.2094 -0.3372
 5079TIP3   OH215242   4.527   4.527   3.145  0.8145  0.6053  0.1687
 5079TIP3    H115243   4.515   4.484   3.060 -1.7273 -0.2756  0.8971
 5079TIP3    H215244   4.605   4.485   3.182  0.3208 -1.0284 -0.5608
 5080TIP3   OH215245   3.891   1.157   4.356  0.0529 -0.4422  0.4132
 5080TIP3    H115246   3.858   1.147   4.267  1.2485  0.9898 -0.2232
 5080TIP3    H215247   3.985   1.139   4.350  0.7971  2.8042  0.6829
 5081TIP3   OH215248   4.610   5.095   1.421  0.0145 -0.2314 -0.4238
 5081TIP3    H115249   4.625   5.020   1.478  0.5577  1.2231  1.4553
 5081TIP3    H215250   4.527   5.132   1.451 -0.2447 -0.0605 -1.3184
 5082TIP3   OH215251   5.137   0.808   4.597  0.1324  0.1541 -0.3269
 5082TIP3    H115252   5.076   0.761   4.540  1.2683 -1.5427 -0.2003
 5082TIP3    H215253   5.082   0.869   4.646 -1.4340 -1.1593 -0.3793
 5083TIP3   OH215254   0.514   0.902   4.274 -0.1955 -0.4892 -0.0912
 5083TIP3    H115255   0.587   0.889   4.213  0.8695 -0.9554  1.2412
 5083TIP3    H215256   0.439   0.864   4.229  0.4697 -0.4274 -1.2968
 5084TIP3   OH215257   5.038   3.131   1.771  0.1664 -0.0217  0.1840
 5084TIP3    H115258   5.090   3.140   1.691  0.5588  0.6171  0.5062
 5084TIP3    H215259   5.102   3.112   1.839 -0.1450 -0.3565  0.3877
 5085TIP3   OH215260   4.043   0.836   3.429 -0.5775 -0.1566  0.3435
 5085TIP3    H115261   3.965   0.815   3.481 -1.2595 -0.7192 -0.8591
 5085TIP3    H215262   4.116   0.823   3.489 -1.2962 -1.3067  1.0180
 5086TIP3   OH215263   1.149   2.872   1.902  0.2521  0.1383  0.5256
 5086TIP3    H115264   1.236   2.852   1.937  0.5340 -1.6680 -1.0909
 5086TIP3    H215265   1.099   2.792   1.915  0.1299 -0.3416 -2.3783
 5087TIP3   OH215266   5.397   2.940   4.491 -0.0109 -0.3289  0.3840
 5087TIP3    H115267   5.325   2.930   4.554 -1.5499  3.1872 -0.5446
 5087TIP3    H215268   5.359   2.912   4.408 -1.0487  3.0652 -0.4172
 5088TIP3   OH215269   3.077   2.705   4.291 -0.8328  0.0829  0.5099
 5088TIP3    H115270   3.170   2.722   4.305 -0.2153 -0.4692 -2.3512
 5088TIP3    H215271   3.064   2.615   4.321 -0.0245 -0.4338 -0.6344
 5089TIP3   OH215272   2.687   5.769   4.396  0.6341 -0.4823 -0.1184
 5089TIP3    H115273   2.745   5.806   4.463 -0.9007  1.0964  0.4119
 5089TIP3    H215274   2.745   5.755   4.320  2.0076 -0.4511  0.8793
 5090TIP3   OH215275   3.231   1.961   4.111 -0.2758  0.1536  0.0199
 5090TIP3    H115276   3.324   1.943   4.125 -0.4488  0.5356  1.8420
 5090TIP3    H215277   3.194   1.966   4.199 -1.7656  1.3425 -0.6332
 5091TIP3   OH215278   4.934   3.514   1.964  0.7991 -0.4926  0.2682
 5091TIP3    H115279   4.938   3.458   1.886 -0.8487 -0.5276  0.1819
 5091TIP3    H215280   4.872   3.583   1.942 -0.5106 -1.0779  1.8726
 5092TIP3   OH215281   4.491   3.748   1.733  0.0893 -0.4267  0.3795
 5092TIP3    H115282   4.517   3.780   1.647 -0.6710  0.5980  0.5185
 5092TIP3    H215283   4.406   3.707   1.718 -0.1928  0.0385  0.6939
 5093TIP3   OH215284   3.960   2.510   4.447  0.1010  0.5392 -0.7037
 5093TIP3    H115285   3.933   2.499   4.538  0.8011 -0.1857 -0.5639
 5093TIP3    H215286   3.960   2.604   4.432  1.6193  0.7897  0.5891
 5094TIP3   OH215287   1.298   3.355   2.506 -0.0311  0.5094  0.0295
 5094TIP3    H115288   1.227   3.393   2.558 -2.7651 -1.5552 -1.9373
 5094TIP3    H215289   1.312   3.417   2.434 -1.9727 -0.3971 -1.1912
 5095TIP3   OH215290   5.429   3.746   4.783 -0.3667 -0.4191  0.5294
 5095TIP3    H115291   5.484   3.791   4.847  1.7464 -1.1290 -0.6686
 5095TIP3    H215292   5.491   3.698   4.728 -2.2956 -2.1931 -0.2435
 5096TIP3   OH215293   3.672   3.125   0.360 -0.0878 -0.1614  0.5582
 5096TIP3    H115294   3.595   3.181   0.353 -0.2116 -0.4635 -0.7361
 5096TIP3    H215295   3.673   3.096   0.451 -2.4627 -1.4887  0.2280
 5097TIP3   OH215296   0.979   4.357   2.592  0.1756  0.2950  0.5089
 5097TIP3    H115297   1.046   4.298   2.557  0.0960  1.6553 -2.1961
 5097TIP3    H215298   1.027   4.434   2.621 -0.1268  1.1482 -1.1570
 5098TIP3   OH215299   1.288   5.159   0.632  0.6897  0.1970  0.7718
 5098TIP3    H115300   1.231   5.189   0.702 -1.8509 -1.1674 -0.5648
 5098TIP3    H215301   1.313   5.070   0.656 -0.3085 -0.3314 -0.0346
 5099TIP3   OH215302   5.655   0.510   2.582 -0.0961 -0.0863 -0.1777
 5099TIP3    H115303   5.698   0.464   2.654 -0.6034  0.3909  0.4408
 5099TIP3    H215304   5.716   0.503   2.509  1.7449  1.8413  1.0771
 5100TIP3   OH215305   0.357   1.619   0.982 -0.4797 -0.0843  0.6452
 5100TIP3    H115306   0.264   1.609   0.960 -0.1998  0.3411 -0.8347
 5100TIP3    H215307   0.379   1.706   0.950  0.9805 -1.0536 -1.1773
 5101TIP3   OH215308   1.981   3.945   2.019  0.4704 -0.0345 -0.0504
 5101TIP3    H115309   2.013   3.988   1.940 -0.9519  1.5400  0.1601
 5101TIP3    H215310   2.001   3.852   2.006  0.5960  0.2319 -2.1031
 5102TIP3   OH215311   0.676   2.266   2.079  0.3175 -0.2302 -0.1887
 5102TIP3    H115312   0.651   2.197   2.141  0.9529 -0.4901 -0.2150
 5102TIP3    H215313   0.593   2.305   2.052 -0.0430 -0.8891 -0.0569
 5103TIP3   OH215314   1.745   1.034   0.830  0.2620  0.8724 -0.0356
 5103TIP3    H115315   1.676   1.034   0.763 -1.1203  0.0041  1.3103
 5103TIP3    H215316   1.770   0.942   0.838  0.6460  1.0162  0.4051
 5104TIP3   OH215317   4.947   1.630   1.892 -0.5451  0.3806  0.0674
 5104TIP3    H115318   4.962   1.717   1.856 -1.8007  0.9591  0.8773
 5104TIP3    H215319   4.908   1.580   1.820  0.5181  0.3480 -0.5102
 5105TIP3   OH215320   1.994   2.612   2.391 -0.0212 -0.4913  0.0731
 5105TIP3    H115321   2.010   2.550   2.462  2.0917  1.1702  1.1845
 5105TIP3    H215322   1.989   2.558   2.312 -0.9375 -2.2549  1.2830
 5106TIP3   OH215323   5.360   0.948   2.098 -0.5482 -0.4683 -0.1037
 5106TIP3    H115324   5.373   0.861   2.137 -0.1727 -0.6015 -0.5264
 5106TIP3    H215325   5.284   0.936   2.041  1.2033 -1.2764 -2.3830
 5107TIP3   OH215326   0.065   1.006   0.072  0.3138 -0.2664  0.0567
 5107TIP3    H115327   0.137   1.031   0.131  2.1511 -0.0714 -2.1123
 5107TIP3    H215328   0.107   0.995  -0.013 -1.5138 -4.2153 -0.5673
 5108TIP3   OH215329   3.697   0.810   4.922 -0.0091 -0.2828  0.2172
 5108TIP3    H115330   3.656   0.735   4.964  0.4972  0.6978  2.7007
 5108TIP3    H215331   3.631   0.844   4.862 -0.4781 -2.2934 -0.4540
 5109TIP3   OH215332   0.762   5.010   3.108  0.2174 -0.2535 -0.0915
 5109TIP3    H115333   0.800   4.981   3.025 -0.9597  0.0281 -0.7571
 5109TIP3    H215334   0.780   4.938   3.168  1.3965 -0.3074 -0.4823
 5110TIP3   OH215335   3.725   3.881   3.925  0.3654  0.1586 -0.1467
 5110TIP3    H115336   3.723   3.936   4.003 -1.6927  1.3905 -0.9915
 5110TIP3    H215337   3.809   3.835   3.930  1.5061  2.2481  1.3896
 5111TIP3   OH215338   5.333   0.989   1.588 -0.0589  0.3323  0.5332
 5111TIP3    H115339   5.355   1.046   1.514  2.7483  1.8295  2.2845
 5111TIP3    H215340   5.405   0.926   1.592 -1.0269 -0.7713  1.0247
 5112TIP3   OH215341   4.666   5.207   0.653  0.3099  0.4164 -0.0367
 5112TIP3    H115342   4.575   5.227   0.672  0.6612  0.8929  1.2708
 5112TIP3    H215343   4.695   5.152   0.726  1.0108  0.1095 -0.5325
 5113TIP3   OH215344   5.379   3.170   4.344  0.2754 -0.3298  0.4713
 5113TIP3    H115345   5.320   3.174   4.269 -1.1335  0.5165  1.5741
 5113TIP3    H215346   5.356   3.089   4.389  2.5769 -1.9728 -1.0780
 5114TIP3   OH215347   3.412   3.052   1.292  0.1953 -0.4508 -0.2463
 5114TIP3    H115348   3.436   3.057   1.200 -1.9192  1.0733 -0.7986
 5114TIP3    H215349   3.321   3.083   1.295 -0.6537 -2.7620  2.0260
 5115TIP3   OH215350   5.038   2.850   1.690 -0.4845 -0.1828 -0.4807
 5115TIP3    H115351   5.004   2.935   1.661 -2.0330 -0.9829 -1.1784
 5115TIP3    H215352   5.027   2.851   1.785  0.4618  0.7688 -0.3669
 5116TIP3   OH215353   2.422   3.040   3.701  0.5601  0.3231 -0.4383
 5116TIP3    H115354   2.388   3.003   3.620  0.5613 -1.1287  0.1957
 5116TIP3    H215355   2.493   2.982   3.726  0.1694  0.3982  0.9100
 5117TIP3   OH215356   0.170   4.164   1.970  0.0412 -0.1979 -0.0089
 5117TIP3    H115357   0.170   4.198   1.881 -1.0223  0.7829  0.3443
 5117TIP3    H215358   0.166   4.242   2.025  0.4700 -0.8016  0.9060
 5118TIP3   OH215359   6.250   1.781   4.917 -0.3877  0.5946 -0.3235
 5118TIP3    H115360   6.155   1.784   4.928 -0.2482  0.7045  1.0302
 5118TIP3    H215361   6.284   1.837   4.987  0.7739 -1.9704  1.3308
 5119TIP3   OH215362   1.880   4.488   4.098  0.3913  0.2218  0.4661
 5119TIP3    H115363   1.890   4.399   4.133  2.5220  0.9537  1.9953
 5119TIP3    H215364   1.794   4.516   4.128 -0.6562 -1.5538 -0.7077
 5120TIP3   OH215365   5.061   1.271   0.791 -0.0273  0.1656 -0.0397
 5120TIP3    H115366   5.036   1.278   0.699 -0.7650  0.9368  0.2047
 5120TIP3    H215367   5.084   1.179   0.803  0.1198  0.0671 -1.0016
 5121TIP3   OH215368   6.087   4.835   3.606  0.0926  0.3978 -0.2516
 5121TIP3    H115369   6.034   4.833   3.686  0.3132 -0.5090 -0.1222
 5121TIP3    H215370   6.129   4.749   3.602  0.4593  0.6027 -1.0965
 5122TIP3   OH215371   4.556   0.515   4.729 -0.0047 -0.3810 -0.7100
 5122TIP3    H115372   4.537   0.573   4.803 -1.8440 -1.9683  0.1383
 5122TIP3    H215373   4.634   0.467   4.756 -0.3837 -0.6055  0.0227
 5123TIP3   OH215374   4.841   3.387   2.836 -0.3992  0.5082 -0.5002
 5123TIP3    H115375   4.875   3.370   2.924  1.5465 -0.4498 -1.3703
 5123TIP3    H215376   4.815   3.301   2.804 -0.2442  0.7192 -1.1892
 5124TIP3   OH215377   1.836   2.426   3.229  0.5622  0.1089  0.2255
 5124TIP3    H115378   1.825   2.331   3.230 -2.6760  0.3429 -1.0478
 5124TIP3    H215379   1.874   2.445   3.144  1.2147 -0.0408  0.4817
 5125TIP3   OH215380   4.824   4.445   2.795  0.4359 -0.2506 -0.4018
 5125TIP3    H115381   4.813   4.377   2.862  0.3405  0.3798  0.2334
 5125TIP3    H215382   4.917   4.464   2.795  0.4027 -0.0830 -0.2746
 5126TIP3   OH215383   2.747   5.859   0.774 -0.3801  0.5975 -0.0978
 5126TIP3    H115384   2.795   5.802   0.834  1.5668  1.5121 -0.7234
 5126TIP3    H215385   2.748   5.813   0.690  1.6111  1.6921 -0.7237
 5127TIP3   OH215386   2.989   4.615   4.351 -0.1639  0.2538  0.2048
 5127TIP3    H115387   3.066   4.650   4.395  1.3029 -2.9001  0.3976
 5127TIP3    H215388   3.023   4.566   4.277 -1.8640 -1.9651  0.7832
 5128TIP3   OH215389   4.941   1.038   1.077  0.1309  0.0779 -0.2245
 5128TIP3    H115390   4.894   1.087   1.009 -0.7136 -1.4060 -0.7577
 5128TIP3    H215391   4.928   1.088   1.157  2.2744  2.6131 -1.3224
 5129TIP3   OH215392   3.774   2.888   3.873 -0.6225 -0.4630  1.0013
 5129TIP3    H115393   3.784   2.841   3.790 -0.3844 -0.4148  1.0037
 5129TIP3    H215394   3.681   2.880   3.894 -1.8235  3.4539 -1.6596
 5130TIP3   OH215395   5.255   1.109   0.501 -0.5192 -0.2195 -0.2047
 5130TIP3    H115396   5.182   1.098   0.562  0.0316  3.1518  1.2624
 5130TIP3    H215397   5.316   1.039   0.523 -2.2171 -1.6263  0.1933
 5131TIP3   OH215398   3.450   5.806   3.182 -0.0205  0.0654 -0.1651
 5131TIP3    H115399   3.355   5.805   3.192 -0.0656 -0.0028 -0.5565
 5131TIP3    H215400   3.481   5.867   3.248  0.0786 -3.2731  3.1737
 5132TIP3   OH215401   0.472   2.784   3.037 -0.5040  0.3022 -0.6065
 5132TIP3    H115402   0.552   2.748   2.997  0.4629 -0.6448  1.9815
 5132TIP3    H215403   0.413   2.709   3.043 -0.3554  0.2567  0.3647
 5133TIP3   OH215404   2.661   0.619   3.563  0.4371  0.1798 -0.1176
 5133TIP3    H115405   2.701   0.577   3.639 -0.7511  1.4090  1.2427
 5133TIP3    H215406   2.698   0.572   3.488 -0.8900 -3.3771  1.2614
 5134TIP3   OH215407   5.149   2.128   4.582 -0.1580 -0.0938  0.1325
 5134TIP3    H115408   5.200   2.047   4.575 -0.3324 -0.1766 -0.1967
 5134TIP3    H215409   5.061   2.103   4.555 -0.5230 -0.0952  1.2761
 5135TIP3   OH215410   4.328   0.843   2.431  0.2123 -0.1236  0.4400
 5135TIP3    H115411   4.275   0.920   2.413 -0.3482 -0.4672  0.6069
 5135TIP3    H215412   4.356   0.813   2.344  2.2581  1.5073  0.4602
 5136TIP3   OH215413   0.866   0.686   4.820  0.1206 -0.0021  0.2519
 5136TIP3    H115414   0.859   0.778   4.793  1.6182  0.0707  0.0562
 5136TIP3    H215415   0.868   0.637   4.738 -2.5930 -0.4384  0.3367
 5137TIP3   OH215416   1.635   1.096   2.545 -0.0006  0.3345  0.4020
 5137TIP3    H115417   1.623   1.054   2.630  0.3893 -0.2627  0.1679
 5137TIP3    H215418   1.558   1.071   2.495  0.4138 -0.4548  0.1308
 5138TIP3   OH215419   3.465   0.836   0.741  0.5049 -0.4105 -0.1379
 5138TIP3    H115420   3.402   0.881   0.798  0.0250 -2.3955  0.9983
 5138TIP3    H215421   3.546   0.884   0.752 -0.5474  1.6455 -0.9070
 5139TIP3   OH215422   1.251   4.116   3.539 -0.0695  0.1672 -0.1646
 5139TIP3    H115423   1.162   4.151   3.534 -0.6187 -0.9884  0.8691
 5139TIP3    H215424   1.307   4.188   3.511 -1.3661  0.6835 -1.5560
 5140TIP3   OH215425   6.306   5.559   3.512 -0.6717 -0.1841  0.0798
 5140TIP3    H115426   6.308   5.651   3.539 -0.7543  0.0019 -0.5389
 5140TIP3    H215427   6.213   5.541   3.496 -0.5424 -0.0805 -0.7972
 5141TIP3   OH215428   0.497   2.172   4.471  0.1936 -0.0174 -0.0986
 5141TIP3    H115429   0.512   2.224   4.550  1.8429 -0.0753 -0.3540
 5141TIP3    H215430   0.403   2.182   4.455  0.0623  1.0750  1.1118
 5142TIP3   OH215431   6.188   1.666   3.018  0.2519 -0.0561  0.2816
 5142TIP3    H115432   6.192   1.697   2.928  0.2118 -0.1282  0.2546
 5142TIP3    H215433   6.202   1.744   3.071  2.6397 -0.3414  0.2035
 5143TIP3   OH215434   2.785   4.414   1.860 -0.0635  0.7610 -0.2809
 5143TIP3    H115435   2.786   4.478   1.932  0.3040 -0.0334  0.4444
 5143TIP3    H215436   2.875   4.411   1.829 -0.1714  0.9185 -0.6161
 5144TIP3   OH215437   5.991   5.993   1.875  0.1496  0.5916 -0.3461
 5144TIP3    H115438   5.916   5.934   1.869  0.0373  0.7594 -0.6077
 5144TIP3    H215439   5.993   6.020   1.967 -0.1688  0.6648 -0.3595
 5145TIP3   OH215440   3.449   5.292   4.231 -0.3463  0.1103  0.0887
 5145TIP3    H115441   3.538   5.256   4.236 -0.7707 -0.8664  0.9579
 5145TIP3    H215442   3.450   5.346   4.152  0.7399 -0.6755 -0.4661
 5146TIP3   OH215443   0.099   5.802   0.523  0.0444 -0.4154 -0.3655
 5146TIP3    H115444   0.006   5.790   0.544 -1.0282  0.7276 -3.7211
 5146TIP3    H215445   0.119   5.890   0.555 -0.5024 -0.0622 -0.9757
 5147TIP3   OH215446   3.688   5.656   3.387 -0.0718 -0.1879 -0.4978
 5147TIP3    H115447   3.669   5.717   3.458  0.7387 -0.4578 -0.0345
 5147TIP3    H215448   3.630   5.581   3.403  0.6413 -0.5803  0.3359
 5148TIP3   OH215449   1.895   3.939   3.806 -0.0462 -0.4875 -0.0413
 5148TIP3    H115450   1.971   3.895   3.843 -0.1424 -0.4231  0.2390
 5148TIP3    H215451   1.923   4.030   3.794 -0.6507 -0.0036  1.8386
 5149TIP3   OH215452   0.273   3.368   4.676  0.1515 -0.4761  0.1722
 5149TIP3    H115453   0.207   3.355   4.608 -0.2112  2.1356 -0.0646
 5149TIP3    H215454   0.305   3.457   4.662  1.9328 -0.7862  1.8512
 5150TIP3   OH215455   0.250   5.921   2.449  0.6448 -0.1038  0.2635
 5150TIP3    H115456   0.343   5.929   2.430  0.8027  0.3081  1.1435
 5150TIP3    H215457   0.246   5.916   2.545 -0.3309  1.2314  0.3179
 5151TIP3   OH215458   0.048   3.715   1.581 -0.1954  0.2427 -0.5316
 5151TIP3    H115459   0.118   3.779   1.572 -0.7112  0.8103 -0.5898
 5151TIP3    H215460   0.009   3.733   1.666 -0.1427 -0.2026 -0.4103
 5152TIP3   OH215461   3.724   0.064   2.630  0.4450  0.6403  0.6820
 5152TIP3    H115462   3.799   0.034   2.680 -0.5950 -0.9924  1.3378
 5152TIP3    H215463   3.700  -0.011   2.575 -0.4551  1.2590  0.1996
 5153TIP3   OH215464   5.965   2.212   0.097  0.1615 -0.1359  0.6335
 5153TIP3    H115465   6.040   2.209   0.156  0.0431  1.2160  0.8788
 5153TIP3    H215466   5.996   2.171   0.016  1.4912  1.2575  0.3872
 5154TIP3   OH215467   2.412   3.833   0.099  0.2264  0.0215  0.3616
 5154TIP3    H115468   2.412   3.924   0.127  0.8443 -0.0550  0.6531
 5154TIP3    H215469   2.414   3.836   0.003  0.7854  0.3255  0.3787
 5155TIP3   OH215470   1.770   5.134   0.352  0.1747 -0.3978  0.0576
 5155TIP3    H115471   1.676   5.124   0.361  0.0290  0.3892 -0.4961
 5155TIP3    H215472   1.794   5.079   0.278  0.0701 -0.1894 -0.1311
 5156TIP3   OH215473   3.603   2.832   2.362  0.4384  0.5421 -0.1070
 5156TIP3    H115474   3.632   2.914   2.403 -0.3157  0.9938 -0.4433
 5156TIP3    H215475   3.673   2.810   2.302  0.1024  1.6371 -0.9425
 5157TIP3   OH215476   0.252   2.282   3.980 -0.0400  0.2158  0.6648
 5157TIP3    H115477   0.248   2.294   3.885  2.6424 -0.6378  0.3578
 5157TIP3    H215478   0.231   2.368   4.015 -1.8051  0.3721 -0.6381
 5158TIP3   OH215479   6.184   1.133   2.140  0.0049  0.0526 -0.1521
 5158TIP3    H115480   6.251   1.143   2.209  0.5611 -1.5468 -0.4328
 5158TIP3    H215481   6.214   1.059   2.087 -2.2618 -1.0675  0.0109
 5159TIP3   OH215482   5.174   1.073   0.077  0.6042 -0.0749  0.0717
 5159TIP3    H115483   5.184   1.011   0.005 -0.6757  0.2788 -0.4367
 5159TIP3    H215484   5.112   1.138   0.045 -2.0396 -1.2778  2.3013
 5160TIP3   OH215485   4.717   2.105   4.439  0.4839 -0.4897  0.3042
 5160TIP3    H115486   4.729   2.135   4.530  1.1205  1.6456 -0.4331
 5160TIP3    H215487   4.778   2.158   4.388 -0.7094 -0.8206 -1.5383
 5161TIP3   OH215488   0.542   5.933   0.718 -0.0809 -0.2145 -0.3406
 5161TIP3    H115489   0.537   5.935   0.622 -2.2078 -1.5204 -0.3293
 5161TIP3    H215490   0.536   5.840   0.740 -1.2511  0.1707  1.1006
 5162TIP3   OH215491   1.802   4.815   2.781  0.3549  0.3192  0.4395
 5162TIP3    H115492   1.751   4.735   2.787 -0.3159  0.5024 -1.8977
 5162TIP3    H215493   1.892   4.787   2.800 -0.1371 -0.5523  1.6692
 5163TIP3   OH215494   2.845   1.115   1.523  0.0221  0.0025  0.3097
 5163TIP3    H115495   2.868   1.063   1.600  1.0083 -0.5364 -0.3263
 5163TIP3    H215496   2.753   1.094   1.506  0.7262 -2.6575 -0.7234
 5164TIP3   OH215497   3.472   5.370   4.667  0.1760 -0.1043 -0.3863
 5164TIP3    H115498   3.502   5.402   4.751 -0.9754 -0.7139  0.2831
 5164TIP3    H215499   3.419   5.441   4.631  0.4788  0.0680 -0.4929
 5165TIP3   OH215500   3.755   5.142   2.584 -0.0391 -0.6242 -0.3492
 5165TIP3    H115501   3.791   5.080   2.647 -2.3866 -2.7106 -0.9173
 5165TIP3    H215502   3.727   5.088   2.510 -0.4180  1.3668 -1.7357
 5166TIP3   OH215503   4.698   3.361   1.580 -0.3763 -0.0070  0.5432
 5166TIP3    H115504   4.611   3.322   1.572  0.4879 -1.9851  0.1393
 5166TIP3    H215505   4.738   3.346   1.494  0.7716 -0.2167  1.0999
 5167TIP3   OH215506   4.484   3.201   1.266  0.0234 -0.3885 -0.1837
 5167TIP3    H115507   4.481   3.198   1.362 -2.1366 -0.5469 -0.2061
 5167TIP3    H215508   4.510   3.291   1.246 -0.4579 -0.0733  0.5600
 5168TIP3   OH215509   1.619   4.802   1.841  0.0069  0.0719 -0.1305
 5168TIP3    H115510   1.530   4.776   1.818 -0.2764 -0.6536  1.6321
 5168TIP3    H215511   1.635   4.762   1.927  1.9796  0.3142 -0.3258
 5169TIP3   OH215512   6.024   0.970   0.949  0.1093  0.4326  0.4214
 5169TIP3    H115513   6.023   1.057   0.909 -0.9143  0.2552  0.0306
 5169TIP3    H215514   6.050   0.911   0.878 -1.4433  0.1524  0.0443
 5170TIP3   OH215515   3.291   0.496   1.791  0.2759  0.1151  0.1567
 5170TIP3    H115516   3.253   0.424   1.741 -1.9831  1.0527  0.4029
 5170TIP3    H215517   3.261   0.575   1.746 -0.3130  0.9472  1.9087
 5171TIP3   OH215518   5.038   1.676   4.705  0.2463 -0.1386 -0.0209
 5171TIP3    H115519   4.999   1.673   4.618 -0.1752 -1.1596  0.1879
 5171TIP3    H215520   5.057   1.584   4.727 -1.3102 -0.1368  1.6670
 5172TIP3   OH215521   5.841   2.875   3.314  0.1766  0.2167  0.4342
 5172TIP3    H115522   5.797   2.921   3.243 -0.1910 -1.6682 -0.6257
 5172TIP3    H215523   5.774   2.867   3.383 -0.5244 -0.7891 -0.3326
 5173TIP3   OH215524   3.489   4.950   4.273 -0.0775 -0.1486  0.4833
 5173TIP3    H115525   3.487   4.963   4.367  1.6478  0.3473  0.4755
 5173TIP3    H215526   3.445   4.866   4.259  1.0566 -1.0001  1.8792
 5174TIP3   OH215527   4.284   0.460   0.849  0.1580  0.5016  0.5264
 5174TIP3    H115528   4.227   0.385   0.833 -0.9335  1.2268  0.8796
 5174TIP3    H215529   4.296   0.462   0.944  1.1345  0.1192  0.4293
 5175TIP3   OH215530   0.875   0.930   4.741  0.0523 -0.1114  0.3821
 5175TIP3    H115531   0.952   0.966   4.696  0.1024  0.6187  1.0245
 5175TIP3    H215532   0.837   1.005   4.787 -0.6736 -0.6013  0.5958
 5176TIP3   OH215533   5.283   2.646   3.379  0.0910  0.7816 -0.3619
 5176TIP3    H115534   5.228   2.603   3.445  0.0132  1.1969 -0.1467
 5176TIP3    H215535   5.370   2.609   3.393 -0.4779 -1.3068 -1.9735
 5177TIP3   OH215536   5.699   3.954   2.322 -0.3644  0.1405 -0.1032
 5177TIP3    H115537   5.666   3.865   2.336 -0.9757  0.3603 -0.1158
 5177TIP3    H215538   5.716   3.987   2.411  0.6865 -0.2779 -0.1248
 5178TIP3   OH215539   4.282   1.218   3.163 -0.3214  0.4075  0.6927
 5178TIP3    H115540   4.352   1.283   3.159 -0.7156  0.9091  1.5345
 5178TIP3    H215541   4.327   1.134   3.166  0.1769  0.4989 -1.9139
 5179TIP3   OH215542   5.467   1.360   2.930  0.0798 -0.6627 -0.2167
 5179TIP3    H115543   5.395   1.362   2.993 -1.3769 -0.6956 -1.7999
 5179TIP3    H215544   5.540   1.403   2.975 -0.2621 -2.3687  2.1601
 5180TIP3   OH215545   4.911   4.912   3.480 -0.1042  0.2712  0.4827
 5180TIP3    H115546   4.856   4.981   3.444 -0.3075 -0.1003  0.0582
 5180TIP3    H215547   4.958   4.953   3.553  0.6205  1.1730 -0.4512
 5181TIP3   OH215548   5.504   3.388   1.098  0.1649 -0.6526  0.1680
 5181TIP3    H115549   5.517   3.310   1.151  0.0634  0.4195  1.8556
 5181TIP3    H215550   5.566   3.379   1.025  0.8988 -1.7912  0.9085
 5182TIP3   OH215551   3.526   3.822   0.375 -0.3909  0.3144  0.1664
 5182TIP3    H115552   3.594   3.881   0.408 -0.0231 -0.9418  1.7959
 5182TIP3    H215553   3.444   3.869   0.392 -0.0018  1.5244 -1.1327
 5183TIP3   OH215554   1.159   0.222   3.824 -0.4446 -0.1659 -0.1096
 5183TIP3    H115555   1.155   0.300   3.879  1.3140 -0.2341  0.1637
 5183TIP3    H215556   1.197   0.252   3.741  0.9366 -0.8367  0.2532
 5184TIP3   OH215557   4.898   3.895   1.533 -0.7228 -0.6847 -0.9007
 5184TIP3    H115558   4.917   3.947   1.611  1.6176 -0.0215 -1.8255
 5184TIP3    H215559   4.909   3.804   1.562  1.4728 -0.4139 -0.6845
 5185TIP3   OH215560   4.495   5.127   2.218 -0.0609 -0.6557 -0.3843
 5185TIP3    H115561   4.572   5.144   2.272  0.3856 -2.3314 -0.4400
 5185TIP3    H215562   4.457   5.046   2.254 -1.6934  0.0236 -0.4779
 5186TIP3   OH215563   1.253   5.808   4.119  0.0793 -0.1671 -0.0528
 5186TIP3    H115564   1.235   5.719   4.088 -1.5186  0.3359 -0.6772
 5186TIP3    H215565   1.304   5.848   4.048 -2.4842  0.5787 -1.6100
 5187TIP3   OH215566   1.365   4.066   2.456 -0.1847 -0.0923  0.0788
 5187TIP3    H115567   1.409   4.151   2.458 -0.2610 -0.0381 -0.4727
 5187TIP3    H215568   1.328   4.057   2.544  2.2164 -0.8310  1.1188
 5188TIP3   OH215569   1.012   2.604   1.879 -0.2818  0.1515 -0.1005
 5188TIP3    H115570   1.058   2.522   1.865  0.5741  0.3902  1.1195
 5188TIP3    H215571   0.929   2.578   1.920 -0.1211 -0.1290  0.0514
 5189TIP3   OH215572   3.032   0.733   2.179 -0.4500  0.1085  0.7275
 5189TIP3    H115573   3.093   0.775   2.240  0.8895  0.2676 -0.6573
 5189TIP3    H215574   3.089   0.689   2.115 -1.7619  1.1396 -1.2435
 5190TIP3   OH215575   4.082   4.151   4.349 -0.0728  0.1386 -0.0166
 5190TIP3    H115576   4.037   4.179   4.428 -0.7788  0.2391 -0.4473
 5190TIP3    H215577   4.068   4.056   4.346 -0.1909  0.1584 -0.1084
 5191TIP3   OH215578   5.946   2.599   5.020 -0.4981  0.2040  0.7112
 5191TIP3    H115579   5.900   2.567   4.942  0.3430  1.7527 -0.4720
 5191TIP3    H215580   5.991   2.521   5.054  0.8700 -0.1595 -1.6313
 5192TIP3   OH215581   2.367   1.056   3.652  0.7292  0.0192  0.0836
 5192TIP3    H115582   2.356   1.065   3.557  0.6544 -0.6472  0.0263
 5192TIP3    H215583   2.437   0.992   3.662  2.1209  1.5286  0.4746
 5193TIP3   OH215584   3.904   3.642   0.999  0.8139  0.9130  0.3768
 5193TIP3    H115585   3.977   3.704   0.992  1.2868  0.3358  0.0772
 5193TIP3    H215586   3.938   3.562   0.960 -0.4099  0.9948 -0.8958
 5194TIP3   OH215587   1.490   4.075   4.407  0.0473 -0.4947  0.2053
 5194TIP3    H115588   1.570   4.023   4.397 -0.2316 -1.5800  2.8547
 5194TIP3    H215589   1.453   4.046   4.490 -0.4374  3.5774  1.6294
 5195TIP3   OH215590   2.698   0.360   4.207 -0.0175 -0.2873 -0.5535
 5195TIP3    H115591   2.714   0.450   4.234  1.0910  0.0544 -2.2247
 5195TIP3    H215592   2.605   0.346   4.225 -0.4017  1.4629 -1.0513
 5196TIP3   OH215593   5.733   5.672   5.124 -0.0572 -0.1042  0.2096
 5196TIP3    H115594   5.708   5.648   5.034 -0.9075 -0.9039  0.6476
 5196TIP3    H215595   5.679   5.748   5.144  0.1451  0.0859  0.0498
 5197TIP3   OH215596   0.093   2.469   5.029 -0.2534  0.1553  0.3508
 5197TIP3    H115597   0.042   2.415   4.968 -0.1271  1.1195 -0.6574
 5197TIP3    H215598   0.032   2.489   5.100 -0.0093 -2.0700  1.2420
 5198TIP3   OH215599   0.728   2.550   1.086 -1.0485 -0.1913  0.3543
 5198TIP3    H115600   0.695   2.543   1.175 -2.9196 -0.9333 -0.3455
 5198TIP3    H215601   0.669   2.611   1.042 -0.1658  0.1548 -0.4052
 5199TIP3   OH215602   3.520   5.184   2.733 -0.2091 -0.2913 -0.3667
 5199TIP3    H115603   3.494   5.262   2.684  0.3759  0.3456  0.3113
 5199TIP3    H215604   3.609   5.165   2.702  0.7522  0.9774  1.4160
 5200TIP3   OH215605   0.957   5.858   2.709 -0.0061 -0.2962  0.2791
 5200TIP3    H115606   0.897   5.784   2.695 -0.3304  0.0565 -0.2182
 5200TIP3    H215607   1.042   5.825   2.679 -0.5970  0.2994 -2.3214
 5201TIP3   OH215608   2.818   4.080   4.997 -0.0176 -0.0798  0.1191
 5201TIP3    H115609   2.799   3.996   4.955 -2.3325 -0.2270  1.3192
 5201TIP3    H215610   2.739   4.132   4.983  1.5969  2.2082 -1.1764
 5202TIP3   OH215611   3.146   2.223   1.457 -0.1375  0.1892 -0.1203
 5202TIP3    H115612   3.143   2.165   1.534 -0.1730  1.1662  0.6310
 5202TIP3    H215613   3.056   2.224   1.425 -0.1371 -0.1731 -0.1342
 5203TIP3   OH215614   4.739   3.471   4.025 -0.2216  0.0545 -0.1027
 5203TIP3    H115615   4.809   3.458   4.088 -0.3952  0.7016  0.2312
 5203TIP3    H215616   4.783   3.501   3.945 -0.0005 -0.7800 -0.3052
 5204TIP3   OH215617   0.220   5.579   4.401  0.2398 -0.3607  0.3070
 5204TIP3    H115618   0.298   5.602   4.452  0.3776  0.9570 -0.4495
 5204TIP3    H215619   0.220   5.484   4.398  1.4062 -0.3969  0.9573
 5205TIP3   OH215620   4.001   5.472   3.590  0.4520  0.2283 -0.5586
 5205TIP3    H115621   4.041   5.557   3.605 -0.0888  0.4298 -0.2332
 5205TIP3    H215622   3.907   5.489   3.590  0.2960 -0.5156  0.5459
 5206TIP3   OH215623   1.564   0.701   3.598 -0.1354 -0.1549 -0.1027
 5206TIP3    H115624   1.532   0.614   3.621 -2.6808  1.3153  2.5280
 5206TIP3    H215625   1.485   0.754   3.584  1.2855  2.0638 -0.3110
 5207TIP3   OH215626   3.109   0.475   0.727 -0.1984  0.2049 -0.0049
 5207TIP3    H115627   3.137   0.405   0.668  0.1997  0.3188  0.0454
 5207TIP3    H215628   3.190   0.521   0.750 -0.3927  0.3666  0.3666
 5208TIP3   OH215629   1.181   3.247   1.674 -0.0522  0.1669  0.6750
 5208TIP3    H115630   1.218   3.289   1.596  1.8762  2.1692  2.5192
 5208TIP3    H215631   1.197   3.154   1.660 -1.2415  0.2569 -1.9756
 5209TIP3   OH215632   3.388   1.268   5.006 -0.1573  0.4061  0.1710
 5209TIP3    H115633   3.475   1.231   4.997 -0.0587  0.5011  0.7174
 5209TIP3    H215634   3.331   1.193   5.018 -0.1558  0.3432 -0.2000
 5210TIP3   OH215635   1.803   1.250   4.084  0.4518  0.3473  0.2755
 5210TIP3    H115636   1.740   1.268   4.015  1.0602  0.2691 -0.3158
 5210TIP3    H215637   1.759   1.188   4.142  1.3231 -2.9235 -2.2430
 5211TIP3   OH215638   4.738   3.723   3.160  0.4490  0.1288  0.0885
 5211TIP3    H115639   4.805   3.771   3.111 -0.1798  0.9900  0.0450
 5211TIP3    H215640   4.716   3.648   3.104  1.6406 -0.3902  0.2796
 5212TIP3   OH215641   5.040   3.427   1.469  0.0681 -0.4736  0.4644
 5212TIP3    H115642   5.132   3.452   1.474 -0.2455  0.7718  0.3096
 5212TIP3    H215643   5.035   3.370   1.392  0.5611  0.1786 -0.0689
 5213TIP3   OH215644   5.962   5.734   3.804 -0.0026 -0.0554 -0.3148
 5213TIP3    H115645   5.886   5.772   3.848 -0.7315 -1.9668  0.1556
 5213TIP3    H215646   5.928   5.657   3.758  1.4924 -0.4433 -0.8420
 5214TIP3   OH215647   3.561   3.282   3.614  0.4648  0.3304 -0.0741
 5214TIP3    H115648   3.520   3.354   3.662 -0.3090 -1.8905  2.9430
 5214TIP3    H215649   3.629   3.249   3.674  0.6967 -1.5184 -1.2722
 5215TIP3   OH215650   3.720   0.664   2.883  0.3560 -0.2816  0.0648
 5215TIP3    H115651   3.753   0.702   2.802  2.1410 -0.0379  0.8649
 5215TIP3    H215652   3.787   0.685   2.949 -1.5208  0.4766  1.8618
 5216TIP3   OH215653   4.947   1.095   1.846  0.2827 -0.6658  0.1677
 5216TIP3    H115654   5.012   1.121   1.911  0.6772 -1.8627  0.2846
 5216TIP3    H215655   4.895   1.174   1.830  1.5139  0.2179  0.3609
 5217TIP3   OH215656   5.559   3.247   4.773 -0.3973  0.2692 -0.0497
 5217TIP3    H115657   5.593   3.260   4.684  2.4773 -1.1790  0.7099
 5217TIP3    H215658   5.564   3.334   4.813  1.5383  0.3423 -0.3499
 5218TIP3   OH215659   5.622   0.252   4.553 -0.7928 -0.2008  0.3186
 5218TIP3    H115660   5.708   0.286   4.580 -1.7517  1.7468  1.1034
 5218TIP3    H215661   5.590   0.207   4.631 -0.7819 -0.3160  0.2559
 5219TIP3   OH215662   1.166   0.673   1.897  0.0432 -0.1990 -0.6366
 5219TIP3    H115663   1.212   0.708   1.821  0.3939 -0.6381 -0.6308
 5219TIP3    H215664   1.095   0.735   1.913  0.9379  0.7829 -0.3340
 5220TIP3   OH215665   1.443   3.683   3.463 -0.4512 -0.2251 -0.1722
 5220TIP3    H115666   1.473   3.636   3.541  0.2343  0.9592  0.2983
 5220TIP3    H215667   1.519   3.682   3.404 -0.3038  0.6079 -0.0034
 5221TIP3   OH215668   6.066   4.254   3.979  0.3977 -0.0683  0.3207
 5221TIP3    H115669   6.161   4.253   3.987  0.4246  2.5804  0.9253
 5221TIP3    H215670   6.034   4.218   4.062  0.9063  2.1012  1.5282
 5222TIP3   OH215671   0.342   3.012   2.481 -0.1532 -0.4344  0.4168
 5222TIP3    H115672   0.292   2.943   2.524 -0.7542 -0.6419 -0.5924
 5222TIP3    H215673   0.406   3.039   2.547 -0.4610 -1.3600  1.1219
 5223TIP3   OH215674   5.774   3.706   4.510 -0.4625 -0.2562  0.3497
 5223TIP3    H115675   5.828   3.777   4.476 -0.5188 -0.4280 -0.1079
 5223TIP3    H215676   5.786   3.634   4.448 -0.5246 -0.5952  0.7261
 5224TIP3   OH215677   5.623   3.698   1.273  0.2662 -0.5400  0.2598
 5224TIP3    H115678   5.582   3.699   1.187  1.2365 -1.2540 -0.2261
 5224TIP3    H215679   5.684   3.625   1.270  1.1736  0.1553  1.1509
 5225TIP3   OH215680   0.153   5.413   3.914  0.1241 -0.4268 -0.1551
 5225TIP3    H115681   0.135   5.501   3.881  1.4863 -0.5464 -1.2861
 5225TIP3    H215682   0.162   5.424   4.009  1.4948  0.8697 -0.4180
 5226TIP3   OH215683   4.892   2.740   0.276  0.1043  0.2600 -0.4166
 5226TIP3    H115684   4.968   2.791   0.249  0.1010 -0.5378 -2.0734
 5226TIP3    H215685   4.921   2.649   0.269 -0.5667 -0.0227  0.3531
 5227TIP3   OH215686   6.227   1.424   4.145  0.1573  0.0162  0.1209
 5227TIP3    H115687   6.268   1.478   4.213 -1.1347 -1.0754  1.8596
 5227TIP3    H215688   6.300   1.380   4.102  0.9846  0.1296  1.3557
 5228TIP3   OH215689   1.810   3.726   3.623  0.2285 -0.3482 -0.0984
 5228TIP3    H115690   1.828   3.800   3.681 -1.7500 -0.0826  0.2602
 5228TIP3    H215691   1.777   3.767   3.542  2.8178 -0.7147 -1.4348
 5229TIP3   OH215692   6.347   3.025   0.081 -0.1123 -0.5016  0.3248
 5229TIP3    H115693   6.264   3.025   0.034  0.0713 -2.9481 -0.1458
 5229TIP3    H215694   6.398   3.095   0.040 -2.8231  3.1479  2.5588
 5230TIP3   OH215695   1.801   1.296   0.849 -0.0945 -0.2315 -0.1165
 5230TIP3    H115696   1.755   1.212   0.846  3.3030 -2.2435 -0.6661
 5230TIP3    H215697   1.766   1.339   0.927 -1.5714 -2.3728  0.5142
 5231TIP3   OH215698   2.489   0.458   3.376 -0.2036  0.4295 -0.5400
 5231TIP3    H115699   2.404   0.415   3.388 -0.5958  1.6805  1.9136
 5231TIP3    H215700   2.524   0.420   3.296 -2.8786 -0.4592 -1.4129
 5232TIP3   OH215701   1.106   3.294   3.490 -0.1108 -0.0780 -0.1852
 5232TIP3    H115702   1.181   3.352   3.476 -0.3533  0.3672  0.3427
 5232TIP3    H215703   1.100   3.243   3.409  0.8455 -0.2142 -0.1864
 5233TIP3   OH215704   0.910   1.809   4.138 -0.0299 -0.0498 -0.5463
 5233TIP3    H115705   0.880   1.897   4.117  1.3650  0.4995 -0.3406
 5233TIP3    H215706   0.933   1.813   4.231 -3.0468 -1.5573  0.3893
 5234TIP3   OH215707   1.978   5.378   0.885  1.0147 -0.3631 -0.0917
 5234TIP3    H115708   1.896   5.367   0.933 -0.2508 -2.2003 -2.4206
 5234TIP3    H215709   2.045   5.341   0.941 -0.2120 -1.4503  0.6968
 5235TIP3   OH215710   4.097   1.645   3.263 -0.2112 -0.2762 -0.1976
 5235TIP3    H115711   4.097   1.731   3.221  0.4978  0.5451  1.4342
 5235TIP3    H215712   4.095   1.583   3.189 -2.6316  1.0834 -1.4090
 5236TIP3   OH215713   0.479   4.036   2.369 -0.0077  0.6537  0.2567
 5236TIP3    H115714   0.404   4.096   2.369 -0.9464 -0.4570 -1.1243
 5236TIP3    H215715   0.453   3.966   2.429 -0.4011 -0.0956 -0.7706
 5237TIP3   OH215716   6.153   2.508   3.461 -0.3202  0.0729  0.0284
 5237TIP3    H115717   6.129   2.462   3.381 -0.9117 -0.2971  0.4079
 5237TIP3    H215718   6.234   2.466   3.490 -0.6077 -0.4184  0.1248
 5238TIP3   OH215719   1.249   4.985   1.691 -0.2966 -0.3421  0.3289
 5238TIP3    H115720   1.251   4.953   1.601  2.7073 -0.3693  0.3242
 5238TIP3    H215721   1.249   5.080   1.683  0.2736 -0.3430  0.2824
 5239TIP3   OH215722   2.124   2.028   0.767  0.4442 -0.2760  0.6559
 5239TIP3    H115723   2.079   1.948   0.796  0.9290  0.0308  2.3621
 5239TIP3    H215724   2.055   2.094   0.763 -0.3588 -1.1045 -2.6357
 5240TIP3   OH215725   1.830   0.671   2.072 -0.3172  0.2707 -0.2099
 5240TIP3    H115726   1.849   0.646   2.162  1.9172  0.3260 -0.6129
 5240TIP3    H215727   1.735   0.665   2.065 -0.3694 -2.1818  1.4387
 5241TIP3   OH215728   1.922   3.232   4.467  0.1583 -0.1686  0.2056
 5241TIP3    H115729   1.886   3.180   4.539  1.3763  1.1520  1.8130
 5241TIP3    H215730   1.960   3.167   4.408 -0.0762 -1.2188  1.1740
 5242TIP3   OH215731   1.095   2.872   0.731  0.0293 -0.6003  0.1727
 5242TIP3    H115732   1.131   2.823   0.658 -0.6746 -1.6641  0.5188
 5242TIP3    H215733   1.171   2.893   0.785  0.5089 -0.1215 -0.6619
 5243TIP3   OH215734   0.239   5.912   4.741 -0.2113 -0.3235 -0.0263
 5243TIP3    H115735   0.316   5.855   4.750 -0.3841 -0.3901  1.1997
 5243TIP3    H215736   0.239   5.965   4.821 -1.4357 -0.3104 -0.0145
 5244TIP3   OH215737   0.547   4.638   1.528  0.0718  0.3092 -0.2411
 5244TIP3    H115738   0.473   4.690   1.561 -0.5406 -0.2041 -0.7939
 5244TIP3    H215739   0.608   4.635   1.602 -0.3351  0.9659  0.1349
 5245TIP3   OH215740   0.298   5.994   0.971  0.0839  0.1117 -0.2083
 5245TIP3    H115741   0.207   6.014   0.994  0.2271  0.3721  0.1239
 5245TIP3    H215742   0.313   5.906   1.005 -0.0161  0.1022 -0.1890
 5246TIP3   OH215743   5.047   2.861   2.825 -0.1852 -0.3919  0.0402
 5246TIP3    H115744   5.114   2.821   2.881  0.4388 -0.4933 -0.7554
 5246TIP3    H215745   5.053   2.954   2.844  1.3254 -0.1943 -1.1710
 5247TIP3   OH215746   0.855   3.262   2.565  0.0427 -0.2727  0.4828
 5247TIP3    H115747   0.904   3.196   2.516 -0.6387 -0.1323 -0.4093
 5247TIP3    H215748   0.912   3.339   2.565  0.2674 -0.4398  0.3580
 5248TIP3   OH215749   4.658   2.805   3.792 -0.0278 -0.0407 -0.1564
 5248TIP3    H115750   4.622   2.869   3.731  0.9175  0.5016 -0.1729
 5248TIP3    H215751   4.646   2.845   3.878 -0.6218 -0.4353 -0.0564
 5249TIP3   OH215752   5.074   2.428   4.023 -0.0722 -0.0318  0.0125
 5249TIP3    H115753   5.015   2.503   4.009 -0.8730 -0.4866  0.8685
 5249TIP3    H215754   5.135   2.458   4.090  0.5344  0.3590 -0.7063
 5250TIP3   OH215755   5.879   5.155   2.719 -1.4503  0.3098 -0.1291
 5250TIP3    H115756   5.891   5.077   2.667  0.9269  0.0856  0.6345
 5250TIP3    H215757   5.835   5.125   2.799  2.4455 -1.0590  1.7257
 5251TIP3   OH215758   5.258   3.311   5.180 -0.5490 -0.1937 -0.0499
 5251TIP3    H115759   5.280   3.275   5.094 -1.8174 -0.7912 -0.1494
 5251TIP3    H215760   5.293   3.248   5.242 -0.8205 -0.4659 -0.1693
 5252TIP3   OH215761   5.670   3.429   0.879 -0.1452  0.2082  0.6336
 5252TIP3    H115762   5.762   3.449   0.892  0.1724 -1.2456  0.8109
 5252TIP3    H215763   5.664   3.396   0.789 -0.4080 -0.1128  0.7644
 5253TIP3   OH215764   5.336   4.492   3.336  0.4568  0.5028  0.1344
 5253TIP3    H115765   5.383   4.573   3.354 -1.8557  1.5705  1.8691
 5253TIP3    H215766   5.243   4.517   3.335 -0.2821 -1.9609 -0.2336
 5254TIP3   OH215767   1.062   2.109   1.601  1.2548  0.2208  0.3017
 5254TIP3    H115768   1.064   2.178   1.668  3.2173 -0.3729  0.9156
 5254TIP3    H215769   1.060   2.157   1.518  1.7814  1.0376  0.7425
 5255TIP3   OH215770   5.805   1.599   1.385  0.4666 -0.1184  0.0156
 5255TIP3    H115771   5.736   1.544   1.422  0.3801 -1.1194 -1.5536
 5255TIP3    H215772   5.759   1.666   1.334  0.6252 -0.0566 -0.0490
 5256TIP3   OH215773   0.386   0.046   4.029 -0.2620 -0.4106  0.1859
 5256TIP3    H115774   0.391   0.124   4.084  1.3470  0.5563 -1.2209
 5256TIP3    H215775   0.465  -0.004   4.052  0.1470 -0.2555 -0.8350
 5257TIP3   OH215776   5.792   3.942   1.174 -0.8759  0.2173  0.7768
 5257TIP3    H115777   5.722   3.980   1.119 -1.7318 -2.6043 -0.2508
 5257TIP3    H215778   5.748   3.874   1.224  1.1889 -2.2056 -0.4826
 5258TIP3   OH215779   0.392   0.665   0.742  0.2420  0.6276 -0.1005
 5258TIP3    H115780   0.360   0.607   0.673  2.4497  0.7876 -1.3451
 5258TIP3    H215781   0.361   0.624   0.823  1.0608 -1.9189 -0.9615
 5259TIP3   OH215782   2.228   1.604   0.752 -0.2691  0.0288 -0.6928
 5259TIP3    H115783   2.205   1.686   0.708 -0.1157 -0.3910 -1.5677
 5259TIP3    H215784   2.312   1.623   0.794 -0.4919  0.4809 -0.4388
 5260TIP3   OH215785   2.485   0.224   2.067  0.1985  0.1744  0.5496
 5260TIP3    H115786   2.569   0.265   2.049  0.7230 -1.3465 -0.6560
 5260TIP3    H215787   2.458   0.260   2.151  2.5109 -0.0448  1.4511
 5261TIP3   OH215788   0.568   2.297   4.023  0.0609 -0.1255 -0.6689
 5261TIP3    H115789   0.607   2.283   4.110  1.8210  0.7663 -1.2732
 5261TIP3    H215790   0.494   2.235   4.020  0.2472 -0.5164  1.2624
 5262TIP3   OH215791   3.289   4.479   3.112  0.1535 -0.3953  0.4487
 5262TIP3    H115792   3.321   4.389   3.107  1.8900  0.1070  1.6617
 5262TIP3    H215793   3.206   4.472   3.160 -0.0572 -1.3927 -0.0170
 5263TIP3   OH215794   3.064   2.172   4.091 -0.2146  0.1831 -0.2864
 5263TIP3    H115795   3.135   2.111   4.106 -1.6082 -0.9966  2.2351
 5263TIP3    H215796   3.004   2.126   4.032  0.0253  0.2297 -0.5644
 5264TIP3   OH215797   3.851   4.955   2.788 -0.3336 -0.2232 -0.0333
 5264TIP3    H115798   3.839   5.020   2.857 -1.1711  0.2276 -0.5815
 5264TIP3    H215799   3.830   4.871   2.829  0.1729 -0.0857  0.5211
 5265TIP3   OH215800   5.038   0.201   4.625 -0.3688 -0.1128 -0.1988
 5265TIP3    H115801   5.090   0.206   4.545  0.9845  0.8752  0.6895
 5265TIP3    H215802   5.087   0.254   4.688 -0.6008 -2.0316  1.7095
 5266TIP3   OH215803   1.697   3.262   0.901  0.2380  0.4286 -0.5830
 5266TIP3    H115804   1.771   3.203   0.886 -0.7029 -0.8408 -0.3167
 5266TIP3    H215805   1.676   3.251   0.994  0.2928  1.4978 -0.4268
 5267TIP3   OH215806   1.656   2.528   1.587 -0.4327  0.2047  0.3017
 5267TIP3    H115807   1.585   2.467   1.610  0.1205 -0.8322 -0.6918
 5267TIP3    H215808   1.644   2.545   1.494  0.7833 -0.1940  0.0585
 5268TIP3   OH215809   4.347   4.797   5.103  1.0150 -0.1122 -0.1264
 5268TIP3    H115810   4.370   4.705   5.114  3.2369  0.4534  0.5255
 5268TIP3    H215811   4.326   4.827   5.192 -0.1722 -0.0572 -0.4011
 5269TIP3   OH215812   4.098   5.177   4.471 -0.6504 -0.0324 -0.2559
 5269TIP3    H115813   4.087   5.089   4.437  0.2148 -0.1262 -0.3125
 5269TIP3    H215814   4.126   5.165   4.562 -0.1138  0.1636 -0.3869
 5270TIP3   OH215815   3.095   3.020   1.595  0.1664 -0.6920  0.2359
 5270TIP3    H115816   3.132   3.098   1.554 -1.5094 -0.1677 -0.3519
 5270TIP3    H215817   3.096   2.954   1.526  0.9143 -0.9858  0.5194
 5271TIP3   OH215818   6.044   4.158   4.601 -0.2502 -0.0602 -0.3928
 5271TIP3    H115819   6.127   4.164   4.648  0.6650 -0.5777 -1.8547
 5271TIP3    H215820   5.987   4.107   4.658  1.1472 -1.5471 -0.2353
 5272TIP3   OH215821   6.146   1.984   2.886  0.4123  0.0430  0.2592
 5272TIP3    H115822   6.059   1.961   2.920  0.5396 -1.7039 -0.4722
 5272TIP3    H215823   6.130   2.051   2.820 -0.6002 -1.4292 -1.0524
 5273TIP3   OH215824   2.375   3.627   3.499  0.5663 -0.2537  0.3857
 5273TIP3    H115825   2.465   3.635   3.468  0.9115 -0.3601  1.3081
 5273TIP3    H215826   2.362   3.533   3.513  0.9311 -0.1089  1.9264
 5274TIP3   OH215827   4.035   4.980   2.090 -0.1617  0.0763 -0.2154
 5274TIP3    H115828   4.044   4.902   2.036  1.4913 -1.0492  1.5391
 5274TIP3    H215829   4.125   5.006   2.110 -0.7093  1.3336  0.7414
 5275TIP3   OH215830   6.291   2.703   4.373  0.3077  0.1872  0.0598
 5275TIP3    H115831   6.296   2.746   4.288 -0.1801  0.3902  0.1275
 5275TIP3    H215832   6.203   2.665   4.375  1.0005 -1.5450 -0.3427
 5276TIP3   OH215833   4.824   0.818   2.913  0.1307 -0.3115 -0.7211
 5276TIP3    H115834   4.756   0.755   2.938 -1.8128  1.5075 -1.1695
 5276TIP3    H215835   4.778   0.901   2.906  2.5862  1.1635 -0.3088
 5277TIP3   OH215836   0.267   0.325   2.713 -0.2199 -0.0249  0.4319
 5277TIP3    H115837   0.355   0.297   2.687 -0.9151 -0.2505 -1.9134
 5277TIP3    H215838   0.227   0.247   2.751 -0.0166 -0.4496 -0.2078
 5278TIP3   OH215839   2.816   0.525   3.767 -0.1348  0.5745  0.0565
 5278TIP3    H115840   2.829   0.445   3.820 -0.1836  0.5504  0.0322
 5278TIP3    H215841   2.904   0.562   3.758  0.1624 -0.4031 -1.4012
 5279TIP3   OH215842   1.632   4.900   0.564 -0.1681  0.1959  0.2467
 5279TIP3    H115843   1.682   4.840   0.509  0.4615  0.4622  0.5232
 5279TIP3    H215844   1.577   4.949   0.502  1.6738  1.6151 -0.3680
 5280TIP3   OH215845   5.547   4.853   3.008  0.2143 -0.2690  0.1732
 5280TIP3    H115846   5.451   4.858   3.011  0.2078 -0.6419  0.5818
 5280TIP3    H215847   5.566   4.832   2.916  0.0045  1.8027 -0.3848
 5281TIP3   OH215848   0.816   2.958   3.188 -0.2412 -0.4083 -0.0295
 5281TIP3    H115849   0.731   2.961   3.233 -0.3605 -0.9624 -0.2071
 5281TIP3    H215850   0.826   3.045   3.149 -0.8922 -0.4471 -0.2982
 5282TIP3   OH215851   2.099   2.565   3.734  0.2489  0.4816 -0.2451
 5282TIP3    H115852   2.026   2.579   3.794  0.0356  2.3939 -0.8883
 5282TIP3    H215853   2.059   2.571   3.647  0.6940 -1.4155 -0.6266
 5283TIP3   OH215854   3.330   4.754   0.163  0.1922  0.3524  0.4203
 5283TIP3    H115855   3.299   4.768   0.252  0.9103  0.1245  0.7171
 5283TIP3    H215856   3.278   4.680   0.130  0.2059  0.1697  0.8021
 5284TIP3   OH215857   5.511   1.688   1.607  0.1169  0.4787 -0.3443
 5284TIP3    H115858   5.550   1.608   1.572 -2.2831 -0.0511 -2.0547
 5284TIP3    H215859   5.495   1.668   1.700  0.2858 -0.7248 -0.5551
 5285TIP3   OH215860   6.325   4.085   0.241 -0.6243 -0.1509 -0.3034
 5285TIP3    H115861   6.250   4.111   0.294 -1.0776 -0.1867 -0.9101
 5285TIP3    H215862   6.336   4.157   0.179  0.2381  0.1422  0.1800
 5286TIP3   OH215863   3.488   2.470   2.958  0.1462  0.0713 -0.7103
 5286TIP3    H115864   3.416   2.427   3.004  0.0557  2.1885  1.3127
 5286TIP3    H215865   3.567   2.429   2.995  0.0781 -1.5459 -2.2104
 5287TIP3   OH215866   0.110   0.495   2.551  0.2868  0.0439 -0.4225
 5287TIP3    H115867   0.172   0.429   2.584  0.2489 -0.0563 -0.5511
 5287TIP3    H215868   0.026   0.450   2.552 -0.2664  0.9464  2.1797
 5288TIP3   OH215869   2.706   2.795   1.501  0.0954 -0.1877  0.0693
 5288TIP3    H115870   2.776   2.811   1.564 -1.6821 -1.9821  2.6999
 5288TIP3    H215871   2.630   2.772   1.554 -1.9508 -0.4475 -2.7179
 5289TIP3   OH215872   5.758   1.043   5.136  0.6490  0.4822 -0.2006
 5289TIP3    H115873   5.808   1.112   5.178 -1.0938  1.3084  0.6092
 5289TIP3    H215874   5.791   1.040   5.046  4.2821 -1.1438  0.9917
 5290TIP3   OH215875   2.352   1.543   1.605 -0.5925 -0.6997 -0.3190
 5290TIP3    H115876   2.266   1.573   1.634 -0.3785 -2.2421  2.1137
 5290TIP3    H215877   2.365   1.459   1.649  1.5781 -1.1819 -1.7444
 5291TIP3   OH215878   3.426   1.026   3.280  0.1499 -0.0632  0.5292
 5291TIP3    H115879   3.461   1.019   3.191 -0.2302 -0.0563  0.3732
 5291TIP3    H215880   3.442   1.117   3.305 -1.1119  0.3773 -0.1404
 5292TIP3   OH215881   0.095   0.712   4.028  0.0752  0.0076  0.0621
 5292TIP3    H115882   0.073   0.782   3.967  0.8109 -0.5339 -0.8536
 5292TIP3    H215883   0.020   0.653   4.025  0.5691 -0.5933 -1.2012
 5293TIP3   OH215884   1.040   3.140   2.406  0.1084  0.0134  0.1590
 5293TIP3    H115885   1.062   3.160   2.315  0.3321 -0.5150  0.0926
 5293TIP3    H215886   1.123   3.110   2.444  0.0347  0.3115  0.5622
 5294TIP3   OH215887   3.186   0.741   4.211  0.2594  0.1669  0.1093
 5294TIP3    H115888   3.119   0.776   4.270 -3.0447 -3.4906 -1.0159
 5294TIP3    H215889   3.176   0.646   4.217  3.0542 -0.4927 -2.7924
 5295TIP3   OH215890   6.201   2.716   1.710 -0.2002 -0.0876  0.6083
 5295TIP3    H115891   6.137   2.694   1.777  0.2377  0.9024  1.3862
 5295TIP3    H215892   6.283   2.725   1.758  0.2463  0.0277 -0.1644
 5296TIP3   OH215893   2.764   2.209   3.048  0.1230  0.4162  0.0408
 5296TIP3    H115894   2.748   2.288   2.997 -1.9558 -0.9214 -1.5931
 5296TIP3    H215895   2.805   2.148   2.986 -1.2391 -0.7981  0.2585
 5297TIP3   OH215896   3.584   4.318   2.663  0.8027 -0.0914  0.3920
 5297TIP3    H115897   3.665   4.292   2.618  0.6314 -0.1254  0.0994
 5297TIP3    H215898   3.556   4.239   2.709  1.3837  0.1478  1.1878
 5298TIP3   OH215899   6.010   5.926   3.031 -0.1002  0.0357 -0.0286
 5298TIP3    H115900   5.927   5.934   2.984  0.0721 -1.1474 -0.5850
 5298TIP3    H215901   6.069   5.885   2.967  0.2073 -1.4052  1.1302
 5299TIP3   OH215902   3.736   0.979   2.074 -0.9591 -0.6393  0.2956
 5299TIP3    H115903   3.644   0.955   2.067 -0.5778 -2.1738  0.2948
 5299TIP3    H215904   3.778   0.902   2.112  0.5233 -0.4602 -0.9013
 5300TIP3   OH215905   0.740   2.939   4.442 -0.2759  0.3222  0.3030
 5300TIP3    H115906   0.828   2.917   4.470 -0.3252  0.4419  0.5552
 5300TIP3    H215907   0.744   2.938   4.346 -0.0142  0.2853  0.3145
 5301TIP3   OH215908   0.115   3.046   4.139  0.0581 -0.7211  0.1876
 5301TIP3    H115909   0.051   3.021   4.072  1.8636 -0.6933 -1.6591
 5301TIP3    H215910   0.080   3.127   4.176 -0.8246 -0.5152 -1.0123
 5302TIP3   OH215911   4.496   4.113   5.047  0.2258 -0.2751 -0.0929
 5302TIP3    H115912   4.470   4.162   4.969 -0.7552  1.3727  1.2019
 5302TIP3    H215913   4.582   4.148   5.070  0.4572 -0.6688 -0.3458
 5303TIP3   OH215914   1.884   3.996   2.915 -0.0410 -0.1943 -0.3282
 5303TIP3    H115915   1.855   3.940   2.843  2.3065 -0.0272 -1.5237
 5303TIP3    H215916   1.959   3.950   2.952  1.3181  1.5997 -0.6801
 5304TIP3   OH215917   0.469   3.340   1.919  0.0225  0.3842  0.2816
 5304TIP3    H115918   0.523   3.328   1.997  0.0641 -1.2652  0.0253
 5304TIP3    H215919   0.496   3.271   1.859 -1.7485  0.0344 -0.1874
 5305TIP3   OH215920   2.106   3.603   4.582 -0.2572  0.2403 -0.0751
 5305TIP3    H115921   2.017   3.569   4.587 -0.2339  0.1468 -0.2494
 5305TIP3    H215922   2.151   3.543   4.522  0.3763 -0.7025  1.2926
 5306TIP3   OH215923   3.752   2.884   2.948  0.7115  0.2374  0.0985
 5306TIP3    H115924   3.734   2.825   2.876  0.9354 -1.4140  1.3333
 5306TIP3    H215925   3.848   2.885   2.955  0.6675 -1.3203  1.6501
 5307TIP3   OH215926   0.290   3.671   3.438  0.1778  0.8501  0.5946
 5307TIP3    H115927   0.345   3.747   3.418  1.1226 -0.2467 -1.2138
 5307TIP3    H215928   0.212   3.684   3.383  0.8997 -0.0624 -0.7035
 5308TIP3   OH215929   3.035   0.489   3.132 -0.4431  0.1605  0.2451
 5308TIP3    H115930   3.086   0.568   3.115  0.0224 -0.2450 -0.2829
 5308TIP3    H215931   3.100   0.421   3.145 -0.8428 -0.3775 -0.5147
 5309TIP3   OH215932   2.078   1.360   2.824  0.0512  0.7477 -0.1879
 5309TIP3    H115933   2.079   1.375   2.729  0.2932  1.9222 -0.0126
 5309TIP3    H215934   2.070   1.265   2.833  2.0242  0.4082 -1.3959
 5310TIP3   OH215935   1.968   5.892   2.024  0.1525 -0.1631 -0.1033
 5310TIP3    H115936   1.974   5.814   1.969  1.1483  0.1793 -0.5024
 5310TIP3    H215937   1.941   5.961   1.964  1.6400  0.2991 -0.2816
 5311TIP3   OH215938   3.612   3.823   2.180 -0.5541 -0.3915 -0.2144
 5311TIP3    H115939   3.683   3.857   2.126 -0.4246 -0.5050 -0.1198
 5311TIP3    H215940   3.654   3.753   2.232 -0.5456  0.0845  0.4313
 5312TIP3   OH215941   5.262   2.533   0.580 -0.3516  0.1166  0.6331
 5312TIP3    H115942   5.271   2.520   0.486  0.0515  1.2841  0.4844
 5312TIP3    H215943   5.271   2.628   0.592 -2.2799  0.2253  1.6448
 5313TIP3   OH215944   1.898   0.546   3.985  0.3241  0.4736 -0.1352
 5313TIP3    H115945   1.848   0.627   3.993  0.0946  0.5316 -1.8152
 5313TIP3    H215946   1.859   0.488   4.050  0.3047  1.6111  0.9005
 5314TIP3   OH215947   4.108   5.778   0.110  0.0878 -0.4284 -0.1240
 5314TIP3    H115948   4.171   5.726   0.159  0.3934  0.9509  1.0298
 5314TIP3    H215949   4.149   5.791   0.024  1.5566  0.7014  0.7145
 5315TIP3   OH215950   6.260   1.820   4.253  0.1904  0.1611 -0.5178
 5315TIP3    H115951   6.166   1.822   4.271 -0.2458  0.4833 -2.5227
 5315TIP3    H215952   6.269   1.754   4.184  1.0783  1.6348 -1.8907
 5316TIP3   OH215953   5.589   4.988   2.161  0.2762  0.3944 -0.6665
 5316TIP3    H115954   5.643   5.022   2.090 -0.0089  2.0385 -0.1471
 5316TIP3    H215955   5.638   5.008   2.240 -1.3350  2.6164 -0.1286
 5317TIP3   OH215956   2.186   5.322   1.816  0.3832  0.1829 -0.5800
 5317TIP3    H115957   2.175   5.261   1.889  1.6925 -1.1144 -1.3961
 5317TIP3    H215958   2.113   5.383   1.824 -0.5431 -1.0258  0.7419
 5318TIP3   OH215959   3.885   3.336   2.429 -0.0083  0.6236  0.0277
 5318TIP3    H115960   3.916   3.263   2.484  1.2494  0.1295 -1.2548
 5318TIP3    H215961   3.880   3.298   2.341 -0.7283  1.7266 -0.4202
 5319TIP3   OH215962   0.133   1.425   2.421 -0.4360 -0.2325  0.0617
 5319TIP3    H115963   0.162   1.414   2.511 -0.8714 -0.2988  0.1985
 5319TIP3    H215964   0.074   1.501   2.424  0.5139  0.5429 -0.3954
 5320TIP3   OH215965   1.756   3.250   2.702  0.3501 -0.0831 -0.5796
 5320TIP3    H115966   1.682   3.249   2.762 -1.0170 -1.6322 -2.1576
 5320TIP3    H215967   1.744   3.329   2.649 -0.6694 -0.7325 -1.3487
 5321TIP3   OH215968   0.189   1.892   2.368 -0.4362 -0.5603  0.1174
 5321TIP3    H115969   0.208   1.961   2.432 -1.6148 -0.5225  0.4574
 5321TIP3    H215970   0.215   1.811   2.412  1.4821 -0.3211 -0.5004
 5322TIP3   OH215971   5.467   0.390   0.034  0.1092  0.1807 -0.4330
 5322TIP3    H115972   5.389   0.391  -0.021 -0.3723 -0.6049  0.2143
 5322TIP3    H215973   5.434   0.371   0.122  0.9552  0.5658 -0.0246
 5323TIP3   OH215974   0.911   1.648   2.626 -0.0417  0.0756  0.3658
 5323TIP3    H115975   0.823   1.675   2.654 -0.2072 -0.4874  0.4054
 5323TIP3    H215976   0.895   1.575   2.566  0.4584 -1.3443  1.8744
 5324TIP3   OH215977   2.769   4.426   3.458 -0.0456  0.0751 -0.1242
 5324TIP3    H115978   2.814   4.343   3.445  1.7543  1.0462 -0.3996
 5324TIP3    H215979   2.687   4.402   3.501  0.7158 -1.7796  0.4048
 5325TIP3   OH215980   6.164   5.432   4.224  0.1668 -0.4855  0.2222
 5325TIP3    H115981   6.144   5.518   4.261 -0.6101 -0.8401  0.6649
 5325TIP3    H215982   6.157   5.444   4.129 -0.5989 -0.2119  0.3052
 5326TIP3   OH215983   4.041   1.324   3.139 -0.1341  0.0295  0.0941
 5326TIP3    H115984   3.970   1.264   3.163  0.7448 -2.0958 -2.1760
 5326TIP3    H215985   4.119   1.268   3.132  1.5186  2.0424  1.1051
 5327TIP3   OH215986   4.163   2.725   0.083  0.4603 -0.2660 -0.2440
 5327TIP3    H115987   4.190   2.633   0.076 -0.2931 -0.4903 -0.2415
 5327TIP3    H215988   4.069   2.722   0.098 -0.3423  0.5335 -3.9879
 5328TIP3   OH215989   4.342   2.606   0.295  0.4509  0.5371 -0.3303
 5328TIP3    H115990   4.342   2.701   0.290  0.3180  0.4655 -2.3258
 5328TIP3    H215991   4.434   2.583   0.307  0.5042  0.9095 -0.0161
 5329TIP3   OH215992   5.543   0.546   4.503 -0.3802  0.3990  0.1549
 5329TIP3    H115993   5.593   0.484   4.450 -3.2384 -0.0776 -2.2753
 5329TIP3    H215994   5.544   0.509   4.591  1.6393 -0.6983 -0.2673
 5330TIP3   OH215995   2.453   3.448   0.789 -0.4597  0.2534 -0.6440
 5330TIP3    H115996   2.538   3.431   0.829 -0.4569  2.6012  0.5020
 5330TIP3    H215997   2.422   3.362   0.762  1.5163 -0.8753  0.4489
 5331TIP3   OH215998   4.439   5.804   4.071 -0.3086 -0.4441 -0.3538
 5331TIP3    H115999   4.512   5.866   4.069  0.2769 -1.0838  0.3547
 5331TIP3    H216000   4.456   5.742   4.000 -0.3807 -0.3625 -0.4430
 5332TIP3   OH216001   2.233   4.267   3.591 -0.5250  0.1546  0.4169
 5332TIP3    H116002   2.159   4.240   3.537  0.4578  0.6425 -1.2406
 5332TIP3    H216003   2.310   4.253   3.536  0.2978  3.3824  0.5256
 5333TIP3   OH216004   5.819   4.293   2.550  0.2000 -0.2369 -0.5102
 5333TIP3    H116005   5.768   4.314   2.627  0.9521  1.3027 -0.3999
 5333TIP3    H216006   5.775   4.338   2.478  1.3267  1.0609 -0.4224
 5334TIP3   OH216007   1.536   3.573   2.086 -0.1006 -0.1777 -0.2751
 5334TIP3    H116008   1.480   3.626   2.030 -0.5150  0.8818  1.0918
 5334TIP3    H216009   1.625   3.596   2.060 -0.2850  0.3081 -0.4838
 5335TIP3   OH216010   4.001   2.808   2.917  0.1744  0.0248 -0.0829
 5335TIP3    H116011   3.963   2.720   2.919 -1.3837  0.6510 -0.1498
 5335TIP3    H216012   4.034   2.818   2.828  0.7582 -0.6452  0.0540
 5336TIP3   OH216013   2.865   3.429   4.381  0.3587  0.1141 -0.4568
 5336TIP3    H116014   2.961   3.430   4.385  0.3722 -0.1083 -0.7199
 5336TIP3    H216015   2.845   3.387   4.297  0.0355  0.4345 -0.5422
 5337TIP3   OH216016   0.304   3.591   4.355  0.1734  0.0447  0.4796
 5337TIP3    H116017   0.328   3.633   4.437 -3.0231  1.0434  1.0364
 5337TIP3    H216018   0.314   3.659   4.288  0.7795 -0.1537  0.3603
 5338TIP3   OH216019   0.923   3.082   0.639  0.1481 -0.4414 -0.2549
 5338TIP3    H116020   0.962   3.169   0.644 -1.3295  0.1829  1.4401
 5338TIP3    H216021   0.983   3.026   0.688 -0.0116  0.0799  0.5514
 5339TIP3   OH216022   2.303   1.152   3.382  0.0581  0.0093 -0.4251
 5339TIP3    H116023   2.212   1.174   3.364 -0.0686  0.5599  0.8100
 5339TIP3    H216024   2.323   1.081   3.321 -1.3720 -0.5167 -0.3151
 5340TIP3   OH216025   0.354   3.135   4.780  0.3874 -0.0117  0.5226
 5340TIP3    H116026   0.360   3.223   4.743  0.8316  0.2631  1.2191
 5340TIP3    H216027   0.430   3.089   4.746 -1.1348 -0.9524 -1.8617
 5341TIP3   OH216028   3.319   1.919   4.417 -0.3548 -0.5013 -0.6732
 5341TIP3    H116029   3.404   1.960   4.400 -1.1857  0.7001 -2.2374
 5341TIP3    H216030   3.256   1.992   4.415 -1.4074 -1.2879  0.9076
 5342TIP3   OH216031   2.060   4.501   2.556 -0.1556 -0.3711  0.4886
 5342TIP3    H116032   2.017   4.567   2.502 -0.9707 -0.7301  0.6798
 5342TIP3    H216033   2.152   4.504   2.530 -0.0092  1.4147  1.0668
 5343TIP3   OH216034   0.268   4.438   2.463  0.4549 -0.2595  1.0097
 5343TIP3    H116035   0.297   4.512   2.410 -0.4138 -1.0477 -0.6176
 5343TIP3    H216036   0.176   4.426   2.439  0.7710 -2.3397  0.6548
 5344TIP3   OH216037   4.134   5.228   4.935 -0.2712  0.7659  0.0987
 5344TIP3    H116038   4.048   5.255   4.902  0.6645  1.4872 -1.9122
 5344TIP3    H216039   4.114   5.170   5.008 -2.4717  0.5996 -0.5471
 5345TIP3   OH216040   2.044   5.502   0.652 -0.7242  0.4380  0.6957
 5345TIP3    H116041   2.007   5.440   0.590  0.6082 -1.0123  1.2827
 5345TIP3    H216042   2.022   5.466   0.738  0.1609  0.7043  1.0458
 5346TIP3   OH216043   5.582   4.747   2.715  0.0751  0.2825 -0.0701
 5346TIP3    H116044   5.547   4.753   2.626  2.1908 -0.8535 -1.0469
 5346TIP3    H216045   5.541   4.669   2.751  0.8022 -0.4702 -0.8347
 5347TIP3   OH216046   0.859   0.650   4.399  0.2162 -0.1763  0.0000
 5347TIP3    H116047   0.880   0.741   4.380  1.8322 -0.3722  0.7404
 5347TIP3    H216048   0.943   0.606   4.407 -0.4576 -1.2467  1.9805
 5348TIP3   OH216049   0.325   1.576   5.045 -0.1775  0.0240 -0.2232
 5348TIP3    H116050   0.283   1.550   4.964 -0.0634 -0.0954 -0.2458
 5348TIP3    H216051   0.393   1.509   5.059 -0.1550  0.0793 -0.0648
 5349TIP3   OH216052   3.060   2.014   1.622  0.5445  0.2248  0.3734
 5349TIP3    H116053   2.985   2.054   1.666 -0.7212 -0.7653 -0.7910
 5349TIP3    H216054   3.095   1.953   1.687 -0.0341  0.2444  0.7164
 5350TIP3   OH216055   0.031   1.960   2.753  0.5058 -0.4861 -0.3248
 5350TIP3    H116056   0.051   2.054   2.750  1.6956 -0.5595  2.3497
 5350TIP3    H216057  -0.047   1.954   2.808  1.7032 -1.1562  1.3671
 5351TIP3   OH216058   3.655   5.901   2.751  0.1799  0.0688  0.7875
 5351TIP3    H116059   3.735   5.914   2.803  0.9644 -1.7056  0.1200
 5351TIP3    H216060   3.605   5.835   2.800 -0.5400  0.6277  0.8227
 5352TIP3   OH216061   5.495   5.291   2.137  0.3794  0.2205 -0.6863
 5352TIP3    H116062   5.572   5.344   2.120  0.5974  0.2732  0.4339
 5352TIP3    H216063   5.508   5.212   2.084  1.8032 -0.3279  0.4266
 5353TIP3   OH216064   4.766   2.899   4.480  0.0109 -0.1946  0.6315
 5353TIP3    H116065   4.725   2.815   4.457  1.4860 -0.3033 -2.0534
 5353TIP3    H216066   4.692   2.956   4.501 -1.3186 -1.3001 -0.7328
 5354TIP3   OH216067   1.681   0.809   0.384  0.4266  0.2822 -0.1255
 5354TIP3    H116068   1.622   0.753   0.433  0.7775  0.7712  0.8757
 5354TIP3    H216069   1.624   0.871   0.339  0.1592  0.5966  0.6365
 5355TIP3   OH216070   2.331   5.505   2.125 -0.1273  0.1587  0.0855
 5355TIP3    H116071   2.335   5.428   2.069 -2.1688 -0.6731  0.9745
 5355TIP3    H216072   2.238   5.529   2.127  0.3667  2.3175  0.3037
 5356TIP3   OH216073   4.910   0.104   1.174  1.0273  0.0434  0.2127
 5356TIP3    H116074   4.991   0.155   1.170  1.6247 -0.8449  0.5799
 5356TIP3    H216075   4.936   0.016   1.148  0.4109 -0.5063  1.3921
 5357TIP3   OH216076   6.114   4.117   0.402  0.1217 -0.4154 -0.1110
 5357TIP3    H116077   6.072   4.041   0.441 -2.8069 -0.2638 -2.6306
 5357TIP3    H216078   6.109   4.185   0.470 -3.0738 -0.6699  0.0249
 5358TIP3   OH216079   0.601   5.248   0.519  0.8742 -0.1007  0.2241
 5358TIP3    H116080   0.577   5.196   0.441 -0.8636 -0.3503  0.8802
 5358TIP3    H216081   0.632   5.331   0.483  1.0533 -0.5693 -0.7625
 5359TIP3   OH216082   5.348   0.186   1.385 -0.3921 -0.3982 -0.4594
 5359TIP3    H116083   5.302   0.193   1.302  0.1772 -2.2686 -0.9875
 5359TIP3    H216084   5.366   0.092   1.395  0.5112 -0.0955  1.2492
 5360TIP3   OH216085   0.351   5.389   1.244  0.3258 -0.4720 -0.2892
 5360TIP3    H116086   0.419   5.452   1.223  0.5320 -1.1662 -1.8216
 5360TIP3    H216087   0.340   5.396   1.339  1.2121  0.9582 -0.2699
 5361TIP3   OH216088   2.309   5.831   4.757  0.0284 -0.1401 -0.5097
 5361TIP3    H116089   2.279   5.768   4.692  1.4511  0.4831 -1.8118
 5361TIP3    H216090   2.262   5.912   4.736  1.2311  0.3383 -1.4191
 5362TIP3   OH216091   2.820   2.239   3.450 -0.0717  0.1674 -0.3639
 5362TIP3    H116092   2.763   2.315   3.437  1.0599  1.3431  1.1923
 5362TIP3    H216093   2.902   2.263   3.407  0.0630 -0.5071 -0.4982
 5363TIP3   OH216094   3.047   3.100   0.876  0.0478 -0.5621 -0.7917
 5363TIP3    H116095   3.009   3.012   0.870 -0.7437 -0.2824 -0.0065
 5363TIP3    H216096   2.979   3.158   0.843 -1.1979  0.1759  2.6798
 5364TIP3   OH216097   0.590   3.857   1.313 -0.1314  0.3836  0.0258
 5364TIP3    H116098   0.622   3.936   1.270  1.3717 -0.1903  0.0352
 5364TIP3    H216099   0.666   3.799   1.317 -1.0799 -0.8865  0.4435
 5365TIP3   OH216100   4.040   1.686   2.441  0.2723  0.1993  0.1545
 5365TIP3    H116101   4.049   1.773   2.402  2.2993 -0.6978 -1.6034
 5365TIP3    H216102   3.960   1.650   2.401  0.2351  0.7071 -0.2410
 5366TIP3   OH216103   4.021   4.478   2.205  0.2878  0.0113 -0.1418
 5366TIP3    H116104   3.935   4.438   2.220  0.4627 -0.7785 -1.1340
 5366TIP3    H216105   4.032   4.475   2.110  1.3274  0.3057 -0.0426
 5367TIP3   OH216106   5.735   0.327   4.287  0.1169  0.5131  0.1308
 5367TIP3    H116107   5.830   0.324   4.278  0.0122 -1.5264 -0.9103
 5367TIP3    H216108   5.717   0.283   4.370  0.0529  0.4674  0.0924
 5368TIP3   OH216109   4.827   0.117   2.884  0.5017  0.0769  0.6257
 5368TIP3    H116110   4.821   0.028   2.849 -0.1846  0.4195 -0.1686
 5368TIP3    H216111   4.799   0.109   2.975 -1.4711 -0.2391  0.0568
 5369TIP3   OH216112   5.450   4.208   3.709  0.0481 -0.4826 -0.1166
 5369TIP3    H116113   5.493   4.251   3.783 -0.7803  0.4879 -0.1732
 5369TIP3    H216114   5.391   4.275   3.674 -1.6658 -1.8002  0.1118
 5370TIP3   OH216115   1.820   1.570   3.624  0.6051  0.0569  0.4910
 5370TIP3    H116116   1.793   1.570   3.532 -1.9701  0.9528  1.1638
 5370TIP3    H216117   1.905   1.616   3.624  1.3631 -1.1894 -1.5432
 5371TIP3   OH216118   6.203   4.502   0.886 -0.1080  0.3375 -0.6384
 5371TIP3    H116119   6.241   4.580   0.926  0.4620 -0.7418  1.0100
 5371TIP3    H216120   6.203   4.437   0.956  0.1434 -1.3870 -2.1918
 5372TIP3   OH216121   4.030   4.401   1.858 -0.4949 -0.1279  0.3559
 5372TIP3    H116122   4.014   4.444   1.774  0.2542 -2.3542 -1.0309
 5372TIP3    H216123   3.965   4.330   1.862  0.0552 -0.6071  1.2240
 5373TIP3   OH216124   4.377   3.994   0.865  0.2321 -0.1945  0.5499
 5373TIP3    H116125   4.373   4.040   0.949 -0.6057 -1.1066  1.0398
 5373TIP3    H216126   4.423   3.912   0.885 -1.4041 -1.1673  0.5276
 5374TIP3   OH216127   1.770   2.782   0.384  0.9964  0.5390 -0.2721
 5374TIP3    H116128   1.862   2.757   0.377  0.7113 -1.0438  0.9858
 5374TIP3    H216129   1.742   2.794   0.293  2.6467  1.9987 -0.6419
 5375TIP3   OH216130   3.959   2.974   4.116  0.1873  0.4737  0.2650
 5375TIP3    H116131   4.048   2.970   4.082  0.7043  0.1574  1.5948
 5375TIP3    H216132   3.903   2.948   4.043  1.2916 -0.7544 -0.1619
 5376TIP3   OH216133   2.898   4.654   3.372 -0.2780  0.0393  0.2447
 5376TIP3    H116134   2.850   4.585   3.418  0.4877  0.4852  1.7931
 5376TIP3    H216135   2.855   4.735   3.398  1.4209  0.4818  1.9267
 5377TIP3   OH216136   3.461   1.457   2.674  1.1243  0.5213 -0.0229
 5377TIP3    H116137   3.545   1.502   2.672  0.5548  1.6186 -1.0760
 5377TIP3    H216138   3.410   1.499   2.604  0.0867 -0.8634 -0.1392
 5378TIP3   OH216139   0.817   3.666   1.519  0.2279 -0.3647 -0.1435
 5378TIP3    H116140   0.875   3.590   1.522 -2.2399 -2.5723 -2.4840
 5378TIP3    H216141   0.761   3.657   1.596  1.0784  0.1712  0.5609
 5379TIP3   OH216142   3.888   5.537   1.856 -0.5746 -0.1787 -0.2204
 5379TIP3    H116143   3.842   5.461   1.822  1.0487 -0.6911 -1.4269
 5379TIP3    H216144   3.981   5.517   1.841 -0.1031  2.0799 -0.7071
 5380TIP3   OH216145   5.026   4.854   4.732 -0.1244  0.1214 -0.3808
 5380TIP3    H116146   5.028   4.946   4.705 -1.7375  0.2991 -0.0308
 5380TIP3    H216147   5.021   4.858   4.828 -1.7949 -0.2397 -0.4165
 5381TIP3   OH216148   0.366   4.332   2.695  0.0918  0.1376 -0.4617
 5381TIP3    H116149   0.334   4.372   2.614 -0.0895  1.6036  0.2952
 5381TIP3    H216150   0.306   4.365   2.762 -0.0053 -1.3828  0.2216
 5382TIP3   OH216151   5.233   0.129   2.922  0.0380 -0.1876  0.5571
 5382TIP3    H116152   5.303   0.100   2.863  0.9811 -0.5275  1.8068
 5382TIP3    H216153   5.205   0.214   2.886  0.6387 -0.3493 -0.3299
 5383TIP3   OH216154   5.143   0.313   3.252  0.0136 -0.2328 -0.2950
 5383TIP3    H116155   5.100   0.369   3.187  0.1220 -1.0233 -1.0725
 5383TIP3    H216156   5.085   0.316   3.328 -0.9724 -0.5883 -1.0136
 5384TIP3   OH216157   2.130   3.634   2.315  0.0366 -0.3003 -0.4856
 5384TIP3    H116158   2.103   3.666   2.401  0.8268 -0.0093 -0.3355
 5384TIP3    H216159   2.200   3.571   2.334 -2.1169 -2.9739 -0.6981
 5385TIP3   OH216160   5.892   2.170   3.234  0.2616  0.2094 -0.1478
 5385TIP3    H116161   5.899   2.122   3.151 -1.4140  0.4728 -0.4800
 5385TIP3    H216162   5.969   2.226   3.235  0.9359 -0.6626 -0.9514
 5386TIP3   OH216163   2.486   4.149   1.246 -0.6435  0.3777  0.2561
 5386TIP3    H116164   2.483   4.222   1.306 -1.5576  0.7672 -0.2527
 5386TIP3    H216165   2.527   4.185   1.167 -2.0059  0.6200 -0.3558
 5387TIP3   OH216166   0.183   1.576   3.674  0.5744 -0.1455  0.0200
 5387TIP3    H116167   0.199   1.543   3.586 -0.5841  2.4106 -1.2485
 5387TIP3    H216168   0.122   1.649   3.662  1.3288  1.0890  2.7966
 5388TIP3   OH216169   5.753   5.401   4.862 -0.8042 -0.6632  0.4144
 5388TIP3    H116170   5.806   5.397   4.942 -0.3468  1.0120  0.2311
 5388TIP3    H216171   5.663   5.392   4.892 -0.5848 -0.8783  1.0254
 5389TIP3   OH216172   4.687   0.734   3.989  0.2139  0.1986  0.3896
 5389TIP3    H116173   4.687   0.645   3.952  0.5887  0.3501  0.0198
 5389TIP3    H216174   4.658   0.790   3.917 -2.0614  0.1594  1.1978
 5390TIP3   OH216175   1.516   3.973   1.104 -0.2459 -0.1910 -0.3610
 5390TIP3    H116176   1.493   4.065   1.094  2.1899  0.5123 -0.0848
 5390TIP3    H216177   1.508   3.936   1.016  0.4631  0.7201 -0.8145
 5391TIP3   OH216178   1.159   4.577   0.363  0.3798  0.9848  0.4077
 5391TIP3    H116179   1.185   4.665   0.388  1.4769  0.3903  1.4226
 5391TIP3    H216180   1.128   4.586   0.273 -0.6313  2.6020  0.8756
 5392TIP3   OH216181   2.066   3.135   3.554  0.4300  0.4481  0.5143
 5392TIP3    H116182   2.095   3.047   3.574  0.3570  0.1364 -0.6773
 5392TIP3    H216183   2.136   3.172   3.501 -0.1676  0.6111 -0.1695
 5393TIP3   OH216184   3.866   2.829   1.630 -0.8816 -0.7633 -0.1001
 5393TIP3    H116185   3.878   2.849   1.723 -3.1817 -0.6816  0.2413
 5393TIP3    H216186   3.876   2.734   1.625 -0.3372 -0.7221  0.1601
 5394TIP3   OH216187   0.737   0.633   2.326  0.0454  0.3989 -0.1394
 5394TIP3    H116188   0.721   0.541   2.305 -0.2372  0.0601  1.3960
 5394TIP3    H216189   0.657   0.678   2.299 -0.2527  0.0077  0.0742
 5395TIP3   OH216190   0.963   3.904   1.731 -0.0713 -0.0024  0.2997
 5395TIP3    H116191   0.897   3.943   1.675 -0.4383 -2.1265 -0.8619
 5395TIP3    H216192   0.915   3.874   1.808  0.0565  0.9536  0.7661
 5396TIP3   OH216193   5.491   4.250   1.827  0.7516 -0.4842 -0.2667
 5396TIP3    H116194   5.530   4.305   1.759  1.1488 -0.1369  0.2329
 5396TIP3    H216195   5.402   4.282   1.835  0.9388 -0.0081 -0.0780
 5397TIP3   OH216196   0.875   0.801   1.908 -0.4364  0.0465 -0.1786
 5397TIP3    H116197   0.875   0.883   1.858 -0.4411  0.2987  0.2284
 5397TIP3    H216198   0.786   0.767   1.900 -0.0741 -0.6410 -1.5060
 5398TIP3   OH216199   5.549   4.879   4.225 -0.6047 -0.1442 -0.2689
 5398TIP3    H116200   5.512   4.827   4.296  0.0578 -0.5913 -0.2453
 5398TIP3    H216201   5.476   4.933   4.194 -0.2453  2.2301  2.6405
 5399TIP3   OH216202   3.515   5.369   2.960  0.0109 -0.3819  0.6664
 5399TIP3    H116203   3.460   5.437   2.921  0.9363 -0.5019 -0.9590
 5399TIP3    H216204   3.493   5.290   2.910  1.4314 -0.4844  0.1445
 5400TIP3   OH216205   2.680   0.790   2.825  0.5656 -0.6326 -0.5650
 5400TIP3    H116206   2.626   0.866   2.803  2.7665  0.6459 -1.8773
 5400TIP3    H216207   2.702   0.752   2.740  2.3863 -0.6091 -0.1309
 5401TIP3   OH216208   3.798   0.570   3.782 -0.2604 -0.2538 -0.1372
 5401TIP3    H116209   3.706   0.566   3.807 -0.6298  1.9465 -0.8998
 5401TIP3    H216210   3.846   0.558   3.864 -1.2106 -1.2545  0.2961
 5402TIP3   OH216211   1.024   4.750   4.301  0.3364 -0.3544  0.2610
 5402TIP3    H116212   1.015   4.814   4.372  0.1951  0.2452 -0.2835
 5402TIP3    H216213   1.118   4.734   4.295  0.7557  2.2184 -1.6396
 5403TIP3   OH216214   5.125   1.494   2.078  0.3310  0.2190  0.3005
 5403TIP3    H116215   5.131   1.578   2.124  2.2150  1.8449 -2.5854
 5403TIP3    H216216   5.066   1.511   2.005  1.1211 -0.8259 -0.6046
 5404TIP3   OH216217   4.167   3.758   0.988  0.1191 -0.6799 -0.0372
 5404TIP3    H116218   4.211   3.737   0.906  0.0835 -0.8065 -0.0244
 5404TIP3    H216219   4.182   3.852   1.001  1.1984 -0.9100  0.4517
 5405TIP3   OH216220   2.466   5.203   0.315  0.0212 -0.5313 -0.4920
 5405TIP3    H116221   2.511   5.183   0.397 -2.1557 -0.2320  0.8544
 5405TIP3    H216222   2.400   5.268   0.338 -0.9939 -0.8028 -2.3649
 5406TIP3   OH216223   2.049   1.847   4.834 -0.0374 -0.2173 -0.0108
 5406TIP3    H116224   2.100   1.882   4.761 -0.3691  0.4672  0.0790
 5406TIP3    H216225   1.958   1.850   4.802 -0.4770  2.2131  1.2143
 5407TIP3   OH216226   0.055   2.166   3.715 -0.4728  0.3543 -0.1796
 5407TIP3    H116227   0.147   2.161   3.688 -0.1525 -0.7680  1.0351
 5407TIP3    H216228   0.045   2.097   3.780 -2.0968  0.7026 -0.0155
 5408TIP3   OH216229   6.326   5.541   1.410 -0.0339 -0.2675  0.3504
 5408TIP3    H116230   6.262   5.470   1.415  0.2406 -0.5081  0.4460
 5408TIP3    H216231   6.357   5.551   1.500  3.2973 -3.1202 -0.2815
 5409TIP3   OH216232   5.690   5.414   3.877  0.1504  0.3418  0.1705
 5409TIP3    H116233   5.641   5.352   3.823 -0.5068  1.9059 -1.1080
 5409TIP3    H216234   5.629   5.439   3.947  1.2437 -2.2344  2.1926
 5410TIP3   OH216235   5.907   1.761   5.118 -0.4657 -0.1990 -0.0032
 5410TIP3    H116236   5.960   1.839   5.101  0.4177 -1.1098 -1.7168
 5410TIP3    H216237   5.963   1.688   5.092 -2.3695 -1.2442 -1.4255
 5411TIP3   OH216238   3.902   5.676   3.247 -0.5516 -0.3032  0.9849
 5411TIP3    H116239   3.853   5.683   3.330 -1.4116  0.3742  0.4377
 5411TIP3    H216240   3.834   5.676   3.179  0.2049  0.8593  0.1925
 5412TIP3   OH216241  -0.009   5.063   0.535  0.5620 -0.1528  0.1351
 5412TIP3    H116242   0.069   5.056   0.590  0.5257 -1.2927  0.0790
 5412TIP3    H216243  -0.019   5.156   0.518  0.8813  0.1757  1.6045
 5413TIP3   OH216244   6.331   4.160   4.103  0.2202 -0.0724  0.7682
 5413TIP3    H116245   6.278   4.117   4.170  0.8611  1.5024  2.3807
 5413TIP3    H216246   6.403   4.200   4.152 -0.2463  2.7004 -0.5945
 5414TIP3   OH216247   4.499   1.487   4.871  0.0575  0.0846 -0.1795
 5414TIP3    H116248   4.524   1.578   4.891 -0.9233  0.5299 -0.9276
 5414TIP3    H216249   4.512   1.479   4.777 -0.3889 -0.3937 -0.1982
 5415TIP3   OH216250   0.677   2.666   0.498  0.3835  0.0517  0.0737
 5415TIP3    H116251   0.727   2.637   0.574  1.6924  0.2839 -0.6497
 5415TIP3    H216252   0.605   2.604   0.490  0.1278  0.1304  1.5865
 5416TIP3   OH216253   1.713   1.441   5.031 -0.2686 -0.3088 -0.4467
 5416TIP3    H116254   1.768   1.433   4.953  0.0217  0.0370 -0.2785
 5416TIP3    H216255   1.763   1.497   5.090 -1.5100  1.4197 -0.9456
 5417TIP3   OH216256   3.780   5.008   2.157  0.2632  0.6604 -0.2784
 5417TIP3    H116257   3.752   4.952   2.085 -0.1773 -0.8922  1.0405
 5417TIP3    H216258   3.872   5.027   2.139  0.8723 -1.7736 -0.0222
 5418TIP3   OH216259   1.668   0.557   2.487 -0.0603 -0.2024 -0.3610
 5418TIP3    H116260   1.758   0.565   2.456 -0.0341  1.3783  0.0367
 5418TIP3    H216261   1.673   0.579   2.580 -0.8603 -0.0600 -0.3476
 5419TIP3   OH216262   6.079   4.407   3.173 -0.2061 -0.3678  0.5380
 5419TIP3    H116263   6.078   4.381   3.265 -0.2228  0.1725  0.6946
 5419TIP3    H216264   6.171   4.405   3.148  0.1759  2.2650  1.3919
 5420TIP3   OH216265   1.104   4.195   2.400  0.0276  0.1233  0.1127
 5420TIP3    H116266   1.160   4.119   2.417 -0.8590 -0.1995  1.8345
 5420TIP3    H216267   1.154   4.248   2.338  0.9680 -1.5206 -0.6047
 5421TIP3   OH216268   3.117   2.729   3.517 -0.1269 -0.0349  0.1929
 5421TIP3    H116269   3.133   2.671   3.591 -0.8929 -0.3057  0.1551
 5421TIP3    H216270   3.032   2.701   3.482  1.4513 -1.7454 -2.5389
 5422TIP3   OH216271   4.482   0.669   1.989 -0.2142 -0.6371 -0.1062
 5422TIP3    H116272   4.411   0.667   1.925  1.5683  0.2973 -2.2326
 5422TIP3    H216273   4.552   0.617   1.948  1.2171  0.5383  0.7702
 5423TIP3   OH216274   5.652   5.393   2.554  0.7317 -0.5858  0.2330
 5423TIP3    H116275   5.613   5.381   2.640 -0.4489 -0.7307 -0.3102
 5423TIP3    H216276   5.594   5.455   2.509  1.3494 -0.4806 -0.4469
 5424TIP3   OH216277   4.948   1.793   4.121  0.0274 -0.2391  0.9586
 5424TIP3    H116278   4.990   1.861   4.174 -0.7294 -1.2787  2.9855
 5424TIP3    H216279   4.914   1.840   4.045 -0.1997  1.6231  2.1451
 5425TIP3   OH216280   0.893   2.907   2.344  0.5865 -0.1087  0.7350
 5425TIP3    H116281   0.963   2.852   2.379  0.4918 -1.0073 -0.4340
 5425TIP3    H216282   0.926   2.996   2.351  2.0860 -0.5570 -0.2963
 5426TIP3   OH216283   4.216   4.897   4.438  0.2048  0.2558 -0.6004
 5426TIP3    H116284   4.233   4.931   4.351 -2.4557  0.1430 -1.2439
 5426TIP3    H216285   4.194   4.805   4.424  1.5979 -0.2939  0.4646
 5427TIP3   OH216286   5.404   1.189   3.364  0.4486 -0.5870  0.1096
 5427TIP3    H116287   5.340   1.205   3.434  2.0143 -0.4019  1.5525
 5427TIP3    H216288   5.395   1.096   3.345 -0.0103 -0.6379  0.5381
 5428TIP3   OH216289   6.345   0.518   0.050  0.1486 -0.0545 -0.1678
 5428TIP3    H116290   6.279   0.578   0.015 -1.6516 -0.7451  1.8347
 5428TIP3    H216291   6.398   0.572   0.108  0.9586  0.3442 -1.2324
 5429TIP3   OH216292   3.018   1.970   2.916 -0.3961 -0.2550  0.0976
 5429TIP3    H116293   3.072   1.948   2.992  0.9640  0.0132 -0.7562
 5429TIP3    H216294   2.956   1.897   2.909  0.7675 -1.2876  0.2826
 5430TIP3   OH216295   4.796   3.109   2.758 -0.0497  0.6173 -0.6403
 5430TIP3    H116296   4.817   3.150   2.674  0.8023 -0.1447 -0.8092
 5430TIP3    H216297   4.879   3.075   2.789 -0.6723 -0.6941 -0.3502
 5431TIP3   OH216298   3.909   2.275   3.331  0.0214 -0.2944 -0.7065
 5431TIP3    H116299   3.931   2.223   3.254 -2.5170  0.7385 -2.2404
 5431TIP3    H216300   3.966   2.351   3.326  1.0603 -1.0409 -0.5745
 5432TIP3   OH216301   4.497   0.792   4.158  0.1523  0.2817 -0.2770
 5432TIP3    H116302   4.439   0.856   4.117 -0.6955 -1.3082 -1.6966
 5432TIP3    H216303   4.572   0.787   4.100  0.2521  0.0490 -0.1292
 5433TIP3   OH216304   1.306   3.283   4.251  0.1813 -0.0439 -0.6175
 5433TIP3    H116305   1.257   3.213   4.209  0.1160 -0.0513 -0.5310
 5433TIP3    H216306   1.388   3.243   4.278  0.8611  0.3315 -2.0756
 5434TIP3   OH216307   2.515   1.190   1.897 -0.3742 -0.3109  0.5665
 5434TIP3    H116308   2.504   1.161   1.988  2.3563 -0.2033  1.0254
 5434TIP3    H216309   2.502   1.111   1.845  1.6243 -1.2631  1.3981
 5435TIP3   OH216310   5.295   2.041   5.149 -1.0750  0.1197  0.0720
 5435TIP3    H116311   5.199   2.050   5.150 -1.1393  0.4762 -2.2213
 5435TIP3    H216312   5.318   2.046   5.056  1.2371  0.5079  0.5982
 5436TIP3   OH216313   3.255   2.077   2.592  0.1175 -0.4569  0.5997
 5436TIP3    H116314   3.204   2.080   2.511  2.0083  0.2563 -0.6267
 5436TIP3    H216315   3.290   1.988   2.595  0.7835 -0.2216  0.1226
 5437TIP3   OH216316   1.605   1.949   1.216  0.1158  0.0982  0.1163
 5437TIP3    H116317   1.608   2.001   1.135  1.1181 -0.4254 -0.2163
 5437TIP3    H216318   1.524   1.899   1.209  0.8944 -1.0678 -1.3355
 5438TIP3   OH216319   0.095   5.207   1.574 -0.1580 -0.6631 -0.4467
 5438TIP3    H116320   0.151   5.284   1.571 -0.9859 -0.0666 -0.9516
 5438TIP3    H216321   0.156   5.134   1.589  0.4803  0.2328  1.7284
 5439TIP3   OH216322   3.721   3.569   1.677  0.1457  0.1876 -0.2435
 5439TIP3    H116323   3.690   3.519   1.601  1.3495  1.0687 -1.3390
 5439TIP3    H216324   3.714   3.507   1.750  1.9766 -1.7730 -1.6233
 5440TIP3   OH216325   6.122   1.135   3.025 -0.3588  0.3671 -0.0862
 5440TIP3    H116326   6.193   1.199   3.025  0.1860 -0.2246  0.0407
 5440TIP3    H216327   6.044   1.184   3.053  0.0289  0.9914 -0.1052
 5441TIP3   OH216328   6.157   2.058   0.662  0.2627  0.2784 -0.1058
 5441TIP3    H116329   6.079   2.003   0.655 -1.4069  2.5262 -0.3050
 5441TIP3    H216330   6.135   2.122   0.730  1.9854  0.9281 -0.1108
 5442TIP3   OH216331   2.865   2.215   1.400 -0.3467 -0.5245 -0.3412
 5442TIP3    H116332   2.828   2.149   1.459  1.3292 -0.8650  0.3758
 5442TIP3    H216333   2.792   2.239   1.343 -0.9561 -3.1337 -0.7752
 5443TIP3   OH216334   1.333   3.502   2.263 -0.2042  0.5524  0.8011
 5443TIP3    H116335   1.400   3.516   2.196 -0.1311  1.7489  1.1030
 5443TIP3    H216336   1.258   3.467   2.215 -0.7790  3.0161 -0.2563
 5444TIP3   OH216337   5.394   4.770   2.483  0.3439 -0.6548  0.3166
 5444TIP3    H116338   5.451   4.765   2.406 -0.5654 -2.2311 -0.3049
 5444TIP3    H216339   5.320   4.823   2.455  1.4635  1.4744  1.1547
 5445TIP3   OH216340   4.487   2.382   3.510 -0.0733 -0.0005  0.2851
 5445TIP3    H116341   4.402   2.415   3.539  0.6655  1.6596  0.6893
 5445TIP3    H216342   4.541   2.460   3.501  0.4340 -0.5907 -3.4188
 5446TIP3   OH216343   5.966   4.148   3.753 -0.7088 -0.1972 -0.4092
 5446TIP3    H116344   5.885   4.197   3.739  0.4861  1.7438 -0.9414
 5446TIP3    H216345   6.010   4.195   3.824 -0.0798 -1.2905 -0.0539
 5447TIP3   OH216346   0.537  -0.005   2.917 -0.4763 -0.2342  0.3686
 5447TIP3    H116347   0.458   0.034   2.879 -0.9880 -2.5934 -1.2240
 5447TIP3    H216348   0.524   0.003   3.011 -1.1848  2.0469  0.1448
 5448TIP3   OH216349   2.968   5.168   0.528 -0.2222  0.2788  0.1178
 5448TIP3    H116350   2.927   5.254   0.527 -0.3828  0.1972 -0.2376
 5448TIP3    H216351   2.961   5.140   0.619 -0.9972  0.2472  0.0542
 5449TIP3   OH216352   2.532   4.961   3.149  0.2811 -0.9033  0.4534
 5449TIP3    H116353   2.467   4.942   3.082 -1.5042  0.4107  1.7034
 5449TIP3    H216354   2.552   5.054   3.138  0.8702 -0.9560  0.9782
 5450TIP3   OH216355   4.366   1.985   2.815  0.1418  0.3058  0.5949
 5450TIP3    H116356   4.406   1.980   2.902  1.1300  0.1782  0.1442
 5450TIP3    H216357   4.358   1.894   2.786  0.6849  0.3902  0.1695
 5451TIP3   OH216358   2.394   3.043   0.260  0.5730 -0.0689 -0.9430
 5451TIP3    H116359   2.460   3.111   0.246  0.5933  0.2929  0.6933
 5451TIP3    H216360   2.329   3.058   0.192  2.1728 -0.4861 -2.6641
 5452TIP3   OH216361   5.639   3.009   3.147  0.0259  0.1552 -0.1165
 5452TIP3    H116362   5.635   3.041   3.057  1.9387  1.6192  0.2436
 5452TIP3    H216363   5.584   3.070   3.196 -0.6144 -0.3452 -0.1969
 5453TIP3   OH216364   2.380   5.138   4.494 -0.1231  0.0043  0.1540
 5453TIP3    H116365   2.349   5.114   4.581 -1.6968 -1.4062 -0.7436
 5453TIP3    H216366   2.355   5.230   4.484  0.8159  0.4272  1.4755
 5454TIP3   OH216367   1.211   4.904   2.342 -0.4543 -0.0230 -0.2172
 5454TIP3    H116368   1.121   4.904   2.311 -0.7861  1.7212  0.6266
 5454TIP3    H216369   1.232   4.997   2.356  0.4313 -0.5537  2.5049
 5455TIP3   OH216370   4.502   5.559   4.193  0.4784  0.3739 -0.2406
 5455TIP3    H116371   4.441   5.633   4.193 -0.1993 -0.0481 -3.1049
 5455TIP3    H216372   4.451   5.485   4.226  0.5595  0.7611  0.7711
 5456TIP3   OH216373   3.531   3.455   4.894  0.6647  0.1487 -0.1441
 5456TIP3    H116374   3.579   3.491   4.968 -0.8258  1.0270  0.4258
 5456TIP3    H216375   3.496   3.531   4.848 -2.5165 -0.4191  1.0552
 5457TIP3   OH216376   2.089   2.347   0.057  0.7251  0.5199  0.0631
 5457TIP3    H116377   2.184   2.337   0.054  0.6751  0.0425  0.0276
 5457TIP3    H216378   2.056   2.262   0.087  0.3149  0.7090  0.1612
 5458TIP3   OH216379   4.710   1.669   4.793 -0.1500  0.3905 -0.9678
 5458TIP3    H116380   4.718   1.717   4.711 -0.2139  1.5939 -0.3005
 5458TIP3    H216381   4.754   1.725   4.857 -1.1646  0.0763  0.0396
 5459TIP3   OH216382   0.857   2.581   0.693  0.1354 -0.7106 -0.2870
 5459TIP3    H116383   0.889   2.615   0.776 -0.1059  0.3954 -0.6309
 5459TIP3    H216384   0.935   2.572   0.639  0.1253  0.0446 -0.4429
 5460TIP3   OH216385   4.531   2.453   2.915 -0.6017 -0.6305  0.0231
 5460TIP3    H116386   4.567   2.410   2.837 -2.9787 -1.7331 -0.5410
 5460TIP3    H216387   4.476   2.523   2.880  0.2242  0.4526  0.8301
 5461TIP3   OH216388   2.611   1.532   3.602 -0.4516 -0.2637  0.6056
 5461TIP3    H116389   2.571   1.486   3.529 -0.9363  0.6619  0.2712
 5461TIP3    H216390   2.568   1.496   3.680 -0.3556 -0.8321  0.3960
 5462TIP3   OH216391   5.304   5.170   0.645  0.2513 -0.1212  0.0605
 5462TIP3    H116392   5.215   5.137   0.637  0.3052 -1.0862  2.5939
 5462TIP3    H216393   5.296   5.252   0.694  0.6907  0.4003 -0.7083
 5463TIP3   OH216394   2.255   1.184   1.165  0.1445  0.4524 -0.0026
 5463TIP3    H116395   2.206   1.103   1.154  1.1036 -0.1598  0.0940
 5463TIP3    H216396   2.223   1.221   1.247 -0.0047 -0.0462  0.1675
 5464TIP3   OH216397   4.020   0.910   4.546  0.0150  0.4219 -0.0307
 5464TIP3    H116398   3.946   0.881   4.495 -0.0201  1.2579 -0.4787
 5464TIP3    H216399   3.991   0.903   4.637  0.0737 -1.0538 -0.1072
 5465TIP3   OH216400   2.023   3.252   0.422  0.6081 -0.5156 -0.4400
 5465TIP3    H116401   1.994   3.311   0.491 -0.5635 -2.6859  1.0324
 5465TIP3    H216402   2.082   3.305   0.368 -0.2903  1.9188  0.8370
 5466TIP3   OH216403   3.555   0.344   0.849 -0.5932 -0.0659  0.1831
 5466TIP3    H116404   3.622   0.278   0.868 -2.2214 -1.5827  0.9274
 5466TIP3    H216405   3.598   0.405   0.790  0.7743 -2.2491 -1.2309
 5467TIP3   OH216406   1.012   0.531   2.234  0.1665  0.1068  0.0542
 5467TIP3    H116407   1.012   0.436   2.243  0.2727  0.0614 -0.4046
 5467TIP3    H216408   0.935   0.550   2.180  0.4814  0.2303 -0.3526
 5468TIP3   OH216409   1.646   0.375   4.748 -0.1541  0.5749 -0.4418
 5468TIP3    H116410   1.706   0.324   4.803  0.1098  0.3234 -0.9622
 5468TIP3    H216411   1.699   0.447   4.715 -0.1705  0.4161 -0.8130
 5469TIP3   OH216412   5.497   4.065   1.156 -0.0231  0.1247  0.2338
 5469TIP3    H116413   5.439   4.027   1.222 -1.3346  0.7878 -0.4830
 5469TIP3    H216414   5.459   4.038   1.072  2.0841 -1.4086 -0.2935
 5470TIP3   OH216415   2.482   4.032   1.538  0.5903 -0.0134  0.3410
 5470TIP3    H116416   2.421   4.034   1.612  0.9753  0.1001  0.6637
 5470TIP3    H216417   2.559   3.985   1.572  0.5353 -0.4863 -0.1785
 5471TIP3   OH216418   0.413   0.482   2.966 -0.0189 -0.2627  0.3355
 5471TIP3    H116419   0.353   0.518   2.901 -0.5255  2.0461  1.9291
 5471TIP3    H216420   0.357   0.438   3.029  0.1951 -0.2712  0.5212
 5472TIP3   OH216421   1.295   4.697   4.281  0.1021  0.1097 -0.2577
 5472TIP3    H116422   1.347   4.617   4.273  0.2251  0.2321 -0.6929
 5472TIP3    H216423   1.345   4.764   4.234  1.6286  1.2556  2.7435
 5473TIP3   OH216424   3.706   5.203   0.075 -0.1304 -0.2774 -0.1905
 5473TIP3    H116425   3.785   5.254   0.059  0.1770 -0.9733 -0.9916
 5473TIP3    H216426   3.637   5.269   0.086  0.8847  0.4479  2.8718
 5474TIP3   OH216427   6.311   0.875   4.979 -0.2776 -0.5333 -0.1118
 5474TIP3    H116428   6.305   0.824   5.060 -0.0428  1.0278  0.9375
 5474TIP3    H216429   6.248   0.834   4.920 -0.6503 -1.5470  0.9551
 5475TIP3   OH216430   4.589   3.743   2.836 -0.2168 -0.2110 -0.3588
 5475TIP3    H116431   4.601   3.705   2.749 -0.7696 -0.2844 -0.4049
 5475TIP3    H216432   4.595   3.669   2.896 -0.2712 -0.2255 -0.3707
 5476TIP3   OH216433   2.087   1.737   4.442 -0.4289 -0.5298 -0.1906
 5476TIP3    H116434   2.146   1.706   4.373 -0.4961 -0.4617 -0.2795
 5476TIP3    H216435   2.141   1.739   4.521  0.5223  2.2166 -0.7878
 5477TIP3   OH216436   6.291   4.496   1.775  0.0581  0.1481 -0.0112
 5477TIP3    H116437   6.230   4.570   1.782  1.9486  1.8260 -0.2874
 5477TIP3    H216438   6.317   4.495   1.683 -0.8958 -1.7428 -0.3185
 5478TIP3   OH216439   1.189   5.101   5.123  0.1773  0.6985  0.6133
 5478TIP3    H116440   1.282   5.125   5.127  0.9211 -1.8188  0.1554
 5478TIP3    H216441   1.150   5.166   5.063  1.9263  1.0131 -0.2547
 5479TIP3   OH216442   2.153   2.540   4.185 -0.2166  0.3759  0.3819
 5479TIP3    H116443   2.059   2.525   4.177 -0.1538 -1.7313  2.4485
 5479TIP3    H216444   2.179   2.489   4.262  2.9757 -0.9504 -1.3515
 5480TIP3   OH216445   2.790   3.060   1.901  0.1587  0.0858  0.3517
 5480TIP3    H116446   2.737   3.139   1.908 -0.0937 -0.0754  0.2437
 5480TIP3    H216447   2.813   3.040   1.992  0.3175  0.3450  0.3720
 5481TIP3   OH216448   0.589   2.932   1.967  0.0883 -0.8388 -0.3044
 5481TIP3    H116449   0.537   2.940   2.048  0.7552  1.0798 -0.0086
 5481TIP3    H216450   0.669   2.887   1.994 -0.6133 -2.1824 -0.3853
 5482TIP3   OH216451   4.800   2.052   5.063 -0.2733 -0.4039  0.3141
 5482TIP3    H116452   4.823   1.989   4.994 -1.0076  0.6688 -0.9640
 5482TIP3    H216453   4.704   2.051   5.065 -0.2727 -1.8682  2.7540
 5483TIP3   OH216454   0.229   2.918   3.854  0.0942  0.1714 -0.3725
 5483TIP3    H116455   0.270   2.984   3.909 -0.0706 -0.8482  1.0578
 5483TIP3    H216456   0.139   2.912   3.887 -0.2739  0.1550 -1.3487
 5484TIP3   OH216457   3.479   5.023   2.955  0.1401 -0.3858 -0.1500
 5484TIP3    H116458   3.495   5.057   2.867 -0.8242 -0.5804 -0.4222
 5484TIP3    H216459   3.470   4.929   2.943 -2.1901 -0.2167 -0.2401
 5485TIP3   OH216460   4.510   5.589   2.798  0.0676  0.2792  0.3107
 5485TIP3    H116461   4.542   5.676   2.774 -0.6353  0.0802 -1.5547
 5485TIP3    H216462   4.484   5.597   2.889  0.3575  1.9188  0.2788
 5486TIP3   OH216463   5.544   4.082   3.469  0.1687  0.1143 -0.2693
 5486TIP3    H116464   5.451   4.067   3.452 -0.1542  0.4024  1.0658
 5486TIP3    H216465   5.553   4.066   3.563  1.8181 -1.5310 -0.6493
 5487TIP3   OH216466   3.905   1.496   4.725  0.1823  0.3858  0.3613
 5487TIP3    H116467   3.871   1.459   4.644  2.1672 -0.0584 -0.3227
 5487TIP3    H216468   3.828   1.534   4.768 -1.0409 -0.0196 -1.3532
 5488TIP3   OH216469   2.311   2.544   5.050 -0.3834 -0.4619  0.1166
 5488TIP3    H116470   2.360   2.528   4.970 -0.1515 -1.0719  0.3764
 5488TIP3    H216471   2.377   2.550   5.119 -0.5730  0.1524  0.2547
 5489TIP3   OH216472   1.794   4.722   4.868 -0.0232  0.1981  0.1061
 5489TIP3    H116473   1.745   4.667   4.930 -1.9003 -1.8638 -2.9275
 5489TIP3    H216474   1.863   4.665   4.836  1.8363  1.7173  1.2351
 5490TIP3   OH216475   0.760   4.213   5.117 -1.0019 -0.1235  0.2062
 5490TIP3    H116476   0.690   4.258   5.164 -0.8502 -0.3719  0.6834
 5490TIP3    H216477   0.724   4.126   5.100 -1.2539  0.1331 -0.6145
 5491TIP3   OH216478   4.117   4.365   2.431  0.0097 -0.1364 -0.4493
 5491TIP3    H116479   4.113   4.271   2.413 -2.4888 -0.1538 -0.1410
 5491TIP3    H216480   4.090   4.407   2.349  2.0807  0.4056 -0.9029
 5492TIP3   OH216481   2.550   0.833   3.722 -0.1390  0.7411 -0.0226
 5492TIP3    H116482   2.577   0.749   3.687  1.4548  1.5321 -0.7939
 5492TIP3    H216483   2.565   0.825   3.817 -0.6894 -0.0564  0.0102
 5493TIP3   OH216484   3.247   0.632   2.036 -0.0586  0.1149  0.0318
 5493TIP3    H116485   3.267   0.561   1.975 -1.2229 -0.4512  0.2796
 5493TIP3    H216486   3.310   0.701   2.015  1.2839 -1.1068 -0.0145
 5494TIP3   OH216487   3.819   0.782   4.446  0.5413 -0.2788 -0.0063
 5494TIP3    H116488   3.800   0.714   4.381  1.2348  0.7393 -1.3566
 5494TIP3    H216489   3.771   0.859   4.414  1.3488  0.3979  0.3645
 5495TIP3   OH216490   0.860   1.290   1.737 -0.4584  0.2153  0.1045
 5495TIP3    H116491   0.816   1.337   1.808 -1.8366 -0.1753 -0.4485
 5495TIP3    H216492   0.804   1.305   1.660 -0.4461 -1.5536 -0.2936
 5496TIP3   OH216493   2.113   1.413   2.558 -0.3235 -0.7336  0.2949
 5496TIP3    H116494   2.114   1.507   2.536  1.7219 -0.7339  0.2007
 5496TIP3    H216495   2.042   1.377   2.504 -0.7126  0.6475 -0.1685
 5497TIP3   OH216496   1.086   3.959   2.947 -0.8930  0.0722  0.1794
 5497TIP3    H116497   1.091   4.043   2.993  2.7205  0.8459 -1.2681
 5497TIP3    H216498   1.079   3.894   3.016  0.7369  1.3788  1.6717
 5498TIP3   OH216499   6.187   0.601   2.963  0.1473  0.0561  0.3905
 5498TIP3    H116500   6.127   0.579   3.034 -0.0087 -0.4539  0.1041
 5498TIP3    H216501   6.198   0.696   2.970 -1.7383  0.3770 -0.3412
 5499TIP3   OH216502   3.286   4.057   2.528 -0.1077  0.1325 -0.5155
 5499TIP3    H116503   3.207   4.064   2.582 -1.3675 -1.1809 -2.0809
 5499TIP3    H216504   3.279   4.130   2.466 -0.9160 -0.8161 -1.5956
 5500TIP3   OH216505   5.791   2.766   4.237  0.2368 -0.2727  0.0322
 5500TIP3    H116506   5.829   2.838   4.186 -0.6726 -0.1570 -0.4929
 5500TIP3    H216507   5.772   2.804   4.322  1.2074 -0.3099  0.2773
 5501TIP3   OH216508   3.174   4.691   2.219 -0.0761  0.0164  0.0386
 5501TIP3    H116509   3.172   4.621   2.154 -2.4203 -1.1560  1.2147
 5501TIP3    H216510   3.235   4.660   2.286 -0.0247 -0.2421 -0.1283
 5502TIP3   OH216511   3.337   5.591   3.377 -0.7284  0.5134  0.5258
 5502TIP3    H116512   3.285   5.566   3.300  0.2384 -0.2193  0.0807
 5502TIP3    H216513   3.409   5.643   3.341 -0.4463  0.4399  0.9756
 5503TIP3   OH216514   5.121   0.470   1.410  0.3214 -0.3658 -0.1527
 5503TIP3    H116515   5.084   0.558   1.422  0.9318 -0.1264 -0.0051
 5503TIP3    H216516   5.200   0.469   1.464 -0.6205 -1.6080  1.3099
 5504TIP3   OH216517   4.582   4.664   4.001 -0.0632  0.2232 -0.4290
 5504TIP3    H116518   4.582   4.581   4.049  1.8193  1.4971  1.9491
 5504TIP3    H216519   4.509   4.713   4.038  0.9127  0.9002  0.6751
 5505TIP3   OH216520   4.238   1.530   3.761 -0.1491  0.3417 -0.7914
 5505TIP3    H116521   4.160   1.521   3.817  0.1623 -2.0225 -0.6257
 5505TIP3    H216522   4.203   1.545   3.674 -0.9120 -1.6262 -0.8895
 5506TIP3   OH216523   0.621   2.790   2.500 -0.2417 -0.2069  0.2280
 5506TIP3    H116524   0.711   2.814   2.480 -0.9846  2.1549 -0.6078
 5506TIP3    H216525   0.591   2.856   2.562 -2.5915  1.7216 -2.6518
 5507TIP3   OH216526   0.057   5.593   0.819 -0.0724  0.2509  0.0404
 5507TIP3    H116527   0.041   5.593   0.914  0.1943  0.4640  0.0866
 5507TIP3    H216528  -0.004   5.659   0.785 -0.6140 -0.2741 -0.0154
 5508TIP3   OH216529   2.397   2.772   0.367 -0.1649 -0.0700 -0.4783
 5508TIP3    H116530   2.397   2.851   0.314  0.6231 -0.6502 -1.3606
 5508TIP3    H216531   2.347   2.708   0.315 -1.2726 -0.0129  0.4685
 5509TIP3   OH216532   5.363   2.945   0.071 -0.1087  0.1467  1.0284
 5509TIP3    H116533   5.397   2.960  -0.017  1.5284 -0.4742  1.5220
 5509TIP3    H216534   5.323   3.028   0.095 -3.0388 -0.4202 -1.2770
 5510TIP3   OH216535   4.940   2.281   4.378 -0.0299 -0.2236 -0.6719
 5510TIP3    H116536   4.946   2.338   4.454 -0.4812 -1.5115  0.3729
 5510TIP3    H216537   5.031   2.263   4.354  0.1321 -0.5500  0.1535
 5511TIP3   OH216538   2.466   3.928   3.619  0.0962  0.1171  0.1676
 5511TIP3    H116539   2.463   3.921   3.714 -0.8853  0.8387  0.2141
 5511TIP3    H216540   2.530   3.862   3.591  0.1087 -0.3664  1.2937
 5512TIP3   OH216541   5.858   0.870   0.684 -0.2734 -0.6263  0.3254
 5512TIP3    H116542   5.953   0.879   0.680 -0.2204 -0.4064  1.7655
 5512TIP3    H216543   5.841   0.785   0.642  0.4455 -0.2415 -0.8084
 5513TIP3   OH216544   4.259   3.275   4.137  0.4575  0.5653  0.4051
 5513TIP3    H116545   4.349   3.292   4.165  0.4009 -0.0469  0.9883
 5513TIP3    H216546   4.217   3.238   4.215 -0.0178 -0.1121 -0.1662
 5514TIP3   OH216547   0.204   1.323   4.962  0.4402 -0.2075 -0.3230
 5514TIP3    H116548   0.182   1.382   4.889 -1.8677  1.0104  1.2282
 5514TIP3    H216549   0.138   1.341   5.028  2.8861 -0.6690  2.4647
 5515TIP3   OH216550   3.396   2.906   0.283  0.4939 -0.3553  0.4735
 5515TIP3    H116551   3.332   2.881   0.216  2.2784 -0.5339 -1.2344
 5515TIP3    H216552   3.391   3.002   0.286 -0.4566 -0.4054  1.0140
 5516TIP3   OH216553   4.155   1.737   0.153 -0.1594  0.4544  0.5895
 5516TIP3    H116554   4.107   1.770   0.077  0.6688 -0.9969 -0.6151
 5516TIP3    H216555   4.093   1.743   0.225 -1.8825 -0.5259 -0.7364
 5517TIP3   OH216556   1.306   4.388   2.298  0.0848 -0.0598  0.0694
 5517TIP3    H116557   1.397   4.373   2.321 -0.0113 -0.8068 -0.0043
 5517TIP3    H216558   1.306   4.389   2.202 -0.3550 -2.8077 -0.0423
 5518TIP3   OH216559   6.119   2.395   0.543 -0.5078  0.3396 -0.6295
 5518TIP3    H116560   6.180   2.384   0.616  0.3991 -2.3224 -1.6672
 5518TIP3    H216561   6.034   2.408   0.585  0.2792  0.9680  0.8594
 5519TIP3   OH216562   4.105   4.683   4.242 -0.5650  0.1551  0.2926
 5519TIP3    H116563   4.036   4.681   4.308  0.0180 -2.0858  0.9457
 5519TIP3    H216564   4.171   4.621   4.275  1.1067  1.1796 -0.9801
 5520TIP3   OH216565   0.370   3.368   0.425 -0.3754  0.6406 -0.4859
 5520TIP3    H116566   0.417   3.397   0.347  0.2893 -1.6527 -1.0216
 5520TIP3    H216567   0.390   3.434   0.492  3.8017 -0.1984 -0.6279
 5521TIP3   OH216568   0.275   2.928   1.722 -0.0796  0.1453  0.1493
 5521TIP3    H116569   0.263   2.954   1.630 -1.2515 -1.4961 -0.2076
 5521TIP3    H216570   0.359   2.966   1.747  1.4270 -1.2918 -2.3259
 5522TIP3   OH216571   5.695   5.809   3.838  0.5378  0.0545 -0.4256
 5522TIP3    H116572   5.631   5.741   3.816  0.4297  0.5849 -1.8775
 5522TIP3    H216573   5.642   5.887   3.854  0.7841  0.5006 -1.6472
 5523TIP3   OH216574   5.603   5.057   3.215 -0.4096  0.3096 -0.6061
 5523TIP3    H116575   5.586   4.978   3.164 -0.9370 -0.1780  0.3044
 5523TIP3    H216576   5.594   5.128   3.152  0.4172 -0.3702 -1.5125
 5524TIP3   OH216577   0.730   3.825   3.118  0.0180  0.6530  0.1442
 5524TIP3    H116578   0.678   3.754   3.157  0.2956  1.6652  2.5538
 5524TIP3    H216579   0.775   3.785   3.044 -1.5504 -1.0907  0.0625
 5525TIP3   OH216580   3.659   0.370   4.008 -0.1561 -0.0475 -0.3368
 5525TIP3    H116581   3.599   0.319   3.954  1.2133 -1.0922 -0.9316
 5525TIP3    H216582   3.746   0.341   3.982  0.6244  1.2428  0.6741
 5526TIP3   OH216583   4.319   3.830   2.854 -0.1610 -0.5202 -0.6200
 5526TIP3    H116584   4.297   3.874   2.772  0.2595  1.5466  0.3006
 5526TIP3    H216585   4.410   3.805   2.845 -0.0983 -0.2374 -0.7725
 5527TIP3   OH216586   5.629   0.131   0.212  0.1117  0.2017  0.2070
 5527TIP3    H116587   5.675   0.050   0.188 -0.7133 -0.5549  1.0906
 5527TIP3    H216588   5.620   0.125   0.308 -0.1537  1.2358  0.2529
 5528TIP3   OH216589   2.571   0.807   3.983 -0.6883 -0.1081  0.0790
 5528TIP3    H116590   2.538   0.830   4.070  0.8569  0.3436  0.5709
 5528TIP3    H216591   2.651   0.757   4.000 -0.7575 -0.6570 -1.0856
 5529TIP3   OH216592   5.142   5.545   2.907  0.0696  0.5003 -0.4182
 5529TIP3    H116593   5.210   5.597   2.863  0.1465  0.7044 -0.0635
 5529TIP3    H216594   5.151   5.457   2.870  1.3952  0.1979  0.5475
 5530TIP3   OH216595   2.526   2.704   3.686  0.0348  0.5138  0.2563
 5530TIP3    H116596   2.437   2.738   3.684  0.2632  1.0758 -1.4600
 5530TIP3    H216597   2.548   2.701   3.780 -1.7990  0.2451  0.7266
 5531TIP3   OH216598   5.239   3.871   1.120 -0.6887 -0.1663  0.2858
 5531TIP3    H116599   5.328   3.861   1.155 -0.5526  0.6667  0.1870
 5531TIP3    H216600   5.188   3.802   1.164  0.6352 -2.7473 -1.8901
 5532TIP3   OH216601   2.718   1.229   1.031 -0.0209 -0.0802  0.3204
 5532TIP3    H116602   2.691   1.241   1.122  1.2307 -1.0230  0.8514
 5532TIP3    H216603   2.807   1.194   1.037 -0.1806 -0.8530 -1.2414
 5533TIP3   OH216604   3.695   5.777   0.732 -0.2209 -0.4489  0.8039
 5533TIP3    H116605   3.615   5.822   0.760  0.4323 -0.0934  2.1675
 5533TIP3    H216606   3.759   5.847   0.718  0.1018 -0.7932  0.5369
 5534TIP3   OH216607   1.848   0.294   0.701  0.0116 -0.0375  0.0326
 5534TIP3    H116608   1.858   0.308   0.606 -1.0221 -1.1041 -0.2565
 5534TIP3    H216609   1.898   0.214   0.718 -1.2797 -0.8689  0.0342
 5535TIP3   OH216610   4.847   4.249   1.929  0.0133  0.6443  0.0769
 5535TIP3    H116611   4.789   4.301   1.873 -1.3509 -0.4166  0.4537
 5535TIP3    H216612   4.801   4.241   2.012 -0.2800 -1.8727 -0.2389
 5536TIP3   OH216613   1.464   5.899   1.613 -0.4410 -0.6083 -0.3078
 5536TIP3    H116614   1.543   5.949   1.635 -0.8977 -0.6888  1.6656
 5536TIP3    H216615   1.446   5.921   1.522  0.4558  1.3374 -0.0498
 5537TIP3   OH216616   2.691   2.506   3.434 -1.0836 -0.3814  0.3722
 5537TIP3    H116617   2.660   2.527   3.347  0.7723  0.9390 -0.0160
 5537TIP3    H216618   2.745   2.581   3.460  1.4911 -2.3097  1.0850
 5538TIP3   OH216619   5.457   2.633   2.107  0.0285  0.5662  0.2675
 5538TIP3    H116620   5.421   2.552   2.143  0.8341  0.4626  0.8486
 5538TIP3    H216621   5.380   2.688   2.091 -0.6061 -0.6265 -0.9602
 5539TIP3   OH216622   1.519   3.903   2.839  0.5599 -0.0568  0.0444
 5539TIP3    H116623   1.466   3.889   2.760  1.7736  0.0120 -0.8052
 5539TIP3    H216624   1.528   3.816   2.877 -1.1719  0.0846  0.9097
 5540TIP3   OH216625   5.470   5.265   1.035  0.4671 -0.0401  0.1996
 5540TIP3    H116626   5.431   5.192   0.986  0.8144  0.6741 -1.1906
 5540TIP3    H216627   5.559   5.272   1.001  0.5859  0.7364  0.6564
 5541TIP3   OH216628   5.328   4.395   4.730 -0.0732  0.1076  0.1462
 5541TIP3    H116629   5.307   4.304   4.747  1.4125 -0.5930 -1.5079
 5541TIP3    H216630   5.249   4.443   4.756 -1.0143 -1.6591  0.6943
 5542TIP3   OH216631   0.705   1.185   3.828  0.5593 -0.2961 -0.3001
 5542TIP3    H116632   0.769   1.254   3.843 -0.1285  0.6405 -1.5122
 5542TIP3    H216633   0.661   1.175   3.913  0.4419  0.9964 -0.1952
 5543TIP3   OH216634   3.006   4.011   2.615 -0.2892  0.0082  0.2596
 5543TIP3    H116635   3.013   4.021   2.710 -0.3625  2.6349  0.0439
 5543TIP3    H216636   3.008   4.100   2.581 -0.4905 -0.8614 -2.2151
 5544TIP3   OH216637   5.808   5.046   3.889  0.4480 -0.3983  0.1156
 5544TIP3    H116638   5.715   5.061   3.869  0.5211 -1.2786 -1.0365
 5544TIP3    H216639   5.855   5.099   3.825  0.7639  0.7760  1.2969
 5545TIP3   OH216640   3.635   3.857   2.459 -0.4006 -0.1885 -0.1837
 5545TIP3    H116641   3.646   3.769   2.424  1.8176  0.3434 -1.0275
 5545TIP3    H216642   3.580   3.902   2.395 -0.8517 -0.7144 -0.1714
 5546TIP3   OH216643   3.095   3.506   0.128 -0.1009  0.5896  0.4036
 5546TIP3    H116644   3.185   3.481   0.109 -0.1019 -0.6067  1.7801
 5546TIP3    H216645   3.068   3.559   0.053  0.6193 -1.8661 -1.7022
 5547TIP3   OH216646   0.403   4.142   1.199 -0.2757  0.0432  0.4461
 5547TIP3    H116647   0.448   4.219   1.235  0.3537 -1.1907  2.4589
 5547TIP3    H216648   0.473   4.088   1.163 -0.6779  0.2180 -0.6402
 5548TIP3   OH216649   4.932   5.854   0.048 -0.4789  0.3648 -0.0839
 5548TIP3    H116650   4.873   5.799  -0.004 -0.9297 -0.1458  0.9369
 5548TIP3    H216651   4.992   5.892  -0.016 -1.4051  0.2534 -1.0510
 5549TIP3   OH216652   4.289   2.892   0.316 -0.2228  0.0565 -0.4821
 5549TIP3    H116653   4.233   2.871   0.241 -1.4687  1.7918 -0.0945
 5549TIP3    H216654   4.230   2.894   0.391  1.1069 -2.3424  0.7732
 5550TIP3   OH216655   2.084   5.519   2.554  1.2042 -0.2997 -0.3868
 5550TIP3    H116656   2.032   5.503   2.475  0.6642  1.4156 -0.4080
 5550TIP3    H216657   2.023   5.501   2.626  1.1275 -0.0328 -0.3855
 5551TIP3   OH216658   5.445   1.334   4.237  0.4162 -0.2653 -0.2077
 5551TIP3    H116659   5.535   1.336   4.267  0.3275 -1.7964  0.2322
 5551TIP3    H216660   5.424   1.241   4.230 -0.4563  0.0183 -2.3459
 5552TIP3   OH216661   6.279   1.363   1.069 -0.2806 -0.0617 -0.0498
 5552TIP3    H116662   6.184   1.370   1.060 -0.3731 -1.0936 -0.0164
 5552TIP3    H216663   6.295   1.269   1.082  0.5626  0.2867  1.8871
 5553TIP3   OH216664   4.731   1.637   4.138  0.3797  0.2592 -0.4304
 5553TIP3    H116665   4.793   1.699   4.175  1.2215  0.0696 -1.4923
 5553TIP3    H216666   4.700   1.678   4.057 -0.5045  0.1290 -0.1747
 5554TIP3   OH216667   0.207   0.036   0.247  0.6118 -0.0312  0.0048
 5554TIP3    H116668   0.284   0.033   0.191 -0.0947 -0.9149 -0.9648
 5554TIP3    H216669   0.133   0.038   0.187 -0.1405  0.2453  0.9127
 5555TIP3   OH216670   3.725   3.083   0.907  0.2799  0.3123  0.1893
 5555TIP3    H116671   3.723   3.121   0.994 -1.5791  1.2219 -0.2026
 5555TIP3    H216672   3.692   2.994   0.918 -0.3333  0.5565  0.3861
 5556TIP3   OH216673   6.031   5.560   1.316 -0.0448  0.5452  0.0681
 5556TIP3    H116674   6.039   5.504   1.239 -1.5757 -0.6328  0.6939
 5556TIP3    H216675   6.119   5.593   1.332  1.2210 -2.5914  0.2697
 5557TIP3   OH216676   3.770   5.734   2.005  0.0284  0.1891 -0.2078
 5557TIP3    H116677   3.834   5.665   1.987 -0.8182 -0.7231  0.1680
 5557TIP3    H216678   3.689   5.686   2.027 -0.9261  1.3067 -1.1787
 5558TIP3   OH216679   5.264   3.784   1.556 -0.2713  0.0562  0.1562
 5558TIP3    H116680   5.264   3.858   1.617 -0.0875  0.4362 -0.2961
 5558TIP3    H216681   5.263   3.707   1.612  0.2498  0.3948  0.6414
 5559TIP3   OH216682   5.777   1.289   0.700 -0.0762  0.5917  0.1661
 5559TIP3    H116683   5.714   1.222   0.675  0.5639 -0.0167  0.1602
 5559TIP3    H216684   5.763   1.360   0.638  0.1615 -0.0965 -0.6896
 5560TIP3   OH216685   1.206   4.444   3.441  0.1890 -0.2502  0.0913
 5560TIP3    H116686   1.153   4.395   3.503  1.1357  0.3728  1.4348
 5560TIP3    H216687   1.142   4.498   3.394 -0.7234 -1.8393 -0.6022
 5561TIP3   OH216688   0.096   2.903   0.822  0.2366  0.0143  0.0699
 5561TIP3    H116689   0.052   2.944   0.746  1.2027  1.2644  0.1466
 5561TIP3    H216690   0.034   2.915   0.894 -0.0772  0.1092 -0.2093
 5562TIP3   OH216691   0.481   2.533   3.649  0.1463 -0.3953  0.1684
 5562TIP3    H116692   0.558   2.577   3.613 -1.0855  0.7159 -1.2280
 5562TIP3    H216693   0.438   2.600   3.703  1.2536 -1.6443  2.7941
 5563TIP3   OH216694   1.928   5.898   3.951  0.1924 -0.1793  0.2886
 5563TIP3    H116695   1.886   5.816   3.926  0.7552 -0.3827 -0.0046
 5563TIP3    H216696   1.989   5.874   4.021  0.3051 -0.0001  0.2534
 5564TIP3   OH216697   0.143   1.679   1.744 -0.4275 -0.4839 -0.0490
 5564TIP3    H116698   0.137   1.708   1.653  0.0932  0.1272  0.1098
 5564TIP3    H216699   0.054   1.650   1.765 -0.9692  1.0086 -0.2054
 5565TIP3   OH216700   3.314   0.338   4.517  0.2805  0.2980  0.1172
 5565TIP3    H116701   3.403   0.350   4.550 -0.3101  0.5406  1.7024
 5565TIP3    H216702   3.260   0.333   4.595 -1.0945 -0.0053 -0.8179
 5566TIP3   OH216703   2.419   4.756   1.232 -0.4284 -0.5534  0.5250
 5566TIP3    H116704   2.381   4.842   1.219 -1.4967 -1.1416 -0.4385
 5566TIP3    H216705   2.345   4.699   1.252 -0.4910 -2.1021 -3.2672
 5567TIP3   OH216706   2.606   3.244   3.797 -0.0017  0.0884  1.1466
 5567TIP3    H116707   2.685   3.202   3.763 -0.0615  0.6909  0.2049
 5567TIP3    H216708   2.546   3.172   3.815 -0.3273 -0.2558 -1.0158
 5568TIP3   OH216709   3.932   4.094   2.215  0.0567 -0.0007 -0.2661
 5568TIP3    H116710   3.844   4.100   2.254 -0.3391  1.3519 -1.2754
 5568TIP3    H216711   3.928   4.016   2.160 -0.1808 -0.5194  0.4727
 5569TIP3   OH216712   1.197   4.202   3.193 -0.1276 -0.0130 -0.2034
 5569TIP3    H116713   1.201   4.295   3.170  0.8036  0.0809  0.2890
 5569TIP3    H216714   1.110   4.189   3.230 -0.4992  0.5157 -0.8832
 5570TIP3   OH216715   6.056   2.397   3.224  0.2233 -0.2122 -0.0245
 5570TIP3    H116716   6.117   2.440   3.164  0.8761  0.4185  1.0554
 5570TIP3    H216717   5.978   2.451   3.223  0.8498  0.7597  0.9306
 5571TIP3   OH216718   1.866   4.176   4.706  0.0971 -0.1176 -0.3641
 5571TIP3    H116719   1.930   4.155   4.774  0.6508  2.0827 -0.1025
 5571TIP3    H216720   1.796   4.112   4.718  0.9451 -0.8129  1.2012
 5572TIP3   OH216721   5.715   4.976   2.418  0.0375  0.9569  0.2600
 5572TIP3    H116722   5.785   4.924   2.380 -1.9394 -0.5866 -1.4620
 5572TIP3    H216723   5.671   4.917   2.479 -1.5829  0.8652 -0.9361
 5573TIP3   OH216724   5.084   1.100   5.154  0.4564  0.0964 -0.4272
 5573TIP3    H116725   5.095   1.054   5.071 -0.4752 -0.7956 -0.0719
 5573TIP3    H216726   5.004   1.151   5.143  0.6068  0.3739 -0.2505
 5574TIP3   OH216727   1.974   5.781   0.236 -0.2276  0.4791 -0.2629
 5574TIP3    H116728   1.905   5.803   0.172 -1.1133  1.0076  0.8345
 5574TIP3    H216729   1.926   5.751   0.313  0.8218 -0.0612  0.1958
 5575TIP3   OH216730   1.870   1.230   2.553 -0.2297  0.1352 -0.0939
 5575TIP3    H116731   1.908   1.214   2.639 -0.8028  0.9377  0.3253
 5575TIP3    H216732   1.797   1.169   2.548  0.6273 -0.8639 -0.5802
 5576TIP3   OH216733   3.603   2.018   2.728  0.1747  0.5965  0.2840
 5576TIP3    H116734   3.664   1.972   2.785  0.5425  0.0365 -0.5439
 5576TIP3    H216735   3.528   2.037   2.784 -0.7958 -2.6200  0.2905
 5577TIP3   OH216736   2.945   3.489   5.159  0.2934  0.4105  0.6266
 5577TIP3    H116737   3.019   3.431   5.139 -2.3260 -2.8713 -0.4976
 5577TIP3    H216738   2.925   3.531   5.075 -1.9902 -2.5691 -0.5196
 5578TIP3   OH216739   2.401   3.443   3.925  0.4798 -0.1864 -0.4391
 5578TIP3    H116740   2.342   3.415   3.996  0.1574 -2.3109 -1.4518
 5578TIP3    H216741   2.436   3.361   3.890  0.6215  0.7900 -2.7632
 5579TIP3   OH216742   3.886   4.434   4.734  0.4400 -0.1613 -0.6292
 5579TIP3    H116743   3.956   4.433   4.669 -0.4247  1.3461 -1.6517
 5579TIP3    H216744   3.823   4.370   4.702  1.6041 -2.0834  0.6878
 5580TIP3   OH216745   0.083   4.508   1.259  0.6988 -0.9715  0.1163
 5580TIP3    H116746   0.044   4.424   1.235  0.9202 -1.1748  0.4748
 5580TIP3    H216747   0.129   4.492   1.341  1.0203 -0.5812  0.0174
 5581TIP3   OH216748   5.275   4.416   3.607  0.3085 -0.1504  0.6501
 5581TIP3    H116749   5.302   4.455   3.523  0.3509  1.5525  1.4045
 5581TIP3    H216750   5.195   4.369   3.587  1.0007 -0.8564 -0.5927
 5582TIP3   OH216751   3.621   2.279   3.110 -0.1306 -0.4395 -0.1420
 5582TIP3    H116752   3.589   2.189   3.114 -0.4007 -0.3264  0.2654
 5582TIP3    H216753   3.716   2.270   3.112 -0.1579 -0.7084  0.0038
 5583TIP3   OH216754   0.227   4.987   2.903 -0.3681 -0.3804 -0.1124
 5583TIP3    H116755   0.241   4.914   2.962  0.8010 -0.5591 -0.5764
 5583TIP3    H216756   0.191   4.947   2.824 -0.3443 -0.3712 -0.1278
 5584TIP3   OH216757   2.156   1.589   4.841  0.1938  0.2212 -0.5168
 5584TIP3    H116758   2.107   1.671   4.843  2.7026  1.8959  2.8377
 5584TIP3    H216759   2.248   1.617   4.833  1.1032 -2.2593  0.3186
 5585TIP3   OH216760   5.004   0.075   0.915 -0.0234  0.4640  0.1749
 5585TIP3    H116761   5.075   0.013   0.931  1.8080  2.1645 -0.8809
 5585TIP3    H216762   4.938   0.024   0.868  1.5609 -0.6406 -0.9483
 5586TIP3   OH216763   4.820   5.287   1.438 -0.0973  0.3945  0.4289
 5586TIP3    H116764   4.871   5.267   1.360 -1.8581  1.1439 -0.9915
 5586TIP3    H216765   4.751   5.220   1.440 -0.5687  0.8747  0.8423
 5587TIP3   OH216766   0.505   3.768   2.760  0.2195  0.0901  0.3244
 5587TIP3    H116767   0.463   3.710   2.823 -2.3055 -1.3186 -2.4351
 5587TIP3    H216768   0.455   3.849   2.764  0.2490  0.1076  0.3395
 5588TIP3   OH216769   0.626   2.791   4.805 -0.0680 -0.3882  0.1406
 5588TIP3    H116770   0.709   2.744   4.816 -0.5096 -1.0070  0.9155
 5588TIP3    H216771   0.563   2.742   4.857 -0.0753  2.3988  3.1021
 5589TIP3   OH216772   2.248   0.899   2.423  0.2149 -0.3014  0.4900
 5589TIP3    H116773   2.327   0.858   2.457 -0.3464 -0.4692  1.6227
 5589TIP3    H216774   2.176   0.845   2.456 -0.3547 -0.5132 -1.0301
 5590TIP3   OH216775   4.752   4.028   3.506 -0.1323 -0.0680  0.4559
 5590TIP3    H116776   4.838   3.997   3.537  0.5727  0.7170 -0.6450
 5590TIP3    H216777   4.719   3.956   3.452 -0.0464 -0.2554  0.6473
 5591TIP3   OH216778   1.783   2.178   4.043 -0.5061  0.4502  0.0433
 5591TIP3    H116779   1.727   2.127   4.101  0.8866  1.0795  2.0334
 5591TIP3    H216780   1.769   2.140   3.956 -1.8513 -1.2379  0.9503
 5592TIP3   OH216781   4.329   2.059   1.106  0.1975 -0.3001  0.2843
 5592TIP3    H116782   4.375   2.128   1.155 -1.2640 -1.2208  3.1921
 5592TIP3    H216783   4.236   2.079   1.118 -0.2674 -0.5299 -2.3607
 5593TIP3   OH216784   5.007   3.100   2.344  0.5588  0.0772  0.2736
 5593TIP3    H116785   4.945   3.080   2.274  0.3578  0.4110  0.3571
 5593TIP3    H216786   4.988   3.035   2.412  1.9148 -1.3987 -0.6721
 5594TIP3   OH216787   5.754   1.506   0.999 -0.1145  0.3705 -0.1653
 5594TIP3    H116788   5.691   1.536   0.935  0.6388  1.6082 -0.3613
 5594TIP3    H216789   5.836   1.495   0.950  0.1395  0.0343  0.3188
 5595TIP3   OH216790   3.230   0.232   3.195  0.4030 -0.4471 -0.2144
 5595TIP3    H116791   3.211   0.154   3.248 -0.1791  1.0282  1.8504
 5595TIP3    H216792   3.240   0.198   3.106  1.9186 -3.1158  0.8468
 5596TIP3   OH216793   1.533   0.665   4.968 -0.2426  0.2245 -0.3122
 5596TIP3    H116794   1.456   0.701   5.012 -0.2073 -1.6204  1.4511
 5596TIP3    H216795   1.499   0.592   4.917  0.1911  0.1015 -0.4259
 5597TIP3   OH216796   6.037   3.428   2.574  0.0664 -0.3479  0.1772
 5597TIP3    H116797   6.059   3.480   2.651 -0.1474 -0.9468  0.6480
 5597TIP3    H216798   6.110   3.367   2.565  0.3150  0.0171 -0.3732
 5598TIP3   OH216799   2.088   3.463   2.975 -0.0247  0.1875  0.1262
 5598TIP3    H116800   2.170   3.453   2.926  0.2675  0.8205  0.4649
 5598TIP3    H216801   2.108   3.530   3.041 -0.6749  0.0006  0.5245
 5599TIP3   OH216802   2.888   1.030   1.778  0.0373 -0.3056  0.0179
 5599TIP3    H116803   2.971   1.022   1.824 -0.8375  1.9558  2.2317
 5599TIP3    H216804   2.829   0.970   1.823 -0.0856 -0.2598 -0.0796
 5600TIP3   OH216805   3.477   5.089   3.213 -0.0649 -0.2035  0.0603
 5600TIP3    H116806   3.460   5.015   3.272  0.8572 -0.5356 -0.0653
 5600TIP3    H216807   3.455   5.056   3.126 -1.1729  0.2014  0.1672
 5601TIP3   OH216808   6.124   4.679   1.894 -0.0419  0.6932 -0.5331
 5601TIP3    H116809   6.030   4.689   1.885 -0.1600 -1.0690 -1.7729
 5601TIP3    H216810   6.136   4.636   1.979 -0.1128  2.9346  0.7151
 5602TIP3   OH216811   2.368   4.106   4.870  0.6941  0.1519 -0.0862
 5602TIP3    H116812   2.326   4.178   4.823 -0.3490 -0.0978  0.4193
 5602TIP3    H216813   2.426   4.150   4.933  1.2151  0.5079 -0.8055
 5603TIP3   OH216814  -0.002   2.000   5.046 -0.2874  0.0156 -0.3069
 5603TIP3    H116815   0.068   2.012   5.110 -1.5043  2.2363  0.7179
 5603TIP3    H216816   0.042   2.008   4.961  0.9229 -0.0884  0.2889
 5604TIP3   OH216817   3.803   0.789   0.320  0.1803  0.0232 -0.0506
 5604TIP3    H116818   3.813   0.741   0.403 -0.8478 -1.4178 -0.7140
 5604TIP3    H216819   3.884   0.771   0.273  0.4098  0.1394  0.2940
 5605TIP3   OH216820   3.601   0.901   3.007  0.6219  0.1029 -0.7975
 5605TIP3    H116821   3.649   0.826   2.970 -0.3817 -0.5647 -0.7935
 5605TIP3    H216822   3.618   0.973   2.946  2.1434  0.0623 -0.4462
 5606TIP3   OH216823   0.876   3.061   1.359 -0.0835 -0.3843  0.3116
 5606TIP3    H116824   0.830   3.017   1.288  0.1950  0.8253 -0.6650
 5606TIP3    H216825   0.967   3.034   1.348 -0.0710 -0.3559  0.3464
 5607TIP3   OH216826   1.801   1.772   4.247  0.1734  0.0122 -0.0245
 5607TIP3    H116827   1.791   1.679   4.266 -1.2525 -0.0760 -1.1249
 5607TIP3    H216828   1.756   1.816   4.319 -0.6959 -0.1987 -0.4318
 5608TIP3   OH216829   3.618   5.922   1.344  0.3497  0.1209  0.0139
 5608TIP3    H116830   3.593   5.969   1.424 -0.8977  1.8534 -1.3160
 5608TIP3    H216831   3.634   5.991   1.280  0.4629 -1.2482 -1.4881
 5609TIP3   OH216832   1.016   4.704   1.266 -0.0428 -0.2660  0.2869
 5609TIP3    H116833   0.925   4.679   1.280 -0.1514 -1.0712 -1.5772
 5609TIP3    H216834   1.012   4.786   1.217  0.1608 -1.2400 -1.4377
 5610TIP3   OH216835   3.982   1.116   0.032  0.3256 -0.2069 -0.2114
 5610TIP3    H116836   4.037   1.057   0.083  1.8351 -1.1030 -2.6865
 5610TIP3    H216837   4.036   1.193   0.017  0.9981 -1.0527 -2.5898
 5611TIP3   OH216838   1.917   5.374   2.804 -0.9430  0.4684  0.1297
 5611TIP3    H116839   1.843   5.357   2.862 -1.4773  0.2472 -0.6069
 5611TIP3    H216840   1.982   5.417   2.861  0.2845 -3.3633  1.9852
 5612TIP3   OH216841   0.059   4.507   0.149  0.1646 -0.0366  0.4339
 5612TIP3    H116842   0.051   4.419   0.110 -2.3622  1.4240 -2.8756
 5612TIP3    H216843   0.135   4.545   0.106 -0.9845  0.6080 -1.1330
 5613TIP3   OH216844   1.611   1.364   3.793  0.1955 -0.3181 -0.4345
 5613TIP3    H116845   1.539   1.373   3.730  0.0075 -0.3801 -0.2295
 5613TIP3    H216846   1.653   1.281   3.769 -0.3268 -0.7129 -0.0225
 5614TIP3   OH216847   1.209   1.205   4.164 -0.3235 -0.6027 -0.1172
 5614TIP3    H116848   1.265   1.246   4.098  0.9884  0.1419  1.4014
 5614TIP3    H216849   1.120   1.224   4.135  0.2334  0.9152 -0.9268
 5615TIP3   OH216850   0.958   1.249   4.042  0.0633 -0.4571  0.6732
 5615TIP3    H116851   0.907   1.241   4.123 -0.9499 -2.6903 -0.0929
 5615TIP3    H216852   0.922   1.326   3.999 -0.6355 -0.2952  1.5158
 5616TIP3   OH216853   1.374   1.019   2.425 -0.1228 -0.2554  0.4277
 5616TIP3    H116854   1.307   1.011   2.493 -1.7613  0.2903 -1.0358
 5616TIP3    H216855   1.324   1.036   2.345  1.6917 -1.4777 -1.0416
 5617TIP3   OH216856   0.922   4.879   1.628 -0.4369 -0.4063 -0.2583
 5617TIP3    H116857   0.951   4.912   1.713  0.5753 -0.3014 -0.6314
 5617TIP3    H216858   1.003   4.862   1.580 -0.8296 -3.9294  0.0653
 5618TIP3   OH216859   6.344   0.159   3.219 -0.4459 -0.1052  0.3949
 5618TIP3    H116860   6.349   0.065   3.233  1.0314 -0.2631 -0.9392
 5618TIP3    H216861   6.256   0.174   3.183 -0.2157 -1.1665 -0.6584
 5619TIP3   OH216862   2.808   3.285   4.129  0.2440 -0.5316 -0.0415
 5619TIP3    H116863   2.863   3.216   4.090  2.4381  1.0231  0.1345
 5619TIP3    H216864   2.842   3.366   4.092 -0.3348  0.6920  1.9956
 5620TIP3   OH216865   3.047   4.966   3.363  0.4483 -0.2552 -0.3806
 5620TIP3    H116866   2.982   4.953   3.432  1.9166  1.1476  1.3694
 5620TIP3    H216867   3.110   4.895   3.377  0.6098 -0.1272 -0.4599
 5621TIP3   OH216868   2.701   0.352   4.595 -0.2511 -0.0898  0.4202
 5621TIP3    H116869   2.797   0.347   4.598 -0.1914  1.1838  0.8747
 5621TIP3    H216870   2.674   0.260   4.588  1.0512 -0.3878 -2.0673
 5622TIP3   OH216871   1.319   4.440   1.030 -0.2878  0.1602 -0.0200
 5622TIP3    H116872   1.279   4.475   1.109 -0.9544 -1.5235  0.4264
 5622TIP3    H216873   1.245   4.429   0.969 -0.1568 -0.7290 -0.0313
 5623TIP3   OH216874   1.733   1.721   1.783 -0.1145 -0.7440  0.1255
 5623TIP3    H116875   1.656   1.753   1.830  0.5602  0.3199  0.5337
 5623TIP3    H216876   1.779   1.799   1.755 -0.3619 -1.3528 -2.1543
 5624TIP3   OH216877   5.266   3.979   2.891  0.1086 -0.6560 -0.3446
 5624TIP3    H116878   5.332   4.048   2.885 -0.9394  0.4966  0.7081
 5624TIP3    H216879   5.275   3.929   2.810  0.8775  0.7599 -1.1573
 5625TIP3   OH216880   5.210   5.768   3.484 -1.0102  0.0381 -0.0577
 5625TIP3    H116881   5.141   5.757   3.419 -1.8150 -0.0691  0.7912
 5625TIP3    H216882   5.221   5.863   3.491 -0.5226  0.0328 -0.7591
 5626TIP3   OH216883   2.494   2.173   0.792 -0.1117  0.2080 -0.6262
 5626TIP3    H116884   2.510   2.102   0.855  1.0530  0.2046 -0.9040
 5626TIP3    H216885   2.578   2.217   0.784 -0.5317  0.8946 -1.3540
 5627TIP3   OH216886   4.478   1.033   1.895  0.7918 -0.4039  0.4954
 5627TIP3    H116887   4.438   0.966   1.951 -0.9990  0.8126  0.7462
 5627TIP3    H216888   4.523   1.091   1.956  0.9683 -0.4663  0.4257
 5628TIP3   OH216889   5.649   3.533   3.537  0.1658 -0.1006 -0.0833
 5628TIP3    H116890   5.649   3.564   3.446 -3.6425  0.7903  0.0571
 5628TIP3    H216891   5.676   3.441   3.531 -0.2477 -0.1345 -2.1288
 5629TIP3   OH216892   1.116   2.704   3.764  0.0865 -0.1166  0.5221
 5629TIP3    H116893   1.120   2.786   3.715 -0.5099 -0.7481 -0.6224
 5629TIP3    H216894   1.156   2.725   3.848 -1.3706  1.7260  0.8183
 5630TIP3   OH216895   5.236   0.828   3.886  0.1036 -0.5165  0.1357
 5630TIP3    H116896   5.208   0.737   3.898  1.1122 -1.0667 -1.4172
 5630TIP3    H216897   5.240   0.839   3.791  2.3295  0.4105  0.2965
 5631TIP3   OH216898   5.995   1.831   4.755 -0.0009  0.3460 -0.0699
 5631TIP3    H116899   6.028   1.880   4.680 -0.2745  0.4260 -0.1372
 5631TIP3    H216900   5.956   1.897   4.813  2.2849  0.6248  1.2814
 5632TIP3   OH216901   1.819   2.366   5.151  0.1294 -0.3683  0.2767
 5632TIP3    H116902   1.816   2.447   5.202 -0.1772 -0.7515  0.8794
 5632TIP3    H216903   1.912   2.341   5.151  0.1935 -0.1348  0.2640
 5633TIP3   OH216904   6.237   5.033   1.452  0.0173 -0.0157 -0.6086
 5633TIP3    H116905   6.274   5.042   1.364  1.6999 -0.7217 -0.0306
 5633TIP3    H216906   6.300   5.078   1.509  0.4336 -1.8728  0.5046
 5634TIP3   OH216907   5.804   0.907   1.590  0.3402 -0.2894  0.2320
 5634TIP3    H116908   5.865   0.859   1.534  0.5589 -0.7250  0.8294
 5634TIP3    H216909   5.846   0.908   1.676 -0.4738 -0.5714  0.6484
 5635TIP3   OH216910   2.834   4.415   3.161 -0.1689  0.1308  0.2020
 5635TIP3    H116911   2.794   4.329   3.150 -1.0541  0.4989  0.3935
 5635TIP3    H216912   2.797   4.448   3.243 -1.1967  1.3927 -0.7260
 5636TIP3   OH216913   2.282   0.793   4.052 -0.5822 -0.0632  0.7801
 5636TIP3    H116914   2.260   0.749   4.134 -0.1692 -0.0882  0.8840
 5636TIP3    H216915   2.344   0.734   4.009  0.4075  0.6448  1.1754
 5637TIP3   OH216916   2.485   1.723   0.692  0.2963  0.1259 -0.2908
 5637TIP3    H116917   2.484   1.662   0.766 -0.5178  0.5570  0.0666
 5637TIP3    H216918   2.576   1.751   0.685  0.6424 -0.9530 -0.3170
 5638TIP3   OH216919   2.270   3.124   2.981  0.4449 -0.2595 -0.1339
 5638TIP3    H116920   2.214   3.111   2.904 -1.5559  0.6487  1.0875
 5638TIP3    H216921   2.245   3.052   3.040  2.1923 -1.1385 -0.4014
 5639TIP3   OH216922   4.447   1.634   4.343 -0.0221  0.3204 -0.3241
 5639TIP3    H116923   4.379   1.680   4.392 -1.3158  0.0752 -1.8167
 5639TIP3    H216924   4.529   1.676   4.370 -0.4632 -0.5588  2.9401
 5640TIP3   OH216925   3.273   1.032   0.757  0.2612 -0.4353  0.4025
 5640TIP3    H116926   3.295   1.055   0.667  0.7200 -1.3743  0.2715
 5640TIP3    H216927   3.180   1.008   0.753 -0.0499  0.6911  0.4201
 5641TIP3   OH216928   1.530   0.250   3.084  0.2830  0.3557  0.2217
 5641TIP3    H116929   1.455   0.191   3.080  0.6453 -0.0676 -2.2743
 5641TIP3    H216930   1.525   0.291   3.170 -1.9668 -0.7433  0.6698
 5642TIP3   OH216931   4.682   2.851   1.786 -0.0022 -0.8310 -0.5712
 5642TIP3    H116932   4.692   2.944   1.764 -0.2679 -0.2851  1.4462
 5642TIP3    H216933   4.624   2.817   1.718 -4.1373  1.7183  1.2961
 5643TIP3   OH216934   1.475   2.119   4.315  0.4991 -0.0386  0.1113
 5643TIP3    H116935   1.389   2.091   4.283  0.2086 -1.6071  2.0805
 5643TIP3    H216936   1.527   2.038   4.317  2.7138  1.1503 -2.8219
 5644TIP3   OH216937   1.857   3.137   0.237  0.6437  0.4166  0.3646
 5644TIP3    H116938   1.895   3.166   0.320 -0.1322  1.4892  0.3633
 5644TIP3    H216939   1.896   3.195   0.172  0.9571 -0.1727  0.0256
 5645TIP3   OH216940   6.201   1.729   1.188  0.3528  0.1648  0.2754
 5645TIP3    H116941   6.291   1.762   1.182  0.8237 -1.2432 -0.8306
 5645TIP3    H216942   6.171   1.760   1.274  1.1973  2.2771 -0.1216
 5646TIP3   OH216943   2.303   0.320   1.050  0.5543 -0.0104 -0.1069
 5646TIP3    H116944   2.238   0.389   1.051  1.3537  0.7726  0.8137
 5646TIP3    H216945   2.254   0.240   1.030 -0.7381  0.4981  0.8934
 5647TIP3   OH216946   5.634   1.144   2.035  0.2367  0.0380 -0.1058
 5647TIP3    H116947   5.559   1.136   1.976  1.0936 -0.2044 -1.2033
 5647TIP3    H216948   5.676   1.227   2.009  0.3087  0.2144  0.5535
 5648TIP3   OH216949   4.540   4.641   4.516  0.4778  0.2352  0.3777
 5648TIP3    H116950   4.567   4.675   4.601 -2.6809  0.8864  1.2309
 5648TIP3    H216951   4.528   4.547   4.530 -0.6950  0.4463  0.8816
 5649TIP3   OH216952   3.194   1.314   1.553  0.0261  0.6854 -0.2072
 5649TIP3    H116953   3.239   1.398   1.555 -0.2264  0.8131  0.1885
 5649TIP3    H216954   3.258   1.251   1.585  0.4882  0.5903 -1.2619
 5650TIP3   OH216955   4.420   5.776   3.015  0.0982 -0.3127  0.1117
 5650TIP3    H116956   4.385   5.839   3.078 -2.8778 -0.7752 -0.9380
 5650TIP3    H216957   4.458   5.829   2.946  0.9694  0.2247  0.9768
 5651TIP3   OH216958   1.179   2.916   3.291 -0.2771 -0.1740 -0.4392
 5651TIP3    H116959   1.158   2.823   3.281 -0.4792 -0.2200  0.3409
 5651TIP3    H216960   1.264   2.926   3.247  0.4478 -1.0298  0.7111
 5652TIP3   OH216961   0.893   5.856   0.449  0.4770 -0.1837 -0.1514
 5652TIP3    H116962   0.925   5.920   0.386 -0.2962  1.9706  1.5147
 5652TIP3    H216963   0.805   5.834   0.418  0.1357  0.7957  0.0891
 5653TIP3   OH216964   5.763   2.075   0.950 -0.6380  0.2030  0.8268
 5653TIP3    H116965   5.827   2.098   0.883  0.4867 -2.1517  0.9766
 5653TIP3    H216966   5.811   2.020   1.012 -3.1370 -3.5388 -0.1761
 5654TIP3   OH216967   4.653   2.072   1.107 -0.1215 -0.0226 -0.0055
 5654TIP3    H116968   4.635   2.006   1.040  2.3577  0.3792 -1.1871
 5654TIP3    H216969   4.589   2.141   1.091 -2.6652 -1.9426  1.1490
 5655TIP3   OH216970   3.985   3.383   0.921 -0.4442  0.0415 -0.3522
 5655TIP3    H116971   3.940   3.309   0.960  1.5082 -1.0096  0.0205
 5655TIP3    H216972   4.078   3.367   0.937  0.0539  2.6157 -0.1966
 5656TIP3   OH216973   4.701   1.774   4.453 -0.0198 -0.2391  0.3004
 5656TIP3    H116974   4.699   1.869   4.442 -0.2778 -0.3190 -0.4201
 5656TIP3    H216975   4.791   1.749   4.434 -0.4415 -0.3680 -1.7852
 5657TIP3   OH216976   3.777   0.477   0.304  0.1604  0.2809 -0.3281
 5657TIP3    H116977   3.847   0.537   0.328  0.9832 -0.4949 -0.7493
 5657TIP3    H216978   3.702   0.506   0.356  1.1632  0.2599  1.1811
 5658TIP3   OH216979   5.584   3.603   1.565  0.5146 -0.1504 -0.2339
 5658TIP3    H116980   5.645   3.649   1.622  0.1755 -1.1002  0.9493
 5658TIP3    H216981   5.599   3.641   1.478  2.0067  0.3876  0.2184
 5659TIP3   OH216982   1.467   2.601   4.489  0.4839  0.1472 -0.7770
 5659TIP3    H116983   1.457   2.510   4.459  0.4810 -0.1563  0.1261
 5659TIP3    H216984   1.529   2.640   4.427  1.1400 -0.7093 -0.6742
 5660TIP3   OH216985   0.806   5.182   2.287 -0.0099 -0.4278 -0.0790
 5660TIP3    H116986   0.773   5.204   2.200 -0.4412  0.5359  0.3046
 5660TIP3    H216987   0.736   5.131   2.327  0.1125 -0.7160 -0.2334
 5661TIP3   OH216988   2.077   3.685   0.028 -0.8364  0.6636  0.0196
 5661TIP3    H116989   2.086   3.695   0.123 -0.2164  1.8406 -0.1323
 5661TIP3    H216990   2.145   3.622   0.003 -0.2015  1.2509  0.2272
 5662TIP3   OH216991   3.740   3.575   1.206  0.4054 -0.1111 -0.2993
 5662TIP3    H116992   3.783   3.606   1.126 -0.0990 -0.6595 -0.7941
 5662TIP3    H216993   3.779   3.628   1.276  1.3440 -0.0898 -0.8215
 5663TIP3   OH216994   0.502   0.239   3.218 -0.0323 -0.5176  0.1355
 5663TIP3    H116995   0.436   0.289   3.171  2.2042  0.1970 -2.5428
 5663TIP3    H216996   0.524   0.292   3.294  0.8709  1.7236 -1.5812
 5664TIP3   OH216997   6.156   3.304   0.348  0.2687  0.0122  0.8659
 5664TIP3    H116998   6.158   3.339   0.259  1.9939  0.8494  1.1790
 5664TIP3    H216999   6.089   3.356   0.393 -1.9601 -1.6442 -0.3401
 5665TIP3   OH217000   1.064   4.277   3.643  0.3665  0.1362  0.3021
 5665TIP3    H117001   1.118   4.312   3.713 -1.0551 -1.2760  2.2532
 5665TIP3    H217002   0.976   4.309   3.662 -0.2274 -1.0884 -0.2094
 5666TIP3   OH217003   1.930   5.800   3.346 -0.0782  0.2113 -0.3280
 5666TIP3    H117004   1.978   5.774   3.425  0.6082 -0.6305 -0.9900
 5666TIP3    H217005   1.849   5.749   3.349 -0.7976  1.3529  0.6018
 5667TIP3   OH217006   1.976   1.927   2.494  0.3029 -0.3133 -0.1124
 5667TIP3    H117007   1.903   1.873   2.463  1.7404 -1.3353 -1.8683
 5667TIP3    H217008   1.998   1.983   2.420  1.2246  0.0607  0.4277
 5668TIP3   OH217009   2.093   4.607   1.001 -0.2213 -0.5492 -0.5549
 5668TIP3    H117010   2.181   4.622   0.967 -0.1461 -1.1328 -0.6311
 5668TIP3    H217011   2.092   4.651   1.086  0.1380 -0.5254 -0.5624
 5669TIP3   OH217012   0.618   0.572   0.557  0.1124 -0.6130  0.2195
 5669TIP3    H117013   0.552   0.524   0.508  0.8997 -0.9164 -0.5694
 5669TIP3    H217014   0.662   0.627   0.491 -1.3591  1.9409  1.2104
 5670TIP3   OH217015   0.824   2.168   0.053  0.8779  0.1264 -0.7146
 5670TIP3    H117016   0.869   2.090   0.020  0.4100 -0.2628 -0.4481
 5670TIP3    H217017   0.892   2.235   0.057  1.0514  0.0383 -1.9820
 5671TIP3   OH217018   5.408   1.688   2.346 -0.4267 -0.2338 -0.3265
 5671TIP3    H117019   5.389   1.735   2.427  1.2195  1.4619 -0.8606
 5671TIP3    H217020   5.412   1.596   2.372 -2.8620 -0.0898  0.9207
 5672TIP3   OH217021   5.899   1.646   2.979 -0.4380  0.0415 -0.4280
 5672TIP3    H117022   5.848   1.667   3.057 -0.8301 -1.5332 -0.2423
 5672TIP3    H217023   5.984   1.618   3.012 -0.1642  0.5799 -0.6474
 5673TIP3   OH217024   2.108   3.943   3.068  0.3856  0.2132  0.4996
 5673TIP3    H117025   2.137   3.889   2.995 -1.5857  1.8735 -1.6360
 5673TIP3    H217026   2.070   3.881   3.130  1.5762 -1.1628 -0.0892
 5674TIP3   OH217027   4.283   3.002   4.307 -0.1150  0.0216  0.3864
 5674TIP3    H117028   4.274   2.943   4.231  0.8276  0.5293 -0.1305
 5674TIP3    H217029   4.318   2.946   4.376 -0.1988 -0.2543  0.2093
 5675TIP3   OH217030   2.188   0.645   3.097 -0.0003 -0.2247  0.4944
 5675TIP3    H117031   2.172   0.611   3.185  0.0091 -0.5462  0.3753
 5675TIP3    H217032   2.252   0.584   3.060  0.9831  0.6453  0.7233
 5676TIP3   OH217033   4.342   0.112   0.016 -0.3011 -0.5531 -0.1331
 5676TIP3    H117034   4.331   0.152  -0.070  3.4671  1.2266  0.0306
 5676TIP3    H217035   4.381   0.181   0.070 -0.0681 -2.4103  2.2620
 5677TIP3   OH217036   1.457   0.098   2.175  0.1973  0.0554 -0.3860
 5677TIP3    H117037   1.398   0.023   2.162  0.7093 -0.2674 -0.8910
 5677TIP3    H217038   1.539   0.058   2.207  0.3528  0.4388 -0.3045
 5678TIP3   OH217039   0.350   5.711   3.190  0.1997  0.1206 -0.9740
 5678TIP3    H117040   0.376   5.724   3.282  0.6619 -0.3164 -1.0386
 5678TIP3    H217041   0.270   5.659   3.195  0.1121  0.2692 -0.8140
 5679TIP3   OH217042   1.431   0.547   4.748 -0.0574  0.8836  0.6448
 5679TIP3    H117043   1.456   0.629   4.706  0.7464  0.1570 -0.3366
 5679TIP3    H217044   1.496   0.484   4.719 -0.3906 -0.0123  1.7561
 5680TIP3   OH217045   0.122   1.460   3.926 -0.0799 -0.2986 -0.4101
 5680TIP3    H117046   0.113   1.377   3.974 -2.2822 -0.2442 -0.6241
 5680TIP3    H217047   0.192   1.444   3.863 -0.4497 -2.0052 -0.4326
 5681TIP3   OH217048   1.177   5.672   2.791 -0.0403 -0.3326  0.0525
 5681TIP3    H117049   1.215   5.631   2.714 -0.3133 -1.1059  0.3174
 5681TIP3    H217050   1.242   5.659   2.860  0.2794  0.5069 -0.0754
 5682TIP3   OH217051   4.302   1.530   0.272  0.0786 -0.4626  0.4068
 5682TIP3    H117052   4.341   1.604   0.317  0.0638 -0.1445 -0.0972
 5682TIP3    H217053   4.243   1.569   0.208  0.0399 -0.9085  0.1631
 5683TIP3   OH217054   0.822   2.505   2.051 -0.1549  0.2806  0.4602
 5683TIP3    H117055   0.907   2.500   2.096  0.4904  0.9379 -0.6376
 5683TIP3    H217056   0.797   2.413   2.038  0.2763  0.0783  0.9791
 5684TIP3   OH217057   5.701   2.842   2.404  0.4786  0.2802 -0.0833
 5684TIP3    H117058   5.619   2.872   2.443 -0.0721 -1.1326 -0.0933
 5684TIP3    H217059   5.693   2.864   2.311  0.3317  0.5754 -0.0024
 5685TIP3   OH217060   1.062   5.219   4.471 -0.4989  0.2906  0.1633
 5685TIP3    H117061   1.111   5.297   4.499 -0.6929  0.6913 -0.5744
 5685TIP3    H217062   0.973   5.235   4.501 -0.4217  0.0797  0.5153
 5686TIP3   OH217063   4.317   1.754   0.926  0.7410 -0.2963  0.0242
 5686TIP3    H117064   4.278   1.706   0.999  0.9022 -0.8670 -0.2639
 5686TIP3    H217065   4.293   1.846   0.942 -0.2874 -0.5755  0.1210
 5687TIP3   OH217066   1.667   5.134   4.229 -0.3794 -0.4407 -0.3352
 5687TIP3    H117067   1.578   5.097   4.232 -1.0253  0.9889 -1.0365
 5687TIP3    H217068   1.664   5.198   4.157  0.6073  1.1458  0.9714
 5688TIP3   OH217069   3.563   1.825   0.038 -0.6953  0.1371  0.2232
 5688TIP3    H117070   3.478   1.784   0.055 -1.1575  0.7348 -0.5636
 5688TIP3    H217071   3.541   1.911   0.004  0.2484  0.5681  0.6677
 5689TIP3   OH217072   5.511   4.137   2.873 -0.5023  0.1888 -0.2114
 5689TIP3    H117073   5.604   4.148   2.891 -0.2609  0.0836 -1.3238
 5689TIP3    H217074   5.501   4.161   2.781 -1.1848 -1.8447 -0.7179
 5690TIP3   OH217075   1.256   0.384   1.612  0.5687  0.1756 -0.7250
 5690TIP3    H117076   1.278   0.466   1.658  1.3468 -1.4202  1.9947
 5690TIP3    H217077   1.161   0.377   1.619  0.3757  1.2557 -1.8423
 5691TIP3   OH217078   0.350   0.548   4.262 -0.3342  0.3755  0.5449
 5691TIP3    H117079   0.376   0.525   4.173 -1.2515 -1.5763  0.7209
 5691TIP3    H217080   0.309   0.634   4.254 -3.1546 -1.0102 -1.5022
 5692TIP3   OH217081   0.203   0.517   1.784 -0.3267  0.7710  0.6244
 5692TIP3    H117082   0.129   0.543   1.729 -0.6868 -2.0534 -0.3875
 5692TIP3    H217083   0.164   0.490   1.867 -0.4856 -0.6467  0.1170
 5693TIP3   OH217084   1.743   4.196   4.026  1.0719  0.1031  0.3620
 5693TIP3    H117085   1.685   4.120   4.020  2.8029 -1.3555  0.7547
 5693TIP3    H217086   1.779   4.191   4.115  3.4213 -0.4011 -0.5438
 5694TIP3   OH217087   2.805   4.006   4.254  0.3591 -0.0541 -0.7412
 5694TIP3    H117088   2.864   4.034   4.324  0.4408 -0.6302 -0.5787
 5694TIP3    H217089   2.719   4.041   4.280  0.7687  1.6223 -1.4598
 5695TIP3   OH217090   1.135   0.728   1.411 -0.2732 -0.9230 -0.1156
 5695TIP3    H117091   1.197   0.703   1.479 -1.5845 -0.8861  1.1492
 5695TIP3    H217092   1.149   0.821   1.398 -0.2092 -0.8731  0.3063
 5696TIP3   OH217093   1.911   2.139   3.190 -0.0495  0.1814 -0.2404
 5696TIP3    H117094   1.840   2.091   3.233  0.1631 -2.0983 -2.1911
 5696TIP3    H217095   1.978   2.072   3.175  1.3250  1.6720 -0.9229
 5697TIP3   OH217096   5.282   3.212   0.096  0.3158  0.1698 -0.5429
 5697TIP3    H117097   5.232   3.210   0.178  3.8263 -0.2567  1.7952
 5697TIP3    H217098   5.248   3.289   0.049 -2.2001  0.1104  0.9962
 5698TIP3   OH217099   1.575   2.115   0.445 -0.8393 -0.0817 -0.2133
 5698TIP3    H117100   1.621   2.034   0.468  0.3987  0.6808  0.1260
 5698TIP3    H217101   1.539   2.099   0.358 -1.3022 -1.2654  0.1728
 5699TIP3   OH217102   1.402   5.336   0.379 -0.1333 -0.0014  0.2321
 5699TIP3    H117103   1.332   5.396   0.353 -0.9805 -0.1349  2.0911
 5699TIP3    H217104   1.434   5.371   0.462  0.4464 -1.2394  0.5456
 5700TIP3   OH217105   5.445   5.614   0.825  0.1560 -0.1640  1.0068
 5700TIP3    H117106   5.383   5.542   0.832 -1.1758  0.8744  0.2979
 5700TIP3    H217107   5.491   5.598   0.743 -0.8989  0.3494  0.2983
 5701TIP3   OH217108   1.491   1.078   3.914 -0.1961  0.1766  0.4687
 5701TIP3    H117109   1.476   1.120   3.999 -1.2150  0.6205  0.0892
 5701TIP3    H217110   1.584   1.091   3.897  0.0748 -0.1501  1.6325
 5702TIP3   OH217111   3.220   5.491   0.042 -0.0138  0.8610  0.3113
 5702TIP3    H117112   3.141   5.474  -0.009  0.2484 -0.6142  0.3463
 5702TIP3    H217113   3.188   5.528   0.125 -0.6497  0.6187  0.1799
 5703TIP3   OH217114   5.595   1.624   3.899 -0.3659  0.2105  0.2635
 5703TIP3    H117115   5.569   1.675   3.975  0.2060 -1.3888  1.6066
 5703TIP3    H217116   5.543   1.544   3.905 -0.7765  0.3162 -1.4126
 5704TIP3   OH217117   0.704   4.347   3.981  0.0160  0.2949  0.7705
 5704TIP3    H117118   0.772   4.363   4.046  0.8833 -0.2323  0.0236
 5704TIP3    H217119   0.751   4.346   3.898 -0.6212 -1.6959  0.3814
 5705TIP3   OH217120   3.297   1.636   3.720  0.1353 -0.2765 -0.4382
 5705TIP3    H117121   3.348   1.591   3.787 -0.8261 -1.5728 -0.5381
 5705TIP3    H217122   3.249   1.704   3.768 -1.0244 -1.5873  0.3404
 5706TIP3   OH217123   6.154   4.128   2.482 -0.0472 -0.1559 -0.0053
 5706TIP3    H117124   6.247   4.110   2.469  0.0054  0.1390 -0.0543
 5706TIP3    H217125   6.114   4.043   2.499  0.1788 -0.3229 -0.3149
 5707TIP3   OH217126   3.529   0.618   3.149  0.2268 -0.3103  0.6319
 5707TIP3    H117127   3.487   0.684   3.095 -1.7491 -1.4192  0.7042
 5707TIP3    H217128   3.535   0.541   3.093  1.4783 -0.4249  0.8917
 5708TIP3   OH217129   1.514   2.724   3.020  0.3700  0.0542 -0.5122
 5708TIP3    H117130   1.565   2.682   2.951  0.8862  0.6329 -0.4831
 5708TIP3    H217131   1.423   2.711   2.992  0.3902 -2.4586  0.2699
 5709TIP3   OH217132   0.318   5.085   3.572  0.2099 -0.0102  0.6614
 5709TIP3    H117133   0.406   5.085   3.534  0.3711 -1.0140  0.9894
 5709TIP3    H217134   0.309   5.173   3.610  1.2309 -0.0151  0.9688
 5710TIP3   OH217135   4.034   4.664   1.642 -0.3642  0.0401  0.3588
 5710TIP3    H117136   4.080   4.719   1.579 -0.9987  0.0619 -0.0894
 5710TIP3    H217137   3.984   4.603   1.589 -1.6277  0.6411  0.8134
 5711TIP3   OH217138   1.863   4.293   2.094 -0.3683  0.0794  0.5449
 5711TIP3    H117139   1.869   4.244   2.177 -1.6362 -0.2067  0.4920
 5711TIP3    H217140   1.871   4.226   2.026 -1.3789  0.0141  0.4688
 5712TIP3   OH217141   1.368   2.221   0.909 -0.4415 -0.1912 -0.3301
 5712TIP3    H117142   1.396   2.304   0.869 -1.8395  0.1197 -0.7034
 5712TIP3    H217143   1.290   2.195   0.860 -0.2834 -1.5195  0.0679
 5713TIP3   OH217144   5.370   0.738   3.630 -0.3362  0.6482 -0.3672
 5713TIP3    H117145   5.305   0.670   3.609 -1.9033  0.9127  2.9224
 5713TIP3    H217146   5.430   0.695   3.691 -0.9874  1.9905  1.2773
 5714TIP3   OH217147   0.436   0.093   1.234  0.2754  0.3493  0.2790
 5714TIP3    H117148   0.471   0.004   1.234 -1.0468 -0.2119  1.3367
 5714TIP3    H217149   0.503   0.145   1.191  1.7887 -0.8893  1.0211
 5715TIP3   OH217150   0.615   1.750   2.348 -0.1906  0.3370 -0.3711
 5715TIP3    H117151   0.596   1.657   2.337  0.9385  0.1871 -1.2900
 5715TIP3    H217152   0.556   1.794   2.287  0.0790  0.1168 -0.8023
 5716TIP3   OH217153   4.507   0.470   2.488  1.0068 -0.2764  0.0823
 5716TIP3    H117154   4.529   0.501   2.400  1.3231 -0.2512  0.1686
 5716TIP3    H217155   4.566   0.396   2.502  0.1189 -1.0614 -0.2082
 5717TIP3   OH217156  -0.012   5.324   3.679  0.4124 -0.1994  0.4245
 5717TIP3    H117157   0.010   5.416   3.691  0.9344 -0.3389  0.5924
 5717TIP3    H217158   0.016   5.282   3.761 -1.4409 -0.2416  1.0880
 5718TIP3   OH217159   3.344   0.697   2.464  0.4922 -0.2940 -0.4236
 5718TIP3    H117160   3.334   0.740   2.549 -2.0887  1.2193 -1.3989
 5718TIP3    H217161   3.385   0.763   2.408  0.5130 -0.6471 -0.8328
 5719TIP3   OH217162   3.571   2.556   1.236 -0.1506 -0.9406 -0.4709
 5719TIP3    H117163   3.495   2.610   1.260 -1.6591 -2.7145 -0.9832
 5719TIP3    H217164   3.567   2.481   1.295  1.8436 -0.6049  0.1626
 5720TIP3   OH217165   5.255   1.579   4.243 -0.1500 -0.3617  0.1401
 5720TIP3    H117166   5.258   1.487   4.272 -1.0763 -0.2778  0.5226
 5720TIP3    H217167   5.272   1.629   4.322 -3.6862 -0.0953  0.8745
 5721TIP3   OH217168   0.558   2.802   3.441  0.7704  0.2442  0.2995
 5721TIP3    H117169   0.619   2.730   3.457 -0.1335 -0.3528  1.1835
 5721TIP3    H217170   0.530   2.829   3.528  0.6574  1.2917 -0.0529
 5722TIP3   OH217171   2.638   0.919   2.365  0.1790 -0.2432  0.7350
 5722TIP3    H117172   2.622   0.893   2.456  0.4144 -1.3280  0.4847
 5722TIP3    H217173   2.733   0.935   2.361  0.7188 -3.0654  0.0421
 5723TIP3   OH217174   0.867   0.754   2.531  0.1230 -0.5909  0.5993
 5723TIP3    H117175   0.843   0.737   2.439  2.9209  0.7310 -0.4875
 5723TIP3    H217176   0.802   0.818   2.560  0.3776  0.5604 -1.1755
 5724TIP3   OH217177   3.374   4.861   1.631 -0.2195  0.3971 -0.3548
 5724TIP3    H117178   3.353   4.899   1.717  1.8232 -0.3542  0.5433
 5724TIP3    H217179   3.441   4.920   1.595  0.7879 -0.6544 -0.2679
 5725TIP3   OH217180   0.877   3.928   1.413 -0.9891  0.1230 -0.6724
 5725TIP3    H117181   0.831   3.999   1.458 -1.2433 -0.0460 -0.6617
 5725TIP3    H217182   0.847   3.849   1.458  0.2184  0.0937  0.1239
 5726TIP3   OH217183   5.866   4.810   3.765 -0.5726  0.1825  0.7287
 5726TIP3    H117184   5.826   4.896   3.777  1.7437  1.4939 -0.3754
 5726TIP3    H217185   5.905   4.790   3.850 -2.1297 -0.3920  1.3478
 5727TIP3   OH217186   0.877   0.270   2.135 -0.1769  0.4553 -0.8892
 5727TIP3    H117187   0.926   0.210   2.192 -0.1211  0.2859 -1.1126
 5727TIP3    H217188   0.944   0.307   2.076  0.3845  3.1769  1.2657
 5728TIP3   OH217189   4.981   1.153   1.347  0.1765  0.4366 -0.0326
 5728TIP3    H117190   4.923   1.221   1.381  0.2330  0.2693  0.4089
 5728TIP3    H217191   4.990   1.091   1.420 -1.2896 -0.9714 -0.9754
 5729TIP3   OH217192   0.088   1.978   0.043  0.3471 -0.3608 -0.2024
 5729TIP3    H117193   0.054   1.904  -0.007 -1.7978 -0.3429  1.1042
 5729TIP3    H217194   0.134   1.937   0.116 -1.0010 -0.4699  0.6245
 5730TIP3   OH217195   1.868   0.897   2.770 -0.1670 -0.4649  0.5198
 5730TIP3    H117196   1.862   0.824   2.832 -2.9609 -1.0394 -0.3020
 5730TIP3    H217197   1.783   0.940   2.775  0.7481  1.6019 -0.4424
 5731TIP3   OH217198   2.235   1.879   0.198 -0.3454 -0.8221  0.1089
 5731TIP3    H117199   2.216   1.969   0.224  1.3525 -0.8406  1.6664
 5731TIP3    H217200   2.263   1.836   0.279  1.1046 -2.1189 -1.0075
 5732TIP3   OH217201   3.382   1.148   1.777  0.0033 -0.2497 -0.3173
 5732TIP3    H117202   3.398   1.087   1.849 -1.6561  0.6050  0.8364
 5732TIP3    H217203   3.441   1.119   1.708  0.1819 -2.3783  0.6429
 5733TIP3   OH217204   4.427   4.663   0.334  0.0997  0.1415 -0.4540
 5733TIP3    H117205   4.359   4.597   0.324  0.3340 -0.2448  0.4337
 5733TIP3    H217206   4.494   4.639   0.271  1.1009 -1.6572  1.1926
 5734TIP3   OH217207   4.313   5.318   3.110 -0.1127 -0.1224 -0.1812
 5734TIP3    H117208   4.369   5.305   3.186  0.3600  0.0379 -0.4970
 5734TIP3    H217209   4.238   5.367   3.143 -0.8625 -1.7082  0.5669
 5735TIP3   OH217210   1.147   3.956   0.247  0.3439  1.2112 -0.5381
 5735TIP3    H117211   1.198   3.922   0.174  1.4435  0.7207  0.4215
 5735TIP3    H217212   1.186   4.041   0.267  0.4458  1.0810 -0.1602
 5736TIP3   OH217213   1.549   4.311   4.726 -0.1419  0.3606 -0.0432
 5736TIP3    H117214   1.581   4.258   4.798 -0.3088 -1.0180 -0.9509
 5736TIP3    H217215   1.471   4.265   4.695  0.3147  0.5408 -1.5312
 5737TIP3   OH217216   4.882   4.733   3.210 -0.1419  0.1660 -0.4315
 5737TIP3    H117217   4.837   4.649   3.221  0.9278 -0.4321 -0.4479
 5737TIP3    H217218   4.845   4.789   3.278 -2.2263  0.3015 -1.6045
 5738TIP3   OH217219   0.202   5.083   2.195  0.1290 -0.1602  0.3993
 5738TIP3    H117220   0.148   5.097   2.273 -1.3635 -0.4182 -0.5412
 5738TIP3    H217221   0.284   5.128   2.214 -1.9039  4.0692  0.2215
 5739TIP3   OH217222   3.558   3.618   4.289 -0.2048  0.4248  0.0765
 5739TIP3    H117223   3.599   3.697   4.325  0.0283  0.6584 -0.6835
 5739TIP3    H217224   3.470   3.645   4.264 -0.3011  0.3123  0.2917
 5740TIP3   OH217225   6.186   1.649   1.783  0.0366  0.2235  0.2316
 5740TIP3    H117226   6.175   1.619   1.692 -0.0278  1.2924 -0.1255
 5740TIP3    H217227   6.148   1.737   1.784  3.2768  1.7406  0.3714
 5741TIP3   OH217228   2.088   0.767   4.725  0.4097 -0.4154  0.0341
 5741TIP3    H117229   2.058   0.825   4.795  1.7765 -0.5224  0.7285
 5741TIP3    H217230   2.047   0.803   4.646  0.2132  0.7290  0.6302
 5742TIP3   OH217231   2.714   3.096   3.110 -0.3419  0.6560 -0.7590
 5742TIP3    H117232   2.641   3.062   3.058  0.6261 -2.6640 -0.2220
 5742TIP3    H217233   2.780   3.027   3.104  1.2762  1.8672  1.7940
 5743TIP3   OH217234   1.677   2.873   2.343 -0.1424 -0.0205  0.0537
 5743TIP3    H117235   1.714   2.903   2.426  2.2783 -0.1719 -0.8821
 5743TIP3    H217236   1.656   2.954   2.296 -1.7309  0.0664  0.8401
 5744TIP3   OH217237   3.716   0.277   1.243  0.1395  0.2441  0.5820
 5744TIP3    H117238   3.736   0.241   1.157 -1.0801 -0.8073  0.6941
 5744TIP3    H217239   3.778   0.235   1.302  1.0614  1.0629  0.2155
 5745TIP3   OH217240   3.054   5.509   2.747  0.2434  0.3681 -0.0874
 5745TIP3    H117241   2.980   5.449   2.737 -0.2557  1.2516 -2.5177
 5745TIP3    H217242   3.083   5.526   2.657  2.1060  1.6579  0.6821
 5746TIP3   OH217243   5.270   0.065   2.199 -0.2097  0.2925 -0.1619
 5746TIP3    H117244   5.246  -0.008   2.142  1.1398  1.0689 -1.7930
 5746TIP3    H217245   5.190   0.083   2.248 -0.7115 -1.9693 -0.0115
 5747TIP3   OH217246   0.993   1.821   2.253  0.3215  0.0151 -0.1771
 5747TIP3    H117247   1.060   1.767   2.210 -1.1240 -1.2869 -0.8706
 5747TIP3    H217248   0.922   1.826   2.189 -0.8130  0.2296  1.0635
 5748TIP3   OH217249   5.155   3.361   2.032  0.4236 -0.0821 -0.8295
 5748TIP3    H117250   5.223   3.426   2.048  0.4126 -0.3201  0.2477
 5748TIP3    H217251   5.074   3.412   2.028  0.3040 -0.0689  0.8399
 5749TIP3   OH217252   3.640   0.100   4.273  0.5085  0.0390 -0.2564
 5749TIP3    H117253   3.653   0.134   4.361  0.5499  0.8030 -0.5510
 5749TIP3    H217254   3.582   0.025   4.285  0.7110 -0.0111  0.4475
 5750TIP3   OH217255   3.792   4.364   2.254  0.0577 -0.4754  0.3330
 5750TIP3    H117256   3.770   4.289   2.309 -0.8045  1.4752  2.8528
 5750TIP3    H217257   3.745   4.348   2.172 -1.2092 -2.0333  1.2984
 5751TIP3   OH217258   6.192   3.185   4.899  0.6710 -0.2252  0.4727
 5751TIP3    H117259   6.224   3.148   4.981  0.4874  0.0969  0.6917
 5751TIP3    H217260   6.150   3.111   4.854  1.2935 -0.5421  0.3937
 5752TIP3   OH217261   4.519   0.046   0.322  0.1741  0.8045 -0.2410
 5752TIP3    H117262   4.552   0.122   0.275  1.0199  0.5409 -0.0914
 5752TIP3    H217263   4.467   0.082   0.394 -0.1150  1.2183 -0.6509
 5753TIP3   OH217264   0.332   0.885   2.488 -0.0873 -0.2140  0.1462
 5753TIP3    H117265   0.359   0.860   2.400  1.0722 -1.2074  0.7529
 5753TIP3    H217266   0.265   0.821   2.512  1.6177 -1.7484  1.0251
 5754TIP3   OH217267   0.127   1.265   4.350 -0.3508  0.2490 -0.0864
 5754TIP3    H117268   0.153   1.217   4.429 -0.5880 -0.0171 -0.1695
 5754TIP3    H217269   0.209   1.302   4.316  0.1102 -1.4771 -0.9514
 5755TIP3   OH217270   1.231   2.742   4.090  0.3002 -0.4630 -0.2081
 5755TIP3    H117271   1.146   2.744   4.133 -1.1810 -0.7273 -2.9147
 5755TIP3    H217272   1.279   2.671   4.133 -0.9413 -0.5343  1.1325
 5756TIP3   OH217273   5.123   0.554   2.896  0.6857 -0.2147 -0.3736
 5756TIP3    H117274   5.074   0.484   2.853  1.1304 -1.0909  0.5018
 5756TIP3    H217275   5.109   0.631   2.841  0.8899 -1.1869 -1.8238
 5757TIP3   OH217276   4.127   4.732   2.292  0.0836  0.0246 -0.4581
 5757TIP3    H117277   4.118   4.642   2.262  0.3201 -0.4019  0.6992
 5757TIP3    H217278   4.041   4.772   2.276 -0.0735 -0.4535 -0.8172
 5758TIP3   OH217279   2.434   5.667   4.515  0.2000 -0.4220 -0.4479
 5758TIP3    H117280   2.526   5.677   4.488 -0.3027 -0.2649 -2.1993
 5758TIP3    H217281   2.390   5.744   4.480 -0.6884 -0.6914  0.0422
 5759TIP3   OH217282   1.415   1.705   5.130 -0.0956 -0.4151 -0.2920
 5759TIP3    H117283   1.355   1.728   5.202 -0.3329 -1.6450 -0.0667
 5759TIP3    H217284   1.500   1.695   5.172  0.1677  0.7475 -0.5156
 5760TIP3   OH217285   1.144   4.606   2.324 -0.0621  0.2009 -0.0026
 5760TIP3    H117286   1.194   4.526   2.341 -0.4195 -0.5435 -2.2509
 5760TIP3    H217287   1.055   4.576   2.308 -0.8859  1.3582  1.9479
 5761TIP3   OH217288   2.843   5.007   4.339  0.1411  0.3429 -0.1146
 5761TIP3    H117289   2.909   4.993   4.271  0.9136 -1.4535  0.9256
 5761TIP3    H217290   2.892   4.998   4.421 -1.3601 -1.0186  0.6884
 5762TIP3   OH217291   2.168   4.539   3.631 -0.1102 -0.2490 -0.1563
 5762TIP3    H117292   2.195   4.456   3.592 -1.2208 -1.2647  1.1242
 5762TIP3    H217293   2.246   4.573   3.673  0.1661 -1.0834  0.0272
 5763TIP3   OH217294   1.462   2.388   3.943 -0.3920 -0.1574  0.0540
 5763TIP3    H117295   1.367   2.401   3.938 -0.4537  0.1188  1.4052
 5763TIP3    H217296   1.473   2.294   3.954 -0.5290 -0.1712  0.0740
 5764TIP3   OH217297   3.402   3.488   1.068 -0.2509 -0.4665  0.1358
 5764TIP3    H117298   3.337   3.502   0.999 -2.2971  0.5517  2.0974
 5764TIP3    H217299   3.475   3.545   1.045 -1.7838  1.4791 -0.1878
 5765TIP3   OH217300   2.319   4.608   2.427  0.9904  0.8153  0.0716
 5765TIP3    H117301   2.242   4.616   2.371  0.1358 -1.1074  0.8556
 5765TIP3    H217302   2.394   4.617   2.368  0.1321  0.6002 -1.0738
 5766TIP3   OH217303   2.505   0.432   1.232  0.5254 -0.1105 -0.3340
 5766TIP3    H117304   2.479   0.376   1.159 -0.5775  0.5989 -0.5134
 5766TIP3    H217305   2.422   0.468   1.265  1.2057  1.6491 -0.4337
 5767TIP3   OH217306   5.909   2.361   4.235  0.1755 -0.2902  0.3038
 5767TIP3    H117307   5.827   2.387   4.277  0.0922 -0.1188  0.0344
 5767TIP3    H217308   5.926   2.272   4.268 -1.5909 -1.5027 -1.8137
 5768TIP3   OH217309   1.307   5.075   0.146 -0.2995 -0.1137 -0.3102
 5768TIP3    H117310   1.213   5.073   0.131 -0.2074 -0.2720 -0.8778
 5768TIP3    H217311   1.342   5.129   0.076  0.2456 -1.7019 -1.3350
 5769TIP3   OH217312   4.895   2.259   0.340  0.7769 -0.0510 -0.1147
 5769TIP3    H117313   4.906   2.289   0.430 -0.4640  0.0306  0.0336
 5769TIP3    H217314   4.906   2.337   0.286  0.0220  0.2099  0.0909
 5770TIP3   OH217315   3.714   0.149   0.991  0.3294  0.2947 -0.1144
 5770TIP3    H117316   3.677   0.078   1.042 -0.7549  0.0962 -1.1503
 5770TIP3    H217317   3.778   0.107   0.934  2.1232  0.6157  1.5565
 5771TIP3   OH217318   5.487   1.449   5.127 -0.4722 -0.2551 -0.1301
 5771TIP3    H117319   5.582   1.460   5.130 -0.4414 -0.7978  1.5479
 5771TIP3    H217320   5.453   1.522   5.177 -0.9421 -0.2066 -0.5154
 5772TIP3   OH217321   6.007   2.903   1.445 -0.3523  0.1752 -0.1472
 5772TIP3    H117322   5.972   2.917   1.533 -0.1537 -1.0551  0.1404
 5772TIP3    H217323   5.996   2.988   1.401 -1.7196  0.4163  0.6097
 5773TIP3   OH217324   1.050   2.556   2.208 -0.1952 -0.1147  0.1584
 5773TIP3    H117325   1.016   2.608   2.281 -0.3164 -2.4101  1.8852
 5773TIP3    H217326   1.131   2.518   2.243 -0.4796 -1.6086 -0.7361
 5774TIP3   OH217327   0.659   0.186   0.850  0.1820  0.4967 -0.2750
 5774TIP3    H117328   0.688   0.157   0.936 -2.0920 -1.5643 -0.0881
 5774TIP3    H217329   0.618   0.272   0.866  0.3319  0.4103  0.5887
 5775TIP3   OH217330   6.252   4.529   4.794  0.7396  0.4740  0.4007
 5775TIP3    H117331   6.289   4.564   4.713  0.1170  1.0508  0.3586
 5775TIP3    H217332   6.232   4.437   4.774  0.3745  0.6752 -0.1773
 5776TIP3   OH217333   1.702   3.152   1.355 -0.4686  0.0860  0.4868
 5776TIP3    H117334   1.615   3.152   1.314  0.3051  0.3575 -1.2588
 5776TIP3    H217335   1.745   3.075   1.319  0.7709  1.1746 -0.4454
 5777TIP3   OH217336   5.154   1.167   4.877  0.3788  0.4013  0.7539
 5777TIP3    H117337   5.076   1.150   4.825  0.6383 -0.3916  0.6028
 5777TIP3    H217338   5.221   1.109   4.839  0.8034  0.4501  1.4146
 5778TIP3   OH217339   0.155   5.861   0.269  0.1152  0.6738 -0.1313
 5778TIP3    H117340   0.117   5.949   0.259 -0.8179  0.2670 -0.2118
 5778TIP3    H217341   0.124   5.831   0.354 -0.2814  0.0771 -0.4800
 5779TIP3   OH217342   2.736   1.373   4.620 -0.1064 -0.0271  0.4928
 5779TIP3    H117343   2.671   1.306   4.644 -0.3907  0.5512  1.3607
 5779TIP3    H217344   2.814   1.350   4.670  0.4245 -0.7773 -0.6211
 5780TIP3   OH217345   4.090   1.442   1.084  0.7226  0.3173 -0.5343
 5780TIP3    H117346   4.089   1.347   1.074  1.2426  0.1506  0.8451
 5780TIP3    H217347   4.000   1.469   1.066 -0.0474 -0.7246  1.4606
 5781TIP3   OH217348   0.967   4.902   4.537 -0.3831 -0.4108  0.0167
 5781TIP3    H117349   1.050   4.918   4.583 -1.3884  1.6403  1.2768
 5781TIP3    H217350   0.929   4.989   4.526 -1.2109 -1.0342 -2.9024
 5782TIP3   OH217351   1.825   2.048   1.714  0.5937 -0.4330 -0.2819
 5782TIP3    H117352   1.853   2.030   1.624  1.2346  0.2708 -0.2393
 5782TIP3    H217353   1.808   2.143   1.716 -1.0484 -0.7076 -0.0838
 5783TIP3   OH217354   4.397   5.144   5.004 -0.0771 -0.4579  0.6179
 5783TIP3    H117355   4.359   5.065   5.041  0.0743 -1.3807 -1.1224
 5783TIP3    H217356   4.325   5.188   4.960  0.3644 -1.0589 -0.7600
 5784TIP3   OH217357   4.917   4.871   0.843  0.6113  0.1980 -0.3169
 5784TIP3    H117358   4.899   4.910   0.929  0.7644  1.3896 -0.7964
 5784TIP3    H217359   4.830   4.859   0.804  0.3871 -2.3675  0.8056
 5785TIP3   OH217360   0.123   5.422   4.707 -0.0924 -0.3136 -0.1046
 5785TIP3    H117361   0.048   5.424   4.648  0.3518  0.6478 -0.6793
 5785TIP3    H217362   0.136   5.514   4.731  1.2807 -0.3783 -0.5292
 5786TIP3   OH217363   1.517   2.732   4.768 -0.1994 -0.5024  0.5876
 5786TIP3    H117364   1.523   2.717   4.674 -0.6092  4.0325 -0.3826
 5786TIP3    H217365   1.457   2.806   4.777  0.0965 -0.5396  4.4166
 5787TIP3   OH217366   1.725   5.351   2.986  0.1247  0.1060 -0.0480
 5787TIP3    H117367   1.768   5.266   2.996  1.5206  0.9481  1.5723
 5787TIP3    H217368   1.663   5.355   3.058  1.3691  1.1771  0.9935
 5788TIP3   OH217369   5.602   2.428   0.657 -0.0847 -0.5725  0.2134
 5788TIP3    H117370   5.678   2.433   0.714 -0.1142  1.0508  0.1412
 5788TIP3    H217371   5.528   2.447   0.715  0.0336  2.9934 -0.6139
 5789TIP3   OH217372   4.512   0.522   1.366  0.5934  0.2308 -0.3554
 5789TIP3    H117373   4.511   0.500   1.459 -0.3563  0.5593 -0.2750
 5789TIP3    H217374   4.585   0.472   1.330  0.2391 -0.8204  0.3466
 5790TIP3   OH217375   3.781   4.650   4.870  0.2640 -0.1873  0.6659
 5790TIP3    H117376   3.798   4.636   4.963 -0.0078 -1.8142  0.5007
 5790TIP3    H217377   3.842   4.592   4.825 -1.2308 -1.2570 -0.0755
 5791TIP3   OH217378   4.788   5.307   3.570 -0.1242  0.0179 -0.0547
 5791TIP3    H117379   4.775   5.400   3.589  0.9427  0.3218 -0.7410
 5791TIP3    H217380   4.775   5.301   3.475  0.4199 -0.4240 -0.0992
 5792TIP3   OH217381   4.443   0.941   0.091  0.3244  0.0088  0.1395
 5792TIP3    H117382   4.438   0.910   0.001 -1.0130  1.3296 -0.2667
 5792TIP3    H217383   4.430   0.863   0.144 -0.3891 -0.5498 -0.8295
 5793TIP3   OH217384   2.876   0.575   1.946 -0.0046 -0.2615 -0.2289
 5793TIP3    H117385   2.970   0.557   1.943  0.2048  0.8613 -0.5938
 5793TIP3    H217386   2.857   0.591   2.038  0.0753 -0.8905 -0.0981
 5794TIP3   OH217387   2.710   0.303   0.889  0.6013 -0.2841  0.0484
 5794TIP3    H117388   2.718   0.225   0.943  0.2629 -0.3259  0.0442
 5794TIP3    H217389   2.778   0.363   0.921  0.4410 -0.3315  0.4795
 5795TIP3   OH217390   3.386   2.127   0.462  0.1790  0.7353  0.5573
 5795TIP3    H117391   3.475   2.100   0.480  0.0507  0.0246  0.1711
 5795TIP3    H217392   3.333   2.048   0.475 -0.0172  0.3396 -2.0378
 5796TIP3   OH217393   4.572   0.103   2.253  0.2396  0.1915 -1.1212
 5796TIP3    H117394   4.478   0.122   2.261 -0.2516 -2.0110 -0.9339
 5796TIP3    H217395   4.583   0.073   2.163  0.5611 -0.4594 -0.8721
 5797TIP3   OH217396   1.780   5.961   2.252  0.5721  0.4411 -0.3799
 5797TIP3    H117397   1.851   5.942   2.190  0.8707 -0.1873  0.1408
 5797TIP3    H217398   1.757   5.875   2.289  1.8616  1.0315  1.9460
 5798TIP3   OH217399   2.346   4.029   3.166  0.8696 -0.2407  0.7592
 5798TIP3    H117400   2.409   3.957   3.159  0.6495 -0.5113  1.5107
 5798TIP3    H217401   2.264   3.993   3.134  1.1547  0.2284 -0.6027
 5799TIP3   OH217402   5.276   3.417   4.490  0.0264  0.2920 -0.5056
 5799TIP3    H117403   5.337   3.488   4.513 -1.5815  1.0424  1.8259
 5799TIP3    H217404   5.329   3.357   4.437  1.8676  2.4603 -1.3163
 5800TIP3   OH217405   0.085   1.632   2.810  0.0287  0.3222  0.1895
 5800TIP3    H117406   0.078   1.723   2.839  0.1068 -0.1663  1.8791
 5800TIP3    H217407  -0.006   1.605   2.795  0.0528  0.8767 -1.0621
 5801TIP3   OH217408   4.052   2.118   1.434  0.0440  0.1697  0.1436
 5801TIP3    H117409   3.958   2.129   1.443 -0.1737 -1.1160 -0.2797
 5801TIP3    H217410   4.082   2.092   1.521 -0.3259 -1.3161 -0.1310
 5802TIP3   OH217411   2.602   0.088   1.428  0.0647 -0.2273  0.2381
 5802TIP3    H117412   2.541   0.014   1.433  1.2896 -1.5030 -2.0604
 5802TIP3    H217413   2.592   0.122   1.339 -1.4937  3.4364  1.5988
 5803TIP3   OH217414   4.891   1.276   3.624  0.4337 -0.2468 -0.3532
 5803TIP3    H117415   4.964   1.296   3.565 -0.5796 -1.2155 -2.0103
 5803TIP3    H217416   4.833   1.353   3.617  0.1274 -0.5240 -0.9537
 5804TIP3   OH217417   1.267   0.736   4.978  0.5910 -0.2278 -0.3148
 5804TIP3    H117418   1.234   0.822   5.001  0.4570  0.2572 -2.1344
 5804TIP3    H217419   1.191   0.678   4.983  0.6284 -0.1978  0.6578
 5805TIP3   OH217420   5.656   4.898   0.750  0.0766 -0.0505  0.2155
 5805TIP3    H117421   5.690   4.895   0.661 -2.0424 -1.1366 -0.6137
 5805TIP3    H217422   5.677   4.812   0.787 -0.4004 -0.1525  0.2440
 5806TIP3   OH217423   3.890   1.985   3.444  0.1501  0.6334  0.0251
 5806TIP3    H117424   3.971   2.003   3.492  1.5396  0.2939 -2.0600
 5806TIP3    H217425   3.849   2.070   3.433  0.6365  0.9222  0.4003
 5807TIP3   OH217426   3.692   3.032   3.184  0.9179 -0.0323 -0.0301
 5807TIP3    H117427   3.599   3.010   3.180  1.0602 -0.5577 -0.8074
 5807TIP3    H217428   3.727   3.001   3.100  1.8066  0.0717  0.2926
 5808TIP3   OH217429   2.893   0.834   3.167  0.1061  0.4069 -0.8109
 5808TIP3    H117430   2.890   0.873   3.080  1.5023  2.4130 -0.0350
 5808TIP3    H217431   2.984   0.809   3.180 -0.6138 -2.8366 -1.0422
 5809TIP3   OH217432   5.125   4.418   0.196 -0.4209  0.1592  0.2503
 5809TIP3    H117433   5.122   4.510   0.168  1.9176  0.5242  0.9962
 5809TIP3    H217434   5.206   4.384   0.157 -0.5757 -1.2075  1.0791
 5810TIP3   OH217435   3.653   5.325   0.459 -0.0551 -0.1753  0.7617
 5810TIP3    H117436   3.673   5.405   0.509  1.2495 -0.3354  0.5349
 5810TIP3    H217437   3.566   5.341   0.423  0.2558  1.2357  0.5579
 5811TIP3   OH217438   4.080   3.978   3.564  0.0299 -0.2842 -0.1912
 5811TIP3    H117439   4.105   4.030   3.488 -0.4429 -0.4397 -0.4584
 5811TIP3    H217440   4.092   3.887   3.536 -2.0044 -0.4293 -0.7891
 5812TIP3   OH217441   4.241   4.283   3.024  0.0668 -0.2513  0.6499
 5812TIP3    H117442   4.200   4.237   2.951 -0.8587 -0.6099  1.3662
 5812TIP3    H217443   4.319   4.323   2.987 -0.8410  0.3052 -0.7307
 5813TIP3   OH217444   5.133   5.836   4.542  0.6793  0.8220  0.4084
 5813TIP3    H117445   5.086   5.870   4.618  0.5173 -0.2517  0.8043
 5813TIP3    H217446   5.083   5.758   4.516  2.6848 -0.8822  1.3743
 5814TIP3   OH217447   3.976   4.928   4.047  0.3008  0.1682 -0.2960
 5814TIP3    H117448   3.987   5.018   4.015 -2.5692  0.9100  0.4486
 5814TIP3    H217449   3.899   4.933   4.104  0.9368 -2.5117  0.9376
 5815TIP3   OH217450   3.597   4.288   0.775 -0.4320  0.2977  0.4011
 5815TIP3    H117451   3.545   4.343   0.717 -0.3765 -2.0181 -2.0361
 5815TIP3    H217452   3.533   4.245   0.831 -0.7525  0.6349  0.2928
 5816TIP3   OH217453   3.733   5.549   4.249 -0.4432  0.1671  0.1916
 5816TIP3    H117454   3.715   5.542   4.342  0.6018 -0.8706  0.3419
 5816TIP3    H217455   3.808   5.608   4.244 -0.3146 -0.0093  0.0341
 5817TIP3   OH217456   0.550   0.559   4.476  0.0074 -0.4105  0.0228
 5817TIP3    H117457   0.496   0.542   4.399  0.4178 -2.8989  0.2073
 5817TIP3    H217458   0.634   0.588   4.440 -0.6628  1.2265 -0.3233
 5818TIP3   OH217459   2.990   5.483   2.462 -0.3496  0.1638  0.0618
 5818TIP3    H117460   2.897   5.461   2.456 -0.7612  1.7198  0.2504
 5818TIP3    H217461   3.022   5.476   2.373 -0.3969 -1.3200  0.1386
 5819TIP3   OH217462   3.339   0.587   0.802 -0.3236 -0.0202  0.4343
 5819TIP3    H117463   3.345   0.681   0.821 -1.3877  0.3815 -0.9786
 5819TIP3    H217464   3.426   0.564   0.769 -0.0835  0.5045  0.6908
 5820TIP3   OH217465   3.351   0.900   1.480 -0.7910 -0.0584  0.7457
 5820TIP3    H117466   3.393   0.868   1.401  0.3081 -2.3853  2.1533
 5820TIP3    H217467   3.415   0.960   1.518 -0.4292 -0.5303  0.8890
 5821TIP3   OH217468   0.196   2.253   0.548  0.2579 -0.0436  0.6425
 5821TIP3    H117469   0.118   2.227   0.499  0.0383  2.5401 -0.5553
 5821TIP3    H217470   0.268   2.209   0.503 -0.2605 -0.2768  0.0260
 5822TIP3   OH217471   5.752   5.026   0.968 -0.6091  0.2678  0.7810
 5822TIP3    H117472   5.714   4.997   0.885 -0.4042  1.4776  0.2429
 5822TIP3    H217473   5.746   5.121   0.965  0.6054  0.3905  1.5802
 5823TIP3   OH217474   0.277   3.610   3.815 -0.6332 -0.4443 -0.3591
 5823TIP3    H117475   0.209   3.597   3.749  0.4448 -1.3899 -1.3378
 5823TIP3    H217476   0.300   3.703   3.808 -3.1158  0.3856  1.3436
 5824TIP3   OH217477   2.733   3.360   3.488  0.1660  0.0928  0.0465
 5824TIP3    H117478   2.710   3.320   3.404 -1.0143  0.5081  0.1548
 5824TIP3    H217479   2.816   3.319   3.513 -0.5120 -1.5460 -0.3182
 5825TIP3   OH217480   5.880   4.715   3.360  0.3020  0.5074 -0.2872
 5825TIP3    H117481   5.885   4.658   3.437  1.5689  0.2524 -0.5298
 5825TIP3    H217482   5.831   4.665   3.296  1.0436 -0.1559 -0.3532
 5826TIP3   OH217483   5.401   4.111   4.685  0.6799  0.5054  0.0368
 5826TIP3    H117484   5.435   4.125   4.773  1.3913 -0.9597  0.0174
 5826TIP3    H217485   5.329   4.050   4.697  0.2460  0.9365 -0.3230
 5827TIP3   OH217486   1.603   0.398   3.358  0.6160  0.0771  0.0114
 5827TIP3    H117487   1.671   0.459   3.388  1.2739 -0.6816  0.1118
 5827TIP3    H217488   1.601   0.330   3.426 -1.1550  0.7497  0.6617
 5828TIP3   OH217489   3.062   0.015   2.453 -0.0405 -0.3197 -0.3634
 5828TIP3    H117490   3.112  -0.043   2.511  1.1206 -1.2752 -2.2277
 5828TIP3    H217491   3.083   0.103   2.483  2.2875 -0.7193 -0.6683
 5829TIP3   OH217492  -0.006   1.973   0.922  0.5065 -0.6015  0.0185
 5829TIP3    H117493   0.035   2.044   0.874 -2.3822  0.6637 -0.7913
 5829TIP3    H217494   0.007   1.996   1.014  0.8487  0.2191 -0.2231
 5830TIP3   OH217495   0.818   5.896   3.125 -0.0099 -0.0177  0.0903
 5830TIP3    H117496   0.837   5.974   3.073  1.4270  0.3656  1.1492
 5830TIP3    H217497   0.898   5.845   3.123  0.0055 -0.1222  1.6845
 5831TIP3   OH217498   1.478   5.482   4.763 -0.1034  0.3910  0.0304
 5831TIP3    H117499   1.470   5.409   4.825  1.8231 -0.1857 -0.3337
 5831TIP3    H217500   1.423   5.551   4.800 -1.0320 -0.8251  1.0130
 5832TIP3   OH217501   5.294   5.738   2.779 -0.6593 -0.1859 -0.2449
 5832TIP3    H117502   5.347   5.766   2.704 -0.4004  0.6159  0.2321
 5832TIP3    H217503   5.215   5.792   2.774  0.0032  0.9404  0.8899
 5833TIP3   OH217504   5.462   0.148   4.750  0.7084 -0.4658 -0.2636
 5833TIP3    H117505   5.417   0.106   4.823  1.9384 -0.6923  0.3916
 5833TIP3    H217506   5.423   0.110   4.672 -1.6964  0.8648  0.1880
 5834TIP3   OH217507   5.582   4.180   3.212  0.4004  0.4500 -0.0477
 5834TIP3    H117508   5.554   4.136   3.292 -1.4369  0.5326 -0.5854
 5834TIP3    H217509   5.623   4.112   3.159 -1.7710 -0.5286 -0.5767
 5835TIP3   OH217510   0.363   3.899   2.158  0.1558 -0.3500  0.3774
 5835TIP3    H117511   0.396   3.987   2.172 -0.8198  0.5815 -2.4514
 5835TIP3    H217512   0.438   3.852   2.120 -0.3160  0.4108 -1.6248
 5836TIP3   OH217513   1.651   4.540   5.016 -0.1051  0.2241  0.2968
 5836TIP3    H117514   1.571   4.553   4.964  0.3096  0.0416 -0.3954
 5836TIP3    H217515   1.622   4.548   5.107 -0.5921  1.9346  0.0138
 5837TIP3   OH217516   5.227   4.988   4.326  0.4643  0.8017  0.3212
 5837TIP3    H117517   5.196   4.898   4.337  0.5514  0.6332 -0.7124
 5837TIP3    H217518   5.153   5.042   4.353  0.3457  0.4270  0.7690
 5838TIP3   OH217519   3.438   1.277   0.772 -0.7566  0.1113  0.4244
 5838TIP3    H117520   3.369   1.324   0.818 -1.6173 -0.5101 -0.1823
 5838TIP3    H217521   3.391   1.209   0.723  0.2007  0.2316 -0.6962
 5839TIP3   OH217522   3.001   4.836   3.847  0.2990  0.8230  0.0690
 5839TIP3    H117523   2.943   4.912   3.842 -0.1741  0.3935 -2.2646
 5839TIP3    H217524   2.944   4.765   3.877 -0.5451  0.3676 -2.3564
 5840TIP3   OH217525   3.317   4.500   3.490  0.2911  0.1777  0.0643
 5840TIP3    H117526   3.272   4.484   3.407  0.3847  0.2068  0.0078
 5840TIP3    H217527   3.257   4.555   3.540 -0.3356 -0.9048  0.5357
 5841TIP3   OH217528   3.373   0.963   4.317  0.4033 -0.4480 -0.4377
 5841TIP3    H117529   3.290   0.931   4.283 -0.6274  1.2649  0.3794
 5841TIP3    H217530   3.394   1.039   4.263  0.1974  0.5770  0.8988
 5842TIP3   OH217531   1.060   2.313   3.206  0.1057 -0.1906 -0.3936
 5842TIP3    H117532   1.097   2.386   3.157  0.4644  0.6987  1.1136
 5842TIP3    H217533   1.135   2.265   3.239 -0.0772  0.0012  0.3498
 5843TIP3   OH217534   3.821   1.865   4.706  0.2391 -0.1733  0.1382
 5843TIP3    H117535   3.762   1.790   4.705  0.8206 -0.6659  1.1363
 5843TIP3    H217536   3.772   1.934   4.661 -0.2190 -1.1999 -0.9937
 5844TIP3   OH217537   0.625   3.967   5.074 -0.0556 -0.1042 -0.3083
 5844TIP3    H117538   0.576   3.979   5.155  1.1454 -0.0480  0.4466
 5844TIP3    H217539   0.641   3.873   5.070  0.4149 -0.0346 -0.1436
 5845TIP3   OH217540   1.148   1.411   3.469  0.4355 -0.2765 -0.6716
 5845TIP3    H117541   1.071   1.448   3.426  1.1867  1.6433 -0.4805
 5845TIP3    H217542   1.160   1.326   3.428 -1.1969 -0.1864 -1.4068
 5846TIP3   OH217543   1.911   1.594   1.272 -0.1957 -0.2123 -0.1481
 5846TIP3    H117544   1.960   1.663   1.316  1.5306 -0.1354 -2.0617
 5846TIP3    H217545   1.852   1.640   1.213 -1.0979 -0.3705  0.5868
 5847TIP3   OH217546   3.175   5.277   0.945  0.6735  0.3783 -0.1098
 5847TIP3    H117547   3.144   5.205   0.999 -0.4132 -1.1390 -2.6055
 5847TIP3    H217548   3.126   5.353   0.977 -0.1739 -0.5224  0.8047
 5848TIP3   OH217549   5.651   0.459   3.074 -0.1842  0.4560 -0.2390
 5848TIP3    H117550   5.704   0.519   3.126 -0.0897  0.1357  0.0330
 5848TIP3    H217551   5.571   0.509   3.055 -1.3228 -0.2774  2.3334
 5849TIP3   OH217552   4.451   4.983   3.230  0.2865  0.2065 -0.6463
 5849TIP3    H117553   4.394   4.924   3.280 -1.0665  0.3909 -1.8868
 5849TIP3    H217554   4.423   4.972   3.139 -0.1179  2.8241 -0.9332
 5850TIP3   OH217555   5.052   4.953   2.728  0.2278 -0.1942 -0.3557
 5850TIP3    H117556   4.982   4.896   2.694  0.9988 -1.1347 -0.3950
 5850TIP3    H217557   5.076   4.914   2.811 -0.7263  1.3411  0.6892
 5851TIP3   OH217558   6.048   4.951   4.774  0.2416  0.4893  0.2886
 5851TIP3    H117559   6.126   5.004   4.760  0.4751  0.7853  2.3554
 5851TIP3    H217560   5.980   5.015   4.798  0.0555  0.0412  1.0067
 5852TIP3   OH217561   4.711   5.043   3.286  0.0439  0.1740 -0.1821
 5852TIP3    H117562   4.635   5.051   3.228 -0.3814 -1.0491  0.1758
 5852TIP3    H217563   4.753   5.129   3.282 -1.9373  1.2284  0.4405
 5853TIP3   OH217564   0.429   5.667   0.729  0.4840  0.2759  0.0132
 5853TIP3    H117565   0.435   5.571   0.728  2.1229  0.3204 -1.9134
 5853TIP3    H217566   0.403   5.688   0.819  1.6333 -1.9109  0.9619
 5854TIP3   OH217567   5.547   0.828   1.591 -0.0744  0.1077  0.0467
 5854TIP3    H117568   5.552   0.762   1.522  2.1284  0.6276 -0.3827
 5854TIP3    H217569   5.627   0.880   1.580 -1.2344  2.2036  1.0225
 5855TIP3   OH217570   2.035   0.946   0.001  0.3773 -0.2137 -0.3132
 5855TIP3    H117571   2.080   0.888  -0.060  1.5535 -0.0796  0.3943
 5855TIP3    H217572   2.079   0.932   0.085 -2.3444 -1.7648  0.9995
 5856TIP3   OH217573   5.027   1.387   3.401  1.2950 -0.0437  0.3822
 5856TIP3    H117574   5.032   1.482   3.394 -0.8271  0.0108 -2.0607
 5856TIP3    H217575   5.114   1.360   3.430  1.8504  2.6251  1.5154
 5857TIP3   OH217576   0.065   4.797   1.540  0.0297  0.7244  0.6086
 5857TIP3    H117577  -0.005   4.838   1.489 -1.4648 -1.2876  0.9231
 5857TIP3    H217578   0.042   4.814   1.631 -0.3268 -0.3265  0.7264
 5858TIP3   OH217579   0.685   4.865   4.740  0.0987 -0.2551 -0.2128
 5858TIP3    H117580   0.749   4.891   4.675  0.1102  0.2461 -0.0053
 5858TIP3    H217581   0.613   4.828   4.689  0.6358 -1.0106 -0.4339
 5859TIP3   OH217582   4.881   4.498   2.193  0.0500 -0.4550  0.6605
 5859TIP3    H117583   4.888   4.411   2.231 -0.5815 -0.9373 -0.2866
 5859TIP3    H217584   4.938   4.553   2.247  0.9071 -1.5676  0.9208
 5860TIP3   OH217585   5.463   2.677   0.872  0.1732 -0.3863  0.1248
 5860TIP3    H117586   5.405   2.623   0.926 -2.2946  1.8005 -0.1438
 5860TIP3    H217587   5.446   2.767   0.900  1.2672  0.5717 -2.0202
 5861TIP3   OH217588   1.654   4.031   3.101  0.2393  0.8061  0.0296
 5861TIP3    H117589   1.699   4.069   3.177  0.6746  1.7520 -0.6777
 5861TIP3    H217590   1.722   4.022   3.034 -0.5769  2.3611 -1.0952
 5862TIP3   OH217591   3.149   1.207   3.538  0.0573  0.0771 -0.0105
 5862TIP3    H117592   3.172   1.119   3.565  2.5224  0.3879 -0.8497
 5862TIP3    H217593   3.192   1.264   3.602 -0.9847  0.7212  0.1562
 5863TIP3   OH217594   0.551   5.080   3.443 -0.7650 -0.4244 -0.0901
 5863TIP3    H117595   0.618   5.145   3.422 -1.0478  0.2455  0.9824
 5863TIP3    H217596   0.600   5.000   3.459  0.2019  0.6847  3.5530
 5864TIP3   OH217597   1.999   3.402   3.770 -0.6582 -0.0829  0.0007
 5864TIP3    H117598   2.090   3.433   3.772 -0.5157 -0.3051 -1.6590
 5864TIP3    H217599   2.006   3.309   3.796 -0.1859 -0.5203 -1.6132
 5865TIP3   OH217600   2.664   5.789   3.296 -0.3092  0.5365 -0.0270
 5865TIP3    H117601   2.590   5.817   3.242 -0.5871 -1.1745 -0.6004
 5865TIP3    H217602   2.734   5.851   3.275 -1.3301  1.7042 -0.0613
 5866TIP3   OH217603   0.262   3.240   2.845 -0.3343  0.0033  0.0056
 5866TIP3    H117604   0.281   3.154   2.881 -0.3313 -0.0435 -0.1057
 5866TIP3    H217605   0.265   3.299   2.920 -0.4809 -0.1159  0.1062
 5867TIP3   OH217606   2.827   4.456   0.273 -0.1925 -0.1394 -0.0816
 5867TIP3    H117607   2.884   4.531   0.258  1.2883 -1.3210 -0.5891
 5867TIP3    H217608   2.740   4.494   0.284  0.4563  1.6166 -0.6800
 5868TIP3   OH217609   3.570   5.754   4.779  0.1127 -0.2476 -0.2658
 5868TIP3    H117610   3.518   5.780   4.855 -1.1797  1.9238 -1.7777
 5868TIP3    H217611   3.507   5.714   4.720  0.5855  0.3350 -1.1885
 5869TIP3   OH217612   4.410   2.696   2.861  0.3398  0.1566  0.1944
 5869TIP3    H117613   4.450   2.755   2.924  0.4506 -1.7811  2.0241
 5869TIP3    H217614   4.471   2.696   2.787  2.1498 -0.3162  1.6068
 5870TIP3   OH217615   5.167   2.849   2.292  0.2658 -0.3793 -0.2578
 5870TIP3    H117616   5.108   2.889   2.228  0.5207 -0.2780 -0.4347
 5870TIP3    H217617   5.167   2.910   2.366 -0.1025 -0.5434 -0.1226
 5871TIP3   OH217618   5.274   4.323   2.216  0.1511 -0.3664  0.0533
 5871TIP3    H117619   5.222   4.337   2.136 -0.8007 -2.7548  0.1785
 5871TIP3    H217620   5.215   4.348   2.287 -0.4540 -1.9792  0.1450
 5872TIP3   OH217621   4.181   2.096   3.663 -0.3136  0.0565  0.2955
 5872TIP3    H117622   4.210   2.135   3.581 -1.3854  0.3125  0.0194
 5872TIP3    H217623   4.096   2.136   3.680 -0.7114 -0.9799  0.8469
 5873TIP3   OH217624   0.657   5.992   0.110  0.5878  0.2510  0.3550
 5873TIP3    H117625   0.748   5.963   0.103  0.3549 -0.1552 -1.7417
 5873TIP3    H217626   0.609   5.932   0.053 -0.9898  0.5657  1.2993
 5874TIP3   OH217627   4.738   0.291   2.680  0.0373  0.0754  0.2417
 5874TIP3    H117628   4.648   0.271   2.654 -0.1741  1.3213 -0.0479
 5874TIP3    H217629   4.759   0.225   2.746 -0.8749 -0.6019 -0.1244
 5875TIP3   OH217630   2.013   3.457   0.596  0.4600  0.0442 -0.7207
 5875TIP3    H117631   1.994   3.531   0.655  0.2099 -0.0352 -0.6995
 5875TIP3    H217632   2.038   3.386   0.655  0.4837  0.0467 -0.7277
 5876TIP3   OH217633   1.393   1.044   0.092 -0.0413 -0.1419  0.0987
 5876TIP3    H117634   1.393   0.964   0.040  1.2354 -0.6766  0.8629
 5876TIP3    H217635   1.303   1.078   0.085 -0.2543 -0.9357 -1.2789
 5877TIP3   OH217636   5.555   1.150   0.978 -0.0253  0.1793  0.3961
 5877TIP3    H117637   5.606   1.112   0.906 -1.3714 -0.0245 -0.4905
 5877TIP3    H217638   5.464   1.136   0.952 -0.5524 -0.0992  2.2544
 5878TIP3   OH217639   0.267   1.118   0.325 -0.3467  0.1473  0.3766
 5878TIP3    H117640   0.292   1.155   0.410 -1.7371 -1.7038  1.6749
 5878TIP3    H217641   0.291   1.026   0.331  0.5942  0.2052 -1.7296
 5879TIP3   OH217642   1.623   1.811   2.790 -0.2039 -0.2356  0.0737
 5879TIP3    H117643   1.708   1.845   2.819  0.2744 -1.1735 -0.1718
 5879TIP3    H217644   1.606   1.737   2.848 -0.7455 -0.1822 -0.0186
 5880TIP3   OH217645   0.796   4.790   0.479 -0.1214  0.2337 -0.4260
 5880TIP3    H117646   0.849   4.860   0.517 -0.4849  2.2350 -3.2623
 5880TIP3    H217647   0.706   4.812   0.502 -0.2332  0.7500 -1.2945
 5881TIP3   OH217648   3.021   4.174   0.683  0.5328 -0.1077  0.2093
 5881TIP3    H117649   2.970   4.179   0.603 -0.2214 -3.0060  0.4091
 5881TIP3    H217650   3.110   4.155   0.654  0.3271 -0.8150  0.0247
 5882TIP3   OH217651   3.541   1.486   1.029 -0.2455 -0.2264  0.2139
 5882TIP3    H117652   3.491   1.533   1.096 -1.4806  0.9767 -1.4755
 5882TIP3    H217653   3.482   1.417   0.998  0.1328 -0.4576 -0.0002
 5883TIP3   OH217654   5.604   5.904   0.165  0.0891 -0.0192 -0.2027
 5883TIP3    H117655   5.632   5.826   0.119 -1.0149 -1.6773  1.7744
 5883TIP3    H217656   5.623   5.976   0.105  0.9237 -1.8057 -2.1824
 5884TIP3   OH217657   1.739   0.328   1.770 -0.1715  0.1245 -0.2481
 5884TIP3    H117658   1.810   0.335   1.835  1.1863 -1.6612 -1.4288
 5884TIP3    H217659   1.767   0.384   1.698  0.0108 -0.5239 -0.6861
 5885TIP3   OH217660   3.365   0.968   2.624 -0.3222 -0.3247 -0.1071
 5885TIP3    H117661   3.452   0.976   2.663 -0.1115 -2.6610  0.0770
 5885TIP3    H217662   3.373   1.011   2.539  1.1208 -0.6986 -0.1973
 5886TIP3   OH217663   2.504   5.376   0.970  0.0058  0.1299 -0.1335
 5886TIP3    H117664   2.535   5.425   1.046 -1.4263 -0.0819  0.6249
 5886TIP3    H217665   2.581   5.367   0.914  1.2696 -0.2671  1.5845
 5887TIP3   OH217666   4.906   2.103   4.113  0.0485  0.2319 -0.2515
 5887TIP3    H117667   4.935   2.106   4.204  0.0117  0.1978 -0.2387
 5887TIP3    H217668   4.869   2.190   4.097 -0.3152  0.1019 -0.1144
 5888TIP3   OH217669   2.107   1.109   3.108 -0.5645 -0.2548 -0.0116
 5888TIP3    H117670   2.039   1.167   3.075 -0.1558  0.5749  0.5924
 5888TIP3    H217671   2.186   1.135   3.061 -0.3182 -0.1283  0.4677
 5889TIP3   OH217672   6.304   5.214   2.253 -0.1738  0.4344 -0.5309
 5889TIP3    H117673   6.253   5.135   2.271  0.6704 -0.2573 -1.0729
 5889TIP3    H217674   6.284   5.235   2.162  0.7686 -0.0689 -0.8731
 5890TIP3   OH217675   3.243   2.400   4.340  0.1251  0.1587 -0.1989
 5890TIP3    H117676   3.148   2.395   4.331  0.0392 -1.1086  1.0399
 5890TIP3    H217677   3.258   2.392   4.434  1.4345  1.0257 -0.3181
 5891TIP3   OH217678   1.634   5.572   0.631 -0.6325 -0.3049  0.1350
 5891TIP3    H117679   1.589   5.624   0.564  0.5383  0.0460 -0.4019
 5891TIP3    H217680   1.589   5.488   0.630 -0.5280 -0.3625 -1.2382
 5892TIP3   OH217681   4.356   0.204   1.136  0.4907 -0.1883  0.3103
 5892TIP3    H117682   4.424   0.219   1.202  1.7364 -1.9702 -0.4709
 5892TIP3    H217683   4.405   0.182   1.056 -0.9964  0.1635 -0.7406
 5893TIP3   OH217684   3.895   1.507   2.997 -0.2501  0.7532  0.5663
 5893TIP3    H117685   3.949   1.452   3.054 -3.5375 -1.4018  1.9070
 5893TIP3    H217686   3.888   1.458   2.915 -1.6062  0.0621  1.0689
 5894TIP3   OH217687   0.656   3.671   0.460  0.3352 -0.5289 -0.3686
 5894TIP3    H117688   0.596   3.708   0.524  1.3569 -1.4348  1.1832
 5894TIP3    H217689   0.743   3.697   0.490  0.8876 -1.6647 -0.9124
 5895TIP3   OH217690   0.389   2.314   2.269  0.2783 -0.4782  0.3800
 5895TIP3    H117691   0.410   2.384   2.331  0.5825  0.1988 -0.4620
 5895TIP3    H217692   0.437   2.238   2.302  1.9083  0.3283  0.0126
 5896TIP3   OH217693   4.497   0.412   2.859  0.3541  0.4807  0.3619
 5896TIP3    H117694   4.473   0.494   2.816 -1.7606  0.1460  0.7735
 5896TIP3    H217695   4.432   0.402   2.929  0.9395 -1.2506  0.7038
 5897TIP3   OH217696   5.011   0.828   3.117  0.2090  0.5955  0.0461
 5897TIP3    H117697   4.932   0.800   3.072  0.7077 -0.6845 -0.0743
 5897TIP3    H217698   5.064   0.870   3.049  0.1843  0.2811 -0.1725
 5898TIP3   OH217699   2.904   2.884   2.860  0.0069 -0.1016  0.5269
 5898TIP3    H117700   2.818   2.854   2.830 -0.2486  0.7164  0.4243
 5898TIP3    H217701   2.937   2.812   2.914 -0.5241 -0.6277  0.1692
 5899TIP3   OH217702   1.905   4.343   1.589 -0.0156 -0.9925 -0.3105
 5899TIP3    H117703   1.900   4.285   1.512  1.6840 -1.7104  0.0741
 5899TIP3    H217704   1.998   4.354   1.604 -0.2987 -1.2062  1.9012
 5900TIP3   OH217705   0.552   5.115   0.774  0.3419 -0.1596  0.0085
 5900TIP3    H117706   0.522   5.037   0.727 -0.5129  0.2418 -0.1201
 5900TIP3    H217707   0.582   5.174   0.705 -0.2783  0.1611  0.0131
 5901TIP3   OH217708   1.900   5.314   3.541  0.5766  0.7786  0.1659
 5901TIP3    H117709   1.805   5.307   3.538  0.2177  3.0249  2.7904
 5901TIP3    H217710   1.931   5.223   3.539 -1.4277  0.0156 -2.3339
 5902TIP3   OH217711   0.424   1.176   0.540 -0.1699 -0.0178 -0.4798
 5902TIP3    H117712   0.434   1.086   0.572  3.2921  0.3054 -0.2565
 5902TIP3    H217713   0.454   1.231   0.613 -1.4228  1.2973 -0.9125
 5903TIP3   OH217714   0.337   5.499   3.507  0.5777  0.4115  0.2222
 5903TIP3    H117715   0.320   5.590   3.481  1.7936  0.6551  0.2408
 5903TIP3    H217716   0.373   5.458   3.429  0.7424  0.1457  0.4377
 5904TIP3   OH217717   5.379   2.837   4.215 -0.6204 -0.2483  0.7039
 5904TIP3    H117718   5.348   2.882   4.136 -0.2546  0.7464  1.1008
 5904TIP3    H217719   5.458   2.792   4.188 -1.3025 -1.1504  0.1595
 5905TIP3   OH217720   0.273   1.497   0.666  0.2203  0.1752 -0.3551
 5905TIP3    H117721   0.189   1.513   0.623  0.9956 -1.6582 -2.8426
 5905TIP3    H217722   0.265   1.538   0.752 -2.1190  2.5984 -1.5775
 5906TIP3   OH217723   6.138   4.869   4.528 -0.3284  0.8561 -0.7759
 5906TIP3    H117724   6.071   4.868   4.597 -0.4334  2.6391 -0.8089
 5906TIP3    H217725   6.089   4.849   4.448 -0.3151 -0.5809 -0.4569
 5907TIP3   OH217726   3.960   4.777   3.821  0.7685  0.9706 -0.1481
 5907TIP3    H117727   3.960   4.831   3.900 -1.8750 -1.2376  1.5691
 5907TIP3    H217728   3.879   4.800   3.776  0.9732  0.3803 -0.8430
 5908TIP3   OH217729   2.130   1.666   2.002  0.0180 -0.1981 -0.4275
 5908TIP3    H117730   2.054   1.714   2.038 -0.1633 -0.8233  0.0299
 5908TIP3    H217731   2.113   1.575   2.023  1.4642 -0.2343  0.7102
 5909TIP3   OH217732   3.613   1.799   4.362  0.3011  0.0127 -0.3376
 5909TIP3    H117733   3.643   1.794   4.272 -1.9071  0.1448 -1.1453
 5909TIP3    H217734   3.667   1.867   4.402  0.5850  0.7340 -1.8893
 5910TIP3   OH217735   3.763   3.027   1.967  0.2851 -0.2854  0.1335
 5910TIP3    H117736   3.840   3.001   1.916  0.2682  0.7408 -0.4434
 5910TIP3    H217737   3.709   2.948   1.972  1.0894 -0.8570  0.0322
 5911TIP3   OH217738   0.962   3.305   0.426 -0.2707 -0.0565 -0.2556
 5911TIP3    H117739   0.993   3.386   0.386 -0.0243 -1.2425 -2.6376
 5911TIP3    H217740   1.033   3.242   0.414 -1.8271 -1.6410 -1.9476
 5912TIP3   OH217741   3.155   2.385   4.861  0.1067  0.1783  1.0250
 5912TIP3    H117742   3.159   2.431   4.945  0.3148 -0.8291  1.5829
 5912TIP3    H217743   3.096   2.312   4.876 -1.0758  0.8320 -0.1607
 5913TIP3   OH217744   1.837   0.643   0.186 -0.2971 -0.0597 -0.0629
 5913TIP3    H117745   1.784   0.674   0.113  2.1389  0.6499 -1.6713
 5913TIP3    H217746   1.810   0.698   0.260  0.3663  2.5937 -1.6179
 5914TIP3   OH217747   4.748   3.501   0.336 -0.2362  0.0476 -0.1454
 5914TIP3    H117748   4.791   3.577   0.376  0.3554 -0.2532 -0.2069
 5914TIP3    H217749   4.702   3.459   0.409  0.9088 -0.5486  0.2540
 5915TIP3   OH217750   3.534   3.777   2.943  0.1732  0.1087 -0.0714
 5915TIP3    H117751   3.561   3.709   2.881  0.3683 -0.6251  0.8081
 5915TIP3    H217752   3.466   3.736   2.996 -1.5260  1.4026 -1.1543
 5916TIP3   OH217753   2.694   2.830   0.089 -0.3489  0.6063  0.4643
 5916TIP3    H117754   2.778   2.784   0.089 -0.9824 -0.5901  0.1881
 5916TIP3    H217755   2.702   2.896   0.020  0.0480 -0.0988 -0.1727
 5917TIP3   OH217756   5.988   4.289   1.236 -0.0989  0.7178 -0.4620
 5917TIP3    H117757   5.994   4.195   1.251  3.5512  0.6204 -1.5513
 5917TIP3    H217758   5.894   4.308   1.236 -0.9321 -2.2759  3.1152
 5918TIP3   OH217759   6.037   3.777   1.801 -0.1311 -0.3518  0.0896
 5918TIP3    H117760   5.974   3.818   1.742 -0.4553 -1.9934 -0.7589
 5918TIP3    H217761   6.054   3.843   1.868 -1.9659  0.4991 -0.2318
 5919TIP3   OH217762   4.581   2.003   4.840 -0.1891  0.2843 -0.1258
 5919TIP3    H117763   4.507   2.003   4.780 -0.7688  0.0217  0.5751
 5919TIP3    H217764   4.569   1.924   4.894  1.3847 -0.5524 -0.9420
 5920TIP3   OH217765   6.308   0.976   1.369 -0.2464  0.0618  0.0828
 5920TIP3    H117766   6.244   0.985   1.440 -0.8217  0.2489 -0.4453
 5920TIP3    H217767   6.258   0.939   1.296 -0.1269  1.6330 -0.8356
 5921TIP3   OH217768   1.515   2.802   3.630 -0.0966 -0.2903 -0.2215
 5921TIP3    H117769   1.459   2.775   3.703  0.0587 -0.8859 -0.3178
 5921TIP3    H217770   1.539   2.892   3.650 -1.4204  0.1121 -0.3777
 5922TIP3   OH217771   1.883   1.351   1.765  0.2952 -0.1139 -0.8626
 5922TIP3    H117772   1.963   1.300   1.764  1.9427  2.2279  0.6613
 5922TIP3    H217773   1.903   1.429   1.713 -1.2856  0.1643 -1.1211
 5923TIP3   OH217774   3.243   3.981   0.893 -0.5792  0.3247  0.0060
 5923TIP3    H117775   3.311   3.975   0.960 -0.3194  2.0545 -0.0470
 5923TIP3    H217776   3.256   4.068   0.854 -0.8464 -0.5395 -2.1536
 5924TIP3   OH217777   3.243   3.318   1.215  0.2835  0.2324 -0.6569
 5924TIP3    H117778   3.299   3.375   1.162 -0.7493  0.8153 -1.1417
 5924TIP3    H217779   3.201   3.260   1.151  0.7071 -0.5452 -0.2430
 5925TIP3   OH217780   1.876   4.949   0.165  0.0578  0.0720  0.1934
 5925TIP3    H117781   1.936   5.019   0.189  0.5453 -0.0837 -0.5345
 5925TIP3    H217782   1.932   4.879   0.131 -0.5860  0.3594 -1.5804
 5926TIP3   OH217783   3.302   3.389   3.014 -0.0074 -0.1291  0.4503
 5926TIP3    H117784   3.306   3.320   3.080 -0.0229 -0.6449 -0.0800
 5926TIP3    H217785   3.385   3.383   2.968 -0.2787 -0.2368 -0.0341
 5927TIP3   OH217786   1.972   1.805   0.877  0.0412 -0.9266 -0.9660
 5927TIP3    H117787   1.917   1.881   0.893 -0.3553 -1.6884  1.8721
 5927TIP3    H217788   1.956   1.782   0.786 -1.5446  1.0151 -1.2333
 5928TIP3   OH217789   4.776   1.614   3.213  0.2313  0.1475  0.6212
 5928TIP3    H117790   4.773   1.658   3.298  1.9118  2.0181 -0.1950
 5928TIP3    H217791   4.870   1.608   3.192 -0.0976 -1.1537 -0.6688
 5929TIP3   OH217792   1.021   4.124   0.485 -0.0092  0.7669  0.0443
 5929TIP3    H117793   1.015   4.098   0.394  1.2668  1.5426 -0.2923
 5929TIP3    H217794   0.930   4.136   0.513 -0.3900  1.4335 -1.3970
 5930TIP3   OH217795   2.846   3.861   0.689  0.2587 -0.2775 -0.7170
 5930TIP3    H117796   2.759   3.821   0.689  1.1653 -2.3990 -0.5160
 5930TIP3    H217797   2.841   3.930   0.623 -0.8668 -2.1117 -2.6881
 5931TIP3   OH217798   4.839   0.062   1.757 -0.2853  0.1823 -0.4406
 5931TIP3    H117799   4.795  -0.020   1.735  0.6966 -0.1674 -1.2010
 5931TIP3    H217800   4.919   0.061   1.704  0.1305  1.2681  0.1334
 5932TIP3   OH217801   4.351   1.964   2.390 -0.5915  0.6820  0.4109
 5932TIP3    H117802   4.272   2.010   2.362 -0.8042  0.5323  0.7609
 5932TIP3    H217803   4.414   1.979   2.319 -1.2807 -0.1307 -0.3928
 5933TIP3   OH217804   3.789   1.398   3.371 -0.2380 -0.6119 -0.3022
 5933TIP3    H117805   3.764   1.453   3.445 -2.0069  0.5955 -1.6839
 5933TIP3    H217806   3.801   1.459   3.298  2.6669 -1.6222 -0.8109
 5934TIP3   OH217807   1.700   3.326   4.997  0.1422  0.0718  0.3858
 5934TIP3    H117808   1.741   3.243   4.974 -1.2644 -0.6857  0.5014
 5934TIP3    H217809   1.628   3.302   5.055 -0.6275  1.3143 -0.0120
 5935TIP3   OH217810   6.344   1.312   4.704 -0.4393 -0.3765  0.0971
 5935TIP3    H117811   6.307   1.303   4.616 -1.8794  0.4510  0.5851
 5935TIP3    H217812   6.307   1.238   4.753 -0.9130  0.0606  0.4071
 5936TIP3   OH217813   2.247   3.494   1.753 -0.2802  0.2489  0.3478
 5936TIP3    H117814   2.260   3.499   1.847  0.4034  0.8534  0.2361
 5936TIP3    H217815   2.203   3.410   1.739 -1.4684  0.6890  1.2974
 5937TIP3   OH217816   0.844   4.334   2.358  0.1632 -0.0754 -0.1333
 5937TIP3    H117817   0.884   4.332   2.445 -0.9402 -2.7909  0.4068
 5937TIP3    H217818   0.766   4.388   2.369 -0.3107 -0.9140  0.7504
 5938TIP3   OH217819   2.798   5.372   4.451  0.1894  0.2777  0.1423
 5938TIP3    H117820   2.748   5.363   4.533  0.8049 -3.2617  0.2800
 5938TIP3    H217821   2.743   5.329   4.386  2.2637 -2.3848  0.0012
 5939TIP3   OH217822   5.206   5.315   2.709  0.0357  0.2841 -0.4010
 5939TIP3    H117823   5.130   5.279   2.754 -0.3985  0.3692 -1.0502
 5939TIP3    H217824   5.223   5.252   2.638 -1.4399  1.8737 -2.2786
 5940TIP3   OH217825   3.977   5.351   0.612  0.5888 -0.3141  0.2234
 5940TIP3    H117826   3.997   5.307   0.529 -0.8154  0.3218 -0.4833
 5940TIP3    H217827   3.972   5.444   0.589  3.7504  0.3949  1.7236
 5941TIP3   OH217828   5.575   0.333   4.930  1.0252  0.0360 -0.1725
 5941TIP3    H117829   5.499   0.277   4.916  0.8628  0.3983 -0.8098
 5941TIP3    H217830   5.647   0.288   4.886  1.4256 -0.8092  1.2851
 5942TIP3   OH217831   2.464   3.601   1.308  0.2189 -0.6217 -0.0174
 5942TIP3    H117832   2.416   3.683   1.294 -1.0967 -1.2956  0.4441
 5942TIP3    H217833   2.479   3.598   1.402 -0.4288 -1.2836  0.0686
 5943TIP3   OH217834   1.751   2.919   0.931 -0.2933  0.3121 -0.7311
 5943TIP3    H117835   1.793   2.868   1.001  1.2452  0.9251 -1.1771
 5943TIP3    H217836   1.789   2.884   0.850 -0.4116  1.0945 -1.1305
 5944TIP3   OH217837   0.090   2.503   3.788  0.2677  0.3005  0.7403
 5944TIP3    H117838   0.066   2.526   3.878  1.2500  2.2379  0.5533
 5944TIP3    H217839   0.006   2.500   3.741 -0.1527  0.3718  1.4636
 5945TIP3   OH217840   3.419   2.107   2.900 -0.0339 -0.5117 -0.2479
 5945TIP3    H117841   3.442   2.113   2.993 -1.9812  0.2026  0.2307
 5945TIP3    H217842   3.331   2.143   2.895 -1.4728 -3.8342 -1.8139
 5946TIP3   OH217843   5.406   5.914   2.582 -0.0707 -0.1664 -0.5510
 5946TIP3    H117844   5.318   5.950   2.590  0.0122 -0.1462  0.3260
 5946TIP3    H217845   5.451   5.975   2.523  0.0993  1.2487  0.9871
 5947TIP3   OH217846   2.317   3.826   1.334  0.0328 -0.3586  0.5051
 5947TIP3    H117847   2.222   3.822   1.319 -0.0279  0.5761  0.5944
 5947TIP3    H217848   2.332   3.914   1.368  1.1504  0.0425 -0.9544
 5948TIP3   OH217849   4.243   1.874   1.890 -0.0563 -0.0327  0.3692
 5948TIP3    H117850   4.175   1.902   1.951 -1.5107  0.0198 -1.2229
 5948TIP3    H217851   4.203   1.806   1.837  1.7025 -1.2548  0.5075
 5949TIP3   OH217852   5.839   5.610   2.382  0.2012  0.4597 -0.3334
 5949TIP3    H117853   5.800   5.535   2.427 -1.6780  0.9237 -1.0599
 5949TIP3    H217854   5.802   5.686   2.427  0.9956  0.9503 -0.4878
 5950TIP3   OH217855   0.546   1.500   2.997  0.1368  0.0439  0.2983
 5950TIP3    H117856   0.604   1.570   3.028 -0.6655  2.1944 -2.6657
 5950TIP3    H217857   0.596   1.455   2.929 -0.7780  0.3201 -0.5680
 5951TIP3   OH217858   2.661   5.931   2.439  0.5148  0.6276  0.1536
 5951TIP3    H117859   2.675   5.846   2.398 -0.8610  0.2457  0.4243
 5951TIP3    H217860   2.613   5.982   2.374 -1.2161  0.1965  1.0314
 5952TIP3   OH217861   2.957   1.336   1.731 -0.0879  0.3282 -0.2735
 5952TIP3    H117862   3.022   1.333   1.661  0.4505  0.5564  0.2095
 5952TIP3    H217863   2.927   1.246   1.739  1.5235 -0.1671  0.7378
 5953TIP3   OH217864   5.427   4.719   1.569 -0.6118  0.4080 -0.0265
 5953TIP3    H117865   5.411   4.625   1.562 -0.1034  0.3369 -0.3201
 5953TIP3    H217866   5.347   4.759   1.536 -0.7714  0.0773 -0.0485
 5954TIP3   OH217867   3.077   0.531   2.430 -0.0007  0.0694 -0.3356
 5954TIP3    H117868   3.162   0.573   2.444 -0.3087  0.0583  1.9324
 5954TIP3    H217869   3.019   0.571   2.495 -1.0808 -1.7240 -0.1189
 5955TIP3   OH217870   4.483   3.961   0.623  0.3964  0.3804  0.2169
 5955TIP3    H117871   4.528   3.880   0.643  0.1499 -0.5168 -2.4717
 5955TIP3    H217872   4.435   3.983   0.703  2.9609 -0.3508  2.0488
 5956TIP3   OH217873   3.444   3.866   4.179 -0.4374 -0.2429  0.4512
 5956TIP3    H117874   3.481   3.866   4.267  0.4397 -2.7663  0.1664
 5956TIP3    H217875   3.515   3.897   4.123  1.1118 -3.9613  0.0547
 5957TIP3   OH217876   3.582   2.592   4.249 -0.1684 -0.1394 -0.1772
 5957TIP3    H117877   3.543   2.545   4.322 -1.2289  1.2194  0.1554
 5957TIP3    H217878   3.652   2.644   4.289 -0.1614 -0.0766 -0.2714
 5958TIP3   OH217879   5.404   4.156   4.024 -1.0186 -0.2848 -0.3088
 5958TIP3    H117880   5.395   4.250   4.035 -2.9307 -0.6114  1.6034
 5958TIP3    H217881   5.498   4.140   4.024 -0.6817  1.5606 -0.0772
 5959TIP3   OH217882   3.782   0.617   4.183 -0.1292 -0.2500 -0.3148
 5959TIP3    H117883   3.733   0.636   4.104 -0.0783 -1.6783 -0.7214
 5959TIP3    H217884   3.734   0.544   4.224 -0.6918  1.0319  1.4759
 5960TIP3   OH217885   4.962   4.514   1.041  0.6043  0.3598  0.5491
 5960TIP3    H117886   4.936   4.444   1.101  0.6008  0.0969  0.2449
 5960TIP3    H217887   5.005   4.579   1.097 -0.6883  0.8021  1.0533
 5961TIP3   OH217888   1.778   5.321   2.581  0.1129  0.2402 -0.0801
 5961TIP3    H117889   1.751   5.232   2.603  1.3344 -0.0532  0.2743
 5961TIP3    H217890   1.823   5.352   2.659  0.9362  0.6554 -0.7140
 5962TIP3   OH217891   1.608   0.330   2.359 -0.1392 -0.5999 -0.3672
 5962TIP3    H117892   1.614   0.411   2.410 -0.6933 -0.4220 -0.5812
 5962TIP3    H217893   1.563   0.355   2.279 -1.2727 -1.3238  0.0146
 5963TIP3   OH217894   5.757   1.855   0.245  0.1332 -0.4338  0.7488
 5963TIP3    H117895   5.849   1.851   0.221  0.0610  0.4615  0.2690
 5963TIP3    H217896   5.743   1.946   0.271 -0.0581 -1.1017  3.1958
 5964TIP3   OH217897   6.022   3.694   2.781  0.2367 -0.2201  0.1206
 5964TIP3    H117898   6.051   3.615   2.828  1.0650  0.0617  0.1053
 5964TIP3    H217899   6.084   3.762   2.809 -0.2307  0.3314 -0.1676
 5965TIP3   OH217900   3.396   0.726   0.450 -0.4272 -0.7596 -0.0484
 5965TIP3    H117901   3.440   0.747   0.368 -1.5169 -0.2104 -0.5110
 5965TIP3    H217902   3.430   0.791   0.512 -0.5048 -0.3990 -0.3772
 5966TIP3   OH217903   3.276   5.613   1.541  0.0305  0.3620 -0.0130
 5966TIP3    H117904   3.333   5.550   1.497 -0.2441  0.5770 -0.6921
 5966TIP3    H217905   3.193   5.608   1.494 -0.0553  1.0977  0.0367
 5967TIP3   OH217906   3.256   1.601   2.846 -0.0534  0.3961 -0.2074
 5967TIP3    H117907   3.322   1.569   2.785  1.6820 -0.1706  1.8499
 5967TIP3    H217908   3.218   1.522   2.884 -1.8075  0.7193 -1.1786
 5968TIP3   OH217909   2.106   5.585   5.090  0.1747 -0.8181  0.7018
 5968TIP3    H117910   2.096   5.508   5.034 -0.3586 -0.2141 -0.0580
 5968TIP3    H217911   2.026   5.636   5.075  0.9026  0.3127  0.5017
 5969TIP3   OH217912   0.885   5.979   0.688  0.0300 -0.3837 -0.0770
 5969TIP3    H117913   0.848   5.924   0.620  0.0757 -1.0141  0.3945
 5969TIP3    H217914   0.978   5.986   0.665 -0.1566  0.2715 -0.6463
 5970TIP3   OH217915   5.456   2.212   0.325 -0.3731 -0.1583  0.1168
 5970TIP3    H117916   5.537   2.223   0.275  1.0742 -0.2422  2.2616
 5970TIP3    H217917   5.437   2.118   0.318 -0.2916 -0.1410 -0.3942
 5971TIP3   OH217918   2.055   1.448   5.116  0.3300 -0.0917 -0.5457
 5971TIP3    H117919   2.110   1.481   5.044  0.2613  0.9889 -0.1182
 5971TIP3    H217920   2.032   1.526   5.166  0.1863 -0.8097  0.5282
 5972TIP3   OH217921   4.616   1.240   2.053  0.6288  0.0195 -0.0437
 5972TIP3    H117922   4.589   1.310   2.112  2.0094  1.4811 -1.0624
 5972TIP3    H217923   4.692   1.201   2.096  0.5615 -0.0928 -0.0253
 5973TIP3   OH217924   0.880   1.487   2.397 -0.4340 -0.2276 -0.6232
 5973TIP3    H117925   0.975   1.476   2.403 -0.5916 -3.6585 -1.8942
 5973TIP3    H217926   0.865   1.515   2.307 -0.6476  0.9188 -0.2483
 5974TIP3   OH217927   0.274   1.890   2.953 -0.7924  0.3637  0.6236
 5974TIP3    H117928   0.235   1.907   2.867  0.8608  1.1622 -0.0225
 5974TIP3    H217929   0.362   1.927   2.946  0.8641 -3.0979  1.2534
 5975TIP3   OH217930   4.433   3.668   0.488  0.4560 -0.1583  0.3098
 5975TIP3    H117931   4.441   3.660   0.393  0.6336 -1.7143  0.4370
 5975TIP3    H217932   4.426   3.578   0.520 -1.1529  0.3874  1.6519
 5976TIP3   OH217933   4.707   5.152   4.468  0.8309  0.4694 -0.0431
 5976TIP3    H117934   4.745   5.131   4.383 -0.5070 -1.2159 -0.2787
 5976TIP3    H217935   4.643   5.221   4.450 -1.9612 -2.1863 -1.1305
 5977TIP3   OH217936   5.763   1.633   2.077 -0.1299  0.2913 -0.3406
 5977TIP3    H117937   5.732   1.647   2.167  1.7100 -2.7234  0.9011
 5977TIP3    H217938   5.856   1.657   2.080 -0.1098  0.3810 -1.5062
 5978TIP3   OH217939   4.236   3.414   3.602 -0.1320 -0.2737 -0.0213
 5978TIP3    H117940   4.240   3.423   3.697  0.9241 -0.2655 -0.0471
 5978TIP3    H217941   4.300   3.477   3.570  1.0390 -1.7063 -0.6239
 5979TIP3   OH217942   1.734   5.135   3.780  0.3229 -0.6174 -0.3667
 5979TIP3    H117943   1.809   5.080   3.758 -1.5722 -3.5233 -0.0805
 5979TIP3    H217944   1.690   5.089   3.852 -1.6398  1.0530 -0.3860
 5980TIP3   OH217945   5.216   0.619   2.539 -0.0923 -0.2185  0.3290
 5980TIP3    H117946   5.135   0.654   2.577 -1.1634 -0.9061 -1.1979
 5980TIP3    H217947   5.279   0.690   2.548 -1.0370  0.5718  1.0006
 5981TIP3   OH217948   2.334   3.623   5.030  0.0408  0.2643 -0.2519
 5981TIP3    H117949   2.260   3.597   4.976  0.7833 -1.7050 -0.3808
 5981TIP3    H217950   2.353   3.547   5.085  1.5601  0.9554  0.2464
 5982TIP3   OH217951   0.854   5.528   1.245 -0.4792 -0.2317  0.0833
 5982TIP3    H117952   0.898   5.544   1.329  0.1957 -0.2814 -0.2522
 5982TIP3    H217953   0.886   5.597   1.188  1.3040 -1.8171 -0.9523
 5983TIP3   OH217954   3.986   2.435   1.279 -0.0441  0.4524 -0.0481
 5983TIP3    H117955   3.961   2.507   1.337 -1.3971  0.7089 -0.9289
 5983TIP3    H217956   3.929   2.443   1.203 -0.1498 -1.4732 -0.2278
 5984TIP3   OH217957   2.647   1.835   2.520  0.9104 -0.5455 -0.3458
 5984TIP3    H117958   2.596   1.797   2.448  0.0655  0.8500 -0.5238
 5984TIP3    H217959   2.622   1.784   2.597 -0.8590  0.1559 -0.4148
 5985TIP3   OH217960   4.858   3.953   0.764 -0.3994 -0.7334  0.1860
 5985TIP3    H117961   4.866   3.961   0.859  0.0503 -0.5675  0.1344
 5985TIP3    H217962   4.822   3.865   0.750  0.9700 -1.3587  0.4441
 5986TIP3   OH217963   3.099   0.276   2.527  0.2069  0.4803 -0.0258
 5986TIP3    H117964   3.062   0.298   2.613  0.3226 -1.3904  0.5482
 5986TIP3    H217965   3.099   0.359   2.479 -1.8266  1.1602  1.0350
 5987TIP3   OH217966   3.528   2.600   4.907 -0.0074  0.2673  0.3678
 5987TIP3    H117967   3.544   2.653   4.829 -2.8626 -0.2204 -0.6924
 5987TIP3    H217968   3.548   2.510   4.880  1.1404  0.3318  0.9485
 5988TIP3   OH217969   2.942   0.327   3.474 -0.0405 -0.9220 -0.3214
 5988TIP3    H117970   2.875   0.384   3.436  0.4159  0.2056  0.4931
 5988TIP3    H217971   2.979   0.379   3.545 -0.1787 -2.5803  1.0182
 5989TIP3   OH217972   5.039   1.465   1.377  0.7607 -0.0657 -0.2493
 5989TIP3    H117973   4.990   1.485   1.457  0.5925  2.0424 -0.8235
 5989TIP3    H217974   5.129   1.491   1.396  0.8609 -0.2130 -0.5175
 5990TIP3   OH217975   0.349   4.043   0.475 -0.7618 -0.0376  0.0642
 5990TIP3    H117976   0.306   4.009   0.397  0.7452  0.2693 -0.9482
 5990TIP3    H217977   0.329   4.137   0.474 -1.1963 -0.1266  0.3540
 5991TIP3   OH217978   1.703   0.333   3.826  0.0958  0.4038 -0.3624
 5991TIP3    H117979   1.700   0.264   3.892 -0.8742  0.2310 -0.5721
 5991TIP3    H217980   1.795   0.337   3.799 -0.2019 -2.7196 -2.3547
 5992TIP3   OH217981   2.446   2.495   2.446  0.3217  0.7471 -0.1014
 5992TIP3    H117982   2.434   2.404   2.420 -1.5609  0.7486  0.5670
 5992TIP3    H217983   2.539   2.513   2.431  0.5908 -1.0673 -0.8640
 5993TIP3   OH217984   4.273   0.437   4.960 -0.3521 -0.0855 -0.0077
 5993TIP3    H117985   4.316   0.388   5.030  0.0969 -0.0288 -0.2395
 5993TIP3    H217986   4.336   0.506   4.938 -0.3169 -0.3440 -0.7402
 5994TIP3   OH217987   3.169   1.968  -0.005  0.2048  0.5324 -0.4582
 5994TIP3    H117988   3.147   1.960   0.087 -0.2204  0.7284 -0.5402
 5994TIP3    H217989   3.262   1.990  -0.006  0.9992 -2.4018 -0.1676
 5995TIP3   OH217990   5.404   4.468   1.421  0.8686 -0.1389 -0.2091
 5995TIP3    H117991   5.339   4.517   1.372  0.6521 -0.5478 -0.3365
 5995TIP3    H217992   5.463   4.432   1.355 -0.6968 -2.5760 -0.4252
 5996TIP3   OH217993   2.376   1.592   2.479 -0.1142 -0.1687 -0.0538
 5996TIP3    H117994   2.316   1.540   2.425 -1.7847  0.9403  0.6664
 5996TIP3    H217995   2.449   1.611   2.420 -2.2392  1.7284 -2.3291
 5997TIP3   OH217996   3.825   1.916   3.157 -0.4250  0.4876  0.0506
 5997TIP3    H117997   3.810   2.009   3.139 -2.6166  0.4453  1.2287
 5997TIP3    H217998   3.836   1.912   3.252 -2.1361 -0.5844  0.2543
 5998TIP3   OH217999   0.892   3.834   1.976  0.2158 -0.4636  0.1359
 5998TIP3    H118000   0.977   3.789   1.984  0.0979 -0.8469 -0.6648
 5998TIP3    H218001   0.899   3.908   2.036  0.7442 -1.0532  0.8359
 5999TIP3   OH218002   2.211   0.453   0.726  0.1385  0.0470 -0.1910
 5999TIP3    H118003   2.305   0.460   0.742  0.2878  0.2962 -1.1040
 5999TIP3    H218004   2.171   0.480   0.809  0.8603 -1.6240  0.7492
 6000TIP3   OH218005   3.887   5.177   1.234  0.6611  0.2417  0.0801
 6000TIP3    H118006   3.923   5.100   1.276 -2.1528 -2.3009 -1.7549
 6000TIP3    H218007   3.818   5.207   1.293 -1.6560 -1.8681 -1.3692
 6001TIP3   OH218008   3.009   4.337   2.969 -0.0696  0.5286 -0.0900
 6001TIP3    H118009   2.943   4.380   3.024 -2.7474 -1.6752 -1.3461
 6001TIP3    H218010   3.060   4.283   3.030 -0.6118  0.8698  0.6849
 6002TIP3   OH218011   0.278   1.114   4.542 -0.0255  0.0003 -0.2390
 6002TIP3    H118012   0.351   1.169   4.514  0.2683 -0.0757  0.3552
 6002TIP3    H218013   0.295   1.098   4.635 -0.5120 -0.4628 -0.2262
 6003TIP3   OH218014   1.108   3.798   3.186 -0.5031  0.0059 -0.1060
 6003TIP3    H118015   1.060   3.803   3.268  1.2815 -1.6223  1.1324
 6003TIP3    H218016   1.186   3.851   3.202  0.6980 -1.6909 -0.0541
 6004TIP3   OH218017   4.547   4.759   2.113 -0.0138 -0.4501 -0.5542
 6004TIP3    H118018   4.570   4.670   2.084  1.1042 -0.2507 -0.3142
 6004TIP3    H218019   4.452   4.763   2.104 -0.5469 -2.8221  2.6297
 6005TIP3   OH218020   1.225   0.158   1.830  0.3976  0.2018  0.1942
 6005TIP3    H118021   1.202   0.188   1.742 -1.4343  0.9297  0.8857
 6005TIP3    H218022   1.214   0.235   1.886 -1.0720 -0.8711  1.4734
 6006TIP3   OH218023   5.570   2.759   0.080  0.1730  0.2737 -0.3141
 6006TIP3    H118024   5.536   2.671   0.067 -0.5482  0.6301 -0.9344
 6006TIP3    H218025   5.493   2.812   0.102  0.2629  1.1271 -1.8964
 6007TIP3   OH218026   0.437   5.871   4.311  0.0617  0.1252 -0.3622
 6007TIP3    H118027   0.415   5.901   4.399  1.4694  0.1722 -0.0091
 6007TIP3    H218028   0.354   5.873   4.264 -0.5805  0.8019  0.7530
 6008TIP3   OH218029   2.891   5.981   4.215 -0.1800  0.5630  0.0786
 6008TIP3    H118030   2.919   5.971   4.306  1.0875  1.8769 -0.1388
 6008TIP3    H218031   2.845   5.899   4.195 -1.8239  0.8256  2.3445
 6009TIP3   OH218032   0.551   1.230   4.244 -1.1342 -0.2028  0.3537
 6009TIP3    H118033   0.547   1.226   4.340  0.4225 -1.6834  0.3959
 6009TIP3    H218034   0.644   1.229   4.223 -1.4550 -0.5833 -1.2017
 6010TIP3   OH218035   4.863   2.355   0.579  0.0832  0.2694 -0.0879
 6010TIP3    H118036   4.797   2.360   0.648  0.6198 -1.6829  0.6317
 6010TIP3    H218037   4.945   2.376   0.622  0.2206  0.5874 -0.4945
 6011TIP3   OH218038   4.210   2.495   3.542  0.4934 -0.6078  0.5134
 6011TIP3    H118039   4.137   2.538   3.585  0.7760  1.5977 -1.0088
 6011TIP3    H218040   4.176   2.469   3.456  1.0538 -1.0250  0.4069
 6012TIP3   OH218041   4.784   4.723   1.658 -0.5126  0.6330  0.2683
 6012TIP3    H118042   4.860   4.665   1.645  0.6890  2.4707 -1.5627
 6012TIP3    H218043   4.762   4.713   1.751  2.8186  0.9737  1.2293
 6013TIP3   OH218044   4.128   3.555   4.395 -0.1811 -0.2872 -0.0469
 6013TIP3    H118045   4.049   3.518   4.433 -1.3396  1.3115 -0.8135
 6013TIP3    H218046   4.127   3.527   4.304  0.1425 -0.2511 -0.0656
 6014TIP3   OH218047   1.054   5.905   2.142 -0.1288  0.1455 -0.3708
 6014TIP3    H118048   1.064   5.851   2.220  0.0519 -0.0868 -0.5521
 6014TIP3    H218049   0.994   5.974   2.168 -1.5406 -0.9712 -0.5586
 6015TIP3   OH218050   0.238   2.240   4.488 -0.1979  0.0269 -0.2115
 6015TIP3    H118051   0.177   2.167   4.484 -0.6167  0.3168  0.5331
 6015TIP3    H218052   0.192   2.313   4.446 -0.2984  0.1903  0.1688
 6016TIP3   OH218053   4.560   4.359   4.547  0.2101  0.0968  0.5954
 6016TIP3    H118054   4.652   4.386   4.547 -0.2561  1.7968  0.6512
 6016TIP3    H218055   4.562   4.265   4.569  1.9342  0.0288  0.2328
 6017TIP3   OH218056   1.390   5.250   2.101  0.2860  0.7459  0.4157
 6017TIP3    H118057   1.419   5.180   2.161 -1.0272 -1.0461 -0.9411
 6017TIP3    H218058   1.435   5.328   2.133 -0.1150 -0.1567  3.5569
 6018TIP3   OH218059   0.718   5.877   1.421  0.3466 -0.2168  0.0493
 6018TIP3    H118060   0.761   5.868   1.506 -1.7219 -0.6376  1.1148
 6018TIP3    H218061   0.647   5.939   1.436 -0.5004 -0.8381 -1.1912
 6019TIP3   OH218062   0.931   3.698   4.333 -0.2334  0.0358 -0.7665
 6019TIP3    H118063   0.913   3.791   4.351 -1.0367 -0.3378  0.5158
 6019TIP3    H218064   0.845   3.656   4.337  0.3287 -1.0806  0.8724
 6020TIP3   OH218065   3.620   3.781   1.499  0.2730 -0.0219  0.0431
 6020TIP3    H118066   3.536   3.735   1.498 -1.3403  2.6891 -0.1396
 6020TIP3    H218067   3.649   3.775   1.590  0.2760 -1.5756 -0.0303
 6021TIP3   OH218068   4.551   5.639   3.855  0.5713 -0.1660 -0.5211
 6021TIP3    H118069   4.608   5.691   3.799  0.7325  0.4711  0.2147
 6021TIP3    H218070   4.608   5.573   3.894  0.9481  0.8397  0.6727
 6022TIP3   OH218071   1.411   5.767   0.849  0.1470  0.2416 -0.3671
 6022TIP3    H118072   1.401   5.844   0.793 -0.6219  0.8906  0.6291
 6022TIP3    H218073   1.399   5.801   0.938 -2.1711 -1.3187  0.0008
 6023TIP3   OH218074   3.381   5.343   0.416  0.1236  0.2354  0.0687
 6023TIP3    H118075   3.389   5.275   0.349  1.6809 -0.8131  1.2511
 6023TIP3    H218076   3.324   5.304   0.482 -0.5807  0.8715 -0.1483
 6024TIP3   OH218077   3.493   1.545   5.023  0.1838  0.6722  0.2455
 6024TIP3    H118078   3.449   1.462   5.040  2.4590 -0.5804  0.3982
 6024TIP3    H218079   3.493   1.591   5.107 -0.2404  0.3901  0.3982
 6025TIP3   OH218080   1.475   1.130   4.498  0.5117 -0.6118 -0.1080
 6025TIP3    H118081   1.534   1.122   4.423 -0.2979 -1.0317 -0.7125
 6025TIP3    H218082   1.433   1.044   4.505  0.4404 -0.5196  0.7115
 6026TIP3   OH218083   5.355   1.698   0.461 -0.1113 -0.1736  0.3957
 6026TIP3    H118084   5.277   1.697   0.406  0.3256 -0.4563 -0.2217
 6026TIP3    H218085   5.334   1.639   0.534 -1.2842  1.3941  1.3943
 6027TIP3   OH218086   0.600   5.510   2.265  0.2454 -0.2995  0.1778
 6027TIP3    H118087   0.619   5.435   2.209 -0.5949 -0.4998  0.1376
 6027TIP3    H218088   0.512   5.492   2.299  0.4085  0.2290  0.8898
 6028TIP3   OH218089   6.064   1.854   1.368  0.7540 -0.4779  0.4507
 6028TIP3    H118090   5.970   1.860   1.387  0.1124  0.0644 -2.4632
 6028TIP3    H218091   6.105   1.914   1.430 -1.3604  2.9924 -1.1972
 6029TIP3   OH218092   2.077   5.974   3.218 -0.3222  0.3204  0.2015
 6029TIP3    H118093   1.998   5.927   3.244 -0.0075 -0.9456 -1.0411
 6029TIP3    H218094   2.108   6.015   3.299 -1.6819  0.0213  0.9082
 6030TIP3   OH218095   4.845   3.005   2.125 -0.0035 -0.0328 -1.0648
 6030TIP3    H118096   4.786   2.945   2.170  1.0466 -0.8891 -0.8144
 6030TIP3    H218097   4.789   3.080   2.103 -0.8638 -0.2080  0.3946
 6031TIP3   OH218098   0.079   5.873   3.613  0.1988 -0.2024 -0.4861
 6031TIP3    H118099  -0.010   5.889   3.581 -0.2064 -1.9603 -0.3489
 6031TIP3    H218100   0.101   5.952   3.663 -0.5206  1.0844 -2.0939
 6032TIP3   OH218101   0.954   4.112   3.349  0.2310 -0.5376 -0.0813
 6032TIP3    H118102   0.941   4.018   3.355 -0.6924 -0.5232 -1.3263
 6032TIP3    H218103   0.883   4.149   3.401 -0.2196 -0.5308 -0.6885
 6033TIP3   OH218104   1.152   3.519   0.683 -0.5692 -0.4313  0.0140
 6033TIP3    H118105   1.156   3.523   0.587 -1.5375 -0.1301 -0.0295
 6033TIP3    H218106   1.240   3.493   0.710 -0.3373 -0.7111 -0.9694
 6034TIP3   OH218107   0.640   0.686   1.878  0.0501 -0.4695 -0.5415
 6034TIP3    H118108   0.579   0.750   1.916 -1.2038 -1.4176 -0.8831
 6034TIP3    H218109   0.585   0.632   1.821  0.9893 -2.0750  0.0139
 6035TIP3   OH218110   5.587   2.513   1.661 -0.0161  0.0844 -0.2506
 6035TIP3    H118111   5.650   2.490   1.593 -1.4359 -0.1830 -1.5290
 6035TIP3    H218112   5.537   2.432   1.675 -0.3259  0.3956  0.4736
 6036TIP3   OH218113   3.170   1.816   1.789 -0.7819  0.1921  0.0906
 6036TIP3    H118114   3.107   1.744   1.786 -0.4052 -0.1174 -0.9631
 6036TIP3    H218115   3.253   1.775   1.815 -0.9032  0.5342  1.0950
 6037TIP3   OH218116   5.098   2.371   0.711  0.0718 -0.6031  0.0113
 6037TIP3    H118117   5.148   2.440   0.667  1.0450 -1.5463 -0.4040
 6037TIP3    H218118   5.163   2.323   0.762 -0.6095 -1.1504  0.3898
 6038TIP3   OH218119   5.276   3.521   0.941  0.2328  0.0715  0.1004
 6038TIP3    H118120   5.362   3.502   0.980 -0.0534 -2.0726 -0.1657
 6038TIP3    H218121   5.215   3.465   0.990 -0.4544 -1.1364 -2.0002
 6039TIP3   OH218122   3.396   5.778   2.623 -0.7302  0.3461 -0.3497
 6039TIP3    H118123   3.341   5.788   2.546  0.0475 -2.2044 -1.3470
 6039TIP3    H218124   3.482   5.810   2.596 -0.7670  0.6849 -0.0795
 6040TIP3   OH218125   0.835   4.720   3.094 -0.3077  0.1841 -0.1000
 6040TIP3    H118126   0.809   4.702   3.004 -0.3383 -2.1274  0.3146
 6040TIP3    H218127   0.757   4.703   3.146 -0.4144  1.9041  0.3680
 6041TIP3   OH218128   3.232   1.690   2.045  0.0777 -0.0647  0.1162
 6041TIP3    H118129   3.233   1.778   2.084  0.6725 -0.2212  0.4736
 6041TIP3    H218130   3.144   1.657   2.063 -0.0911  0.3856  0.1440
 6042TIP3   OH218131   3.239   5.113   1.774  0.0010 -0.2916  0.2922
 6042TIP3    H118132   3.162   5.065   1.743  0.2242 -0.9277  0.7111
 6042TIP3    H218133   3.245   5.188   1.715  2.0284 -2.8403 -3.1202
 6043TIP3   OH218134   0.357   5.600   4.148  0.4101  0.0091  0.4156
 6043TIP3    H118135   0.435   5.564   4.189  0.6889 -0.5672 -0.5804
 6043TIP3    H218136   0.290   5.532   4.160  0.7541 -0.6031 -0.8713
 6044TIP3   OH218137   2.362   1.559   4.550 -0.1619  0.1599  0.0053
 6044TIP3    H118138   2.399   1.490   4.605 -0.7592  0.4724  0.8264
 6044TIP3    H218139   2.294   1.515   4.499 -0.3870  0.0928  0.3607
 6045TIP3   OH218140   4.950   0.433   3.693 -0.0478  0.0470 -0.3852
 6045TIP3    H118141   4.866   0.477   3.707  0.3197  0.8919 -0.7986
 6045TIP3    H218142   4.934   0.343   3.722 -0.3474  0.8011  2.0343
 6046TIP3   OH218143   3.859   4.183   1.890  0.0443  0.2750 -0.3563
 6046TIP3    H118144   3.868   4.094   1.925 -0.9461 -0.3811 -1.6759
 6046TIP3    H218145   3.795   4.225   1.947  1.2609  0.5114  0.8917
 6047TIP3   OH218146   4.134   0.319   3.280 -0.2945  0.4657 -0.0772
 6047TIP3    H118147   4.099   0.292   3.365 -1.4158 -1.2269 -1.0198
 6047TIP3    H218148   4.061   0.308   3.219  1.1908 -0.9479 -1.7161
 6048TIP3   OH218149   4.089   3.043   4.842 -0.7633  0.0544 -0.1773
 6048TIP3    H118150   4.062   2.952   4.833  0.2244 -0.1972 -0.9088
 6048TIP3    H218151   4.009   3.094   4.829 -1.1702 -0.6889 -0.6341
 6049TIP3   OH218152   2.578   0.415   3.132 -0.3065  0.0985 -0.2628
 6049TIP3    H118153   2.649   0.361   3.099 -0.3371 -1.0804  1.4465
 6049TIP3    H218154   2.595   0.502   3.096  0.4901 -0.7368 -2.0174
 6050TIP3   OH218155   0.410   4.221   4.867  0.2295  0.2334 -0.6175
 6050TIP3    H118156   0.400   4.126   4.855 -1.6004  0.1464  1.0325
 6050TIP3    H218157   0.437   4.230   4.959 -1.3009  1.3445 -0.2353
 6051TIP3   OH218158   1.748   3.761   1.308  0.3862 -0.1612  0.4025
 6051TIP3    H118159   1.804   3.785   1.235  0.9614 -2.3860  0.0476
 6051TIP3    H218160   1.672   3.818   1.300 -1.0572 -2.3639 -3.7984
 6052TIP3   OH218161   5.043   1.595   3.129  1.0218 -0.5753 -0.1661
 6052TIP3    H118162   5.111   1.544   3.172  2.9956 -0.4825 -2.9020
 6052TIP3    H218163   5.090   1.661   3.079 -1.2592  1.2427 -0.1069
 6053TIP3   OH218164   5.345   2.815   5.069  0.4851  0.0938  0.3168
 6053TIP3    H118165   5.404   2.868   5.016  0.4934  1.6292  1.7604
 6053TIP3    H218166   5.394   2.799   5.150 -0.3189 -0.3698  0.7297
 6054TIP3   OH218167   0.238   3.629   2.368 -0.2873  0.7194  0.5916
 6054TIP3    H118168   0.230   3.639   2.273 -1.2261  1.6660  0.7559
 6054TIP3    H218169   0.280   3.543   2.379  1.4755  1.3517 -0.7047
 6055TIP3   OH218170   1.050   5.699   0.259 -0.0651  0.4151  0.0606
 6055TIP3    H118171   1.056   5.605   0.245 -1.3797  0.3372 -0.0644
 6055TIP3    H218172   0.973   5.711   0.314  0.9000  1.3182  1.2621
 6056TIP3   OH218173   2.771   5.056   2.881  0.4840 -0.3755  0.1062
 6056TIP3    H118174   2.861   5.052   2.849  0.3580 -0.9756 -0.1804
 6056TIP3    H218175   2.737   4.968   2.869 -0.3037 -0.0336 -0.2466
 6057TIP3   OH218176   2.840   0.173   3.225 -0.0314  0.5278 -0.1040
 6057TIP3    H118177   2.791   0.122   3.289 -0.8807  0.5287 -0.7339
 6057TIP3    H218178   2.892   0.234   3.277  1.6767 -1.5268  0.6999
 6058TIP3   OH218179   0.566   5.149   4.223  0.2497  0.4771 -0.1061
 6058TIP3    H118180   0.581   5.071   4.277 -1.1462  0.8283  0.8338
 6058TIP3    H218181   0.648   5.198   4.230  1.5629 -1.3540 -1.5798
 6059TIP3   OH218182   2.509   5.111   3.779 -0.2248 -0.5662  0.0620
 6059TIP3    H118183   2.501   5.206   3.773 -0.6594 -0.5388  0.9961
 6059TIP3    H218184   2.425   5.077   3.747 -0.2783 -0.6145  0.2510
 6060TIP3   OH218185   5.434   1.323   0.582 -0.6963  0.0035 -0.0799
 6060TIP3    H118186   5.506   1.331   0.519  0.4188 -1.5568  0.9340
 6060TIP3    H218187   5.367   1.273   0.535 -1.1668  1.4215 -1.0107
 6061TIP3   OH218188   1.287   1.195   3.030 -0.2712 -0.1403  0.4140
 6061TIP3    H118189   1.222   1.232   2.970  0.1562  0.3718  0.2619
 6061TIP3    H218190   1.288   1.102   3.008 -0.7350 -0.1020  0.2119
 6062TIP3   OH218191   2.978   3.231   0.481 -0.6991  0.1215  0.1654
 6062TIP3    H118192   2.985   3.221   0.386 -0.3766  0.6564  0.1254
 6062TIP3    H218193   3.011   3.148   0.516  0.3391  0.3759 -0.1717
 6063TIP3   OH218194   0.769   1.644   2.139  0.4245  0.3896 -0.3995
 6063TIP3    H118195   0.768   1.682   2.227  1.8174  0.0596 -0.2130
 6063TIP3    H218196   0.786   1.718   2.080  1.9933  0.2584 -0.1432
 6064TIP3   OH218197   2.229   4.383   0.799 -0.2476  0.1417  0.4460
 6064TIP3    H118198   2.267   4.295   0.801 -1.1455 -0.2533  1.6719
 6064TIP3    H218199   2.135   4.368   0.809 -0.4208  1.2481  0.6082
 6065TIP3   OH218200   4.088   0.259   3.547  0.4146  0.1832 -0.0255
 6065TIP3    H118201   4.086   0.238   3.640 -0.9240  0.6856  0.0809
 6065TIP3    H218202   4.092   0.355   3.545  1.8920  0.1360 -0.5004
 6066TIP3   OH218203   3.166   5.822   3.251  0.1715 -0.3446  0.0475
 6066TIP3    H118204   3.151   5.901   3.198 -0.4487 -0.3416  0.2240
 6066TIP3    H218205   3.115   5.836   3.330  1.0882 -0.3528  0.6571
 6067TIP3   OH218206   0.803   5.291   4.277  0.2549 -0.3246  0.1485
 6067TIP3    H118207   0.782   5.376   4.316 -0.1629 -0.6638  0.6779
 6067TIP3    H218208   0.894   5.300   4.248  0.3376  0.1776  0.5416
 6068TIP3   OH218209   2.555   2.734   3.960  0.2240 -0.0180 -0.4972
 6068TIP3    H118210   2.512   2.657   3.997 -0.6839 -0.0172 -1.5172
 6068TIP3    H218211   2.553   2.799   4.030  2.3085 -1.3308  0.9271
 6069TIP3   OH218212   4.969   4.735   2.308  0.0891 -0.2294 -0.1302
 6069TIP3    H118213   4.928   4.816   2.277 -0.4952 -0.9704 -1.4064
 6069TIP3    H218214   4.948   4.731   2.401 -0.6749  0.6199 -0.2512
 6070TIP3   OH218215   1.634   3.010   2.815 -0.0544 -0.1721  0.2435
 6070TIP3    H118216   1.724   2.998   2.844  0.3542  0.3361 -0.7633
 6070TIP3    H218217   1.602   3.085   2.866 -0.2999 -1.0689  1.4355
 6071TIP3   OH218218   0.663   0.020   5.091  0.3164 -0.8322 -0.5196
 6071TIP3    H118219   0.723  -0.032   5.037  2.2483 -0.0556  0.7502
 6071TIP3    H218220   0.678   0.110   5.063  0.3495 -0.5494  0.3708
 6072TIP3   OH218221   4.100   0.635   5.076 -0.0683 -0.3499  0.2966
 6072TIP3    H118222   4.146   0.557   5.109  0.8277 -0.1022 -0.3285
 6072TIP3    H218223   4.101   0.625   4.981  0.3213  0.5581  0.1912
 6073TIP3   OH218224   5.660   4.805   1.141  0.0855  0.1341 -0.1849
 6073TIP3    H118225   5.651   4.890   1.098  0.7915  0.0943 -0.4223
 6073TIP3    H218226   5.740   4.767   1.104 -2.1235 -2.3266 -2.9500
 6074TIP3   OH218227   5.368   3.862   0.807  0.8755 -0.4446  0.7852
 6074TIP3    H118228   5.383   3.863   0.712  2.4932 -0.1409  1.0037
 6074TIP3    H218229   5.344   3.952   0.829  1.4666 -0.2794  0.7784
 6075TIP3   OH218230   5.958   2.422   4.608  0.0572 -0.2872  0.3436
 6075TIP3    H118231   5.910   2.342   4.586  0.9701 -1.1792  1.4988
 6075TIP3    H218232   5.892   2.491   4.601 -0.7818 -1.1447 -0.5568
 6076TIP3   OH218233   2.338   1.823   0.466  0.6443  0.6258 -0.1796
 6076TIP3    H118234   2.426   1.822   0.427  1.3536  0.2385  1.3456
 6076TIP3    H218235   2.351   1.790   0.555 -1.1163  0.2096 -0.0389
 6077TIP3   OH218236   1.513   2.206   3.312 -0.5140 -0.4038  0.2127
 6077TIP3    H118237   1.528   2.287   3.265  0.3517 -0.5784  0.1690
 6077TIP3    H218238   1.523   2.137   3.246 -1.3315 -0.5495  0.2291
 6078TIP3   OH218239   3.498   2.031   3.180 -0.3456 -1.3361 -0.3135
 6078TIP3    H118240   3.435   1.961   3.164 -2.3514  0.2248  0.3653
 6078TIP3    H218241   3.547   2.002   3.257 -0.6617 -2.2793 -0.4594
 6079TIP3   OH218242   5.850   0.272   3.013  0.0002  0.3951  0.4775
 6079TIP3    H118243   5.838   0.182   3.043 -3.0397  0.6993  0.4346
 6079TIP3    H218244   5.772   0.318   3.044  1.1958  2.9106  0.0014
 6080TIP3   OH218245   3.242   0.274   3.594  0.3590 -0.4168 -0.3215
 6080TIP3    H118246   3.301   0.287   3.520 -1.4121 -1.8134 -2.0923
 6080TIP3    H218247   3.208   0.185   3.582 -0.4612 -0.4574  1.8538
 6081TIP3   OH218248   2.638   5.618   1.833 -0.4164 -1.1713 -0.8981
 6081TIP3    H118249   2.648   5.570   1.751 -0.5583 -0.6971 -1.1904
 6081TIP3    H218250   2.603   5.703   1.808  2.4781  0.1968 -0.7074
 6082TIP3   OH218251   4.873   0.085   3.258  0.1320  0.1242 -0.8420
 6082TIP3    H118252   4.934   0.054   3.192  0.5424 -1.1173  0.0745
 6082TIP3    H218253   4.922   0.151   3.307  0.7718 -0.8773 -0.1016
 6083TIP3   OH218254   2.297   3.627   3.127 -0.1371  0.3190  0.0592
 6083TIP3    H118255   2.326   3.669   3.046  0.7131  1.7961  1.0967
 6083TIP3    H218256   2.348   3.670   3.196 -0.5291 -1.2135  1.3457
 6084TIP3   OH218257   0.132   2.723   0.570  0.0003  0.3587  0.9140
 6084TIP3    H118258   0.076   2.653   0.536 -2.4661  2.6074 -0.0283
 6084TIP3    H218259   0.159   2.693   0.656 -2.7199 -0.9290  1.4359
 6085TIP3   OH218260   0.338   5.843   1.477 -0.0139 -0.1980 -0.4209
 6085TIP3    H118261   0.361   5.812   1.564  0.9350 -0.4426 -0.7461
 6085TIP3    H218262   0.330   5.763   1.425 -0.6712 -0.0585 -0.5399
 6086TIP3   OH218263   6.081   3.965   3.312 -0.8499 -0.2104  0.1294
 6086TIP3    H118264   6.106   3.985   3.402  0.1489 -2.0277  0.2904
 6086TIP3    H218265   6.140   4.019   3.259 -0.0089 -0.6764  0.5678
 6087TIP3   OH218266   4.598   3.888   4.819 -0.0160 -0.4270 -0.5063
 6087TIP3    H118267   4.627   3.979   4.815 -2.0449  0.4482  2.0424
 6087TIP3    H218268   4.502   3.893   4.814 -0.1543 -2.5282 -1.1354
 6088TIP3   OH218269   3.944   5.710   4.549  0.3230 -0.3222  0.4203
 6088TIP3    H118270   3.983   5.746   4.469 -0.5289  1.2172  0.6482
 6088TIP3    H218271   3.924   5.619   4.527  0.5959 -0.0784 -0.9484
 6089TIP3   OH218272   2.141   0.575   3.357 -0.0610 -0.7717  0.1863
 6089TIP3    H118273   2.132   0.653   3.412 -0.3693 -1.3211  0.9412
 6089TIP3    H218274   2.204   0.520   3.405  3.8129  0.8600 -2.5010
 6090TIP3   OH218275   5.374   1.215   5.031 -0.0725 -0.0586 -0.1154
 6090TIP3    H118276   5.279   1.221   5.035 -0.1714 -1.7212  0.8456
 6090TIP3    H218277   5.405   1.300   5.062 -1.2261  0.0751  0.7201
 6091TIP3   OH218278   6.142   5.125   0.739 -0.2796 -0.3850 -0.3210
 6091TIP3    H118279   6.171   5.045   0.696  0.8805 -1.4144  2.1498
 6091TIP3    H218280   6.222   5.175   0.753 -0.6524  0.0391  0.3677
 6092TIP3   OH218281   3.359   4.543   0.388 -0.0692  0.0600 -0.2138
 6092TIP3    H118282   3.342   4.470   0.328 -0.5542  0.3496 -0.4338
 6092TIP3    H218283   3.280   4.548   0.442 -0.8888  1.6215 -1.4558
 6093TIP3   OH218284   1.315   0.797   3.601 -0.3197 -0.0230  0.4463
 6093TIP3    H118285   1.242   0.802   3.540  0.2115  0.6436 -0.1506
 6093TIP3    H218286   1.351   0.886   3.603  0.3538 -0.2936  0.8873
 6094TIP3   OH218287   3.927   4.789   0.134 -0.0810 -0.0793 -0.3380
 6094TIP3    H118288   3.981   4.867   0.148 -0.0815 -0.0137 -0.6853
 6094TIP3    H218289   3.862   4.791   0.204 -0.3261  0.4485 -0.5768
 6095TIP3   OH218290   1.147   5.798   2.489 -0.1717  0.5168  0.4239
 6095TIP3    H118291   1.165   5.730   2.424 -1.9369  1.9025 -1.6637
 6095TIP3    H218292   1.220   5.860   2.479 -1.2038  1.5252 -1.5002
 6096TIP3   OH218293   4.428   4.758   1.825  0.8243  0.4719  0.2008
 6096TIP3    H118294   4.444   4.835   1.771  0.4075 -0.4607 -1.2943
 6096TIP3    H218295   4.394   4.693   1.765 -0.1432 -0.4563  1.6877
 6097TIP3   OH218296   3.827   2.472   1.081 -0.4598 -0.1560 -0.0145
 6097TIP3    H118297   3.747   2.507   1.121 -0.4849  0.5758 -0.6662
 6097TIP3    H218298   3.803   2.459   0.989 -0.2022 -1.1646  0.0447
 6098TIP3   OH218299   6.100   3.452   0.135 -0.3031 -0.5915 -0.7592
 6098TIP3    H118300   6.190   3.433   0.109 -0.3266 -2.0593  0.0990
 6098TIP3    H218301   6.088   3.545   0.116  2.5942  0.6370  2.4186
 6099TIP3   OH218302   4.930   5.952   1.782  0.3382  0.3852 -0.0864
 6099TIP3    H118303   4.915   5.859   1.799  1.8242 -0.1000 -1.3040
 6099TIP3    H218304   4.876   5.971   1.705  1.5537  0.0181 -1.0509
 6100TIP3   OH218305   3.750   3.826   0.220 -0.5057  0.1758 -0.6475
 6100TIP3    H118306   3.740   3.914   0.185 -1.2330  0.6770  0.7708
 6100TIP3    H218307   3.663   3.802   0.250 -0.2913 -0.9920 -0.9151
 6101TIP3   OH218308   1.519   4.783   0.190  0.2449 -0.0485 -0.2415
 6101TIP3    H118309   1.541   4.861   0.241 -1.3004  0.7565 -0.7648
 6101TIP3    H218310   1.584   4.781   0.119  1.1177 -0.0248  0.5331
 6102TIP3   OH218311   0.261   0.213   4.619 -0.3090  0.2144 -0.1910
 6102TIP3    H118312   0.317   0.263   4.679 -0.3879  0.2034 -0.1084
 6102TIP3    H218313   0.232   0.278   4.555 -4.1441  1.4917  2.4246
 6103TIP3   OH218314   4.827   3.181   0.630 -0.3453 -0.5691  0.6288
 6103TIP3    H118315   4.902   3.201   0.686 -1.9624  1.6232  2.2042
 6103TIP3    H218316   4.782   3.109   0.674 -0.3653 -0.3854  0.9108
 6104TIP3   OH218317   0.032   1.651   3.314 -0.0148 -0.1383  0.2342
 6104TIP3    H118318   0.044   1.560   3.287  1.8617  0.3092 -0.5407
 6104TIP3    H218319   0.117   1.693   3.299 -0.5049  1.4801  1.6511
 6105TIP3   OH218320   5.941   4.549   2.327 -0.1775  0.3693 -0.0810
 6105TIP3    H118321   5.991   4.501   2.394 -0.0815  0.6569  0.0577
 6105TIP3    H218322   5.857   4.504   2.323  0.7645 -1.3412 -1.7172
 6106TIP3   OH218323   1.868   4.768   0.986 -0.4537  0.3702  0.6475
 6106TIP3    H118324   1.957   4.772   0.953 -0.9201  1.4921 -0.5422
 6106TIP3    H218325   1.815   4.738   0.912 -1.4649  2.5371  0.4326
 6107TIP3   OH218326   4.604   5.953   2.475 -0.0948  0.8307 -0.0508
 6107TIP3    H118327   4.630   5.866   2.446 -0.2268 -0.2205  2.6734
 6107TIP3    H218328   4.509   5.955   2.463  0.1547  1.5228 -2.2470
 6108TIP3   OH218329   2.114   3.090   1.953  0.0973 -0.1551  0.6561
 6108TIP3    H118330   2.197   3.134   1.971  1.1973 -2.5468  1.7348
 6108TIP3    H218331   2.057   3.117   2.025 -0.3294  1.9078 -0.3604
 6109TIP3   OH218332   0.786   2.282   1.689  0.7161 -0.2490 -0.0262
 6109TIP3    H118333   0.803   2.376   1.697  2.2480 -0.6584  2.5378
 6109TIP3    H218334   0.717   2.276   1.622 -0.7469  2.8166  1.0133
 6110TIP3   OH218335   0.331   1.781   3.853  0.0351  0.6031 -0.3612
 6110TIP3    H118336   0.415   1.746   3.823  0.8650  0.2634  2.1301
 6110TIP3    H218337   0.266   1.727   3.809  1.1211  0.2189 -1.5718
 6111TIP3   OH218338   4.274   4.412   1.022 -0.5051  0.2395  0.2654
 6111TIP3    H118339   4.349   4.384   0.969  0.4108  0.2793  1.4898
 6111TIP3    H218340   4.295   4.380   1.110 -2.4585 -0.7039  0.4337
 6112TIP3   OH218341   1.560   3.510   1.332 -0.7254  0.0371  0.1219
 6112TIP3    H118342   1.487   3.551   1.287 -1.7536  0.0616  1.7290
 6112TIP3    H218343   1.622   3.581   1.347 -0.7467  0.1925 -0.4974
 6113TIP3   OH218344   0.688   3.545   4.857 -0.1558  0.2398 -0.2387
 6113TIP3    H118345   0.755   3.587   4.803  1.2029 -0.7690  0.5911
 6113TIP3    H218346   0.689   3.454   4.829  1.0790 -0.4643  1.8650
 6114TIP3   OH218347   0.272   1.241   1.682 -0.0671 -0.6907  0.2177
 6114TIP3    H118348   0.273   1.238   1.586  1.5134  0.9290  0.1426
 6114TIP3    H218349   0.181   1.262   1.704 -0.2603 -0.2065 -0.9643
 6115TIP3   OH218350   3.276   3.112   1.035 -0.1468 -0.3089  0.2110
 6115TIP3    H118351   3.196   3.124   0.983  0.2852  0.4035 -0.3133
 6115TIP3    H218352   3.310   3.027   1.006  0.5861  0.4833 -1.4134
 6116TIP3   OH218353   0.649   5.260   1.362 -0.4953  0.0999  0.0124
 6116TIP3    H118354   0.611   5.311   1.433 -1.9969  0.5750 -1.0817
 6116TIP3    H218355   0.673   5.324   1.296 -0.1036 -0.4110 -0.3512
 6117TIP3   OH218356   1.981   1.188   3.423  0.1544  0.4968 -0.2225
 6117TIP3    H118357   1.955   1.226   3.339  1.0771  2.2789  0.2625
 6117TIP3    H218358   1.909   1.209   3.482 -0.3149 -0.4216 -0.4395
 6118TIP3   OH218359   0.796   3.710   1.204  0.3557  0.0682 -0.4190
 6118TIP3    H118360   0.857   3.643   1.172 -0.6804 -0.3946 -1.5438
 6118TIP3    H218361   0.834   3.793   1.174  2.2797  0.1736  2.0146
 6119TIP3   OH218362   2.073   5.091   3.471 -0.1989 -0.0319  0.0026
 6119TIP3    H118363   2.021   5.016   3.498 -0.9655  0.1990 -0.7805
 6119TIP3    H218364   2.147   5.054   3.424 -1.2999 -0.2915 -1.6146
 6120TIP3   OH218365   1.838   1.222   1.180  0.7278  0.2799  0.1428
 6120TIP3    H118366   1.745   1.201   1.172 -0.1422  2.5296  2.7894
 6120TIP3    H218367   1.881   1.162   1.119 -2.2174 -2.4220  0.4380
 6121TIP3   OH218368   4.251   4.542   4.877  0.3459 -0.1732  0.6184
 6121TIP3    H118369   4.178   4.483   4.894  0.6355 -1.1468 -1.2874
 6121TIP3    H218370   4.288   4.560   4.964 -1.5565 -0.3860  1.5222
 6122TIP3   OH218371   1.809   5.658   0.835  0.0445  0.8672  0.3735
 6122TIP3    H118372   1.810   5.591   0.903 -0.0534  0.3377 -0.1392
 6122TIP3    H218373   1.739   5.631   0.775 -1.0384  2.2422  0.9596
 6123TIP3   OH218374   0.067   2.900   3.358  0.0357  0.3230  0.9069
 6123TIP3    H118375   0.084   2.807   3.374 -1.2461  0.1483  1.3795
 6123TIP3    H218376   0.066   2.940   3.445  2.1536  1.1089  0.6225
 6124TIP3   OH218377   3.823   4.979   3.326 -0.2910 -0.2848 -1.1228
 6124TIP3    H118378   3.900   5.036   3.334 -1.5729  1.4653 -0.7572
 6124TIP3    H218379   3.751   5.031   3.361 -1.3023 -2.7253  0.7106
 6125TIP3   OH218380   0.542   5.817   1.701  0.1689 -0.0628  0.3009
 6125TIP3    H118381   0.570   5.756   1.770  1.2200  2.3499  2.1716
 6125TIP3    H218382   0.620   5.869   1.683 -0.6604  0.6749 -1.3036
 6126TIP3   OH218383   5.316   4.978   0.160  0.2414 -0.2605 -0.0381
 6126TIP3    H118384   5.318   5.027   0.242  0.8280  0.8022 -0.6574
 6126TIP3    H218385   5.235   4.926   0.164  0.4613 -0.5214  1.3599
 6127TIP3   OH218386   3.109   3.098   2.077  0.0440  0.1094 -0.3960
 6127TIP3    H118387   3.147   3.175   2.117  0.0300 -0.2311  0.2747
 6127TIP3    H218388   3.027   3.083   2.125  0.7681 -1.1934  0.4857
 6128TIP3   OH218389   3.939   5.269   3.261  0.0194 -0.3773  0.3968
 6128TIP3    H118390   3.969   5.359   3.273  0.9515 -0.7970  1.4331
 6128TIP3    H218391   3.844   5.274   3.263  0.0693  0.4379  1.7647
 6129TIP3   OH218392   1.824   5.583   2.032 -0.3805  0.2675  0.3625
 6129TIP3    H118393   1.747   5.638   2.015  0.1502  1.0421  0.4201
 6129TIP3    H218394   1.788   5.501   2.065 -1.1761  0.6703  0.5223
 6130TIP3   OH218395   3.847   4.923   1.517 -0.2978 -0.0729  0.5761
 6130TIP3    H118396   3.755   4.897   1.519 -0.5460  0.4899 -1.3927
 6130TIP3    H218397   3.889   4.857   1.462 -0.0529  1.0576 -0.6533
 6131TIP3   OH218398   0.062   1.120   1.098  0.2653  0.2885  0.6515
 6131TIP3    H118399   0.152   1.088   1.091  0.4489  0.9989 -0.3229
 6131TIP3    H218400   0.028   1.076   1.176  1.4167 -0.0723  0.9765
 6132TIP3   OH218401   5.611   2.021   2.578 -0.4753 -0.3419  0.1684
 6132TIP3    H118402   5.675   2.092   2.590  1.1493 -1.6510 -0.3549
 6132TIP3    H218403   5.631   1.985   2.492 -2.3611 -0.4160 -0.2755
 6133TIP3   OH218404   5.658   5.874   3.514  0.1087  0.6127  0.6481
 6133TIP3    H118405   5.593   5.824   3.465 -0.4613  0.0386  1.9661
 6133TIP3    H218406   5.663   5.832   3.599  1.8821  0.9245  0.7447
 6134TIP3   OH218407   5.691   5.673   4.550 -0.1205 -0.1482 -0.0035
 6134TIP3    H118408   5.629   5.642   4.484 -0.7389  0.0848  0.4608
 6134TIP3    H218409   5.665   5.763   4.567  0.8812  0.2305 -0.4186
 6135TIP3   OH218410   2.508   3.114   4.629  0.0054 -0.2628  0.5819
 6135TIP3    H118411   2.507   3.087   4.721 -1.7738 -4.2882 -0.4018
 6135TIP3    H218412   2.594   3.088   4.597  0.3952  0.5744  0.9119
 6136TIP3   OH218413   0.687   5.512   1.521  0.1543  0.7062  0.2908
 6136TIP3    H118414   0.752   5.579   1.501  0.1493  0.3940 -0.8124
 6136TIP3    H218415   0.665   5.527   1.613  1.2832  1.2370  0.4909
 6137TIP3   OH218416   2.985   5.269   0.220 -0.0792 -0.0893  0.6520
 6137TIP3    H118417   2.915   5.246   0.280  0.6967  0.8037  1.9609
 6137TIP3    H218418   3.058   5.212   0.244  0.4412  0.7023  1.0210
 6138TIP3   OH218419   4.342   3.453   3.885 -0.4798  0.0757 -0.1696
 6138TIP3    H118420   4.314   3.383   3.945  0.3039 -0.2354 -0.1556
 6138TIP3    H218421   4.356   3.529   3.941 -0.4180 -0.0219 -0.0516
 6139TIP3   OH218422   1.631   3.039   3.599 -0.5068 -0.6022  0.3548
 6139TIP3    H118423   1.686   3.072   3.528 -0.0557 -1.9089  0.0558
 6139TIP3    H218424   1.546   3.081   3.585 -0.3365 -0.5842 -0.7819
 6140TIP3   OH218425   2.018   1.758   3.320 -0.2778  0.3755  0.4606
 6140TIP3    H118426   1.939   1.808   3.339 -0.1603  0.8808 -0.3190
 6140TIP3    H218427   1.995   1.703   3.245  0.2419  0.9031 -0.1073
 6141TIP3   OH218428   3.418   3.238   2.254 -0.0161  0.0889 -0.5042
 6141TIP3    H118429   3.352   3.258   2.187 -0.7990  0.7928  0.4540
 6141TIP3    H218430   3.367   3.221   2.333  0.9103 -0.4715 -0.0130
 6142TIP3   OH218431   4.570   5.472   4.821 -0.3420  0.2119  0.0155
 6142TIP3    H118432   4.639   5.455   4.885 -0.0986  0.0076 -0.3020
 6142TIP3    H218433   4.496   5.503   4.874 -0.9574 -2.2153  0.7123
 6143TIP3   OH218434   5.619   3.715   2.371 -0.3676  0.9232  0.0166
 6143TIP3    H118435   5.589   3.644   2.427 -0.3185  0.5908 -0.3748
 6143TIP3    H218436   5.538   3.750   2.332 -0.2641 -0.0520 -1.1329
 6144TIP3   OH218437   5.505   5.810   1.214 -0.6999 -0.0418  0.1274
 6144TIP3    H118438   5.594   5.841   1.227 -0.4827 -0.3456 -0.5449
 6144TIP3    H218439   5.500   5.727   1.261 -0.4867 -0.2365 -0.1859
 6145TIP3   OH218440   1.121   3.869   4.594  0.0044  0.5371  0.0017
 6145TIP3    H118441   1.053   3.900   4.654  0.3640  0.5898  0.3817
 6145TIP3    H218442   1.171   3.805   4.644  1.2434  1.6648  0.2747
 6146TIP3   OH218443   4.584   1.405   0.174  0.0369 -0.4900 -0.9797
 6146TIP3    H118444   4.558   1.335   0.235 -0.8961  1.6856  1.2988
 6146TIP3    H218445   4.515   1.471   0.183  1.7196  1.4668 -1.7356
 6147TIP3   OH218446   0.484   4.864   5.035  0.2191  0.3770 -0.5089
 6147TIP3    H118447   0.545   4.919   5.084 -0.4423  0.2337  0.4879
 6147TIP3    H218448   0.399   4.879   5.076 -0.1496 -0.6029 -0.8885
 6148TIP3   OH218449   4.488   3.054   4.809 -0.2269 -0.2862 -0.0596
 6148TIP3    H118450   4.414   3.006   4.848 -1.2355  0.1033 -1.4104
 6148TIP3    H218451   4.483   3.141   4.849  0.4425 -0.6991  0.9687
 6149TIP3   OH218452   0.214   5.264   1.907 -0.1244  0.4234 -0.0232
 6149TIP3    H118453   0.266   5.202   1.856 -2.3295 -1.9410  0.4289
 6149TIP3    H218454   0.214   5.230   1.996 -1.0081  1.3236  0.3551
 6150TIP3   OH218455   3.388   1.837   2.807 -0.5026  0.3647 -0.7918
 6150TIP3    H118456   3.381   1.903   2.876  0.2780 -0.2220 -0.1269
 6150TIP3    H218457   3.337   1.763   2.839 -0.9978  0.4665 -1.3282
 6151TIP3   OH218458   2.290   3.886   5.026 -0.2492 -0.2058  0.3225
 6151TIP3    H118459   2.351   3.939   4.974 -2.5864 -0.1000 -2.6249
 6151TIP3    H218460   2.338   3.806   5.046  1.0167  0.0003 -1.6171
 6152TIP3   OH218461   5.880   2.536   0.707  0.5516  0.4053  0.0871
 6152TIP3    H118462   5.845   2.569   0.624 -1.1535 -2.0301 -0.2718
 6152TIP3    H218463   5.852   2.601   0.771 -0.6747  0.8610 -0.8590
 6153TIP3   OH218464   4.268   4.109   4.109 -0.0541 -0.7354 -0.1559
 6153TIP3    H118465   4.285   4.166   4.184 -0.7088 -0.5302 -0.1589
 6153TIP3    H218466   4.346   4.054   4.102  0.3174 -0.2582  0.2264
 6154TIP3   OH218467   0.495   5.992   2.358 -0.1949  0.7326 -0.1257
 6154TIP3    H118468   0.489   5.960   2.268 -1.2885 -1.9292  0.7845
 6154TIP3    H218469   0.552   5.928   2.402 -1.4677  0.6825  1.5439
 6155TIP3   OH218470   4.660   2.863   5.126 -0.0718  0.0013  0.0087
 6155TIP3    H118471   4.696   2.790   5.076  0.9379  0.2231  0.3672
 6155TIP3    H218472   4.593   2.901   5.069 -0.1980 -0.8368 -0.4221
 6156TIP3   OH218473   2.661   3.654   4.505  0.6264  0.0496 -0.0747
 6156TIP3    H118474   2.680   3.704   4.585  0.0890  1.2438 -0.6704
 6156TIP3    H218475   2.745   3.618   4.478  1.0081  0.5511  0.4237
 6157TIP3   OH218476   5.326   4.926   2.201  0.1462  0.0169  0.1936
 6157TIP3    H118477   5.269   5.003   2.198 -1.9168 -1.4622 -0.8643
 6157TIP3    H218478   5.412   4.959   2.176 -0.3446  2.2115  1.1688
 6158TIP3   OH218479   0.939   1.384   4.549 -0.8076  0.5322 -0.0770
 6158TIP3    H118480   0.994   1.423   4.481 -0.5169  0.1286 -0.0775
 6158TIP3    H218481   0.930   1.293   4.524 -1.6896  0.6420 -0.2085
 6159TIP3   OH218482   5.972   0.890   1.812  0.4551  0.1115 -0.4165
 6159TIP3    H118483   5.991   0.977   1.848 -2.2657 -0.1303  1.9104
 6159TIP3    H218484   6.039   0.834   1.850  0.8507  0.7903 -0.0831
 6160TIP3   OH218485   1.496   3.429   3.941 -0.2883 -0.3670 -0.1603
 6160TIP3    H118486   1.581   3.411   3.900 -0.2950  0.5703 -0.6239
 6160TIP3    H218487   1.517   3.472   4.023 -0.2939  1.7079 -1.1777
 6161TIP3   OH218488   5.513   5.048   1.571 -0.1026  0.3622 -0.1392
 6161TIP3    H118489   5.471   4.985   1.631  0.2394  0.2026 -0.0662
 6161TIP3    H218490   5.604   5.019   1.566 -0.5436 -0.8357 -2.3008
 6162TIP3   OH218491   0.693   5.454   0.979 -0.2866 -0.2514  0.3725
 6162TIP3    H118492   0.786   5.448   1.002 -0.5263 -1.5774  1.1264
 6162TIP3    H218493   0.667   5.541   1.008  0.9737  0.6278 -0.9494
 6163TIP3   OH218494   5.806   4.068   3.378  0.1754  0.2918 -0.0296
 6163TIP3    H118495   5.719   4.056   3.417  1.2324  0.8824  2.7659
 6163TIP3    H218496   5.798   4.034   3.289 -3.1504  1.1800 -0.1951
 6164TIP3   OH218497   0.703   3.194   3.493  0.5303  0.4787  0.0866
 6164TIP3    H118498   0.739   3.106   3.478 -1.7395 -0.4353 -0.2965
 6164TIP3    H218499   0.650   3.185   3.572  0.6100  1.6329  0.2865
 6165TIP3   OH218500   0.697   0.908   4.039 -0.3232  0.7479  0.1229
 6165TIP3    H118501   0.752   0.866   3.972 -0.6284 -0.3095  0.5177
 6165TIP3    H218502   0.611   0.868   4.028 -0.1237 -0.2453  1.8330
 6166TIP3   OH218503   5.061   5.405   3.953 -0.1153  0.8126  1.0176
 6166TIP3    H118504   5.070   5.426   3.860 -1.9359 -0.5211  0.4746
 6166TIP3    H218505   5.065   5.489   3.997 -2.7298  1.9405 -0.6304
 6167TIP3   OH218506   5.513   5.591   1.421  0.2963 -0.5379 -0.1134
 6167TIP3    H118507   5.480   5.599   1.510  0.1783 -1.5027 -0.0569
 6167TIP3    H218508   5.465   5.516   1.384  0.1032  0.0481 -1.0960
 6168TIP3   OH218509   2.760   4.965   3.847  0.5396 -0.3063  0.7859
 6168TIP3    H118510   2.745   4.975   3.941 -1.4807  0.0695  0.4655
 6168TIP3    H218511   2.695   5.022   3.806  2.1562  0.4333 -0.8466
 6169TIP3   OH218512   4.635   4.119   4.643 -0.3522 -0.5220 -0.3055
 6169TIP3    H118513   4.705   4.088   4.586  0.1748 -0.9675  0.5655
 6169TIP3    H218514   4.680   4.166   4.713 -0.7812 -2.1676  1.1329
 6170TIP3   OH218515   1.150   3.812   0.483 -0.4496 -0.4451 -0.4961
 6170TIP3    H118516   1.182   3.877   0.420  0.3306 -1.3437 -1.0484
 6170TIP3    H218517   1.098   3.863   0.546 -0.8265  0.5362 -1.5765
 6171TIP3   OH218518   3.493   3.314   4.110 -0.1764  0.2136  0.2161
 6171TIP3    H118519   3.398   3.321   4.096 -0.3714  0.5821  1.5277
 6171TIP3    H218520   3.531   3.378   4.050 -0.6557 -0.7650 -1.1734
 6172TIP3   OH218521   4.619   4.091   1.242 -0.1808 -0.1154  0.2607
 6172TIP3    H118522   4.658   4.157   1.184  0.1702 -0.8445 -0.3346
 6172TIP3    H218523   4.688   4.070   1.304 -0.5826  0.7246  1.0165
 6173TIP3   OH218524   2.728   0.973   4.272  0.1929 -0.0692 -0.3214
 6173TIP3    H118525   2.801   0.937   4.322  0.4969 -0.7562 -1.2320
 6173TIP3    H218526   2.668   0.900   4.260  0.8175 -0.3411 -2.1827
 6174TIP3   OH218527   3.797   5.160   2.951  0.2051  0.1814 -0.3123
 6174TIP3    H118528   3.774   5.152   3.043 -1.2151  0.7839 -0.5886
 6174TIP3    H218529   3.713   5.170   2.906  0.8707 -0.1169 -1.6775
 6175TIP3   OH218530   0.448   2.993   1.119  0.2013  0.0642  0.2273
 6175TIP3    H118531   0.505   3.067   1.098  1.5584 -0.2759  2.3971
 6175TIP3    H218532   0.497   2.916   1.089  0.8139 -0.2076  1.8195
 6176TIP3   OH218533   0.640   0.142   2.207 -0.0125 -0.2733  0.7978
 6176TIP3    H118534   0.585   0.203   2.258  1.2302 -1.1152  3.3163
 6176TIP3    H218535   0.709   0.197   2.171 -1.1660  0.4149 -0.4729
 6177TIP3   OH218536   3.627   1.593   0.807  0.0922  0.3012  0.0410
 6177TIP3    H118537   3.603   1.536   0.734 -0.4601  0.0011  0.4555
 6177TIP3    H218538   3.599   1.546   0.885 -0.2062  1.0563  0.3972
 6178TIP3   OH218539   0.048   3.800   3.340 -0.5223  0.2769 -0.2908
 6178TIP3    H118540  -0.007   3.807   3.418  1.9111  1.0077  1.4812
 6178TIP3    H218541   0.035   3.710   3.310 -3.1786  0.6201 -0.4373
 6179TIP3   OH218542   4.411   3.094   3.869 -0.2390  0.6159 -0.0693
 6179TIP3    H118543   4.472   3.157   3.905  1.8931 -1.4783  0.2531
 6179TIP3    H218544   4.454   3.062   3.789 -1.0564 -0.6871 -0.0195
 6180TIP3   OH218545   1.820   2.779   0.654  0.4295  0.7015  0.2613
 6180TIP3    H118546   1.915   2.771   0.663  0.3568 -2.1416 -0.3736
 6180TIP3    H218547   1.807   2.815   0.566  0.9435  0.5583  0.1216
 6181TIP3   OH218548   1.164   1.455   4.399  0.0996  0.2422  0.5958
 6181TIP3    H118549   1.208   1.472   4.483  1.2651  1.7368 -0.2669
 6181TIP3    H218550   1.215   1.504   4.335 -1.8827  0.6714 -0.7378
 6182TIP3   OH218551   4.703   5.476   1.887 -0.6404 -0.2533  0.0303
 6182TIP3    H118552   4.698   5.462   1.793 -0.6296 -1.4914  0.1991
 6182TIP3    H218553   4.748   5.398   1.921  1.9841  1.4431  0.7547
 6183TIP3   OH218554   2.762   3.814   5.148 -0.3725 -0.2973 -0.2175
 6183TIP3    H118555   2.751   3.776   5.236 -0.1210  2.3056  1.0464
 6183TIP3    H218556   2.676   3.850   5.128 -0.1199  0.1404 -0.5161
 6184TIP3   OH218557   6.355   2.066   3.082 -0.5491 -0.0778  0.4228
 6184TIP3    H118558   6.313   1.987   3.117 -1.9981  1.1180  1.5393
 6184TIP3    H218559   6.313   2.080   2.997 -0.2412 -0.5256  0.1916
 6185TIP3   OH218560   4.276   3.447   0.857 -0.1965 -0.4921  0.1961
 6185TIP3    H118561   4.266   3.538   0.831 -0.4295 -0.6925 -0.4325
 6185TIP3    H218562   4.276   3.398   0.775 -2.6704 -1.3177  0.5992
 6186TIP3   OH218563   4.389   0.974   3.183  0.0622  0.3189 -0.5561
 6186TIP3    H118564   4.417   0.955   3.272  0.7904  0.5875 -0.7219
 6186TIP3    H218565   4.469   0.966   3.130  0.0787  2.1558 -0.8775
 6187TIP3   OH218566   5.221   2.432   1.878  0.3986 -0.1018  0.2744
 6187TIP3    H118567   5.193   2.465   1.963  0.6544  1.1765 -0.1277
 6187TIP3    H218568   5.226   2.509   1.822 -0.8143 -1.0473 -1.2133
 6188TIP3   OH218569   0.943   0.101   0.776  0.1376 -0.3201  0.0904
 6188TIP3    H118570   0.913   0.012   0.793  0.5996 -0.4437  0.2864
 6188TIP3    H218571   0.867   0.156   0.791  0.1121 -0.5855  0.9763
 6189TIP3   OH218572   2.899   3.691   4.362 -0.3562  0.7282  0.1380
 6189TIP3    H118573   2.868   3.600   4.356 -1.2116  1.0271 -0.0566
 6189TIP3    H218574   2.853   3.736   4.292  0.1849  1.2920  0.1371
 6190TIP3   OH218575   6.145   5.756   2.061 -0.3636  0.0340  0.3009
 6190TIP3    H118576   6.125   5.674   2.016 -1.0984  0.4430 -0.1497
 6190TIP3    H218577   6.229   5.741   2.104  0.6764 -0.1956 -1.7024
 6191TIP3   OH218578   5.249   1.336   3.546  0.0701  0.6195 -0.3651
 6191TIP3    H118579   5.238   1.298   3.633 -2.4904  2.3629  0.1755
 6191TIP3    H218580   5.290   1.421   3.562  0.8376  0.3950 -1.0391
 6192TIP3   OH218581   1.018   3.342   5.034  0.3614 -0.0057  0.2195
 6192TIP3    H118582   0.936   3.293   5.032  0.5989 -0.3928 -0.5663
 6192TIP3    H218583   1.069   3.306   4.961  1.0558  0.5268  0.4319
 6193TIP3   OH218584   5.057   3.134   3.890 -0.2512  0.2167 -0.1888
 6193TIP3    H118585   5.009   3.109   3.812  2.2054 -1.6602 -1.2535
 6193TIP3    H218586   5.082   3.225   3.875  1.3528 -0.4859 -2.3628
 6194TIP3   OH218587   4.693   3.136   0.191 -0.0066  0.2292  0.0574
 6194TIP3    H118588   4.603   3.118   0.163 -0.3870  1.5028  0.3866
 6194TIP3    H218589   4.716   3.061   0.246 -1.6420  0.8456  1.6918
 6195TIP3   OH218590   4.068   4.694   4.747 -0.0550  0.2650  0.3344
 6195TIP3    H118591   4.103   4.767   4.799  1.4416 -0.2026  0.0318
 6195TIP3    H218592   4.118   4.618   4.776 -1.0556 -0.5147  0.0866
 6196TIP3   OH218593   3.346   4.802   1.925 -0.4719 -0.2350 -0.3832
 6196TIP3    H118594   3.425   4.798   1.978 -0.4917  1.4881 -0.1547
 6196TIP3    H218595   3.309   4.714   1.930  0.2094 -0.4621  1.4239
 6197TIP3   OH218596   5.077   5.148   1.893 -0.6374  0.3804  0.2443
 6197TIP3    H118597   5.030   5.065   1.884  0.0477  0.1425 -1.6101
 6197TIP3    H218598   5.168   5.123   1.904 -0.5421  0.8815  0.6342
 6198TIP3   OH218599   3.159   3.373   4.085 -0.0511  0.3815  0.2485
 6198TIP3    H118600   3.182   3.459   4.052  1.8925  0.2383  1.0783
 6198TIP3    H218601   3.148   3.385   4.179 -2.5528  0.2120  0.0550
 6199TIP3   OH218602   5.211   3.329   0.575  0.0027  0.6347  0.5722
 6199TIP3    H118603   5.270   3.404   0.583  0.0081  0.6512  0.3893
 6199TIP3    H218604   5.124   3.363   0.597  0.1955  0.4002  1.7479
 6200TIP3   OH218605   1.016   2.991   0.380 -0.0103 -0.1477 -0.3077
 6200TIP3    H118606   1.095   2.942   0.402 -0.6998 -1.0622  0.1908
 6200TIP3    H218607   0.985   3.026   0.463 -1.1767 -1.4118 -0.1747
 6201TIP3   OH218608   1.753   5.770   4.270  0.3018 -0.2061 -0.3932
 6201TIP3    H118609   1.712   5.690   4.238  0.5183 -0.9668  1.1227
 6201TIP3    H218610   1.816   5.740   4.336  0.9528  1.1660 -0.3550
 6202TIP3   OH218611   0.955   4.903   2.252  0.3025 -0.3151  0.5284
 6202TIP3    H118612   0.901   4.981   2.241 -3.2574 -2.3516  1.9972
 6202TIP3    H218613   0.954   4.861   2.166 -1.9024 -1.0833  0.8719
 6203TIP3   OH218614   5.470   1.389   2.390 -0.1361 -0.0664  0.0052
 6203TIP3    H118615   5.520   1.355   2.464 -0.0025 -0.5489 -0.2990
 6203TIP3    H218616   5.431   1.311   2.350  0.5903  0.0720 -1.0135
 6204TIP3   OH218617   2.122   0.132  -0.017  0.3112 -0.6133 -0.2275
 6204TIP3    H118618   2.075   0.184   0.048  1.1797 -0.5884  0.4025
 6204TIP3    H218619   2.191   0.088   0.033 -0.2062 -2.1546 -0.7829
 6205TIP3   OH218620   4.212   1.209   1.741 -0.2628  0.0675 -0.3435
 6205TIP3    H118621   4.281   1.246   1.795 -0.1704  0.1223 -0.5003
 6205TIP3    H218622   4.190   1.127   1.783  0.7049 -0.5174 -0.9485
 6206TIP3   OH218623   5.079   1.926   4.319 -0.0906 -0.1361  0.9035
 6206TIP3    H118624   5.117   1.894   4.400  0.5025 -1.6428  0.0778
 6206TIP3    H218625   5.153   1.960   4.269  0.5341 -3.6828 -0.9891
 6207TIP3   OH218626   5.044   3.463   4.375  0.0056 -0.2558  0.2017
 6207TIP3    H118627   5.114   3.463   4.440  0.4856  0.4012 -0.3011
 6207TIP3    H218628   4.964   3.475   4.427  0.1482 -2.0049  0.8716
 6208TIP3   OH218629   0.514   1.864   3.128 -0.3296 -0.0335 -0.7071
 6208TIP3    H118630   0.558   1.907   3.054 -0.4519  1.7470  0.1803
 6208TIP3    H218631   0.461   1.934   3.167  0.3843 -0.6749  1.5459
 6209TIP3   OH218632   0.881   2.234   3.396 -0.4052  0.2363  0.0083
 6209TIP3    H118633   0.895   2.273   3.482  0.4890  1.4888 -0.6720
 6209TIP3    H218634   0.960   2.254   3.347 -1.0406 -0.1580 -1.2236
 6210TIP3   OH218635   1.158   2.024   3.919  0.2387  0.0561 -0.1947
 6210TIP3    H118636   1.232   1.963   3.922  1.3768  1.4184  0.3516
 6210TIP3    H218637   1.125   2.026   4.009  1.6255  1.8858  0.3226
 6211TIP3   OH218638   1.197   1.186   4.439 -0.2103 -0.5298  0.2005
 6211TIP3    H118639   1.233   1.168   4.352  0.9399  1.3532  0.2278
 6211TIP3    H218640   1.193   1.282   4.444  2.9540 -0.3332  3.3766
 6212TIP3   OH218641   2.402   5.153   4.862  0.1199  0.1383 -0.2823
 6212TIP3    H118642   2.313   5.151   4.898 -0.2741  1.6189 -1.1229
 6212TIP3    H218643   2.458   5.128   4.936 -0.8889  0.3543  0.5787
 6213TIP3   OH218644   2.004   3.369   2.669  0.3922 -0.6028  0.0972
 6213TIP3    H118645   2.059   3.323   2.606  1.5731 -0.0182  0.6504
 6213TIP3    H218646   1.938   3.304   2.696  0.9945 -1.4303 -0.3726
 6214TIP3   OH218647   5.347   4.802   0.815 -0.6616 -0.3349 -0.0271
 6214TIP3    H118648   5.443   4.800   0.812 -0.5719  0.4615  1.3985
 6214TIP3    H218649   5.320   4.769   0.729  0.8914  0.4245 -0.8601
 6215TIP3   OH218650   5.304   2.772   2.622 -0.2393 -0.6874 -0.0965
 6215TIP3    H118651   5.377   2.725   2.582 -0.6592 -1.0053 -0.4947
 6215TIP3    H218652   5.346   2.836   2.679  0.3721 -0.3357 -0.9161
 6216TIP3   OH218653   4.622   3.731   2.351 -0.0305  0.4231 -0.2240
 6216TIP3    H118654   4.711   3.749   2.382  0.2454  1.2810 -1.4674
 6216TIP3    H218655   4.616   3.635   2.352  0.6784  0.3737  0.4671
 6217TIP3   OH218656   6.034   5.358   2.213 -0.1383  0.5533 -0.3811
 6217TIP3    H118657   5.988   5.344   2.296  2.2147  0.8444  1.0544
 6217TIP3    H218658   5.973   5.327   2.146 -2.0655  0.1919  1.4467
 6218TIP3   OH218659   3.121   2.355   3.566  0.1464 -0.1183 -0.0883
 6218TIP3    H118660   3.038   2.351   3.614 -0.3285  1.3751 -0.7073
 6218TIP3    H218661   3.174   2.417   3.615  0.2757  0.1592 -0.5710
 6219TIP3   OH218662  -0.014   5.313   0.775 -0.1323 -0.0843 -0.2076
 6219TIP3    H118663  -0.018   5.407   0.759 -0.0962  0.0308  0.4312
 6219TIP3    H218664   0.073   5.299   0.812  0.3688 -0.5726 -1.5441
 6220TIP3   OH218665   3.895   0.945   3.948 -0.0102 -0.2621 -0.0005
 6220TIP3    H118666   3.968   0.906   3.996  0.4960  1.1835  0.4674
 6220TIP3    H218667   3.915   0.928   3.856 -0.2713 -1.8402  0.2160
 6221TIP3   OH218668   1.587   4.345   3.839  1.1127 -0.5973 -0.2568
 6221TIP3    H118669   1.652   4.404   3.802  0.0299  1.0859  0.4029
 6221TIP3    H218670   1.616   4.331   3.930  0.2914  0.6545  0.2312
 6222TIP3   OH218671   1.306   0.151   0.343 -0.3530  0.6071  0.0587
 6222TIP3    H118672   1.318   0.060   0.317 -0.5012  0.1245  1.5536
 6222TIP3    H218673   1.284   0.197   0.262  3.1238  0.0013 -1.3819
 6223TIP3   OH218674   1.558   2.648   1.883 -0.1835  0.6338 -0.4513
 6223TIP3    H118675   1.536   2.666   1.974 -0.3258  0.8087 -0.5183
 6223TIP3    H218676   1.642   2.693   1.869 -0.1041  0.5094 -0.3746
 6224TIP3   OH218677   3.983   5.050   1.718 -0.5145  0.4223 -0.3624
 6224TIP3    H118678   3.933   4.994   1.659 -1.2356  2.1536 -1.4824
 6224TIP3    H218679   3.953   5.025   1.806 -1.9303  0.0977 -0.9115
 6225TIP3   OH218680   4.297   5.307   1.337 -0.4070 -0.2763 -0.2826
 6225TIP3    H118681   4.341   5.363   1.401 -1.5905 -0.0116  0.3313
 6225TIP3    H218682   4.364   5.289   1.271  0.3223  0.9459  0.0881
 6226TIP3   OH218683   1.347   0.483   3.371 -0.2765  0.3948 -0.1898
 6226TIP3    H118684   1.334   0.516   3.460 -1.6419  1.9918 -0.9147
 6226TIP3    H218685   1.440   0.461   3.366 -0.5055 -1.5311  2.1588
 6227TIP3   OH218686   3.030   3.354   4.653  0.3279  0.2835 -1.1725
 6227TIP3    H118687   2.984   3.431   4.686  1.0594  0.3319 -0.2092
 6227TIP3    H218688   3.116   3.359   4.693  1.0691 -0.0020 -2.6521
 6228TIP3   OH218689   2.683   3.870   3.055 -0.3114 -0.3695  0.5116
 6228TIP3    H118690   2.778   3.857   3.060 -0.3260 -0.2448  1.2147
 6228TIP3    H218691   2.666   3.890   2.963  0.4874  0.7814  0.6037
 6229TIP3   OH218692   1.934   1.535   0.748 -0.7352  0.2722  0.4251
 6229TIP3    H118693   1.971   1.609   0.700 -1.3536  0.4635  0.2332
 6229TIP3    H218694   2.009   1.494   0.792 -0.0378 -0.3165 -1.2409
 6230TIP3   OH218695   3.456   3.034   3.604  0.1521  0.2193 -0.1751
 6230TIP3    H118696   3.498   3.120   3.602  1.6778 -0.4294  1.3660
 6230TIP3    H218697   3.412   3.031   3.689  0.2848 -0.6084 -0.1313
 6231TIP3   OH218698   1.454   3.395   0.799  0.0487 -0.4130  0.3290
 6231TIP3    H118699   1.520   3.351   0.852 -0.9925 -1.4437  0.8183
 6231TIP3    H218700   1.471   3.365   0.710  0.4702 -0.3703  0.3939
 6232TIP3   OH218701   1.083   4.180   4.164  0.4204  0.3146 -0.6146
 6232TIP3    H118702   1.151   4.222   4.217  0.0015  0.4023 -0.1508
 6232TIP3    H218703   1.038   4.253   4.120  1.2031  0.2121 -1.6441
 6233TIP3   OH218704   3.266   4.756   1.074 -0.1896  0.2115 -0.2106
 6233TIP3    H118705   3.240   4.724   1.160 -1.7358 -0.7290 -0.9900
 6233TIP3    H218706   3.184   4.769   1.027  0.4793  2.7624 -0.8733
 6234TIP3   OH218707   4.265   3.947   3.105 -0.0257  0.9437 -0.3582
 6234TIP3    H118708   4.345   3.999   3.093  0.5455  0.5356  1.3480
 6234TIP3    H218709   4.260   3.894   3.027  2.7076 -0.6833  0.4196
 6235TIP3   OH218710   2.400   3.598   0.228  0.4846  0.6255  0.1175
 6235TIP3    H118711   2.430   3.572   0.141 -2.2990 -0.9387 -0.4832
 6235TIP3    H218712   2.405   3.693   0.227 -0.5126  0.7229 -2.2088
 6236TIP3   OH218713   2.892   3.730   1.856 -0.2078 -0.1158 -0.1805
 6236TIP3    H118714   2.986   3.749   1.852  0.0388 -1.3372 -0.4296
 6236TIP3    H218715   2.851   3.817   1.853  0.8796  0.4068 -0.9434
 6237TIP3   OH218716   4.335   4.412   2.146  0.9477 -0.1266  0.8525
 6237TIP3    H118717   4.274   4.466   2.096  0.5757 -0.4339  0.9713
 6237TIP3    H218718   4.305   4.322   2.133  2.6113 -0.5074 -0.8071
 6238TIP3   OH218719   1.866   2.196   2.143 -0.1172 -0.2807  0.2146
 6238TIP3    H118720   1.855   2.102   2.128 -0.4047 -0.0234 -1.3456
 6238TIP3    H218721   1.791   2.221   2.198  0.1156 -0.9971  0.8784
 6239TIP3   OH218722   2.495   4.109   2.541 -0.3989 -0.0901  0.3292
 6239TIP3    H118723   2.437   4.080   2.612 -1.6442 -0.3143 -0.7341
 6239TIP3    H218724   2.572   4.052   2.548  0.0144  0.6320  2.1553
 6240TIP3   OH218725   1.502   1.888   1.572  0.2329  0.4680 -0.2513
 6240TIP3    H118726   1.560   1.828   1.525 -1.5778 -0.1039 -1.9192
 6240TIP3    H218727   1.506   1.970   1.523  0.1057  0.6302  0.0041
 6241TIP3   OH218728   4.957   0.735   2.689 -0.7597  0.1293  0.4567
 6241TIP3    H118729   4.929   0.789   2.763  0.8806 -0.0045  1.2213
 6241TIP3    H218730   4.971   0.797   2.618  1.2189  0.7841  1.3602
 6242TIP3   OH218731   3.415   2.770   2.949  0.2665 -0.1743  0.4508
 6242TIP3    H118732   3.323   2.759   2.925 -0.0404  1.1543  0.9396
 6242TIP3    H218733   3.446   2.681   2.965 -0.9160 -0.6512  0.2452
 6243TIP3   OH218734   4.685   5.280   1.034  0.0664 -0.0060  0.2223
 6243TIP3    H118735   4.690   5.349   1.100 -0.3175  1.3256 -1.0933
 6243TIP3    H218736   4.766   5.289   0.983 -0.5236  0.2666 -0.6955
 6244TIP3   OH218737   5.315   0.354   2.147  0.2240 -0.2965  0.4661
 6244TIP3    H118738   5.279   0.418   2.209 -0.0017 -0.3098  0.3525
 6244TIP3    H218739   5.332   0.276   2.200  1.4578  0.1868  0.8019
 6245TIP3   OH218740   1.949   1.105   4.306  0.6853  0.3545  0.0276
 6245TIP3    H118741   1.976   1.177   4.249 -3.0761  0.9531 -1.2776
 6245TIP3    H218742   1.984   1.026   4.264  3.0295  1.1489  0.3094
 6246TIP3   OH218743   2.706   1.641   4.637  0.4195 -0.1438  0.0075
 6246TIP3    H118744   2.800   1.641   4.654  0.2292 -0.0151  1.1057
 6246TIP3    H218745   2.683   1.549   4.626  0.5124 -0.2552  0.7175
 6247TIP3   OH218746   4.968   5.400   0.468  0.6676  0.0400 -0.5366
 6247TIP3    H118747   4.979   5.473   0.407 -1.4046 -0.5892 -1.7936
 6247TIP3    H218748   5.031   5.334   0.439 -0.7048 -0.5021 -2.5173
 6248TIP3   OH218749   2.211   3.429   0.322  0.1328 -0.0863  0.3433
 6248TIP3    H118750   2.277   3.470   0.267 -0.7897  1.2748  0.1931
 6248TIP3    H218751   2.178   3.501   0.377 -1.1392 -0.7420  0.4735
 6249TIP3   OH218752   1.633   4.920   3.563  0.3383 -0.7005  0.5373
 6249TIP3    H118753   1.700   4.878   3.617  0.7794 -2.3357 -1.1791
 6249TIP3    H218754   1.672   4.926   3.476 -1.0281  0.1416 -0.0480
 6250TIP3   OH218755   0.275   2.022   4.051  0.0279 -0.1795 -0.0194
 6250TIP3    H118756   0.241   2.106   4.021 -0.3108 -0.0089  0.8228
 6250TIP3    H218757   0.246   2.015   4.142  1.5896 -0.3720  0.4914
 6251TIP3   OH218758   2.731   0.938   1.985  0.1553 -0.6298  0.9700
 6251TIP3    H118759   2.663   0.965   2.047 -0.4590 -0.8100  0.3780
 6251TIP3    H218760   2.690   0.869   1.933  0.8618 -0.8831  0.7427
 6252TIP3   OH218761   2.327   1.840   5.146  0.8497 -0.3427 -0.3509
 6252TIP3    H118762   2.356   1.749   5.141  1.9148  0.0119 -1.1365
 6252TIP3    H218763   2.360   1.880   5.066 -0.0887  0.6081 -0.2792
 6253TIP3   OH218764   3.984   3.818   4.177 -0.7249  0.1835  0.2425
 6253TIP3    H118765   4.004   3.742   4.123 -0.9472  1.3005 -1.4739
 6253TIP3    H218766   3.942   3.781   4.255  0.1673 -1.5161 -0.0221
 6254TIP3   OH218767   0.873   3.350   3.608  0.0062 -0.1453  0.1363
 6254TIP3    H118768   0.953   3.303   3.583 -0.2260 -1.1330  1.1543
 6254TIP3    H218769   0.802   3.293   3.578 -0.2869 -0.2030  0.9128
 6255TIP3   OH218770   2.160   2.380   4.401  0.0440  0.4076 -0.3513
 6255TIP3    H118771   2.222   2.410   4.468  0.5725  1.3049 -1.2123
 6255TIP3    H218772   2.192   2.293   4.376  0.8099  0.7518 -0.5993
 6256TIP3   OH218773   2.871   2.904   1.690 -0.2142 -0.3355 -0.2883
 6256TIP3    H118774   2.950   2.955   1.676  1.1898 -2.2903  0.0945
 6256TIP3    H218775   2.827   2.948   1.763  1.2541 -0.0200  0.4385
 6257TIP3   OH218776   5.004   3.161   4.270  0.7104 -0.0210 -0.2514
 6257TIP3    H118777   4.988   3.074   4.232  0.2030  0.8937 -2.2192
 6257TIP3    H218778   5.082   3.193   4.226  0.0186  1.1388 -0.6530
 6258TIP3   OH218779   0.713   3.712   2.283  0.3545 -0.1799  0.1339
 6258TIP3    H118780   0.681   3.662   2.358  0.1192 -2.0712 -1.1229
 6258TIP3    H218781   0.665   3.675   2.208  0.7118  1.4933 -0.9671
 6259TIP3   OH218782   2.940   3.497   0.485  0.1177 -0.0928 -0.3839
 6259TIP3    H118783   3.030   3.512   0.456 -0.0149  0.5742 -0.4822
 6259TIP3    H218784   2.934   3.403   0.497  0.7283 -0.1825 -0.7172
 6260TIP3   OH218785   5.330   0.927   3.470  0.2140  0.2780  0.3724
 6260TIP3    H118786   5.366   0.862   3.531 -0.4082 -1.0762 -0.6502
 6260TIP3    H218787   5.253   0.961   3.515 -0.1638 -0.6158  0.4175
 6261TIP3   OH218788   1.795   5.317   1.708  0.3288 -0.3086  0.5579
 6261TIP3    H118789   1.746   5.282   1.783 -0.2549 -1.4842 -0.3328
 6261TIP3    H218790   1.731   5.369   1.659  0.6461  0.2588  0.7380
 6262TIP3   OH218791   0.834   2.110   0.964  0.1842  0.0741  0.1931
 6262TIP3    H118792   0.780   2.101   1.043  1.0728  2.7884  1.2009
 6262TIP3    H218793   0.775   2.147   0.898  0.0523  0.0928  0.3218
 6263TIP3   OH218794   5.285   4.697   3.106  0.2088 -0.5700 -0.5572
 6263TIP3    H118795   5.219   4.632   3.081  0.2304  0.0445 -2.4133
 6263TIP3    H218796   5.234   4.771   3.140  0.1735 -1.4311  1.3505
 6264TIP3   OH218797   6.040   5.303   3.906 -0.0267 -0.2419  0.2683
 6264TIP3    H118798   6.069   5.392   3.888  0.4495 -0.3257  0.6102
 6264TIP3    H218799   6.027   5.264   3.820  1.7139 -0.4778  0.0915
 6265TIP3   OH218800   5.431   3.436   3.705  0.8026 -0.7982  0.1153
 6265TIP3    H118801   5.413   3.350   3.665 -0.8735  0.5367 -2.2599
 6265TIP3    H218802   5.509   3.467   3.659  0.4562 -0.3893 -0.2020
 6266TIP3   OH218803   3.910   1.427   0.845  0.1729  0.2085  0.7627
 6266TIP3    H118804   3.889   1.334   0.833 -2.1669  0.8685 -0.9289
 6266TIP3    H218805   3.862   1.452   0.924 -2.0144  0.6626 -0.6157
 6267TIP3   OH218806   0.583   4.430   4.781 -0.4378 -0.0806 -0.4641
 6267TIP3    H118807   0.596   4.454   4.872  1.0761  1.7772 -1.0938
 6267TIP3    H218808   0.516   4.362   4.783  0.5179 -1.0552  2.1079
 6268TIP3   OH218809   6.017   4.733   0.699 -0.2084 -0.1285  0.1495
 6268TIP3    H118810   6.087   4.761   0.641 -0.6832 -1.2266 -0.9829
 6268TIP3    H218811   5.938   4.738   0.646 -0.8836  0.2947  1.1623
 6269TIP3   OH218812   3.713   4.745   4.455 -0.1294 -0.1209  0.4014
 6269TIP3    H118813   3.620   4.770   4.452 -0.1210 -0.2066 -0.9230
 6269TIP3    H218814   3.737   4.729   4.364  1.5641  1.2356  0.5574
 6270TIP3   OH218815   3.449   1.806   0.743  0.0300 -0.2472  0.5136
 6270TIP3    H118816   3.504   1.742   0.787  1.6352  1.3002  0.8811
 6270TIP3    H218817   3.510   1.867   0.702 -1.4296  0.5007 -0.6734
 6271TIP3   OH218818   2.685   2.699   0.433  0.7088 -0.1620  0.1639
 6271TIP3    H118819   2.715   2.784   0.402 -0.1069  0.9513  2.1834
 6271TIP3    H218820   2.594   2.693   0.403  0.9913 -0.6646 -0.6021
 6272TIP3   OH218821   2.830   5.599   2.041  0.6808  0.3923 -0.5680
 6272TIP3    H118822   2.761   5.586   1.976  0.2913 -0.8179  0.0610
 6272TIP3    H218823   2.903   5.636   1.991  0.4728 -0.7190 -1.7526
 6273TIP3   OH218824   2.164   0.083   2.358  0.1196 -0.4566  0.1203
 6273TIP3    H118825   2.163   0.169   2.400  0.1862 -0.3136 -0.1701
 6273TIP3    H218826   2.246   0.043   2.388  0.5893 -0.0134 -0.5559
 6274TIP3   OH218827   1.584   5.404   1.917 -0.8862  0.1959 -0.1017
 6274TIP3    H118828   1.549   5.445   1.838 -3.1614  1.1928  1.3229
 6274TIP3    H218829   1.536   5.322   1.925  0.0746 -0.4013 -0.2729
 6275TIP3   OH218830   1.732   2.578   4.666 -0.2105  0.3241 -0.1267
 6275TIP3    H118831   1.677   2.566   4.744 -0.3110 -2.9781 -0.5760
 6275TIP3    H218832   1.801   2.513   4.675  1.3341  1.6700 -1.5603
 6276TIP3   OH218833   5.264   5.375   0.855 -0.2797  0.1896  0.5877
 6276TIP3    H118834   5.190   5.416   0.899 -0.7314 -1.8859  1.9043
 6276TIP3    H218835   5.312   5.330   0.925  0.5195 -0.9812 -0.6556
 6277TIP3   OH218836   1.903   2.370   4.750 -0.1869  0.0724 -0.1838
 6277TIP3    H118837   1.952   2.293   4.720 -2.1429 -0.4605 -2.2286
 6277TIP3    H218838   1.811   2.346   4.740 -0.8968  3.0963 -2.1435
 6278TIP3   OH218839   3.243   0.781   1.710 -0.4309  0.3129  0.1926
 6278TIP3    H118840   3.290   0.844   1.654  0.6384 -0.3879  0.2767
 6278TIP3    H218841   3.200   0.835   1.775 -0.3609  1.0368 -0.3424
 6279TIP3   OH218842   4.358   4.917   0.239 -0.6715  0.0452  0.1678
 6279TIP3    H118843   4.387   4.879   0.156 -1.6873 -0.5980  0.1000
 6279TIP3    H218844   4.362   4.845   0.301 -1.2050  0.1912  0.3738
 6280TIP3   OH218845   4.692   0.975   0.395  0.0198 -0.1609  0.0240
 6280TIP3    H118846   4.731   1.012   0.474 -1.1702 -0.3221  0.7191
 6280TIP3    H218847   4.679   0.882   0.416  0.2687 -0.3385 -0.5954
 6281TIP3   OH218848   3.580   2.683   3.427 -0.2989 -0.5944 -0.1397
 6281TIP3    H118849   3.494   2.703   3.465 -0.5843  0.7227 -1.3921
 6281TIP3    H218850   3.566   2.601   3.379 -1.1412  0.1087 -1.1410
 6282TIP3   OH218851   5.318   0.344   3.942  0.4092  0.4305 -0.0053
 6282TIP3    H118852   5.257   0.277   3.972 -0.0409  0.9520  0.2491
 6282TIP3    H218853   5.327   0.328   3.848 -1.5489  1.4714 -0.4049
 6283TIP3   OH218854   3.987   1.211   1.203  0.0730  0.1691  0.3353
 6283TIP3    H118855   3.983   1.166   1.287 -2.4191  0.2156  0.3263
 6283TIP3    H218856   3.897   1.241   1.188  0.7978  1.5505 -1.5988
 6284TIP3   OH218857   5.065   1.752   5.136  0.0650 -0.6555 -0.7592
 6284TIP3    H118858   5.151   1.769   5.097  0.2231 -2.8443 -1.4775
 6284TIP3    H218859   5.065   1.804   5.217  1.0441  1.3669 -1.9746
 6285TIP3   OH218860   0.233   1.401   2.680  0.4289  0.3685 -0.1456
 6285TIP3    H118861   0.291   1.329   2.654  0.4980  0.2246  0.3960
 6285TIP3    H218862   0.290   1.462   2.726  0.4543  0.9863 -0.9839
 6286TIP3   OH218863   3.237   1.422   3.375 -0.5302  0.3960 -0.7520
 6286TIP3    H118864   3.155   1.471   3.375 -1.5728 -1.2582  0.0800
 6286TIP3    H218865   3.214   1.335   3.409  1.5850 -0.0809 -0.3396
 6287TIP3   OH218866   2.095   5.452   3.380  0.1269  0.8996 -0.1414
 6287TIP3    H118867   2.039   5.396   3.433  1.8239 -2.4895 -1.6489
 6287TIP3    H218868   2.126   5.520   3.440 -0.1438 -1.1749  2.4937
 6288TIP3   OH218869   0.930   5.243   3.395 -0.5516  0.0821 -0.0542
 6288TIP3    H118870   1.021   5.217   3.381 -1.0068 -1.6714  0.1132
 6288TIP3    H218871   0.931   5.285   3.481  0.5318  2.4692 -1.1423
 6289TIP3   OH218872   3.756   1.422   3.974 -0.8472  0.1725 -0.5653
 6289TIP3    H118873   3.746   1.331   4.000 -0.0006  0.1452 -0.3011
 6289TIP3    H218874   3.756   1.471   4.057  3.2479 -0.0431 -0.2477
 6290TIP3   OH218875   1.693   2.637   4.254  0.0235 -0.6461 -0.4567
 6290TIP3    H118876   1.777   2.592   4.256 -0.0358 -0.8323 -1.6256
 6290TIP3    H218877   1.664   2.630   4.163 -2.7111 -3.2874  0.4450
 6291TIP3   OH218878   5.346   5.803   0.981 -0.4519  0.3457  0.9967
 6291TIP3    H118879   5.404   5.801   1.057 -0.2735  2.7712  1.0123
 6291TIP3    H218880   5.358   5.719   0.938  1.2115 -0.1534  2.3633
 6292TIP3   OH218881   1.005   5.542   4.832  0.1823 -0.6331 -0.3208
 6292TIP3    H118882   0.985   5.518   4.741  0.7978  1.5164 -1.0912
 6292TIP3    H218883   1.006   5.638   4.831  2.4022 -0.5608  1.4630
 6293TIP3   OH218884   1.736   0.332   1.261 -0.6570 -0.7347 -0.3653
 6293TIP3    H118885   1.793   0.256   1.271 -0.0638 -0.2335  0.2318
 6293TIP3    H218886   1.751   0.362   1.171  0.5204 -0.2470 -0.0292
 6294TIP3   OH218887   1.063   5.835   1.878 -0.2555  0.9132  0.4479
 6294TIP3    H118888   1.039   5.819   1.969 -0.5984 -0.1733  0.1755
 6294TIP3    H218889   1.017   5.768   1.828  0.4588  1.0758 -0.4660
 6295TIP3   OH218890   0.971   1.087   2.331 -0.1700  0.1359 -0.0798
 6295TIP3    H118891   0.883   1.110   2.361  0.0346 -1.1805  1.7144
 6295TIP3    H218892   0.957   1.009   2.276 -0.0719 -0.7589  1.1143
 6296TIP3   OH218893   0.470   0.809   3.938 -0.5141 -0.0660 -0.5039
 6296TIP3    H118894   0.471   0.729   3.886 -0.8557  0.6348 -1.6089
 6296TIP3    H218895   0.440   0.877   3.878 -1.3043  0.6989  0.6995
 6297TIP3   OH218896   0.613   3.616   4.062  0.3232  0.7888  0.3927
 6297TIP3    H118897   0.674   3.593   3.992  0.5225 -0.2734  0.9024
 6297TIP3    H218898   0.538   3.559   4.048  0.1758  0.8855  0.7842
 6298TIP3   OH218899   0.791   5.577   3.275 -0.0505 -0.7197  0.5438
 6298TIP3    H118900   0.849   5.590   3.351  0.3135 -2.6191  0.6393
 6298TIP3    H218901   0.718   5.525   3.309  0.1921 -1.7302 -0.4156
 6299TIP3   OH218902   5.857   3.964   1.662 -0.0111 -0.1674  0.0262
 6299TIP3    H118903   5.869   4.051   1.626 -1.6795 -0.1819 -0.6931
 6299TIP3    H218904   5.797   3.976   1.735 -1.6176 -0.8520 -1.1090
 6300TIP3   OH218905   3.010   3.272   2.886  0.4497 -0.1203 -0.4064
 6300TIP3    H118906   3.081   3.218   2.852  1.1773  1.4978 -1.6224
 6300TIP3    H218907   3.005   3.250   2.979  1.0456 -1.8529 -0.7490
 6301TIP3   OH218908   1.585   3.084   1.107 -0.5196 -0.5157  0.3147
 6301TIP3    H118909   1.514   3.022   1.123 -0.4179 -0.5298  0.7242
 6301TIP3    H218910   1.642   3.039   1.044 -0.0346 -1.1661  1.2035
 6302TIP3   OH218911   5.037   3.376   0.218 -0.4287  0.5243 -0.3753
 6302TIP3    H118912   5.018   3.300   0.273  1.8270  0.3957  0.3564
 6302TIP3    H218913   4.973   3.372   0.147 -0.0931 -2.3434 -0.6166
 6303TIP3   OH218914   3.142   0.898   3.293  0.1499 -0.0318  0.1823
 6303TIP3    H118915   3.136   0.824   3.354  3.2224 -1.2637 -0.8214
 6303TIP3    H218916   3.200   0.960   3.337  0.5793  0.0648 -0.5028
 6304TIP3   OH218917   3.819   1.775   3.618  0.8993 -0.3625  0.6081
 6304TIP3    H118918   3.830   1.839   3.548  0.2755 -0.6880  0.1984
 6304TIP3    H218919   3.752   1.714   3.585 -0.2618  0.1388  1.9404
 6305TIP3   OH218920   5.784   3.444   2.818  0.1165 -0.2179  0.6658
 6305TIP3    H118921   5.766   3.350   2.817  1.6392 -0.5323  0.0408
 6305TIP3    H218922   5.877   3.450   2.842  0.3883  1.0497 -0.6242
 6306TIP3   OH218923   4.308   2.376   2.273 -0.6467  0.7678 -0.3351
 6306TIP3    H118924   4.370   2.440   2.308  0.8894 -1.4096  1.1786
 6306TIP3    H218925   4.320   2.381   2.178  2.3850  0.0281 -0.0996
 6307TIP3   OH218926   5.053   5.486   0.980  0.9359  0.3843  0.4718
 6307TIP3    H118927   5.011   5.475   1.065 -1.0192 -2.0103 -0.6814
 6307TIP3    H218928   5.000   5.553   0.936  1.4889  1.0747  0.8406
 6308TIP3   OH218929   0.501   2.188   4.981 -0.4733  0.3549  0.4389
 6308TIP3    H118930   0.525   2.281   4.986 -0.1900  0.4378 -1.6462
 6308TIP3    H218931   0.581   2.141   5.005  0.1954  0.6593 -1.1110
 6309TIP3   OH218932   5.173   2.302   2.487 -0.5299  0.1199  1.0037
 6309TIP3    H118933   5.246   2.263   2.534  0.0835  0.8536  0.6759
 6309TIP3    H218934   5.211   2.377   2.440 -1.2027 -0.3119 -0.2929
 6310TIP3   OH218935   0.219   1.872   1.943  0.1833 -0.0203 -0.4013
 6310TIP3    H118936   0.186   1.830   1.864 -1.5343 -0.4456  0.4938
 6310TIP3    H218937   0.275   1.806   1.984  0.4360 -0.0827 -0.8422
 6311TIP3   OH218938   5.152   4.644   3.963  0.3131  0.0538  0.1126
 6311TIP3    H118939   5.148   4.722   4.019  1.5386  0.3353 -0.1612
 6311TIP3    H218940   5.146   4.678   3.874  0.1085 -0.2345  0.0149
 6312TIP3   OH218941   1.874   4.096   5.029 -0.1865 -0.2024  0.8135
 6312TIP3    H118942   1.959   4.104   4.986 -0.2409 -0.4255  0.6624
 6312TIP3    H218943   1.895   4.095   5.123  0.1187 -1.7965  0.7473
 6313TIP3   OH218944   1.460   2.786   0.096  0.0972  0.1756  0.1480
 6313TIP3    H118945   1.365   2.780   0.101  0.1788 -1.1461  0.4933
 6313TIP3    H218946   1.480   2.879   0.112 -1.1387  0.5341 -0.3156
 6314TIP3   OH218947   2.396   0.758   4.792  0.4527  0.2037 -0.3656
 6314TIP3    H118948   2.304   0.746   4.769  0.0760  1.3575  0.4883
 6314TIP3    H218949   2.433   0.805   4.717 -0.1392  1.5288  0.1461
 6315TIP3   OH218950   5.014   2.487   0.206  0.0172  0.6065  0.2159
 6315TIP3    H118951   5.094   2.456   0.249 -0.4472 -0.4204  0.3698
 6315TIP3    H218952   5.028   2.468   0.113  0.1123  0.7731  0.1972
 6316TIP3   OH218953   5.390   5.002   4.560  0.1224 -0.1030 -0.0532
 6316TIP3    H118954   5.339   5.005   4.479 -1.7679 -0.6273  1.0609
 6316TIP3    H218955   5.355   5.074   4.613  1.9434  0.8084  0.0229
 6317TIP3   OH218956   4.244   5.158   4.693  0.4880  0.5572 -0.7989
 6317TIP3    H118957   4.216   5.209   4.769 -0.4312 -0.2607 -0.5596
 6317TIP3    H218958   4.266   5.072   4.730 -1.9687 -0.5423 -1.6524
 6318TIP3   OH218959   0.259   2.750   2.098  0.4577  0.4421 -0.1352
 6318TIP3    H118960   0.307   2.689   2.154 -1.4680 -0.1376  0.9361
 6318TIP3    H218961   0.299   2.835   2.116  2.1109 -0.2124 -0.4640
 6319TIP3   OH218962   3.903   1.803   1.099  0.3325 -0.5535  0.0767
 6319TIP3    H118963   3.842   1.793   1.172 -0.2730  1.1350 -0.1569
 6319TIP3    H218964   3.989   1.783   1.136  0.3222  2.1212  1.8261
 6320TIP3   OH218965   1.278   0.133   2.760  0.4097 -0.4251  0.2102
 6320TIP3    H118966   1.224   0.066   2.719 -0.4378  1.1336 -1.3610
 6320TIP3    H218967   1.343   0.157   2.693  1.0023 -0.0156  0.9080
 6321TIP3   OH218968   4.489   4.453   4.152  0.1021 -0.5265 -0.1853
 6321TIP3    H118969   4.537   4.385   4.199 -0.5120 -1.2542 -0.5870
 6321TIP3    H218970   4.456   4.409   4.073  0.0018  0.3297 -0.6338
 6322TIP3   OH218971   5.904   3.083   2.298 -0.1277  0.5635  0.4024
 6322TIP3    H118972   5.811   3.082   2.319 -0.0113  0.6011  0.9264
 6322TIP3    H218973   5.912   3.149   2.228 -0.4826  0.6065  0.4017
 6323TIP3   OH218974   2.507   0.989   1.071  0.2084 -0.2863 -0.6776
 6323TIP3    H118975   2.524   0.901   1.106  2.2828  0.8119  1.4304
 6323TIP3    H218976   2.509   1.046   1.148 -2.9421  1.4785 -1.7110
 6324TIP3   OH218977   3.094   1.969   0.275  0.1428  0.5772 -0.0844
 6324TIP3    H118978   3.053   1.892   0.315 -0.5588  0.4790 -0.9650
 6324TIP3    H218979   3.077   2.040   0.336 -1.5791  0.5928 -0.5246
 6325TIP3   OH218980   6.297   4.673   2.238 -0.1440 -0.1522  0.4473
 6325TIP3    H118981   6.379   4.656   2.191  0.1159  1.5685  0.2077
 6325TIP3    H218982   6.231   4.623   2.190  0.8250 -2.0711  1.0144
 6326TIP3   OH218983   4.193   2.322   4.213 -0.4175  0.3626  0.1281
 6326TIP3    H118984   4.142   2.266   4.154  0.1256 -1.5517  1.3731
 6326TIP3    H218985   4.284   2.298   4.197 -0.2001  0.5528  1.0166
 6327TIP3   OH218986   1.952   2.620   1.383 -0.3498 -0.1409 -0.2737
 6327TIP3    H118987   1.939   2.705   1.340 -0.7555 -0.2790 -0.4204
 6327TIP3    H218988   2.024   2.636   1.444 -0.1098  0.1894 -0.6371
 6328TIP3   OH218989   0.289   4.474   4.019 -0.1764  0.0389 -0.3422
 6328TIP3    H118990   0.290   4.451   3.927 -2.4531 -0.7787 -0.2056
 6328TIP3    H218991   0.309   4.568   4.020  2.3662 -0.4062 -1.4059
 6329TIP3   OH218992   0.585   3.721   0.999 -0.3535 -0.3922 -0.2283
 6329TIP3    H118993   0.536   3.654   1.047  0.9804 -0.1895  1.5138
 6329TIP3    H218994   0.638   3.764   1.066  3.0342 -1.2950 -2.0620
 6330TIP3   OH218995   2.710   3.267   0.584 -0.2966 -0.5644 -0.0573
 6330TIP3    H118996   2.767   3.250   0.509 -1.5510 -0.3713 -1.0752
 6330TIP3    H218997   2.634   3.312   0.547 -2.5146 -3.3505  0.7788
 6331TIP3   OH218998   5.004   3.506   4.117  0.2636 -0.6276  0.4388
 6331TIP3    H118999   5.031   3.595   4.093 -0.6722 -0.2768  0.6211
 6331TIP3    H219000   5.044   3.491   4.203 -0.0777 -0.1328  0.6917
 6332TIP3   OH219001   2.469   3.567   1.564  0.1932  0.8788 -0.8684
 6332TIP3    H119002   2.403   3.559   1.634  0.6910 -1.0050 -0.5383
 6332TIP3    H219003   2.553   3.552   1.609  0.6040  0.6053 -1.7023
 6333TIP3   OH219004   4.297   2.670   3.956 -0.2256 -0.7089 -0.0240
 6333TIP3    H119005   4.344   2.697   3.877  1.9569  0.3742  1.5314
 6333TIP3    H219006   4.263   2.583   3.935 -1.8468  0.5188 -2.9437
 6334TIP3   OH219007   6.220   0.211   1.191  0.5795  0.2687  0.2554
 6334TIP3    H119008   6.196   0.227   1.282 -0.3840 -0.5181  0.1597
 6334TIP3    H219009   6.314   0.193   1.194  0.5354  0.1254  1.1131
 6335TIP3   OH219010   5.062   0.556   0.064  0.2009  0.2343  0.2717
 6335TIP3    H119011   5.107   0.562   0.149  0.0942 -1.9556  0.5291
 6335TIP3    H219012   5.026   0.467   0.062  0.0146  0.3081 -1.9922
 6336TIP3   OH219013   0.826   5.699   3.527 -0.4193 -0.3847  0.4330
 6336TIP3    H119014   0.746   5.698   3.579  0.6252 -0.4018  2.1325
 6336TIP3    H219015   0.896   5.683   3.591  1.0294  0.6322 -0.8193
 6337TIP3   OH219016   1.322   3.063   4.522  0.5940  0.2155 -0.1339
 6337TIP3    H119017   1.250   3.123   4.506 -0.1691 -0.0908  1.8397
 6337TIP3    H219018   1.327   3.009   4.443 -1.6681 -0.0607 -0.1354
 6338TIP3   OH219019   5.624   2.248   3.227 -0.3407 -0.4152 -0.2198
 6338TIP3    H119020   5.585   2.161   3.222 -0.5455 -0.2786 -1.0651
 6338TIP3    H219021   5.716   2.231   3.251 -0.6464 -0.7885  0.7480
 6339TIP3   OH219022   0.008   4.640   5.000 -0.1166  0.2443  1.0325
 6339TIP3    H119023  -0.029   4.596   4.923 -0.5362  0.0175  1.3579
 6339TIP3    H219024   0.069   4.577   5.036 -0.4692  0.0543  1.3061
 6340TIP3   OH219025   0.353   5.136   3.223 -0.1657  0.6031  0.3811
 6340TIP3    H119026   0.422   5.112   3.285 -1.4505 -1.2275  1.2416
 6340TIP3    H219027   0.313   5.214   3.261  0.3179  0.6470  0.8172
 6341TIP3   OH219028   2.029   2.690   0.372  0.0946  0.2298 -0.8791
 6341TIP3    H119029   2.075   2.739   0.304 -2.2328 -0.4855 -3.1118
 6341TIP3    H219030   2.020   2.602   0.336 -0.3461 -0.4545  0.8199
 6342TIP3   OH219031   5.745   2.589   4.544  0.2726  0.2228 -0.2589
 6342TIP3    H119032   5.748   2.684   4.544  0.0972  0.2342  0.3496
 6342TIP3    H219033   5.669   2.567   4.490  0.2812  0.4289 -0.3566
 6343TIP3   OH219034   1.762   4.368   1.047 -0.3572  0.3291 -0.1524
 6343TIP3    H119035   1.807   4.309   1.106 -1.2751 -1.4495 -1.1434
 6343TIP3    H219036   1.721   4.433   1.104 -1.4482 -1.4727  1.2135
 6344TIP3   OH219037   5.092   4.692   0.364  0.7205 -0.0482 -0.6430
 6344TIP3    H119038   5.014   4.637   0.361  0.4582  0.3470 -2.5118
 6344TIP3    H219039   5.083   4.744   0.443 -0.3471 -0.8118 -0.2464
 6345TIP3   OH219040   5.929   3.231   1.773 -0.4363 -0.1748  0.6202
 6345TIP3    H119041   5.989   3.237   1.699 -0.0654 -2.3873  0.6744
 6345TIP3    H219042   5.876   3.311   1.768  1.4266  1.0705 -0.3648
 6346TIP3   OH219043   0.984   5.379   0.050 -0.0215  0.0365 -0.6820
 6346TIP3    H119044   0.924   5.424   0.110  0.2636 -0.1203 -0.2743
 6346TIP3    H219045   0.932   5.307   0.014 -0.3263  0.3908 -0.9563
 6347TIP3   OH219046   5.070   0.174   1.486  0.0708  0.2386 -0.1018
 6347TIP3    H119047   5.080   0.079   1.500  0.3438  0.4356  1.1605
 6347TIP3    H219048   5.152   0.200   1.444  0.9600  0.2630  1.5728
 6348TIP3   OH219049   4.506   4.763   3.591  0.3037 -0.4157 -0.4274
 6348TIP3    H119050   4.509   4.705   3.514 -3.1264 -0.5714 -0.5999
 6348TIP3    H219051   4.477   4.847   3.555  2.3126  0.6263  0.2580
 6349TIP3   OH219052   1.950   3.388   2.353  0.2132  0.1195  0.1240
 6349TIP3    H119053   2.037   3.391   2.392 -0.0942 -0.8234  0.9395
 6349TIP3    H219054   1.943   3.299   2.317 -1.2616 -0.6920  2.2078
 6350TIP3   OH219055   4.961   0.780   4.018  0.6901 -0.9486  0.3093
 6350TIP3    H119056   4.991   0.698   3.979 -0.0459 -0.7507 -0.7484
 6350TIP3    H219057   4.869   0.787   3.990  0.6968  0.1492  0.5058
 6351TIP3   OH219058   1.898   5.188   1.394 -0.2353  0.2229 -0.0853
 6351TIP3    H119059   1.865   5.099   1.406 -0.5296  0.4490  0.8698
 6351TIP3    H219060   1.943   5.208   1.475  1.4154  0.2994 -0.9812
 6352TIP3   OH219061   4.376   4.083   1.121 -0.1407  0.7076 -0.7144
 6352TIP3    H119062   4.461   4.051   1.149  0.6714  2.2457 -1.3036
 6352TIP3    H219063   4.349   4.144   1.190 -0.0895  1.3171 -1.2289
 6353TIP3   OH219064   1.861   4.554   0.277  0.1569  0.4805  0.2835
 6353TIP3    H119065   1.903   4.503   0.347 -1.5798 -1.4199  0.0458
 6353TIP3    H219066   1.770   4.524   0.278 -0.0459  0.8065 -2.4383
 6354TIP3   OH219067   1.464   3.362   0.296 -0.4248  1.1553 -0.2026
 6354TIP3    H119068   1.515   3.392   0.220 -0.9092  1.0306 -0.5775
 6354TIP3    H219069   1.506   3.405   0.371 -0.1428  1.5356 -0.5743
 6355TIP3   OH219070   1.170   3.885   1.988 -0.8675 -0.0934  0.8307
 6355TIP3    H119071   1.204   3.919   2.071  0.9085  0.1513  0.0310
 6355TIP3    H219072   1.243   3.890   1.927 -1.6617 -1.7928 -0.3491
 6356TIP3   OH219073   6.114   2.191   2.683 -0.2759 -0.2750  0.1566
 6356TIP3    H119074   6.067   2.208   2.602 -0.1603 -2.0980 -0.3250
 6356TIP3    H219075   6.204   2.216   2.665 -0.0229 -1.6995 -0.6675
 6357TIP3   OH219076   0.368   3.132   3.519 -0.1853  0.3261  0.1197
 6357TIP3    H119077   0.281   3.123   3.557 -0.3013  2.2118  0.3958
 6357TIP3    H219078   0.356   3.187   3.442  0.3376 -1.9074 -1.6747
 6358TIP3   OH219079   4.578   1.352   1.253 -0.0515 -0.3937  0.9001
 6358TIP3    H119080   4.660   1.402   1.253 -0.6974  0.7791 -0.9717
 6358TIP3    H219081   4.512   1.415   1.225 -1.2334 -1.8333  0.3333
 6359TIP3   OH219082   4.542   3.450   3.707  0.1506  0.1149  0.3186
 6359TIP3    H119083   4.509   3.519   3.649 -0.4136  0.8386  1.4465
 6359TIP3    H219084   4.464   3.420   3.755  0.3659 -1.4167 -0.2404
 6360TIP3   OH219085   0.442   4.829   2.593 -0.0633 -0.2047 -0.1619
 6360TIP3    H119086   0.486   4.914   2.592 -0.1861 -0.1386 -0.9512
 6360TIP3    H219087   0.466   4.790   2.677 -0.4626  0.8451  0.4685
 6361TIP3   OH219088   6.359   0.564   2.293  0.6833  0.3263 -0.3055
 6361TIP3    H119089   6.404   0.528   2.369  1.2426 -2.1501 -1.7079
 6361TIP3    H219090   6.271   0.526   2.298  0.6276  0.4012 -0.7391
 6362TIP3   OH219091   1.505   3.058   0.164 -0.5714 -0.1949  0.3703
 6362TIP3    H119092   1.531   3.149   0.177 -1.9474  0.2319  0.2048
 6362TIP3    H219093   1.447   3.059   0.088  1.6786 -1.6550 -1.5407
 6363TIP3   OH219094   3.529   1.292   4.426 -0.2005  0.2871  0.0665
 6363TIP3    H119095   3.437   1.268   4.421  0.0989 -0.7107 -2.5031
 6363TIP3    H219096   3.533   1.379   4.384  0.1672 -0.2712 -1.0901
 6364TIP3   OH219097   4.936   5.177   3.745 -0.1321 -0.1488 -0.6561
 6364TIP3    H119098   4.878   5.223   3.685  0.7049  2.0276  0.1147
 6364TIP3    H219099   4.889   5.178   3.829 -0.3373 -1.2312 -0.7377
 6365TIP3   OH219100   5.157   4.937   3.196 -0.3625  0.0380 -0.3694
 6365TIP3    H119101   5.154   5.021   3.150 -0.1271 -0.1274 -0.6936
 6365TIP3    H219102   5.076   4.934   3.246  0.1335  0.9653  0.5424
 6366TIP3   OH219103   0.213   0.028   4.997 -0.2842  0.4181 -0.3399
 6366TIP3    H119104   0.272   0.101   5.014  0.8081 -0.4724 -0.1695
 6366TIP3    H219105   0.249  -0.045   5.047 -1.4117 -0.2198 -0.4150
 6367TIP3   OH219106   5.114   3.230   1.272 -0.3804  0.1303  0.0385
 6367TIP3    H119107   5.131   3.137   1.288  0.9015  0.2286 -0.5884
 6367TIP3    H219108   5.200   3.266   1.249 -0.7378  1.6020  0.8680
 6368TIP3   OH219109   0.385   4.247   3.271  0.2071 -0.4815 -0.0781
 6368TIP3    H119110   0.450   4.266   3.204  0.1736 -2.2908 -0.6784
 6368TIP3    H219111   0.402   4.156   3.295 -0.5556 -0.2349  1.5218
 6369TIP3   OH219112   2.253   5.906   4.502 -0.1284  0.7952  0.5112
 6369TIP3    H119113   2.179   5.945   4.456 -0.4106  0.1116  0.3720
 6369TIP3    H219114   2.329   5.955   4.470 -0.2724  0.1181 -0.9629
 6370TIP3   OH219115   1.729   0.432   1.513  0.2033  0.0490  0.4226
 6370TIP3    H119116   1.775   0.407   1.433  0.1819 -0.9642  0.7011
 6370TIP3    H219117   1.638   0.407   1.497  0.4904 -1.8602  1.3830
 6371TIP3   OH219118   6.259   3.497   1.459  0.2013 -0.2451 -0.1641
 6371TIP3    H119119   6.313   3.553   1.515 -0.3017 -1.1668  1.2924
 6371TIP3    H219120   6.211   3.558   1.403  1.9670  0.6329 -0.8092
 6372TIP3   OH219121   2.502   4.647   0.754  0.1387  0.3295 -0.0004
 6372TIP3    H119122   2.459   4.676   0.673 -0.4696  0.2528  0.2845
 6372TIP3    H219123   2.443   4.675   0.823 -0.0343 -0.8102  0.3315
 6373TIP3   OH219124   0.523   4.999   2.114 -0.5155 -0.3608  0.6486
 6373TIP3    H119125   0.614   4.991   2.089 -0.5685  1.9172 -0.6022
 6373TIP3    H219126   0.477   4.931   2.064  0.3786 -1.0225  0.7125
 6374TIP3   OH219127   1.435   2.659   1.183  0.2357  0.0937 -0.4630
 6374TIP3    H119128   1.426   2.568   1.158 -0.3636  0.4111 -1.4701
 6374TIP3    H219129   1.509   2.660   1.244 -0.5877 -1.2361  0.6120
 6375TIP3   OH219130   3.782   5.494   2.181  0.3303  0.0452  0.1729
 6375TIP3    H119131   3.861   5.447   2.206 -0.5912 -1.9049 -0.3051
 6375TIP3    H219132   3.711   5.433   2.202 -0.9809  1.4184 -0.1100
 6376TIP3   OH219133   2.890   1.129   4.682  0.1339  0.0734 -0.2648
 6376TIP3    H119134   2.916   1.122   4.590 -1.2631  3.3331 -1.0284
 6376TIP3    H219135   2.804   1.086   4.685 -0.4187  1.0941 -0.8304
 6377TIP3   OH219136   5.310   0.755   4.171 -0.3430 -0.2404  0.1501
 6377TIP3    H119137   5.385   0.701   4.145 -0.3164  0.9022 -2.4443
 6377TIP3    H219138   5.254   0.696   4.222  3.1211 -0.6736  4.0259
 6378TIP3   OH219139   1.906   3.477   4.148  0.1537 -0.2621  0.1682
 6378TIP3    H119140   1.900   3.505   4.239  0.3874 -1.3388  0.5252
 6378TIP3    H219141   1.989   3.513   4.117 -0.4283  1.0263  0.0383
 6379TIP3   OH219142   3.407   4.464   5.185 -0.2823  0.2054 -0.1580
 6379TIP3    H119143   3.494   4.434   5.212 -0.6076 -1.1407 -0.5235
 6379TIP3    H219144   3.424   4.542   5.132  0.8754 -1.0930 -1.7851
 6380TIP3   OH219145   2.722   1.995   2.877 -0.1582  0.3337  0.5489
 6380TIP3    H119146   2.709   2.069   2.817  3.3111  0.4647 -0.2117
 6380TIP3    H219147   2.682   1.921   2.832  0.7548  0.8021 -1.0964
 6381TIP3   OH219148   1.275   5.793   3.661 -0.3457  0.5317 -0.0481
 6381TIP3    H119149   1.355   5.744   3.643  0.0752  0.8837  0.7682
 6381TIP3    H219150   1.277   5.867   3.600 -1.7137 -1.1829 -2.2972
 6382TIP3   OH219151   5.799   5.989   0.726 -0.2293  0.0278  0.4479
 6382TIP3    H119152   5.704   5.983   0.734 -0.1097 -0.9431  1.1393
 6382TIP3    H219153   5.826   5.904   0.691  0.2858  0.6921 -0.8619
 6383TIP3   OH219154   2.911   3.113   3.471  0.1337  0.1268 -0.2817
 6383TIP3    H119155   2.986   3.099   3.530 -0.6555 -0.5261  0.6080
 6383TIP3    H219156   2.911   3.035   3.415  0.8304  0.7061 -1.1220
 6384TIP3   OH219157   4.546   4.145   3.347 -0.2787  0.0908  0.2136
 6384TIP3    H119158   4.595   4.176   3.423 -1.8361 -1.5351  1.9732
 6384TIP3    H219159   4.574   4.055   3.335  0.9605  0.7027 -2.0935
 6385TIP3   OH219160   0.202   1.399   3.438  0.0809  0.3425  0.2904
 6385TIP3    H119161   0.274   1.415   3.377  1.7286  0.1856  2.0965
 6385TIP3    H219162   0.170   1.311   3.416 -0.0308  0.6694 -0.9424
 6386TIP3   OH219163   4.395   1.440   2.980 -0.2684 -0.7086  0.2198
 6386TIP3    H119164   4.348   1.402   2.907  0.1392  0.1277 -0.4974
 6386TIP3    H219165   4.337   1.508   3.014  0.4244  0.3900 -0.7268
 6387TIP3   OH219166   6.065   0.531   1.817 -0.0550 -0.1644  0.5654
 6387TIP3    H119167   6.120   0.601   1.851  1.0177 -0.9906  0.5739
 6387TIP3    H219168   6.118   0.489   1.750  0.1601 -2.2294  1.9236
 6388TIP3   OH219169   2.014   5.540   0.061  0.0254  0.2306 -0.1457
 6388TIP3    H119170   2.023   5.575   0.149 -0.3067 -1.0040  0.4087
 6388TIP3    H219171   2.008   5.617   0.004  3.1017  1.1221  0.5611
 6389TIP3   OH219172   1.603   5.360   0.170  0.1020  0.5392 -0.4336
 6389TIP3    H119173   1.662   5.431   0.192  0.0499  0.9559 -1.5613
 6389TIP3    H219174   1.545   5.352   0.246  1.9501 -0.2954  0.9641
 6390TIP3   OH219175   5.577   0.676   0.125  0.0745 -0.3298 -0.4231
 6390TIP3    H119176   5.542   0.589   0.102  0.0078 -0.3460 -0.2609
 6390TIP3    H219177   5.540   0.734   0.059  0.9648 -0.5895 -1.1801
 6391TIP3   OH219178   1.804   1.916   1.412  0.1956 -0.3914 -0.0327
 6391TIP3    H119179   1.756   1.944   1.334  1.4313 -1.6766 -1.3202
 6391TIP3    H219180   1.759   1.837   1.441 -1.3418  1.0184  1.6937
 6392TIP3   OH219181   4.927   0.192   3.821 -0.0639 -0.4989  0.3806
 6392TIP3    H119182   4.875   0.112   3.832  1.4566 -1.4522  1.0221
 6392TIP3    H219183   4.969   0.204   3.906  1.5146 -0.3294 -0.3877
 6393TIP3   OH219184   3.313   0.159   4.317 -0.1296  0.4237 -0.7291
 6393TIP3    H119185   3.323   0.232   4.378  1.0913 -0.1226 -0.2257
 6393TIP3    H219186   3.293   0.200   4.233 -0.7654  1.2482 -0.1843
 6394TIP3   OH219187   1.606   0.095   4.028  0.1391 -0.0098  0.5673
 6394TIP3    H119188   1.614   0.038   4.105 -1.7737  1.5979  2.0686
 6394TIP3    H219189   1.514   0.087   4.002  0.1995  1.2719 -0.0968
 6395TIP3   OH219190   3.896   4.640   5.119  0.2131  0.0044 -0.1767
 6395TIP3    H119191   3.939   4.555   5.126 -0.5110 -0.3333  0.2299
 6395TIP3    H219192   3.961   4.702   5.153  1.4696 -0.1172 -2.1485
 6396TIP3   OH219193   4.272   3.785   4.037  0.3835  0.4246 -0.1194
 6396TIP3    H119194   4.186   3.799   4.077  0.9910  0.6132  1.1685
 6396TIP3    H219195   4.301   3.700   4.071  1.5569  1.2667  1.1084
 6397TIP3   OH219196   3.270   4.373   3.757  0.1360 -0.3345 -0.2034
 6397TIP3    H119197   3.220   4.296   3.730 -1.5445  0.5236  0.3411
 6397TIP3    H219198   3.299   4.412   3.674  0.1823 -0.9960 -0.5139
 6398TIP3   OH219199   0.238   5.223   0.829 -0.2663  0.2009  0.6426
 6398TIP3    H119200   0.260   5.207   0.921 -0.6052 -0.9397  0.5498
 6398TIP3    H219201   0.242   5.136   0.789 -1.3515  0.4926 -0.1448
 6399TIP3   OH219202   3.180   3.605   0.899 -0.2882  0.3018 -0.0055
 6399TIP3    H119203   3.189   3.516   0.865 -0.3359 -0.4742  1.8897
 6399TIP3    H219204   3.110   3.599   0.964  0.3986  1.4942  0.8821
 6400TIP3   OH219205   2.446   1.947   4.923  0.0113  0.3987  1.0628
 6400TIP3    H119206   2.422   1.876   4.863  0.2524  0.9070  0.3378
 6400TIP3    H219207   2.541   1.953   4.916  0.3924 -1.4062  3.6847
 6401TIP3   OH219208   2.367   1.996   3.962  0.1820 -0.0665 -0.0027
 6401TIP3    H119209   2.416   1.952   3.892 -1.9860 -0.9289 -1.0774
 6401TIP3    H219210   2.393   1.951   4.042  0.1326 -1.4166 -0.7230
 6402TIP3   OH219211   3.623   5.379   1.924  0.8697  1.1259  0.3473
 6402TIP3    H119212   3.631   5.316   1.997  0.8741  1.7488  0.8951
 6402TIP3    H219213   3.599   5.461   1.967  0.0964  1.3194 -0.4459
 6403TIP3   OH219214   0.082   1.227   4.092  0.4762 -0.0420 -0.2554
 6403TIP3    H119215   0.097   1.246   4.185 -2.4070  0.7325  0.1330
 6403TIP3    H219216   0.154   1.168   4.068  2.1671  0.9250  2.0356
 6404TIP3   OH219217   5.728   4.385   3.342 -0.2390 -0.3452  0.3416
 6404TIP3    H119218   5.684   4.326   3.281 -1.8650  0.0579  1.0568
 6404TIP3    H219219   5.670   4.460   3.348  0.3928  0.0644  1.6031
 6405TIP3   OH219220   0.212   0.579   0.926  0.2677 -0.4950  0.3506
 6405TIP3    H119221   0.122   0.608   0.915  1.0670  1.2388 -2.8886
 6405TIP3    H219222   0.230   0.590   1.019 -2.1134  1.4848  0.6645
 6406TIP3   OH219223   2.989   5.186   2.507  0.2105  0.2259 -0.0180
 6406TIP3    H119224   3.069   5.142   2.533  0.5339  1.9557  2.2317
 6406TIP3    H219225   3.016   5.275   2.484 -0.9004  0.4568 -0.5192
 6407TIP3   OH219226   3.308   1.592   4.095  0.6739  0.0776 -0.4310
 6407TIP3    H119227   3.232   1.555   4.049  1.1066 -1.1230 -0.1868
 6407TIP3    H219228   3.270   1.633   4.174  0.1602  0.4832 -0.8757
 6408TIP3   OH219229   1.030   1.389   1.970  0.1951 -0.4295 -0.0840
 6408TIP3    H119230   1.058   1.340   2.048  0.4696 -2.5412 -1.4269
 6408TIP3    H219231   1.069   1.342   1.897 -2.9289 -0.6600 -1.7693
 6409TIP3   OH219232   4.148   4.354   4.554 -0.2788 -0.0337 -0.1212
 6409TIP3    H119233   4.160   4.444   4.524 -0.1262  0.2482  0.7571
 6409TIP3    H219234   4.168   4.300   4.477 -1.0283  0.6967 -0.8506
 6410TIP3   OH219235   1.834   3.560   4.674 -0.8852  0.2717  0.4089
 6410TIP3    H119236   1.847   3.652   4.698  0.6951 -0.2163  1.6417
 6410TIP3    H219237   1.848   3.513   4.756  1.3971 -1.2653 -0.7740
 6411TIP3   OH219238   3.174   2.734   4.807 -0.1412  0.4772 -0.1165
 6411TIP3    H119239   3.253   2.789   4.811  1.7934 -1.7602 -3.1115
 6411TIP3    H219240   3.207   2.644   4.808 -2.8720 -0.6238  0.7074
 6412TIP3   OH219241   5.947   0.095   4.156 -0.2892  0.3288  0.0138
 6412TIP3    H119242   5.915   0.107   4.245  1.1538 -1.3731  0.8226
 6412TIP3    H219243   6.027   0.147   4.152 -0.4982  0.6294 -0.4033
 6413TIP3   OH219244   2.090   3.058   1.472 -0.3878  0.4372  0.2375
 6413TIP3    H119245   2.132   3.087   1.391 -1.3568  0.8378 -0.1391
 6413TIP3    H219246   2.162   3.048   1.534  0.4227 -0.3029 -0.7878
 6414TIP3   OH219247   4.422   2.525   0.963  0.3922  0.2944 -0.1069
 6414TIP3    H119248   4.455   2.438   0.941  0.9250  0.2880  0.6639
 6414TIP3    H219249   4.354   2.543   0.898 -0.5792 -1.1951  0.4486
 6415TIP3   OH219250   3.316   5.459   1.277 -0.1019 -0.0570 -0.1793
 6415TIP3    H119251   3.407   5.465   1.247  0.3829 -1.5231  0.8470
 6415TIP3    H219252   3.264   5.489   1.203  1.2216  1.1247 -0.6748
 6416TIP3   OH219253   0.099   0.770   2.563  0.4242  0.2335  0.4959
 6416TIP3    H119254   0.110   0.676   2.571  0.9497  0.3863  1.9134
 6416TIP3    H219255   0.006   0.782   2.544  0.0436 -0.5266  1.7738
 6417TIP3   OH219256   5.414   0.816   3.225  0.4402  0.3977  0.4722
 6417TIP3    H119257   5.373   0.857   3.301 -0.5761  1.3311 -0.5297
 6417TIP3    H219258   5.346   0.760   3.188  1.9802 -2.8504  2.1477
 6418TIP3   OH219259   3.376   5.092   0.232  0.8203 -0.0127 -0.7654
 6418TIP3    H119260   3.291   5.069   0.270  1.6185 -0.4545  0.8782
 6418TIP3    H219261   3.358   5.107   0.139 -0.8137 -1.4307 -0.7349
 6419TIP3   OH219262   4.961   0.986   4.703 -0.3209 -0.1584 -0.2116
 6419TIP3    H119263   4.932   0.965   4.792  0.5228  2.0293  0.6525
 6419TIP3    H219264   4.883   0.970   4.649 -0.9687 -1.1632  0.9531
 6420TIP3   OH219265   4.097   1.255   1.498  0.0228 -0.2982 -0.3219
 6420TIP3    H119266   4.058   1.172   1.470  0.4598 -0.7625  0.4262
 6420TIP3    H219267   4.155   1.232   1.569 -0.0534  0.6923  0.0810
 6421TIP3   OH219268   1.292   0.936   2.188 -0.0917 -0.2433 -0.2557
 6421TIP3    H119269   1.382   0.965   2.178  0.1538  0.0001  2.0740
 6421TIP3    H219270   1.298   0.848   2.224 -0.6698  0.7285  2.4281
 6422TIP3   OH219271   2.349   4.602   4.842 -0.5807 -0.3120 -0.4608
 6422TIP3    H119272   2.320   4.693   4.846 -1.2313 -0.5307 -0.1936
 6422TIP3    H219273   2.428   4.605   4.788  0.4716  0.6780  1.0706
 6423TIP3   OH219274   5.521   1.118   0.106  0.0271 -0.2501  0.6921
 6423TIP3    H119275   5.476   1.148   0.185  0.8453 -2.0201  1.9157
 6423TIP3    H219276   5.597   1.069   0.139  1.3425  0.3642 -1.2486
 6424TIP3   OH219277   5.924   3.955   4.075 -0.1358  0.1910  0.2743
 6424TIP3    H119278   5.935   3.873   4.124  1.4581  0.9938  1.3385
 6424TIP3    H219279   5.927   4.024   4.141 -5.3908  1.1335 -0.0242
 6425TIP3   OH219280   3.140   1.328   0.473  0.4471  0.7022 -0.2827
 6425TIP3    H119281   3.134   1.331   0.378 -2.2567  0.6261 -0.2019
 6425TIP3    H219282   3.065   1.274   0.500  1.8953 -0.3998  1.8442
 6426TIP3   OH219283   3.421   4.683   4.254  0.9150  0.2036  0.0717
 6426TIP3    H119284   3.345   4.632   4.283  0.6372  2.0945  3.1931
 6426TIP3    H219285   3.495   4.645   4.301  1.9045 -1.2101 -2.4505
 6427TIP3   OH219286   4.370   4.901   2.322  0.1093 -0.1893 -0.2650
 6427TIP3    H119287   4.288   4.862   2.291  1.1314 -1.6417 -1.2909
 6427TIP3    H219288   4.389   4.856   2.404 -0.7442  1.0832  0.6737
 6428TIP3   OH219289   2.015   0.586   0.611 -0.1884  0.2923  0.0730
 6428TIP3    H119290   1.940   0.579   0.670 -1.1669  0.4724 -1.1074
 6428TIP3    H219291   2.088   0.549   0.660 -1.2889 -0.9665  0.8267
 6429TIP3   OH219292   3.404   5.599   2.818 -0.4579  0.1682  0.1167
 6429TIP3    H119293   3.342   5.633   2.883  0.3416  1.2893  0.3188
 6429TIP3    H219294   3.379   5.643   2.737 -2.2951 -2.1971 -0.7191
 6430TIP3   OH219295   3.594   3.644   0.940  0.2372 -0.0181  0.3222
 6430TIP3    H119296   3.689   3.645   0.955  0.2338 -0.6157  0.4037
 6430TIP3    H219297   3.560   3.713   0.996  0.4817 -0.6993  1.3269
 6431TIP3   OH219298   2.027   3.625   2.571  0.1693 -0.6132  0.4264
 6431TIP3    H119299   1.959   3.658   2.628 -0.0379 -0.9119  0.3526
 6431TIP3    H219300   2.039   3.534   2.598  0.7491 -0.4786  0.6408
 6432TIP3   OH219301   0.543   2.365   3.319  0.3865  0.1148 -0.0666
 6432TIP3    H119302   0.637   2.373   3.301  0.3594 -0.7364 -0.6878
 6432TIP3    H219303   0.537   2.296   3.385  0.2983  1.3436  1.2350
 6433TIP3   OH219304   2.373   2.350   1.021  0.6889 -0.3580  0.2998
 6433TIP3    H119305   2.408   2.337   0.933 -1.5315  1.7961 -1.0388
 6433TIP3    H219306   2.329   2.268   1.042  0.3885 -0.5707 -1.0637
 6434TIP3   OH219307   2.567   1.753   2.770 -0.3421 -0.1677 -0.2398
 6434TIP3    H119308   2.476   1.738   2.793 -0.7187  0.1631 -1.4425
 6434TIP3    H219309   2.609   1.668   2.779 -0.9682 -0.5103 -0.5056
 6435TIP3   OH219310   4.372   0.901   1.647 -0.0489 -0.0196  0.5529
 6435TIP3    H119311   4.405   0.938   1.729  0.3035 -0.4627  0.6177
 6435TIP3    H219312   4.449   0.898   1.590 -0.3136  0.3740  0.1727
 6436TIP3   OH219313   6.229   3.008   1.002  0.2383  0.4805  0.0342
 6436TIP3    H119314   6.265   2.956   1.074  1.3286  0.1730 -0.7104
 6436TIP3    H219315   6.260   3.097   1.019 -0.0693  0.5409  0.2978
 6437TIP3   OH219316   3.164   3.649   1.251  0.2555 -0.0094  0.1239
 6437TIP3    H119317   3.081   3.661   1.204 -0.6965  1.7557  2.0997
 6437TIP3    H219318   3.168   3.554   1.267  0.8310 -0.7985 -3.6573
 6438TIP3   OH219319   1.355   3.656   1.233 -1.0020 -0.2619 -0.2023
 6438TIP3    H119320   1.270   3.700   1.233 -0.8683  0.0102 -0.7323
 6438TIP3    H219321   1.362   3.618   1.145 -0.5609 -0.2401 -0.1809
 6439TIP3   OH219322   2.709   1.436   0.839  0.5399  0.0190 -0.0913
 6439TIP3    H119323   2.702   1.370   0.907 -0.9715 -1.2192 -1.3534
 6439TIP3    H219324   2.794   1.419   0.798  0.0358 -1.4163 -0.6111
 6440TIP3   OH219325   0.571   5.392   4.751  0.6113  0.0418 -0.1563
 6440TIP3    H119326   0.581   5.314   4.807 -1.8105  0.0516  0.4191
 6440TIP3    H219327   0.601   5.464   4.806  0.2463 -0.1854  0.3505
 6441TIP3   OH219328   2.494   0.014   5.042 -0.3312 -0.5190  0.0997
 6441TIP3    H119329   2.429   0.080   5.017  0.3978  0.3782  0.4994
 6441TIP3    H219330   2.456  -0.030   5.117 -0.4927 -0.0031  0.3277
 6442TIP3   OH219331   1.928   4.523   3.768  0.2022  0.2736  0.2413
 6442TIP3    H119332   1.928   4.568   3.853  2.5845 -1.3200  1.1737
 6442TIP3    H219333   2.009   4.551   3.726 -0.6598  0.5717 -1.3230
 6443TIP3   OH219334   4.156   3.048   1.429  0.3955 -0.7467 -0.1354
 6443TIP3    H119335   4.155   3.137   1.394  1.4991  0.5580  2.7994
 6443TIP3    H219336   4.064   3.022   1.431 -0.1393  1.0409  0.4854
 6444TIP3   OH219337   4.925   2.574   1.774 -0.3880 -0.5037  0.3107
 6444TIP3    H119338   4.893   2.645   1.718 -0.7078 -0.8345  0.0751
 6444TIP3    H219339   4.930   2.613   1.861 -0.7507 -0.2440  0.2181
 6445TIP3   OH219340   3.129   5.542   3.208  0.6614  0.1164  0.0154
 6445TIP3    H119341   3.134   5.630   3.171 -0.1996  0.1772  0.0286
 6445TIP3    H219342   3.042   5.538   3.249  0.9308 -0.5342  0.5346
 6446TIP3   OH219343   3.704   1.564   4.194  0.6848  0.0625 -0.1429
 6446TIP3    H119344   3.769   1.539   4.259  0.4690  1.8310  0.7940
 6446TIP3    H219345   3.730   1.652   4.167 -0.4357  0.1709 -0.9098
 6447TIP3   OH219346   3.994   2.227   2.619  0.3576 -0.2714 -0.0554
 6447TIP3    H119347   4.089   2.229   2.607  0.5935  1.3851  1.5975
 6447TIP3    H219348   3.967   2.319   2.612 -1.0457 -0.6629 -0.0416
 6448TIP3   OH219349   2.003   4.717   0.113  0.1194 -0.0976 -0.9120
 6448TIP3    H119350   2.058   4.662   0.058  0.2222 -1.0528  0.1124
 6448TIP3    H219351   1.951   4.655   0.165 -0.8544  0.7808 -0.8054
 6449TIP3   OH219352   5.115   4.218   4.772 -0.2444 -0.2332  0.4462
 6449TIP3    H119353   5.084   4.214   4.682 -0.3610  1.4121  0.3820
 6449TIP3    H219354   5.069   4.147   4.816 -1.6547  0.1224 -0.3780
 6450TIP3   OH219355   2.235   1.500   3.497  0.5071 -0.0833 -0.3787
 6450TIP3    H119356   2.243   1.408   3.523 -0.1023 -0.4310 -1.3544
 6450TIP3    H219357   2.234   1.548   3.580  2.2283 -0.8178  0.1122
 6451TIP3   OH219358   0.762   2.071   4.094 -0.9388 -0.4407  0.1410
 6451TIP3    H119359   0.689   2.067   4.033 -0.3785  1.8891 -0.8130
 6451TIP3    H219360   0.736   2.137   4.158 -0.5524 -1.1747  1.0714
 6452TIP3   OH219361   1.030   3.998   3.753 -0.3503 -0.2224 -1.0904
 6452TIP3    H119362   1.088   4.070   3.731 -1.5426  1.2592  0.3635
 6452TIP3    H219363   1.028   3.997   3.849 -0.8844 -1.7763 -1.0835
 6453TIP3   OH219364   0.035   1.980   3.932 -0.0460  0.5474  0.0531
 6453TIP3    H119365  -0.013   1.898   3.940  0.4140  0.1907 -0.6886
 6453TIP3    H219366   0.120   1.962   3.973  0.4036  0.3436 -0.9424
 6454TIP3   OH219367   1.548   1.902   0.771 -0.4877 -0.1289 -0.2445
 6454TIP3    H119368   1.528   1.815   0.804  1.4744 -0.4333  0.2863
 6454TIP3    H219369   1.576   1.951   0.848  0.8789  0.1791 -0.9068
 6455TIP3   OH219370   2.979   1.628   5.144 -0.0747  0.3371 -0.5220
 6455TIP3    H119371   3.018   1.555   5.096  1.2286  1.5263 -1.3285
 6455TIP3    H219372   2.909   1.659   5.086 -0.2199  0.1413 -0.4559
 6456TIP3   OH219373   4.598   2.704   2.658 -0.3011 -0.1158 -0.3640
 6456TIP3    H119374   4.689   2.681   2.678 -1.0276 -2.0592  1.0762
 6456TIP3    H219375   4.580   2.660   2.575 -0.4759 -1.4625  0.3588
 6457TIP3   OH219376   2.802   4.495   2.449  0.0497  0.2612 -0.2394
 6457TIP3    H119377   2.729   4.439   2.475  1.0746 -0.8188  0.4216
 6457TIP3    H219378   2.832   4.534   2.531 -1.1504  2.4878 -0.7771
 6458TIP3   OH219379   3.790   2.161   1.133 -0.1253 -0.2649  0.1257
 6458TIP3    H119380   3.781   2.141   1.226 -0.9119 -0.2475  0.0616
 6458TIP3    H219381   3.816   2.254   1.131 -0.9297 -0.0256  0.3161
 6459TIP3   OH219382   3.602   4.962   0.183 -0.0052 -0.4034  0.5781
 6459TIP3    H119383   3.651   5.039   0.154  0.0348 -1.2654 -1.9083
 6459TIP3    H219384   3.512   4.993   0.196 -0.0203  0.0713 -0.5507
 6460TIP3   OH219385   5.041   1.044   1.595  0.4200 -0.1044 -0.4572
 6460TIP3    H119386   5.126   1.005   1.616  0.2885 -0.1499  0.0016
 6460TIP3    H219387   4.997   1.052   1.679  0.1509  0.3486 -0.6391
 6461TIP3   OH219388   2.235   0.195   1.394 -0.0424 -0.7183  0.0380
 6461TIP3    H119389   2.278   0.117   1.430 -0.0203 -1.2510 -1.1127
 6461TIP3    H219390   2.252   0.191   1.300  0.0617  0.7461 -0.0324
 6462TIP3   OH219391   0.525   5.093   2.690 -0.0266 -0.1750  0.5303
 6462TIP3    H119392   0.489   5.082   2.778  0.1521  0.8767  0.7468
 6462TIP3    H219393   0.546   5.186   2.684  1.1418 -0.4576 -0.1733
 6463TIP3   OH219394   1.852   0.567   2.978  0.1030 -0.9949  0.1292
 6463TIP3    H119395   1.922   0.625   2.950 -0.0211 -0.6795  0.4601
 6463TIP3    H219396   1.859   0.566   3.073 -2.2305  1.5129  0.4474
 6464TIP3   OH219397   5.826   4.285   2.034  0.2030  0.1520  0.2989
 6464TIP3    H119398   5.867   4.199   2.027  0.8895  0.1343  3.1100
 6464TIP3    H219399   5.748   4.270   2.088  1.1081  1.4575  2.0544
 6465TIP3   OH219400   3.972   2.489   0.028 -0.7877  0.1793  0.0494
 6465TIP3    H119401   3.972   2.505   0.122 -0.5362 -0.7342  0.2157
 6465TIP3    H219402   4.039   2.422   0.015  1.1283  2.1853 -1.1439
 6466TIP3   OH219403   5.310   2.947   3.402  0.2017  0.6663 -0.2033
 6466TIP3    H119404   5.302   2.852   3.409  0.7524  0.6029 -0.3930
 6466TIP3    H219405   5.283   2.967   3.313 -0.3430  0.7452 -0.0305
 6467TIP3   OH219406   5.661   0.337   0.756 -0.5489 -0.1863  0.0613
 6467TIP3    H119407   5.697   0.305   0.674 -1.7420 -0.5705 -0.3353
 6467TIP3    H219408   5.738   0.357   0.810  0.3266  1.8313 -1.7696
 6468TIP3   OH219409   1.360   5.603   2.992 -0.7709 -0.0679 -0.0383
 6468TIP3    H119410   1.435   5.651   3.030 -1.8687  1.3883  0.3657
 6468TIP3    H219411   1.388   5.512   2.995  0.5599  0.3221  1.1548
 6469TIP3   OH219412   1.902   2.084   1.219 -0.2579  0.1639  0.0216
 6469TIP3    H119413   1.937   2.174   1.216 -0.9334  0.4473  0.3628
 6469TIP3    H219414   1.882   2.070   1.312  0.2329 -0.5019  0.0336
 6470TIP3   OH219415   4.624   3.276   0.460 -0.1356  0.1306 -0.1761
 6470TIP3    H119416   4.652   3.231   0.381  1.4860 -1.6010  1.3221
 6470TIP3    H219417   4.677   3.239   0.530 -1.2514  1.8668  1.7033
 6471TIP3   OH219418   4.516   0.256   0.157 -0.1105 -0.0034  0.0504
 6471TIP3    H119419   4.582   0.293   0.098 -0.2682  0.7660  0.3502
 6471TIP3    H219420   4.537   0.293   0.243 -0.5852 -0.2098  0.2587
 6472TIP3   OH219421   1.827   3.556   0.234  0.5331  0.0793 -0.0882
 6472TIP3    H119422   1.770   3.537   0.308  2.6469 -1.7678  1.1946
 6472TIP3    H219423   1.878   3.632   0.261  0.7722 -0.1319  0.0664
 6473TIP3   OH219424   4.931   2.206   2.041  0.1819 -0.0800  0.1046
 6473TIP3    H119425   4.972   2.176   1.960  1.0606  0.5609  0.2942
 6473TIP3    H219426   4.878   2.282   2.014 -0.2464 -0.4141 -0.0079
 6474TIP3   OH219427   4.614   5.068   3.774  0.1399 -0.9985  0.5811
 6474TIP3    H119428   4.518   5.075   3.778  0.1267 -0.2525 -0.5265
 6474TIP3    H219429   4.634   5.070   3.681  1.1848 -2.2225  0.7540
 6475TIP3   OH219430   3.463   1.924   1.281 -0.8076 -0.2189  0.1470
 6475TIP3    H119431   3.412   1.926   1.362 -0.0738 -1.1021  0.6548
 6475TIP3    H219432   3.400   1.942   1.212 -0.9822  3.7650  1.0986
 6476TIP3   OH219433   4.015   0.986   5.053  0.5600 -0.4297 -0.0499
 6476TIP3    H119434   4.105   0.952   5.043  1.6741  2.5982 -1.5057
 6476TIP3    H219435   3.982   0.991   4.963 -0.4161  0.1124  0.3319
 6477TIP3   OH219436   0.739   5.699   2.710 -0.0031  0.1186  0.0578
 6477TIP3    H119437   0.683   5.646   2.652 -1.1868 -0.3468  1.5524
 6477TIP3    H219438   0.686   5.711   2.789  0.8069  2.3569  0.3202
 6478TIP3   OH219439   6.203   1.755   0.499  0.3880 -0.3883 -0.2867
 6478TIP3    H119440   6.220   1.745   0.593 -1.1511 -1.1623 -0.0510
 6478TIP3    H219441   6.230   1.845   0.479 -1.2841  0.5554  1.4024
 6479TIP3   OH219442   4.453   2.007   4.417  0.2587  0.4246  0.1070
 6479TIP3    H119443   4.530   2.061   4.430  0.5306 -0.2471  1.4729
 6479TIP3    H219444   4.485   1.917   4.426 -0.9129  0.1510  2.3561
 6480TIP3   OH219445   1.887   4.827   1.701 -0.0728  0.1847  0.4478
 6480TIP3    H119446   1.845   4.848   1.785 -1.0635  3.3768 -0.6826
 6480TIP3    H219447   1.814   4.818   1.640  0.6882  2.0155 -0.8132
 6481TIP3   OH219448   3.520   4.026   0.956  0.0773 -0.5718 -0.4495
 6481TIP3    H119449   3.613   4.032   0.933  0.1669  0.7709  0.2170
 6481TIP3    H219450   3.515   3.951   1.016  1.0687  0.5558  1.0961
 6482TIP3   OH219451   1.376   1.453   1.388 -0.1250  0.1435  0.1040
 6482TIP3    H119452   1.458   1.491   1.354 -2.0871  3.6438 -1.2604
 6482TIP3    H219453   1.359   1.503   1.468 -1.9792  1.1119 -0.8408
 6483TIP3   OH219454   4.472   5.179   0.238  0.2724  0.2033  0.3094
 6483TIP3    H119455   4.476   5.226   0.321 -0.9132 -0.3786  0.7257
 6483TIP3    H219456   4.433   5.094   0.261  0.1079 -0.0365 -0.8076
 6484TIP3   OH219457   2.881   3.466   2.085  0.0231  0.3269 -0.1577
 6484TIP3    H119458   2.813   3.532   2.076  1.0329  1.2449 -1.3468
 6484TIP3    H219459   2.910   3.449   1.996  1.5266  0.1460  0.3363
 6485TIP3   OH219460   2.965   3.418   3.331  0.0161 -0.2041 -0.1659
 6485TIP3    H119461   2.882   3.413   3.378  0.2121 -1.0352  0.1024
 6485TIP3    H219462   2.966   3.339   3.277 -0.1107  0.6219 -1.4254
 6486TIP3   OH219463   1.724   3.832   1.841  0.3632 -0.7649 -0.5375
 6486TIP3    H119464   1.746   3.923   1.823 -0.8417 -0.6786 -1.6918
 6486TIP3    H219465   1.695   3.797   1.756 -0.3843 -1.8738  0.1533
 6487TIP3   OH219466   1.891   4.804   0.688  0.0106 -0.2811  0.0425
 6487TIP3    H119467   1.896   4.861   0.765 -0.5691 -0.7754  0.4551
 6487TIP3    H219468   1.898   4.864   0.614 -1.2934  0.4360  0.4489
 6488TIP3   OH219469   4.058   1.464   0.604  0.2525 -0.6709 -0.0632
 6488TIP3    H119470   4.092   1.551   0.626 -0.6802 -0.1586 -0.6231
 6488TIP3    H219471   4.005   1.439   0.680 -1.4003  0.2780 -0.8576
 6489TIP3   OH219472   0.452   0.267   0.532 -0.1397  0.3069  0.2343
 6489TIP3    H119473   0.421   0.182   0.564 -0.8322  0.1992 -0.6858
 6489TIP3    H219474   0.547   0.258   0.527  0.0450  0.3999  2.4226
 6490TIP3   OH219475   2.331   0.818   5.119 -0.5360  0.1218 -0.5175
 6490TIP3    H119476   2.351   0.764   5.196 -0.3295 -0.3432 -0.8839
 6490TIP3    H219477   2.317   0.754   5.049  1.7580  0.5411 -1.4591
 6491TIP3   OH219478   6.242   5.268   1.979 -0.0543 -0.0134 -0.1581
 6491TIP3    H119479   6.333   5.276   1.951 -0.5056  2.8165 -1.1190
 6491TIP3    H219480   6.218   5.178   1.957  2.2664 -0.5976 -0.5713
 6492TIP3   OH219481   3.940   4.704   1.040 -0.3537  0.4351 -0.5964
 6492TIP3    H119482   3.970   4.620   1.005  0.0321  0.2138  0.2545
 6492TIP3    H219483   3.928   4.759   0.962  1.5748  0.3175 -1.0216
 6493TIP3   OH219484   2.508   1.294   0.420  0.2433 -0.3994 -0.3032
 6493TIP3    H119485   2.444   1.334   0.361  0.7910  0.4578 -0.3334
 6493TIP3    H219486   2.538   1.366   0.476  0.6356 -0.9416  0.1982
 6494TIP3   OH219487   2.959   5.909   0.345 -0.0185  0.1880 -0.3425
 6494TIP3    H119488   3.039   5.962   0.346  0.5132 -0.2828 -3.8442
 6494TIP3    H219489   2.890   5.971   0.318 -0.4549  0.1711  0.7074
 6495TIP3   OH219490   5.947   0.138   1.221  0.1186 -0.1910  0.1459
 6495TIP3    H119491   6.035   0.138   1.184  0.3245 -0.2797  0.6254
 6495TIP3    H219492   5.947   0.212   1.283 -0.2956  0.1078 -0.2016
 6496TIP3   OH219493   6.208   2.094   0.175  0.1124 -0.1739 -0.1273
 6496TIP3    H119494   6.244   2.149   0.244  0.6578  0.5336 -0.9632
 6496TIP3    H219495   6.281   2.039   0.146  0.2824  0.5348 -1.1056
 6497TIP3   OH219496   5.946   4.466   0.787 -0.7160 -0.7623  0.5483
 6497TIP3    H119497   6.033   4.481   0.822 -0.4927  0.5103 -0.4914
 6497TIP3    H219498   5.914   4.553   0.764 -1.8673 -1.3141 -0.0163
 6498TIP3   OH219499   2.584   5.302   0.603  0.3889 -0.6439 -0.3469
 6498TIP3    H119500   2.495   5.337   0.590  0.2194 -0.9856 -0.1227
 6498TIP3    H219501   2.629   5.320   0.520  0.5510  0.7986  0.0315
 6499TIP3   OH219502   5.840   1.729   4.101  0.2212 -0.4028 -0.4146
 6499TIP3    H119503   5.769   1.668   4.121  0.7076 -0.6118  0.7449
 6499TIP3    H219504   5.802   1.789   4.037 -0.8332 -0.8284 -0.2169
 6500TIP3   OH219505   2.739   2.378   5.053  0.1653 -0.0608 -0.6102
 6500TIP3    H119506   2.652   2.347   5.077 -0.0192  0.2483 -0.8682
 6500TIP3    H219507   2.764   2.438   5.123  0.5336 -0.7985 -0.0974
 6501TIP3   OH219508   5.305   3.242   4.897  0.5093  0.2287 -0.1588
 6501TIP3    H119509   5.255   3.245   4.815  0.8047  0.4657 -0.3308
 6501TIP3    H219510   5.364   3.317   4.892  0.6424  0.1503  0.2010
 6502TIP3   OH219511   3.067   1.669   0.765 -0.5326 -0.0328  0.3553
 6502TIP3    H119512   3.048   1.576   0.758  0.5009 -0.1520 -1.3193
 6502TIP3    H219513   2.995   1.704   0.817 -0.2560 -1.9559  2.1730
 6503TIP3   OH219514   3.726   5.013   3.606  0.5116  0.1294 -0.4911
 6503TIP3    H119515   3.637   5.044   3.588  0.6909  1.7656  1.1772
 6503TIP3    H219516   3.714   4.923   3.638 -0.4677  0.0810 -0.9515
 6504TIP3   OH219517   6.199   5.229   2.838 -0.4142  0.4346 -0.1120
 6504TIP3    H119518   6.270   5.284   2.805 -1.1627  1.4726 -0.0386
 6504TIP3    H219519   6.237   5.183   2.913 -0.2582  2.1943  0.9300
 6505TIP3   OH219520   4.180   2.604   1.977 -0.8573 -0.7178  0.2490
 6505TIP3    H119521   4.133   2.634   2.055  0.7743  0.8780  0.6971
 6505TIP3    H219522   4.269   2.585   2.008 -0.7365 -2.1461 -0.8459
 6506TIP3   OH219523   0.157   0.328   4.390 -0.7354  0.1492 -0.2928
 6506TIP3    H119524   0.076   0.318   4.339 -0.2573  1.6903 -1.4310
 6506TIP3    H219525   0.167   0.422   4.400  0.5644 -0.0483  0.4690
 6507TIP3   OH219526   4.406   5.463   1.568 -0.2749  0.0424 -0.7251
 6507TIP3    H119527   4.364   5.540   1.529 -2.3689 -0.5872  0.1690
 6507TIP3    H219528   4.490   5.496   1.599  0.1238  1.2781 -2.9060
 6508TIP3   OH219529   6.232   5.278   3.412  0.3200 -0.3673 -0.0025
 6508TIP3    H119530   6.188   5.362   3.400 -0.5881 -1.1401 -2.6628
 6508TIP3    H219531   6.266   5.282   3.502 -0.8342  2.2717  0.4174
 6509TIP3   OH219532   1.892   0.419   0.430 -0.3685 -0.8837  0.0250
 6509TIP3    H119533   1.963   0.430   0.367 -1.9070 -0.0860 -1.6597
 6509TIP3    H219534   1.884   0.504   0.473 -0.4406 -0.9132  0.0703
 6510TIP3   OH219535   1.126   3.022   1.150  0.1644 -0.0057  0.2484
 6510TIP3    H119536   1.151   3.109   1.121  0.2332 -0.2359 -0.4224
 6510TIP3    H219537   1.204   2.968   1.136 -0.3925 -0.5432 -1.0598
 6511TIP3   OH219538   1.008   0.172   2.399 -0.2532  0.3315 -0.6916
 6511TIP3    H119539   1.093   0.174   2.355  1.2177  0.0406  1.9052
 6511TIP3    H219540   1.030   0.171   2.492 -3.1430  1.7784  0.1222
 6512TIP3   OH219541   3.462   3.120   5.092  0.0592 -0.0120 -0.5539
 6512TIP3    H119542   3.397   3.055   5.065  0.9677 -1.1246 -0.1471
 6512TIP3    H219543   3.532   3.113   5.027 -0.0338  0.9180 -0.7790
 6513TIP3   OH219544   0.594   3.592   3.189 -0.2284  0.1765 -0.0042
 6513TIP3    H119545   0.646   3.562   3.263 -0.6495  0.5920  0.4654
 6513TIP3    H219546   0.564   3.512   3.146 -0.7752 -0.0726  0.8333
 6514TIP3   OH219547   4.795   0.991   4.244 -0.1405  0.2718  0.3320
 6514TIP3    H119548   4.807   0.897   4.237 -1.9414 -0.1934  2.2581
 6514TIP3    H219549   4.753   1.016   4.162  1.1559 -0.4131 -0.5683
 6515TIP3   OH219550   4.661   2.328   0.131  0.0755  0.2530  0.0340
 6515TIP3    H119551   4.682   2.376   0.051  2.2470  0.1938  0.5105
 6515TIP3    H219552   4.662   2.236   0.106 -0.8863  0.2874 -0.1867
 6516TIP3   OH219553   2.182   4.756   0.349  0.0639  0.4219  0.1038
 6516TIP3    H119554   2.233   4.813   0.290 -0.2722 -0.7304 -1.3664
 6516TIP3    H219555   2.103   4.735   0.299 -0.0260 -0.9652  0.7840
 6517TIP3   OH219556   4.660   0.800   4.579 -0.4824 -0.2423 -0.5098
 6517TIP3    H119557   4.730   0.735   4.581 -0.3192 -0.0868 -0.9859
 6517TIP3    H219558   4.585   0.754   4.542 -0.6811 -0.4553  0.1581
 6518TIP3   OH219559   5.939   5.354   4.379 -0.2010 -0.1435 -0.3134
 6518TIP3    H119560   6.027   5.372   4.344  0.3682 -0.6067  0.8090
 6518TIP3    H219561   5.891   5.318   4.305  0.7652 -0.4834 -0.8006
 6519TIP3   OH219562   2.308   4.403   2.972  0.0268  0.0090  0.1272
 6519TIP3    H119563   2.332   4.392   3.064  1.0681 -1.3594 -0.2912
 6519TIP3    H219564   2.249   4.330   2.954 -1.8808  1.4423  0.2318
 6520TIP3   OH219565   3.768   1.912   3.853 -0.1353 -0.1369  0.2257
 6520TIP3    H119566   3.803   1.896   3.766  0.2429  0.1775  0.3131
 6520TIP3    H219567   3.674   1.922   3.840  0.1470  2.2975 -0.5313
 6521TIP3   OH219568   3.307   3.335   4.829 -0.2025  0.6175 -0.0859
 6521TIP3    H119569   3.388   3.381   4.851 -0.8118  1.1965  1.0400
 6521TIP3    H219570   3.334   3.265   4.770  1.2960  0.0429  1.2163
 6522TIP3   OH219571   4.758   0.482   2.971 -0.0069 -0.4205 -0.1885
 6522TIP3    H119572   4.668   0.454   2.959  0.9280 -4.0630  0.0081
 6522TIP3    H219573   4.798   0.473   2.885  0.3898  0.2890 -0.0870
 6523TIP3   OH219574   3.632   1.304   2.062 -0.0751 -0.2185  0.2629
 6523TIP3    H119575   3.717   1.266   2.040  0.3418  0.3852  0.7743
 6523TIP3    H219576   3.591   1.240   2.120  0.6979  0.1798  1.2658
 6524TIP3   OH219577   4.035   0.338   1.371  0.2445 -0.2595  0.1127
 6524TIP3    H119578   3.973   0.269   1.394 -1.4126  0.9569 -0.5060
 6524TIP3    H219579   4.009   0.413   1.424 -0.6586  1.1284 -2.1574
 6525TIP3   OH219580   1.336   5.867   1.842  0.2223  0.2735 -0.0839
 6525TIP3    H119581   1.379   5.892   1.759  1.6991 -0.1091  0.5367
 6525TIP3    H219582   1.244   5.855   1.818  0.5236  0.6532 -1.5703
 6526TIP3   OH219583   1.668   2.625   0.843 -0.4467  0.0747  0.4693
 6526TIP3    H119584   1.580   2.660   0.861 -0.5072 -0.1071  0.5279
 6526TIP3    H219585   1.704   2.684   0.777 -0.6242  0.1359  0.4267
 6527TIP3   OH219586   5.918   0.908   4.593  0.6519 -0.2142 -0.4374
 6527TIP3    H119587   5.827   0.913   4.566  1.0432  0.7950 -1.6244
 6527TIP3    H219588   5.925   0.822   4.637 -0.5029 -0.9566 -1.6349
 6528TIP3   OH219589   2.573   4.080   4.381  0.2779  0.0390  0.1472
 6528TIP3    H119590   2.568   4.065   4.476 -2.2524 -1.7471 -0.1574
 6528TIP3    H219591   2.529   4.164   4.368  1.8533  0.9740  0.6321
 6529TIP3   OH219592   4.965   3.962   3.916 -0.6897 -0.0984  0.0772
 6529TIP3    H119593   4.877   3.928   3.904 -0.8649  0.3646  0.0133
 6529TIP3    H219594   5.011   3.895   3.966 -0.9908 -0.4709 -0.1406
 6530TIP3   OH219595   1.271   3.273   4.875 -0.3322 -0.1571 -0.2657
 6530TIP3    H119596   1.357   3.252   4.840 -0.4424 -0.9058 -0.1182
 6530TIP3    H219597   1.281   3.266   4.970 -0.4034  0.3649 -0.2183
 6531TIP3   OH219598   5.038   2.172   5.124 -0.2464 -0.5561  0.1092
 6531TIP3    H119599   4.951   2.132   5.120  0.4984 -2.1243 -1.6640
 6531TIP3    H219600   5.055   2.200   5.034  0.6836  0.7008  0.6494
 6532TIP3   OH219601   1.611   3.656   1.655  0.3543  0.1207 -0.2126
 6532TIP3    H119602   1.702   3.631   1.672  0.1188 -0.8707 -0.3163
 6532TIP3    H219603   1.560   3.594   1.707 -0.2554  1.7333  1.1696
 6533TIP3   OH219604   3.059   2.009   2.430  0.1324  0.2660 -0.0322
 6533TIP3    H119605   2.981   2.062   2.419  0.4854  1.4171  2.4300
 6533TIP3    H219606   3.034   1.942   2.495  0.1390 -1.7561 -1.9813
 6534TIP3   OH219607   5.481   4.835   3.731  0.0778 -0.1004  0.0887
 6534TIP3    H119608   5.483   4.740   3.726 -1.0336 -0.1147 -0.1835
 6534TIP3    H219609   5.522   4.865   3.650 -1.6012 -0.3614 -0.8949
 6535TIP3   OH219610   0.431   1.879   2.195  0.3490 -0.6670  0.0150
 6535TIP3    H119611   0.411   1.798   2.147 -2.6600  1.3572 -2.4919
 6535TIP3    H219612   0.350   1.900   2.241  0.9666  1.0667  0.3806
 6536TIP3   OH219613   3.940   5.452   1.519  0.4787  0.0460  0.2073
 6536TIP3    H119614   3.979   5.485   1.600  0.3520  1.6435 -0.3521
 6536TIP3    H219615   4.011   5.402   1.477  1.3149  1.2188  0.1733
 6537TIP3   OH219616   4.685   1.794   0.327  0.1035 -0.3081 -0.2151
 6537TIP3    H119617   4.688   1.885   0.300  1.3762 -0.2552  0.0216
 6537TIP3    H219618   4.715   1.745   0.251  0.7114 -0.4138  0.0889
 6538TIP3   OH219619   1.257   1.530   2.671  0.2277  1.0800 -0.0079
 6538TIP3    H119620   1.272   1.575   2.754 -1.1633 -0.8976  1.4171
 6538TIP3    H219621   1.283   1.439   2.688  1.2302  0.8954 -2.1961
 6539TIP3   OH219622   0.451   4.932   3.808 -0.2292  0.2497  0.1403
 6539TIP3    H119623   0.418   5.007   3.759  1.6314  1.3279  0.4263
 6539TIP3    H219624   0.540   4.958   3.833 -0.2265 -1.2907  1.8916
 6540TIP3   OH219625   2.589   1.740   0.362  0.6536 -0.4202 -0.1654
 6540TIP3    H119626   2.640   1.751   0.442  0.7705  1.2520 -0.4480
 6540TIP3    H219627   2.631   1.797   0.297 -0.8344  0.0863 -0.7404
 6541TIP3   OH219628   5.653   1.706   0.027 -0.4466 -0.2321 -0.4060
 6541TIP3    H119629   5.566   1.745   0.017 -0.2827  0.2498 -0.0322
 6541TIP3    H219630   5.702   1.770   0.079 -0.1764 -0.9557  0.2553
 6542TIP3   OH219631   0.907   3.666   0.621  0.1741 -0.5419 -0.4074
 6542TIP3    H119632   0.884   3.740   0.678 -0.8006  0.3477 -1.8979
 6542TIP3    H219633   0.991   3.634   0.656 -0.3753 -0.0497  1.5066
 6543TIP3   OH219634   1.857   3.537   4.980 -0.9089  0.3987 -0.3034
 6543TIP3    H119635   1.848   3.586   5.062  2.5908  1.0055 -0.1293
 6543TIP3    H219636   1.794   3.465   4.987 -2.8093  2.1148  1.5321
 6544TIP3   OH219637   2.290   4.693   2.953  0.4399  0.2203  0.0814
 6544TIP3    H119638   2.307   4.713   2.860 -0.4589 -0.0533 -0.1503
 6544TIP3    H219639   2.292   4.598   2.958 -4.1108 -0.1582 -0.6755
 6545TIP3   OH219640   5.305   2.753   3.922  0.2182 -0.0818  0.1499
 6545TIP3    H119641   5.304   2.812   3.847 -0.4076 -0.7733 -0.4031
 6545TIP3    H219642   5.225   2.702   3.914  0.9908 -1.3688  0.3233
 6546TIP3   OH219643   4.811   3.793   1.117  0.0322  0.5503  0.5864
 6546TIP3    H119644   4.871   3.867   1.120  0.2087  0.6962 -2.8381
 6546TIP3    H219645   4.724   3.833   1.116  0.0321  0.5690  1.1053
 6547TIP3   OH219646   0.814   1.199   3.424 -0.0003 -0.1477  0.3396
 6547TIP3    H119647   0.774   1.253   3.356 -1.9216 -0.7865  0.8935
 6547TIP3    H219648   0.866   1.134   3.377 -0.7400 -0.1503 -0.4935
 6548TIP3   OH219649   4.354   2.861   1.392  0.5899  0.4607  0.5033
 6548TIP3    H119650   4.387   2.853   1.303 -0.8301 -0.0883  0.0081
 6548TIP3    H219651   4.275   2.914   1.384  0.2589  0.1199  1.3823
 6549TIP3   OH219652   0.067   3.231   1.685  0.1674  0.2037  0.2253
 6549TIP3    H119653   0.117   3.210   1.606 -0.5359 -0.5039 -0.0374
 6549TIP3    H219654   0.115   3.189   1.756 -0.5736 -1.3350 -0.1485
 6550TIP3   OH219655   2.045   2.403   1.015 -0.2949 -0.1221  0.0366
 6550TIP3    H119656   2.103   2.327   1.005 -1.4825 -1.3901  2.1302
 6550TIP3    H219657   1.991   2.401   0.936  0.3442 -0.8683 -0.4008
 6551TIP3   OH219658   1.527   0.821   2.348  0.0592  0.2188 -0.0163
 6551TIP3    H119659   1.501   0.911   2.365 -1.2064  0.2643 -1.8450
 6551TIP3    H219660   1.622   0.826   2.332  0.0669  1.1609  0.2774
 6552TIP3   OH219661   3.098   0.949   4.711  0.1834  0.4041 -0.4722
 6552TIP3    H119662   3.097   0.905   4.625 -0.1141 -0.4995 -0.0192
 6552TIP3    H219663   3.012   0.991   4.717  0.4884  1.1225 -0.9299
 6553TIP3   OH219664   5.158   0.560   2.263 -0.1173 -0.3687  0.0817
 6553TIP3    H119665   5.087   0.502   2.237 -1.0001  1.7541 -2.9028
 6553TIP3    H219666   5.142   0.580   2.355 -2.7141 -0.9090 -0.1878
 6554TIP3   OH219667   0.529   2.569   3.953 -0.1160  0.4958 -0.4331
 6554TIP3    H119668   0.519   2.484   3.995 -0.6972  0.2996 -0.9674
 6554TIP3    H219669   0.442   2.590   3.919  0.1433  1.0574 -0.7690
 6555TIP3   OH219670   2.730   2.266   1.701  0.0504  0.0635 -0.6324
 6555TIP3    H119671   2.750   2.311   1.620 -1.9509 -0.5167 -1.5273
 6555TIP3    H219672   2.636   2.281   1.714  0.1690 -0.5032  1.1645
 6556TIP3   OH219673   4.757   0.390   4.944 -0.1156  0.1822 -0.0157
 6556TIP3    H119674   4.747   0.319   5.008 -1.5446  2.7051  2.8041
 6556TIP3    H219675   4.824   0.447   4.982 -2.6176  2.9667  0.6337
 6557TIP3   OH219676   5.710   1.277   2.522  0.1375 -0.0283 -0.2960
 6557TIP3    H119677   5.753   1.291   2.438 -0.0738  0.9750 -0.2483
 6557TIP3    H219678   5.769   1.217   2.569 -0.5017 -1.8313 -1.7009
 6558TIP3   OH219679   1.959   2.970   4.363  0.4899 -0.2322  0.1813
 6558TIP3    H119680   1.875   2.924   4.360  0.1281  0.4714 -0.4887
 6558TIP3    H219681   1.975   2.983   4.457 -0.7049  0.6388  0.2817
 6559TIP3   OH219682   1.900   2.423   4.108  0.1515  0.1101 -0.3251
 6559TIP3    H119683   1.897   2.422   4.203  0.6470  2.0732 -0.2514
 6559TIP3    H219684   1.868   2.336   4.082 -0.8846 -0.1374  1.5871
 6560TIP3   OH219685   1.972   3.379   1.979  0.1399  0.0560 -0.3994
 6560TIP3    H119686   1.919   3.415   2.050 -0.4929  0.3260 -0.9991
 6560TIP3    H219687   1.914   3.318   1.935  0.7667 -0.6723 -0.2447
 6561TIP3   OH219688   2.356   3.331   3.165  0.1010 -0.0747 -1.2171
 6561TIP3    H119689   2.308   3.269   3.110 -1.0386 -0.5230  0.2307
 6561TIP3    H219690   2.320   3.416   3.144  0.5208 -0.0879 -2.0212
 6562TIP3   OH219691   6.195   0.837   3.724  0.1846  0.2979  0.3020
 6562TIP3    H119692   6.182   0.905   3.658  1.0184  0.3084  0.1404
 6562TIP3    H219693   6.220   0.884   3.803 -1.2880  0.3228  0.7858
 6563TIP3   OH219694   0.696   5.340   2.591  0.7977  0.7119 -0.8714
 6563TIP3    H119695   0.789   5.358   2.588  0.8746  0.2488 -1.8830
 6563TIP3    H219696   0.671   5.351   2.683  2.1535 -0.6492 -0.2966
 6564TIP3   OH219697   1.609   5.800   5.100 -0.0369 -0.1055  0.1937
 6564TIP3    H119698   1.574   5.889   5.091 -1.1590 -0.6696 -1.2386
 6564TIP3    H219699   1.536   5.749   5.135 -0.8438 -1.3185 -2.9377
 6565TIP3   OH219700   1.491   0.215   4.561 -0.2576  0.4463 -0.1261
 6565TIP3    H119701   1.540   0.254   4.633 -1.2132  1.5195 -0.0232
 6565TIP3    H219702   1.405   0.257   4.565 -0.4984  0.1420 -1.5725
 6566TIP3   OH219703   0.944   3.657   4.999 -1.1135  0.6525 -0.1516
 6566TIP3    H119704   0.918   3.641   5.089  1.6886  1.1866  0.8545
 6566TIP3    H219705   0.973   3.572   4.966 -1.5600  0.5800 -0.3736
 6567TIP3   OH219706   2.663   2.498   2.262  0.0881 -0.4284  0.3738
 6567TIP3    H119707   2.737   2.555   2.286  1.2834 -1.8071  0.1266
 6567TIP3    H219708   2.704   2.413   2.245 -1.2765 -0.7010 -1.8938
 6568TIP3   OH219709   5.761   5.643   4.110 -0.4094 -0.0540  0.2193
 6568TIP3    H119710   5.752   5.620   4.017  1.1048 -0.6321  0.1951
 6568TIP3    H219711   5.847   5.684   4.116 -0.3464 -0.3372  1.4483
 6569TIP3   OH219712   1.270   0.653   1.175  0.2333  0.3429  0.6165
 6569TIP3    H119713   1.237   0.566   1.151  1.6987 -0.6476  1.9694
 6569TIP3    H219714   1.225   0.674   1.256  0.3961  0.5254  0.6599
 6570TIP3   OH219715   0.330   4.787   1.660  0.0366 -0.2670  0.0695
 6570TIP3    H119716   0.242   4.800   1.626 -0.8016 -1.2287  1.7336
 6570TIP3    H219717   0.355   4.872   1.695  0.3748  0.3782 -1.6192
 6571TIP3   OH219718   2.327   0.409   3.005  0.1080 -0.3199 -0.2307
 6571TIP3    H119719   2.264   0.362   3.059 -1.1390  1.1631 -0.3379
 6571TIP3    H219720   2.405   0.416   3.060 -1.2545  1.5007  1.6145
 6572TIP3   OH219721   4.543   1.717   1.511  0.1945 -0.6679 -0.1596
 6572TIP3    H119722   4.589   1.725   1.427  0.0529 -0.1588 -0.1896
 6572TIP3    H219723   4.562   1.798   1.557 -0.8901 -0.3367 -0.2753
 6573TIP3   OH219724   3.023   4.776   0.368  0.4174 -0.3817 -0.1584
 6573TIP3    H119725   2.935   4.763   0.402  0.9423  0.3612  1.6252
 6573TIP3    H219726   3.075   4.707   0.409  0.9679  0.1888  0.1191
 6574TIP3   OH219727   5.202   2.504   4.272  0.2575 -0.4788  0.4613
 6574TIP3    H119728   5.184   2.414   4.301 -1.9269 -0.1434  0.2798
 6574TIP3    H219729   5.224   2.551   4.352 -1.0793 -0.6229  0.9328
 6575TIP3   OH219730   1.376   3.878   1.748 -0.2075  0.3140 -0.0911
 6575TIP3    H119731   1.434   3.849   1.677  0.0781  0.6942 -0.0215
 6575TIP3    H219732   1.420   3.848   1.828 -0.8362 -0.6480 -0.0906
 6576TIP3   OH219733   6.075   4.061   2.790 -0.4174 -0.2969 -0.0119
 6576TIP3    H119734   6.137   4.004   2.745 -0.0798 -0.2947  0.4548
 6576TIP3    H219735   6.124   4.142   2.807  0.0182 -0.9367  1.9580
 6577TIP3   OH219736   4.817   0.339   4.548  0.3044  0.5207  0.3147
 6577TIP3    H119737   4.883   0.272   4.567  0.0792  0.7025  1.9489
 6577TIP3    H219738   4.738   0.307   4.590 -0.3138  0.9129 -0.5306
 6578TIP3   OH219739   0.445   2.076   3.289 -0.0363  0.1804 -0.2588
 6578TIP3    H119740   0.358   2.113   3.271 -0.4544  0.0648  1.3603
 6578TIP3    H219741   0.467   2.109   3.376  0.4621 -1.7350  0.3829
 6579TIP3   OH219742   3.577   4.047   3.309  0.2131  0.1367  0.4373
 6579TIP3    H119743   3.630   4.077   3.236  0.3869 -0.5237  0.2932
 6579TIP3    H219744   3.517   3.983   3.271  2.7077 -3.0608  1.4220
 6580TIP3   OH219745   2.711   0.078   4.194  0.3942 -0.4738  0.3357
 6580TIP3    H119746   2.712   0.163   4.237  1.0181 -0.6970  0.7764
 6580TIP3    H219747   2.637   0.032   4.234 -1.5073  0.6785 -1.5956
 6581TIP3   OH219748   0.640   5.139   3.908  0.5286 -0.2183 -0.9714
 6581TIP3    H119749   0.671   5.079   3.976 -2.0788 -0.8570 -0.2045
 6581TIP3    H219750   0.674   5.225   3.934  0.0515 -0.5465  0.8688
 6582TIP3   OH219751   0.384   0.811   2.215  0.3960  0.0167 -0.1362
 6582TIP3    H119752   0.373   0.729   2.166 -0.7373 -0.5963  1.0551
 6582TIP3    H219753   0.309   0.864   2.190  0.3853  0.1246  0.1192
 6583TIP3   OH219754   1.746   3.755   0.806 -0.1192 -0.6594 -0.0358
 6583TIP3    H119755   1.776   3.747   0.896 -0.2430 -0.4397  0.0253
 6583TIP3    H219756   1.824   3.781   0.757 -0.1726 -0.2439  0.0969
 6584TIP3   OH219757   3.959   1.016   1.432 -0.1625  0.6358  0.1258
 6584TIP3    H119758   3.864   1.021   1.442 -0.6574 -0.5357 -2.9303
 6584TIP3    H219759   3.972   0.963   1.353  3.0851 -0.7174  1.3978
 6585TIP3   OH219760   2.710   3.629   1.130  0.2171 -0.5395  0.0618
 6585TIP3    H119761   2.646   3.621   1.202 -0.9108  0.8851 -0.7230
 6585TIP3    H219762   2.657   3.655   1.055  1.5328 -0.9648 -1.0455
 6586TIP3   OH219763   3.909   2.955   1.308 -0.5210 -0.0566  0.5188
 6586TIP3    H119764   3.951   2.871   1.288  0.4464  0.1003  1.7978
 6586TIP3    H219765   3.819   2.931   1.331 -0.5465 -0.6205 -0.1087
 6587TIP3   OH219766   3.660   3.459   0.697  0.3586 -0.6449 -0.3998
 6587TIP3    H119767   3.638   3.527   0.633 -1.1266 -0.6936  0.0185
 6587TIP3    H219768   3.668   3.506   0.780  2.1538 -0.6018 -0.5532
 6588TIP3   OH219769   3.239   5.638   2.272 -0.0474 -0.4634  0.2304
 6588TIP3    H119770   3.279   5.569   2.324  2.0430  0.3900 -0.1315
 6588TIP3    H219771   3.222   5.709   2.334 -0.5753 -0.6448  0.2979
 6589TIP3   OH219772   1.670   4.852   1.143 -0.0546  0.0323 -0.1843
 6589TIP3    H119773   1.655   4.855   1.049  0.7598 -2.7844 -0.4899
 6589TIP3    H219774   1.762   4.827   1.152 -0.4956 -1.2291  1.3099
 6590TIP3   OH219775   5.572   2.153   1.917 -0.3441 -0.1509 -0.5241
 6590TIP3    H119776   5.579   2.210   1.841 -0.6499 -1.1929 -1.3592
 6590TIP3    H219777   5.479   2.134   1.925 -0.4970  1.0241  0.9588
 6591TIP3   OH219778   1.293   4.310   2.036  0.6451 -0.4546  0.3132
 6591TIP3    H119779   1.244   4.268   1.965 -0.8661  0.6607  0.6634
 6591TIP3    H219780   1.385   4.296   2.013  0.1907 -1.8434 -0.8114
 6592TIP3   OH219781   0.962   2.727   4.215 -0.2951 -0.3773  0.0596
 6592TIP3    H119782   0.983   2.685   4.298 -1.0800 -0.3996  0.2602
 6592TIP3    H219783   0.902   2.666   4.171 -0.3483 -0.1027 -0.2595
 6593TIP3   OH219784   6.039   0.879   3.059  0.5144  0.2731 -0.2869
 6593TIP3    H119785   6.003   0.880   3.148  2.6075 -1.1658  0.6616
 6593TIP3    H219786   6.083   0.964   3.051  2.0385 -0.3716  0.8576
 6594TIP3   OH219787   0.869   4.486   2.835  0.4117  0.6235  0.1786
 6594TIP3    H119788   0.955   4.473   2.874  0.8086  1.5673 -0.3446
 6594TIP3    H219789   0.866   4.428   2.760  0.3961  0.2281  0.4830
 6595TIP3   OH219790   3.294   2.404   4.610 -0.2287 -0.0001 -0.1037
 6595TIP3    H119791   3.209   2.385   4.648 -0.7282  1.9606 -0.1345
 6595TIP3    H219792   3.355   2.399   4.684 -0.8777  1.7022  0.5997
 6596TIP3   OH219793   0.931   1.991   2.663 -0.0927 -0.3784  0.6086
 6596TIP3    H119794   1.007   1.942   2.694 -0.0419 -1.9958 -1.7838
 6596TIP3    H219795   0.857   1.954   2.710  0.3723 -0.1391  1.5383
 6597TIP3   OH219796   1.883   0.313   4.949 -0.3101  0.6793  0.0778
 6597TIP3    H119797   1.907   0.225   4.920 -2.6921  0.7681 -2.5595
 6597TIP3    H219798   1.865   0.303   5.043  3.1173 -0.7176  0.7397
 6598TIP3   OH219799   0.302   0.774   4.702  0.4071  0.1185 -0.8936
 6598TIP3    H119800   0.269   0.809   4.785 -3.1716 -0.4868 -1.9236
 6598TIP3    H219801   0.387   0.817   4.690  0.4225  1.2254  2.3894
 6599TIP3   OH219802   5.412   1.559   3.603 -0.4510  0.3198  0.0113
 6599TIP3    H119803   5.336   1.607   3.635 -1.0727 -0.5538 -0.1130
 6599TIP3    H219804   5.461   1.535   3.682 -1.3957 -0.8813  0.2445
 6600TIP3   OH219805   2.502   2.281   3.090  0.0849 -0.0381  0.3928
 6600TIP3    H119806   2.583   2.232   3.080 -0.3333 -0.5797 -0.5188
 6600TIP3    H219807   2.455   2.267   3.007  1.0192  3.9185 -1.0570
 6601TIP3   OH219808   3.527   3.388   0.230 -0.3409  0.2958  0.2716
 6601TIP3    H119809   3.532   3.439   0.311  0.3862 -0.0508  0.4562
 6601TIP3    H219810   3.477   3.443   0.170  2.1095  2.1789 -0.2052
 6602TIP3   OH219811   2.278   5.127   3.088 -0.0138 -0.2776 -0.3040
 6602TIP3    H119812   2.291   5.100   2.997  2.1419 -0.6521  0.0481
 6602TIP3    H219813   2.189   5.160   3.091 -0.0977 -0.1340 -2.5865
 6603TIP3   OH219814   1.079   0.523   3.569  0.1431  0.2179 -0.1886
 6603TIP3    H119815   1.000   0.498   3.616 -0.5419  0.5588 -1.1456
 6603TIP3    H219816   1.147   0.527   3.637 -0.0724 -2.4804  0.2960
 6604TIP3   OH219817   1.120   1.475   4.895  0.4278 -0.0509 -0.2318
 6604TIP3    H119818   1.133   1.433   4.980 -0.2310 -0.2237 -0.2126
 6604TIP3    H219819   1.053   1.422   4.852  0.6635  0.1103 -0.8100
 6605TIP3   OH219820   5.187   5.093   3.786  0.3207  0.0452 -0.4893
 6605TIP3    H119821   5.183   5.027   3.855  0.7221  0.8219  0.2852
 6605TIP3    H219822   5.099   5.130   3.782 -0.1828 -1.2068 -1.6113
 6606TIP3   OH219823   1.602   2.571   3.311 -0.3371  0.6049 -0.1041
 6606TIP3    H119824   1.633   2.567   3.402  0.8808  0.6541 -0.4953
 6606TIP3    H219825   1.660   2.512   3.263 -0.8043  0.7717 -0.8984
 6607TIP3   OH219826   6.033   0.790   5.172 -0.0807  0.4606  0.6829
 6607TIP3    H119827   6.111   0.767   5.224  0.3099  0.0690 -0.0715
 6607TIP3    H219828   6.060   0.867   5.122 -0.4274  0.7790  0.9778
 6608TIP3   OH219829   0.835   0.202   4.753 -0.1858  0.4858  0.7505
 6608TIP3    H119830   0.752   0.156   4.753 -0.2470  0.5727  1.7497
 6608TIP3    H219831   0.845   0.235   4.663 -1.0893  0.2443  0.5571
 6609TIP3   OH219832   4.485   0.164   0.882 -0.2545 -0.3502  0.0761
 6609TIP3    H119833   4.568   0.209   0.898 -0.9003  1.3463 -1.0869
 6609TIP3    H219834   4.509   0.089   0.827  0.5160  0.1021 -0.2179
 6610TIP3   OH219835   5.671   0.131   1.149  0.4448 -0.3283 -0.1912
 6610TIP3    H119836   5.633   0.209   1.191 -0.4804 -1.2540  0.7413
 6610TIP3    H219837   5.760   0.127   1.184 -0.5360 -1.5394  2.5077
 6611TIP3   OH219838   3.962   5.295   1.002  0.1319  0.3072 -0.0814
 6611TIP3    H119839   3.926   5.266   1.086 -0.2853  0.8946 -0.0545
 6611TIP3    H219840   4.056   5.299   1.017 -0.0480  2.1486  0.9343
 6612TIP3   OH219841   0.071   3.510   4.130  0.4099 -0.2097 -0.3493
 6612TIP3    H119842   0.053   3.423   4.166 -0.3400  0.4605  0.9524
 6612TIP3    H219843   0.013   3.516   4.054 -1.0424 -0.0983  0.7294
 6613TIP3   OH219844   5.861   0.761   4.979  0.0392  0.0428 -0.5340
 6613TIP3    H119845   5.870   0.845   4.934 -2.2295  0.4203 -0.3969
 6613TIP3    H219846   5.918   0.769   5.055 -1.3763  2.2025  0.4222
 6614TIP3   OH219847   2.157   1.811   1.087  0.4608  0.3130  0.7169
 6614TIP3    H119848   2.104   1.793   1.009  0.9698 -1.8731  0.8264
 6614TIP3    H219849   2.099   1.793   1.160  0.2779  1.4544  0.8736
 6615TIP3   OH219850   2.091   4.877   4.840  1.0843 -0.1713 -0.0193
 6615TIP3    H119851   2.081   4.782   4.832  1.2899 -0.3121  1.2569
 6615TIP3    H219852   2.070   4.910   4.753  0.5148 -1.3433 -0.3490
 6616TIP3   OH219853   3.533   3.037   4.322 -0.4971 -0.6905 -0.3182
 6616TIP3    H119854   3.620   3.073   4.337  0.1674 -2.7191  1.1026
 6616TIP3    H219855   3.526   3.032   4.226  1.2352 -1.0890 -0.4650
 6617TIP3   OH219856   3.404   3.260   0.510  0.1300  0.2422  0.7837
 6617TIP3    H119857   3.390   3.330   0.573 -0.8429  0.2574  0.5525
 6617TIP3    H219858   3.400   3.180   0.563  1.1897  0.3390  1.0384
 6618TIP3   OH219859   4.556   5.446   2.455 -0.1722 -0.3624  0.2716
 6618TIP3    H119860   4.635   5.474   2.408 -1.0074 -0.4866 -1.2794
 6618TIP3    H219861   4.508   5.527   2.470 -0.7746 -0.5208 -0.7592
 6619TIP3   OH219862   2.874   0.702   0.166 -0.1378  0.5472 -0.5358
 6619TIP3    H119863   2.860   0.727   0.074  1.0727  1.8943 -0.3981
 6619TIP3    H219864   2.793   0.727   0.210 -0.9103 -0.5350 -1.2992
 6620TIP3   OH219865   2.655   1.964   3.736 -0.3719 -0.1986 -0.0874
 6620TIP3    H119866   2.630   1.964   3.643  0.3828  0.3818 -0.2990
 6620TIP3    H219867   2.607   1.890   3.773  1.3964 -2.1849 -1.5139
 6621TIP3   OH219868   1.193   2.063   4.601  0.2254 -0.0266  0.6144
 6621TIP3    H119869   1.182   1.996   4.669  0.6414 -0.4620  0.2559
 6621TIP3    H219870   1.247   2.130   4.642 -2.2149  1.3416  1.8430
 6622TIP3   OH219871   4.315   5.317   2.388  0.0634 -0.2900  0.7196
 6622TIP3    H119872   4.259   5.344   2.461 -0.0699 -3.2401  1.8602
 6622TIP3    H219873   4.403   5.345   2.414 -0.3548  1.3145  0.5403
 6623TIP3   OH219874   1.017   2.290   1.114 -0.0470 -0.0856  0.1122
 6623TIP3    H119875   0.965   2.230   1.062  0.5413 -0.1886 -0.3592
 6623TIP3    H219876   1.014   2.373   1.066  0.2474 -0.0990  0.0681
 6624TIP3   OH219877   5.229   3.083   2.557 -0.5689  0.4002 -0.3510
 6624TIP3    H119878   5.262   3.142   2.625  0.1373  1.1730 -1.3331
 6624TIP3    H219879   5.172   3.022   2.604 -2.4617  2.6830  0.5131
 6625TIP3   OH219880   3.055   0.329   5.038 -0.0335  0.3387 -0.2083
 6625TIP3    H119881   3.076   0.421   5.057 -0.8351  0.5862 -0.4740
 6625TIP3    H219882   2.965   0.331   5.005 -0.5967 -0.7196  1.1785
 6626TIP3   OH219883   0.388   3.859   4.433 -0.7402  0.2866 -0.2643
 6626TIP3    H119884   0.389   3.894   4.522  2.1683  1.4637 -0.6702
 6626TIP3    H219885   0.396   3.936   4.377 -1.4969 -0.5275 -1.5540
 6627TIP3   OH219886   5.967   0.605   2.741  0.3076 -0.2870 -0.1681
 6627TIP3    H119887   5.891   0.652   2.776 -0.1292 -0.8563 -0.3360
 6627TIP3    H219888   6.035   0.617   2.806  0.3891  1.0738 -0.4734
 6628TIP3   OH219889   3.399   4.568   3.895 -0.1306  0.1975 -0.1399
 6628TIP3    H119890   3.360   4.501   3.837 -0.8538  0.6443 -0.1862
 6628TIP3    H219891   3.491   4.570   3.870 -0.4774  0.5761 -1.4975
 6629TIP3   OH219892   2.997   4.497   0.808 -1.1791 -0.6190 -0.2395
 6629TIP3    H119893   2.923   4.466   0.757 -1.5763 -1.8327  1.0141
 6629TIP3    H219894   2.959   4.532   0.889 -0.5262  0.7605 -0.4932
 6630TIP3   OH219895   6.226   3.650   4.973  0.7506  0.0287 -0.1145
 6630TIP3    H119896   6.147   3.687   5.012  1.4406  0.6651  0.7017
 6630TIP3    H219897   6.195   3.569   4.932 -0.6310  1.0880 -1.2725
 6631TIP3   OH219898   3.390   0.070   2.046  0.0569  0.3948  0.0522
 6631TIP3    H119899   3.296   0.054   2.041  0.3274 -0.9810 -2.0618
 6631TIP3    H219900   3.427   0.022   1.971  2.4699  0.6856  0.9408
 6632TIP3   OH219901   2.284   0.940   2.864  0.6549 -0.0457  0.6159
 6632TIP3    H119902   2.369   0.946   2.819  0.6989 -2.3698  0.3107
 6632TIP3    H219903   2.304   0.954   2.956  1.2477  0.1677  0.4580
 6633TIP3   OH219904   5.437   5.461   2.747  0.0237  0.1510  0.0144
 6633TIP3    H119905   5.430   5.526   2.678  0.4384 -1.2587 -1.4211
 6633TIP3    H219906   5.354   5.414   2.744  0.8578 -1.3219 -1.0374
 6634TIP3   OH219907   5.536   2.509   3.386 -0.3939 -0.2227  0.4846
 6634TIP3    H119908   5.617   2.491   3.434 -0.1045 -0.7276 -0.1754
 6634TIP3    H219909   5.484   2.430   3.397 -0.6396 -0.0493  0.5791
 6635TIP3   OH219910   5.329   1.569   2.809 -0.2112  0.1314 -0.3685
 6635TIP3    H119911   5.269   1.521   2.752  0.5796  1.1152 -2.1099
 6635TIP3    H219912   5.380   1.501   2.853 -0.1578 -0.6662 -1.6129
 6636TIP3   OH219913   2.485   4.084   0.189  0.1000  0.0916 -0.2135
 6636TIP3    H119914   2.570   4.081   0.234  1.2512  1.4053 -2.1515
 6636TIP3    H219915   2.425   4.121   0.253  1.1485 -0.1787  0.9654
 6637TIP3   OH219916   1.172   1.502   2.415  0.3728  0.0536 -0.2561
 6637TIP3    H119917   1.202   1.472   2.501  1.3038 -1.7944 -1.1500
 6637TIP3    H219918   1.154   1.595   2.426  0.2020 -0.2001  1.9950
 6638TIP3   OH219919   3.490   1.388   4.153  0.0411  0.0370 -0.4417
 6638TIP3    H119920   3.424   1.446   4.114 -0.3538  0.1843  0.4325
 6638TIP3    H219921   3.563   1.446   4.176  0.0640  0.0293 -0.4955
 6639TIP3   OH219922   5.375   5.082   4.110  0.3093 -0.0363  0.2972
 6639TIP3    H119923   5.366   5.177   4.117 -0.8724 -0.1398  0.4729
 6639TIP3    H219924   5.325   5.048   4.184  0.3974 -0.7978  0.0176
 6640TIP3   OH219925   2.483   1.375   3.396  0.1057  0.1085 -0.3244
 6640TIP3    H119926   2.469   1.445   3.333  0.8783  1.4025  0.8827
 6640TIP3    H219927   2.408   1.317   3.384 -1.0330  1.6035 -0.7644
   6.34542   5.98252   5.18101   0.00000   0.00000  -2.11514   0.00000  -2.11514  -2.99126
