Title
19927
    1ASP      N    1   0.187   1.238   2.417 -0.6555  0.3017 -0.3049
    1ASP    HT1    2   0.219   1.322   2.365 -1.7233  2.6252  2.4862
    1ASP    HT2    3   0.085   1.256   2.433 -0.4264  1.2024  0.1689
    1ASP    HT3    4   0.184   1.158   2.351 -0.9428  0.2429 -0.2245
    1ASP     CA    5   0.251   1.216   2.549  0.6269  0.7888  0.1376
    1ASP     HA    6   0.190   1.138   2.594  1.0636  1.2144  1.5375
    1ASP     CB    7   0.402   1.185   2.523  0.6643 -0.6433  0.4452
    1ASP    HB1    8   0.447   1.154   2.620  2.7797  0.0384 -0.2578
    1ASP    HB2    9   0.456   1.270   2.475 -0.2948  0.3174  1.0231
    1ASP     CG   10   0.414   1.060   2.440  0.2605  0.1827  0.0986
    1ASP    OD1   11   0.314   1.007   2.381  0.5755 -1.0658 -0.5242
    1ASP    OD2   12   0.524   1.005   2.425 -0.3719  0.1998 -0.1549
    1ASP      C   13   0.242   1.342   2.627  0.4490  0.8499  0.0683
    1ASP      O   14   0.176   1.440   2.591  0.4920 -0.6980 -0.3267
    2ALA      N   15   0.298   1.332   2.749  0.3144  0.3622  0.0673
    2ALA     HN   16   0.331   1.241   2.772 -0.6291 -0.0192 -0.0816
    2ALA     CA   17   0.317   1.440   2.831  0.1142  0.6196 -1.4197
    2ALA     HA   18   0.246   1.519   2.813 -0.8972 -0.3391 -1.8039
    2ALA     CB   19   0.272   1.388   2.969  0.2125  0.0711 -1.3326
    2ALA    HB1   20   0.335   1.302   2.998 -1.4344 -0.3184  1.4783
    2ALA    HB2   21   0.166   1.354   2.970 -0.4276  1.8338 -2.9355
    2ALA    HB3   22   0.273   1.460   3.053 -1.7575  0.5992 -1.6977
    2ALA      C   23   0.457   1.493   2.834  0.3134  0.4534  0.3046
    2ALA      O   24   0.554   1.419   2.852  0.6239 -0.1507 -0.0721
    3ASP      N   25   0.472   1.622   2.818 -0.5584 -0.0252  0.4122
    3ASP     HN   26   0.388   1.674   2.805 -1.1660 -0.8910  0.8060
    3ASP     CA   27   0.592   1.697   2.819  0.5855 -0.5394 -0.4014
    3ASP     HA   28   0.647   1.656   2.736 -1.0273 -0.6555 -1.4488
    3ASP     CB   29   0.553   1.851   2.818 -0.4111 -0.2164  0.0429
    3ASP    HB1   30   0.638   1.923   2.820 -0.3706 -0.2173 -0.8908
    3ASP    HB2   31   0.486   1.874   2.904  0.3554 -2.2727  1.2557
    3ASP     CG   32   0.479   1.886   2.690  0.0295  0.3482  0.1509
    3ASP    OD1   33   0.495   1.824   2.584 -0.1399 -0.0428 -0.3255
    3ASP    OD2   34   0.411   1.991   2.700 -0.1845 -0.3960 -0.1072
    3ASP      C   35   0.672   1.691   2.952  0.7416 -0.9174  0.3266
    3ASP      O   36   0.620   1.717   3.057  0.3888  0.2223 -0.0098
    4GLY      N   37   0.801   1.659   2.947  0.1452  0.7048  0.0487
    4GLY     HN   38   0.854   1.644   2.864  0.9049  3.0318  0.0220
    4GLY     CA   39   0.884   1.639   3.070  0.2038  0.1724  0.3614
    4GLY    HA1   40   0.970   1.579   3.046  1.2393  1.2304  1.3181
    4GLY    HA2   41   0.824   1.592   3.147 -0.3136  1.6105  0.8723
    4GLY      C   42   0.947   1.759   3.135 -0.0606  0.2145 -0.4547
    4GLY      O   43   0.903   1.868   3.094 -0.1367  0.0654  0.2250
    5PRO      N   44   1.033   1.744   3.238  0.5200  0.1176  0.5852
    5PRO     CD   45   1.085   1.613   3.281 -0.2709 -0.5989 -0.1875
    5PRO    HD1   46   1.142   1.582   3.191 -0.8240 -1.0864 -0.3808
    5PRO    HD2   47   1.007   1.538   3.309 -2.0526  0.5391 -1.8517
    5PRO     CA   48   1.068   1.858   3.324  0.8960 -0.0062 -0.1618
    5PRO     HA   49   0.984   1.922   3.349  0.0348 -1.2096  0.0844
    5PRO     CB   50   1.102   1.782   3.455  0.0700 -0.2020  0.2887
    5PRO    HB1   51   1.004   1.762   3.503  0.4950 -0.8576  0.9022
    5PRO    HB2   52   1.166   1.833   3.531  1.6977 -1.6990 -0.0201
    5PRO     CG   53   1.166   1.660   3.403 -0.1835  0.1378  0.1432
    5PRO    HG1   54   1.268   1.676   3.362 -0.3047 -2.3532 -1.2999
    5PRO    HG2   55   1.156   1.589   3.489  2.3276  0.5963  0.8878
    5PRO      C   56   1.178   1.952   3.279  0.3549 -0.5164 -0.3082
    5PRO      O   57   1.292   1.931   3.317 -0.8114  0.5664 -0.0152
    6GLY      N   58   1.147   2.050   3.186 -0.3709  0.0225  0.3819
    6GLY     HN   59   1.055   2.078   3.160  0.5632  2.6599 -0.3387
    6GLY     CA   60   1.253   2.135   3.130 -0.0971 -0.1523 -0.2165
    6GLY    HA1   61   1.203   2.183   3.047  0.1607  2.6693  1.1205
    6GLY    HA2   62   1.342   2.079   3.105 -0.0329 -0.5414  0.8109
    6GLY      C   63   1.297   2.246   3.233 -1.0069  0.5981 -0.1036
    6GLY      O   64   1.263   2.251   3.345 -0.1196 -0.1154 -0.9501
    7ASP      N   65   1.377   2.338   3.182 -0.2850  0.0008  0.2147
    7ASP     HN   66   1.427   2.329   3.096  1.8382  1.7072  1.1813
    7ASP     CA   67   1.411   2.458   3.253  0.0710  0.0523 -0.4676
    7ASP     HA   68   1.386   2.447   3.357 -1.2221 -1.0323 -0.8598
    7ASP     CB   69   1.561   2.474   3.248  0.5949  0.0796  0.1608
    7ASP    HB1   70   1.585   2.554   3.321  0.4327  1.2224 -0.9988
    7ASP    HB2   71   1.603   2.516   3.154  1.0465 -0.5009  0.0977
    7ASP     CG   72   1.630   2.345   3.296  0.7022 -0.4362 -0.1909
    7ASP    OD1   73   1.592   2.289   3.401 -0.8293  0.0528  0.1260
    7ASP    OD2   74   1.732   2.310   3.229 -0.0499 -0.2494 -0.2351
    7ASP      C   75   1.341   2.579   3.188 -0.0863 -0.4736 -0.3180
    7ASP      O   76   1.326   2.578   3.064  0.0939 -0.6378 -0.7501
    8PRO      N   77   1.297   2.690   3.259 -0.3737  0.1257  0.3018
    8PRO     CD   78   1.351   2.718   3.392 -0.3925 -0.6239  0.1544
    8PRO    HD1   79   1.456   2.688   3.412  0.3193  1.7565  0.2202
    8PRO    HD2   80   1.288   2.662   3.464  0.8739 -2.4016 -0.0502
    8PRO     CA   81   1.251   2.812   3.197 -0.7502  0.2697  0.2697
    8PRO     HA   82   1.156   2.803   3.147 -0.1487  1.8841 -1.3073
    8PRO     CB   83   1.228   2.908   3.319 -0.0438  0.0255  0.5161
    8PRO    HB1   84   1.122   2.890   3.347 -0.9902  2.5517 -1.1153
    8PRO    HB2   85   1.237   3.013   3.284 -2.1316 -0.1532 -0.7101
    8PRO     CG   86   1.327   2.869   3.424 -0.4491 -0.5692  0.3271
    8PRO    HG1   87   1.419   2.927   3.399 -1.1673  0.5271  0.1852
    8PRO    HG2   88   1.291   2.887   3.527  0.6201  0.7667  0.5002
    8PRO      C   89   1.348   2.867   3.087  0.2189  0.0310 -0.4075
    8PRO      O   90   1.469   2.859   3.104  0.3727  0.2153  0.8982
    9ASP      N   91   1.292   2.929   2.979  0.4872  0.1337 -0.2943
    9ASP     HN   92   1.193   2.931   2.987  0.2136 -1.5350 -2.3106
    9ASP     CA   93   1.369   2.984   2.865 -0.3558  0.3774 -0.4385
    9ASP     HA   94   1.424   2.897   2.832  3.4630  1.5815  2.0530
    9ASP     CB   95   1.276   3.039   2.756  0.1657  0.3528  0.0043
    9ASP    HB1   96   1.332   3.065   2.665 -1.1929 -2.2921 -1.7141
    9ASP    HB2   97   1.217   3.127   2.790  0.1075  0.7295 -1.0552
    9ASP     CG   98   1.175   2.938   2.701  0.7542 -0.6840 -0.6246
    9ASP    OD1   99   1.073   2.979   2.639 -0.0948 -0.4688 -0.3388
    9ASP    OD2  100   1.210   2.815   2.707 -0.5298 -0.2352 -0.2341
    9ASP      C  101   1.474   3.091   2.917  0.1351  0.4895  0.2162
    9ASP      O  102   1.442   3.167   3.006  0.1837 -0.2608 -0.4947
   10ALA      N  103   1.586   3.104   2.852 -0.4202  0.0603 -0.1150
   10ALA     HN  104   1.609   3.036   2.783 -0.4910  1.4739 -1.5821
   10ALA     CA  105   1.686   3.216   2.870  0.0120  0.4028 -0.0574
   10ALA     HA  106   1.721   3.212   2.972  0.3391 -5.5250 -0.0434
   10ALA     CB  107   1.795   3.188   2.767 -0.3301  0.3849  0.1446
   10ALA    HB1  108   1.879   3.261   2.763  0.5904 -0.6490 -4.1814
   10ALA    HB2  109   1.752   3.183   2.665  0.0757 -1.8333  0.0425
   10ALA    HB3  110   1.835   3.087   2.789 -1.1814 -0.1611 -0.7302
   10ALA      C  111   1.621   3.351   2.834  0.9611 -0.2017 -0.2802
   10ALA      O  112   1.524   3.352   2.756 -0.9271 -0.2091 -0.6530
   11GLY      N  113   1.659   3.469   2.892 -0.8097 -0.0561  0.2051
   11GLY     HN  114   1.737   3.466   2.955 -0.6853  1.4528  0.1671
   11GLY     CA  115   1.597   3.598   2.858 -0.1569 -0.3472  0.1578
   11GLY    HA1  116   1.497   3.608   2.897 -0.1993  0.3353 -0.1081
   11GLY    HA2  117   1.602   3.617   2.752 -1.0101 -2.3574 -0.3072
   11GLY      C  118   1.671   3.714   2.920  0.3259 -0.0763  0.1733
   11GLY    OT1  119   1.762   3.688   3.008  0.0194  0.5518  0.1664
   11GLY    OT2  120   1.639   3.830   2.890 -0.0949  0.1936 -0.5484
   12SOD    SOD  121   1.032   4.076   3.396  0.0255 -0.0977  0.1676
   13SOD    SOD  122   4.731   4.940   1.415  0.0095 -0.2433 -0.4152
   14SOD    SOD  123   1.201   1.053   1.077  0.0677  0.1161 -0.1384
   15SOD    SOD  124   6.311   4.431   0.524  0.2226 -0.0192  0.3765
   16SOD    SOD  125   0.687   4.368   4.379 -0.5571 -0.1147 -0.0945
   17SOD    SOD  126   4.832   2.908   4.502 -0.5146  0.2501  0.0987
   18SOD    SOD  127   4.039   5.462   0.147  0.4765 -0.2397 -0.2567
   19SOD    SOD  128   0.794   2.734   1.270  0.1371 -0.0426 -0.2518
   20SOD    SOD  129   4.774   3.039   1.843  0.0039  0.5328 -0.4387
   21SOD    SOD  130   1.362   4.684   3.505 -0.0832  0.4121  0.2733
   22SOD    SOD  131   0.031   1.624   2.583  0.1253 -0.0559 -0.4658
   23SOD    SOD  132   3.745   5.759   3.662  0.3791  0.0760 -0.3643
   24SOD    SOD  133   4.429   5.234   2.558 -0.2513 -0.4324  0.4211
   25SOD    SOD  134   5.345   4.602   4.956  0.0479 -0.5212  0.1353
   26SOD    SOD  135   2.443   2.194   1.043  0.7277 -0.0600  0.6583
   27SOD    SOD  136   1.841   5.971   4.402 -0.4287  0.2538  0.0359
   28SOD    SOD  137   1.180   5.525   2.133  0.4554 -0.1272  0.3752
   29SOD    SOD  138   0.396   2.614   3.378 -0.3720  0.0111  0.5427
   30SOD    SOD  139   1.817   2.534   0.597 -0.2934 -0.4152 -0.0828
   31SOD    SOD  140   2.423   3.130   4.657  0.3034  0.1104  0.7931
   32SOD    SOD  141   4.745   0.564   1.923  0.0194  0.1063 -0.1286
   33SOD    SOD  142   5.427   3.434   3.750  0.0377 -0.5270 -0.1014
   34CLA    CLA  143   4.950   1.475   1.433  0.0455  0.2025  0.6897
   35CLA    CLA  144   5.457   2.565   3.026 -0.1575  0.2549  0.1702
   36CLA    CLA  145   1.806   5.817   4.955  0.4397  0.3884 -0.3058
   37CLA    CLA  146   0.664   0.885   1.410 -0.1803  0.4206  0.1576
   38CLA    CLA  147   4.310   0.948   3.348  0.1790 -0.0695  0.2982
   39CLA    CLA  148   4.386   1.582   0.931 -0.3008 -0.1604  0.0287
   40CLA    CLA  149   5.990   2.678   5.107 -0.2036 -0.2208 -0.5710
   41CLA    CLA  150   1.981   3.575   3.447  0.0980  0.2725  0.3169
   42CLA    CLA  151   4.335   3.565   1.324  0.2678 -0.3320 -0.0859
   43CLA    CLA  152   0.321   4.269   0.280 -0.1876 -0.2771  0.1375
   44CLA    CLA  153   6.339   4.473   0.019  0.0964 -0.0094  0.1528
   45CLA    CLA  154   1.907   1.004   0.321  0.1533  0.1898  0.0308
   46CLA    CLA  155   0.443   2.660   3.836 -0.5671  0.2853 -0.2703
   47CLA    CLA  156   0.678   4.629   4.412 -0.3108  0.1970 -0.1135
   48CLA    CLA  157   1.211   2.486   1.053 -0.0001  0.2397 -0.0126
   49CLA    CLA  158   0.155   3.004   1.258  0.1579 -0.0822 -0.6151
   50CLA    CLA  159   5.702   4.390   3.184  0.1356 -0.1514  0.0435
   51CLA    CLA  160   2.608   1.676   1.213  0.0946  0.0463  0.0115
   52TIP3   OH2  161   1.508   1.997   2.800 -0.6113 -0.8245  0.0138
   52TIP3    H1  162   1.534   1.983   2.891  0.1169  0.4584  0.0306
   52TIP3    H2  163   1.548   2.081   2.777 -1.5737 -0.6815 -1.2018
   53TIP3   OH2  164   2.760   0.458   4.809 -0.3970 -0.0001 -0.5967
   53TIP3    H1  165   2.829   0.411   4.761 -1.7559 -0.9103 -1.7268
   53TIP3    H2  166   2.679   0.436   4.763 -1.3804  1.5860  0.2944
   54TIP3   OH2  167   4.540   2.002   1.868  0.2855  0.3051 -0.2870
   54TIP3    H1  168   4.554   1.915   1.830 -2.0740  0.3215 -1.3881
   54TIP3    H2  169   4.540   2.061   1.792 -1.5274  0.7646  0.0327
   55TIP3   OH2  170   6.084   3.512   1.098  0.6825  0.5905 -0.4456
   55TIP3    H1  171   6.129   3.463   1.166  0.7038 -1.8901 -2.1051
   55TIP3    H2  172   6.151   3.569   1.060  0.9460  1.1190  0.7796
   56TIP3   OH2  173   4.306   4.844   4.926 -0.5712  0.2885  0.0921
   56TIP3    H1  174   4.298   4.891   4.843  0.9496 -0.2128 -0.3734
   56TIP3    H2  175   4.270   4.904   4.991 -2.4530  0.4158 -0.9840
   57TIP3   OH2  176   1.429   2.369   0.873  0.5140  0.1990  0.1269
   57TIP3    H1  177   1.429   2.287   0.921  2.1808  0.9217  1.4711
   57TIP3    H2  178   1.389   2.432   0.933  0.4002  0.6190 -0.3817
   58TIP3   OH2  179   0.571   5.221   4.483 -0.0152 -0.0260 -0.2421
   58TIP3    H1  180   0.495   5.268   4.448 -0.5095 -1.6682 -1.4950
   58TIP3    H2  181   0.536   5.168   4.555 -0.5566 -2.2883 -2.0498
   59TIP3   OH2  182   4.362   1.650   3.631  0.3266  0.4844 -0.0999
   59TIP3    H1  183   4.375   1.730   3.581 -1.2580  1.0368  0.3176
   59TIP3    H2  184   4.294   1.672   3.694 -1.1073 -1.5472 -0.8285
   60TIP3   OH2  185   2.798   3.354   3.178  0.6737  0.1626  0.2117
   60TIP3    H1  186   2.785   3.393   3.265  1.3971  1.0631 -0.0565
   60TIP3    H2  187   2.736   3.281   3.174 -0.2876  0.9037  0.9905
   61TIP3   OH2  188   1.505   2.038   2.477 -0.2697  0.2177 -0.4849
   61TIP3    H1  189   1.448   2.036   2.553 -0.1554  0.1418 -0.4008
   61TIP3    H2  190   1.560   1.960   2.486 -0.8026 -0.2352 -1.0658
   62TIP3   OH2  191   0.155   0.998   5.171 -0.0092  0.4916  0.2087
   62TIP3    H1  192   0.153   1.092   5.150  0.1841  0.2467 -0.9973
   62TIP3    H2  193   0.230   0.988   5.230  0.6170  0.9495 -0.4852
   63TIP3   OH2  194   0.668   2.996   3.256  0.2966 -0.5088 -0.3271
   63TIP3    H1  195   0.754   2.991   3.214 -0.0232  0.6600 -1.1588
   63TIP3    H2  196   0.678   3.060   3.325 -0.2976  0.9054 -1.4941
   64TIP3   OH2  197   3.650   4.675   4.355 -0.2549  0.1147  0.4362
   64TIP3    H1  198   3.636   4.673   4.260 -0.9547 -0.0402  0.5411
   64TIP3    H2  199   3.726   4.618   4.369  0.4684  0.9055 -0.1310
   65TIP3   OH2  200   2.260   5.858   1.483 -0.2612  0.3499 -0.0934
   65TIP3    H1  201   2.199   5.785   1.476  0.8110 -0.4358 -1.7401
   65TIP3    H2  202   2.205   5.932   1.511 -1.4108 -0.9765  1.3625
   66TIP3   OH2  203   0.213   0.899   4.517  0.2387 -0.3918 -0.3930
   66TIP3    H1  204   0.131   0.873   4.475  0.4535 -1.5413 -0.1332
   66TIP3    H2  205   0.193   0.984   4.557 -1.2662 -1.2804  0.8668
   67TIP3   OH2  206   3.684   3.324   1.010  0.1248 -0.7014  0.7814
   67TIP3    H1  207   3.763   3.270   1.020 -0.0664 -1.0658  0.3078
   67TIP3    H2  208   3.670   3.330   0.916  0.1236  0.1519  0.8286
   68TIP3   OH2  209   0.005   1.020   4.045  0.0198  0.1226  0.7569
   68TIP3    H1  210   0.020   0.939   3.996 -2.2441 -0.5212  1.0224
   68TIP3    H2  211   0.080   1.075   4.023 -0.4489 -0.4206 -2.8588
   69TIP3   OH2  212   3.952   3.594   2.217 -0.0073 -0.4410  0.1127
   69TIP3    H1  213   3.919   3.677   2.252 -0.7489 -1.3232  1.6283
   69TIP3    H2  214   3.880   3.532   2.230  1.3091 -1.8377  1.1128
   70TIP3   OH2  215   0.856   0.208   0.111 -0.0590 -0.7165  0.2195
   70TIP3    H1  216   0.946   0.185   0.133 -0.1743  0.4918  2.1517
   70TIP3    H2  217   0.803   0.170   0.181 -0.7210  1.0480  0.7371
   71TIP3   OH2  218   0.486   4.869   1.902  0.3072 -0.2624 -0.0987
   71TIP3    H1  219   0.487   4.947   1.846 -0.4083 -0.6067 -0.6165
   71TIP3    H2  220   0.393   4.850   1.914  0.4291  0.1759  1.7792
   72TIP3   OH2  221   4.501   0.767   0.218 -0.3474  0.4479  0.3035
   72TIP3    H1  222   4.575   0.817   0.182 -0.1980  0.0658  0.0798
   72TIP3    H2  223   4.542   0.694   0.264 -0.5966  0.1211  0.0048
   73TIP3   OH2  224   6.180   5.802   4.273 -0.0557  0.4634 -0.2447
   73TIP3    H1  225   6.190   5.812   4.368  0.9552  0.6038 -0.3579
   73TIP3    H2  226   6.267   5.821   4.237 -0.3893  0.2649 -1.1912
   74TIP3   OH2  227   0.703   4.069   4.020 -0.1361  0.0948 -0.3523
   74TIP3    H1  228   0.770   4.033   3.961 -0.8855 -2.6508  0.3070
   74TIP3    H2  229   0.634   4.101   3.962  1.4555  2.5227 -1.0238
   75TIP3   OH2  230   4.483   5.624   1.915 -0.2565  0.3130 -0.0386
   75TIP3    H1  231   4.578   5.626   1.926 -0.2583 -0.0774  0.0279
   75TIP3    H2  232   4.453   5.710   1.947 -0.0042  0.1613  0.6045
   76TIP3   OH2  233   4.676   0.763   1.392  0.2384  0.0665 -0.4287
   76TIP3    H1  234   4.597   0.802   1.355 -0.2042 -0.8870 -0.5426
   76TIP3    H2  235   4.698   0.692   1.330  1.8158  0.9914 -0.9960
   77TIP3   OH2  236   5.424   0.087   0.496  0.4800 -0.4011 -0.2786
   77TIP3    H1  237   5.383   0.040   0.423 -0.0433  1.4944 -1.2633
   77TIP3    H2  238   5.383   0.050   0.574 -0.4082 -1.0958 -1.0440
   78TIP3   OH2  239   2.113   2.538   4.549 -0.0038 -0.7809  0.2195
   78TIP3    H1  240   2.116   2.591   4.469  0.4001 -0.3436  0.5154
   78TIP3    H2  241   2.139   2.450   4.520  2.0015 -0.2275  0.1616
   79TIP3   OH2  242   3.464   2.453   4.831  0.6088  0.2321 -0.2560
   79TIP3    H1  243   3.519   2.396   4.778  0.1820 -0.0197 -0.4288
   79TIP3    H2  244   3.520   2.529   4.851  1.1340 -0.1850 -0.1298
   80TIP3   OH2  245   4.861   2.519   0.880  0.0676 -0.0532  0.5997
   80TIP3    H1  246   4.847   2.590   0.817 -2.0795 -0.0171  1.0424
   80TIP3    H2  247   4.906   2.561   0.954 -0.3470  0.6304  0.4689
   81TIP3   OH2  248   0.176   0.746   0.584  0.4495 -0.0425  0.3444
   81TIP3    H1  249   0.151   0.654   0.571 -0.8066  0.3309 -0.0478
   81TIP3    H2  250   0.245   0.761   0.520 -0.3507 -0.3270 -0.6137
   82TIP3   OH2  251   4.638   4.008   5.091 -0.3846  0.3706 -0.1264
   82TIP3    H1  252   4.599   4.068   5.154 -3.1143 -1.8692  0.5347
   82TIP3    H2  253   4.727   3.994   5.123 -0.6848  1.6682  1.4183
   83TIP3   OH2  254   2.904   2.112   1.487 -0.2989 -0.2617 -0.3378
   83TIP3    H1  255   2.945   2.190   1.449 -0.4902 -1.0444 -2.2707
   83TIP3    H2  256   2.935   2.039   1.433  2.2369 -2.0666  3.1429
   84TIP3   OH2  257   4.086   4.507   3.353  0.6417 -0.1177  0.4333
   84TIP3    H1  258   3.997   4.507   3.389  0.4117 -3.0880  0.1763
   84TIP3    H2  259   4.081   4.446   3.279  2.1822  2.2153 -1.7548
   85TIP3   OH2  260   0.486   4.849   4.107  0.0881  0.6841 -0.6014
   85TIP3    H1  261   0.476   4.754   4.112  0.4206  0.5145 -2.3337
   85TIP3    H2  262   0.511   4.876   4.195 -1.8142 -0.5785  0.3910
   86TIP3   OH2  263   4.064   5.934   0.059  0.2117 -0.5765  0.6112
   86TIP3    H1  264   4.114   5.852   0.055  1.5242  0.1800  0.8174
   86TIP3    H2  265   4.018   5.929   0.143  0.5475 -0.9561  0.7793
   87TIP3   OH2  266   3.038   4.745   3.134  0.2646  0.8790 -0.7655
   87TIP3    H1  267   3.080   4.757   3.049  1.1378  1.4797 -0.2743
   87TIP3    H2  268   3.107   4.709   3.190  0.3284  2.3840  0.2030
   88TIP3   OH2  269   2.452   3.169   0.889 -0.2902 -0.3136 -0.4376
   88TIP3    H1  270   2.546   3.152   0.892 -0.4483 -1.2442 -0.3835
   88TIP3    H2  271   2.438   3.214   0.805  0.2668  0.2903 -0.2091
   89TIP3   OH2  272   2.958   3.962   5.000  0.0570  0.5332  0.0014
   89TIP3    H1  273   3.004   4.045   5.005 -0.5561  1.1070 -2.5691
   89TIP3    H2  274   2.893   3.974   4.931 -1.1997 -1.5596  0.7114
   90TIP3   OH2  275   1.997   0.715   3.416 -0.1520 -0.3400 -0.1328
   90TIP3    H1  276   2.046   0.653   3.469 -1.2399  0.1834  1.5643
   90TIP3    H2  277   1.921   0.666   3.385 -0.9797  0.0709  1.1578
   91TIP3   OH2  278   3.934   1.063   0.315  0.3829 -0.6367  0.5144
   91TIP3    H1  279   4.029   1.056   0.312  0.4264 -0.6924  1.5213
   91TIP3    H2  280   3.905   0.983   0.358 -0.0975 -0.5046  0.4432
   92TIP3   OH2  281   1.159   1.829   1.126  0.2047 -0.1923  0.1611
   92TIP3    H1  282   1.195   1.915   1.148  2.0879  0.0408 -3.1774
   92TIP3    H2  283   1.229   1.767   1.145  0.3648 -0.4474 -1.1428
   93TIP3   OH2  284   5.016   0.673   1.270 -0.8065  0.3126  0.1057
   93TIP3    H1  285   5.079   0.602   1.281  0.6529  1.5295 -0.0523
   93TIP3    H2  286   4.946   0.654   1.332 -0.3588 -1.1583  0.1808
   94TIP3   OH2  287   0.003   4.772   3.121 -0.5692  0.1774 -0.1011
   94TIP3    H1  288   0.097   4.772   3.139 -0.4138 -0.2992 -0.8811
   94TIP3    H2  289  -0.011   4.848   3.066 -0.0011 -1.6778 -3.0251
   95TIP3   OH2  290   3.939   2.943   4.089 -0.2655  0.0756  0.2578
   95TIP3    H1  291   3.995   2.978   4.158  1.7194 -0.8584 -0.7898
   95TIP3    H2  292   3.913   2.857   4.120  0.6845 -0.3731 -0.1631
   96TIP3   OH2  293   5.996   2.779   0.241 -0.4953  0.1336  0.2029
   96TIP3    H1  294   6.063   2.810   0.181  0.9636 -1.1661  1.0808
   96TIP3    H2  295   6.028   2.803   0.328 -1.3440 -0.1931  0.6183
   97TIP3   OH2  296   3.724   4.399   3.139 -0.0008  0.6105  0.0485
   97TIP3    H1  297   3.754   4.314   3.171  0.2993  1.3395  1.8561
   97TIP3    H2  298   3.634   4.384   3.109  0.1212 -0.3738  0.1600
   98TIP3   OH2  299   2.608   2.819   4.437 -0.5397 -0.1604  0.1601
   98TIP3    H1  300   2.658   2.867   4.372 -0.5633  1.7105  1.4367
   98TIP3    H2  301   2.536   2.780   4.388 -0.2540  0.7444 -1.0221
   99TIP3   OH2  302   0.619   0.624   3.904  0.2999 -0.3090  0.3492
   99TIP3    H1  303   0.684   0.658   3.843  0.3830 -0.4633  0.3519
   99TIP3    H2  304   0.661   0.547   3.943 -0.2650 -1.0066 -0.3890
  100TIP3   OH2  305   3.912   3.769   5.041 -0.2565 -0.0940 -0.3402
  100TIP3    H1  306   3.868   3.803   4.963  0.8693  0.7384 -0.6353
  100TIP3    H2  307   3.850   3.707   5.079 -1.2935  0.3706 -1.2474
  101TIP3   OH2  308   6.178   4.609   1.733  0.3358 -0.2388  0.7344
  101TIP3    H1  309   6.124   4.530   1.727  1.5400 -1.1134  1.1843
  101TIP3    H2  310   6.124   4.677   1.691  0.4366 -1.8900 -2.4211
  102TIP3   OH2  311   2.139   4.991   4.823 -0.0436  0.1168 -0.3860
  102TIP3    H1  312   2.159   4.959   4.735 -0.8169 -2.1443  0.1952
  102TIP3    H2  313   2.063   5.048   4.811 -0.6821 -0.8600 -1.0917
  103TIP3   OH2  314   3.693   5.792   0.137 -0.2922 -0.7117 -0.4530
  103TIP3    H1  315   3.667   5.731   0.068 -0.1465 -1.8634  0.4685
  103TIP3    H2  316   3.773   5.754   0.173 -1.1127 -0.9139  1.2662
  104TIP3   OH2  317   5.766   2.207   1.284  0.3315 -0.3786 -0.0047
  104TIP3    H1  318   5.789   2.191   1.376 -1.3599 -0.9100  0.3760
  104TIP3    H2  319   5.674   2.235   1.288  0.6554  1.0390 -1.4339
  105TIP3   OH2  320   2.165   4.240   2.621  0.3194  0.2702  0.0526
  105TIP3    H1  321   2.252   4.242   2.660  0.6411 -2.2427 -0.3442
  105TIP3    H2  322   2.181   4.226   2.527 -0.4233 -2.1081  0.2051
  106TIP3   OH2  323   5.083   0.408   2.187  0.0725  0.0595  0.0155
  106TIP3    H1  324   5.101   0.315   2.205  1.0801 -0.1905 -2.0478
  106TIP3    H2  325   5.154   0.455   2.231  0.0185 -0.1886  0.3784
  107TIP3   OH2  326   1.718   5.344   1.252 -0.0825 -0.4449 -0.1066
  107TIP3    H1  327   1.684   5.434   1.254 -1.4655 -0.9558  0.1949
  107TIP3    H2  328   1.672   5.299   1.322  1.2628 -1.1839  0.3388
  108TIP3   OH2  329   0.253   3.821   4.018 -0.5499  0.5504  0.3244
  108TIP3    H1  330   0.225   3.876   4.091  1.5675  0.1995  1.4756
  108TIP3    H2  331   0.268   3.883   3.946 -1.0491  1.1045  0.6870
  109TIP3   OH2  332   1.612   1.107   0.185 -0.4291  0.7948  0.2250
  109TIP3    H1  333   1.699   1.093   0.223 -0.5397 -0.2938  0.0963
  109TIP3    H2  334   1.601   1.202   0.186  0.6227  0.9272  0.5559
  110TIP3   OH2  335   3.111   4.583   1.330 -0.1296 -0.3941  0.2609
  110TIP3    H1  336   3.099   4.569   1.236 -0.9118  0.1361  0.2779
  110TIP3    H2  337   3.029   4.623   1.359 -0.3642 -1.6283  1.3884
  111TIP3   OH2  338   4.077   4.037   1.461  0.4764  0.0433  0.1899
  111TIP3    H1  339   3.984   4.023   1.440  0.4246 -1.2809  1.1702
  111TIP3    H2  340   4.084   4.131   1.473 -0.3322  0.3920 -1.6894
  112TIP3   OH2  341   4.779   0.634   3.827 -0.9332  0.0653 -0.0296
  112TIP3    H1  342   4.720   0.603   3.895 -0.6391 -0.3914  0.0159
  112TIP3    H2  343   4.798   0.725   3.851 -2.8827  0.7555 -0.9085
  113TIP3   OH2  344   1.179   1.089   2.627  0.3888  0.3824  0.3951
  113TIP3    H1  345   1.180   1.136   2.710  1.5205 -0.7678  1.0644
  113TIP3    H2  346   1.262   1.113   2.584 -0.4261  1.4057 -0.6936
  114TIP3   OH2  347   1.379   4.205   1.453  0.2753  0.3676 -0.2907
  114TIP3    H1  348   1.298   4.153   1.450 -0.6961  1.7844  0.1866
  114TIP3    H2  349   1.434   4.160   1.517  0.4650 -1.3833 -1.5933
  115TIP3   OH2  350   5.366   0.354   4.032  0.0544 -0.6193  0.6980
  115TIP3    H1  351   5.452   0.387   4.061  1.3571 -1.6907 -1.7021
  115TIP3    H2  352   5.317   0.433   4.009  1.9721 -0.0781 -1.9054
  116TIP3   OH2  353   0.566   4.043   4.896 -0.0151 -0.3356 -0.1935
  116TIP3    H1  354   0.529   4.108   4.836  0.2782 -0.1155 -0.1360
  116TIP3    H2  355   0.531   4.066   4.982  0.4122 -0.0005 -0.1035
  117TIP3   OH2  356   5.359   1.124   4.193  0.4300  0.4495  0.5302
  117TIP3    H1  357   5.304   1.186   4.240 -0.3915  2.1374 -2.4035
  117TIP3    H2  358   5.350   1.149   4.101  1.5603 -2.9007 -0.6290
  118TIP3   OH2  359   4.161   0.944   4.965 -0.2409  0.0068  0.8362
  118TIP3    H1  360   4.117   0.900   4.892 -1.6430  0.4230  1.3947
  118TIP3    H2  361   4.177   1.033   4.932 -2.1626  0.6390  1.4634
  119TIP3   OH2  362   1.755   2.419   5.163  0.0188  0.3498 -0.1158
  119TIP3    H1  363   1.677   2.381   5.202 -2.3056  0.8905 -3.7499
  119TIP3    H2  364   1.766   2.372   5.080  4.5033 -0.6503  0.7529
  120TIP3   OH2  365   0.316   3.823   3.480 -0.1502  0.2657 -0.1060
  120TIP3    H1  366   0.318   3.781   3.565 -2.1679  0.8713  0.2844
  120TIP3    H2  367   0.319   3.917   3.500  1.6987  0.4052 -0.8404
  121TIP3   OH2  368   2.163   3.826   4.076 -0.1725 -0.2227 -0.1518
  121TIP3    H1  369   2.128   3.738   4.088 -0.8202 -0.0345 -0.5639
  121TIP3    H2  370   2.195   3.827   3.985 -1.4075  0.3576 -0.6132
  122TIP3   OH2  371   1.227   5.181   4.984  0.8353  0.2675 -0.1296
  122TIP3    H1  372   1.147   5.228   5.007  0.7406  0.2417 -0.4030
  122TIP3    H2  373   1.208   5.089   5.005  0.0883 -0.0531 -1.9502
  123TIP3   OH2  374   1.703   0.371   0.809 -0.1393 -0.4967 -0.1064
  123TIP3    H1  375   1.708   0.306   0.739 -0.0813 -0.9985  0.3615
  123TIP3    H2  376   1.791   0.374   0.846 -0.7989 -2.3503  1.8329
  124TIP3   OH2  377   1.126   5.333   2.017  0.2386  0.1497  0.3259
  124TIP3    H1  378   1.141   5.304   1.927  0.5537 -2.3525  1.1052
  124TIP3    H2  379   1.044   5.291   2.043  0.4294  0.3923  1.3702
  125TIP3   OH2  380   0.907   2.779   5.063 -0.2069  0.0507  0.1899
  125TIP3    H1  381   0.954   2.702   5.032 -0.9048 -1.1579  1.9687
  125TIP3    H2  382   0.970   2.850   5.056  1.0785 -1.0507  0.2209
  126TIP3   OH2  383   0.084   4.173   2.822 -0.1202 -0.3517  0.1819
  126TIP3    H1  384   0.070   4.255   2.775  0.1909  0.4128  1.3883
  126TIP3    H2  385   0.008   4.164   2.879  0.9063  0.2954  1.7186
  127TIP3   OH2  386   1.379   3.320   3.772 -1.0471 -0.4766 -0.4790
  127TIP3    H1  387   1.385   3.323   3.677  3.3122 -0.2211 -0.4036
  127TIP3    H2  388   1.395   3.228   3.794 -1.5685 -0.4514  0.0448
  128TIP3   OH2  389   0.640   3.576   0.568 -0.3928 -0.2344  0.0543
  128TIP3    H1  390   0.711   3.522   0.532 -0.0327  2.4006 -3.9590
  128TIP3    H2  391   0.560   3.535   0.535 -0.3983 -0.4242  0.3000
  129TIP3   OH2  392   2.131   0.092   3.679 -0.2331  0.4318 -0.3114
  129TIP3    H1  393   2.176   0.119   3.760 -1.6490  0.6134  0.4414
  129TIP3    H2  394   2.123  -0.003   3.687 -2.7776  0.6715  1.1317
  130TIP3   OH2  395   6.104   3.021   1.044 -0.6570  1.1206  0.5563
  130TIP3    H1  396   6.106   2.952   1.111 -0.4125 -0.8436 -1.3801
  130TIP3    H2  397   6.155   3.092   1.082  0.8512 -0.5548  1.8333
  131TIP3   OH2  398   4.379   2.036   1.317 -0.0678 -0.3862  0.1878
  131TIP3    H1  399   4.317   2.048   1.390 -0.5489  0.3837 -0.3239
  131TIP3    H2  400   4.338   1.970   1.262  0.3245 -1.0119  0.6420
  132TIP3   OH2  401   3.698   5.891   2.549 -0.5204 -0.6479 -0.1583
  132TIP3    H1  402   3.653   5.955   2.604 -1.3506 -0.3638 -1.1370
  132TIP3    H2  403   3.648   5.890   2.467  0.4481 -1.3410 -0.7685
  133TIP3   OH2  404   3.415   4.655   5.189 -0.1501  0.3456 -0.2749
  133TIP3    H1  405   3.464   4.719   5.137 -0.0620  0.0887 -0.5075
  133TIP3    H2  406   3.368   4.708   5.254 -0.6012  0.7127 -0.8813
  134TIP3   OH2  407   3.419   2.607   1.404  0.0460  0.0153  0.2305
  134TIP3    H1  408   3.326   2.590   1.416 -0.0224  0.6476  0.6575
  134TIP3    H2  409   3.443   2.559   1.325 -1.2888  2.1563 -1.5880
  135TIP3   OH2  410   4.846   4.078   3.869  0.1948 -0.5277 -0.0293
  135TIP3    H1  411   4.851   4.057   3.775 -0.1616  0.2310 -0.2248
  135TIP3    H2  412   4.771   4.137   3.875  0.2569 -0.5287  0.7344
  136TIP3   OH2  413   0.365   0.516   1.232  0.6006  0.8694 -0.0376
  136TIP3    H1  414   0.323   0.591   1.274  0.5347  0.6744  0.2449
  136TIP3    H2  415   0.457   0.523   1.255  0.3010 -0.2413  1.6864
  137TIP3   OH2  416   2.395   5.832   0.604 -0.5893 -0.2442  0.1636
  137TIP3    H1  417   2.483   5.848   0.570  0.1563  0.2197  2.1598
  137TIP3    H2  418   2.342   5.815   0.527  1.2706 -0.6589 -1.0873
  138TIP3   OH2  419   3.208   0.280   2.668  0.3679  0.4529  0.0587
  138TIP3    H1  420   3.250   0.344   2.609  1.8915  1.1638  1.8279
  138TIP3    H2  421   3.119   0.314   2.680  0.6353  1.3340 -0.3192
  139TIP3   OH2  422   1.458   4.634   2.341 -0.2041 -0.2398  0.0194
  139TIP3    H1  423   1.371   4.601   2.318 -0.0752 -0.6993  0.1679
  139TIP3    H2  424   1.515   4.557   2.337 -0.1091 -0.2908  1.4803
  140TIP3   OH2  425   2.728   1.339   3.424  0.2752  0.3457 -0.1384
  140TIP3    H1  426   2.785   1.399   3.376 -0.5366  0.2194 -1.3114
  140TIP3    H2  427   2.640   1.359   3.393 -0.0469 -1.2202 -0.3156
  141TIP3   OH2  428   2.576   5.302   1.188 -0.1128  0.4226 -0.0708
  141TIP3    H1  429   2.672   5.307   1.194 -0.1191 -0.6114  1.5242
  141TIP3    H2  430   2.559   5.231   1.126  0.1582  0.4545 -0.1809
  142TIP3   OH2  431   1.370   0.073   2.156 -0.1073 -0.1599  0.1762
  142TIP3    H1  432   1.386   0.078   2.250 -0.1382 -0.6698  0.2130
  142TIP3    H2  433   1.405   0.155   2.121  2.0351 -0.9160  0.3390
  143TIP3   OH2  434   2.591   0.872   1.006  0.0789 -0.0219  0.0139
  143TIP3    H1  435   2.616   0.960   1.035  0.7591  0.3997 -1.7226
  143TIP3    H2  436   2.517   0.886   0.947 -0.8526 -0.7961  0.9458
  144TIP3   OH2  437   1.147   1.482   2.855 -0.2826  0.5260  0.2889
  144TIP3    H1  438   1.088   1.542   2.810 -0.2961  1.2336  1.2268
  144TIP3    H2  439   1.219   1.537   2.885  0.7663 -0.2900 -0.6565
  145TIP3   OH2  440   3.680   2.450   3.867  0.2483  0.1839  0.5511
  145TIP3    H1  441   3.590   2.444   3.835  0.3780  1.5079 -0.1502
  145TIP3    H2  442   3.674   2.498   3.949  0.2620 -0.2096  0.7834
  146TIP3   OH2  443   0.149   4.803   2.466 -0.0400 -0.7454 -0.1136
  146TIP3    H1  444   0.243   4.819   2.473 -0.3289  1.3108 -0.3677
  146TIP3    H2  445   0.109   4.889   2.480 -1.9478 -1.7568  1.0162
  147TIP3   OH2  446   6.317   4.155   2.227  0.9079 -0.4875  0.1599
  147TIP3    H1  447   6.277   4.237   2.256  1.7639 -0.4149  1.2214
  147TIP3    H2  448   6.252   4.088   2.250  0.7332 -0.2274  0.4450
  148TIP3   OH2  449   0.035   5.627   2.645  0.4280  0.4447  0.3855
  148TIP3    H1  450   0.021   5.721   2.661  1.2160  0.2443  2.5255
  148TIP3    H2  451  -0.022   5.583   2.708  0.5510 -0.5132 -0.1570
  149TIP3   OH2  452   3.923   0.199   4.026 -0.4059 -0.3128 -0.4719
  149TIP3    H1  453   3.835   0.164   4.033 -0.3693 -0.2931  0.1306
  149TIP3    H2  454   3.921   0.257   3.950 -0.6083 -1.2006 -1.1505
  150TIP3   OH2  455   2.319   3.914   2.283 -0.2251 -0.0141  0.7051
  150TIP3    H1  456   2.247   3.903   2.345  0.4184 -0.6389  1.3555
  150TIP3    H2  457   2.379   3.975   2.325  0.1321 -0.3058  0.6221
  151TIP3   OH2  458  -0.033   3.401   0.243  0.2698 -0.8036  0.2023
  151TIP3    H1  459   0.024   3.383   0.168  0.1707  0.7133 -0.2780
  151TIP3    H2  460   0.013   3.362   0.318  1.0829 -1.0886 -0.4320
  152TIP3   OH2  461   3.788   1.882   4.751  0.8542  0.3433  0.4351
  152TIP3    H1  462   3.737   1.834   4.686 -1.9358  3.2326  0.2617
  152TIP3    H2  463   3.777   1.831   4.832 -2.0525  0.5865  0.2925
  153TIP3   OH2  464   4.759   1.788   4.511 -0.1501  0.7957  0.4407
  153TIP3    H1  465   4.786   1.837   4.433 -2.0920  1.9954  0.4431
  153TIP3    H2  466   4.675   1.750   4.488 -0.3383  0.4186  1.6652
  154TIP3   OH2  467   4.380   2.177   3.049  0.4431 -0.2372 -0.1265
  154TIP3    H1  468   4.368   2.161   3.142  1.5945  1.2285  0.3136
  154TIP3    H2  469   4.291   2.179   3.013 -0.0498 -0.1522  1.0562
  155TIP3   OH2  470   1.546   1.804   4.967 -0.0227 -0.5918 -0.6001
  155TIP3    H1  471   1.555   1.789   4.873  0.1355 -1.0832 -0.5088
  155TIP3    H2  472   1.488   1.734   4.997  2.1915 -2.2006  0.1442
  156TIP3   OH2  473   3.149   0.418   1.866 -0.0124  0.2126  0.3220
  156TIP3    H1  474   3.098   0.409   1.947 -3.6925 -3.7195 -1.9739
  156TIP3    H2  475   3.096   0.476   1.811 -0.6672 -1.6101 -1.0895
  157TIP3   OH2  476   2.226   3.636   3.863 -0.0261  0.1968 -0.5520
  157TIP3    H1  477   2.287   3.631   3.790  0.7633  0.5883  0.0641
  157TIP3    H2  478   2.151   3.582   3.837  0.2570  0.3147 -1.6265
  158TIP3   OH2  479   0.169   5.953   5.024  0.3029 -0.4599  0.3338
  158TIP3    H1  480   0.136   5.874   5.066 -1.1978  0.1932  0.4448
  158TIP3    H2  481   0.185   6.014   5.097  1.4105 -0.6206  0.2474
  159TIP3   OH2  482   4.101   2.045   3.137  0.6535 -0.2172  0.4657
  159TIP3    H1  483   4.095   2.116   3.074 -3.4973  0.0778  0.9221
  159TIP3    H2  484   4.088   1.966   3.085  1.0376 -0.3108  0.5060
  160TIP3   OH2  485   0.873   5.939   3.942 -0.0637  0.4242  0.4464
  160TIP3    H1  486   0.927   5.919   4.018  0.1018  0.3090  0.3017
  160TIP3    H2  487   0.802   5.875   3.945 -0.6274  1.0796  1.0697
  161TIP3   OH2  488   1.557   0.745   2.369  0.0877 -0.1297  0.2178
  161TIP3    H1  489   1.635   0.691   2.353  0.5540  0.2545  1.0933
  161TIP3    H2  490   1.502   0.731   2.292  2.3804  2.0046 -2.0288
  162TIP3   OH2  491   5.864   1.262   1.295  0.0331  0.8613  0.0090
  162TIP3    H1  492   5.960   1.272   1.296  0.0410  0.8502  1.5190
  162TIP3    H2  493   5.843   1.244   1.203  1.9764 -4.0691  0.2283
  163TIP3   OH2  494   1.938   0.269   4.342 -0.2023 -0.1876 -0.0989
  163TIP3    H1  495   1.996   0.234   4.409 -0.6135 -1.0000 -0.1425
  163TIP3    H2  496   1.850   0.257   4.378 -0.3876  0.1282 -0.4395
  164TIP3   OH2  497   5.874   2.219   0.668 -0.1953  0.8602  0.3122
  164TIP3    H1  498   5.878   2.145   0.728 -0.0496 -0.3639 -1.1389
  164TIP3    H2  499   5.943   2.278   0.697  0.2905 -0.0091  0.9506
  165TIP3   OH2  500   1.446   0.763   4.560  0.0225  0.1671  0.0529
  165TIP3    H1  501   1.442   0.757   4.655  1.2065  0.1262  0.1125
  165TIP3    H2  502   1.515   0.827   4.543 -0.9795  1.0724 -0.7713
  166TIP3   OH2  503   4.115   5.878   3.745  0.7310  0.0413  0.2727
  166TIP3    H1  504   4.152   5.936   3.678 -0.9302  0.0500 -0.6980
  166TIP3    H2  505   4.033   5.847   3.707  1.6502 -3.1984  0.6326
  167TIP3   OH2  506   3.937   4.040   3.745 -0.3554  0.2098 -0.2973
  167TIP3    H1  507   3.905   4.023   3.833 -1.0716  2.3211 -0.0989
  167TIP3    H2  508   3.936   4.135   3.737 -0.1727  0.0783 -2.5441
  168TIP3   OH2  509   3.557   4.519   2.018 -0.1246  0.2913  0.6871
  168TIP3    H1  510   3.552   4.559   1.931 -0.4949  1.2281  1.1195
  168TIP3    H2  511   3.553   4.425   2.002 -2.6900  0.4805 -0.1968
  169TIP3   OH2  512   3.286   2.068   2.083  0.3141  0.0031 -0.3189
  169TIP3    H1  513   3.340   1.996   2.116 -1.1679 -0.8436  0.3166
  169TIP3    H2  514   3.220   2.082   2.150 -0.0287  1.3232 -0.8850
  170TIP3   OH2  515   1.643   4.260   3.671 -0.3620  0.1235  0.0108
  170TIP3    H1  516   1.729   4.294   3.697 -0.8813 -0.2069  2.4669
  170TIP3    H2  517   1.662   4.187   3.612  1.1823 -0.8882  1.6433
  171TIP3   OH2  518   3.221   1.526   4.718  0.1450 -0.4900 -0.0416
  171TIP3    H1  519   3.219   1.597   4.782  0.1700  0.1577 -0.7362
  171TIP3    H2  520   3.216   1.446   4.770  1.0111 -0.0047  0.8117
  172TIP3   OH2  521   2.846   0.404   0.201  0.2265  0.6118  0.6309
  172TIP3    H1  522   2.804   0.426   0.284  2.7001 -0.9675  2.4369
  172TIP3    H2  523   2.898   0.326   0.220 -1.4065 -1.7496 -3.2058
  173TIP3   OH2  524   2.908   2.778   4.050 -0.2108 -0.2044  0.0986
  173TIP3    H1  525   2.833   2.718   4.052  0.8226 -1.7265 -2.2045
  173TIP3    H2  526   2.950   2.766   4.135 -2.0777  0.0668  1.1087
  174TIP3   OH2  527   5.587   1.218   3.264  0.2224  0.0823  0.2612
  174TIP3    H1  528   5.601   1.236   3.171 -0.0005 -0.8072  0.0393
  174TIP3    H2  529   5.647   1.146   3.283 -0.0727 -0.0532  0.6832
  175TIP3   OH2  530   3.762   0.357   0.979 -0.0424 -0.0273  0.1197
  175TIP3    H1  531   3.786   0.352   1.071 -0.1610  0.5890  0.1876
  175TIP3    H2  532   3.846   0.371   0.934 -0.0982  0.6906  0.2289
  176TIP3   OH2  533   5.887   4.686   1.946 -0.3178  0.8308 -0.1102
  176TIP3    H1  534   5.923   4.764   1.989 -1.6209  1.6266 -0.3924
  176TIP3    H2  535   5.911   4.613   2.004 -0.5281  1.6646  1.0641
  177TIP3   OH2  536   6.073   1.863   0.725  0.1762  0.3612 -0.4409
  177TIP3    H1  537   6.068   1.830   0.815 -1.5882  0.2410 -0.5373
  177TIP3    H2  538   6.075   1.958   0.735 -0.1266  0.3518 -0.2629
  178TIP3   OH2  539   0.068   4.967   1.034  0.3135 -0.5557  0.0158
  178TIP3    H1  540   0.090   4.936   0.946 -1.6600  1.1755 -1.1787
  178TIP3    H2  541  -0.027   4.956   1.039  0.1899  0.9014  1.2912
  179TIP3   OH2  542   5.527   0.535   2.093 -0.9725 -0.4602  0.1494
  179TIP3    H1  543   5.597   0.470   2.083 -0.5321 -0.2910  1.8830
  179TIP3    H2  544   5.521   0.576   2.007  2.7992  1.2322  0.4771
  180TIP3   OH2  545   2.126   1.890   1.589 -0.1543 -0.1770 -0.4063
  180TIP3    H1  546   2.216   1.858   1.594 -0.2080 -0.5004 -1.3203
  180TIP3    H2  547   2.125   1.944   1.510 -0.7015  0.0279 -0.2581
  181TIP3   OH2  548   5.611   4.636   1.916 -0.6776  0.3766 -0.3617
  181TIP3    H1  549   5.705   4.640   1.896 -0.8141 -0.1707 -1.1997
  181TIP3    H2  550   5.597   4.545   1.943 -1.0644  0.3047 -0.7988
  182TIP3   OH2  551   1.138   5.432   3.940  0.8633  0.0852  0.3629
  182TIP3    H1  552   1.059   5.444   3.992  0.8757  0.1749  0.3625
  182TIP3    H2  553   1.209   5.462   3.997  1.0728 -1.4021  0.9350
  183TIP3   OH2  554   6.135   0.073   0.322  0.2765 -0.1487  0.2038
  183TIP3    H1  555   6.049   0.113   0.311 -0.4444 -1.1617  1.8884
  183TIP3    H2  556   6.132   0.032   0.408  1.5992 -2.2551 -0.6787
  184TIP3   OH2  557   1.222   3.836   3.884  0.1401  0.3970 -0.0061
  184TIP3    H1  558   1.287   3.793   3.939  1.7889  2.0489 -0.5549
  184TIP3    H2  559   1.238   3.801   3.796  0.0787  0.5659 -0.0856
  185TIP3   OH2  560   2.702   3.834   2.273 -0.6416 -0.3729 -0.0664
  185TIP3    H1  561   2.789   3.798   2.289 -0.1293  1.6673  2.3625
  185TIP3    H2  562   2.644   3.784   2.330 -0.4717  0.4006  0.8110
  186TIP3   OH2  563   0.556   5.818   3.674  0.7870 -0.5952 -0.2545
  186TIP3    H1  564   0.591   5.835   3.762 -0.7632 -0.8650  0.4536
  186TIP3    H2  565   0.622   5.763   3.632  0.9261 -1.6447  1.2538
  187TIP3   OH2  566   0.917   2.494   2.708 -0.4846  0.1988 -0.0251
  187TIP3    H1  567   0.851   2.426   2.693 -0.3208  0.1487 -0.5295
  187TIP3    H2  568   0.960   2.505   2.623  1.7390 -1.4111  0.7966
  188TIP3   OH2  569   5.951   1.910   3.830  0.2138  0.0859 -0.4752
  188TIP3    H1  570   5.957   1.823   3.871 -0.8381  0.7039  1.0686
  188TIP3    H2  571   5.858   1.930   3.831  0.1382  0.1567 -3.2455
  189TIP3   OH2  572   0.214   5.949   3.409  0.0577  0.3924  0.2944
  189TIP3    H1  573   0.293   6.001   3.401 -0.2944  0.8938  0.0234
  189TIP3    H2  574   0.214   5.918   3.500  0.6278  0.2734  0.2562
  190TIP3   OH2  575   4.156   5.567   0.349 -0.3129  0.3308  0.2950
  190TIP3    H1  576   4.239   5.564   0.300 -1.0748 -0.6204 -1.0196
  190TIP3    H2  577   4.174   5.518   0.429  0.3932  0.1040  0.0085
  191TIP3   OH2  578   1.341   5.472   1.767  0.0256  0.1944  0.0197
  191TIP3    H1  579   1.304   5.469   1.679 -0.5983  1.9408  0.1951
  191TIP3    H2  580   1.266   5.461   1.825  0.2806  0.1658  0.3442
  192TIP3   OH2  581   4.182   4.514   4.008  0.6116  0.6400 -0.2899
  192TIP3    H1  582   4.249   4.450   3.986 -0.6178 -0.7210 -0.2156
  192TIP3    H2  583   4.188   4.580   3.938  1.4010  0.0563 -0.7855
  193TIP3   OH2  584   6.250   4.157   3.390 -0.6148 -0.9059  0.2421
  193TIP3    H1  585   6.286   4.095   3.326  0.8723 -0.0129  0.1687
  193TIP3    H2  586   6.163   4.178   3.356 -0.7492 -2.1806 -0.2646
  194TIP3   OH2  587   3.976   2.658   4.551  0.5319 -0.1925  0.3216
  194TIP3    H1  588   3.905   2.704   4.505  0.5967 -0.7384 -0.3536
  194TIP3    H2  589   3.939   2.636   4.636 -0.5832 -1.5503 -0.4559
  195TIP3   OH2  590   0.312   2.961   3.801 -0.4675 -0.3137  0.0847
  195TIP3    H1  591   0.248   2.960   3.729  1.0781 -0.4543 -1.3411
  195TIP3    H2  592   0.344   2.871   3.805  0.8637  0.1258 -0.3736
  196TIP3   OH2  593   0.102   3.366   1.581 -0.2599 -0.1878  0.1595
  196TIP3    H1  594   0.151   3.410   1.512 -0.6986 -0.1551 -0.1364
  196TIP3    H2  595   0.155   3.291   1.605 -0.1099 -0.2005 -0.2179
  197TIP3   OH2  596   2.859   0.470   3.532  0.1540  0.0001  0.4125
  197TIP3    H1  597   2.905   0.434   3.456 -0.4707 -2.3552  1.0713
  197TIP3    H2  598   2.770   0.434   3.526 -0.6461  1.7415  0.9815
  198TIP3   OH2  599   2.269   1.317   2.705 -0.1684 -0.3321 -0.3782
  198TIP3    H1  600   2.221   1.331   2.787 -1.9282 -0.3985 -1.3329
  198TIP3    H2  601   2.286   1.406   2.672 -2.1846 -0.2523 -1.3827
  199TIP3   OH2  602   4.673   1.116   1.731  0.2244  0.3281 -0.5648
  199TIP3    H1  603   4.662   1.210   1.714 -0.4885  0.6650  1.4954
  199TIP3    H2  604   4.767   1.104   1.742  0.1691  1.1683  0.9738
  200TIP3   OH2  605   3.797   2.370   1.678 -0.0064  0.0317  0.3669
  200TIP3    H1  606   3.781   2.449   1.730  0.4989 -1.4721  2.9811
  200TIP3    H2  607   3.880   2.336   1.711  0.3480 -1.0297 -1.4776
  201TIP3   OH2  608   4.713   5.332   1.768  0.4380 -0.0671 -0.2780
  201TIP3    H1  609   4.670   5.395   1.710  0.8741  0.2209 -0.2943
  201TIP3    H2  610   4.806   5.336   1.743  0.3872 -1.1364 -0.6661
  202TIP3   OH2  611   4.863   1.930   1.076 -0.3404 -0.1587 -0.6658
  202TIP3    H1  612   4.911   2.012   1.062 -0.1489 -0.0908  0.3283
  202TIP3    H2  613   4.890   1.874   1.003 -0.4671  0.6539 -1.3471
  203TIP3   OH2  614   4.340   5.461   1.747  0.1905 -0.3883 -0.5408
  203TIP3    H1  615   4.380   5.508   1.820 -0.4813 -1.4896  0.5797
  203TIP3    H2  616   4.265   5.515   1.723  0.3869 -0.0402 -0.3746
  204TIP3   OH2  617   0.980   4.194   1.962  0.1311  0.1214  0.0488
  204TIP3    H1  618   0.964   4.233   2.048 -0.9989  0.7128 -0.4214
  204TIP3    H2  619   1.002   4.103   1.982  0.2113  0.3319  0.9863
  205TIP3   OH2  620   4.102   3.250   0.407  0.2008  0.5069 -0.2720
  205TIP3    H1  621   4.165   3.321   0.423  0.2451  0.2946  0.5482
  205TIP3    H2  622   4.043   3.253   0.482 -0.0257 -0.0914 -0.4203
  206TIP3   OH2  623   4.142   3.147   0.738 -0.1721 -0.2942 -0.0414
  206TIP3    H1  624   4.116   3.231   0.700 -0.0215  0.1540  0.8257
  206TIP3    H2  625   4.085   3.083   0.694 -1.1266  0.4017  0.1488
  207TIP3   OH2  626   1.122   1.849   5.166  0.3711 -0.6016 -0.1541
  207TIP3    H1  627   1.120   1.806   5.080  1.8275  0.9896 -1.0479
  207TIP3    H2  628   1.074   1.931   5.153 -0.3681 -0.8489  0.8796
  208TIP3   OH2  629   1.448   5.187   1.214 -0.7160  0.0462 -0.5009
  208TIP3    H1  630   1.485   5.103   1.189 -1.3874 -0.6423  0.7288
  208TIP3    H2  631   1.478   5.248   1.146  0.1099 -1.0904 -1.1847
  209TIP3   OH2  632   3.395   4.374   4.479  0.3606  0.6190  0.4940
  209TIP3    H1  633   3.427   4.364   4.569  1.8544 -0.2453 -0.0987
  209TIP3    H2  634   3.300   4.382   4.488  0.3207 -1.0171  2.0655
  210TIP3   OH2  635   3.180   5.163   5.064  0.2745 -0.4723  0.6218
  210TIP3    H1  636   3.090   5.192   5.045  1.1045  1.2078 -1.1025
  210TIP3    H2  637   3.208   5.220   5.136 -0.2273 -1.4493  1.6173
  211TIP3   OH2  638   2.827   2.632   4.552  0.4343 -0.1649 -0.4399
  211TIP3    H1  639   2.737   2.627   4.519  0.0486  2.0990  0.0781
  211TIP3    H2  640   2.879   2.658   4.475  0.1329  1.3777 -0.1668
  212TIP3   OH2  641   0.186   2.874   0.332  0.3032  0.0600 -0.1497
  212TIP3    H1  642   0.229   2.792   0.310 -0.6343 -0.5902  0.3517
  212TIP3    H2  643   0.111   2.848   0.385 -0.5659  1.1616 -0.7846
  213TIP3   OH2  644   6.192   2.658   3.299  0.0187  0.2011 -0.3845
  213TIP3    H1  645   6.141   2.595   3.249 -1.1294  1.1201 -0.4133
  213TIP3    H2  646   6.226   2.608   3.373  0.6061 -0.8543 -1.3360
  214TIP3   OH2  647   3.867   1.722   1.194  0.2339 -0.2189  0.1205
  214TIP3    H1  648   3.788   1.668   1.191  0.4509 -0.5146 -0.3294
  214TIP3    H2  649   3.938   1.659   1.204  0.5151 -0.0470 -0.7370
  215TIP3   OH2  650   5.193   4.593   4.788  0.1044 -0.6130  0.4317
  215TIP3    H1  651   5.176   4.499   4.779 -0.5507 -0.3924 -1.1096
  215TIP3    H2  652   5.115   4.635   4.751  0.7003  0.5241  0.3951
  216TIP3   OH2  653   3.695   0.852   3.718  0.3074 -0.0141 -0.0129
  216TIP3    H1  654   3.739   0.855   3.633 -0.1623 -1.2747 -0.3244
  216TIP3    H2  655   3.731   0.927   3.766  1.0845  0.3212 -1.0723
  217TIP3   OH2  656   2.238   2.719   2.098  0.5051 -0.0403  0.2578
  217TIP3    H1  657   2.167   2.753   2.153 -0.6498  0.0675 -1.2581
  217TIP3    H2  658   2.239   2.625   2.118  0.7482  0.1408  1.1619
  218TIP3   OH2  659   3.480   1.344   3.480 -0.6728  0.3561 -0.1497
  218TIP3    H1  660   3.484   1.313   3.389 -0.6750  1.4933 -0.5488
  218TIP3    H2  661   3.516   1.271   3.531 -1.7099 -0.7475 -0.9392
  219TIP3   OH2  662   3.873   4.454   0.926 -0.3996  0.4518 -0.1502
  219TIP3    H1  663   3.779   4.461   0.913 -0.5193 -0.7334 -0.0333
  219TIP3    H2  664   3.904   4.545   0.931 -1.6646  0.8601  0.8083
  220TIP3   OH2  665   4.748   0.364   3.556 -0.4273  0.7657 -0.5473
  220TIP3    H1  666   4.673   0.422   3.567  0.9088  2.5882 -0.4549
  220TIP3    H2  667   4.816   0.401   3.613  0.2968 -1.3270  0.0608
  221TIP3   OH2  668   3.503   3.656   5.007  1.0482 -0.2691 -0.4630
  221TIP3    H1  669   3.415   3.659   5.045  1.1547  1.7971 -0.2729
  221TIP3    H2  670   3.488   3.656   4.913  0.8489  0.4701 -0.4314
  222TIP3   OH2  671   6.146   5.292   0.373 -0.2671  0.3397 -0.3013
  222TIP3    H1  672   6.224   5.238   0.388 -0.1171  0.2098 -1.4652
  222TIP3    H2  673   6.180   5.373   0.334 -0.7033  0.2747 -0.8325
  223TIP3   OH2  674   6.014   1.780   0.983 -0.5732  0.5075 -0.0329
  223TIP3    H1  675   5.955   1.855   0.984  0.2902  1.2227 -0.8548
  223TIP3    H2  676   5.957   1.704   0.998 -1.2179  1.4301  2.7375
  224TIP3   OH2  677   1.504   4.045   0.103  1.3210 -0.1196  0.3715
  224TIP3    H1  678   1.590   4.084   0.114  0.8263  1.3591 -0.6980
  224TIP3    H2  679   1.496   3.983   0.175  2.2608  1.5879  2.0375
  225TIP3   OH2  680   5.885   2.043   4.105 -0.0992  0.6325 -0.4660
  225TIP3    H1  681   5.957   2.094   4.068 -1.2255  2.3362 -0.4261
  225TIP3    H2  682   5.832   2.018   4.030 -0.0890  0.3935 -0.3936
  226TIP3   OH2  683   4.540   1.648   3.293 -0.4496  0.4106  0.1032
  226TIP3    H1  684   4.497   1.566   3.270 -2.3446  1.1075  0.9771
  226TIP3    H2  685   4.536   1.700   3.212 -2.0077  0.7349  0.3444
  227TIP3   OH2  686   0.750   0.523   0.662 -0.2079  0.5617  0.2061
  227TIP3    H1  687   0.663   0.484   0.665 -1.1251  2.4158 -0.7803
  227TIP3    H2  688   0.741   0.599   0.605  2.4208 -0.0179 -1.1619
  228TIP3   OH2  689   1.067   2.416   0.014 -0.1232 -0.3052 -0.0339
  228TIP3    H1  690   1.103   2.473  -0.054  0.6044  1.6313  1.8640
  228TIP3    H2  691   0.999   2.469   0.056  0.9373 -0.5754  2.1420
  229TIP3   OH2  692   4.375   3.762   4.476  0.0374  0.8141  0.1491
  229TIP3    H1  693   4.288   3.731   4.503 -1.3493  2.1321 -2.4346
  229TIP3    H2  694   4.405   3.697   4.413 -0.1020  1.5139 -0.6503
  230TIP3   OH2  695   3.507   3.657   1.076 -0.3977  0.0926  0.3884
  230TIP3    H1  696   3.481   3.565   1.076 -0.3681  0.0847  0.4882
  230TIP3    H2  697   3.428   3.704   1.104 -0.4684  0.1128  0.1587
  231TIP3   OH2  698   5.687   4.014   3.832  0.0393  0.3615  0.2979
  231TIP3    H1  699   5.740   4.092   3.852  0.1737 -0.1528  2.0558
  231TIP3    H2  700   5.620   4.047   3.772  0.2135  1.7935  0.8333
  232TIP3   OH2  701   2.284   0.001   4.735  0.5883  0.0882 -0.4992
  232TIP3    H1  702   2.264  -0.015   4.827  2.7294 -2.3658 -0.3523
  232TIP3    H2  703   2.303   0.095   4.731  0.7921  0.1957  1.6498
  233TIP3   OH2  704   5.944   4.959   1.458 -0.1711  0.3467 -0.2927
  233TIP3    H1  705   5.980   4.939   1.545  2.3971  0.5814 -1.2339
  233TIP3    H2  706   5.857   4.997   1.477  1.2917  2.8149  2.3471
  234TIP3   OH2  707   2.097   2.202   4.603  0.3241 -0.1389  0.0851
  234TIP3    H1  708   2.161   2.248   4.658  0.3538 -0.8359  0.6477
  234TIP3    H2  709   2.035   2.163   4.665 -0.5762  0.3979 -0.4434
  235TIP3   OH2  710   4.519   4.969   4.367  0.3505  0.0903 -0.2054
  235TIP3    H1  711   4.518   5.057   4.404  0.5084 -0.9042  2.3661
  235TIP3    H2  712   4.430   4.957   4.333  0.2148  1.0992 -0.2338
  236TIP3   OH2  713   0.908   4.868   4.307  0.6405 -0.9432  0.0313
  236TIP3    H1  714   0.991   4.824   4.323  0.9684 -1.3570 -2.5046
  236TIP3    H2  715   0.842   4.799   4.321  0.6590 -0.6203  2.0178
  237TIP3   OH2  716   2.764   3.604   1.679 -0.1780 -0.3380  0.5074
  237TIP3    H1  717   2.828   3.565   1.620 -0.3243 -1.9287  1.3568
  237TIP3    H2  718   2.748   3.691   1.642  1.2733 -0.5002 -0.6041
  238TIP3   OH2  719   0.334   3.426   0.159 -0.0257 -0.4379 -0.0347
  238TIP3    H1  720   0.302   3.507   0.118  0.9706  0.2919  0.5724
  238TIP3    H2  721   0.329   3.360   0.090  0.4034  0.4586 -0.9531
  239TIP3   OH2  722   1.995   5.225   4.801 -0.4706 -0.0065  0.2423
  239TIP3    H1  723   2.038   5.258   4.880 -0.9459 -0.1997  0.5826
  239TIP3    H2  724   1.977   5.303   4.749  0.3389  0.0715  0.0719
  240TIP3   OH2  725   3.728   0.947   2.697  0.1527  0.4401  0.5834
  240TIP3    H1  726   3.781   0.903   2.763 -0.7844 -1.2778  0.2745
  240TIP3    H2  727   3.657   0.989   2.746 -0.1114 -0.1905  0.7605
  241TIP3   OH2  728   1.669   5.354   2.193  0.1163  0.3492 -0.0190
  241TIP3    H1  729   1.747   5.407   2.176  0.0284  0.3700 -0.3701
  241TIP3    H2  730   1.637   5.330   2.106  1.3673 -2.0953  0.1151
  242TIP3   OH2  731   5.215   0.032   2.298  0.0715  0.3290 -0.0494
  242TIP3    H1  732   5.292   0.006   2.247 -0.1871 -0.9664  0.1696
  242TIP3    H2  733   5.236   0.006   2.388 -0.8151 -0.5563 -0.0755
  243TIP3   OH2  734   5.391   3.768   2.471 -0.1289  0.1956  0.3513
  243TIP3    H1  735   5.365   3.755   2.562 -1.5127  0.3203  0.0122
  243TIP3    H2  736   5.404   3.863   2.464  3.6372 -0.1011  1.2646
  244TIP3   OH2  737   0.097   3.038   3.597  0.3511 -0.6913  0.4269
  244TIP3    H1  738   0.113   3.102   3.527 -1.1142 -1.2188 -0.4163
  244TIP3    H2  739   0.024   3.074   3.647  1.0398 -0.5861  1.4004
  245TIP3   OH2  740   5.627   3.309   3.885  0.4629 -0.0132  0.2939
  245TIP3    H1  741   5.660   3.333   3.972  1.7235  1.2514 -0.4924
  245TIP3    H2  742   5.697   3.259   3.845  0.5275  0.7312 -0.5524
  246TIP3   OH2  743   5.282   5.646   1.798  0.7394  0.7140 -0.8106
  246TIP3    H1  744   5.315   5.581   1.736 -2.3451 -0.7297 -1.1260
  246TIP3    H2  745   5.302   5.730   1.758  1.4160 -0.1357 -2.3255
  247TIP3   OH2  746   4.515   3.804   1.571  0.5530 -0.2242 -0.0896
  247TIP3    H1  747   4.450   3.860   1.529  0.5305 -0.9966 -1.0967
  247TIP3    H2  748   4.547   3.857   1.645 -3.1685 -0.7957  2.2253
  248TIP3   OH2  749   0.653   2.670   5.029 -0.6613  0.3924 -0.0597
  248TIP3    H1  750   0.746   2.686   5.015 -0.7432 -0.1828 -1.3893
  248TIP3    H2  751   0.645   2.653   5.123  0.8095 -1.0948 -0.1635
  249TIP3   OH2  752   5.327   0.578   2.273  0.3261  0.0194  0.3439
  249TIP3    H1  753   5.312   0.655   2.218  1.3004 -0.2197 -0.2848
  249TIP3    H2  754   5.398   0.531   2.229 -0.7872 -1.6689  0.2832
  250TIP3   OH2  755   6.239   2.960   3.263 -0.2071  0.5093 -0.2326
  250TIP3    H1  756   6.324   2.980   3.303 -0.7246  1.5197  0.4075
  250TIP3    H2  757   6.222   2.869   3.286 -0.1351  0.8405  1.2358
  251TIP3   OH2  758   1.085   0.634   1.788  0.1653 -0.1216 -0.5456
  251TIP3    H1  759   1.153   0.615   1.853 -0.1616 -0.6257 -0.3468
  251TIP3    H2  760   1.036   0.707   1.825  0.6675  0.3173 -0.7400
  252TIP3   OH2  761   0.481   5.627   2.343  0.1927  0.1110  0.7273
  252TIP3    H1  762   0.545   5.563   2.314 -0.3756 -0.2153  0.1639
  252TIP3    H2  763   0.399   5.600   2.302 -0.1733  0.8866  0.9156
  253TIP3   OH2  764   0.766   3.426   3.590 -0.2439  0.3375  0.2311
  253TIP3    H1  765   0.847   3.433   3.540  1.0250 -2.7564  1.5579
  253TIP3    H2  766   0.793   3.441   3.681 -1.5398  1.1239  0.5008
  254TIP3   OH2  767   1.886   1.798   0.284 -0.3372  0.2452  0.2673
  254TIP3    H1  768   1.881   1.726   0.348 -4.7525 -0.0856 -0.1418
  254TIP3    H2  769   1.869   1.756   0.200 -1.2100  1.5138 -0.2099
  255TIP3   OH2  770   4.146   5.634   1.654  0.1438  0.3081  0.0671
  255TIP3    H1  771   4.114   5.691   1.725  1.0579  0.9635 -0.0278
  255TIP3    H2  772   4.079   5.639   1.587 -0.1102  0.7381  0.3492
  256TIP3   OH2  773   0.752   5.630   3.646  0.2839 -0.3999  0.5124
  256TIP3    H1  774   0.822   5.663   3.590 -0.0108 -0.3285  0.1811
  256TIP3    H2  775   0.737   5.541   3.616 -1.7553  0.4983 -1.4254
  257TIP3   OH2  776   4.836   1.500   3.237 -0.1805  0.1328 -0.7716
  257TIP3    H1  777   4.904   1.434   3.249 -0.0553  0.1619 -1.3135
  257TIP3    H2  778   4.834   1.547   3.320 -0.4110 -0.6750 -0.3017
  258TIP3   OH2  779   3.447   2.252   3.349  0.4630  0.4046  0.0704
  258TIP3    H1  780   3.361   2.288   3.331  0.5689  0.3346 -0.6169
  258TIP3    H2  781   3.454   2.176   3.291  0.4514 -0.4198  1.1050
  259TIP3   OH2  782   0.605   1.606   1.561 -0.7334 -0.1407 -0.0864
  259TIP3    H1  783   0.568   1.539   1.503  0.2552 -1.3697  0.6409
  259TIP3    H2  784   0.671   1.559   1.613 -1.1160  1.0605  1.5695
  260TIP3   OH2  785   3.431   2.028   1.369  0.4280  0.2406 -0.1242
  260TIP3    H1  786   3.516   2.012   1.409  0.7075  0.3223 -0.6697
  260TIP3    H2  787   3.445   2.105   1.313 -0.4642  1.3916  1.1737
  261TIP3   OH2  788   3.097   2.730   4.812 -0.2430  0.4002  0.0694
  261TIP3    H1  789   3.119   2.766   4.726  0.3899 -0.5778 -0.1968
  261TIP3    H2  790   3.003   2.713   4.807 -0.4685  1.5644  0.0496
  262TIP3   OH2  791   6.165   0.549   4.572  0.9808  0.0921  0.3390
  262TIP3    H1  792   6.093   0.565   4.511 -1.2260  1.0162  2.9665
  262TIP3    H2  793   6.170   0.629   4.625  1.6114 -1.2517  2.4441
  263TIP3   OH2  794   4.198   3.075   2.929  0.4430  0.5907  0.2117
  263TIP3    H1  795   4.132   3.105   2.991 -0.4113  0.2480 -0.5219
  263TIP3    H2  796   4.280   3.115   2.960  0.0184  0.4951  1.4951
  264TIP3   OH2  797   0.855   4.039   3.519  0.3995  0.8725 -0.0170
  264TIP3    H1  798   0.893   4.070   3.601  0.3199  0.9020  0.0080
  264TIP3    H2  799   0.763   4.023   3.539  0.6079 -0.1449  0.1887
  265TIP3   OH2  800   4.943   4.800   2.236  0.3447  0.2892  0.3492
  265TIP3    H1  801   4.924   4.832   2.148  1.0368 -0.5768 -0.1312
  265TIP3    H2  802   4.971   4.710   2.223  1.7877  0.5735  1.3167
  266TIP3   OH2  803   0.419   0.821   1.590  0.0575 -0.2541 -0.3362
  266TIP3    H1  804   0.479   0.863   1.528 -0.7839 -0.5918 -1.4204
  266TIP3    H2  805   0.355   0.777   1.534 -1.9272  1.0921  0.7337
  267TIP3   OH2  806   2.031   0.238   3.471  0.3423  0.0920 -0.1587
  267TIP3    H1  807   2.074   0.201   3.548  0.8499 -0.0078 -0.4808
  267TIP3    H2  808   2.100   0.241   3.405 -0.1727 -0.1432 -0.7134
  268TIP3   OH2  809   3.588   2.470   3.437  0.1579 -0.2456 -0.3311
  268TIP3    H1  810   3.543   2.396   3.398 -0.4097 -0.3352  0.4506
  268TIP3    H2  811   3.530   2.497   3.509  1.1980 -0.1524  0.4866
  269TIP3   OH2  812   5.520   4.196   1.742  0.2877  0.0974 -0.3977
  269TIP3    H1  813   5.484   4.114   1.707  0.3113 -0.2717  0.4380
  269TIP3    H2  814   5.519   4.184   1.837  2.1840  0.2597 -0.3297
  270TIP3   OH2  815   3.653   1.413   4.457  0.6531  0.3770  0.8954
  270TIP3    H1  816   3.747   1.416   4.476  0.7202 -0.9103  0.8514
  270TIP3    H2  817   3.647   1.367   4.373  0.0248  1.3693  0.3647
  271TIP3   OH2  818   1.037   5.792   2.993 -0.0951  0.3737  0.1033
  271TIP3    H1  819   1.030   5.704   3.030 -1.4041  0.4660  0.1160
  271TIP3    H2  820   0.977   5.792   2.919 -0.4124  1.3718  0.3405
  272TIP3   OH2  821   3.150   1.044   1.660  0.2833 -0.0617 -0.0806
  272TIP3    H1  822   3.120   1.135   1.656  0.1903 -0.0754  0.2412
  272TIP3    H2  823   3.193   1.036   1.745  0.3238 -0.3094 -0.1212
  273TIP3   OH2  824   6.047   3.772   4.237 -0.1615  0.6172 -0.5748
  273TIP3    H1  825   6.084   3.686   4.217 -1.5273  0.2385 -1.6550
  273TIP3    H2  826   6.021   3.807   4.152  0.9761  2.4289 -0.2408
  274TIP3   OH2  827   4.637   3.568   1.462  0.0786 -0.0415  0.3343
  274TIP3    H1  828   4.607   3.644   1.513 -0.2818 -0.4826  0.7877
  274TIP3    H2  829   4.567   3.553   1.399  0.5854  0.5890 -0.4063
  275TIP3   OH2  830   3.209   4.564   2.414 -0.2327  0.1737  0.1138
  275TIP3    H1  831   3.171   4.651   2.409  0.3640  0.4615  0.3847
  275TIP3    H2  832   3.255   4.563   2.499 -1.3749 -0.8767  0.7532
  276TIP3   OH2  833   6.089   3.901   4.486 -0.3922 -0.1675  0.0828
  276TIP3    H1  834   5.996   3.885   4.498 -0.2593  0.4048  2.3499
  276TIP3    H2  835   6.112   3.852   4.407 -1.7792 -3.7298  1.6693
  277TIP3   OH2  836   6.257   3.552   2.641  0.1648 -0.1056  0.6804
  277TIP3    H1  837   6.292   3.612   2.575 -2.4304 -2.4480 -3.2967
  277TIP3    H2  838   6.325   3.485   2.650  0.0349 -0.4616 -0.7615
  278TIP3   OH2  839   1.171   1.888   1.881 -0.0986  0.1854  0.8811
  278TIP3    H1  840   1.183   1.890   1.976  0.4794  0.3334  0.8094
  278TIP3    H2  841   1.258   1.907   1.846  0.1247 -1.7145  0.3036
  279TIP3   OH2  842   0.411   2.712   4.694  0.2285  0.1253 -0.1378
  279TIP3    H1  843   0.316   2.702   4.683  0.1063  0.9317  0.1323
  279TIP3    H2  844   0.446   2.625   4.676 -0.4757  0.0272 -1.1187
  280TIP3   OH2  845   0.251   3.104   1.540  0.5399 -0.0638  0.0286
  280TIP3    H1  846   0.208   3.069   1.461  0.5226  0.3703 -0.1542
  280TIP3    H2  847   0.335   3.137   1.509  0.1935  0.8483  0.0490
  281TIP3   OH2  848   1.277   0.770   5.041 -0.2251 -0.3141  0.1449
  281TIP3    H1  849   1.223   0.843   5.071  1.9851  1.3407  0.3890
  281TIP3    H2  850   1.306   0.727   5.121 -0.8091 -0.9454  0.0287
  282TIP3   OH2  851   5.043   3.623   2.098 -0.5614  0.2152 -0.0392
  282TIP3    H1  852   5.003   3.573   2.027 -1.4909 -1.7145  1.7435
  282TIP3    H2  853   5.039   3.714   2.068 -0.6733 -0.5335 -2.5393
  283TIP3   OH2  854   0.565   0.210   2.674  0.0817  0.1272 -0.1020
  283TIP3    H1  855   0.618   0.268   2.619  0.5014 -0.3654 -0.2209
  283TIP3    H2  856   0.489   0.264   2.699 -0.8770 -0.0663 -2.3487
  284TIP3   OH2  857   5.204   1.019   1.572  0.2221 -0.8637 -0.0920
  284TIP3    H1  858   5.201   1.110   1.543 -1.0259 -0.5318  0.9427
  284TIP3    H2  859   5.171   0.968   1.498  1.5057 -0.5586 -0.8944
  285TIP3   OH2  860   4.277   5.027   4.252  1.2330 -0.4012 -0.4898
  285TIP3    H1  861   4.246   5.041   4.162 -0.3547  0.7954  0.1997
  285TIP3    H2  862   4.199   5.038   4.306  2.7452  2.4520  1.3401
  286TIP3   OH2  863   2.401   3.964   1.320 -0.0477 -0.3774  0.1963
  286TIP3    H1  864   2.406   4.039   1.378  0.0013 -0.8533  0.8136
  286TIP3    H2  865   2.394   3.888   1.378  0.6062 -0.9109 -0.4004
  287TIP3   OH2  866   2.040   4.022   3.709  0.7258 -0.4545  0.2902
  287TIP3    H1  867   2.103   4.090   3.734  0.3120 -0.0961  0.3813
  287TIP3    H2  868   1.987   4.010   3.787 -0.0609  0.0917 -0.1447
  288TIP3   OH2  869   4.504   0.510   3.541 -0.0258 -0.5403 -0.2084
  288TIP3    H1  870   4.493   0.568   3.617 -0.0055 -0.3630 -0.3410
  288TIP3    H2  871   4.461   0.556   3.469 -1.5925 -1.5027  0.0745
  289TIP3   OH2  872   6.192   2.731   2.979  0.0426  0.5996  0.1207
  289TIP3    H1  873   6.195   2.636   2.992  1.5765  0.7164  0.9390
  289TIP3    H2  874   6.128   2.762   3.044  0.6014  0.2428  0.8649
  290TIP3   OH2  875   6.301   4.804   1.561 -0.1358  0.3016  0.1039
  290TIP3    H1  876   6.384   4.785   1.604 -0.2177 -1.3864 -0.4329
  290TIP3    H2  877   6.257   4.865   1.621 -0.0203 -1.5435  2.2043
  291TIP3   OH2  878   2.246   1.046   2.013 -0.2171 -0.6487  0.2454
  291TIP3    H1  879   2.333   1.035   1.974 -0.6435  0.7085 -1.2519
  291TIP3    H2  880   2.263   1.082   2.100  0.7908  2.3144 -1.0147
  292TIP3   OH2  881   4.826   5.929   2.626 -0.5261 -0.1224 -0.6397
  292TIP3    H1  882   4.913   5.892   2.612 -0.3488 -0.1819  0.5306
  292TIP3    H2  883   4.843   6.020   2.652 -0.7466 -0.3924  0.5076
  293TIP3   OH2  884   2.363   3.502   3.655  0.0243  0.3593  0.3966
  293TIP3    H1  885   2.297   3.505   3.586  0.9061  1.7143 -0.4553
  293TIP3    H2  886   2.433   3.448   3.619  0.0261  0.1769  0.6717
  294TIP3   OH2  887   0.559   5.396   2.939  0.3437  0.0142  0.1008
  294TIP3    H1  888   0.527   5.462   3.001  0.1840  0.8544 -0.8522
  294TIP3    H2  889   0.517   5.419   2.856 -1.6020 -2.6774  0.2018
  295TIP3   OH2  890   1.784   5.872   4.641  0.1835 -0.4484 -0.1116
  295TIP3    H1  891   1.697   5.838   4.660  0.9034 -2.1633  0.3193
  295TIP3    H2  892   1.825   5.881   4.727  0.7823 -0.6937 -0.3622
  296TIP3   OH2  893   0.053   1.215   3.569  0.0880 -0.0252 -0.2090
  296TIP3    H1  894   0.061   1.121   3.587  0.5832 -0.1691 -1.1137
  296TIP3    H2  895   0.134   1.237   3.524 -0.7782  0.4415 -1.6230
  297TIP3   OH2  896   3.288   0.402   3.776  0.5880 -0.0150  0.1099
  297TIP3    H1  897   3.374   0.366   3.757  0.9952  0.2142  1.3905
  297TIP3    H2  898   3.303   0.462   3.850 -0.7820 -0.5451  0.8532
  298TIP3   OH2  899   5.020   1.629   3.783 -0.2804 -0.4461 -0.5495
  298TIP3    H1  900   4.964   1.653   3.709 -1.5153 -0.6774  0.2933
  298TIP3    H2  901   5.011   1.534   3.791 -2.5605 -0.1404  1.7261
  299TIP3   OH2  902   2.156   5.862   4.982 -0.3087  0.7083 -0.0200
  299TIP3    H1  903   2.065   5.891   4.993 -0.6505 -0.1883 -0.3577
  299TIP3    H2  904   2.155   5.813   4.900  0.2223 -0.2827  0.5520
  300TIP3   OH2  905   4.118   1.574   0.206  0.2842  0.2374 -0.0091
  300TIP3    H1  906   4.166   1.496   0.234 -0.5739 -0.7404 -1.1403
  300TIP3    H2  907   4.186   1.637   0.184  0.9889  0.1988  1.8889
  301TIP3   OH2  908   3.823   1.711   3.635 -0.6382  1.0240  0.3605
  301TIP3    H1  909   3.744   1.691   3.686 -1.7793  3.4177 -0.2974
  301TIP3    H2  910   3.857   1.791   3.675  0.3835  1.0593 -0.5405
  302TIP3   OH2  911   3.020   2.035   1.824 -0.2838 -0.2176  0.4485
  302TIP3    H1  912   3.107   2.062   1.854  1.4004 -1.9449 -2.3856
  302TIP3    H2  913   2.973   2.010   1.904  1.6417  1.1323  2.1054
  303TIP3   OH2  914   1.317   5.806   2.627  0.2272 -0.4226  0.0023
  303TIP3    H1  915   1.253   5.875   2.646  0.0072 -1.0303  1.6088
  303TIP3    H2  916   1.265   5.733   2.594  0.1256 -0.7170  0.7781
  304TIP3   OH2  917   4.987   1.307   0.317  0.0785 -0.3929  0.0758
  304TIP3    H1  918   4.935   1.237   0.355  1.3408 -0.3007  2.1587
  304TIP3    H2  919   5.026   1.351   0.393 -0.3738  2.3469 -1.1789
  305TIP3   OH2  920   2.374   3.821   3.480  0.6409 -0.2937 -0.5217
  305TIP3    H1  921   2.302   3.806   3.419 -0.2064 -1.5054  0.7073
  305TIP3    H2  922   2.440   3.757   3.456  0.2522 -0.8607 -0.0929
  306TIP3   OH2  923   0.460   0.686   0.778  0.0038 -0.0658  0.3675
  306TIP3    H1  924   0.374   0.663   0.813  0.8875 -0.4036  2.5174
  306TIP3    H2  925   0.518   0.686   0.855  1.9785 -0.0958 -1.0324
  307TIP3   OH2  926   5.705   5.829   2.395  0.3693  0.3948  0.0425
  307TIP3    H1  927   5.701   5.818   2.490  0.6208  0.2204  0.0361
  307TIP3    H2  928   5.704   5.739   2.361  0.4482  0.4523 -0.1106
  308TIP3   OH2  929   5.117   2.849   2.352 -0.0577  0.6040 -0.3251
  308TIP3    H1  930   5.109   2.925   2.411  1.8935  1.7415 -1.4193
  308TIP3    H2  931   5.082   2.881   2.269  0.3601  0.1491 -0.6751
  309TIP3   OH2  932   2.158   4.386   0.910 -0.0438 -0.2048 -0.4184
  309TIP3    H1  933   2.154   4.291   0.903 -2.2959 -0.0972 -1.4833
  309TIP3    H2  934   2.174   4.404   1.003  0.2203 -1.6058 -0.1830
  310TIP3   OH2  935   4.645   2.951   3.676 -0.6129 -0.2264 -0.2962
  310TIP3    H1  936   4.587   2.960   3.600 -0.8246 -2.4165 -0.4512
  310TIP3    H2  937   4.608   3.010   3.741 -0.9484  1.0418 -1.5823
  311TIP3   OH2  938   6.098   3.463   2.415  0.0495  0.5932 -0.1257
  311TIP3    H1  939   6.125   3.498   2.499 -1.2138  0.5368  0.3217
  311TIP3    H2  940   6.159   3.391   2.398  0.5109  0.8122  0.5771
  312TIP3   OH2  941   0.484   2.191   3.965  0.1687 -0.1791  0.1502
  312TIP3    H1  942   0.438   2.110   3.941  1.6744 -1.1573  0.4145
  312TIP3    H2  943   0.482   2.192   4.061  0.8372 -0.3259  0.1698
  313TIP3   OH2  944   5.235   1.369   1.812  0.6890 -0.3438  0.0684
  313TIP3    H1  945   5.282   1.427   1.752 -0.2119  0.5680  0.2055
  313TIP3    H2  946   5.146   1.405   1.816  0.3667 -1.1748  0.9088
  314TIP3   OH2  947   4.450   3.153   2.480  0.1039  0.1411 -0.1620
  314TIP3    H1  948   4.439   3.186   2.569 -2.5221  5.1555 -1.9343
  314TIP3    H2  949   4.361   3.134   2.451  0.6936  0.2884 -2.2180
  315TIP3   OH2  950   1.511   5.115   0.823  0.2756 -0.1525  0.3705
  315TIP3    H1  951   1.515   5.104   0.728 -0.2315 -1.8479  0.5166
  315TIP3    H2  952   1.436   5.172   0.838  0.2317 -0.0496 -0.2268
  316TIP3   OH2  953   3.730   5.302   3.922  0.2103  0.1442  0.4892
  316TIP3    H1  954   3.785   5.249   3.864 -0.5440 -0.6542  0.4802
  316TIP3    H2  955   3.790   5.334   3.989  1.5064  2.6532 -1.6909
  317TIP3   OH2  956   3.698   4.958   1.148 -0.1596 -0.0123 -0.1777
  317TIP3    H1  957   3.786   4.927   1.167  0.4247  1.1102 -0.9186
  317TIP3    H2  958   3.682   4.934   1.057 -0.9160 -0.8512  0.1625
  318TIP3   OH2  959   5.147   0.792   3.526  0.2697 -0.1548 -0.5129
  318TIP3    H1  960   5.207   0.743   3.581 -1.3328 -2.0069 -0.3094
  318TIP3    H2  961   5.060   0.773   3.561 -0.5906  1.0162 -1.8601
  319TIP3   OH2  962   2.202   3.580   2.005 -0.4549  0.0337 -0.1855
  319TIP3    H1  963   2.173   3.566   1.915 -3.2054 -1.6387  0.8028
  319TIP3    H2  964   2.285   3.534   2.011  0.3357  1.0892 -2.0816
  320TIP3   OH2  965   1.927   3.077   0.778 -0.1160 -0.3567  0.2060
  320TIP3    H1  966   2.021   3.066   0.795 -0.2219 -2.0429 -0.1082
  320TIP3    H2  967   1.890   2.991   0.797 -1.7052  0.4513  0.9013
  321TIP3   OH2  968   1.817   5.644   0.338 -0.5536 -0.5396 -0.4354
  321TIP3    H1  969   1.776   5.591   0.406  2.4213 -1.6451  0.6454
  321TIP3    H2  970   1.845   5.724   0.384 -1.4271  0.2008 -1.1519
  322TIP3   OH2  971   0.340   4.142   4.628 -0.0191 -0.0908  0.0493
  322TIP3    H1  972   0.312   4.181   4.711  0.2585 -0.9466  0.5549
  322TIP3    H2  973   0.262   4.099   4.595  0.3333 -1.3614  0.8145
  323TIP3   OH2  974   2.739   5.860   4.182 -0.3034 -0.2028  0.1575
  323TIP3    H1  975   2.682   5.910   4.240 -1.3743 -0.4508 -0.6417
  323TIP3    H2  976   2.691   5.779   4.165  0.3496 -0.4800 -0.4288
  324TIP3   OH2  977   0.159   2.587   0.682 -0.2949 -0.5018 -0.1401
  324TIP3    H1  978   0.112   2.574   0.764  1.3843 -1.0746  0.7776
  324TIP3    H2  979   0.161   2.501   0.641 -0.8571 -0.2811 -0.6424
  325TIP3   OH2  980   6.305   1.688   4.498  0.4727 -0.1477  0.2084
  325TIP3    H1  981   6.212   1.672   4.482  0.6609  0.1544 -1.3294
  325TIP3    H2  982   6.312   1.700   4.593 -1.2280  0.9227  0.2309
  326TIP3   OH2  983   4.830   1.554   5.069  0.1511 -0.0062 -0.2307
  326TIP3    H1  984   4.748   1.564   5.117  1.2726 -1.5314  2.2646
  326TIP3    H2  985   4.824   1.467   5.030  0.9593 -0.6154  0.9294
  327TIP3   OH2  986   3.074   1.448   0.346 -0.2137 -0.4717  0.5845
  327TIP3    H1  987   3.170   1.456   0.344 -0.2670  0.1781 -1.4426
  327TIP3    H2  988   3.045   1.527   0.392  0.1987 -0.1433  0.2964
  328TIP3   OH2  989   4.298   2.928   0.826 -0.3140 -0.0654  0.5735
  328TIP3    H1  990   4.374   2.966   0.871 -1.8430  1.8075  1.7124
  328TIP3    H2  991   4.244   3.003   0.802 -1.8650 -1.3555 -0.1187
  329TIP3   OH2  992   5.442   0.849   4.236  0.9039  0.3293 -0.3998
  329TIP3    H1  993   5.411   0.933   4.203 -0.5815 -0.3768 -0.8565
  329TIP3    H2  994   5.397   0.837   4.320  1.4904  0.2013 -0.0930
  330TIP3   OH2  995   5.958   4.614   4.660  0.1318 -0.0810  0.1648
  330TIP3    H1  996   5.947   4.519   4.669 -0.1920 -0.2522 -1.6222
  330TIP3    H2  997   5.886   4.651   4.711 -1.0732 -0.8832 -0.8772
  331TIP3   OH2  998   3.727  -0.023   4.385  0.7606 -0.1899  0.0120
  331TIP3    H1  999   3.723   0.073   4.380  0.7333 -0.2618 -1.6961
  331TIP3    H2 1000   3.639  -0.049   4.410  0.9508  0.2406  1.2303
  332TIP3   OH2 1001   2.900   4.478   2.376  0.1887  0.0645 -0.1493
  332TIP3    H1 1002   2.976   4.470   2.434 -1.6966 -1.7493  2.3080
  332TIP3    H2 1003   2.827   4.441   2.427 -2.1257  0.6067 -2.8191
  333TIP3   OH2 1004   4.834   1.682   0.688 -0.0678 -0.0730 -0.0847
  333TIP3    H1 1005   4.893   1.748   0.652 -0.0865  0.1207  0.2327
  333TIP3    H2 1006   4.775   1.731   0.746  1.6727 -0.6780  2.3985
  334TIP3   OH2 1007   1.485   2.629   5.100  0.4144  0.7458 -0.5082
  334TIP3    H1 1008   1.477   2.542   5.141  1.6919  0.7849 -0.1276
  334TIP3    H2 1009   1.395   2.661   5.095 -0.0492 -0.4508 -0.3311
  335TIP3   OH2 1010   5.911   0.642   1.369 -0.0227  0.4404  0.2792
  335TIP3    H1 1011   5.960   0.627   1.450  0.8798 -0.6221 -0.4331
  335TIP3    H2 1012   5.897   0.737   1.366  0.0486  0.5040  1.5982
  336TIP3   OH2 1013   5.511   4.152   3.593  0.6140  0.2859 -0.0244
  336TIP3    H1 1014   5.505   4.156   3.497 -0.5376 -1.4388 -0.0774
  336TIP3    H2 1015   5.440   4.209   3.623  1.8291  1.9197 -0.1303
  337TIP3   OH2 1016   4.712   1.123   1.344 -0.1423  0.2034 -0.2737
  337TIP3    H1 1017   4.630   1.082   1.370 -0.6166  0.2096 -1.6674
  337TIP3    H2 1018   4.703   1.215   1.370  0.5412 -0.3091  2.0012
  338TIP3   OH2 1019   2.971   3.583   1.479 -0.0725 -0.2847 -0.7096
  338TIP3    H1 1020   3.039   3.578   1.412 -0.2881 -0.0949 -0.9475
  338TIP3    H2 1021   2.979   3.672   1.515 -0.3665 -0.1681 -0.9271
  339TIP3   OH2 1022   1.758   1.348   0.631 -0.2275  0.5513 -0.0174
  339TIP3    H1 1023   1.800   1.334   0.716  0.0961  0.4557 -0.1928
  339TIP3    H2 1024   1.810   1.296   0.570 -0.0723  1.1278 -0.3793
  340TIP3   OH2 1025   4.970   5.399   2.937 -0.3278 -0.3979  0.4222
  340TIP3    H1 1026   5.028   5.465   2.898  0.5150 -0.9180  0.7864
  340TIP3    H2 1027   4.918   5.367   2.863 -0.7617  0.6732  0.2414
  341TIP3   OH2 1028   3.513   2.802   0.688 -0.0617 -0.1757 -0.0738
  341TIP3    H1 1029   3.435   2.857   0.696 -1.2621 -1.7993  0.0332
  341TIP3    H2 1030   3.568   2.847   0.625 -1.1391  0.9645 -0.2411
  342TIP3   OH2 1031   0.398   2.668   2.131 -0.6726 -0.4882  0.0314
  342TIP3    H1 1032   0.451   2.748   2.131  1.4181 -1.7760  0.4095
  342TIP3    H2 1033   0.383   2.649   2.039  1.3302 -1.1395 -0.2234
  343TIP3   OH2 1034   4.886   5.262   0.700  0.0552 -0.4568 -0.7001
  343TIP3    H1 1035   4.923   5.335   0.749  0.5191 -0.7286 -0.6374
  343TIP3    H2 1036   4.794   5.259   0.727 -0.3520  1.0067 -1.8005
  344TIP3   OH2 1037   4.221   4.490   4.806  0.6932  0.1412  0.0051
  344TIP3    H1 1038   4.238   4.540   4.886  2.8406 -0.7075  0.1313
  344TIP3    H2 1039   4.282   4.526   4.741  0.8679 -0.9546 -0.4667
  345TIP3   OH2 1040   3.076   5.511   3.419 -0.3251 -0.3799 -0.0055
  345TIP3    H1 1041   3.088   5.489   3.327  0.9311 -0.9712  0.2751
  345TIP3    H2 1042   3.154   5.563   3.442  0.1543 -1.5120  1.0796
  346TIP3   OH2 1043   5.733   0.887   4.798  0.0843  0.2357 -0.2433
  346TIP3    H1 1044   5.703   0.939   4.872 -0.7530  1.4367 -1.3622
  346TIP3    H2 1045   5.688   0.925   4.723  2.3402  0.3259 -1.6591
  347TIP3   OH2 1046   4.818   1.116   3.536  0.4254 -0.5413 -0.3657
  347TIP3    H1 1047   4.725   1.129   3.558  0.7183  1.6723 -0.1220
  347TIP3    H2 1048   4.834   1.024   3.553 -1.0944 -0.4484  2.2705
  348TIP3   OH2 1049   4.059   4.548   5.116 -0.3164 -0.0954 -0.5182
  348TIP3    H1 1050   3.969   4.517   5.133 -0.5095  0.4804 -0.4765
  348TIP3    H2 1051   4.047   4.624   5.059 -0.1011  2.1903  2.3087
  349TIP3   OH2 1052   5.044   2.138   1.025 -0.1457 -0.2923 -0.2794
  349TIP3    H1 1053   5.079   2.171   0.942  1.1627 -1.9005 -0.4358
  349TIP3    H2 1054   5.104   2.172   1.091 -0.8657  0.5311 -0.0366
  350TIP3   OH2 1055   5.252   5.190   4.868  0.2368 -0.6211  0.3761
  350TIP3    H1 1056   5.237   5.148   4.953 -1.7489  1.0852  0.9441
  350TIP3    H2 1057   5.192   5.264   4.867 -0.3874 -1.0329 -2.8529
  351TIP3   OH2 1058   2.512   1.954   1.091 -0.0410 -0.1266  0.2500
  351TIP3    H1 1059   2.591   1.971   1.040  0.6660 -0.0040  1.3417
  351TIP3    H2 1060   2.510   1.859   1.100  0.3078 -0.0915  0.7135
  352TIP3   OH2 1061   2.957   4.575   2.134  0.0428 -0.5862  0.2475
  352TIP3    H1 1062   2.941   4.563   2.228  0.9483  1.9730  0.8059
  352TIP3    H2 1063   3.050   4.558   2.123 -0.2455 -1.8798 -0.4279
  353TIP3   OH2 1064   5.615   2.567   2.055  0.0137  0.2685  0.3958
  353TIP3    H1 1065   5.666   2.619   1.992 -1.1409 -0.8907 -1.6046
  353TIP3    H2 1066   5.672   2.494   2.076  0.4888  0.7711  0.8961
  354TIP3   OH2 1067   4.426   4.964   0.715 -0.3110 -0.2585 -0.2987
  354TIP3    H1 1068   4.442   4.876   0.750 -1.8332  0.5772  2.8621
  354TIP3    H2 1069   4.513   5.003   0.708  0.2044 -1.0416  1.2136
  355TIP3   OH2 1070   1.107   3.650   1.492 -0.3195 -0.3487 -0.2595
  355TIP3    H1 1071   1.088   3.581   1.428 -1.1337 -1.8168  1.4731
  355TIP3    H2 1072   1.127   3.603   1.573  0.2513  1.4536  0.6953
  356TIP3   OH2 1073   0.022   5.048   2.844 -0.1551 -0.1690 -0.1475
  356TIP3    H1 1074   0.050   4.959   2.822  0.9498  0.5067 -1.5911
  356TIP3    H2 1075   0.079   5.073   2.917 -0.4967 -0.6484  0.2896
  357TIP3   OH2 1076   1.779   2.938   1.244 -0.8000 -0.4738  0.0714
  357TIP3    H1 1077   1.728   2.861   1.267  0.3200 -1.0103  0.8687
  357TIP3    H2 1078   1.870   2.907   1.244 -0.4327  0.5442 -0.8827
  358TIP3   OH2 1079   3.989   4.320   0.720  0.0376 -0.2571  0.5581
  358TIP3    H1 1080   4.009   4.287   0.808 -0.3554 -0.6964  0.4790
  358TIP3    H2 1081   3.922   4.387   0.735 -1.1081 -1.3653  0.4456
  359TIP3   OH2 1082   1.355   0.713   3.230  0.2477 -0.1393 -0.5270
  359TIP3    H1 1083   1.313   0.707   3.144  1.5382  0.9919 -1.2737
  359TIP3    H2 1084   1.341   0.626   3.269 -3.5669  0.4088 -0.2852
  360TIP3   OH2 1085   5.208   2.159   2.704 -0.4038 -0.4760 -0.2034
  360TIP3    H1 1086   5.295   2.195   2.685 -0.8102  1.7153  1.6411
  360TIP3    H2 1087   5.152   2.191   2.634 -0.0162 -0.6686 -0.6052
  361TIP3   OH2 1088   0.124   0.650   3.493 -0.0518  0.2310  0.0526
  361TIP3    H1 1089   0.157   0.613   3.411  0.7696  0.5951  0.2020
  361TIP3    H2 1090   0.029   0.650   3.484  0.0537  1.2065 -1.3257
  362TIP3   OH2 1091   0.256   2.612   4.457 -0.4046 -0.3832  0.2661
  362TIP3    H1 1092   0.236   2.552   4.529  0.5708  0.8238  1.5964
  362TIP3    H2 1093   0.179   2.669   4.452 -0.3058 -0.2194  0.6156
  363TIP3   OH2 1094   4.611   0.893   3.397  0.4589  0.0734 -0.6567
  363TIP3    H1 1095   4.517   0.896   3.378  0.3529  0.2227 -0.1351
  363TIP3    H2 1096   4.620   0.940   3.480  1.0961  0.6606 -1.0580
  364TIP3   OH2 1097   3.757   3.244   3.289 -0.0556 -0.4244  0.3931
  364TIP3    H1 1098   3.720   3.164   3.250  0.1417 -0.1600 -0.3655
  364TIP3    H2 1099   3.764   3.225   3.382  0.1839 -1.3785  0.1895
  365TIP3   OH2 1100   5.036   5.867   3.508  0.7077 -0.3153  0.3687
  365TIP3    H1 1101   4.996   5.793   3.553  0.7698 -1.1991 -0.9682
  365TIP3    H2 1102   5.015   5.943   3.563 -1.1506 -1.0099  0.6840
  366TIP3   OH2 1103   3.641   5.817   4.271 -0.2373  0.5783  0.2787
  366TIP3    H1 1104   3.560   5.811   4.320 -0.4232 -1.0390 -0.1548
  366TIP3    H2 1105   3.617   5.860   4.189 -0.7070 -0.0752  0.0680
  367TIP3   OH2 1106   5.464   3.026   3.999  0.4728 -0.8831 -0.2270
  367TIP3    H1 1107   5.560   3.031   3.998  0.4712 -0.1442 -2.3822
  367TIP3    H2 1108   5.439   3.017   3.907 -1.6077  1.1156  0.0392
  368TIP3   OH2 1109   1.292   0.230   3.778 -0.3589  0.0246 -0.1700
  368TIP3    H1 1110   1.333   0.315   3.791  0.5971 -0.4111 -0.2705
  368TIP3    H2 1111   1.203   0.242   3.810  0.6075  0.2133  2.7404
  369TIP3   OH2 1112   3.989   2.485   4.319  0.3359 -0.1350  0.1066
  369TIP3    H1 1113   3.979   2.539   4.398  0.3594 -0.6341  0.4573
  369TIP3    H2 1114   4.063   2.428   4.339  0.5540 -0.0412 -0.4127
  370TIP3   OH2 1115   3.251   2.349   1.221  0.3173  0.5857  0.0480
  370TIP3    H1 1116   3.328   2.387   1.178  0.1156  1.1095  0.1374
  370TIP3    H2 1117   3.278   2.336   1.312  1.6189 -2.9053 -0.6656
  371TIP3   OH2 1118   6.211   4.990   1.740  0.1540  0.1407 -0.4454
  371TIP3    H1 1119   6.180   5.073   1.703  1.5591  0.2447 -1.5008
  371TIP3    H2 1120   6.267   5.017   1.813 -0.7980  0.0248  0.3479
  372TIP3   OH2 1121   2.591   3.168   3.188 -0.4305  0.1813 -0.0560
  372TIP3    H1 1122   2.594   3.112   3.110  0.0004 -1.7185  1.2442
  372TIP3    H2 1123   2.597   3.106   3.262 -3.1816  1.6575  1.5778
  373TIP3   OH2 1124   2.331   2.049   2.237  0.1699  0.0416  0.1540
  373TIP3    H1 1125   2.324   2.055   2.332 -2.5640 -0.2514  0.0519
  373TIP3    H2 1126   2.380   1.968   2.221  0.5527  0.0352  1.2970
  374TIP3   OH2 1127   3.470   4.837   2.058 -0.6309 -0.3148  0.3054
  374TIP3    H1 1128   3.546   4.833   2.001 -0.9347  1.0415 -0.2287
  374TIP3    H2 1129   3.429   4.751   2.050  0.6127 -0.9213  0.3007
  375TIP3   OH2 1130   3.765   4.551   4.748 -0.0280  0.6890 -0.4314
  375TIP3    H1 1131   3.830   4.573   4.814 -0.5145 -0.6777  0.5418
  375TIP3    H2 1132   3.694   4.509   4.797 -1.3480  1.5091 -1.5483
  376TIP3   OH2 1133   5.836   3.521   0.047  0.1938  0.3180  0.0908
  376TIP3    H1 1134   5.789   3.538  -0.035 -0.0075 -0.3464  0.0603
  376TIP3    H2 1135   5.858   3.428   0.043 -0.0780  0.2053  0.9148
  377TIP3   OH2 1136   2.948   2.016   4.249 -0.3380 -0.2789  0.4571
  377TIP3    H1 1137   2.909   2.018   4.162 -0.9698 -2.4573  0.6517
  377TIP3    H2 1138   3.025   1.959   4.239 -0.3647 -0.4667  1.3085
  378TIP3   OH2 1139   4.268   3.666   0.334  0.4771  0.0533 -0.7266
  378TIP3    H1 1140   4.361   3.681   0.351  0.1907  0.7856  0.3161
  378TIP3    H2 1141   4.245   3.592   0.389  0.0632  0.9818  0.3872
  379TIP3   OH2 1142   2.175   4.718   0.169  0.0682 -0.4613  0.3939
  379TIP3    H1 1143   2.186   4.634   0.212  0.1451 -0.7637 -0.2145
  379TIP3    H2 1144   2.106   4.704   0.104  0.8836 -0.3752 -0.5207
  380TIP3   OH2 1145   5.878   4.925   4.860 -0.2653 -0.1378 -0.1078
  380TIP3    H1 1146   5.858   4.903   4.769  0.7593  0.1824 -0.4189
  380TIP3    H2 1147   5.829   4.860   4.911 -1.0792 -0.1420 -0.8722
  381TIP3   OH2 1148   3.462   3.822   0.346 -0.2013 -0.4528 -0.0804
  381TIP3    H1 1149   3.390   3.817   0.409 -0.0442  2.3072  0.4393
  381TIP3    H2 1150   3.541   3.815   0.399 -0.0876  0.0205 -0.1780
  382TIP3   OH2 1151   5.146   3.284   4.198  0.4541  0.3052 -0.3047
  382TIP3    H1 1152   5.127   3.240   4.115  0.3224 -0.0366 -0.0965
  382TIP3    H2 1153   5.220   3.236   4.235  1.1422  1.0516 -0.6689
  383TIP3   OH2 1154   5.888   5.424   2.914 -0.4627 -0.1601  0.3903
  383TIP3    H1 1155   5.911   5.515   2.932 -0.8701 -0.1219  0.7531
  383TIP3    H2 1156   5.854   5.425   2.825  0.3668 -0.1166  0.0655
  384TIP3   OH2 1157   2.553   0.416   4.609  0.6250  0.2642 -0.0957
  384TIP3    H1 1158   2.592   0.501   4.586  2.3344 -0.7790 -1.2229
  384TIP3    H2 1159   2.531   0.376   4.525 -1.8351  0.2793  0.4783
  385TIP3   OH2 1160   5.852   0.561   3.235 -0.5267  0.3212 -0.2446
  385TIP3    H1 1161   5.763   0.556   3.202 -0.9369  1.8340  0.5598
  385TIP3    H2 1162   5.859   0.490   3.298 -1.1658  0.1912 -0.3180
  386TIP3   OH2 1163   0.539   2.696   3.544 -0.1495 -0.2479  0.0091
  386TIP3    H1 1164   0.505   2.686   3.633 -0.3446 -2.9934 -0.2926
  386TIP3    H2 1165   0.628   2.727   3.556  0.3115 -1.9087  1.2905
  387TIP3   OH2 1166   0.778   0.068   0.611  0.5610  0.4833  0.2417
  387TIP3    H1 1167   0.836   0.092   0.683 -1.0903 -1.7583  2.4943
  387TIP3    H2 1168   0.813  -0.015   0.579  0.1466  0.4917 -0.2436
  388TIP3   OH2 1169   2.725   3.197   2.415 -0.1915  0.3826  0.5811
  388TIP3    H1 1170   2.768   3.208   2.331  0.7815  1.1089  1.1623
  388TIP3    H2 1171   2.738   3.105   2.437 -0.8401  0.0766 -0.2509
  389TIP3   OH2 1172   0.072   3.787   3.771  0.3675  0.3555 -0.4679
  389TIP3    H1 1173   0.164   3.770   3.753  0.3337  0.6426 -0.9230
  389TIP3    H2 1174   0.054   3.871   3.729 -0.0378  0.4198 -0.1677
  390TIP3   OH2 1175   5.724   4.359   1.651  0.2584  0.4005 -0.5437
  390TIP3    H1 1176   5.647   4.303   1.650  1.1102 -0.8120 -1.0410
  390TIP3    H2 1177   5.750   4.363   1.743  0.6070 -0.6558 -0.5802
  391TIP3   OH2 1178   0.646   6.010   4.668 -0.2443  0.0843 -0.1376
  391TIP3    H1 1179   0.606   6.024   4.582 -2.2004  0.0128  0.6980
  391TIP3    H2 1180   0.645   5.915   4.680  1.8918 -0.0876 -0.8061
  392TIP3   OH2 1181   4.087   5.768   0.664 -0.1749  0.2411  0.5071
  392TIP3    H1 1182   4.144   5.778   0.740 -0.9950  1.1443  1.0391
  392TIP3    H2 1183   4.041   5.685   0.679 -0.0375  0.2146  0.7970
  393TIP3   OH2 1184   5.626   0.648   2.345 -0.4327  0.2224 -0.9281
  393TIP3    H1 1185   5.566   0.650   2.270  0.9678  0.7083 -2.0767
  393TIP3    H2 1186   5.699   0.704   2.319 -0.5212  1.5248  1.3648
  394TIP3   OH2 1187   3.595   5.222   1.721  0.1754 -0.3029 -0.2177
  394TIP3    H1 1188   3.504   5.209   1.748 -0.0081  1.6525  0.2683
  394TIP3    H2 1189   3.645   5.157   1.770 -0.7714 -0.2850  0.7997
  395TIP3   OH2 1190   4.706   5.695   4.359 -0.6438  0.4502 -0.1607
  395TIP3    H1 1191   4.649   5.764   4.324 -0.5521  0.6183  0.0169
  395TIP3    H2 1192   4.795   5.728   4.343 -0.6010  0.4738  0.1180
  396TIP3   OH2 1193   3.485   1.303   1.473 -0.6695  0.1285 -0.1200
  396TIP3    H1 1194   3.550   1.288   1.542 -1.1183 -1.0230  0.0745
  396TIP3    H2 1195   3.526   1.268   1.394 -1.2729 -1.1908  0.1213
  397TIP3   OH2 1196   3.925   4.871   0.346  0.5064 -0.6179 -0.1453
  397TIP3    H1 1197   3.943   4.784   0.310 -0.8400 -0.8849 -0.2266
  397TIP3    H2 1198   3.830   4.876   0.350  0.5801  0.5801  0.5539
  398TIP3   OH2 1199   4.197   0.045   4.702 -0.2789  0.1346 -0.2995
  398TIP3    H1 1200   4.260   0.117   4.696  1.2221 -1.1288 -0.3209
  398TIP3    H2 1201   4.127   0.080   4.758  0.2070  1.7288 -0.6272
  399TIP3   OH2 1202   1.232   1.928   3.915  0.5778 -0.2868 -0.3734
  399TIP3    H1 1203   1.199   1.847   3.955 -0.7434  0.0536 -0.7152
  399TIP3    H2 1204   1.176   1.997   3.950 -0.1729  0.1090 -2.2256
  400TIP3   OH2 1205   4.642   3.249   0.867  0.0606 -0.2186 -0.1568
  400TIP3    H1 1206   4.658   3.302   0.945 -0.2721 -0.0419 -0.2067
  400TIP3    H2 1207   4.591   3.306   0.809  0.8472 -0.1149 -0.7767
  401TIP3   OH2 1208   3.876   5.405   2.490 -0.1956 -0.5879  0.3106
  401TIP3    H1 1209   3.785   5.385   2.515 -0.2294 -1.3177 -0.3653
  401TIP3    H2 1210   3.879   5.500   2.488 -1.1044 -0.5513 -0.1821
  402TIP3   OH2 1211   5.173   1.736   4.719 -0.0971 -0.3492  0.2383
  402TIP3    H1 1212   5.243   1.696   4.770  0.4188  0.1955 -0.0444
  402TIP3    H2 1213   5.213   1.810   4.674 -1.0878  0.6278  0.9007
  403TIP3   OH2 1214   4.623   5.123   5.123  0.0772 -0.3456  0.2919
  403TIP3    H1 1215   4.625   5.101   5.030 -0.8595 -2.1430  0.6594
  403TIP3    H2 1216   4.672   5.053   5.166 -1.1096 -0.5767  1.3211
  404TIP3   OH2 1217   5.241   5.322   1.028  0.1868  0.6675  0.5937
  404TIP3    H1 1218   5.281   5.395   1.075  0.6358  0.0229  1.2488
  404TIP3    H2 1219   5.266   5.245   1.079 -1.1112  0.1491  0.4832
  405TIP3   OH2 1220   4.603   2.196   3.297  0.3549  0.1258 -0.1847
  405TIP3    H1 1221   4.649   2.126   3.344  1.2408  0.7823 -0.0463
  405TIP3    H2 1222   4.621   2.179   3.205 -2.1940 -1.7344 -0.4330
  406TIP3   OH2 1223   5.366   5.798   3.966  0.2673  0.4018 -0.0541
  406TIP3    H1 1224   5.365   5.759   3.879  0.0286  1.6869 -0.6420
  406TIP3    H2 1225   5.277   5.788   3.998  0.5567 -0.8411  0.4129
  407TIP3   OH2 1226   6.225   5.228   3.613 -0.4438  0.1553 -0.1550
  407TIP3    H1 1227   6.220   5.139   3.578 -2.6485 -0.1254  0.6983
  407TIP3    H2 1228   6.207   5.219   3.706  1.8107  1.2762  0.4641
  408TIP3   OH2 1229   6.067   5.061   1.090  0.2281  0.2692  0.4789
  408TIP3    H1 1230   6.036   5.137   1.040 -1.6317 -0.9728 -0.3663
  408TIP3    H2 1231   6.075   5.093   1.180 -2.8868  0.9444  0.6356
  409TIP3   OH2 1232   1.072   5.860   1.513 -0.0339  0.8675  0.2357
  409TIP3    H1 1233   1.164   5.864   1.486  0.0205  0.2113  0.3015
  409TIP3    H2 1234   1.066   5.780   1.565 -0.7188  0.7068 -0.0765
  410TIP3   OH2 1235   2.106   2.144   5.167  0.0439  0.1703 -0.5858
  410TIP3    H1 1236   2.049   2.085   5.117 -1.8850  0.5316  1.0734
  410TIP3    H2 1237   2.193   2.107   5.155 -1.0602 -3.1715  0.4909
  411TIP3   OH2 1238   4.786   3.058   0.753 -0.2737 -0.4576 -0.0920
  411TIP3    H1 1239   4.736   3.137   0.769  1.0512  0.6385 -1.1219
  411TIP3    H2 1240   4.860   3.064   0.814 -1.3862 -2.1312  1.5292
  412TIP3   OH2 1241   1.407   4.079   4.197 -0.5853  0.4162 -0.1858
  412TIP3    H1 1242   1.478   4.024   4.162 -2.1994 -1.6652 -0.3346
  412TIP3    H2 1243   1.403   4.153   4.135 -0.2185 -0.7356 -1.6507
  413TIP3   OH2 1244   0.612   3.037   1.039 -0.1154 -0.7405  0.4477
  413TIP3    H1 1245   0.602   3.041   0.944 -0.2436 -0.0781  0.4873
  413TIP3    H2 1246   0.641   3.124   1.064 -1.5423 -0.4429  1.1831
  414TIP3   OH2 1247   5.555   3.310   0.154 -0.0557  0.0869 -0.1177
  414TIP3    H1 1248   5.612   3.296   0.230 -0.9892  0.3985  0.6700
  414TIP3    H2 1249   5.588   3.250   0.088 -0.0024 -1.1515  0.9789
  415TIP3   OH2 1250   4.966   1.084   3.820 -0.0519  0.0787 -0.3370
  415TIP3    H1 1251   4.895   1.020   3.831 -0.6790  0.8270  0.0966
  415TIP3    H2 1252   5.030   1.060   3.887  1.2363 -2.0058 -2.1694
  416TIP3   OH2 1253   3.198   4.182   2.931 -0.1561  0.0600  0.5020
  416TIP3    H1 1254   3.169   4.098   2.966  0.5589  0.0153  1.0288
  416TIP3    H2 1255   3.252   4.159   2.856 -1.5178  0.1467 -0.5383
  417TIP3   OH2 1256   1.538   2.060   4.638 -0.1338  0.2902 -0.0684
  417TIP3    H1 1257   1.506   2.143   4.602  3.0446  1.0390 -1.5377
  417TIP3    H2 1258   1.496   1.993   4.584 -0.1958  1.1344 -1.1122
  418TIP3   OH2 1259   4.164   2.740   0.498 -0.0108 -0.2817 -0.0847
  418TIP3    H1 1260   4.225   2.704   0.434 -1.2570 -0.9803 -0.9109
  418TIP3    H2 1261   4.151   2.831   0.470  0.8948 -0.0034  0.3203
  419TIP3   OH2 1262   0.279   5.375   5.137  0.0063 -0.1635  0.0177
  419TIP3    H1 1263   0.349   5.394   5.199  0.1505  0.3734 -0.3096
  419TIP3    H2 1264   0.234   5.299   5.175 -0.3426  0.5769  1.1465
  420TIP3   OH2 1265   5.801   0.915   0.284  0.2385 -0.3133  0.0428
  420TIP3    H1 1266   5.708   0.891   0.287 -0.1609  1.1809  1.5077
  420TIP3    H2 1267   5.838   0.862   0.214 -1.3244 -2.2853  0.6224
  421TIP3   OH2 1268   5.466   4.948   0.348 -0.0937  0.3098  0.2171
  421TIP3    H1 1269   5.403   4.973   0.280  0.7851  1.1435 -0.3239
  421TIP3    H2 1270   5.423   4.878   0.397 -1.9470  1.7095  0.6693
  422TIP3   OH2 1271   3.155   3.034   3.571  0.6006  0.3283 -0.0278
  422TIP3    H1 1272   3.147   2.953   3.520 -0.0331 -1.4860  2.7035
  422TIP3    H2 1273   3.066   3.053   3.601  1.1131  0.5448  1.4354
  423TIP3   OH2 1274   2.606   3.458   0.360  0.3531  0.4998  0.1084
  423TIP3    H1 1275   2.604   3.543   0.316  2.7543  0.5029 -0.1343
  423TIP3    H2 1276   2.661   3.472   0.437 -0.5399 -0.4692  0.9528
  424TIP3   OH2 1277   3.697   5.228   3.080  0.4989 -0.0187 -0.3960
  424TIP3    H1 1278   3.663   5.166   3.015  0.5264  0.0202 -0.4470
  424TIP3    H2 1279   3.792   5.228   3.066  0.3465  1.3562 -1.5593
  425TIP3   OH2 1280   4.550   4.520   4.365  0.0917  0.2010  0.4139
  425TIP3    H1 1281   4.482   4.461   4.333  0.8678  0.0998 -1.1156
  425TIP3    H2 1282   4.574   4.484   4.451 -0.3290 -0.9570  0.0657
  426TIP3   OH2 1283   5.794   4.051   2.964  0.2898 -0.5350 -0.5431
  426TIP3    H1 1284   5.860   4.121   2.960 -0.7903  0.5024 -0.7229
  426TIP3    H2 1285   5.757   4.048   2.876  1.6282 -2.6917 -1.1085
  427TIP3   OH2 1286   0.098   5.149   4.669  0.2438  0.1457  0.0253
  427TIP3    H1 1287   0.152   5.227   4.687  0.4733 -0.1208  0.5207
  427TIP3    H2 1288   0.055   5.130   4.752 -2.0907  1.4434 -0.8119
  428TIP3   OH2 1289   1.914   4.343   4.857  0.0908  0.3371  0.0332
  428TIP3    H1 1290   1.892   4.272   4.917 -0.6227  0.4466 -0.0904
  428TIP3    H2 1291   2.007   4.360   4.873 -0.1742  0.6071  1.3580
  429TIP3   OH2 1292   0.370   5.455   0.971 -0.1868 -0.1902 -0.5045
  429TIP3    H1 1293   0.280   5.423   0.960 -0.1406 -0.1117 -1.1250
  429TIP3    H2 1294   0.363   5.520   1.041 -1.1568  1.9156 -2.4298
  430TIP3   OH2 1295   3.383   2.659   4.607  0.1767 -0.5304  0.5001
  430TIP3    H1 1296   3.394   2.717   4.683 -1.1472 -0.8750  0.9875
  430TIP3    H2 1297   3.295   2.677   4.576 -0.2388 -2.1927  0.6096
  431TIP3   OH2 1298   1.001   1.726   1.425  0.1107 -0.3718  0.0117
  431TIP3    H1 1299   0.965   1.756   1.508  0.2494  0.0797 -0.0905
  431TIP3    H2 1300   1.088   1.766   1.421 -0.0021 -0.1691 -0.4782
  432TIP3   OH2 1301   1.664   2.136   0.652  0.2828  0.2484  0.0041
  432TIP3    H1 1302   1.634   2.045   0.653 -0.2266  0.3898 -1.0750
  432TIP3    H2 1303   1.759   2.130   0.657  0.2588 -0.3529 -0.1894
  433TIP3   OH2 1304   4.356   1.983   3.728 -0.3391  0.3961 -0.0331
  433TIP3    H1 1305   4.445   1.950   3.746 -0.2388  0.9350  0.4978
  433TIP3    H2 1306   4.299   1.909   3.747  0.1555 -0.8391 -2.9581
  434TIP3   OH2 1307   5.733   5.220   1.985 -0.4058  0.0974 -0.7475
  434TIP3    H1 1308   5.810   5.268   1.956 -1.2876  1.7844 -0.4596
  434TIP3    H2 1309   5.755   5.189   2.073  0.5951 -1.0802 -1.3788
  435TIP3   OH2 1310   0.441   4.060   0.857 -0.0537 -0.5181 -0.5777
  435TIP3    H1 1311   0.497   4.136   0.874 -0.9128  0.0696 -0.3296
  435TIP3    H2 1312   0.465   4.032   0.769 -0.7426  0.9403 -1.2608
  436TIP3   OH2 1313   1.846   0.056   2.649 -0.0655 -0.5122  0.2542
  436TIP3    H1 1314   1.866  -0.037   2.658  1.5906 -0.1231  1.0865
  436TIP3    H2 1315   1.849   0.072   2.554  0.1235 -1.2197  0.1339
  437TIP3   OH2 1316   4.983   5.721   2.190 -0.0996 -0.2181 -0.4136
  437TIP3    H1 1317   4.908   5.771   2.223  1.8025  1.5212  1.6626
  437TIP3    H2 1318   4.986   5.740   2.096 -1.3554  0.9551 -0.2414
  438TIP3   OH2 1319   1.449   1.219   2.954  0.0791 -0.2894 -0.1235
  438TIP3    H1 1320   1.377   1.176   2.999  0.9056 -1.5878  0.0339
  438TIP3    H2 1321   1.409   1.262   2.878 -0.8514 -0.9804 -0.0343
  439TIP3   OH2 1322   5.982   3.049   4.040  0.3371  0.1944 -0.4986
  439TIP3    H1 1323   5.982   2.955   4.057  0.2621  0.0204 -1.4105
  439TIP3    H2 1324   5.959   3.089   4.124  0.8605 -0.5723  0.0142
  440TIP3   OH2 1325   6.132   5.146   3.187  0.0151 -0.6491 -0.9148
  440TIP3    H1 1326   6.071   5.110   3.122 -0.6948 -0.4974 -0.3452
  440TIP3    H2 1327   6.086   5.222   3.223  1.9992  1.7164 -2.9974
  441TIP3   OH2 1328   2.038   2.193   2.443 -0.4283  0.0267 -0.4728
  441TIP3    H1 1329   1.987   2.255   2.495 -0.0700 -0.9090  1.0860
  441TIP3    H2 1330   2.126   2.232   2.439  0.3529 -1.2275  2.2570
  442TIP3   OH2 1331   0.086   0.132   3.681 -0.5517 -0.0964 -0.5465
  442TIP3    H1 1332   0.011   0.174   3.722  0.1717  1.3269 -0.6081
  442TIP3    H2 1333   0.070   0.140   3.587 -1.2939 -1.6667 -0.5924
  443TIP3   OH2 1334   3.967   5.542   0.826 -0.1062  0.0371 -0.0082
  443TIP3    H1 1335   3.957   5.484   0.750  1.4744  0.8565 -0.9092
  443TIP3    H2 1336   4.036   5.501   0.878  0.3990  0.6357 -0.1978
  444TIP3   OH2 1337   5.532   1.713   4.498 -0.5371  0.5850 -0.1405
  444TIP3    H1 1338   5.585   1.726   4.576  0.0737 -1.4184 -0.1778
  444TIP3    H2 1339   5.594   1.714   4.426 -0.8235  0.3711 -0.3956
  445TIP3   OH2 1340   2.692   0.373   1.094 -0.5610  0.1079  0.2012
  445TIP3    H1 1341   2.612   0.420   1.119  0.2724  0.8605  1.6074
  445TIP3    H2 1342   2.666   0.320   1.019 -2.4972 -0.0316  0.9028
  446TIP3   OH2 1343   6.001   0.861   4.078 -0.4305  0.4342  0.1541
  446TIP3    H1 1344   5.991   0.883   4.171  0.2542 -1.4873  0.7249
  446TIP3    H2 1345   5.918   0.821   4.053 -0.1198 -0.3521  0.3485
  447TIP3   OH2 1346   2.806   3.769   0.591 -0.2321 -0.2948  0.3718
  447TIP3    H1 1347   2.884   3.744   0.641  0.4448 -1.3014 -1.1055
  447TIP3    H2 1348   2.734   3.724   0.634  0.2257 -0.5411  0.8853
  448TIP3   OH2 1349   4.144   2.378   3.659  0.0232  0.2932 -0.2475
  448TIP3    H1 1350   4.125   2.424   3.577  1.3640  0.6151 -0.3991
  448TIP3    H2 1351   4.221   2.325   3.639 -0.4186 -0.6452  0.4481
  449TIP3   OH2 1352   1.054   0.839   0.436  0.1330  0.5480  0.3011
  449TIP3    H1 1353   1.077   0.816   0.346 -2.2807  0.8825 -0.4913
  449TIP3    H2 1354   1.079   0.762   0.487 -0.4395 -0.5749 -1.0321
  450TIP3   OH2 1355   3.783   5.922   3.811 -0.0742  0.1818 -0.0198
  450TIP3    H1 1356   3.846   5.981   3.852  0.6874  1.3136 -2.5631
  450TIP3    H2 1357   3.723   5.897   3.881  1.4092  1.5049  1.8199
  451TIP3   OH2 1358   3.165   0.925   4.767  0.1415  0.2316  0.3001
  451TIP3    H1 1359   3.257   0.940   4.788 -0.0869 -0.1808  1.7036
  451TIP3    H2 1360   3.117   0.961   4.841 -0.9239  1.4236 -0.8974
  452TIP3   OH2 1361   0.292   1.677   1.659 -0.3941 -0.5100 -0.6099
  452TIP3    H1 1362   0.246   1.754   1.626  0.6802 -0.4505 -2.0655
  452TIP3    H2 1363   0.284   1.612   1.589 -0.7527 -1.5267  0.3382
  453TIP3   OH2 1364   0.971   4.781   3.179 -0.2429 -0.2829 -0.1648
  453TIP3    H1 1365   0.990   4.854   3.120  0.0538 -0.2413 -0.0234
  453TIP3    H2 1366   1.042   4.719   3.164 -0.8554 -0.8482 -0.7649
  454TIP3   OH2 1367   0.558   0.775   4.200  0.3198  0.5497  0.4359
  454TIP3    H1 1368   0.592   0.861   4.177 -0.3709  0.5800 -0.5424
  454TIP3    H2 1369   0.605   0.714   4.143 -1.3492  0.6161 -1.1150
  455TIP3   OH2 1370   5.311   4.191   2.623 -0.1043 -0.1844 -0.7863
  455TIP3    H1 1371   5.286   4.276   2.660  0.6305 -0.3178  0.0461
  455TIP3    H2 1372   5.258   4.128   2.672  1.8713 -0.4822  1.0929
  456TIP3   OH2 1373   0.687   0.916   2.033 -0.5786 -0.6634 -0.0290
  456TIP3    H1 1374   0.610   0.894   2.086 -1.6632 -0.4173 -1.4475
  456TIP3    H2 1375   0.724   0.993   2.075 -1.1642 -0.7304  0.6259
  457TIP3   OH2 1376   6.116   5.662   3.354  0.0699  0.2026 -0.0797
  457TIP3    H1 1377   6.024   5.668   3.329 -0.5465 -1.6263  1.5016
  457TIP3    H2 1378   6.121   5.708   3.438  0.3003 -0.7633  0.4494
  458TIP3   OH2 1379   2.595   3.783   1.235  0.1529 -0.0683 -0.1370
  458TIP3    H1 1380   2.577   3.868   1.274  1.5444  0.7519 -1.1963
  458TIP3    H2 1381   2.515   3.760   1.188 -0.1147  0.8387 -0.1361
  459TIP3   OH2 1382   3.742   1.845   0.189 -0.1519 -0.1605  0.4240
  459TIP3    H1 1383   3.731   1.867   0.282 -0.2382 -2.3900  1.0106
  459TIP3    H2 1384   3.834   1.865   0.171 -0.6655  2.4099  0.3014
  460TIP3   OH2 1385   4.750   0.405   0.614 -0.5042  0.2317 -0.6026
  460TIP3    H1 1386   4.712   0.405   0.526 -0.3442  2.8455 -0.7444
  460TIP3    H2 1387   4.833   0.453   0.604  0.9631 -1.9006  0.4737
  461TIP3   OH2 1388   0.676   3.578   4.719  0.3443 -0.3152  0.2199
  461TIP3    H1 1389   0.706   3.667   4.738  1.6629 -1.0528  1.8261
  461TIP3    H2 1390   0.714   3.557   4.634 -1.4059  1.2265 -1.0219
  462TIP3   OH2 1391   1.843   0.649   2.571  0.0204  0.3223  0.0274
  462TIP3    H1 1392   1.779   0.717   2.591 -0.3083 -0.2480  0.9707
  462TIP3    H2 1393   1.798   0.567   2.589  0.3383 -0.1723 -1.3103
  463TIP3   OH2 1394   2.327   1.572   2.624  0.5691  0.4058  0.4796
  463TIP3    H1 1395   2.282   1.633   2.565  1.0726  0.9026  0.6033
  463TIP3    H2 1396   2.348   1.624   2.701 -1.8878 -0.7140  2.0253
  464TIP3   OH2 1397   6.001   0.368   1.708  0.1975 -0.2316 -0.1407
  464TIP3    H1 1398   6.036   0.351   1.795 -0.1980 -0.2640  0.0146
  464TIP3    H2 1399   5.968   0.282   1.679  1.2295 -0.4395 -0.7342
  465TIP3   OH2 1400   0.070   1.764   2.389  0.0267  0.4010  0.2231
  465TIP3    H1 1401   0.038   1.737   2.302  0.1349 -0.6923  0.5048
  465TIP3    H2 1402   0.162   1.786   2.375 -0.2966  1.5684 -0.1936
  466TIP3   OH2 1403   3.334   0.906   2.173  0.4260 -0.8354 -0.2858
  466TIP3    H1 1404   3.354   0.833   2.114  1.3024 -0.6103 -0.2809
  466TIP3    H2 1405   3.362   0.875   2.259  2.2023  0.0275 -0.5060
  467TIP3   OH2 1406   5.269   4.438   0.176  0.0643  0.1444 -0.1678
  467TIP3    H1 1407   5.347   4.493   0.168  0.4986 -0.1886  1.4753
  467TIP3    H2 1408   5.224   4.449   0.092  0.3029  2.6991 -0.0238
  468TIP3   OH2 1409   5.320   5.530   1.183  0.3347  0.2119 -0.0435
  468TIP3    H1 1410   5.254   5.541   1.251  0.3513  1.4357 -0.2182
  468TIP3    H2 1411   5.401   5.510   1.231 -0.2812 -2.1198  0.1421
  469TIP3   OH2 1412   3.425   3.084   4.851 -0.4506 -0.1421  0.5856
  469TIP3    H1 1413   3.455   3.005   4.807 -0.0658 -1.0834  2.4653
  469TIP3    H2 1414   3.330   3.083   4.839 -0.1734  1.9409 -3.8771
  470TIP3   OH2 1415   0.408   5.102   5.029  0.1778  0.1740  0.2000
  470TIP3    H1 1416   0.483   5.044   5.013  1.0845  0.9658  1.4204
  470TIP3    H2 1417   0.364   5.063   5.104 -0.2009  0.1364 -0.0405
  471TIP3   OH2 1418   5.134   0.152   3.715 -0.8167  0.1800 -0.4973
  471TIP3    H1 1419   5.206   0.122   3.770 -0.5511  0.6501 -0.5885
  471TIP3    H2 1420   5.150   0.245   3.702 -1.8998  0.4655  0.1576
  472TIP3   OH2 1421   1.020   4.851   4.732 -0.2356  0.4098  0.1986
  472TIP3    H1 1422   1.113   4.831   4.724 -0.8166 -1.9766 -2.3313
  472TIP3    H2 1423   1.008   4.933   4.683  0.3807  0.1400 -0.4140
  473TIP3   OH2 1424   5.603   5.104   0.766 -1.1218 -0.0492  0.0911
  473TIP3    H1 1425   5.545   5.177   0.789 -1.6025 -0.7373  1.0942
  473TIP3    H2 1426   5.649   5.083   0.847 -2.1204 -1.8662  0.2224
  474TIP3   OH2 1427   2.447   5.600   3.370  0.0205 -0.0243 -0.1786
  474TIP3    H1 1428   2.354   5.623   3.370  0.4922  2.0576 -0.3374
  474TIP3    H2 1429   2.478   5.626   3.283  1.2033  1.4617  0.6268
  475TIP3   OH2 1430   3.615   0.093   1.035 -0.2574  0.2780 -0.7226
  475TIP3    H1 1431   3.676   0.145   0.982 -0.3198  1.1606  0.0508
  475TIP3    H2 1432   3.547   0.155   1.062 -1.3165 -0.6077 -1.2575
  476TIP3   OH2 1433   3.709   3.935   3.369 -0.2192  0.5998  0.0428
  476TIP3    H1 1434   3.665   3.954   3.452 -1.3684 -0.5402 -0.2790
  476TIP3    H2 1435   3.789   3.889   3.394 -0.5416  0.2993  0.5309
  477TIP3   OH2 1436   4.582   1.597   1.203  0.0745  0.4230  0.3223
  477TIP3    H1 1437   4.600   1.683   1.241  1.9553  1.1669 -2.0804
  477TIP3    H2 1438   4.537   1.616   1.121 -0.1344 -0.9256  0.1130
  478TIP3   OH2 1439   4.099   5.824   2.388 -0.1238  0.4800  0.1614
  478TIP3    H1 1440   4.087   5.917   2.407 -0.9645  0.5183 -0.5087
  478TIP3    H2 1441   4.183   5.802   2.428  0.6599  1.8140 -0.6738
  479TIP3   OH2 1442   4.095   0.038   3.354 -0.1635  0.2087  0.0835
  479TIP3    H1 1443   4.042  -0.041   3.349 -0.4355  0.4184 -0.5481
  479TIP3    H2 1444   4.107   0.054   3.447  0.3586 -0.8800  0.2172
  480TIP3   OH2 1445   5.463   3.767   1.249  0.0583 -0.4801 -0.4225
  480TIP3    H1 1446   5.424   3.689   1.209 -3.4750  1.2932 -0.8844
  480TIP3    H2 1447   5.434   3.839   1.193 -1.6968  1.7111  2.9465
  481TIP3   OH2 1448   4.174   4.826   0.852 -0.1633 -0.0520 -0.2664
  481TIP3    H1 1449   4.213   4.848   0.767  2.6184 -0.0659  0.9064
  481TIP3    H2 1450   4.130   4.906   0.879 -0.2941  0.2414 -1.2845
  482TIP3   OH2 1451   6.206   1.096   2.974  0.7752  0.2368 -0.0600
  482TIP3    H1 1452   6.193   1.024   3.035  0.2109  0.2645 -0.1465
  482TIP3    H2 1453   6.119   1.132   2.960  1.0692  1.0201  0.0839
  483TIP3   OH2 1454   1.567   5.143   1.677  0.7893  0.0091  0.7962
  483TIP3    H1 1455   1.556   5.184   1.592 -0.5163  0.9240  1.3741
  483TIP3    H2 1456   1.660   5.155   1.698  0.9968  0.2716 -0.2291
  484TIP3   OH2 1457   1.275   2.004   0.866 -0.2784  0.1684  0.1688
  484TIP3    H1 1458   1.332   1.957   0.805 -0.7002 -0.3888  0.2006
  484TIP3    H2 1459   1.227   1.936   0.912  0.5942  0.5286  1.7026
  485TIP3   OH2 1460   4.466   1.429   1.986 -0.1579 -0.4166 -0.2406
  485TIP3    H1 1461   4.535   1.456   2.047 -1.1480  0.5571  0.4964
  485TIP3    H2 1462   4.385   1.449   2.032 -0.9407 -0.1738 -1.6674
  486TIP3   OH2 1463   2.411   4.978   1.275  0.2715  0.0060  0.2269
  486TIP3    H1 1464   2.458   5.006   1.197 -0.0805 -0.8483 -0.3042
  486TIP3    H2 1465   2.336   5.038   1.281 -1.3739 -1.6893 -1.7975
  487TIP3   OH2 1466   2.931   5.887   2.039  0.6778 -0.0128 -0.1187
  487TIP3    H1 1467   2.912   5.876   1.945  3.3787 -1.5671 -0.5678
  487TIP3    H2 1468   2.991   5.961   2.043 -1.0902  1.4692  0.7130
  488TIP3   OH2 1469   4.621   3.689   4.032 -0.9780 -0.2826 -0.0971
  488TIP3    H1 1470   4.558   3.641   4.086 -0.5269  0.6705  1.3237
  488TIP3    H2 1471   4.670   3.743   4.094  0.8820 -0.5870 -1.2354
  489TIP3   OH2 1472   3.143   2.842   2.739 -0.2523 -0.2018  0.0998
  489TIP3    H1 1473   3.111   2.768   2.790  1.2943 -0.8005  0.2557
  489TIP3    H2 1474   3.107   2.919   2.783 -0.1372 -0.7701  1.2198
  490TIP3   OH2 1475   1.972   0.744   1.641 -0.0474 -0.1674  0.2538
  490TIP3    H1 1476   1.893   0.783   1.680 -0.1933 -1.0128  0.8292
  490TIP3    H2 1477   2.044   0.791   1.682 -0.1622 -1.6924  2.3653
  491TIP3   OH2 1478   1.371   2.993   4.219  0.7787  0.2376  0.1285
  491TIP3    H1 1479   1.426   2.956   4.150  0.2455 -0.1873 -0.0813
  491TIP3    H2 1480   1.348   2.918   4.274 -0.2872  0.2373 -0.2826
  492TIP3   OH2 1481   2.657   2.008   1.583  0.1085  0.4433 -0.1474
  492TIP3    H1 1482   2.672   1.923   1.542 -0.4177  1.1534 -1.8889
  492TIP3    H2 1483   2.743   2.049   1.586  0.5765 -0.5568  1.7690
  493TIP3   OH2 1484   1.356   0.874   0.747  0.2232  0.0199  0.2035
  493TIP3    H1 1485   1.355   0.959   0.791 -1.7302 -0.0739  0.4284
  493TIP3    H2 1486   1.333   0.811   0.816 -3.4454 -0.0711 -0.8912
  494TIP3   OH2 1487   5.662   5.740   4.474  0.2534  0.6834  0.0196
  494TIP3    H1 1488   5.677   5.646   4.481 -1.1480  0.5246  1.4555
  494TIP3    H2 1489   5.695   5.763   4.387  0.7484 -1.0938 -0.3093
  495TIP3   OH2 1490   2.105   2.856   0.590  0.3824 -0.0770  0.0250
  495TIP3    H1 1491   2.122   2.921   0.521  2.4624 -0.8887 -0.3092
  495TIP3    H2 1492   2.171   2.875   0.657  0.0876 -0.9602  0.5845
  496TIP3   OH2 1493   5.925   5.051   3.944  0.2822  0.1567 -0.2080
  496TIP3    H1 1494   5.858   5.065   4.011  1.3290 -0.2929  0.9863
  496TIP3    H2 1495   5.934   4.956   3.939 -0.7878  0.1133 -2.0686
  497TIP3   OH2 1496   0.928   0.277   1.028  0.2250 -0.0767  0.2419
  497TIP3    H1 1497   0.914   0.309   1.117 -1.2899  1.2672 -0.4493
  497TIP3    H2 1498   1.021   0.293   1.011  0.2093  0.9504  1.0779
  498TIP3   OH2 1499   1.828   0.369   2.517  0.4279  0.3367 -0.3997
  498TIP3    H1 1500   1.756   0.320   2.478 -1.6475  2.4876  0.4773
  498TIP3    H2 1501   1.885   0.391   2.443  0.6582 -2.0410 -0.9981
  499TIP3   OH2 1502   3.318   5.799   2.770 -0.5070 -0.6284 -0.4752
  499TIP3    H1 1503   3.396   5.761   2.810 -0.6711 -0.4729 -0.0091
  499TIP3    H2 1504   3.248   5.785   2.833 -0.6381  0.1673 -0.4231
  500TIP3   OH2 1505   3.234   1.608   3.237 -0.0917  0.1605 -0.3312
  500TIP3    H1 1506   3.195   1.580   3.153 -1.0273  2.3741 -0.7153
  500TIP3    H2 1507   3.325   1.628   3.216  1.1755 -3.9879  0.3333
  501TIP3   OH2 1508   6.095   2.476   1.440 -0.7263  0.0231  0.3005
  501TIP3    H1 1509   6.139   2.485   1.356 -1.6938  0.3051 -0.1899
  501TIP3    H2 1510   6.126   2.551   1.491 -0.2296 -0.0812  0.1545
  502TIP3   OH2 1511   4.784   4.673   0.950 -0.0082 -0.0278  0.0263
  502TIP3    H1 1512   4.722   4.643   0.884  1.0213  0.6349 -1.2889
  502TIP3    H2 1513   4.809   4.761   0.921  1.7715 -0.3944  0.3272
  503TIP3   OH2 1514   0.788   1.911   3.925  0.2218 -0.3105  0.2465
  503TIP3    H1 1515   0.712   1.857   3.905  1.3143 -2.4095  1.4278
  503TIP3    H2 1516   0.769   1.996   3.884 -2.7336 -0.7294  0.5367
  504TIP3   OH2 1517   1.064   2.037   1.340 -0.0086  0.7623 -0.0960
  504TIP3    H1 1518   1.119   2.069   1.268  0.3244 -0.0594 -0.2250
  504TIP3    H2 1519   1.125   1.990   1.397 -0.6685 -0.7133 -0.5628
  505TIP3   OH2 1520   3.585   4.091   3.124  0.2538  0.0883  0.5677
  505TIP3    H1 1521   3.529   4.040   3.066  1.1539 -1.5357  1.0666
  505TIP3    H2 1522   3.604   4.032   3.197 -0.2829  1.8390  2.1956
  506TIP3   OH2 1523   2.728   0.042   0.897 -0.2002  0.2614  0.4895
  506TIP3    H1 1524   2.707  -0.024   0.831  0.0997  0.8729 -0.2256
  506TIP3    H2 1525   2.670   0.115   0.877  0.9400  1.0432 -0.0530
  507TIP3   OH2 1526   3.239   3.338   0.837  0.2251 -0.5775 -0.1907
  507TIP3    H1 1527   3.276   3.284   0.907 -1.0436  1.5367  2.2468
  507TIP3    H2 1528   3.145   3.336   0.852  0.0226  0.9166 -1.0991
  508TIP3   OH2 1529   2.715   1.752   1.478  0.0933  0.4807 -0.0938
  508TIP3    H1 1530   2.674   1.757   1.392  0.5778 -2.5537 -0.6325
  508TIP3    H2 1531   2.788   1.691   1.466  0.8839  0.8722  2.2136
  509TIP3   OH2 1532   3.312   3.038   0.754  0.3020  0.0135 -0.2922
  509TIP3    H1 1533   3.329   3.126   0.788 -0.9164  0.8824 -1.7735
  509TIP3    H2 1534   3.251   3.000   0.818  0.8139  0.2432  0.3469
  510TIP3   OH2 1535   3.939   1.144   4.397 -0.5051  0.2157  0.8749
  510TIP3    H1 1536   3.949   1.157   4.492  0.7508  0.1114  0.7843
  510TIP3    H2 1537   4.008   1.198   4.359  0.8116 -1.8397  0.1879
  511TIP3   OH2 1538  -0.017   1.493   1.550 -0.0715 -0.0296 -0.1296
  511TIP3    H1 1539  -0.047   1.583   1.533  0.4929  1.1096  3.8504
  511TIP3    H2 1540   0.070   1.489   1.508  0.1260  1.4910  0.0543
  512TIP3   OH2 1541   0.590   5.071   0.465 -0.3541  0.3338  0.4693
  512TIP3    H1 1542   0.685   5.074   0.477 -0.1550  0.1339 -0.8917
  512TIP3    H2 1543   0.568   5.153   0.421 -0.6373 -0.1348 -0.2773
  513TIP3   OH2 1544   1.839   3.123   3.213 -0.0183  0.1556 -0.7436
  513TIP3    H1 1545   1.883   3.165   3.139  0.0183 -1.7480 -1.8670
  513TIP3    H2 1546   1.806   3.196   3.266  1.9831  1.6045 -1.3677
  514TIP3   OH2 1547   0.752   1.829   3.488  0.3102 -0.2476  0.1040
  514TIP3    H1 1548   0.791   1.908   3.524  0.3686  0.1790 -0.8642
  514TIP3    H2 1549   0.772   1.761   3.553  0.2746  0.5152  0.9351
  515TIP3   OH2 1550   0.389   5.652   4.398 -0.1619  0.2296  0.0073
  515TIP3    H1 1551   0.376   5.731   4.451 -2.2562 -0.6462  0.9177
  515TIP3    H2 1552   0.320   5.593   4.427  0.4143 -1.3770 -1.7315
  516TIP3   OH2 1553   3.406   4.530   1.732  0.3081  0.3227  0.3981
  516TIP3    H1 1554   3.420   4.557   1.641  0.0357  0.3430  0.3614
  516TIP3    H2 1555   3.343   4.594   1.766  0.3496  0.2682  0.5791
  517TIP3   OH2 1556   6.148   3.811   5.068 -0.1239 -0.7868  0.1223
  517TIP3    H1 1557   6.228   3.803   5.016 -0.3756 -0.3212 -0.3494
  517TIP3    H2 1558   6.104   3.727   5.057 -0.0178 -0.8080 -0.1592
  518TIP3   OH2 1559   5.528   4.069   4.238 -0.2908  0.1399  0.5738
  518TIP3    H1 1560   5.459   4.040   4.297 -0.2444 -1.3564 -0.0717
  518TIP3    H2 1561   5.610   4.048   4.285 -0.2656  0.4292  0.6583
  519TIP3   OH2 1562   0.140   3.255   2.099 -0.0716  0.0310  0.0054
  519TIP3    H1 1563   0.130   3.165   2.068 -0.5703 -0.1435  0.6510
  519TIP3    H2 1564   0.175   3.303   2.024 -0.9701 -0.4438 -0.7349
  520TIP3   OH2 1565   3.434   5.142   3.494  0.2189 -0.1069 -0.3517
  520TIP3    H1 1566   3.380   5.111   3.566 -0.9601  0.1989 -1.0785
  520TIP3    H2 1567   3.513   5.176   3.536 -0.1308 -0.5855  0.7304
  521TIP3   OH2 1568   4.016   4.906   0.050 -0.1188 -0.3277  0.1499
  521TIP3    H1 1569   3.970   4.986   0.075  0.6496  0.6834 -1.5294
  521TIP3    H2 1570   3.948   4.838   0.051 -0.9256  0.4764  0.9344
  522TIP3   OH2 1571   0.492   2.588   3.146  0.2620 -0.4034 -0.3709
  522TIP3    H1 1572   0.585   2.588   3.123  0.2542 -0.0760 -0.3959
  522TIP3    H2 1573   0.450   2.535   3.078  0.4075 -0.4289 -0.4411
  523TIP3   OH2 1574   5.076   4.110   1.201 -0.1211  0.0059 -0.7595
  523TIP3    H1 1575   5.162   4.136   1.167  0.3224 -0.6984 -0.1840
  523TIP3    H2 1576   5.020   4.109   1.123  0.4947  0.0328 -1.2157
  524TIP3   OH2 1577   2.795   0.762   3.450  0.1136 -0.1551  0.3091
  524TIP3    H1 1578   2.712   0.715   3.458  0.8062 -1.7237 -1.0898
  524TIP3    H2 1579   2.788   0.835   3.512 -2.6415  0.2710 -0.3743
  525TIP3   OH2 1580   5.913   4.312   2.951 -0.1028  0.2239  0.0757
  525TIP3    H1 1581   5.962   4.393   2.940  0.5892 -0.0585  0.9176
  525TIP3    H2 1582   5.837   4.337   3.004 -0.0344  0.3687  0.1049
  526TIP3   OH2 1583   1.665   2.617   1.884 -0.2013 -0.0869 -0.3091
  526TIP3    H1 1584   1.575   2.648   1.878 -0.1314  0.6086  1.6160
  526TIP3    H2 1585   1.662   2.527   1.852 -1.3989  0.2295 -1.1279
  527TIP3   OH2 1586   4.066   5.839   3.106 -0.0017 -0.2754  0.2635
  527TIP3    H1 1587   4.103   5.845   3.018  1.1536 -0.1502  0.7325
  527TIP3    H2 1588   3.972   5.826   3.092  0.1582 -0.2386 -0.9785
  528TIP3   OH2 1589   1.394   2.893   1.641  0.0098 -0.2547  0.1108
  528TIP3    H1 1590   1.474   2.909   1.592 -0.9159  0.5375 -1.2268
  528TIP3    H2 1591   1.418   2.829   1.708  1.3290 -1.4498 -1.4409
  529TIP3   OH2 1592   2.381   0.792   3.224 -0.6075 -0.9441 -0.1323
  529TIP3    H1 1593   2.314   0.839   3.273 -1.4760 -2.4215  0.1605
  529TIP3    H2 1594   2.336   0.762   3.145  0.3862  0.1433 -1.1481
  530TIP3   OH2 1595   1.122   4.742   2.473  0.2928  0.0162 -0.3282
  530TIP3    H1 1596   1.161   4.829   2.477  1.8796 -0.6957  1.7344
  530TIP3    H2 1597   1.165   4.700   2.398  0.3357  0.6435 -0.6592
  531TIP3   OH2 1598   5.787   1.052   0.543  0.0568  0.1156  0.0424
  531TIP3    H1 1599   5.790   0.992   0.469  0.9693  0.4775 -0.2224
  531TIP3    H2 1600   5.700   1.091   0.539  0.2232  0.3805 -1.0373
  532TIP3   OH2 1601   3.494   1.051   1.657  0.2941  0.0708  0.1820
  532TIP3    H1 1602   3.457   0.974   1.612  0.7050  0.3039 -0.5678
  532TIP3    H2 1603   3.431   1.070   1.727 -0.6336  0.0139 -0.6120
  533TIP3   OH2 1604   3.900   4.925   3.996 -0.4080  0.2221  0.0540
  533TIP3    H1 1605   3.856   4.844   3.970 -0.5816 -0.1021  1.2859
  533TIP3    H2 1606   3.878   4.936   4.088  0.2374  1.2772  0.1017
  534TIP3   OH2 1607   4.133   2.190   2.911 -0.3770 -0.1887  0.3578
  534TIP3    H1 1608   4.054   2.147   2.880 -0.1349  1.0021 -2.1291
  534TIP3    H2 1609   4.113   2.284   2.907  0.0541  0.0944  2.9544
  535TIP3   OH2 1610   5.446   2.258   2.617 -0.4022 -0.2353 -0.1904
  535TIP3    H1 1611   5.449   2.312   2.537 -2.0397 -1.6586 -1.2829
  535TIP3    H2 1612   5.490   2.311   2.683  1.8712  0.6143 -2.2403
  536TIP3   OH2 1613   6.168   4.995   3.444  0.1771 -0.5833  0.5422
  536TIP3    H1 1614   6.155   5.018   3.352  1.7435  1.0799  0.6831
  536TIP3    H2 1615   6.089   4.946   3.467 -0.7576 -0.1063 -1.3786
  537TIP3   OH2 1616   3.199   5.131   0.176 -0.3799 -0.3261  0.1436
  537TIP3    H1 1617   3.115   5.115   0.133  0.7533 -0.1365 -2.3091
  537TIP3    H2 1618   3.192   5.083   0.259 -3.1288  0.2741  0.3620
  538TIP3   OH2 1619   4.452   5.785   0.263  0.4707  0.2689  0.1340
  538TIP3    H1 1620   4.472   5.768   0.355  1.8415 -1.6925 -0.4522
  538TIP3    H2 1621   4.527   5.836   0.232  1.1180 -0.9503 -0.3763
  539TIP3   OH2 1622   5.691   2.241   0.454 -0.0951 -0.2788 -0.0381
  539TIP3    H1 1623   5.674   2.335   0.453 -0.4128 -0.3332  0.1426
  539TIP3    H2 1624   5.730   2.224   0.540 -2.9008 -0.7932  1.2369
  540TIP3   OH2 1625   4.477   3.024   4.124  0.4474  0.0641 -0.0102
  540TIP3    H1 1626   4.467   3.082   4.200 -3.0743  1.6536 -1.4744
  540TIP3    H2 1627   4.460   2.936   4.159  2.7039  0.2214  1.6636
  541TIP3   OH2 1628   2.599   0.335   0.547 -0.7666 -1.0147 -0.0700
  541TIP3    H1 1629   2.510   0.339   0.512 -0.8975  0.0719  0.3582
  541TIP3    H2 1630   2.646   0.404   0.500 -0.5605 -0.5344  0.8320
  542TIP3   OH2 1631   2.004   1.585   1.932  0.3903  0.4783  0.1052
  542TIP3    H1 1632   2.079   1.635   1.962  0.5792 -1.1474  2.6535
  542TIP3    H2 1633   2.038   1.497   1.917 -0.9451 -0.3079  1.3352
  543TIP3   OH2 1634   3.709   2.927   4.744 -0.2564 -0.4771  0.0451
  543TIP3    H1 1635   3.660   2.946   4.664  0.3484 -0.5192 -0.3434
  543TIP3    H2 1636   3.778   2.994   4.746 -1.4712  0.8211  1.6133
  544TIP3   OH2 1637   4.353   3.437   5.199  0.0114 -0.1443 -0.1777
  544TIP3    H1 1638   4.438   3.428   5.156  0.2978 -0.7384  0.5015
  544TIP3    H2 1639   4.320   3.348   5.209 -0.4199  0.0383  0.1033
  545TIP3   OH2 1640   5.729   4.402   2.178  0.3391 -0.0152  0.3940
  545TIP3    H1 1641   5.657   4.386   2.239  0.9378  0.6131  1.2944
  545TIP3    H2 1642   5.797   4.444   2.232  0.5856  1.2560 -0.8715
  546TIP3   OH2 1643   1.651   5.242   2.933  0.0140  0.6205 -0.5565
  546TIP3    H1 1644   1.653   5.149   2.910 -0.1342  0.8211 -1.4356
  546TIP3    H2 1645   1.620   5.285   2.853  2.1143  1.6572 -0.8821
  547TIP3   OH2 1646   0.111   5.804   4.362  1.1701 -0.5285 -0.5803
  547TIP3    H1 1647   0.193   5.853   4.358  1.8421 -1.5402  0.2663
  547TIP3    H2 1648   0.064   5.840   4.437  1.2444 -0.5728 -0.5140
  548TIP3   OH2 1649   2.368   0.343   3.537  0.0860  0.4831 -0.1415
  548TIP3    H1 1650   2.327   0.264   3.501  0.0685  1.0650 -1.4623
  548TIP3    H2 1651   2.447   0.355   3.485 -0.0845  1.5147 -0.1875
  549TIP3   OH2 1652   4.560   0.865   1.629  0.5266 -0.7771  0.3200
  549TIP3    H1 1653   4.572   0.825   1.543  0.3618  0.6741 -0.4162
  549TIP3    H2 1654   4.623   0.937   1.631  1.4099 -1.5334  1.9357
  550TIP3   OH2 1655   1.511   3.886   3.648  0.2478  0.0531 -0.6692
  550TIP3    H1 1656   1.445   3.822   3.676  0.0993  0.7262  0.5876
  550TIP3    H2 1657   1.579   3.833   3.606  0.3478 -1.0098  0.7478
  551TIP3   OH2 1658   1.967   4.879   2.216 -0.3909 -0.3044 -0.2200
  551TIP3    H1 1659   1.879   4.850   2.190 -0.1264 -0.1420 -1.3331
  551TIP3    H2 1660   2.001   4.924   2.139  1.1595 -1.4301 -0.2271
  552TIP3   OH2 1661   4.196   2.805   1.837 -0.4003  0.0871 -0.7357
  552TIP3    H1 1662   4.280   2.762   1.854 -0.5881  0.2191  0.6531
  552TIP3    H2 1663   4.153   2.750   1.772 -0.0506 -1.0669 -0.0116
  553TIP3   OH2 1664   4.198   5.562   2.545 -0.1329  0.2206  0.7117
  553TIP3    H1 1665   4.107   5.581   2.567 -0.2018  1.0095 -0.1529
  553TIP3    H2 1666   4.241   5.648   2.544  0.2929  0.0121 -0.2314
  554TIP3   OH2 1667   5.700   1.041   5.019 -0.3593 -0.2665  0.0332
  554TIP3    H1 1668   5.693   1.136   5.014 -0.2283 -0.2477  0.2089
  554TIP3    H2 1669   5.721   1.023   5.111  1.6552 -0.3406 -0.4004
  555TIP3   OH2 1670   0.391   0.012   2.136  0.0410 -0.0202  0.0679
  555TIP3    H1 1671   0.405   0.090   2.189 -0.1453 -0.7926  1.2869
  555TIP3    H2 1672   0.431   0.033   2.051 -1.4478  2.0215 -0.2096
  556TIP3   OH2 1673   0.348   4.255   2.446  0.2489  0.0289 -1.0019
  556TIP3    H1 1674   0.268   4.208   2.471  0.0512  0.3257 -1.0612
  556TIP3    H2 1675   0.320   4.347   2.440  1.1190  0.4937  1.2684
  557TIP3   OH2 1676   4.695   5.260   0.353 -0.0202  0.2538 -0.2203
  557TIP3    H1 1677   4.604   5.286   0.364  0.1124  0.4863  0.3991
  557TIP3    H2 1678   4.692   5.164   0.347 -0.2699  0.2341  0.1871
  558TIP3   OH2 1679   2.893   3.358   4.316 -0.4158  0.4978 -0.3614
  558TIP3    H1 1680   2.951   3.434   4.316 -1.5140  1.3580 -0.3396
  558TIP3    H2 1681   2.902   3.319   4.403 -0.4021  1.0398 -0.1219
  559TIP3   OH2 1682   1.124   5.638   2.527  0.3857  0.2851  0.0896
  559TIP3    H1 1683   1.161   5.550   2.530  1.0893  0.4573 -1.9559
  559TIP3    H2 1684   1.033   5.627   2.554  1.0898 -0.6279  2.3116
  560TIP3   OH2 1685   2.664   1.498   3.051 -0.3617 -0.3836 -0.4246
  560TIP3    H1 1686   2.644   1.545   2.970 -0.0423  0.1375 -0.2074
  560TIP3    H2 1687   2.731   1.552   3.094 -0.5166 -0.6633  0.1773
  561TIP3   OH2 1688   1.337   2.500   3.875  0.0960  0.3709 -0.2499
  561TIP3    H1 1689   1.414   2.551   3.851  0.4516 -0.4871 -0.9879
  561TIP3    H2 1690   1.332   2.431   3.809 -1.2520  0.3472 -0.1671
  562TIP3   OH2 1691   4.314   0.750   4.793 -0.6001 -0.2709 -0.4092
  562TIP3    H1 1692   4.316   0.655   4.781 -0.9524 -0.1124 -2.0072
  562TIP3    H2 1693   4.284   0.763   4.883  1.7222 -1.6796  0.6414
  563TIP3   OH2 1694   0.394   2.328   0.313 -0.7378 -0.1646  0.1961
  563TIP3    H1 1695   0.373   2.418   0.336  0.3947  0.3543 -0.7308
  563TIP3    H2 1696   0.309   2.287   0.294 -1.2186  0.8136  0.2124
  564TIP3   OH2 1697   4.675   5.785   4.047 -0.4985 -0.1154  0.6310
  564TIP3    H1 1698   4.770   5.790   4.034 -0.4323  1.8850  1.5689
  564TIP3    H2 1699   4.640   5.757   3.962  0.8691 -0.3539  0.1256
  565TIP3   OH2 1700   3.680   3.646   4.486 -0.0779 -0.0108  0.2720
  565TIP3    H1 1701   3.614   3.609   4.428 -1.7787  0.7539  1.6299
  565TIP3    H2 1702   3.742   3.574   4.499 -0.2032 -0.5120 -1.6236
  566TIP3   OH2 1703   2.896   2.948   0.262 -0.1051  0.3363 -0.2470
  566TIP3    H1 1704   2.929   2.869   0.304 -0.7697 -0.2887 -0.8581
  566TIP3    H2 1705   2.910   2.933   0.168  1.7120  1.8696 -0.2798
  567TIP3   OH2 1706   1.535   2.024   1.897 -0.2147  0.0940 -0.1578
  567TIP3    H1 1707   1.581   1.985   1.971  0.3651 -0.1553 -0.6451
  567TIP3    H2 1708   1.461   2.070   1.937 -1.1204 -1.7710  0.3925
  568TIP3   OH2 1709   4.665   1.798   2.163  0.1924  0.5624 -0.4013
  568TIP3    H1 1710   4.742   1.811   2.106  0.2886 -2.0452 -0.9977
  568TIP3    H2 1711   4.701   1.760   2.243 -0.3141  0.9802  0.0281
  569TIP3   OH2 1712   0.225   1.751   2.995 -0.7621  0.5936 -0.0771
  569TIP3    H1 1713   0.177   1.669   2.998 -0.1110  0.1738 -0.7955
  569TIP3    H2 1714   0.238   1.775   3.087 -1.0843 -0.0240  0.1316
  570TIP3   OH2 1715   5.801   2.286   1.965 -0.4013 -0.1950 -0.3427
  570TIP3    H1 1716   5.883   2.327   1.990 -0.1629 -0.1861 -1.1027
  570TIP3    H2 1717   5.741   2.305   2.037 -0.1153  0.9328 -0.3873
  571TIP3   OH2 1718   1.865   1.652   1.125  0.3502 -0.1892 -0.2469
  571TIP3    H1 1719   1.855   1.639   1.030  1.1722  2.6603 -0.8153
  571TIP3    H2 1720   1.956   1.626   1.142  0.4227 -0.0342 -0.3885
  572TIP3   OH2 1721   4.503   4.823   3.000  0.3130 -0.1336 -0.4481
  572TIP3    H1 1722   4.511   4.917   2.985  1.5266 -0.0603  0.4768
  572TIP3    H2 1723   4.570   4.803   3.065 -0.1863 -1.5784 -0.3276
  573TIP3   OH2 1724   4.904   4.284   1.399  0.4580  0.3204  0.3228
  573TIP3    H1 1725   4.835   4.336   1.357  2.0612  1.8090 -0.6094
  573TIP3    H2 1726   4.943   4.233   1.327  0.0107 -0.9204  0.9327
  574TIP3   OH2 1727   0.060   4.247   0.915 -0.5879  0.7861  0.2164
  574TIP3    H1 1728  -0.004   4.176   0.915  1.7224 -1.4455  0.0166
  574TIP3    H2 1729   0.059   4.282   0.826  1.2526 -2.0451 -1.0450
  575TIP3   OH2 1730   1.146   2.078   2.132 -0.1958  0.2210  0.1330
  575TIP3    H1 1731   1.083   2.065   2.202  0.3821  0.6992  0.7616
  575TIP3    H2 1732   1.226   2.036   2.163 -0.1129 -0.1266 -0.5233
  576TIP3   OH2 1733   0.057   3.107   2.744 -0.6537  0.0940  0.8889
  576TIP3    H1 1734   0.070   3.200   2.727 -0.8594 -0.1925 -0.9485
  576TIP3    H2 1735   0.142   3.077   2.775 -0.4336  0.7738  0.9673
  577TIP3   OH2 1736   1.839   5.109   0.809 -0.1741  0.0266  0.3548
  577TIP3    H1 1737   1.751   5.071   0.815  0.6078 -1.7741  1.2443
  577TIP3    H2 1738   1.876   5.070   0.730  0.5662 -0.9655  1.1649
  578TIP3   OH2 1739   2.012   0.494   4.151  0.1244 -0.0898 -0.0788
  578TIP3    H1 1740   2.106   0.503   4.168 -0.3652  1.3415  2.3883
  578TIP3    H2 1741   1.985   0.424   4.210 -0.9084  1.9689  2.0303
  579TIP3   OH2 1742   3.600   3.788   1.290  0.0033 -0.4210  0.2485
  579TIP3    H1 1743   3.575   3.749   1.206  0.4578  1.1669 -0.6773
  579TIP3    H2 1744   3.520   3.786   1.343 -0.5700 -0.5094 -0.6008
  580TIP3   OH2 1745   4.461   0.096   4.896  0.0504  0.1917 -0.3710
  580TIP3    H1 1746   4.368   0.121   4.894  0.0432  0.4401  1.4805
  580TIP3    H2 1747   4.463   0.018   4.952  0.6125 -1.6330 -2.7511
  581TIP3   OH2 1748   2.486   4.190   4.288  0.2488  0.1893 -0.4646
  581TIP3    H1 1749   2.525   4.243   4.219  0.9785 -0.2872 -0.4353
  581TIP3    H2 1750   2.410   4.149   4.246  0.5713  0.0555 -0.9384
  582TIP3   OH2 1751   4.761   1.231   4.589 -0.0934 -0.7987 -0.1409
  582TIP3    H1 1752   4.769   1.199   4.679 -2.0516  1.2517  0.8723
  582TIP3    H2 1753   4.687   1.292   4.592  1.6330  1.6597 -2.4620
  583TIP3   OH2 1754   1.825   5.153   1.774  0.7017 -0.2206  0.0820
  583TIP3    H1 1755   1.872   5.221   1.822  0.5655 -0.8530  1.1297
  583TIP3    H2 1756   1.821   5.079   1.835 -2.7897  0.2363  0.5682
  584TIP3   OH2 1757   5.659   2.043   2.638 -0.1222  0.3161  0.0174
  584TIP3    H1 1758   5.587   2.104   2.654 -1.0184 -0.6012 -0.4220
  584TIP3    H2 1759   5.684   2.058   2.547 -1.9047 -1.5186 -0.8474
  585TIP3   OH2 1760   3.354   1.038   2.638 -0.4755 -0.2691  0.3447
  585TIP3    H1 1761   3.391   1.046   2.726  1.8035  0.1504 -0.5767
  585TIP3    H2 1762   3.285   1.104   2.635 -0.1466  0.1685  1.6052
  586TIP3   OH2 1763   1.467   2.799   0.708  0.0246 -0.7735  0.3092
  586TIP3    H1 1764   1.399   2.809   0.641  0.1744  0.1262  0.2765
  586TIP3    H2 1765   1.429   2.839   0.786  0.1354 -1.1665  0.5662
  587TIP3   OH2 1766   3.468   3.000   1.919 -0.5284 -0.2418 -0.2288
  587TIP3    H1 1767   3.448   2.983   2.011  0.1372  0.5308  0.0749
  587TIP3    H2 1768   3.547   2.950   1.901  0.3490  0.9685  0.1335
  588TIP3   OH2 1769   3.043   2.683   2.954 -0.2030 -0.0397  0.1283
  588TIP3    H1 1770   3.001   2.730   3.027 -2.7286  0.1248 -1.3169
  588TIP3    H2 1771   3.093   2.613   2.997 -0.0770  1.1750  2.0947
  589TIP3   OH2 1772   4.627   4.577   1.854 -0.0820 -0.7174 -0.0662
  589TIP3    H1 1773   4.692   4.526   1.903  0.3181 -0.8304 -0.7019
  589TIP3    H2 1774   4.678   4.648   1.814 -0.1898 -1.3206 -1.2945
  590TIP3   OH2 1775   1.451   2.438   1.265 -0.1722 -0.5487  0.2781
  590TIP3    H1 1776   1.407   2.416   1.347 -0.8300 -1.4422 -0.2977
  590TIP3    H2 1777   1.383   2.479   1.212  0.3275  0.3050  0.2790
  591TIP3   OH2 1778   5.267   1.126   3.360 -0.4060  0.4410  0.5701
  591TIP3    H1 1779   5.334   1.078   3.311 -0.1376  0.1144  1.2414
  591TIP3    H2 1780   5.251   1.072   3.437  1.2159  2.2579  2.2884
  592TIP3   OH2 1781   5.314   5.687   3.669 -0.0074  0.3031 -0.1072
  592TIP3    H1 1782   5.227   5.648   3.667 -0.4385  1.2807 -1.4985
  592TIP3    H2 1783   5.372   5.614   3.691 -1.1853 -0.2788  1.2794
  593TIP3   OH2 1784   3.952   2.804   3.829  0.2207 -1.0165 -0.1051
  593TIP3    H1 1785   3.965   2.851   3.911 -1.2185 -1.0777  0.1862
  593TIP3    H2 1786   3.990   2.718   3.844  2.5424 -0.1186 -0.5135
  594TIP3   OH2 1787   0.845   1.632   4.149  0.5917 -1.0783 -0.2240
  594TIP3    H1 1788   0.833   1.584   4.231 -0.4303 -0.7589 -0.1764
  594TIP3    H2 1789   0.770   1.607   4.095  2.5683 -3.4183 -2.1616
  595TIP3   OH2 1790   5.924   1.514   0.708 -0.6131 -0.6687  0.3189
  595TIP3    H1 1791   5.830   1.504   0.694 -0.6035  0.5335 -0.7908
  595TIP3    H2 1792   5.963   1.505   0.621  0.0468  1.0896  0.3756
  596TIP3   OH2 1793   1.578   2.308   2.783  0.1395 -0.5766  0.2662
  596TIP3    H1 1794   1.487   2.301   2.755 -0.2496  0.7054  1.1291
  596TIP3    H2 1795   1.606   2.394   2.752  0.8794 -0.7253  0.5043
  597TIP3   OH2 1796   1.454   5.664   3.119 -0.6986 -0.0090 -0.0603
  597TIP3    H1 1797   1.436   5.696   3.030 -1.6127  0.1299  0.1651
  597TIP3    H2 1798   1.483   5.574   3.107 -0.4782  0.1209 -0.5234
  598TIP3   OH2 1799   3.986   5.614   5.084 -0.0106 -0.0198  0.0498
  598TIP3    H1 1800   4.053   5.548   5.105 -1.1973 -0.8652  1.4625
  598TIP3    H2 1801   4.015   5.693   5.130 -0.4620 -0.6879  1.5762
  599TIP3   OH2 1802   5.392   3.495   0.001  0.3621  0.6648  0.3254
  599TIP3    H1 1803   5.430   3.422   0.050 -0.6988 -0.0150  0.1763
  599TIP3    H2 1804   5.428   3.573   0.042  1.1180  0.0745  0.8253
  600TIP3   OH2 1805   2.826   4.291   0.248  0.3427 -0.1670  0.1763
  600TIP3    H1 1806   2.896   4.356   0.254 -0.1654  0.6248 -1.5478
  600TIP3    H2 1807   2.774   4.304   0.327  2.3877 -1.1358  1.7596
  601TIP3   OH2 1808   1.550   1.342   1.420 -0.2587 -0.2143  0.0258
  601TIP3    H1 1809   1.555   1.429   1.460 -0.4324 -0.1128 -0.1730
  601TIP3    H2 1810   1.583   1.282   1.488  0.5883  0.0889 -0.1030
  602TIP3   OH2 1811   3.164   3.801   3.052  0.0053  0.0742 -0.0338
  602TIP3    H1 1812   3.104   3.846   2.993  0.3490 -0.2520 -0.6492
  602TIP3    H2 1813   3.108   3.756   3.115 -0.3355  2.0039  1.0984
  603TIP3   OH2 1814   2.419   4.570   2.028  1.1775  0.4167 -0.2148
  603TIP3    H1 1815   2.345   4.621   2.062  0.2604 -1.0254  0.0526
  603TIP3    H2 1816   2.479   4.563   2.102  1.9756  2.2095 -0.6396
  604TIP3   OH2 1817   4.645   0.105   3.537 -0.1251  0.7245  0.0048
  604TIP3    H1 1818   4.689   0.191   3.536  0.4754  0.4813  1.6361
  604TIP3    H2 1819   4.717   0.042   3.540 -0.5502  0.0949 -1.9093
  605TIP3   OH2 1820   2.684   2.975   0.650 -0.7092  0.2826 -0.7731
  605TIP3    H1 1821   2.642   2.906   0.599  0.7885 -0.6766 -0.7551
  605TIP3    H2 1822   2.708   3.041   0.584  0.2193 -0.4457 -1.1914
  606TIP3   OH2 1823   3.812   0.973   3.473 -0.1229  0.4333 -0.2505
  606TIP3    H1 1824   3.884   0.937   3.422 -0.9499 -1.7722  0.0332
  606TIP3    H2 1825   3.820   1.068   3.462  1.4111  0.1531 -2.1159
  607TIP3   OH2 1826   0.658   5.774   3.929  0.1534  0.3705  0.4415
  607TIP3    H1 1827   0.568   5.779   3.962  0.2636 -1.3510  1.0942
  607TIP3    H2 1828   0.666   5.684   3.896  0.9810  1.1484 -1.6030
  608TIP3   OH2 1829   3.113   5.772   3.168  0.4295  0.1955  0.0505
  608TIP3    H1 1830   3.177   5.703   3.151 -1.3641 -1.1727 -1.4438
  608TIP3    H2 1831   3.058   5.775   3.090 -1.4186  1.2576  1.3043
  609TIP3   OH2 1832   2.969   1.109   4.604 -0.0471  0.1177 -0.1157
  609TIP3    H1 1833   2.968   1.016   4.582 -0.6339  0.3977 -1.3866
  609TIP3    H2 1834   2.893   1.121   4.661 -1.3110  0.1893 -1.7495
  610TIP3   OH2 1835   1.299   2.177   0.117  0.4011 -0.5801 -0.6741
  610TIP3    H1 1836   1.363   2.172   0.188  0.5417 -1.2160 -0.8376
  610TIP3    H2 1837   1.225   2.224   0.155  0.6876 -0.4450 -0.2709
  611TIP3   OH2 1838   1.888   1.457   2.349 -0.7729  0.1362 -0.0079
  611TIP3    H1 1839   1.873   1.545   2.382 -0.7362 -0.3288  1.2891
  611TIP3    H2 1840   1.979   1.438   2.369 -0.2681  0.4173 -1.8253
  612TIP3   OH2 1841   2.149   4.529   5.067  0.3111 -0.4183  0.2777
  612TIP3    H1 1842   2.153   4.465   4.996  0.2686 -1.4765  1.2161
  612TIP3    H2 1843   2.113   4.481   5.141 -0.1676  0.8170  0.8733
  613TIP3   OH2 1844   4.222   5.411   4.934 -0.0669  0.2311  0.2845
  613TIP3    H1 1845   4.169   5.372   5.003  0.6911  0.9211  1.2830
  613TIP3    H2 1846   4.207   5.355   4.858  0.9817 -2.0244  1.6461
  614TIP3   OH2 1847   6.149   5.892   4.962  0.4586  0.3209 -0.2551
  614TIP3    H1 1848   6.148   5.797   4.976 -0.6275  0.4714  0.8477
  614TIP3    H2 1849   6.159   5.928   5.050  2.5974  1.2377 -0.8016
  615TIP3   OH2 1850   5.477   5.925   0.261 -0.0245  0.5995 -0.6179
  615TIP3    H1 1851   5.419   5.891   0.193  0.9843  0.0767 -1.2461
  615TIP3    H2 1852   5.501   5.848   0.313  1.8937  0.3642 -1.7520
  616TIP3   OH2 1853   5.514   4.990   4.984  0.2364  0.4598  0.1679
  616TIP3    H1 1854   5.525   5.041   5.065 -1.4260 -0.4839  1.0321
  616TIP3    H2 1855   5.590   4.931   4.982  0.6204  0.9237  0.6985
  617TIP3   OH2 1856   1.293   3.495   4.473 -0.6540 -0.4202  0.0975
  617TIP3    H1 1857   1.286   3.410   4.516 -0.2183  0.0671  1.1695
  617TIP3    H2 1858   1.344   3.478   4.394 -0.0274 -1.0531  0.6261
  618TIP3   OH2 1859   4.657   5.924   1.166 -0.3297 -0.3119 -0.1165
  618TIP3    H1 1860   4.731   5.883   1.120 -0.8699 -1.3936 -0.0410
  618TIP3    H2 1861   4.641   6.005   1.118  2.0409  0.8717  0.9101
  619TIP3   OH2 1862   2.656   3.633   3.071  0.0058  0.7873  0.3609
  619TIP3    H1 1863   2.591   3.696   3.040  0.9665  2.0268  0.7604
  619TIP3    H2 1864   2.605   3.558   3.101 -1.0562  0.3375 -2.3195
  620TIP3   OH2 1865   2.802   5.581   3.016 -0.5897  0.2591 -0.9962
  620TIP3    H1 1866   2.824   5.488   3.004  0.9668  0.4104  0.3736
  620TIP3    H2 1867   2.875   5.628   2.977 -0.4759  0.8730 -0.0676
  621TIP3   OH2 1868   3.150   3.973   3.840  0.2961 -0.7620 -0.3764
  621TIP3    H1 1869   3.089   4.024   3.787  0.7868 -0.0210 -0.2452
  621TIP3    H2 1870   3.157   3.889   3.795 -0.2521 -0.5880 -0.7916
  622TIP3   OH2 1871   6.061   0.142   4.680  0.0514  0.0414  0.2956
  622TIP3    H1 1872   6.082   0.215   4.623  1.8748 -0.6872 -0.0564
  622TIP3    H2 1873   6.023   0.182   4.758  1.0595  1.3804  0.1371
  623TIP3   OH2 1874   5.982   5.358   1.461 -0.4656 -0.3390  0.7345
  623TIP3    H1 1875   5.994   5.441   1.507  1.8959  0.5387 -1.2657
  623TIP3    H2 1876   5.965   5.383   1.370  0.4660 -2.0348  0.0476
  624TIP3   OH2 1877   3.412   5.838   3.053 -0.1437 -0.4883 -0.1216
  624TIP3    H1 1878   3.369   5.923   3.047 -0.5764 -0.7817 -1.2711
  624TIP3    H2 1879   3.490   5.847   2.998 -0.0298 -0.7413 -0.0022
  625TIP3   OH2 1880   4.546   1.800   0.444  0.3795 -0.0474 -0.0414
  625TIP3    H1 1881   4.609   1.872   0.448  1.3830 -0.8788 -0.2562
  625TIP3    H2 1882   4.599   1.724   0.416 -0.8965 -0.5713 -1.1359
  626TIP3   OH2 1883   2.577   0.496   4.150 -0.0539 -0.4500  0.3109
  626TIP3    H1 1884   2.651   0.549   4.179 -0.6781  0.2805  0.6152
  626TIP3    H2 1885   2.600   0.469   4.061 -0.1037  1.1313 -0.2265
  627TIP3   OH2 1886   1.646   2.330   2.193 -0.4275  0.3415 -0.1673
  627TIP3    H1 1887   1.608   2.353   2.278 -1.1343  0.8373 -0.6181
  627TIP3    H2 1888   1.707   2.259   2.214 -0.8034  0.2618  0.7158
  628TIP3   OH2 1889   4.691   3.310   3.309  0.2262 -0.1043  0.1965
  628TIP3    H1 1890   4.639   3.333   3.386 -1.8502  0.4441 -1.2842
  628TIP3    H2 1891   4.692   3.214   3.308 -0.9835 -0.1266  0.1410
  629TIP3   OH2 1892   3.036   3.974   0.841 -0.1030 -0.4480  0.4109
  629TIP3    H1 1893   3.094   4.050   0.844 -0.9522  0.2632 -0.6524
  629TIP3    H2 1894   3.046   3.933   0.927  0.3737  0.8535  1.0011
  630TIP3   OH2 1895   1.634   1.553   0.264  0.0235  0.1192 -0.6593
  630TIP3    H1 1896   1.579   1.499   0.322  1.7208 -1.7137 -0.6614
  630TIP3    H2 1897   1.631   1.508   0.180  2.0110 -0.4167 -0.4811
  631TIP3   OH2 1898   4.416   3.469   3.975 -0.3123 -0.6686 -0.2091
  631TIP3    H1 1899   4.435   3.485   3.883  0.9521 -1.1720 -0.0478
  631TIP3    H2 1900   4.376   3.382   3.977 -1.6744 -0.0793 -0.4167
  632TIP3   OH2 1901   1.970   3.610   1.189 -0.0387  0.0059 -0.1795
  632TIP3    H1 1902   1.920   3.540   1.230  2.0057 -1.5531 -0.2113
  632TIP3    H2 1903   2.029   3.642   1.257 -1.1248  1.9959 -0.0695
  633TIP3   OH2 1904   0.925   0.215   1.909  0.7770  0.2413  0.3014
  633TIP3    H1 1905   1.013   0.178   1.897  1.4679  1.3147  1.6962
  633TIP3    H2 1906   0.909   0.265   1.829  0.9753 -0.8402 -0.4262
  634TIP3   OH2 1907   5.360   2.384   3.271  0.1855 -0.1256 -0.2938
  634TIP3    H1 1908   5.266   2.364   3.260  0.0186 -0.0476  0.9277
  634TIP3    H2 1909   5.379   2.445   3.199 -1.3431  1.9127  0.8981
  635TIP3   OH2 1910   5.885   4.078   3.435  0.1400  0.0974  0.0270
  635TIP3    H1 1911   5.802   4.032   3.431 -0.9788  2.0571 -2.4097
  635TIP3    H2 1912   5.866   4.158   3.484  0.4086  0.7751 -0.9375
  636TIP3   OH2 1913   6.113   1.223   4.060  0.2358  0.4636 -0.4858
  636TIP3    H1 1914   6.107   1.149   4.001  0.4452  0.6772 -0.7747
  636TIP3    H2 1915   6.193   1.208   4.111  0.6455  0.8299 -1.0110
  637TIP3   OH2 1916   3.553   0.911   3.370  0.1412 -0.2030 -0.7413
  637TIP3    H1 1917   3.555   0.829   3.321 -0.0249 -1.0717  0.6761
  637TIP3    H2 1918   3.644   0.932   3.388  0.2002  0.0951 -1.3519
  638TIP3   OH2 1919   2.803   4.546   0.858  0.1737 -0.3269  0.1331
  638TIP3    H1 1920   2.752   4.469   0.881  0.7588 -0.7868 -0.0992
  638TIP3    H2 1921   2.818   4.538   0.763 -0.5038  0.5188 -0.0648
  639TIP3   OH2 1922   4.613   0.594   1.700 -0.4743 -0.2272 -0.3929
  639TIP3    H1 1923   4.606   0.690   1.702 -1.5174 -0.2965 -0.2438
  639TIP3    H2 1924   4.532   0.565   1.659 -1.3165 -1.1447  1.7568
  640TIP3   OH2 1925   1.611   0.476   2.684 -0.5149  0.4240  0.2234
  640TIP3    H1 1926   1.665   0.421   2.627  0.6467  1.4237  0.3301
  640TIP3    H2 1927   1.521   0.447   2.667 -0.1100  0.0148 -1.3707
  641TIP3   OH2 1928   2.266   2.758   3.001 -0.4850  0.2826  0.1878
  641TIP3    H1 1929   2.176   2.786   3.012 -0.8978 -1.3716  1.4090
  641TIP3    H2 1930   2.274   2.739   2.907 -1.4898  0.2048  0.1087
  642TIP3   OH2 1931   5.146   2.502   0.339 -0.4139 -0.1240 -0.0346
  642TIP3    H1 1932   5.127   2.596   0.336  1.4600  0.2837  0.0212
  642TIP3    H2 1933   5.241   2.496   0.332 -0.4059 -1.9683  0.9464
  643TIP3   OH2 1934   0.155   5.155   4.143 -0.0572  0.0947  0.2553
  643TIP3    H1 1935   0.190   5.111   4.220  0.2455 -1.2236 -0.5929
  643TIP3    H2 1936   0.233   5.182   4.094 -0.2445  1.4213  0.6607
  644TIP3   OH2 1937   3.272   1.215   0.022  0.5620 -0.5111  0.5816
  644TIP3    H1 1938   3.216   1.142  -0.005 -0.6842 -0.0816  1.8655
  644TIP3    H2 1939   3.224   1.257   0.094  0.8423  2.0848 -0.6305
  645TIP3   OH2 1940   4.515   4.502   0.210  1.0257 -0.0243 -0.4938
  645TIP3    H1 1941   4.507   4.435   0.278  0.0557 -0.1046 -0.6624
  645TIP3    H2 1942   4.458   4.573   0.240  1.4854  0.4176 -0.6678
  646TIP3   OH2 1943   0.548   1.787   0.722 -0.6022 -0.4996 -0.0724
  646TIP3    H1 1944   0.573   1.715   0.663 -0.0765 -0.4070  0.0319
  646TIP3    H2 1945   0.596   1.769   0.802  0.2925  0.4958 -0.3724
  647TIP3   OH2 1946   4.615   1.232   2.424 -0.2881  0.0379 -0.2256
  647TIP3    H1 1947   4.672   1.202   2.354  0.8800  0.4877  0.5047
  647TIP3    H2 1948   4.532   1.253   2.381  0.1721 -0.3971 -1.3425
  648TIP3   OH2 1949   1.664   4.474   0.771  0.5469 -0.1306  0.3334
  648TIP3    H1 1950   1.689   4.382   0.779  0.5318 -0.3181 -1.3903
  648TIP3    H2 1951   1.591   4.473   0.709 -0.3260  0.9304  1.3126
  649TIP3   OH2 1952   0.923   3.664   2.254 -0.3897  0.0387  0.5609
  649TIP3    H1 1953   0.965   3.730   2.309  0.2686 -0.9192  1.2431
  649TIP3    H2 1954   0.912   3.589   2.311 -1.6091 -0.2764 -0.0581
  650TIP3   OH2 1955   4.544   0.655   1.997 -0.2394 -0.1836 -0.3775
  650TIP3    H1 1956   4.539   0.748   2.019 -2.2334 -0.4189  0.4314
  650TIP3    H2 1957   4.475   0.642   1.932  0.7992 -0.9062 -1.3837
  651TIP3   OH2 1958   1.773   0.661   4.232 -0.3848  0.3659  0.3252
  651TIP3    H1 1959   1.838   0.591   4.227  0.0728  0.8367 -0.3930
  651TIP3    H2 1960   1.690   0.617   4.215 -0.1635 -0.1029  0.4489
  652TIP3   OH2 1961   3.663   5.801   3.447  0.1203 -0.0839 -0.5674
  652TIP3    H1 1962   3.575   5.808   3.411 -0.3086  0.4453  0.5514
  652TIP3    H2 1963   3.696   5.718   3.414 -0.9519 -0.4918 -0.6409
  653TIP3   OH2 1964   4.076   1.029   2.819 -0.5261 -0.1809 -0.0962
  653TIP3    H1 1965   4.050   0.962   2.882  0.6612 -1.4277 -0.8837
  653TIP3    H2 1966   4.076   0.984   2.735  0.8015  0.6665 -0.5696
  654TIP3   OH2 1967   6.160   0.751   2.625  0.1945  0.1513  0.3188
  654TIP3    H1 1968   6.210   0.753   2.707  1.4101  2.7346 -0.3986
  654TIP3    H2 1969   6.109   0.832   2.626 -0.5232 -0.2571 -1.0533
  655TIP3   OH2 1970   1.036   5.460   4.207 -0.4268 -0.5652 -0.1551
  655TIP3    H1 1971   1.010   5.551   4.211  0.1615 -0.3399 -0.9574
  655TIP3    H2 1972   1.057   5.436   4.297  0.4057  0.4086 -0.0646
  656TIP3   OH2 1973   2.084   0.215   1.642  0.0662  0.4038 -0.0900
  656TIP3    H1 1974   2.074   0.122   1.620 -0.0542  0.9876 -2.8424
  656TIP3    H2 1975   2.177   0.226   1.660 -0.1639 -0.5103  1.9365
  657TIP3   OH2 1976   1.583   5.168   0.567 -0.4085 -0.4905  0.1389
  657TIP3    H1 1977   1.539   5.182   0.483  0.6769  0.2123 -0.3214
  657TIP3    H2 1978   1.674   5.191   0.551 -0.3957  0.7962  1.8076
  658TIP3   OH2 1979   0.799   5.841   1.794  0.2019 -0.4112 -0.0090
  658TIP3    H1 1980   0.817   5.747   1.789  1.1839 -0.2563  0.4450
  658TIP3    H2 1981   0.734   5.849   1.864  0.4578 -0.7117  0.2669
  659TIP3   OH2 1982   1.823   4.636   4.861 -0.1328  0.1361  0.3701
  659TIP3    H1 1983   1.778   4.618   4.943  0.7112 -2.2831  0.3803
  659TIP3    H2 1984   1.892   4.570   4.856 -0.4326 -0.1020 -2.5059
  660TIP3   OH2 1985   0.450   5.948   5.032 -0.6535 -0.0972 -0.1664
  660TIP3    H1 1986   0.466   5.889   5.105  0.1575  1.2324  0.7800
  660TIP3    H2 1987   0.356   5.943   5.017 -0.8846 -0.1739  1.1759
  661TIP3   OH2 1988   0.954   1.353   2.334 -0.4351  0.9314 -0.1638
  661TIP3    H1 1989   0.862   1.363   2.307 -0.3693 -0.1300 -0.8201
  661TIP3    H2 1990   1.004   1.358   2.252 -0.0602 -0.2903 -0.0216
  662TIP3   OH2 1991   1.391   1.743   1.220  0.1192 -0.0279  0.6260
  662TIP3    H1 1992   1.454   1.789   1.165  1.4553 -2.9296 -0.4940
  662TIP3    H2 1993   1.413   1.769   1.309  1.9148  0.2019  0.1451
  663TIP3   OH2 1994   2.920   2.709   0.441 -0.0755 -0.2766  0.0904
  663TIP3    H1 1995   2.991   2.699   0.377 -0.5715  0.1124 -0.5285
  663TIP3    H2 1996   2.964   2.705   0.526  0.8643  1.1937 -0.2903
  664TIP3   OH2 1997   2.773   5.142   0.941 -0.3820 -1.0197  0.2823
  664TIP3    H1 1998   2.773   5.100   1.027  0.1162 -0.6624  0.4596
  664TIP3    H2 1999   2.834   5.215   0.950  0.2301 -1.4196 -0.5895
  665TIP3   OH2 2000   3.709   0.002   0.710 -0.0987  0.3510 -0.4782
  665TIP3    H1 2001   3.803   0.014   0.691 -0.1507  0.5205 -0.6361
  665TIP3    H2 2002   3.680   0.088   0.741 -0.4126  0.5722 -1.3442
  666TIP3   OH2 2003   2.074   5.097   1.160 -0.0182  0.1494  0.3385
  666TIP3    H1 2004   2.101   5.037   1.229  1.0802 -0.6016 -0.7126
  666TIP3    H2 2005   2.155   5.138   1.130 -0.4480  0.3382 -0.6173
  667TIP3   OH2 2006   4.576   2.392   2.220  0.3481  0.2998  0.6645
  667TIP3    H1 2007   4.634   2.387   2.296 -0.1301 -1.6141  0.9655
  667TIP3    H2 2008   4.594   2.312   2.171  0.3550  1.3097 -1.0474
  668TIP3   OH2 2009   0.166   0.581   3.755  0.2335 -0.3249  0.1602
  668TIP3    H1 2010   0.147   0.602   3.663  0.7787 -2.9154 -0.6353
  668TIP3    H2 2011   0.083   0.548   3.790  0.5966 -1.7505 -0.2245
  669TIP3   OH2 2012   1.403   0.641   4.273  0.4545  0.0647 -0.1676
  669TIP3    H1 2013   1.369   0.705   4.335  2.8867  0.9044  0.4416
  669TIP3    H2 2014   1.453   0.580   4.327 -0.3643 -1.3414 -0.9505
  670TIP3   OH2 2015   5.379   2.101   3.492  0.0664 -0.4615  0.3345
  670TIP3    H1 2016   5.341   2.155   3.561 -1.3895 -2.5583  1.2882
  670TIP3    H2 2017   5.397   2.162   3.421 -2.7440  1.0997  0.8126
  671TIP3   OH2 2018   5.035   3.237   1.564 -0.1592 -0.7927 -0.0117
  671TIP3    H1 2019   5.098   3.295   1.607  0.2083  0.4904 -2.1843
  671TIP3    H2 2020   5.087   3.190   1.499 -0.9168 -1.8974  0.1617
  672TIP3   OH2 2021   2.281   0.530   4.975  0.7437  0.2178  0.2698
  672TIP3    H1 2022   2.363   0.496   5.009  0.4155  0.9037  1.8102
  672TIP3    H2 2023   2.214   0.496   5.034  0.3052  2.5831  1.2642
  673TIP3   OH2 2024   5.492   4.195   3.328 -0.3241  0.5759  0.0992
  673TIP3    H1 2025   5.568   4.247   3.302 -0.4533  0.5252 -0.4000
  673TIP3    H2 2026   5.495   4.118   3.272 -1.1040  0.8858 -0.3890
  674TIP3   OH2 2027   5.843   1.536   3.431  0.2131  0.0831 -0.7740
  674TIP3    H1 2028   5.886   1.593   3.367  1.9646 -0.6959 -0.3248
  674TIP3    H2 2029   5.758   1.517   3.391  0.6928  0.7633 -2.2087
  675TIP3   OH2 2030   3.005   2.029   1.140 -0.0326 -0.4673  0.1636
  675TIP3    H1 2031   3.039   1.980   1.065  0.8463 -0.4597  0.5457
  675TIP3    H2 2032   3.061   2.003   1.213  0.3550  0.9718  0.4148
  676TIP3   OH2 2033   1.514   0.039   4.091  0.0303  0.0745 -0.4563
  676TIP3    H1 2034   1.466   0.032   4.008 -0.4180 -1.2804 -0.1028
  676TIP3    H2 2035   1.483   0.121   4.129  0.8465  1.1378 -1.9759
  677TIP3   OH2 2036   2.244   0.075   0.811 -0.0763  0.2144 -0.9144
  677TIP3    H1 2037   2.264   0.141   0.877 -0.0746 -0.5924 -0.0819
  677TIP3    H2 2038   2.209   0.124   0.737  0.3136  1.1783 -0.4721
  678TIP3   OH2 2039   3.772   4.692   3.926  0.1642 -0.5108  0.0358
  678TIP3    H1 2040   3.809   4.615   3.967 -0.7197 -1.8145 -1.4956
  678TIP3    H2 2041   3.799   4.686   3.834 -1.8885 -0.3165 -0.6379
  679TIP3   OH2 2042   0.119   2.779   4.753  0.1477  0.1998 -0.3194
  679TIP3    H1 2043   0.132   2.684   4.763  0.7677  0.4419  1.6236
  679TIP3    H2 2044   0.083   2.807   4.837 -3.3970  1.2329 -1.9783
  680TIP3   OH2 2045   1.458   4.027   0.390 -0.3641 -0.1772 -0.1986
  680TIP3    H1 2046   1.370   4.056   0.365 -0.1199  0.5411 -0.2456
  680TIP3    H2 2047   1.445   3.984   0.474 -0.6340  0.7985  0.2831
  681TIP3   OH2 2048   0.200   5.199   0.385 -0.0350  0.3376  0.3967
  681TIP3    H1 2049   0.191   5.188   0.480 -1.6398  0.7827  0.3206
  681TIP3    H2 2050   0.156   5.123   0.347 -0.8186  0.9686  0.0068
  682TIP3   OH2 2051   3.623   5.060   4.603  0.5628  0.2669  0.5025
  682TIP3    H1 2052   3.609   4.967   4.623 -1.4122 -0.0174 -1.7078
  682TIP3    H2 2053   3.564   5.106   4.662 -2.1519 -0.2956 -1.5498
  683TIP3   OH2 2054   0.126   5.303   0.671  0.1363  0.1071 -0.6784
  683TIP3    H1 2055   0.036   5.270   0.670  0.2510 -0.2100 -1.7263
  683TIP3    H2 2056   0.166   5.263   0.748 -0.2660 -0.7171 -0.8946
  684TIP3   OH2 2057   3.465   0.023   3.189  0.0410 -0.2186 -0.7776
  684TIP3    H1 2058   3.430   0.031   3.101  0.1164  2.5049 -0.6405
  684TIP3    H2 2059   3.392   0.042   3.247  0.1637 -1.2855 -0.2355
  685TIP3   OH2 2060   2.336   5.588   4.001  0.0521 -0.2645 -0.3215
  685TIP3    H1 2061   2.338   5.614   3.909  1.0901  1.4942  0.1583
  685TIP3    H2 2062   2.248   5.553   4.014 -0.1351 -0.4616 -1.9595
  686TIP3   OH2 2063   6.206   0.098   2.447  0.3794  0.4793  0.0936
  686TIP3    H1 2064   6.119   0.113   2.484 -0.1207 -0.4557 -0.6665
  686TIP3    H2 2065   6.226   0.179   2.400 -0.1247  0.6545  0.1684
  687TIP3   OH2 2066   4.962   4.646   3.808  0.0480 -0.0406  0.1111
  687TIP3    H1 2067   4.920   4.702   3.743 -0.4809  0.5810  0.9681
  687TIP3    H2 2068   4.893   4.627   3.871  0.2426 -1.6144 -0.1129
  688TIP3   OH2 2069   2.613   1.254   0.834 -0.6523  0.4511 -0.1914
  688TIP3    H1 2070   2.615   1.194   0.909 -0.5396  2.6362  1.6516
  688TIP3    H2 2071   2.672   1.214   0.770  0.1774 -0.9111  1.3440
  689TIP3   OH2 2072   0.152   5.696   2.229 -0.4731  0.2246  0.4577
  689TIP3    H1 2073   0.107   5.634   2.287 -1.2208  1.5619  1.3623
  689TIP3    H2 2074   0.083   5.754   2.198  0.2342  0.6877 -0.2796
  690TIP3   OH2 2075   2.698   4.653   2.818 -0.0231  0.1974 -0.4088
  690TIP3    H1 2076   2.659   4.617   2.897 -1.7126 -0.0362 -1.2809
  690TIP3    H2 2077   2.703   4.747   2.834  0.9983  0.0029  0.4975
  691TIP3   OH2 2078   2.608   4.336   1.332  0.1795  1.0878  0.5230
  691TIP3    H1 2079   2.533   4.385   1.299 -1.2240 -0.2519  1.5690
  691TIP3    H2 2080   2.636   4.385   1.410  0.1161  1.3581  0.3772
  692TIP3   OH2 2081   5.571   5.766   3.165  0.0030  0.2181  0.6071
  692TIP3    H1 2082   5.547   5.832   3.100 -0.2747  0.3901  0.8849
  692TIP3    H2 2083   5.488   5.734   3.200 -0.0704 -2.6469 -1.8214
  693TIP3   OH2 2084   2.642   2.945   1.432  0.4632  0.8150 -0.3359
  693TIP3    H1 2085   2.691   3.001   1.372  1.6289  1.1641  0.9018
  693TIP3    H2 2086   2.692   2.946   1.513 -0.2054 -0.9527  0.1562
  694TIP3   OH2 2087   4.981   1.995   4.649  0.5111  0.0915  0.7334
  694TIP3    H1 2088   4.890   1.983   4.622  1.1911 -1.6400 -1.0916
  694TIP3    H2 2089   4.986   1.955   4.736 -0.0384 -1.9559 -0.1029
  695TIP3   OH2 2090   6.323   1.227   2.753  0.3440  0.1146 -0.2468
  695TIP3    H1 2091   6.263   1.187   2.690 -1.1494  1.1661  0.4498
  695TIP3    H2 2092   6.311   1.175   2.833 -2.0761  2.1908  0.8569
  696TIP3   OH2 2093   2.694   5.260   4.494 -0.7799  0.1650 -0.9878
  696TIP3    H1 2094   2.658   5.349   4.488 -1.4249 -0.1468 -2.1523
  696TIP3    H2 2095   2.774   5.264   4.441  0.8795  0.7977  1.4177
  697TIP3   OH2 2096   2.349   0.296   1.688 -0.4694  0.4392 -0.4968
  697TIP3    H1 2097   2.364   0.286   1.782 -0.2368  0.5748 -0.5192
  697TIP3    H2 2098   2.434   0.279   1.648 -0.7092 -0.2167 -0.7273
  698TIP3   OH2 2099   3.379   0.860   2.441 -0.0208 -0.0301  0.2949
  698TIP3    H1 2100   3.460   0.819   2.470  1.0247  0.5009 -1.6683
  698TIP3    H2 2101   3.371   0.938   2.494  0.2536 -0.5649  1.1410
  699TIP3   OH2 2102   0.776   5.320   1.664 -0.4142  0.1350 -0.0805
  699TIP3    H1 2103   0.829   5.279   1.595 -0.0604  1.9868 -0.9650
  699TIP3    H2 2104   0.686   5.293   1.645 -0.1069 -1.0272 -0.0136
  700TIP3   OH2 2105   5.354   2.622   2.592 -0.2273  0.4839  0.1683
  700TIP3    H1 2106   5.264   2.651   2.604 -0.2886  0.5036 -0.3339
  700TIP3    H2 2107   5.406   2.700   2.614 -0.3323  0.4870  0.4104
  701TIP3   OH2 2108   1.595   6.014   4.015 -0.4379 -0.1877  0.0341
  701TIP3    H1 2109   1.541   5.969   4.080  0.3678  0.6543  1.3233
  701TIP3    H2 2110   1.545   6.006   3.933 -1.4354 -1.3364  0.7174
  702TIP3   OH2 2111   5.450   2.690   4.008  0.1633 -0.1757 -0.5230
  702TIP3    H1 2112   5.508   2.616   4.025 -1.6928 -1.5910 -0.0550
  702TIP3    H2 2113   5.448   2.739   4.090 -0.9476 -1.3300  0.1559
  703TIP3   OH2 2114   2.031   2.811   2.266 -0.0589 -0.0393  0.3716
  703TIP3    H1 2115   1.979   2.733   2.286 -0.4974  0.0723 -0.2955
  703TIP3    H2 2116   1.969   2.884   2.278  0.6239  0.3236  2.0576
  704TIP3   OH2 2117   2.590   4.512   3.053  0.0283 -0.3230 -0.1647
  704TIP3    H1 2118   2.654   4.552   3.113  0.1689  0.4295 -0.8037
  704TIP3    H2 2119   2.510   4.563   3.065 -0.2871 -0.8873  0.1941
  705TIP3   OH2 2120   1.473   5.424   2.376  0.6361  0.2797  0.3991
  705TIP3    H1 2121   1.486   5.515   2.402  1.0679  0.0039  1.1851
  705TIP3    H2 2122   1.546   5.404   2.317  1.0178  0.1940  0.8991
  706TIP3   OH2 2123   0.786   0.190   3.890 -0.2473 -0.5625 -0.0905
  706TIP3    H1 2124   0.832   0.272   3.909 -0.7192  0.1147 -1.6809
  706TIP3    H2 2125   0.754   0.161   3.976 -1.2102  1.6296  0.3832
  707TIP3   OH2 2126   2.527   2.726   2.245 -0.0422  0.0934 -0.0653
  707TIP3    H1 2127   2.621   2.718   2.262  0.0195 -1.2769 -0.8869
  707TIP3    H2 2128   2.486   2.717   2.331  0.5136 -1.0127  0.1025
  708TIP3   OH2 2129   5.168   5.188   4.297 -0.0278 -0.1697  0.0543
  708TIP3    H1 2130   5.076   5.178   4.273  0.2192  0.1097 -1.0530
  708TIP3    H2 2131   5.166   5.222   4.387 -0.9943 -0.4289  0.1413
  709TIP3   OH2 2132   2.449   1.554   3.604  0.0453  0.4073 -0.2042
  709TIP3    H1 2133   2.518   1.607   3.645  2.3265 -1.3144 -1.5452
  709TIP3    H2 2134   2.395   1.524   3.677 -0.2413  2.9947  0.7500
  710TIP3   OH2 2135   1.813   2.436   2.909  0.4690  0.5438 -0.1354
  710TIP3    H1 2136   1.789   2.509   2.966  0.8942 -0.2751  1.1301
  710TIP3    H2 2137   1.909   2.440   2.905  0.4515  0.4969 -0.6819
  711TIP3   OH2 2138   2.035   2.185   2.863 -0.3376 -0.4569 -0.1613
  711TIP3    H1 2139   2.015   2.103   2.907 -0.7370 -0.6426 -0.6807
  711TIP3    H2 2140   2.007   2.172   2.773  0.3239 -0.0280 -0.4416
  712TIP3   OH2 2141   5.390   0.290   2.101 -0.8989 -0.3584  0.2994
  712TIP3    H1 2142   5.464   0.350   2.112 -1.3552  0.1228  0.7870
  712TIP3    H2 2143   5.427   0.216   2.052  0.0547 -0.4070  1.0548
  713TIP3   OH2 2144   4.298   0.680   1.881  0.0223  0.8818 -0.0837
  713TIP3    H1 2145   4.303   0.775   1.893  0.5556  0.8389  0.0432
  713TIP3    H2 2146   4.232   0.668   1.812 -1.8789  1.2198  1.5735
  714TIP3   OH2 2147   1.792   5.272   4.990 -0.1066 -0.0409 -0.3579
  714TIP3    H1 2148   1.742   5.346   4.955 -0.9144 -1.0966 -1.5388
  714TIP3    H2 2149   1.840   5.237   4.915  1.7584  0.3936  0.5723
  715TIP3   OH2 2150   0.381   3.542   2.529  0.8575  0.0798  0.2379
  715TIP3    H1 2151   0.304   3.535   2.473  0.8784  0.0499  0.2131
  715TIP3    H2 2152   0.441   3.476   2.496  0.2521 -1.0493  1.2765
  716TIP3   OH2 2153   2.912   5.388   2.215  0.1936  0.3982  0.2500
  716TIP3    H1 2154   2.981   5.325   2.231 -1.1148 -0.7191  1.8820
  716TIP3    H2 2155   2.832   5.336   2.211 -0.6429  1.6888 -1.1087
  717TIP3   OH2 2156   4.651   5.578   1.364  0.8430  0.1993 -0.5977
  717TIP3    H1 2157   4.641   5.560   1.457 -0.2661  0.6063 -0.6144
  717TIP3    H2 2158   4.650   5.674   1.358  0.1916  0.1733 -1.0759
  718TIP3   OH2 2159   4.697   1.691   3.043 -0.3826 -0.3921 -0.6265
  718TIP3    H1 2160   4.689   1.624   3.111 -1.2766 -0.1403 -0.4602
  718TIP3    H2 2161   4.764   1.658   2.983  0.5274 -0.5465  0.4496
  719TIP3   OH2 2162   0.164   1.603   3.248 -0.0840  0.2824  0.2455
  719TIP3    H1 2163   0.118   1.569   3.325 -2.0386  0.2427 -0.8918
  719TIP3    H2 2164   0.254   1.614   3.278 -0.7777  0.2949  2.5528
  720TIP3   OH2 2165   3.219   0.101   5.133  0.0863 -0.1357  0.1260
  720TIP3    H1 2166   3.135   0.067   5.102 -0.0754  0.8803 -0.6127
  720TIP3    H2 2167   3.200   0.137   5.219 -0.3325  0.4477 -0.2057
  721TIP3   OH2 2168   5.837   4.612   3.758 -0.2067 -0.1514 -0.0898
  721TIP3    H1 2169   5.829   4.524   3.721 -2.1529  0.1950 -0.5915
  721TIP3    H2 2170   5.798   4.669   3.693 -1.4004  0.7664  1.3601
  722TIP3   OH2 2171   3.423   2.531   0.817  0.5261  0.4047 -0.0598
  722TIP3    H1 2172   3.336   2.491   0.811 -0.2258  1.6256  1.9032
  722TIP3    H2 2173   3.417   2.611   0.764  0.7274  0.1059 -0.5493
  723TIP3   OH2 2174   1.915   0.725   5.191 -0.2913 -0.8833 -0.0683
  723TIP3    H1 2175   1.924   0.692   5.102  0.9774 -0.8433  0.0340
  723TIP3    H2 2176   1.861   0.659   5.235  0.1437 -1.5586 -0.5252
  724TIP3   OH2 2177   5.287   0.656   3.710 -0.7507  0.2335  0.3307
  724TIP3    H1 2178   5.379   0.633   3.723 -1.0693 -1.2353  0.1649
  724TIP3    H2 2179   5.250   0.658   3.798 -0.6774  0.3067  0.3599
  725TIP3   OH2 2180   3.382   4.176   2.421  0.1531  0.0537  0.7084
  725TIP3    H1 2181   3.411   4.092   2.386 -2.2908 -1.1200  1.2355
  725TIP3    H2 2182   3.462   4.225   2.439  1.6203 -1.9177 -0.1913
  726TIP3   OH2 2183   1.892   2.311   3.466 -0.5468 -0.7302 -0.8697
  726TIP3    H1 2184   1.836   2.333   3.391 -1.2279 -0.7691 -0.3859
  726TIP3    H2 2185   1.853   2.231   3.501  0.6964 -1.6013 -1.3951
  727TIP3   OH2 2186   5.126   0.974   0.236 -0.3928 -0.0738 -0.2321
  727TIP3    H1 2187   5.171   1.038   0.292  0.4896  0.1958 -1.2260
  727TIP3    H2 2188   5.033   0.995   0.247 -0.1601  0.8551  0.0861
  728TIP3   OH2 2189   0.394   1.037   3.569  0.1863  0.2247  0.3390
  728TIP3    H1 2190   0.301   1.059   3.582 -0.8115 -0.5116 -3.8466
  728TIP3    H2 2191   0.394   0.941   3.563  0.8495  0.2889 -1.2119
  729TIP3   OH2 2192   2.843   2.264   0.432  0.4080 -0.3287  0.0248
  729TIP3    H1 2193   2.834   2.236   0.341  2.4081 -1.2881  0.0681
  729TIP3    H2 2194   2.776   2.214   0.479 -1.5928  1.1914 -1.0416
  730TIP3   OH2 2195   2.294   5.629   1.889 -0.0691 -0.1754  0.2855
  730TIP3    H1 2196   2.227   5.574   1.847 -0.0316 -0.0797  0.0997
  730TIP3    H2 2197   2.320   5.690   1.821  0.6353 -0.5868  0.1793
  731TIP3   OH2 2198   2.005   4.981   1.975 -0.3994  0.1364  0.1313
  731TIP3    H1 2199   1.967   4.915   1.917 -2.2813  1.7498 -0.5859
  731TIP3    H2 2200   2.091   5.000   1.937 -0.7158 -0.3954 -0.8859
  732TIP3   OH2 2201   5.218   4.189   1.736 -0.1174  0.1565  0.1622
  732TIP3    H1 2202   5.151   4.171   1.669 -0.7038 -2.0464  1.2530
  732TIP3    H2 2203   5.300   4.160   1.696  0.0075  1.4682 -0.6066
  733TIP3   OH2 2204   1.299   1.423   1.350  0.7833  0.6942  0.2813
  733TIP3    H1 2205   1.385   1.409   1.390  1.5649 -0.9566 -1.7818
  733TIP3    H2 2206   1.315   1.489   1.283 -0.0298  1.8329  1.1752
  734TIP3   OH2 2207   4.086   2.974   4.300 -0.0889 -0.6820 -0.2439
  734TIP3    H1 2208   4.167   2.929   4.323  1.1559  0.8073 -1.4807
  734TIP3    H2 2209   4.043   2.991   4.383 -0.5549 -3.9081  0.3079
  735TIP3   OH2 2210   2.754   3.915   2.014  0.2503  0.3255  0.4388
  735TIP3    H1 2211   2.721   3.919   2.104 -1.9614 -1.4859 -0.1925
  735TIP3    H2 2212   2.716   3.835   1.978  1.9269  0.4413 -1.8185
  736TIP3   OH2 2213   1.668   1.398   3.337  0.6082 -0.3583 -0.4836
  736TIP3    H1 2214   1.670   1.342   3.415  0.6915 -0.4996 -0.5865
  736TIP3    H2 2215   1.652   1.486   3.371 -1.3460 -0.6849 -0.4474
  737TIP3   OH2 2216   4.932   5.253   4.986  0.3138  0.5020 -0.2437
  737TIP3    H1 2217   4.896   5.321   5.043 -0.8797 -1.7683  1.9546
  737TIP3    H2 2218   5.020   5.237   5.021  0.4569  0.6818 -0.5241
  738TIP3   OH2 2219   4.934   4.806   1.484 -0.0408  0.1273 -0.4802
  738TIP3    H1 2220   5.003   4.787   1.421  2.5067  0.6562  1.9346
  738TIP3    H2 2221   4.949   4.745   1.556 -2.3615  0.0371  0.0284
  739TIP3   OH2 2222   2.809   3.749   4.321 -0.6880 -0.5573 -0.2575
  739TIP3    H1 2223   2.817   3.728   4.413  3.0071  0.4872 -0.2047
  739TIP3    H2 2224   2.743   3.819   4.318 -1.3466 -1.0628  1.4597
  740TIP3   OH2 2225   0.312   0.032   2.433  0.7234  0.0118 -0.1489
  740TIP3    H1 2226   0.294  -0.060   2.456 -2.3130  0.4210 -0.4954
  740TIP3    H2 2227   0.243   0.055   2.371  0.5862  2.9165  0.9244
  741TIP3   OH2 2228   1.274   3.462   2.664 -0.0765 -0.4600 -0.3196
  741TIP3    H1 2229   1.352   3.427   2.707  0.7194  0.1862 -1.2005
  741TIP3    H2 2230   1.267   3.413   2.582  0.1869  0.3782 -0.8625
  742TIP3   OH2 2231   4.572   3.437   3.097 -0.1005 -0.6158  0.0004
  742TIP3    H1 2232   4.579   3.531   3.118 -1.8350 -0.0997 -1.4811
  742TIP3    H2 2233   4.599   3.393   3.177  0.5016  1.1440  0.8265
  743TIP3   OH2 2234   0.421   2.312   1.454  0.1529  0.3477 -0.0809
  743TIP3    H1 2235   0.475   2.378   1.498  0.8967 -1.3312  1.6820
  743TIP3    H2 2236   0.481   2.269   1.393  0.0956  0.2189 -0.0450
  744TIP3   OH2 2237   2.085   0.392   0.234 -0.4226 -0.0897 -0.1770
  744TIP3    H1 2238   1.995   0.413   0.210  0.4255  0.9970 -2.7150
  744TIP3    H2 2239   2.139   0.436   0.169  1.9104 -2.0791  0.2361
  745TIP3   OH2 2240   6.006   4.225   3.233 -0.6562 -0.5684  0.3902
  745TIP3    H1 2241   5.938   4.286   3.206  0.7224  0.0723 -1.8538
  745TIP3    H2 2242   5.960   4.162   3.289 -2.6778  0.9033  0.5000
  746TIP3   OH2 2243   0.758   5.403   1.353 -0.3185 -0.4539  0.2952
  746TIP3    H1 2244   0.735   5.479   1.407  1.0636  1.2461 -1.3457
  746TIP3    H2 2245   0.852   5.414   1.336 -0.5487 -1.2791 -1.8308
  747TIP3   OH2 2246   4.396   0.364   3.098 -0.8658 -0.2280  0.1658
  747TIP3    H1 2247   4.461   0.343   3.031 -2.3797  0.5336 -1.6238
  747TIP3    H2 2248   4.383   0.282   3.145  0.7375 -0.6087  0.0155
  748TIP3   OH2 2249   4.623   4.511   0.783  0.1988  0.2923 -0.3088
  748TIP3    H1 2250   4.578   4.517   0.699 -1.1349 -1.2525  0.2297
  748TIP3    H2 2251   4.683   4.437   0.774 -1.6659 -1.4587  0.7551
  749TIP3   OH2 2252   3.133   5.535   2.565 -0.5087 -0.0634  0.2394
  749TIP3    H1 2253   3.068   5.470   2.591  0.2155 -0.3970  1.2764
  749TIP3    H2 2254   3.108   5.560   2.476 -1.7165 -0.5946  0.4159
  750TIP3   OH2 2255   3.426   5.976   0.097 -0.0372  0.4184 -0.0669
  750TIP3    H1 2256   3.430   6.046   0.031 -0.4221  1.7722  1.2703
  750TIP3    H2 2257   3.496   5.916   0.073  1.2597  2.0131 -0.4908
  751TIP3   OH2 2258   5.123   3.552   0.037 -0.1636  0.0806  0.5695
  751TIP3    H1 2259   5.218   3.552   0.024  0.3069 -1.1509  3.2750
  751TIP3    H2 2260   5.095   3.466   0.006 -0.2734  0.1238  0.5475
  752TIP3   OH2 2261   4.585   2.170   4.076 -0.1777  0.0631  0.1659
  752TIP3    H1 2262   4.631   2.117   4.011  0.0572 -0.1478  0.4956
  752TIP3    H2 2263   4.655   2.219   4.120 -0.3776  0.5261 -0.0293
  753TIP3   OH2 2264   3.807   0.429   4.496  0.2239 -0.2530 -0.4064
  753TIP3    H1 2265   3.767   0.515   4.483 -0.8828 -1.0652 -2.8356
  753TIP3    H2 2266   3.753   0.369   4.445  2.2647 -2.0462 -0.6123
  754TIP3   OH2 2267   5.727   3.906   4.345  0.0388 -0.2745 -0.0021
  754TIP3    H1 2268   5.774   3.907   4.262 -2.0894  0.0717 -1.2677
  754TIP3    H2 2269   5.703   3.814   4.358 -0.9079 -0.1262 -0.5755
  755TIP3   OH2 2270  -0.029   2.654   2.356 -0.1593  0.5897 -0.1060
  755TIP3    H1 2271  -0.008   2.747   2.347  1.5026  0.1674 -1.0058
  755TIP3    H2 2272   0.049   2.608   2.326 -1.2719 -1.1222 -0.5804
  756TIP3   OH2 2273   3.007   0.906   1.171  0.0468  0.0017  0.2983
  756TIP3    H1 2274   3.009   0.922   1.266 -1.4907 -0.4558  0.4367
  756TIP3    H2 2275   2.940   0.839   1.160  0.2024  0.0575 -1.1305
  757TIP3   OH2 2276   2.620   4.552   0.229  0.6562  0.1594 -0.0611
  757TIP3    H1 2277   2.706   4.581   0.260 -0.1104  1.1164  1.2465
  757TIP3    H2 2278   2.587   4.495   0.298 -0.8577  1.8999  0.7357
  758TIP3   OH2 2279   2.565   0.349   3.158 -0.1256 -0.1946 -0.2526
  758TIP3    H1 2280   2.603   0.375   3.074 -0.9135 -0.3140 -0.6494
  758TIP3    H2 2281   2.474   0.377   3.153 -0.0901  0.1426  0.7196
  759TIP3   OH2 2282   3.478   3.468   3.135  0.3080 -0.0764 -0.2101
  759TIP3    H1 2283   3.529   3.522   3.196 -0.4507  1.4269 -0.8554
  759TIP3    H2 2284   3.535   3.458   3.059 -0.1660  1.2694 -0.7693
  760TIP3   OH2 2285   3.290   0.108   3.952  0.2798  0.2769  0.0404
  760TIP3    H1 2286   3.329   0.023   3.932 -0.8917 -0.4236  0.6576
  760TIP3    H2 2287   3.256   0.139   3.867  0.1635 -0.1582 -0.0748
  761TIP3   OH2 2288   4.590   3.379   1.149 -0.4955  0.2910 -0.1189
  761TIP3    H1 2289   4.547   3.295   1.170 -1.2853  0.3330 -1.4154
  761TIP3    H2 2290   4.525   3.445   1.172  0.2552  0.6014  1.2192
  762TIP3   OH2 2291   3.806   5.546   1.040  0.0303 -0.0688  0.5809
  762TIP3    H1 2292   3.847   5.485   1.101  3.0717  0.9055 -0.3256
  762TIP3    H2 2293   3.818   5.507   0.954 -2.4504 -0.4677  0.3293
  763TIP3   OH2 2294   0.475   3.157   1.301 -0.5438  0.8298 -0.5449
  763TIP3    H1 2295   0.391   3.147   1.257 -0.7197  1.4338 -0.3577
  763TIP3    H2 2296   0.491   3.251   1.301 -0.0968  0.7590 -0.1578
  764TIP3   OH2 2297   2.061   2.586   1.662 -0.1202 -0.5963 -0.2394
  764TIP3    H1 2298   1.991   2.591   1.598 -0.5223  0.8698  0.2746
  764TIP3    H2 2299   2.028   2.633   1.739  1.4102  0.1515  0.0113
  765TIP3   OH2 2300   3.354   3.611   1.971 -0.0793  0.1664  0.6537
  765TIP3    H1 2301   3.358   3.668   1.894  2.5953 -0.7916 -0.0370
  765TIP3    H2 2302   3.297   3.539   1.944 -2.2259  1.6348  0.9926
  766TIP3   OH2 2303   3.821   4.749   2.585  0.1132  0.3355  0.0828
  766TIP3    H1 2304   3.775   4.775   2.665 -1.9423  0.7786 -1.1575
  766TIP3    H2 2305   3.838   4.832   2.539  0.4685  0.0269 -0.3548
  767TIP3   OH2 2306   5.408   4.851   3.184 -0.1042  0.2143  0.3575
  767TIP3    H1 2307   5.316   4.870   3.167 -0.0835  0.0236  0.0202
  767TIP3    H2 2308   5.423   4.768   3.138  0.8942  1.4906 -1.7531
  768TIP3   OH2 2309   5.058   1.046   2.594 -0.1837  0.5565 -0.4446
  768TIP3    H1 2310   5.117   0.983   2.635  0.3609  0.9175 -0.6680
  768TIP3    H2 2311   4.982   1.050   2.652  0.4520  0.8490  0.3706
  769TIP3   OH2 2312   3.870   0.842   0.481  0.5061 -0.3715 -0.1084
  769TIP3    H1 2313   3.957   0.803   0.484  0.6178 -0.0932  0.3836
  769TIP3    H2 2314   3.811   0.771   0.507  0.7893 -0.0037  1.6710
  770TIP3   OH2 2315   2.722   4.718   3.978  0.0197  0.0125  0.1526
  770TIP3    H1 2316   2.756   4.730   4.067  0.5967  0.1384 -0.0861
  770TIP3    H2 2317   2.746   4.628   3.955  1.0358  0.4097 -0.3772
  771TIP3   OH2 2318   5.030   3.196   0.651 -0.3331 -0.3055  0.1870
  771TIP3    H1 2319   4.950   3.225   0.695 -0.7165  0.3371 -0.9186
  771TIP3    H2 2320   5.075   3.277   0.627  1.0914 -0.6483  1.5388
  772TIP3   OH2 2321   0.283   4.432   4.462 -0.2934 -0.5172  0.0682
  772TIP3    H1 2322   0.274   4.448   4.368  0.1682 -1.9632 -0.2473
  772TIP3    H2 2323   0.198   4.399   4.490 -1.1546  1.9579  0.6631
  773TIP3   OH2 2324   2.157   5.338   2.061 -0.2908  0.2833  0.1925
  773TIP3    H1 2325   2.213   5.260   2.057 -0.4422  0.1626  0.3824
  773TIP3    H2 2326   2.216   5.409   2.083 -0.3163  0.0431  1.0755
  774TIP3   OH2 2327   2.513   0.324   4.359  0.3886 -0.4979 -0.2969
  774TIP3    H1 2328   2.556   0.384   4.298  1.7404  0.9877  2.0022
  774TIP3    H2 2329   2.444   0.283   4.306 -1.9315  4.3708 -1.6654
  775TIP3   OH2 2330   1.571   0.371   4.167  0.3335 -0.1733 -0.0798
  775TIP3    H1 2331   1.487   0.406   4.137  0.1356 -0.4870  0.0972
  775TIP3    H2 2332   1.547   0.307   4.234  0.7943  0.7231  0.9538
  776TIP3   OH2 2333   5.307   4.033   4.397  0.5769  0.0914 -0.1128
  776TIP3    H1 2334   5.242   4.075   4.453  0.6101 -1.6569  1.3179
  776TIP3    H2 2335   5.257   3.971   4.344  1.0809 -1.8151  1.5277
  777TIP3   OH2 2336   6.223   4.593   2.888  0.1873  0.2407 -0.1374
  777TIP3    H1 2337   6.251   4.684   2.896  1.1965 -0.0488 -0.1947
  777TIP3    H2 2338   6.284   4.544   2.944 -1.2713 -0.2494  1.1035
  778TIP3   OH2 2339   2.897   1.696   3.118 -0.1286  0.1568  0.2061
  778TIP3    H1 2340   2.956   1.751   3.067 -0.6832  0.5883  0.0106
  778TIP3    H2 2341   2.875   1.749   3.195 -0.5418  0.1501  0.0955
  779TIP3   OH2 2342   0.497   5.605   1.669  0.0255 -0.0375 -0.1501
  779TIP3    H1 2343   0.427   5.634   1.727 -0.0579  0.8504 -0.6771
  779TIP3    H2 2344   0.489   5.661   1.592 -1.1510 -2.4874 -1.9592
  780TIP3   OH2 2345   5.850   0.769   0.813  0.5211 -0.2512 -0.1172
  780TIP3    H1 2346   5.868   0.862   0.801  0.2124 -0.2374 -0.5313
  780TIP3    H2 2347   5.925   0.735   0.861  0.4960  0.2673  0.2946
  781TIP3   OH2 2348   0.329   2.287   5.080 -1.1524  0.4025  0.1199
  781TIP3    H1 2349   0.291   2.294   4.992 -1.1631 -0.9464  0.0005
  781TIP3    H2 2350   0.305   2.369   5.123 -3.8725 -0.2034 -0.0718
  782TIP3   OH2 2351   2.226   3.463   0.273 -0.0476 -0.1806  0.1683
  782TIP3    H1 2352   2.180   3.459   0.189 -0.5740 -1.7564  0.4997
  782TIP3    H2 2353   2.317   3.477   0.250 -0.3226  0.3789 -0.6155
  783TIP3   OH2 2354   5.724   2.784   2.500  0.3989  0.0861 -0.0613
  783TIP3    H1 2355   5.793   2.818   2.557  0.4476 -1.5444  0.9149
  783TIP3    H2 2356   5.642   2.810   2.544  0.4362 -0.9823  0.6845
  784TIP3   OH2 2357   5.175   4.734   3.409  0.9280  0.5509  0.5642
  784TIP3    H1 2358   5.119   4.811   3.401 -1.1909 -0.9380  0.4905
  784TIP3    H2 2359   5.166   4.688   3.326  3.2715  0.8408  0.0605
  785TIP3   OH2 2360   2.249   4.129   4.077 -0.0669  0.3604  0.1157
  785TIP3    H1 2361   2.241   4.037   4.053  0.2774  0.1295  0.8463
  785TIP3    H2 2362   2.159   4.156   4.096 -0.1319  0.0854  0.2096
  786TIP3   OH2 2363   0.249   1.124   0.078 -0.0506  0.4101  0.0293
  786TIP3    H1 2364   0.257   1.134   0.173 -2.3615  0.4889  0.2879
  786TIP3    H2 2365   0.337   1.101   0.048  1.0670  1.8591  1.9821
  787TIP3   OH2 2366   2.830   2.608   4.867 -0.7005  0.2527  0.0823
  787TIP3    H1 2367   2.752   2.572   4.826 -1.1466 -1.5922  2.3556
  787TIP3    H2 2368   2.882   2.531   4.893  1.4201  1.4030 -0.4666
  788TIP3   OH2 2369   6.203   5.798   4.547  0.5402  0.1630 -0.1485
  788TIP3    H1 2370   6.239   5.713   4.573  0.5671  0.4818  0.9071
  788TIP3    H2 2371   6.168   5.835   4.628 -0.1151  0.8548 -0.7340
  789TIP3   OH2 2372   5.039   5.085   0.542 -0.0613  0.2341  0.0029
  789TIP3    H1 2373   4.973   5.027   0.503 -0.3043  1.1078 -0.9242
  789TIP3    H2 2374   4.988   5.150   0.590  0.0281  1.5305 -1.5727
  790TIP3   OH2 2375   5.357   1.760   0.167 -0.7214  0.0371 -0.1988
  790TIP3    H1 2376   5.436   1.802   0.134 -0.4208 -1.0542 -0.9212
  790TIP3    H2 2377   5.300   1.752   0.091 -1.2328  0.1644  0.1645
  791TIP3   OH2 2378   0.466   4.153   2.223 -0.0027  0.0893 -0.1408
  791TIP3    H1 2379   0.422   4.186   2.301 -1.4061  2.1550 -1.7165
  791TIP3    H2 2380   0.453   4.221   2.157  3.5073 -0.3161 -1.4396
  792TIP3   OH2 2381   5.149   5.135   5.139  0.3024 -0.1974  0.2260
  792TIP3    H1 2382   5.227   5.190   5.142  0.6766 -0.7237  0.3702
  792TIP3    H2 2383   5.150   5.088   5.222 -0.1989 -0.1680  0.2483
  793TIP3   OH2 2384   4.217   2.820   4.490 -0.6344  0.1810  0.4898
  793TIP3    H1 2385   4.174   2.745   4.532 -0.4661 -0.4732 -0.4678
  793TIP3    H2 2386   4.270   2.859   4.560  0.1758 -1.2827  0.7402
  794TIP3   OH2 2387   2.727   5.904   2.258 -0.0816 -0.4725  0.1871
  794TIP3    H1 2388   2.790   5.916   2.187 -1.7738 -2.0246 -1.6946
  794TIP3    H2 2389   2.702   5.812   2.252 -1.0546 -0.3730  2.1514
  795TIP3   OH2 2390   0.425   4.557   2.674  0.1044  0.8818 -0.7983
  795TIP3    H1 2391   0.330   4.573   2.666 -0.0089  1.3062  0.9802
  795TIP3    H2 2392   0.438   4.471   2.636 -0.7770  1.3444 -2.2503
  796TIP3   OH2 2393   1.748   1.877   0.604  0.1970  0.2639  0.0978
  796TIP3    H1 2394   1.841   1.886   0.627 -0.1968  0.1140  1.9151
  796TIP3    H2 2395   1.748   1.852   0.512  1.9644  0.2605  0.0705
  797TIP3   OH2 2396   5.369   5.102   1.584  0.2955 -0.0100 -0.4396
  797TIP3    H1 2397   5.371   5.158   1.506  0.4739  1.5882  0.6607
  797TIP3    H2 2398   5.450   5.122   1.631 -0.1220 -0.4315  0.4933
  798TIP3   OH2 2399   1.943   2.525   2.469 -0.1318 -0.0353 -0.3390
  798TIP3    H1 2400   1.951   2.599   2.529  1.5643 -0.3862 -0.0851
  798TIP3    H2 2401   1.901   2.457   2.520  0.0452  0.1277  0.0283
  799TIP3   OH2 2402   4.986   2.912   2.856 -0.2399 -0.2389  0.1061
  799TIP3    H1 2403   5.062   2.888   2.804 -2.4252  0.2515 -3.6607
  799TIP3    H2 2404   4.958   2.831   2.897  0.3723 -1.1690 -1.2426
  800TIP3   OH2 2405   0.709   1.177   3.617 -0.0160  0.0416  0.3118
  800TIP3    H1 2406   0.687   1.119   3.690 -0.0224 -0.8826 -0.3980
  800TIP3    H2 2407   0.801   1.161   3.600 -0.4246 -1.1061 -1.0144
  801TIP3   OH2 2408   4.451   3.052   4.876 -0.0772  0.5401 -0.3905
  801TIP3    H1 2409   4.428   3.077   4.965  0.4227 -1.9414  0.5353
  801TIP3    H2 2410   4.391   2.980   4.855  0.6454  0.2350 -1.5340
  802TIP3   OH2 2411   2.097   5.111   0.235 -0.1898  0.5341  0.5346
  802TIP3    H1 2412   2.154   5.109   0.159  0.0566 -1.1444  0.7217
  802TIP3    H2 2413   2.019   5.061   0.209 -0.1743  0.0774  1.3211
  803TIP3   OH2 2414   2.379   1.336   1.018  0.0371 -0.8344  0.1052
  803TIP3    H1 2415   2.289   1.321   0.989  0.0121  2.3498 -1.9107
  803TIP3    H2 2416   2.433   1.310   0.943  0.6140 -0.4317  0.3678
  804TIP3   OH2 2417   0.994   1.467   3.696 -0.4580 -0.8849  0.6741
  804TIP3    H1 2418   1.055   1.525   3.742  1.3855 -0.2910 -2.2916
  804TIP3    H2 2419   1.012   1.380   3.732  0.5317 -0.3959  1.3956
  805TIP3   OH2 2420   2.557   2.087   2.536 -0.0789  0.0125  0.3085
  805TIP3    H1 2421   2.470   2.051   2.522  0.1431 -0.6450  0.5761
  805TIP3    H2 2422   2.558   2.114   2.628 -0.1130  0.3470  0.2136
  806TIP3   OH2 2423   4.480   1.428   4.858  0.1159 -0.2132 -0.0646
  806TIP3    H1 2424   4.529   1.450   4.778 -1.8141  0.5396 -1.1035
  806TIP3    H2 2425   4.532   1.359   4.899  1.7853  0.2056 -1.3408
  807TIP3   OH2 2426   5.459   3.090   4.630  0.2902  0.4974  0.1944
  807TIP3    H1 2427   5.457   3.018   4.693  2.1299  0.5170  0.3433
  807TIP3    H2 2428   5.518   3.059   4.561 -1.0914  0.7763 -1.1734
  808TIP3   OH2 2429   2.986   5.662   2.362  0.4263 -0.0421  0.0458
  808TIP3    H1 2430   2.966   5.741   2.312 -2.3549 -0.0985  0.8923
  808TIP3    H2 2431   2.968   5.590   2.301 -0.8269 -0.0528  0.3857
  809TIP3   OH2 2432   3.727   3.288   4.683 -0.1379  0.6087 -0.1261
  809TIP3    H1 2433   3.764   3.339   4.755  0.2688  1.5802 -1.0055
  809TIP3    H2 2434   3.632   3.301   4.691 -0.0785  0.9106  0.0917
  810TIP3   OH2 2435   4.612   5.937   4.793  0.1215 -0.1138 -0.2951
  810TIP3    H1 2436   4.592   5.943   4.886  0.0842  0.0476 -0.3144
  810TIP3    H2 2437   4.530   5.960   4.749  0.8542  2.5742 -0.4106
  811TIP3   OH2 2438   4.792   2.308   1.922 -0.1502 -0.0907  0.3508
  811TIP3    H1 2439   4.750   2.252   1.986 -2.8569  1.3290 -0.0306
  811TIP3    H2 2440   4.816   2.250   1.850 -2.0806 -0.9301  0.3368
  812TIP3   OH2 2441   0.820   2.682   4.704  0.6796 -0.0429 -0.7639
  812TIP3    H1 2442   0.797   2.775   4.697  1.0068  0.0775 -0.2713
  812TIP3    H2 2443   0.754   2.645   4.763  0.6026 -0.1119 -0.8902
  813TIP3   OH2 2444   3.431   4.292   1.866 -0.2537  0.3963 -0.3092
  813TIP3    H1 2445   3.413   4.219   1.807 -0.3847 -0.0875  0.3247
  813TIP3    H2 2446   3.438   4.368   1.808 -0.3608 -0.0723 -0.9496
  814TIP3   OH2 2447   5.468   4.083   2.365  0.0956  0.7372 -0.1544
  814TIP3    H1 2448   5.421   4.099   2.447 -0.0161  2.5917 -0.5493
  814TIP3    H2 2449   5.404   4.042   2.308 -0.6712  1.9946 -0.2253
  815TIP3   OH2 2450   0.811   5.030   4.082 -0.3538  0.0297  0.3968
  815TIP3    H1 2451   0.854   4.994   4.160  0.4538  1.4219  0.6263
  815TIP3    H2 2452   0.812   4.958   4.019 -0.9537 -1.1009  1.6353
  816TIP3   OH2 2453   2.051   5.267   0.652  0.1049 -0.2209 -0.0841
  816TIP3    H1 2454   2.064   5.300   0.741  0.3404 -2.7883  0.9282
  816TIP3    H2 2455   2.129   5.295   0.604  0.1561  0.8761  0.6192
  817TIP3   OH2 2456   5.229   0.141   4.724  0.5057 -0.3349 -0.6711
  817TIP3    H1 2457   5.269   0.182   4.647  0.4739  0.8362 -0.0933
  817TIP3    H2 2458   5.295   0.079   4.755  0.2886 -1.2417 -1.9565
  818TIP3   OH2 2459   5.023   3.638   0.816 -0.1084 -0.1733 -0.6023
  818TIP3    H1 2460   5.113   3.605   0.820 -0.5687 -1.3741  0.8686
  818TIP3    H2 2461   5.019   3.688   0.734  1.3182 -1.8151 -1.7491
  819TIP3   OH2 2462   3.180   2.909   1.227  0.2038 -0.0153  0.2457
  819TIP3    H1 2463   3.145   2.906   1.316  0.8202 -0.1342  0.4923
  819TIP3    H2 2464   3.266   2.950   1.237 -0.1718  0.9904 -0.4489
  820TIP3   OH2 2465   5.454   2.463   3.512  0.0785  0.1179  0.2382
  820TIP3    H1 2466   5.380   2.497   3.564 -0.1807  0.2430 -0.2100
  820TIP3    H2 2467   5.416   2.442   3.427  0.2396 -1.2572  0.4738
  821TIP3   OH2 2468   5.374   4.105   4.890 -0.2779  0.1566 -0.4526
  821TIP3    H1 2469   5.438   4.050   4.846 -0.4748 -0.2077 -0.2911
  821TIP3    H2 2470   5.331   4.046   4.953 -0.2966  0.5641 -0.0781
  822TIP3   OH2 2471   2.591   5.715   2.698  0.1265 -0.1313 -0.4238
  822TIP3    H1 2472   2.644   5.791   2.675  1.4901 -1.6533 -2.7043
  822TIP3    H2 2473   2.640   5.670   2.767 -0.2892  0.5789  0.3590
  823TIP3   OH2 2474   1.354   0.651   2.622  0.7267  0.0322  0.6283
  823TIP3    H1 2475   1.397   0.713   2.681  1.5418 -0.6513  0.7642
  823TIP3    H2 2476   1.415   0.641   2.548  0.8354 -0.9755  0.8424
  824TIP3   OH2 2477   3.725   4.277   1.323  0.1919 -0.5074 -0.7302
  824TIP3    H1 2478   3.686   4.198   1.286 -0.0073 -0.9854  0.4432
  824TIP3    H2 2479   3.778   4.313   1.253 -0.1469 -1.3871 -1.4601
  825TIP3   OH2 2480   4.803   1.078   2.719  0.1124 -0.3286 -0.0286
  825TIP3    H1 2481   4.760   1.045   2.798 -1.3401 -0.7185 -0.9334
  825TIP3    H2 2482   4.742   1.056   2.648  0.2930  1.9860 -0.9990
  826TIP3   OH2 2483   1.890   3.447   2.008 -0.7572 -0.1673  0.6596
  826TIP3    H1 2484   1.814   3.401   2.043 -1.9751  1.3016  0.0487
  826TIP3    H2 2485   1.929   3.492   2.083 -2.0567  1.1682  0.5809
  827TIP3   OH2 2486   3.899   3.101   4.781  0.0855  0.4893 -0.5079
  827TIP3    H1 2487   3.847   3.177   4.808 -2.0966 -1.7307  2.1909
  827TIP3    H2 2488   3.978   3.105   4.836 -1.3308 -0.5554  1.7314
  828TIP3   OH2 2489   1.839   3.876   4.269  0.1237 -0.1403 -0.1410
  828TIP3    H1 2490   1.904   3.946   4.261  1.9391 -1.7731 -0.5003
  828TIP3    H2 2491   1.819   3.873   4.362  1.7392 -0.5353  0.2393
  829TIP3   OH2 2492   4.045   3.381   4.564 -0.1684  0.3462 -0.0493
  829TIP3    H1 2493   4.066   3.473   4.548 -1.6015  0.4577 -1.4604
  829TIP3    H2 2494   3.954   3.371   4.535 -0.7032 -1.0721  1.8756
  830TIP3   OH2 2495   3.475   2.518   0.237  0.7735 -0.2396 -0.2833
  830TIP3    H1 2496   3.448   2.448   0.295  1.9317 -0.9725 -0.6152
  830TIP3    H2 2497   3.564   2.496   0.210  1.4645  1.7297  0.1764
  831TIP3   OH2 2498   0.597   2.314   0.488 -0.1392  0.1578 -0.9468
  831TIP3    H1 2499   0.542   2.334   0.413 -1.8218 -2.7572 -0.6337
  831TIP3    H2 2500   0.557   2.236   0.528  2.4317 -0.2397  1.1802
  832TIP3   OH2 2501   3.557   0.803   4.013 -0.1542 -0.4887 -0.1851
  832TIP3    H1 2502   3.598   0.772   3.933 -0.5868 -0.4765 -0.4194
  832TIP3    H2 2503   3.625   0.799   4.080  0.1204 -0.7989 -0.4853
  833TIP3   OH2 2504   0.108   2.651   3.186 -0.0194 -0.3697 -0.4854
  833TIP3    H1 2505   0.014   2.667   3.194 -0.2420 -1.1428 -1.3387
  833TIP3    H2 2506   0.115   2.556   3.178  0.9058 -0.3919  0.3291
  834TIP3   OH2 2507   2.459   2.031   4.150 -0.0828  0.4571 -0.5663
  834TIP3    H1 2508   2.467   2.080   4.232 -2.6946  0.7673 -0.4009
  834TIP3    H2 2509   2.548   2.004   4.129  0.6895  0.4642  2.3041
  835TIP3   OH2 2510   5.596   4.005   4.777  0.0528 -0.1834 -0.0388
  835TIP3    H1 2511   5.603   3.921   4.730 -1.2211  0.3257 -1.2362
  835TIP3    H2 2512   5.685   4.037   4.783  0.5439 -1.5379  0.2754
  836TIP3   OH2 2513   3.439   1.406   5.105 -0.2293  0.4178 -0.0510
  836TIP3    H1 2514   3.430   1.397   5.010 -1.1258  1.6468 -0.1111
  836TIP3    H2 2515   3.533   1.413   5.120 -0.1350  1.7324 -1.0303
  837TIP3   OH2 2516   1.426   4.271   3.500  0.5173 -0.6854  0.1581
  837TIP3    H1 2517   1.368   4.215   3.551 -0.6869  0.7788  0.4921
  837TIP3    H2 2518   1.513   4.257   3.538  0.5275 -3.2282 -0.6224
  838TIP3   OH2 2519   0.789   2.015   1.177  0.6604 -0.0249  0.9322
  838TIP3    H1 2520   0.856   1.959   1.216  1.5979  0.5536  0.2066
  838TIP3    H2 2521   0.832   2.099   1.165  0.8110 -0.4331 -2.2882
  839TIP3   OH2 2522   6.339   3.607   4.606 -0.4165 -0.0562  0.1032
  839TIP3    H1 2523   6.394   3.656   4.545  0.9709 -2.9362 -1.1363
  839TIP3    H2 2524   6.262   3.583   4.555 -1.2944  1.1221  0.8330
  840TIP3   OH2 2525   2.736   0.481   1.847  0.2077 -0.7373 -0.3772
  840TIP3    H1 2526   2.797   0.503   1.776  0.2035 -2.3514 -0.9234
  840TIP3    H2 2527   2.777   0.407   1.891 -0.6287 -0.8593  0.2105
  841TIP3   OH2 2528   2.760   0.167   3.148 -0.3656 -0.0929  0.1375
  841TIP3    H1 2529   2.796   0.154   3.060 -0.2312  2.7036 -0.3097
  841TIP3    H2 2530   2.676   0.210   3.132  0.3648  1.9165  1.3491
  842TIP3   OH2 2531   2.619   5.197   2.767 -0.1737 -0.5289 -0.2933
  842TIP3    H1 2532   2.637   5.283   2.729 -0.4558 -1.1021 -1.7965
  842TIP3    H2 2533   2.535   5.171   2.729 -0.0335 -1.5156  0.0391
  843TIP3   OH2 2534   2.607   0.399   3.428  0.0982 -1.1501 -0.4031
  843TIP3    H1 2535   2.604   0.490   3.457  1.7788 -2.0517  3.1149
  843TIP3    H2 2536   2.606   0.404   3.333 -0.4846  2.4747 -0.3404
  844TIP3   OH2 2537   2.643   0.940   2.437 -0.1706  0.2194  0.3740
  844TIP3    H1 2538   2.710   0.996   2.475  0.3056 -0.5152  0.6423
  844TIP3    H2 2539   2.665   0.937   2.344  1.5291 -1.7628  0.7629
  845TIP3   OH2 2540   1.561   0.904   1.956  0.1258  0.2649 -0.4165
  845TIP3    H1 2541   1.655   0.919   1.945 -0.0996  0.8868 -1.6992
  845TIP3    H2 2542   1.550   0.809   1.949  0.6054  0.2358 -0.8582
  846TIP3   OH2 2543   3.178   3.649   0.213  0.1716  0.2298 -0.1262
  846TIP3    H1 2544   3.125   3.713   0.260 -0.9003 -0.8139  0.1364
  846TIP3    H2 2545   3.146   3.653   0.123 -0.3655 -0.3883  0.0287
  847TIP3   OH2 2546   2.639   1.218   1.556 -0.4113 -0.4546  0.4614
  847TIP3    H1 2547   2.578   1.148   1.535 -0.4700 -1.1282  2.5918
  847TIP3    H2 2548   2.721   1.193   1.515 -1.0567 -0.5050 -0.8320
  848TIP3   OH2 2549   1.970   0.235   1.892 -0.0643 -0.3595  0.7641
  848TIP3    H1 2550   2.055   0.258   1.930  0.6396 -1.5145 -0.0486
  848TIP3    H2 2551   1.988   0.221   1.799 -0.9288 -1.6699  0.7678
  849TIP3   OH2 2552   1.879   5.014   3.662  0.4875 -0.2318  0.8059
  849TIP3    H1 2553   1.931   5.019   3.581 -0.0942  1.1094  0.4974
  849TIP3    H2 2554   1.893   4.924   3.693  0.7580 -0.7618 -0.7509
  850TIP3   OH2 2555   6.300   0.032   4.517 -0.0077  0.2709 -1.0965
  850TIP3    H1 2556   6.354   0.039   4.438 -0.4304 -1.0948 -1.5372
  850TIP3    H2 2557   6.254   0.116   4.522 -0.2415  0.2565 -2.5183
  851TIP3   OH2 2558   5.441   3.894   3.604  0.3147 -0.3156 -0.4578
  851TIP3    H1 2559   5.494   3.970   3.581 -0.2982  0.0200 -0.7815
  851TIP3    H2 2560   5.354   3.929   3.622  0.6942 -0.5528  2.3172
  852TIP3   OH2 2561   6.133   4.156   0.736 -0.3769  0.1880  0.2582
  852TIP3    H1 2562   6.206   4.101   0.707 -1.9281 -1.7987 -0.0394
  852TIP3    H2 2563   6.116   4.128   0.825 -0.0392  1.4961  0.7557
  853TIP3   OH2 2564   3.018   0.727   1.857  0.5879 -0.0378 -0.0100
  853TIP3    H1 2565   2.973   0.803   1.894  1.5608  0.7185 -0.3510
  853TIP3    H2 2566   2.995   0.728   1.765  0.0365 -0.5773  0.1155
  854TIP3   OH2 2567   3.883   3.029   5.066  0.0473  0.1839 -0.2358
  854TIP3    H1 2568   3.873   3.012   4.973  0.6624 -1.3580 -0.0339
  854TIP3    H2 2569   3.885   2.943   5.107  0.2104  0.8219  1.1655
  855TIP3   OH2 2570   0.634   2.340   0.996  0.3339  0.4835  0.5895
  855TIP3    H1 2571   0.673   2.293   0.921 -2.2054 -0.3996 -0.2765
  855TIP3    H2 2572   0.551   2.372   0.963  0.2926  2.3432  2.3445
  856TIP3   OH2 2573   3.707   3.630   0.487 -0.3934  0.4134  0.5719
  856TIP3    H1 2574   3.633   3.570   0.476 -0.3598  0.4969 -0.1439
  856TIP3    H2 2575   3.675   3.695   0.550 -0.5829 -0.0928  1.0206
  857TIP3   OH2 2576   3.306   1.816   0.725 -0.2093  0.3999 -0.5153
  857TIP3    H1 2577   3.356   1.832   0.645 -0.3847 -0.5419 -0.8272
  857TIP3    H2 2578   3.366   1.765   0.780 -0.7883 -0.6783 -0.8643
  858TIP3   OH2 2579   4.161   4.360   0.129  0.4923  0.2416  0.2021
  858TIP3    H1 2580   4.143   4.337   0.220 -2.4556  0.4336 -0.2429
  858TIP3    H2 2581   4.162   4.277   0.082 -0.0782  0.2731  0.1229
  859TIP3   OH2 2582   1.898   3.511   0.012  0.1391 -0.0727 -0.2901
  859TIP3    H1 2583   1.980   3.503  -0.038 -0.5400  2.9941 -2.1666
  859TIP3    H2 2584   1.897   3.602   0.041 -2.1350 -0.3039  0.5507
  860TIP3   OH2 2585   0.833   1.136   0.643 -0.0251 -0.1737 -1.0851
  860TIP3    H1 2586   0.873   1.203   0.698  3.2331 -2.5278 -0.2957
  860TIP3    H2 2587   0.757   1.106   0.692  1.3170 -0.4199  0.9445
  861TIP3   OH2 2588   0.849   4.776   2.419 -0.1292 -0.1986  0.3145
  861TIP3    H1 2589   0.772   4.730   2.453  1.0487 -0.8991  2.1685
  861TIP3    H2 2590   0.912   4.775   2.491  0.8194  2.3402 -0.3543
  862TIP3   OH2 2591   2.850   4.565   0.381 -0.0001 -0.5876  0.0506
  862TIP3    H1 2592   2.838   4.655   0.414 -0.5715 -1.1024  1.3338
  862TIP3    H2 2593   2.941   4.561   0.354 -0.5656  1.1229 -2.4800
  863TIP3   OH2 2594   3.512   3.749   4.690  0.6223  0.3000 -0.5380
  863TIP3    H1 2595   3.506   3.821   4.627  1.2873  0.3558 -0.5523
  863TIP3    H2 2596   3.583   3.695   4.658 -0.1788 -0.6264 -0.7703
  864TIP3   OH2 2597   5.705   1.548   2.842  0.4240 -0.3506 -0.4716
  864TIP3    H1 2598   5.778   1.525   2.898  0.0979 -0.9435 -0.2859
  864TIP3    H2 2599   5.718   1.641   2.823  1.8809 -0.7020 -1.4184
  865TIP3   OH2 2600   5.535   4.935   4.254 -0.5419  0.7720 -0.0332
  865TIP3    H1 2601   5.504   4.856   4.299 -0.2197  0.2474 -0.7222
  865TIP3    H2 2602   5.529   5.004   4.321  0.9042 -0.1768  1.1512
  866TIP3   OH2 2603   5.098   2.024   2.953 -0.2622  0.0804  0.1288
  866TIP3    H1 2604   5.079   1.939   2.914 -0.9484  0.7746 -1.1276
  866TIP3    H2 2605   5.166   2.062   2.897  0.3460  0.1948  0.9270
  867TIP3   OH2 2606   1.053   1.218   4.414  0.1368 -0.4709 -0.3567
  867TIP3    H1 2607   1.017   1.176   4.492 -0.7630 -1.3638 -1.2191
  867TIP3    H2 2608   1.146   1.197   4.415  0.1996 -0.1776  0.6484
  868TIP3   OH2 2609   1.496   3.194   4.104 -0.4757  0.2268  0.3921
  868TIP3    H1 2610   1.475   3.136   4.031  0.4476 -0.9718  1.0400
  868TIP3    H2 2611   1.491   3.138   4.182  0.4042  1.0115  1.0408
  869TIP3   OH2 2612   0.138   5.268   1.278 -0.6793  0.2589 -0.1163
  869TIP3    H1 2613   0.202   5.338   1.292 -0.5295 -0.0008  0.5508
  869TIP3    H2 2614   0.152   5.208   1.352 -1.0046 -0.3212 -0.5188
  870TIP3   OH2 2615   5.722   4.767   2.435 -0.4394  0.5827  0.0943
  870TIP3    H1 2616   5.794   4.827   2.417  0.4023 -0.5923 -0.6301
  870TIP3    H2 2617   5.680   4.754   2.350 -0.1996 -0.3495  0.1115
  871TIP3   OH2 2618   5.172   5.542   2.270  0.6460 -0.3100  0.0720
  871TIP3    H1 2619   5.227   5.534   2.191 -0.3191 -0.6094 -0.5933
  871TIP3    H2 2620   5.098   5.596   2.242  0.2128 -0.5475  0.7390
  872TIP3   OH2 2621   0.094   2.708   5.157  0.0735  0.1594  0.0416
  872TIP3    H1 2622   0.005   2.699   5.191 -0.3824 -0.6613 -1.3118
  872TIP3    H2 2623   0.143   2.637   5.200 -0.4928 -0.8604 -0.9540
  873TIP3   OH2 2624   2.350   0.251   4.755  0.1484 -0.1742  0.7078
  873TIP3    H1 2625   2.391   0.271   4.840 -0.6165  0.5319  0.9245
  873TIP3    H2 2626   2.400   0.301   4.692 -1.0376  1.6148  1.1096
  874TIP3   OH2 2627   3.999   5.841   4.375  0.3891  0.2161 -0.0365
  874TIP3    H1 2628   3.983   5.746   4.379 -1.1378  0.4488 -0.0022
  874TIP3    H2 2629   4.008   5.867   4.467  0.7124  0.1227 -0.0408
  875TIP3   OH2 2630   2.502   4.000   1.766  0.3403  0.0950  0.2428
  875TIP3    H1 2631   2.436   4.064   1.741 -0.7901 -0.4267  1.7515
  875TIP3    H2 2632   2.503   4.002   1.861  1.3461 -1.0699  0.2864
  876TIP3   OH2 2633   5.162   0.440   5.081  0.3883  0.3957 -0.2480
  876TIP3    H1 2634   5.240   0.459   5.028 -0.7776  1.7737 -1.5492
  876TIP3    H2 2635   5.119   0.525   5.091 -0.2283 -0.0942  1.6748
  877TIP3   OH2 2636   1.476   5.386   3.106 -0.1697 -0.1680 -0.1348
  877TIP3    H1 2637   1.501   5.373   3.198 -1.7519 -0.3773  0.2916
  877TIP3    H2 2638   1.538   5.331   3.058  0.8148  0.0944  0.7776
  878TIP3   OH2 2639   4.471   0.810   0.772 -0.0227  0.9165  0.6704
  878TIP3    H1 2640   4.485   0.815   0.867  0.1454  0.8298  0.6501
  878TIP3    H2 2641   4.559   0.814   0.735  0.0103 -0.4790  0.5706
  879TIP3   OH2 2642   1.542   5.380   2.738  0.0984 -0.1566  0.4620
  879TIP3    H1 2643   1.604   5.446   2.707  0.8025 -1.9457 -2.3533
  879TIP3    H2 2644   1.456   5.417   2.719  0.4727  0.1439 -0.7790
  880TIP3   OH2 2645   0.145   0.523   1.662  0.3558  0.5927 -0.1975
  880TIP3    H1 2646   0.138   0.586   1.734 -0.8350  0.4198 -0.1493
  880TIP3    H2 2647   0.062   0.529   1.616  0.7466  0.0190 -1.0127
  881TIP3   OH2 2648   4.687   2.278   4.805 -0.1175 -0.5765 -0.5865
  881TIP3    H1 2649   4.778   2.305   4.815 -0.2377 -0.8151  1.8652
  881TIP3    H2 2650   4.682   2.194   4.851 -1.5542 -0.6240 -0.7768
  882TIP3   OH2 2651   0.377   5.942   3.046  0.4705  0.4294 -0.0481
  882TIP3    H1 2652   0.407   6.007   2.982  1.5206  0.1000  0.0997
  882TIP3    H2 2653   0.285   5.965   3.062  0.5610  1.2938 -0.7086
  883TIP3   OH2 2654   1.026   4.311   3.395 -0.2834 -0.6949  0.2198
  883TIP3    H1 2655   0.940   4.352   3.406  0.3510  0.7460  0.0179
  883TIP3    H2 2656   1.053   4.336   3.306  0.1765 -1.4824  0.1313
  884TIP3   OH2 2657   2.270   0.675   2.960  0.2786  0.2401 -0.1274
  884TIP3    H1 2658   2.257   0.675   2.865 -0.0683 -1.2421 -0.1039
  884TIP3    H2 2659   2.181   0.673   2.997  0.4030  1.0472  0.2494
  885TIP3   OH2 2660   0.081   5.167   3.304  0.4895 -0.1645  0.4251
  885TIP3    H1 2661  -0.010   5.142   3.320  0.2841 -0.3017 -0.8240
  885TIP3    H2 2662   0.080   5.263   3.306  0.3326 -0.1670  0.4906
  886TIP3   OH2 2663   2.488   2.137   4.430  0.1375 -0.5333  0.5634
  886TIP3    H1 2664   2.436   2.064   4.464 -0.5749  0.0792  0.8277
  886TIP3    H2 2665   2.578   2.117   4.456  0.0598 -1.6585  0.0156
  887TIP3   OH2 2666   5.284   3.028   5.017 -0.2860 -0.1801  0.2178
  887TIP3    H1 2667   5.366   3.002   5.058 -0.0911 -1.0950 -0.7098
  887TIP3    H2 2668   5.225   3.044   5.090  0.6991  0.4790  0.9024
  888TIP3   OH2 2669   5.253   4.457   2.693 -0.6747  0.4836  0.5046
  888TIP3    H1 2670   5.238   4.540   2.648 -0.0526 -0.3450 -1.3323
  888TIP3    H2 2671   5.347   4.457   2.711 -0.2163 -0.7225 -1.5442
  889TIP3   OH2 2672   1.001   3.782   4.868 -0.2397 -0.5252 -0.1624
  889TIP3    H1 2673   1.015   3.875   4.883 -0.1212 -0.8180  1.9097
  889TIP3    H2 2674   0.912   3.777   4.832 -0.4787  0.3560  0.2723
  890TIP3   OH2 2675   0.998   2.922   0.613 -0.5216  0.3826  0.3339
  890TIP3    H1 2676   0.963   3.010   0.600  1.5995  1.2541  0.1173
  890TIP3    H2 2677   1.093   2.934   0.618 -0.2192 -1.8177  1.0251
  891TIP3   OH2 2678   3.611   5.331   0.787  0.0592  0.0445  0.3008
  891TIP3    H1 2679   3.559   5.380   0.850  1.2192 -0.3229  1.6038
  891TIP3    H2 2680   3.590   5.371   0.702 -2.5171 -0.2834  0.6976
  892TIP3   OH2 2681   0.456   1.244   5.024  1.0888 -0.4143  0.2112
  892TIP3    H1 2682   0.370   1.202   5.017  0.8155 -0.0919  1.3658
  892TIP3    H2 2683   0.443   1.313   5.089  1.7034  1.0414 -1.1631
  893TIP3   OH2 2684   4.798   0.639   0.111  0.3141 -0.3870  1.2694
  893TIP3    H1 2685   4.779   0.678   0.026 -0.3801 -2.3348  0.4849
  893TIP3    H2 2686   4.893   0.639   0.116  0.3423  1.2678  1.2642
  894TIP3   OH2 2687   3.704   0.174   2.485  0.2293 -0.0852 -0.2070
  894TIP3    H1 2688   3.625   0.222   2.459  0.4849  1.0952  1.0648
  894TIP3    H2 2689   3.758   0.239   2.530  1.4838 -1.1130 -0.1713
  895TIP3   OH2 2690   4.948   4.601   0.675 -0.1897  0.3594 -0.4294
  895TIP3    H1 2691   4.913   4.543   0.743  0.6163  0.2766 -0.0703
  895TIP3    H2 2692   5.043   4.587   0.678 -0.0754  0.9359 -1.0412
  896TIP3   OH2 2693   4.204   6.001   1.862  0.0506 -0.5424  0.4545
  896TIP3    H1 2694   4.237   5.959   1.942  1.0829 -2.1765 -0.7561
  896TIP3    H2 2695   4.282   6.010   1.807 -0.9645 -1.3536 -1.1720
  897TIP3   OH2 2696   4.576   4.741   4.684 -0.3901 -0.0805 -0.0824
  897TIP3    H1 2697   4.484   4.768   4.675 -0.2718  0.2677 -0.2736
  897TIP3    H2 2698   4.573   4.663   4.738 -0.6062  1.4220  2.2086
  898TIP3   OH2 2699   2.368   0.222   3.840 -0.1020 -0.1799  0.0587
  898TIP3    H1 2700   2.314   0.294   3.807 -0.1913  0.0051  0.6029
  898TIP3    H2 2701   2.447   0.226   3.786 -0.9321 -0.9340 -1.2599
  899TIP3   OH2 2702   2.546   2.765   3.084  0.6102  0.1632  0.1624
  899TIP3    H1 2703   2.587   2.765   2.998  1.7042  1.4413  0.6462
  899TIP3    H2 2704   2.461   2.806   3.070  0.5386 -0.1675 -0.4044
  900TIP3   OH2 2705   5.148   1.959   3.436 -0.0067 -0.6590 -0.2793
  900TIP3    H1 2706   5.097   2.025   3.389 -0.8792  1.2072  3.0349
  900TIP3    H2 2707   5.235   1.997   3.444  0.0982 -0.9053 -0.2489
  901TIP3   OH2 2708   3.697   3.835   4.292 -0.2417  0.0714  0.2067
  901TIP3    H1 2709   3.608   3.815   4.262 -0.0687  0.3195 -0.4787
  901TIP3    H2 2710   3.707   3.782   4.372 -1.3937  0.8811  0.9236
  902TIP3   OH2 2711   6.352   2.644   4.046 -1.0047  0.4027 -0.5432
  902TIP3    H1 2712   6.335   2.570   4.104  0.8482 -0.5477 -1.1333
  902TIP3    H2 2713   6.387   2.604   3.966 -2.5524  1.7357 -1.9815
  903TIP3   OH2 2714   0.292   1.523   1.439 -0.2051 -0.0526 -0.0489
  903TIP3    H1 2715   0.297   1.609   1.398  0.5876 -0.0071  0.1375
  903TIP3    H2 2716   0.348   1.467   1.384 -1.1131 -0.5717 -0.4689
  904TIP3   OH2 2717   4.280   0.305   3.963 -0.0181 -0.5441  0.4135
  904TIP3    H1 2718   4.237   0.315   4.047 -1.2455 -2.5047  0.0859
  904TIP3    H2 2719   4.262   0.386   3.916 -1.2349 -0.3251  1.2173
  905TIP3   OH2 2720   5.295   5.374   0.132 -0.4709 -0.1372  0.4882
  905TIP3    H1 2721   5.310   5.371   0.227  2.3016  2.9507  0.3096
  905TIP3    H2 2722   5.225   5.438   0.121 -0.3907 -0.0569  0.4400
  906TIP3   OH2 2723   0.272   3.506   4.723 -0.1320  0.1891  0.4922
  906TIP3    H1 2724   0.253   3.554   4.642 -2.8650  0.3216  1.1223
  906TIP3    H2 2725   0.303   3.421   4.694 -0.6867  0.3756 -0.6955
  907TIP3   OH2 2726   4.356   3.982   3.928  0.0922 -0.4357  0.0120
  907TIP3    H1 2727   4.392   4.033   4.000  0.8530 -3.0305  1.5867
  907TIP3    H2 2728   4.428   3.923   3.902 -0.9459 -1.2078 -1.2213
  908TIP3   OH2 2729   1.857   0.911   1.882  0.0714  0.0824  0.2097
  908TIP3    H1 2730   1.829   0.989   1.835 -0.9593  0.4676  1.3972
  908TIP3    H2 2731   1.895   0.944   1.963 -2.7650 -0.5994  2.0015
  909TIP3   OH2 2732   2.002   1.448   3.198 -0.0193 -0.6642 -0.6308
  909TIP3    H1 2733   2.061   1.490   3.260  1.1500 -0.9124 -1.5458
  909TIP3    H2 2734   1.928   1.419   3.251 -0.6760  2.0875  0.1217
  910TIP3   OH2 2735   1.685   0.035   1.991 -0.0925  0.4564 -0.3811
  910TIP3    H1 2736   1.712   0.122   2.017  2.4348 -0.6328  0.9378
  910TIP3    H2 2737   1.689  -0.017   2.071  0.5503 -1.3233 -1.5093
  911TIP3   OH2 2738   5.241   6.025   2.355  0.1667  0.0178  0.3217
  911TIP3    H1 2739   5.298   5.995   2.284  1.4364  0.5917  1.0565
  911TIP3    H2 2740   5.192   5.947   2.381  1.0893 -0.6623  0.0900
  912TIP3   OH2 2741   4.338   4.674   0.347  0.2010  0.8304 -0.5749
  912TIP3    H1 2742   4.398   4.748   0.363 -0.3383  1.0932  0.2891
  912TIP3    H2 2743   4.276   4.708   0.282  0.5131  0.8161 -0.8872
  913TIP3   OH2 2744   1.641   1.113   2.702  0.5684  0.1791 -0.3824
  913TIP3    H1 2745   1.667   1.081   2.788  0.2302  0.5204 -0.1506
  913TIP3    H2 2746   1.562   1.062   2.680  1.1124 -0.4816 -0.8520
  914TIP3   OH2 2747   0.699   0.877   0.768  0.6452 -0.5228 -0.7785
  914TIP3    H1 2748   0.720   0.870   0.675 -1.0406  0.9498 -1.3294
  914TIP3    H2 2749   0.635   0.808   0.784  0.5470 -0.4450 -0.8363
  915TIP3   OH2 2750   4.183   2.686   0.770 -0.2070  0.1904  0.1933
  915TIP3    H1 2751   4.185   2.705   0.676  3.4526 -0.3321  0.0443
  915TIP3    H2 2752   4.204   2.769   0.812  0.9611 -0.1725  0.3582
  916TIP3   OH2 2753   2.217   4.240   2.343  0.0463 -0.5775  0.0397
  916TIP3    H1 2754   2.258   4.323   2.322 -0.7282 -0.0496  0.5679
  916TIP3    H2 2755   2.234   4.184   2.267  0.1843  0.2008 -0.5053
  917TIP3   OH2 2756   4.293   2.227   5.013  0.0993  0.1237  0.2144
  917TIP3    H1 2757   4.288   2.231   4.917 -1.0969 -0.6217  0.2213
  917TIP3    H2 2758   4.301   2.133   5.032 -1.0972  0.1400  0.8840
  918TIP3   OH2 2759   0.826   4.643   1.110 -0.2266  0.4205 -0.3828
  918TIP3    H1 2760   0.855   4.572   1.166 -1.1506  0.7390  0.5337
  918TIP3    H2 2761   0.844   4.612   1.021  0.4511 -0.4591  0.0456
  919TIP3   OH2 2762   2.606   5.433   1.481  0.5473  0.3040 -0.0012
  919TIP3    H1 2763   2.674   5.377   1.442  1.6942 -0.2103  2.5778
  919TIP3    H2 2764   2.550   5.372   1.528  1.6302  1.1725  2.5881
  920TIP3   OH2 2765   4.053   2.500   1.135  0.9411  0.1166  1.0142
  920TIP3    H1 2766   4.060   2.546   1.219 -0.3273  0.1193  1.1401
  920TIP3    H2 2767   4.035   2.569   1.072  1.5186  0.0680  0.7909
  921TIP3   OH2 2768   4.192   4.716   2.509  0.2112  0.3958  0.4398
  921TIP3    H1 2769   4.159   4.672   2.587 -1.9084 -0.3978 -0.8254
  921TIP3    H2 2770   4.262   4.659   2.477 -1.3143 -1.2099 -0.1900
  922TIP3   OH2 2771   2.134   1.598   1.641 -0.0532  0.1700 -0.3180
  922TIP3    H1 2772   2.185   1.553   1.708 -1.3723  1.2560  1.5182
  922TIP3    H2 2773   2.142   1.691   1.663  1.7123  0.8622 -3.3552
  923TIP3   OH2 2774   5.198   3.964   3.340  0.1049 -0.1083  0.2750
  923TIP3    H1 2775   5.147   3.981   3.261  0.0951 -1.4391 -0.0265
  923TIP3    H2 2776   5.173   3.876   3.367 -0.3410  0.5439  2.1274
  924TIP3   OH2 2777   3.304   0.284   2.041  0.8054 -0.3389  0.3511
  924TIP3    H1 2778   3.255   0.296   1.960  0.2371  0.5271  0.7986
  924TIP3    H2 2779   3.387   0.328   2.025  0.7949 -0.3880  0.1553
  925TIP3   OH2 2780   1.142   1.383   4.092  0.3142  0.6500  0.1664
  925TIP3    H1 2781   1.225   1.336   4.084  0.0927  0.0279  1.3329
  925TIP3    H2 2782   1.150   1.432   4.174 -1.1026 -0.7714  1.1990
  926TIP3   OH2 2783   3.089   3.619   4.564  0.3753  0.4100 -0.1412
  926TIP3    H1 2784   3.132   3.683   4.621  2.5180 -2.2234  1.4192
  926TIP3    H2 2785   2.995   3.632   4.580  0.7887  2.1060  1.2221
  927TIP3   OH2 2786   0.934   1.234   1.846  0.1731  0.4146 -0.0897
  927TIP3    H1 2787   0.915   1.314   1.796  1.4810  1.0757  0.4151
  927TIP3    H2 2788   0.866   1.172   1.819  0.2161  1.0872 -1.8920
  928TIP3   OH2 2789   0.997   5.412   0.261  0.1790  0.2774  0.0494
  928TIP3    H1 2790   0.982   5.347   0.192 -3.5795  1.6747 -0.6702
  928TIP3    H2 2791   1.053   5.478   0.219  0.6480 -0.4634 -0.5371
  929TIP3   OH2 2792   0.629   3.092   1.520 -0.4490  0.1987 -0.0443
  929TIP3    H1 2793   0.602   3.104   1.429  2.5938 -0.6836 -1.1960
  929TIP3    H2 2794   0.693   3.162   1.536  1.1386 -1.2938  0.4196
  930TIP3   OH2 2795   5.063   3.331   4.461  0.4378 -0.2074  0.7361
  930TIP3    H1 2796   5.080   3.326   4.367 -1.1614  1.4011  0.2936
  930TIP3    H2 2797   5.077   3.424   4.482  0.2497 -0.4503  1.9610
  931TIP3   OH2 2798   4.945   1.308   4.928 -0.0463 -0.3331 -0.2108
  931TIP3    H1 2799   4.921   1.244   4.861 -0.9436  0.5921 -0.7826
  931TIP3    H2 2800   4.996   1.374   4.882  0.0195 -0.1020  0.1854
  932TIP3   OH2 2801   4.016   0.028   2.545 -0.4144  0.0711 -0.1146
  932TIP3    H1 2802   4.006   0.043   2.639  0.2382 -0.1151 -0.0122
  932TIP3    H2 2803   3.996   0.112   2.505  2.0157  0.9606  0.3715
  933TIP3   OH2 2804   1.488   3.901   1.801 -0.2433 -0.4573  0.3235
  933TIP3    H1 2805   1.414   3.952   1.768  0.2543  0.3494  0.4158
  933TIP3    H2 2806   1.455   3.860   1.881 -0.2049  1.0173  1.1394
  934TIP3   OH2 2807   3.113   4.822   2.414  0.0354  0.0229  0.1509
  934TIP3    H1 2808   3.141   4.810   2.323  1.0639 -0.8888  0.5680
  934TIP3    H2 2809   3.063   4.904   2.413 -2.2663 -1.2972 -1.7289
  935TIP3   OH2 2810   2.905   4.179   4.760  0.2186 -0.5213 -0.1151
  935TIP3    H1 2811   2.967   4.203   4.829 -0.3751  2.0421 -0.3545
  935TIP3    H2 2812   2.900   4.257   4.704 -0.2589 -2.0841 -2.3749
  936TIP3   OH2 2813   6.011   0.550   2.171 -0.0318  0.5644  0.2539
  936TIP3    H1 2814   5.943   0.613   2.150 -0.0994 -0.0344 -1.4926
  936TIP3    H2 2815   6.023   0.500   2.090  2.3512  0.5347  0.5663
  937TIP3   OH2 2816   4.967   4.876   3.236  0.3283 -0.5126 -0.4572
  937TIP3    H1 2817   5.039   4.836   3.188  0.1654  0.1316 -1.2490
  937TIP3    H2 2818   4.997   4.965   3.256 -0.3764 -0.1177 -1.1033
  938TIP3   OH2 2819   0.401   3.743   0.685  0.2604  0.2307 -0.0473
  938TIP3    H1 2820   0.386   3.700   0.601  2.7594 -1.0405  0.0561
  938TIP3    H2 2821   0.345   3.697   0.746 -2.0691  1.5787 -1.0424
  939TIP3   OH2 2822   3.176   0.277   2.295 -0.0145  0.1352 -0.1298
  939TIP3    H1 2823   3.224   0.270   2.212  0.3323  0.3610  0.0471
  939TIP3    H2 2824   3.137   0.190   2.308  1.3273 -0.4356  0.3051
  940TIP3   OH2 2825   4.201   4.841   3.223  0.1007 -0.0307  0.1776
  940TIP3    H1 2826   4.261   4.871   3.155 -1.3586 -0.2718 -1.2838
  940TIP3    H2 2827   4.200   4.746   3.214  0.7356 -0.1545  1.2999
  941TIP3   OH2 2828   3.493   4.983   1.336  0.0940  0.0902  0.0691
  941TIP3    H1 2829   3.467   5.075   1.348 -2.8247 -0.6488  0.2462
  941TIP3    H2 2830   3.566   4.986   1.274 -1.5463  2.4343 -1.9580
  942TIP3   OH2 2831   5.660   4.857   2.683  0.0335 -0.1431 -0.3349
  942TIP3    H1 2832   5.680   4.821   2.597  0.3524  0.6771 -0.6117
  942TIP3    H2 2833   5.580   4.811   2.710 -0.2822 -0.1439 -1.2297
  943TIP3   OH2 2834   3.657   1.900   0.466 -0.4475 -0.3142 -0.0894
  943TIP3    H1 2835   3.691   1.836   0.529  0.5159  0.9098  0.6824
  943TIP3    H2 2836   3.594   1.850   0.413 -0.3716 -1.6823  1.0365
  944TIP3   OH2 2837   1.223   0.397   2.866  0.7300 -0.3441  0.0483
  944TIP3    H1 2838   1.299   0.391   2.807 -0.5883 -1.2649 -1.6751
  944TIP3    H2 2839   1.226   0.315   2.915  0.7665 -0.4411 -0.1140
  945TIP3   OH2 2840   1.448   0.536   3.631  0.3582 -0.1880 -0.1231
  945TIP3    H1 2841   1.453   0.492   3.716 -0.1899 -1.8686 -0.9328
  945TIP3    H2 2842   1.459   0.629   3.652  1.8934 -0.7095  1.5984
  946TIP3   OH2 2843   1.177   3.754   4.508  0.3242 -0.0421  0.4966
  946TIP3    H1 2844   1.237   3.813   4.462 -1.1058 -0.7233 -2.4685
  946TIP3    H2 2845   1.219   3.668   4.502 -0.7138 -0.4845 -1.4149
  947TIP3   OH2 2846   5.157   4.306   4.788 -0.2729 -0.1154  0.4996
  947TIP3    H1 2847   5.071   4.271   4.810  0.6389 -3.3207 -0.5549
  947TIP3    H2 2848   5.219   4.239   4.816  1.7377  1.1477 -0.6540
  948TIP3   OH2 2849   6.063   5.861   3.562  0.1244 -0.1688 -0.1553
  948TIP3    H1 2850   6.128   5.912   3.611 -1.6702  0.0916  2.0957
  948TIP3    H2 2851   6.047   5.784   3.617 -1.5721 -0.1463 -0.5896
  949TIP3   OH2 2852   4.044   3.225   3.891  0.7207  0.2852 -0.2922
  949TIP3    H1 2853   4.113   3.229   3.957 -0.5327  2.4318  1.0326
  949TIP3    H2 2854   4.022   3.317   3.873 -0.6860 -0.2951 -1.8473
  950TIP3   OH2 2855   4.432   4.031   0.519 -0.5778 -0.7847 -0.0438
  950TIP3    H1 2856   4.446   4.076   0.602 -0.5482  0.7216 -0.8432
  950TIP3    H2 2857   4.480   3.948   0.529  0.7458  0.0548  0.8527
  951TIP3   OH2 2858   0.924   0.684   2.307  0.2757 -0.1256  0.3309
  951TIP3    H1 2859   0.872   0.761   2.328 -0.6587 -1.6873  4.8569
  951TIP3    H2 2860   1.011   0.703   2.340  0.9255  0.0406 -1.3581
  952TIP3   OH2 2861   0.603   0.293   0.332  0.7840  0.2131 -0.5886
  952TIP3    H1 2862   0.537   0.241   0.379  1.1399  1.0439  0.8983
  952TIP3    H2 2863   0.675   0.300   0.395  1.1514  1.6387 -1.1532
  953TIP3   OH2 2864   2.455   3.438   3.119 -0.3263  0.1370 -0.3479
  953TIP3    H1 2865   2.395   3.458   3.048  1.3994  1.1393 -1.5947
  953TIP3    H2 2866   2.466   3.343   3.116 -0.3004  0.1639 -1.4148
  954TIP3   OH2 2867   4.063   1.214   3.165 -0.3886  0.0609 -0.2454
  954TIP3    H1 2868   4.047   1.124   3.192  1.7713 -0.5374 -0.7454
  954TIP3    H2 2869   4.122   1.248   3.232  0.5533  0.3662 -1.2015
  955TIP3   OH2 2870   0.140   3.933   4.715  0.5038  0.0154  0.0129
  955TIP3    H1 2871   0.103   3.996   4.652 -0.7517 -0.1244  0.5815
  955TIP3    H2 2872   0.154   3.853   4.663 -0.7034 -0.1608 -0.0710
  956TIP3   OH2 2873   3.434   2.374   3.770 -0.3602  0.6944  0.2366
  956TIP3    H1 2874   3.392   2.458   3.753  0.6757  1.0242 -0.8681
  956TIP3    H2 2875   3.375   2.309   3.731 -1.8816  0.7349  2.3394
  957TIP3   OH2 2876   3.144   4.518   1.070  0.0446  0.0212 -0.3837
  957TIP3    H1 2877   3.239   4.529   1.072 -0.1251  1.6270  0.5667
  957TIP3    H2 2878   3.130   4.437   1.021  1.9294 -0.6363  0.0835
  958TIP3   OH2 2879   4.475   4.176   1.686 -0.0933  0.3075  0.1275
  958TIP3    H1 2880   4.536   4.104   1.703 -0.7558 -0.1997  0.3584
  958TIP3    H2 2881   4.498   4.205   1.597  0.7779  0.4169  0.3783
  959TIP3   OH2 2882   1.950   5.881   0.452 -0.2825  0.0895  0.0640
  959TIP3    H1 2883   2.037   5.923   0.454 -0.5851  0.8935 -1.7082
  959TIP3    H2 2884   1.890   5.951   0.428 -0.8530 -1.2158 -2.7239
  960TIP3   OH2 2885   1.804   2.571   4.361 -0.2447  0.6111  0.1722
  960TIP3    H1 2886   1.789   2.483   4.396  0.2865  1.0174  1.5102
  960TIP3    H2 2887   1.896   2.571   4.334  0.1194  1.1021  1.3401
  961TIP3   OH2 2888   3.108   0.151   0.236 -0.5993  0.0884 -0.0003
  961TIP3    H1 2889   3.196   0.188   0.233 -0.5362  0.0320  0.9129
  961TIP3    H2 2890   3.119   0.067   0.281 -1.1732  0.2269  0.4002
  962TIP3   OH2 2891   1.929   4.827   0.778 -0.4586 -0.3221 -0.4782
  962TIP3    H1 2892   1.945   4.872   0.861 -1.5390 -0.9372  0.0913
  962TIP3    H2 2893   1.908   4.737   0.803 -1.6694 -0.3022 -1.3345
  963TIP3   OH2 2894   2.600   1.321   2.801  0.0420 -0.1430  0.1900
  963TIP3    H1 2895   2.592   1.227   2.813  0.9473  0.0109  2.6345
  963TIP3    H2 2896   2.531   1.358   2.856 -0.1296  0.6350 -0.5311
  964TIP3   OH2 2897   3.176   0.009   2.612  0.1741 -0.0488 -0.3976
  964TIP3    H1 2898   3.210   0.099   2.616 -0.2213  0.1346 -0.9648
  964TIP3    H2 2899   3.167  -0.008   2.518 -2.8588  0.5114 -0.2931
  965TIP3   OH2 2900   3.580   5.207   5.085  0.2944 -0.1199 -0.3476
  965TIP3    H1 2901   3.635   5.155   5.144 -0.6330 -0.6372  0.0869
  965TIP3    H2 2902   3.493   5.205   5.126  0.5469  3.2660  0.6846
  966TIP3   OH2 2903   2.236   1.244   4.284  0.4062 -0.2274 -0.7826
  966TIP3    H1 2904   2.180   1.227   4.360 -0.0638  1.8360 -0.6114
  966TIP3    H2 2905   2.227   1.166   4.230  0.7519 -1.7744  1.2457
  967TIP3   OH2 2906   1.821   5.805   0.912  0.6644 -0.1089 -0.6802
  967TIP3    H1 2907   1.827   5.726   0.858 -0.9051 -0.3858 -0.4803
  967TIP3    H2 2908   1.849   5.876   0.853 -0.0225 -0.5387 -1.5442
  968TIP3   OH2 2909   1.258   2.580   1.492 -0.3012  0.2112  0.3980
  968TIP3    H1 2910   1.300   2.651   1.443  0.0713  0.4619  1.0562
  968TIP3    H2 2911   1.307   2.576   1.574  0.1144 -1.2731  0.1030
  969TIP3   OH2 2912   2.115   0.669   0.059  0.0244 -0.1672  0.7587
  969TIP3    H1 2913   2.197   0.718   0.062  0.3768 -0.7391  0.7033
  969TIP3    H2 2914   2.135   0.592   0.006 -0.7767  0.0862  0.0717
  970TIP3   OH2 2915   5.381   2.320   4.519 -0.1339 -0.2672  0.1840
  970TIP3    H1 2916   5.306   2.286   4.568  0.1514  0.1609  0.9319
  970TIP3    H2 2917   5.414   2.393   4.572 -0.3197  0.7612 -1.0362
  971TIP3   OH2 2918   2.583   1.490   0.667  0.4834 -0.1543 -0.0102
  971TIP3    H1 2919   2.599   1.563   0.726 -0.7766 -0.3153  0.5629
  971TIP3    H2 2920   2.601   1.412   0.720 -0.1186 -0.2918 -0.0100
  972TIP3   OH2 2921   3.562   2.195   0.316  0.0477  0.2077  0.3807
  972TIP3    H1 2922   3.594   2.155   0.235 -1.0961 -0.4586  0.2395
  972TIP3    H2 2923   3.630   2.259   0.339  0.0386  0.9905 -1.5386
  973TIP3   OH2 2924   0.746   2.499   1.228 -0.2657 -0.4194 -0.5958
  973TIP3    H1 2925   0.749   2.458   1.142  0.8244 -1.8068  0.0768
  973TIP3    H2 2926   0.748   2.426   1.290 -0.3992  0.5809  0.6253
  974TIP3   OH2 2927   3.964   0.689   4.616  0.4736 -0.4992 -0.5650
  974TIP3    H1 2928   4.039   0.642   4.579 -0.3154 -2.0658 -0.2438
  974TIP3    H2 2929   3.907   0.706   4.542  0.0100 -1.5134 -0.4565
  975TIP3   OH2 2930   2.024   1.984   2.108  0.1652 -0.0031 -0.0721
  975TIP3    H1 2931   2.013   1.909   2.051  2.7983 -0.7390  0.2513
  975TIP3    H2 2932   2.075   2.046   2.056 -0.3896  0.7876  0.3073
  976TIP3   OH2 2933   2.508   5.932   1.370  0.2399 -0.7080  0.3216
  976TIP3    H1 2934   2.494   5.899   1.281 -0.3371  1.0582 -0.2715
  976TIP3    H2 2935   2.429   5.906   1.418 -0.3359  0.0397 -0.2114
  977TIP3   OH2 2936   5.822   0.617   0.587  0.0688 -0.3190  0.1199
  977TIP3    H1 2937   5.826   0.674   0.664  0.6647  1.0030 -0.8301
  977TIP3    H2 2938   5.743   0.566   0.599 -1.0079  1.3756  0.6231
  978TIP3   OH2 2939   2.885   3.401   2.736 -0.1470 -0.5014 -0.0803
  978TIP3    H1 2940   2.830   3.463   2.689 -0.8229 -1.0345 -0.0063
  978TIP3    H2 2941   2.954   3.377   2.674 -0.1898 -0.0882 -0.2881
  979TIP3   OH2 2942   2.705   2.142   4.029 -0.1979  0.0992 -0.2538
  979TIP3    H1 2943   2.723   2.202   4.101 -0.8451 -0.7505  0.6405
  979TIP3    H2 2944   2.779   2.153   3.969  0.9539 -0.0210  1.1018
  980TIP3   OH2 2945   3.168   2.691   4.261  0.5871  0.1438 -0.0926
  980TIP3    H1 2946   3.211   2.626   4.206  2.4902  0.6043  0.7671
  980TIP3    H2 2947   3.144   2.644   4.341  0.0674  0.0392 -0.3057
  981TIP3   OH2 2948   2.846   1.347   2.672 -0.2378 -0.2839  0.1782
  981TIP3    H1 2949   2.852   1.262   2.716  0.0530  1.4930  4.0017
  981TIP3    H2 2950   2.765   1.386   2.707  0.6381  1.7297  0.0823
  982TIP3   OH2 2951   5.756   3.009   2.197 -0.1683 -0.2698  0.2175
  982TIP3    H1 2952   5.679   2.959   2.223 -0.0092 -0.4919  0.2707
  982TIP3    H2 2953   5.753   3.009   2.101  0.3182 -1.1728  0.1890
  983TIP3   OH2 2954   4.432   0.557   1.290  0.1986  0.0384 -0.0126
  983TIP3    H1 2955   4.524   0.557   1.263 -0.1789 -0.3475 -1.3702
  983TIP3    H2 2956   4.432   0.599   1.376  1.2696  3.0148 -1.3553
  984TIP3   OH2 2957   2.393   0.119   2.113  0.3881  0.9045  0.2669
  984TIP3    H1 2958   2.439   0.184   2.061 -0.2507  1.1760  0.0385
  984TIP3    H2 2959   2.414   0.141   2.204  1.7262  0.2669  0.1312
  985TIP3   OH2 2960   2.575   2.515   4.428 -0.0339  0.0252 -0.0696
  985TIP3    H1 2961   2.514   2.580   4.394 -0.5148  0.4267  1.4712
  985TIP3    H2 2962   2.603   2.466   4.351 -0.6172  1.2428 -1.0979
  986TIP3   OH2 2963   3.306   3.051   1.662 -0.6358  0.1238 -0.2520
  986TIP3    H1 2964   3.333   3.027   1.750  0.0109  1.3743 -0.0935
  986TIP3    H2 2965   3.357   3.129   1.641 -0.0003 -0.7312 -2.1312
  987TIP3   OH2 2966   2.663   4.662   1.129 -0.4579  0.5705  0.0665
  987TIP3    H1 2967   2.592   4.613   1.089 -0.4523 -0.0141  0.7598
  987TIP3    H2 2968   2.720   4.686   1.056 -1.1189  0.6467 -0.4332
  988TIP3   OH2 2969   5.170   5.609   0.396  0.4409  0.0475  0.2569
  988TIP3    H1 2970   5.137   5.600   0.307  0.6695 -0.2540  0.2031
  988TIP3    H2 2971   5.095   5.586   0.451  0.7733 -1.4192  0.1279
  989TIP3   OH2 2972   6.065   0.682   0.962  1.0202  0.0072  0.5386
  989TIP3    H1 2973   6.108   0.642   0.886  1.1529  0.8022  0.1893
  989TIP3    H2 2974   6.094   0.628   1.036 -1.1136 -2.3779 -0.2157
  990TIP3   OH2 2975   2.238   3.447   3.422  0.1668 -0.1272  0.2820
  990TIP3    H1 2976   2.148   3.464   3.451  0.2785  0.9756  0.0191
  990TIP3    H2 2977   2.229   3.381   3.353 -0.5055  0.4178 -0.1644
  991TIP3   OH2 2978   4.132   1.252   0.108 -0.3734 -0.0341  0.1305
  991TIP3    H1 2979   4.169   1.285   0.190 -1.7810 -2.1703  1.7446
  991TIP3    H2 2980   4.207   1.243   0.049  1.1629 -1.0389  2.1269
  992TIP3   OH2 2981   3.136   1.103   2.445 -0.4072 -0.1498  0.7126
  992TIP3    H1 2982   3.113   1.195   2.461 -0.4269  0.7180 -3.2981
  992TIP3    H2 2983   3.057   1.054   2.468 -1.4753  1.2148  0.0889
  993TIP3   OH2 2984   5.702   4.377   1.201 -0.0125 -0.6557  0.3442
  993TIP3    H1 2985   5.678   4.436   1.272  0.7567  0.9601 -0.6846
  993TIP3    H2 2986   5.776   4.326   1.236  1.8732  1.6927  0.0400
  994TIP3   OH2 2987   3.441   2.071   3.158 -0.6835 -0.3548 -0.0184
  994TIP3    H1 2988   3.489   1.989   3.166 -0.4869 -0.5163 -2.2568
  994TIP3    H2 2989   3.392   2.062   3.076 -0.3167  1.9380 -0.5382
  995TIP3   OH2 2990   6.268   1.991   2.430  0.3771 -0.2003 -0.1803
  995TIP3    H1 2991   6.206   1.946   2.373  0.8222 -3.1458  1.4721
  995TIP3    H2 2992   6.336   1.926   2.448  0.3950  0.6093  3.4483
  996TIP3   OH2 2993   4.868   1.067   0.870 -0.1921  0.4681 -0.2316
  996TIP3    H1 2994   4.957   1.036   0.852  0.2436  1.2857  0.4375
  996TIP3    H2 2995   4.877   1.162   0.881 -0.7436  0.3074  2.0981
  997TIP3   OH2 2996   5.631   3.937   0.473 -0.0391  0.2712  0.2036
  997TIP3    H1 2997   5.726   3.926   0.477 -0.0391 -0.1044 -0.6517
  997TIP3    H2 2998   5.596   3.848   0.472 -0.3416  0.3900 -0.5937
  998TIP3   OH2 2999   1.629   5.943   3.041  0.2599 -0.8319 -0.0638
  998TIP3    H1 3000   1.629   5.950   2.946  2.4728  1.8579  0.0281
  998TIP3    H2 3001   1.536   5.939   3.065 -0.4591  1.1357 -2.2219
  999TIP3   OH2 3002   0.885   1.447   1.040 -0.7884 -0.2845  0.3719
  999TIP3    H1 3003   0.943   1.421   1.112 -1.7076  0.5250  1.4457
  999TIP3    H2 3004   0.833   1.519   1.076 -1.4344 -0.0037 -1.0433
 1000TIP3   OH2 3005   6.214   2.264   4.008  0.6569 -0.4711  0.0094
 1000TIP3    H1 3006   6.226   2.177   4.046  0.2640 -0.7701 -0.5286
 1000TIP3    H2 3007   6.122   2.265   3.980  0.1592  0.7448  1.5477
 1001TIP3   OH2 3008   1.054   0.392   4.057 -0.0832 -0.2846 -0.6251
 1001TIP3    H1 3009   1.125   0.422   4.114 -0.0180  1.7946 -1.7009
 1001TIP3    H2 3010   1.031   0.306   4.091  1.4774 -0.0879  1.1047
 1002TIP3   OH2 3011   3.520   2.995   2.242 -0.4887  0.2280 -0.2794
 1002TIP3    H1 3012   3.474   3.033   2.317 -1.1175 -2.2832  0.7152
 1002TIP3    H2 3013   3.608   2.977   2.276  0.4406  2.4024 -1.3255
 1003TIP3   OH2 3014   3.841   4.928   3.196  0.0016  0.5656 -0.1811
 1003TIP3    H1 3015   3.846   4.855   3.134 -0.1769  1.3149 -1.0963
 1003TIP3    H2 3016   3.765   4.978   3.167 -1.0465  0.0941  1.5862
 1004TIP3   OH2 3017   2.850   5.914   0.734 -0.4664  0.3409  0.3917
 1004TIP3    H1 3018   2.804   5.998   0.746 -0.8382  0.2257 -0.1988
 1004TIP3    H2 3019   2.826   5.863   0.811  1.4816  1.5335  1.8853
 1005TIP3   OH2 3020   2.398   1.062   2.637 -0.2102 -0.1711  0.9350
 1005TIP3    H1 3021   2.360   1.143   2.674  0.8194  0.3268  0.9336
 1005TIP3    H2 3022   2.492   1.074   2.646 -0.0289 -1.1233  0.3722
 1006TIP3   OH2 3023   2.504   2.435   2.362  0.4212 -0.2789 -0.3941
 1006TIP3    H1 3024   2.591   2.442   2.401  0.8044  2.1238 -1.5424
 1006TIP3    H2 3025   2.447   2.407   2.435  1.8459 -0.2674  0.7646
 1007TIP3   OH2 3026   5.904   1.421   2.986  0.2974 -0.3019 -0.1267
 1007TIP3    H1 3027   5.904   1.500   3.039  1.4187  0.9097 -1.8398
 1007TIP3    H2 3028   5.821   1.377   3.008  0.1151  0.8122  1.5743
 1008TIP3   OH2 3029   5.075   2.049   4.042  0.3692  0.2287  0.3878
 1008TIP3    H1 3030   5.059   2.143   4.050  0.7511  0.2250  1.3500
 1008TIP3    H2 3031   5.170   2.040   4.052  0.5296 -0.1286 -1.1855
 1009TIP3   OH2 3032   1.265   2.138   4.268  0.2819  0.3576 -0.2345
 1009TIP3    H1 3033   1.261   2.159   4.175  0.6810  1.3970 -0.0226
 1009TIP3    H2 3034   1.175   2.121   4.293  0.0727  0.8662 -0.6353
 1010TIP3   OH2 3035   0.045   5.062   1.925  0.3422  0.3131  0.2751
 1010TIP3    H1 3036   0.037   5.018   2.009  1.0226  1.8923  1.1996
 1010TIP3    H2 3037   0.138   5.062   1.906  0.1301 -0.8315 -0.9690
 1011TIP3   OH2 3038   5.135   1.050   0.893 -0.0789 -0.3353 -0.0733
 1011TIP3    H1 3039   5.114   0.987   0.962 -2.3303  0.0265 -0.3468
 1011TIP3    H2 3040   5.192   1.001   0.833  0.9403 -1.0244  1.3895
 1012TIP3   OH2 3041   1.051   4.765   1.558 -0.3685  0.3580 -0.5746
 1012TIP3    H1 3042   0.980   4.806   1.509 -0.3601  1.8877  0.6214
 1012TIP3    H2 3043   1.122   4.828   1.556  0.0250 -0.0229  0.4539
 1013TIP3   OH2 3044   2.025   4.150   1.824  0.5886 -0.5556 -0.1202
 1013TIP3    H1 3045   1.936   4.185   1.820  0.4868 -0.7779  0.1543
 1013TIP3    H2 3046   2.014   4.055   1.829  0.8153 -0.5529  0.6191
 1014TIP3   OH2 3047   5.467   0.808   2.868  0.2661 -0.0684  0.5502
 1014TIP3    H1 3048   5.519   0.862   2.928 -0.2869 -2.5228  3.4618
 1014TIP3    H2 3049   5.442   0.868   2.798  0.4906  3.1932  3.0177
 1015TIP3   OH2 3050   3.564   2.138   2.787 -0.4452  1.0192 -0.1478
 1015TIP3    H1 3051   3.660   2.143   2.794 -0.0743 -3.1093  0.2449
 1015TIP3    H2 3052   3.538   2.222   2.748  3.3802  1.9836 -1.0368
 1016TIP3   OH2 3053   2.003   0.736   3.077  0.0413 -0.0084 -0.3331
 1016TIP3    H1 3054   1.938   0.715   3.011  0.7999  0.0772 -1.1326
 1016TIP3    H2 3055   2.001   0.661   3.137 -2.1031  0.8574  0.7404
 1017TIP3   OH2 3056   5.922   2.805   3.739  0.9029 -0.6873  0.3126
 1017TIP3    H1 3057   5.884   2.719   3.754 -0.8568 -0.1348 -0.6746
 1017TIP3    H2 3058   5.921   2.816   3.643 -1.7218  1.5558  0.4726
 1018TIP3   OH2 3059   1.130   4.368   2.786 -0.5527 -0.1139  0.1735
 1018TIP3    H1 3060   1.107   4.404   2.700 -1.2972 -0.4490  0.2250
 1018TIP3    H2 3061   1.049   4.371   2.836 -0.2677 -0.4866  0.6696
 1019TIP3   OH2 3062   2.621   3.135   4.063  0.1893 -0.0614  1.0779
 1019TIP3    H1 3063   2.647   3.105   4.150  2.1192 -0.0480  0.5495
 1019TIP3    H2 3064   2.683   3.094   4.004 -0.0449  1.2473 -0.1298
 1020TIP3   OH2 3065   0.475   3.651   4.515  0.5350 -0.3489 -0.0766
 1020TIP3    H1 3066   0.459   3.745   4.529  0.5893 -0.5424  1.3845
 1020TIP3    H2 3067   0.533   3.625   4.586 -0.7336 -1.8290  0.4732
 1021TIP3   OH2 3068   0.957   0.203   4.252  0.0759  0.6027 -0.2453
 1021TIP3    H1 3069   0.877   0.176   4.297  1.2917  0.0940  1.7613
 1021TIP3    H2 3070   0.989   0.278   4.303  0.7424  0.9414 -1.1423
 1022TIP3   OH2 3071   3.187   1.848   0.469 -0.3255 -0.0294  0.3135
 1022TIP3    H1 3072   3.171   1.772   0.525 -0.8114  0.0084  0.2333
 1022TIP3    H2 3073   3.119   1.911   0.493 -0.7702 -0.1533 -0.5590
 1023TIP3   OH2 3074   4.058   3.563   4.936  0.0126 -0.6483  0.5157
 1023TIP3    H1 3075   4.145   3.597   4.916 -0.2852 -0.6475 -0.8575
 1023TIP3    H2 3076   4.010   3.638   4.972  0.5385 -0.6293  1.1913
 1024TIP3   OH2 3077   4.781   3.918   1.964 -0.3619  0.0245 -0.1824
 1024TIP3    H1 3078   4.872   3.895   1.944 -0.4055 -0.2203 -0.1039
 1024TIP3    H2 3079   4.739   3.834   1.984 -0.8491  0.0053 -1.2153
 1025TIP3   OH2 3080   5.788   0.977   1.475  0.1468  0.1623  0.8319
 1025TIP3    H1 3081   5.856   1.012   1.533  0.6546 -0.7491  0.7990
 1025TIP3    H2 3082   5.831   0.969   1.390 -0.7792  2.1289  0.1018
 1026TIP3   OH2 3083   1.073   2.626   0.376 -0.5771  0.0680 -0.3746
 1026TIP3    H1 3084   1.160   2.587   0.365 -0.3978  0.5629 -0.7188
 1026TIP3    H2 3085   1.013   2.550   0.380 -0.1980 -0.2541 -0.7325
 1027TIP3   OH2 3086   5.844   3.173   5.035  0.5283 -0.0532  0.3077
 1027TIP3    H1 3087   5.821   3.103   5.097 -2.5353 -0.5091 -1.1950
 1027TIP3    H2 3088   5.939   3.164   5.025  0.3322 -4.0646  0.1618
 1028TIP3   OH2 3089   4.216   0.383   4.521 -0.1422 -0.7449  0.1379
 1028TIP3    H1 3090   4.239   0.467   4.481 -0.6568 -0.8386 -0.3704
 1028TIP3    H2 3091   4.283   0.322   4.490 -0.7464 -0.8985 -0.8990
 1029TIP3   OH2 3092   2.224   3.170   2.567 -0.4862  0.3901  0.2045
 1029TIP3    H1 3093   2.237   3.091   2.515  3.0295  0.5757  0.5438
 1029TIP3    H2 3094   2.188   3.234   2.505 -2.6918 -1.1836 -0.2409
 1030TIP3   OH2 3095   4.837   3.666   3.438 -0.6374  0.0821 -0.6354
 1030TIP3    H1 3096   4.871   3.579   3.421 -1.5193 -0.6017  0.8828
 1030TIP3    H2 3097   4.890   3.698   3.512 -2.0888 -0.3036  0.6173
 1031TIP3   OH2 3098   2.876   5.975   1.743  0.8186  0.2248 -0.4512
 1031TIP3    H1 3099   2.804   5.911   1.744  0.6594  0.3833 -1.1457
 1031TIP3    H2 3100   2.832   6.060   1.743  1.0268  0.3379  0.1616
 1032TIP3   OH2 3101   1.272   1.205   0.637  0.3467  0.3154  0.2915
 1032TIP3    H1 3102   1.356   1.188   0.593 -0.5697 -0.6702 -1.1654
 1032TIP3    H2 3103   1.232   1.118   0.647  1.2575  0.1513  4.8931
 1033TIP3   OH2 3104   4.231   3.569   2.845 -0.0580  0.0464 -0.6821
 1033TIP3    H1 3105   4.268   3.609   2.924  2.4081  0.0705 -1.7540
 1033TIP3    H2 3106   4.278   3.612   2.773 -1.0833 -1.1246 -2.0928
 1034TIP3   OH2 3107   0.489   4.357   1.898 -0.0369 -0.5062  0.0682
 1034TIP3    H1 3108   0.521   4.411   1.826 -0.4640 -0.3067  0.0234
 1034TIP3    H2 3109   0.449   4.281   1.856 -2.0362  0.5300 -0.0269
 1035TIP3   OH2 3110   0.029   5.666   3.504  0.1102 -0.0425 -0.2203
 1035TIP3    H1 3111   0.016   5.581   3.461 -0.5649  0.0247 -0.1594
 1035TIP3    H2 3112  -0.016   5.656   3.589  2.2755 -0.5344  0.9508
 1036TIP3   OH2 3113   4.474   2.769   4.652 -0.6639 -0.0235 -0.1714
 1036TIP3    H1 3114   4.470   2.678   4.623 -2.0256  0.6389 -2.2421
 1036TIP3    H2 3115   4.390   2.784   4.695 -1.0048  0.6092 -1.0370
 1037TIP3   OH2 3116   3.287   5.090   1.058 -0.1690 -0.0191  0.2092
 1037TIP3    H1 3117   3.272   5.067   1.149 -0.1860 -0.0612  0.1958
 1037TIP3    H2 3118   3.285   5.186   1.057 -1.5516 -0.0218  0.0306
 1038TIP3   OH2 3119   4.246   1.167   4.134 -0.0288  0.5201  0.0838
 1038TIP3    H1 3120   4.204   1.089   4.098 -0.3410  0.1839  1.1357
 1038TIP3    H2 3121   4.313   1.133   4.194  2.8777  0.9909 -2.6151
 1039TIP3   OH2 3122   3.897   5.075   4.644  0.0648 -0.6649 -0.5893
 1039TIP3    H1 3123   3.809   5.091   4.610 -0.4046  1.1917  1.2759
 1039TIP3    H2 3124   3.885   5.019   4.720  0.2660  0.9111  0.6440
 1040TIP3   OH2 3125   5.758   5.755   5.189  0.0469 -0.2551  0.0724
 1040TIP3    H1 3126   5.682   5.703   5.162  0.8758 -0.3928 -2.2650
 1040TIP3    H2 3127   5.830   5.721   5.135  1.1998  1.5573  0.3840
 1041TIP3   OH2 3128   3.249   3.078   4.585  0.0521  0.0993 -0.4114
 1041TIP3    H1 3129   3.207   3.145   4.639  1.5969  0.5551  0.2667
 1041TIP3    H2 3130   3.251   3.116   4.497  0.4187  0.7151 -0.1419
 1042TIP3   OH2 3131   2.944   5.400   4.055  0.0721  0.4647 -0.0317
 1042TIP3    H1 3132   2.878   5.452   4.009  0.4939  1.4764  0.4738
 1042TIP3    H2 3133   2.899   5.368   4.133 -0.9531 -2.0979 -1.5509
 1043TIP3   OH2 3134   5.492   4.148   0.595 -0.4235 -0.1678  0.5898
 1043TIP3    H1 3135   5.534   4.156   0.680 -0.3147  1.0557  0.4447
 1043TIP3    H2 3136   5.543   4.082   0.548 -1.4377 -2.0479  2.0053
 1044TIP3   OH2 3137   5.863   3.896   0.305 -0.2600  0.4812  0.1788
 1044TIP3    H1 3138   5.936   3.879   0.245  0.3373  0.8364  0.7920
 1044TIP3    H2 3139   5.806   3.819   0.296 -0.0883  0.4435 -0.6948
 1045TIP3   OH2 3140   5.040   2.621   2.929  0.0903 -0.1118 -0.3845
 1045TIP3    H1 3141   5.113   2.659   2.977 -0.2924  0.5148 -0.2887
 1045TIP3    H2 3142   5.078   2.549   2.879  0.7937  0.2944 -0.4407
 1046TIP3   OH2 3143   3.186   1.342   3.372  0.8242  0.5759 -0.4481
 1046TIP3    H1 3144   3.191   1.382   3.285 -1.8516 -0.4506 -1.1402
 1046TIP3    H2 3145   3.248   1.269   3.368 -0.0125 -0.0934 -1.8757
 1047TIP3   OH2 3146   2.566   3.249   0.147  0.6278 -0.1035 -0.3406
 1047TIP3    H1 3147   2.634   3.269   0.083  0.9743 -1.5604 -0.4578
 1047TIP3    H2 3148   2.574   3.318   0.213  0.9818  0.7894 -1.3066
 1048TIP3   OH2 3149   0.989   4.029   3.167  0.6446  0.2334 -0.9353
 1048TIP3    H1 3150   0.998   4.066   3.079 -1.1098 -0.9445 -1.6645
 1048TIP3    H2 3151   1.028   3.942   3.160 -2.2626 -1.1267 -1.4991
 1049TIP3   OH2 3152   6.094   1.247   1.473 -0.7728  0.1739 -0.6615
 1049TIP3    H1 3153   6.129   1.205   1.552 -4.1859 -1.1983  0.2891
 1049TIP3    H2 3154   6.122   1.189   1.401 -1.5276 -1.1868  0.1076
 1050TIP3   OH2 3155   0.742   4.291   3.665  0.3389  0.1075  0.6125
 1050TIP3    H1 3156   0.768   4.339   3.586 -1.2117  2.1669  1.2583
 1050TIP3    H2 3157   0.672   4.232   3.636 -0.6528  1.2962  0.4913
 1051TIP3   OH2 3158   0.537   1.143   4.753  0.4551 -0.0411 -0.0334
 1051TIP3    H1 3159   0.448   1.108   4.757  0.5848 -0.3422  0.2516
 1051TIP3    H2 3160   0.534   1.222   4.807  0.6089 -0.6011  0.7990
 1052TIP3   OH2 3161   3.578   0.241   0.781 -0.2796 -0.1527  0.3387
 1052TIP3    H1 3162   3.489   0.269   0.761 -0.2014 -0.1767 -0.0574
 1052TIP3    H2 3163   3.606   0.297   0.853 -0.6638 -0.2397  0.5569
 1053TIP3   OH2 3164   0.865   4.351   2.874 -0.1652  0.0043 -0.5867
 1053TIP3    H1 3165   0.818   4.272   2.901 -1.1846  0.6313 -0.4469
 1053TIP3    H2 3166   0.804   4.395   2.815  1.4077 -0.5894 -2.7828
 1054TIP3   OH2 3167   1.876   2.748   0.601 -0.2781  0.1597  0.0575
 1054TIP3    H1 3168   1.854   2.804   0.675 -0.9192  0.9645 -0.7251
 1054TIP3    H2 3169   1.955   2.787   0.564 -0.3688  0.1771 -0.1173
 1055TIP3   OH2 3170   1.237   5.571   4.872 -0.3837 -0.3848 -0.1037
 1055TIP3    H1 3171   1.274   5.506   4.931  0.1072  0.1209  0.1503
 1055TIP3    H2 3172   1.278   5.653   4.898 -2.8070  0.5173  1.2617
 1056TIP3   OH2 3173   5.056   5.597   3.640  0.7530 -0.3776  0.0296
 1056TIP3    H1 3174   5.072   5.558   3.726 -2.2802  0.0273  0.8911
 1056TIP3    H2 3175   5.039   5.522   3.583  1.8772 -0.6090 -0.0147
 1057TIP3   OH2 3176   6.238   3.969   3.616  0.1985  0.1997 -0.3392
 1057TIP3    H1 3177   6.255   4.045   3.560 -1.5308  0.5587 -0.4226
 1057TIP3    H2 3178   6.207   3.901   3.555 -1.2581  0.4494  0.0844
 1058TIP3   OH2 3179   4.825   3.922   1.478  0.2240 -0.2014 -0.0914
 1058TIP3    H1 3180   4.741   3.928   1.433  1.3128 -0.0658 -2.2563
 1058TIP3    H2 3181   4.884   3.883   1.413  1.5056 -1.7514  1.8807
 1059TIP3   OH2 3182   2.166   0.745   0.576 -0.2592 -0.4660  0.2691
 1059TIP3    H1 3183   2.090   0.800   0.563 -0.3246 -0.7378 -0.5397
 1059TIP3    H2 3184   2.204   0.734   0.489  0.8447 -0.1424  0.6861
 1060TIP3   OH2 3185   0.655   1.637   4.580 -0.4897 -0.0139 -0.1486
 1060TIP3    H1 3186   0.693   1.696   4.645 -1.0031 -0.1393  0.2683
 1060TIP3    H2 3187   0.641   1.692   4.503  1.5742 -0.1916 -0.7276
 1061TIP3   OH2 3188   4.588   2.932   1.708 -0.9220  0.4701  0.5287
 1061TIP3    H1 3189   4.597   2.903   1.617 -1.0822  1.0490  0.3284
 1061TIP3    H2 3190   4.535   2.864   1.750 -2.2514  1.0171 -0.2167
 1062TIP3   OH2 3191   0.980   3.529   1.105 -0.2973 -1.2085  0.6315
 1062TIP3    H1 3192   0.900   3.580   1.103  0.6262  0.3009  0.3213
 1062TIP3    H2 3193   0.978   3.477   1.025 -0.1831  0.0964 -0.2378
 1063TIP3   OH2 3194   4.180   1.743   3.306 -0.3668 -0.5452  0.3214
 1063TIP3    H1 3195   4.154   1.833   3.323  0.3258 -0.6124  2.0277
 1063TIP3    H2 3196   4.251   1.749   3.242 -0.7543  0.0610 -0.0512
 1064TIP3   OH2 3197   6.110   0.875   2.334  0.2079  0.4277  0.4455
 1064TIP3    H1 3198   6.182   0.831   2.379  2.1546  0.5555 -2.2836
 1064TIP3    H2 3199   6.139   0.966   2.328 -0.2572  0.5149 -0.5695
 1065TIP3   OH2 3200   1.321   1.065   4.986  0.4782  0.1721  0.1842
 1065TIP3    H1 3201   1.282   1.045   4.900  1.7145  0.8707 -0.5613
 1065TIP3    H2 3202   1.402   1.015   4.988  1.1966  1.3315  0.3229
 1066TIP3   OH2 3203   3.090   0.389   4.850  0.0655  0.0554 -0.8393
 1066TIP3    H1 3204   3.149   0.315   4.833  0.3965  0.1212  0.0119
 1066TIP3    H2 3205   3.147   0.463   4.867 -0.2592  0.2057 -0.3782
 1067TIP3   OH2 3206   0.090   1.794   3.774  0.4980 -0.1690  0.6165
 1067TIP3    H1 3207  -0.003   1.816   3.775  1.0011  2.1969  0.2054
 1067TIP3    H2 3208   0.122   1.830   3.692  2.2049  1.1625  1.7891
 1068TIP3   OH2 3209   2.287   0.692   0.814  0.6355  0.7904  0.4227
 1068TIP3    H1 3210   2.245   0.698   0.728  1.3837 -0.6857 -0.0722
 1068TIP3    H2 3211   2.309   0.782   0.836 -2.4215  1.6143  0.5561
 1069TIP3   OH2 3212   5.661   2.491   3.843  0.1370  0.5723  0.0995
 1069TIP3    H1 3213   5.729   2.468   3.780  0.0259 -0.3360  0.2943
 1069TIP3    H2 3214   5.652   2.413   3.898 -1.7697  0.2750 -0.5647
 1070TIP3   OH2 3215   5.223   1.154   1.232  0.7597  0.4306 -0.0805
 1070TIP3    H1 3216   5.187   1.072   1.265 -0.1080  0.8697  0.0861
 1070TIP3    H2 3217   5.216   1.215   1.306  0.9330  0.7917 -0.3563
 1071TIP3   OH2 3218   0.614   2.188   1.681  0.3100 -0.0029 -0.3781
 1071TIP3    H1 3219   0.546   2.250   1.653 -1.0508 -1.2781 -0.0217
 1071TIP3    H2 3220   0.692   2.216   1.633 -0.3873  1.6485 -0.6342
 1072TIP3   OH2 3221   3.237   0.246   1.666 -0.3792  0.2570 -0.2953
 1072TIP3    H1 3222   3.163   0.187   1.678 -0.1610  0.0786  0.1689
 1072TIP3    H2 3223   3.217   0.322   1.721  0.5137 -0.4650  1.0675
 1073TIP3   OH2 3224   3.612   4.131   0.677 -0.1300 -0.1103 -0.3476
 1073TIP3    H1 3225   3.609   4.148   0.583  0.0578  0.7940 -0.1963
 1073TIP3    H2 3226   3.706   4.126   0.697 -0.1357  1.0071  0.0096
 1074TIP3   OH2 3227   5.969   2.797   0.768 -0.0357 -0.3417  0.4835
 1074TIP3    H1 3228   5.992   2.888   0.788 -0.5189 -0.5635  2.2556
 1074TIP3    H2 3229   5.958   2.756   0.854 -1.7085 -1.5945 -0.2795
 1075TIP3   OH2 3230   3.076   5.263   0.605 -0.1360  0.2172 -0.0719
 1075TIP3    H1 3231   3.004   5.325   0.596 -0.4562 -0.2552 -0.7883
 1075TIP3    H2 3232   3.132   5.302   0.672 -0.6674  0.9573 -0.0449
 1076TIP3   OH2 3233   4.375   4.042   1.111  0.1224 -0.3254  0.1248
 1076TIP3    H1 3234   4.283   4.020   1.131 -0.8530  1.1209 -2.3553
 1076TIP3    H2 3235   4.381   4.136   1.129  0.7574 -0.1599 -0.9234
 1077TIP3   OH2 3236   5.228   5.298   3.441 -0.1624  0.2530 -0.3128
 1077TIP3    H1 3237   5.138   5.315   3.468  0.1950  0.3033  0.8911
 1077TIP3    H2 3238   5.278   5.296   3.522  0.9509  0.3295 -0.9717
 1078TIP3   OH2 3239   1.247   5.476   3.410 -0.1816  0.0968 -0.7036
 1078TIP3    H1 3240   1.334   5.462   3.447  0.4984  1.3739 -1.7197
 1078TIP3    H2 3241   1.218   5.559   3.447 -2.2614 -1.6237  1.8605
 1079TIP3   OH2 3242   0.395   1.707   3.474  0.1590 -0.4564  0.1177
 1079TIP3    H1 3243   0.423   1.642   3.538  0.1992 -1.2267 -0.6601
 1079TIP3    H2 3244   0.457   1.697   3.402  0.6480  0.9860  0.2958
 1080TIP3   OH2 3245   5.960   4.086   1.487  0.4982  0.3420  0.8249
 1080TIP3    H1 3246   5.927   4.080   1.577 -1.7846 -0.1112  0.0073
 1080TIP3    H2 3247   6.054   4.102   1.498  0.1238  1.3445  3.2820
 1081TIP3   OH2 3248   4.814   2.075   3.889  0.4537  0.2837 -0.0282
 1081TIP3    H1 3249   4.873   2.014   3.933 -0.6211  0.9500  2.5339
 1081TIP3    H2 3250   4.854   2.161   3.903 -1.0479  0.7437  1.7662
 1082TIP3   OH2 3251   1.256   3.634   3.004 -0.1911 -0.0961 -0.3049
 1082TIP3    H1 3252   1.257   3.657   2.911  0.7405  0.5150 -0.1523
 1082TIP3    H2 3253   1.250   3.538   3.004  0.0696 -0.1223 -1.0052
 1083TIP3   OH2 3254   2.071   0.755   2.746  0.3988  0.0134  0.1075
 1083TIP3    H1 3255   2.017   0.696   2.693  1.8992 -2.4190  1.1086
 1083TIP3    H2 3256   2.009   0.812   2.791 -0.9930  2.0128 -3.8336
 1084TIP3   OH2 3257   3.865   2.640   2.108  0.1126 -0.9266 -0.1663
 1084TIP3    H1 3258   3.924   2.672   2.177 -0.9234 -0.0701  0.3460
 1084TIP3    H2 3259   3.847   2.549   2.133  1.0484 -1.1382 -0.2230
 1085TIP3   OH2 3260   2.282   2.285   2.653  0.3736 -0.0890  0.0937
 1085TIP3    H1 3261   2.350   2.262   2.717  0.8932  0.5570 -0.2138
 1085TIP3    H2 3262   2.224   2.344   2.700  1.8417  1.9871 -0.5433
 1086TIP3   OH2 3263   0.729   3.832   4.802  0.0118 -0.6222  0.6224
 1086TIP3    H1 3264   0.668   3.880   4.859 -0.5548  0.3635 -0.7580
 1086TIP3    H2 3265   0.745   3.891   4.728  3.6629 -0.2732  1.4684
 1087TIP3   OH2 3266   4.418   0.255   5.172 -0.5497  0.1567 -0.0415
 1087TIP3    H1 3267   4.331   0.224   5.198 -0.2847 -0.8058 -0.2482
 1087TIP3    H2 3268   4.461   0.177   5.138  0.6669  0.4492  0.7691
 1088TIP3   OH2 3269   0.725   0.098   2.885 -0.2258 -0.0317  0.4670
 1088TIP3    H1 3270   0.647   0.141   2.851 -1.7197 -1.3660  2.0001
 1088TIP3    H2 3271   0.704   0.078   2.976  1.8784 -0.5502  0.9022
 1089TIP3   OH2 3272   1.737   5.580   4.662 -0.8693  0.0453  0.3940
 1089TIP3    H1 3273   1.721   5.521   4.736 -1.0813  0.9219  1.0617
 1089TIP3    H2 3274   1.677   5.653   4.676  0.9311  1.5221  0.8320
 1090TIP3   OH2 3275   1.621   5.125   3.717 -0.1488  0.1847 -0.6143
 1090TIP3    H1 3276   1.714   5.119   3.694  0.2977  0.8645  0.8834
 1090TIP3    H2 3277   1.613   5.075   3.799 -1.1531 -0.0491 -0.8383
 1091TIP3   OH2 3278   0.509   4.574   4.119  0.3863 -0.2805  0.4448
 1091TIP3    H1 3279   0.582   4.550   4.061 -0.2211  0.3725 -0.6264
 1091TIP3    H2 3280   0.551   4.589   4.204  1.4747 -0.1784 -0.0852
 1092TIP3   OH2 3281   3.871   4.040   2.214 -0.1489 -0.1839  0.0044
 1092TIP3    H1 3282   3.936   4.023   2.146 -0.9593 -0.2338 -0.7743
 1092TIP3    H2 3283   3.842   4.129   2.198 -0.9008 -0.4559 -0.2026
 1093TIP3   OH2 3284   0.207   5.919   2.422 -0.1542  0.3694  0.0506
 1093TIP3    H1 3285   0.242   5.835   2.393  2.3973  1.7807 -1.3248
 1093TIP3    H2 3286   0.112   5.904   2.430 -0.0892 -2.0489 -2.2668
 1094TIP3   OH2 3287   0.247   3.538   3.126 -0.2618  0.5031  0.0103
 1094TIP3    H1 3288   0.285   3.513   3.211  0.3449  1.7185  0.1210
 1094TIP3    H2 3289   0.294   3.486   3.062  0.0093  0.3467  0.3351
 1095TIP3   OH2 3290   2.086   1.110   2.660 -0.1087  0.1419 -1.0228
 1095TIP3    H1 3291   2.026   1.140   2.727  0.6114 -1.6884  0.5420
 1095TIP3    H2 3292   2.166   1.161   2.674  0.3095 -0.7722  0.0832
 1096TIP3   OH2 3293   3.911   2.290   1.308  0.5967 -0.4794  0.1714
 1096TIP3    H1 3294   3.931   2.215   1.363  0.2199 -1.8953 -1.5300
 1096TIP3    H2 3295   3.995   2.333   1.294  1.3758 -2.3122 -1.1971
 1097TIP3   OH2 3296   1.067   4.946   1.812  0.3446  0.2848  0.8283
 1097TIP3    H1 3297   1.100   4.896   1.738  2.3128 -0.9579  2.4581
 1097TIP3    H2 3298   0.974   4.960   1.792  0.9514  0.6515 -2.1661
 1098TIP3   OH2 3299   5.023   0.494   0.599  0.2245 -0.0553  0.3226
 1098TIP3    H1 3300   5.092   0.439   0.636  1.6300  1.4563  0.0704
 1098TIP3    H2 3301   5.055   0.518   0.512  0.4120  2.3587  0.9742
 1099TIP3   OH2 3302   0.650   1.620   3.324  0.3172  0.1329  0.5466
 1099TIP3    H1 3303   0.688   1.687   3.381  0.5307 -0.3346  0.9599
 1099TIP3    H2 3304   0.650   1.659   3.237 -2.7813  2.0927  1.2584
 1100TIP3   OH2 3305   3.507   2.881   3.439 -0.1145 -0.0806  0.7065
 1100TIP3    H1 3306   3.475   2.961   3.481  0.8876  0.6597  0.0919
 1100TIP3    H2 3307   3.565   2.841   3.504  0.9996  0.7761  0.2625
 1101TIP3   OH2 3308   3.739   3.672   3.000  0.1823 -0.1226 -0.7712
 1101TIP3    H1 3309   3.737   3.637   3.089 -2.4904  2.7198  0.4808
 1101TIP3    H2 3310   3.689   3.609   2.948  0.5751 -1.1217  0.0368
 1102TIP3   OH2 3311   4.765   5.028   2.931 -0.2015 -0.7549 -0.1821
 1102TIP3    H1 3312   4.679   5.040   2.970 -0.1533 -1.5435  0.1950
 1102TIP3    H2 3313   4.788   4.937   2.952  0.7636 -0.5219 -0.1944
 1103TIP3   OH2 3314   5.158   3.866   4.646 -0.4052 -0.5175  0.1232
 1103TIP3    H1 3315   5.202   3.803   4.703 -0.0400 -0.2451  0.1461
 1103TIP3    H2 3316   5.201   3.950   4.665 -0.1255 -0.4606 -0.7139
 1104TIP3   OH2 3317   0.670   0.178   4.122 -0.6044  0.1903 -0.9758
 1104TIP3    H1 3318   0.687   0.155   4.213 -0.7543  1.5013 -0.5968
 1104TIP3    H2 3319   0.575   0.171   4.112 -0.8134  1.8679 -0.4750
 1105TIP3   OH2 3320   2.829   4.235   2.030  0.7178 -0.2006 -0.4501
 1105TIP3    H1 3321   2.776   4.159   2.055 -0.6029  1.5745  2.7051
 1105TIP3    H2 3322   2.766   4.299   1.997  1.7006 -0.0606 -2.1790
 1106TIP3   OH2 3323   4.509   3.331   0.452  0.1195  0.6523  0.1082
 1106TIP3    H1 3324   4.505   3.240   0.483 -0.1878  0.5620 -0.2020
 1106TIP3    H2 3325   4.588   3.334   0.398  1.1740  1.0294  1.5979
 1107TIP3   OH2 3326   4.146   2.649   2.586 -0.0250 -0.4691  0.5154
 1107TIP3    H1 3327   4.100   2.714   2.639 -0.8509 -0.7439  0.1498
 1107TIP3    H2 3328   4.224   2.628   2.637  0.1886  0.7030  0.7037
 1108TIP3   OH2 3329   5.098   1.290   3.249  0.5646  0.8132  0.1492
 1108TIP3    H1 3330   5.173   1.241   3.283  1.9420  1.6625 -1.4765
 1108TIP3    H2 3331   5.031   1.282   3.316  1.3882 -1.6890  0.7831
 1109TIP3   OH2 3332   0.977   1.902   4.310  0.5391 -0.4855 -0.0873
 1109TIP3    H1 3333   0.938   1.853   4.237  1.2306 -2.0928  0.5844
 1109TIP3    H2 3334   0.902   1.940   4.356  0.0241 -0.4728 -0.9170
 1110TIP3   OH2 3335   0.167   3.411   2.382  0.1518 -0.4821 -0.0595
 1110TIP3    H1 3336   0.093   3.351   2.371 -1.4798  1.6202 -1.0974
 1110TIP3    H2 3337   0.225   3.391   2.310  0.1226 -1.4610  0.1706
 1111TIP3   OH2 3338   2.626   0.729   1.924  0.2922  0.1168  0.1008
 1111TIP3    H1 3339   2.531   0.722   1.925  0.1359  1.9082  0.4554
 1111TIP3    H2 3340   2.657   0.638   1.925 -1.3930 -0.4790  0.8362
 1112TIP3   OH2 3341   3.220   3.620   1.329 -0.4398 -0.4051 -0.0342
 1112TIP3    H1 3342   3.213   3.525   1.327  1.8077 -0.6358 -0.1091
 1112TIP3    H2 3343   3.262   3.643   1.246  0.2054  0.5019  0.5133
 1113TIP3   OH2 3344   5.494   4.596   5.133 -0.1810  0.2138  0.0697
 1113TIP3    H1 3345   5.540   4.517   5.163  0.6470  0.4753 -0.4887
 1113TIP3    H2 3346   5.528   4.666   5.188  1.1018  0.6375 -1.2103
 1114TIP3   OH2 3347   6.094   4.681   0.495 -0.3613  0.3914  0.1606
 1114TIP3    H1 3348   6.017   4.655   0.544 -0.7429 -1.2645 -1.2452
 1114TIP3    H2 3349   6.067   4.760   0.448 -1.1691 -0.0981 -0.2137
 1115TIP3   OH2 3350   3.075   1.528   2.779  0.0723 -0.0076 -0.1357
 1115TIP3    H1 3351   3.109   1.573   2.701 -1.0497  0.2224 -0.5079
 1115TIP3    H2 3352   2.983   1.511   2.759  0.1876 -1.4729  0.4606
 1116TIP3   OH2 3353   2.875   4.450   0.004 -0.2363  0.2808 -0.0161
 1116TIP3    H1 3354   2.857   4.377  -0.055  2.5651  0.0342 -0.6663
 1116TIP3    H2 3355   2.865   4.413   0.092  1.4712 -1.0152 -0.3313
 1117TIP3   OH2 3356   6.164   2.054   2.677 -0.2017  0.4640  0.0544
 1117TIP3    H1 3357   6.187   1.963   2.696  0.8135  0.9928  1.5281
 1117TIP3    H2 3358   6.193   2.067   2.586 -0.7402 -0.7778 -0.3230
 1118TIP3   OH2 3359   0.802   3.329   4.048 -0.2167  0.0496  0.2038
 1118TIP3    H1 3360   0.796   3.386   3.972  0.8243 -0.5218 -0.3275
 1118TIP3    H2 3361   0.717   3.336   4.091  0.2075  2.8434  0.7764
 1119TIP3   OH2 3362   1.961   5.764   5.220  0.1461  0.0440 -0.0024
 1119TIP3    H1 3363   1.922   5.790   5.137 -1.4750 -1.3016  0.2909
 1119TIP3    H2 3364   2.036   5.710   5.196  0.2144  0.3978 -0.5825
 1120TIP3   OH2 3365   3.464   4.182   4.934  0.3557 -0.3283  0.1614
 1120TIP3    H1 3366   3.429   4.232   5.008  1.3487  1.8647 -0.7432
 1120TIP3    H2 3367   3.506   4.106   4.974 -1.0612 -0.3783  1.6339
 1121TIP3   OH2 3368   4.519   4.051   2.920  1.0286  0.4537  0.0228
 1121TIP3    H1 3369   4.569   4.133   2.929  0.7075  0.8013 -1.1618
 1121TIP3    H2 3370   4.436   4.078   2.882  1.4052 -0.5564 -1.6166
 1122TIP3   OH2 3371   4.276   4.891   0.166 -0.4169  0.2663 -0.3880
 1122TIP3    H1 3372   4.349   4.901   0.106  1.3651 -0.3268  1.5672
 1122TIP3    H2 3373   4.202   4.867   0.110  1.5034 -1.8655 -2.2244
 1123TIP3   OH2 3374   3.912   0.579   0.258  0.4355  0.4776  0.2493
 1123TIP3    H1 3375   3.822   0.595   0.288 -0.4360 -0.2598 -1.7459
 1123TIP3    H2 3376   3.934   0.493   0.293  0.0135  0.2859  0.0582
 1124TIP3   OH2 3377   4.489   5.244   0.642  0.3206 -0.4612 -0.2282
 1124TIP3    H1 3378   4.402   5.243   0.603 -0.1646 -1.4726  0.8424
 1124TIP3    H2 3379   4.549   5.232   0.568 -0.4762 -0.4496 -0.8844
 1125TIP3   OH2 3380   5.148   4.449   1.573 -0.2212  0.1516  0.7143
 1125TIP3    H1 3381   5.131   4.462   1.480  1.1776 -0.0749  0.4028
 1125TIP3    H2 3382   5.065   4.415   1.608 -0.2651 -1.4836 -0.8022
 1126TIP3   OH2 3383   1.342   0.316   3.478  0.1985 -0.4491 -0.4706
 1126TIP3    H1 3384   1.361   0.391   3.535 -0.6424 -0.0714 -0.6689
 1126TIP3    H2 3385   1.325   0.244   3.538 -1.0600  0.0397 -0.2127
 1127TIP3   OH2 3386   5.019   3.594   0.315  0.2280  0.4729  0.5502
 1127TIP3    H1 3387   5.036   3.554   0.229 -1.9827  0.1471  0.2105
 1127TIP3    H2 3388   5.096   3.571   0.367  1.0205 -0.4642 -0.9411
 1128TIP3   OH2 3389   0.387   5.820   0.159  0.0592 -0.0552 -0.1313
 1128TIP3    H1 3390   0.461   5.762   0.177  0.2322  0.2248  0.0611
 1128TIP3    H2 3391   0.378   5.818   0.063  0.2301 -0.1921 -0.1448
 1129TIP3   OH2 3392   0.595   3.021   4.318 -0.6093 -0.0852 -0.0306
 1129TIP3    H1 3393   0.640   3.010   4.234 -0.2382 -1.4269  0.3159
 1129TIP3    H2 3394   0.525   2.956   4.315 -1.0377  0.3598  0.4045
 1130TIP3   OH2 3395   5.485   3.422   4.517  0.0501 -0.6056 -0.2970
 1130TIP3    H1 3396   5.525   3.446   4.601  0.9270 -1.1838 -0.5303
 1130TIP3    H2 3397   5.408   3.372   4.541  0.0388 -0.3707  0.1705
 1131TIP3   OH2 3398   1.868   0.606   4.513  0.4172  0.3040 -0.1417
 1131TIP3    H1 3399   1.932   0.598   4.443  0.6202  0.1552  0.0583
 1131TIP3    H2 3400   1.864   0.700   4.531  1.9875  0.1774  1.1227
 1132TIP3   OH2 3401   2.876   2.325   4.940 -0.0157 -0.2025 -0.2047
 1132TIP3    H1 3402   2.915   2.313   4.853 -1.0621 -0.3186 -0.6760
 1132TIP3    H2 3403   2.944   2.298   5.001  0.3365 -1.2299 -1.0306
 1133TIP3   OH2 3404   5.249   2.893   1.993 -0.0764 -0.1821 -0.4383
 1133TIP3    H1 3405   5.192   2.905   2.069  0.6436  0.3917  0.0117
 1133TIP3    H2 3406   5.189   2.869   1.922 -0.7464 -0.8132  0.3226
 1134TIP3   OH2 3407   2.956   0.049   3.287  0.1025 -0.0026 -0.3898
 1134TIP3    H1 3408   2.878   0.083   3.244 -0.0355  1.1235  0.7265
 1134TIP3    H2 3409   2.928   0.026   3.375  1.3535  2.0057  0.6031
 1135TIP3   OH2 3410   2.785   3.597   4.993  0.4663 -0.1735 -0.1580
 1135TIP3    H1 3411   2.781   3.534   4.921 -2.4626 -2.2748  1.6042
 1135TIP3    H2 3412   2.865   3.647   4.977  1.5166 -2.5019 -3.1822
 1136TIP3   OH2 3413   1.476   0.146   4.700  0.0859  0.3866  0.3046
 1136TIP3    H1 3414   1.496   0.230   4.743 -2.2853  0.6129  1.1175
 1136TIP3    H2 3415   1.503   0.080   4.764 -1.2030  0.6710  1.1967
 1137TIP3   OH2 3416   2.520   3.734   2.458  0.5033 -0.2439 -0.4366
 1137TIP3    H1 3417   2.549   3.648   2.425  0.2535 -0.2312 -0.6883
 1137TIP3    H2 3418   2.435   3.748   2.417  0.0007 -0.4054  0.5231
 1138TIP3   OH2 3419   5.596   5.018   2.458 -0.0317 -0.0720 -0.3969
 1138TIP3    H1 3420   5.618   4.966   2.536  1.5445  3.4385  1.7692
 1138TIP3    H2 3421   5.500   5.029   2.463  0.1821  1.6619  2.3719
 1139TIP3   OH2 3422   1.942   4.995   0.575 -0.2650 -0.1397  0.2892
 1139TIP3    H1 3423   1.980   4.927   0.631  0.5820 -0.1265 -0.2477
 1139TIP3    H2 3424   2.018   5.036   0.533 -0.7980  0.8409  0.2664
 1140TIP3   OH2 3425   0.411   0.166   3.394 -0.1937 -0.3166 -0.8458
 1140TIP3    H1 3426   0.409   0.259   3.372  0.1853  0.0113  0.4320
 1140TIP3    H2 3427   0.393   0.163   3.488  2.2302 -1.3304 -0.3503
 1141TIP3   OH2 3428   4.638   2.150   2.092 -0.0378 -0.0393  0.3103
 1141TIP3    H1 3429   4.610   2.096   2.018  0.6826  1.4106 -1.1021
 1141TIP3    H2 3430   4.703   2.097   2.137  1.8054  0.1299 -1.9485
 1142TIP3   OH2 3431   5.614   4.757   1.665  0.3931  0.5340  0.2610
 1142TIP3    H1 3432   5.548   4.740   1.598  0.2074  0.2547  0.5158
 1142TIP3    H2 3433   5.577   4.722   1.745 -0.5969  3.2348  1.1211
 1143TIP3   OH2 3434   4.353   3.562   4.901 -0.2295  0.4270 -0.1736
 1143TIP3    H1 3435   4.389   3.647   4.926  1.2232  0.0152 -0.7370
 1143TIP3    H2 3436   4.420   3.499   4.927 -0.2678 -0.3366 -1.7617
 1144TIP3   OH2 3437   5.261   3.486   2.197  0.1705 -0.5426  0.2065
 1144TIP3    H1 3438   5.324   3.558   2.203 -1.1313  0.5580  1.7455
 1144TIP3    H2 3439   5.177   3.530   2.182 -0.7604 -1.6602  1.7949
 1145TIP3   OH2 3440   1.335   1.486   1.858 -0.0412  0.1596 -0.5170
 1145TIP3    H1 3441   1.374   1.421   1.800  1.4653 -0.3867  0.9925
 1145TIP3    H2 3442   1.296   1.434   1.929  1.2768  0.8388  0.7649
 1146TIP3   OH2 3443   1.188   0.925   3.806 -0.4359 -0.0140 -0.1490
 1146TIP3    H1 3444   1.233   1.008   3.821 -0.0239  0.9793 -5.1860
 1146TIP3    H2 3445   1.257   0.859   3.818  0.0596  0.6376  0.7517
 1147TIP3   OH2 3446   0.018   1.837   3.252  0.9104  0.4704  0.4295
 1147TIP3    H1 3447   0.060   1.751   3.249  0.0623  0.0602 -0.2017
 1147TIP3    H2 3448  -0.051   1.832   3.186 -1.3653  0.4785  2.6582
 1148TIP3   OH2 3449   0.828   5.734   2.246 -0.2716 -0.1104  0.2975
 1148TIP3    H1 3450   0.773   5.787   2.188 -0.5559 -0.9733 -0.2542
 1148TIP3    H2 3451   0.794   5.749   2.334  0.0686  1.1080  0.2392
 1149TIP3   OH2 3452   1.673   5.170   0.044 -0.0298  0.6082  0.1362
 1149TIP3    H1 3453   1.650   5.157  -0.048  2.1696  1.7398 -0.6535
 1149TIP3    H2 3454   1.699   5.262   0.049  2.5744 -0.0976  1.1806
 1150TIP3   OH2 3455   3.142   2.786   3.896  0.8937 -0.2547  0.5292
 1150TIP3    H1 3456   3.165   2.875   3.869  0.4546 -0.2798  0.0493
 1150TIP3    H2 3457   3.064   2.798   3.951 -0.8257 -0.5285 -1.7132
 1151TIP3   OH2 3458   0.526   1.392   1.322 -0.2175 -0.2636  0.4050
 1151TIP3    H1 3459   0.548   1.448   1.248  0.1662 -0.4331  0.3891
 1151TIP3    H2 3460   0.527   1.303   1.287 -2.6058 -0.1857 -0.0075
 1152TIP3   OH2 3461   2.762   4.618   4.769  0.1536  0.1092  0.3107
 1152TIP3    H1 3462   2.675   4.578   4.776  0.5667 -0.7879  0.5288
 1152TIP3    H2 3463   2.746   4.712   4.768 -1.1473  0.0107 -3.2250
 1153TIP3   OH2 3464   3.437   0.561   1.792  0.2064  0.5926 -0.4080
 1153TIP3    H1 3465   3.420   0.498   1.862 -1.5682  2.1925  0.7354
 1153TIP3    H2 3466   3.532   0.566   1.786  0.3853 -1.5254  0.0361
 1154TIP3   OH2 3467   3.192   1.485   3.594  0.6778  0.1426 -0.2432
 1154TIP3    H1 3468   3.195   1.428   3.517  2.3223 -0.1853  0.0174
 1154TIP3    H2 3469   3.231   1.432   3.664  0.1424  0.7982  0.5709
 1155TIP3   OH2 3470   5.044   3.906   0.918  0.0478 -0.2422  0.2767
 1155TIP3    H1 3471   4.999   3.829   0.883 -0.9940  0.7418 -0.6735
 1155TIP3    H2 3472   5.126   3.911   0.867  1.5082 -2.2504  2.2689
 1156TIP3   OH2 3473   2.629   1.066   4.459 -0.1863 -0.0095  0.3476
 1156TIP3    H1 3474   2.620   1.028   4.547  2.0004 -0.6285  0.3900
 1156TIP3    H2 3475   2.615   0.992   4.400 -0.3727  0.1110  0.2440
 1157TIP3   OH2 3476   3.962   2.716   1.017  0.4447  0.3413 -0.3474
 1157TIP3    H1 3477   3.904   2.710   0.941  0.2735  2.0025 -0.3959
 1157TIP3    H2 3478   4.008   2.800   1.005 -1.3909  1.9243  2.5954
 1158TIP3   OH2 3479   4.637   2.156   3.028 -0.3310 -0.0594  0.1261
 1158TIP3    H1 3480   4.543   2.169   3.011 -0.1818  0.5515 -0.2409
 1158TIP3    H2 3481   4.653   2.065   3.002 -0.7745 -0.1002 -0.0253
 1159TIP3   OH2 3482   6.090   4.328   0.139 -0.7994  0.4296  0.0442
 1159TIP3    H1 3483   6.121   4.238   0.150 -0.9246  0.5523  1.5549
 1159TIP3    H2 3484   6.166   4.376   0.108 -0.6164 -0.1039 -0.3445
 1160TIP3   OH2 3485   1.559   0.223   0.576 -0.1975 -0.2304  0.0597
 1160TIP3    H1 3486   1.492   0.163   0.612 -1.8046  1.4334 -0.0103
 1160TIP3    H2 3487   1.508   0.294   0.537  1.6106  0.0776 -1.8719
 1161TIP3   OH2 3488   5.495   2.737   1.310 -0.0828  0.5121 -0.5461
 1161TIP3    H1 3489   5.544   2.672   1.360  1.1354  1.2347 -0.7521
 1161TIP3    H2 3490   5.491   2.701   1.221 -0.0564  0.3857 -0.4964
 1162TIP3   OH2 3491   0.911   2.485   0.969  0.1453 -0.2959 -0.4398
 1162TIP3    H1 3492   0.994   2.456   1.006 -1.2014 -1.2742  2.0838
 1162TIP3    H2 3493   0.909   2.580   0.984  0.7673 -0.2776 -0.4632
 1163TIP3   OH2 3494   5.621   0.136   4.134  0.0169 -0.4932  0.1603
 1163TIP3    H1 3495   5.534   0.148   4.172  0.6090  0.5833  1.2276
 1163TIP3    H2 3496   5.681   0.164   4.202  1.2490 -1.9047 -0.2991
 1164TIP3   OH2 3497   6.038   4.496   2.072  0.3960  0.3321  0.1652
 1164TIP3    H1 3498   6.087   4.427   2.028  1.1324  1.6607 -1.2347
 1164TIP3    H2 3499   6.058   4.486   2.165 -1.3147 -2.6623  0.3413
 1165TIP3   OH2 3500   0.452   3.957   0.308  0.3392  0.4301 -0.6398
 1165TIP3    H1 3501   0.548   3.955   0.308  0.4078  1.5363 -2.4276
 1165TIP3    H2 3502   0.430   4.037   0.357  0.3844  0.7018 -1.0526
 1166TIP3   OH2 3503   5.283   1.119   0.042  1.0740  0.4781 -0.1642
 1166TIP3    H1 3504   5.339   1.122   0.120  1.4657 -0.5721 -0.3844
 1166TIP3    H2 3505   5.235   1.036   0.051  2.6346 -0.6901 -2.0374
 1167TIP3   OH2 3506   1.072   0.630   1.173 -0.1909  0.1003 -0.3022
 1167TIP3    H1 3507   1.124   0.557   1.207  0.6321  0.4522 -0.7447
 1167TIP3    H2 3508   1.136   0.701   1.164 -0.5162  0.2364 -1.8393
 1168TIP3   OH2 3509   4.356   2.134   2.314 -0.1380 -0.7061  0.0793
 1168TIP3    H1 3510   4.320   2.073   2.378  1.6302 -0.6265  1.2366
 1168TIP3    H2 3511   4.450   2.135   2.332 -0.1621  3.1039  0.8194
 1169TIP3   OH2 3512   1.436   2.754   2.544 -0.6940  0.5256 -0.4239
 1169TIP3    H1 3513   1.367   2.736   2.609 -0.2722  1.4167  0.2926
 1169TIP3    H2 3514   1.416   2.694   2.472 -1.9424  0.4250 -0.0333
 1170TIP3   OH2 3515   4.522   2.424   2.980  0.6438  0.1284  0.6889
 1170TIP3    H1 3516   4.461   2.353   2.998 -1.1074  1.6156  0.9352
 1170TIP3    H2 3517   4.514   2.439   2.886  1.1465 -0.1190  0.6061
 1171TIP3   OH2 3518   1.175   2.336   1.338  0.1705  0.2557  0.0807
 1171TIP3    H1 3519   1.179   2.245   1.310  2.2082  0.1380  0.6003
 1171TIP3    H2 3520   1.202   2.386   1.261  2.1060  0.1793  0.6691
 1172TIP3   OH2 3521   5.498   5.959   4.514  0.0260 -0.3290  0.1055
 1172TIP3    H1 3522   5.546   5.877   4.502  1.5806  0.3261  1.4926
 1172TIP3    H2 3523   5.409   5.932   4.536  0.1510 -1.6006 -0.8316
 1173TIP3   OH2 3524   3.936   1.823   3.227 -0.2694 -0.1378 -0.3119
 1173TIP3    H1 3525   3.846   1.790   3.219 -0.3311  0.2658 -1.5453
 1173TIP3    H2 3526   3.984   1.752   3.268 -0.9126 -0.8160 -0.7039
 1174TIP3   OH2 3527   5.465   2.744   4.921  0.5317 -0.3195  0.2520
 1174TIP3    H1 3528   5.393   2.793   4.961  0.2947 -1.3709  1.1629
 1174TIP3    H2 3529   5.539   2.757   4.980  0.7780 -0.1778 -0.0835
 1175TIP3   OH2 3530   1.615   1.130   4.069 -0.4433  0.4789  0.2437
 1175TIP3    H1 3531   1.706   1.143   4.042 -0.8204 -0.9811 -2.0355
 1175TIP3    H2 3532   1.619   1.063   4.137  0.2101  0.7902  0.5205
 1176TIP3   OH2 3533   1.871   4.584   4.092  0.1686  0.0879 -0.3436
 1176TIP3    H1 3534   1.897   4.558   4.181 -1.9341 -0.8761  0.0660
 1176TIP3    H2 3535   1.823   4.665   4.104 -0.8719 -0.4919 -0.4510
 1177TIP3   OH2 3536   4.199   3.353   1.082 -0.0643  0.1799 -0.3911
 1177TIP3    H1 3537   4.138   3.313   1.144  1.0810 -2.2363 -0.7216
 1177TIP3    H2 3538   4.252   3.413   1.136  0.5291 -1.4270  0.8923
 1178TIP3   OH2 3539   4.509   3.190   1.660  0.3643 -0.1597  0.0447
 1178TIP3    H1 3540   4.559   3.251   1.715  1.0124  0.5295 -1.2593
 1178TIP3    H2 3541   4.536   3.103   1.690  0.2774  0.1848  1.1763
 1179TIP3   OH2 3542   1.138   5.828   4.293 -0.5054 -0.3554  0.6777
 1179TIP3    H1 3543   1.050   5.800   4.269 -0.5206  1.0205 -1.0525
 1179TIP3    H2 3544   1.141   5.921   4.273  1.6727 -0.5941 -0.4197
 1180TIP3   OH2 3545   0.339   5.671   1.183 -0.2853  0.5691 -0.5102
 1180TIP3    H1 3546   0.247   5.663   1.156  0.2026  0.3075 -2.2465
 1180TIP3    H2 3547   0.346   5.761   1.215 -0.8306  1.1190 -1.8301
 1181TIP3   OH2 3548   1.694   4.172   1.432  0.2880 -0.2054 -0.3319
 1181TIP3    H1 3549   1.654   4.121   1.362  0.8759  1.3856 -1.9230
 1181TIP3    H2 3550   1.788   4.160   1.421  0.4246  0.9020 -0.5197
 1182TIP3   OH2 3551   2.984   0.380   3.294 -0.0868  0.6060  0.3573
 1182TIP3    H1 3552   2.909   0.340   3.251 -0.1920 -0.4284  1.4492
 1182TIP3    H2 3553   3.044   0.401   3.222  0.9484 -3.5131 -0.2917
 1183TIP3   OH2 3554   5.594   5.892   1.289 -0.4020  0.5752 -0.7298
 1183TIP3    H1 3555   5.606   5.907   1.383 -0.0110 -0.8028 -0.5475
 1183TIP3    H2 3556   5.500   5.901   1.275 -0.5657 -0.0193 -0.0551
 1184TIP3   OH2 3557   3.382   0.577   1.112 -0.3194  0.1755  0.3124
 1184TIP3    H1 3558   3.414   0.487   1.112 -0.8580 -0.0417  1.8672
 1184TIP3    H2 3559   3.420   0.616   1.033  1.4794 -0.8576  0.6243
 1185TIP3   OH2 3560   4.673   5.932   3.600  0.1196 -0.0415 -0.3519
 1185TIP3    H1 3561   4.692   5.864   3.664  1.6289  0.6114 -0.0477
 1185TIP3    H2 3562   4.591   5.972   3.631  0.8648  0.3318  1.2797
 1186TIP3   OH2 3563   2.402   1.036   5.137  0.1833 -0.5655  0.4750
 1186TIP3    H1 3564   2.366   1.120   5.165  0.4076 -0.0945 -0.6088
 1186TIP3    H2 3565   2.341   0.971   5.174  0.4872  0.0034  2.0512
 1187TIP3   OH2 3566   3.675   3.128   1.373 -0.0532 -0.3229 -0.6930
 1187TIP3    H1 3567   3.595   3.079   1.354 -0.5716 -0.0551  0.7178
 1187TIP3    H2 3568   3.646   3.219   1.380  0.5046 -0.1282 -0.8397
 1188TIP3   OH2 3569   1.914   4.648   0.394  0.3302 -0.4270  0.4827
 1188TIP3    H1 3570   1.928   4.553   0.384 -1.1293 -0.6083  0.0480
 1188TIP3    H2 3571   1.829   4.655   0.436  1.6834  0.6374  3.2795
 1189TIP3   OH2 3572   1.703   3.734   1.711 -0.1194  0.1205  0.3958
 1189TIP3    H1 3573   1.622   3.769   1.747 -0.2303  1.6841 -1.2652
 1189TIP3    H2 3574   1.677   3.657   1.661 -0.3748 -0.1716  0.9689
 1190TIP3   OH2 3575   0.895   1.717   2.479  0.0399 -0.1613  0.1112
 1190TIP3    H1 3576   0.930   1.691   2.394 -1.4435 -0.5088 -0.4286
 1190TIP3    H2 3577   0.818   1.770   2.459  0.2666  0.6365  1.2421
 1191TIP3   OH2 3578   3.354   5.089   2.678 -0.1084  0.1018 -0.0020
 1191TIP3    H1 3579   3.321   5.143   2.607 -0.0704 -0.1245 -0.1937
 1191TIP3    H2 3580   3.361   5.148   2.753  2.0651  0.9126 -0.7719
 1192TIP3   OH2 3581   5.365   4.533   3.454 -0.3926  0.4053 -0.4112
 1192TIP3    H1 3582   5.307   4.609   3.450  0.7856  1.3103 -3.9103
 1192TIP3    H2 3583   5.310   4.460   3.425 -1.0095  0.2678  1.0495
 1193TIP3   OH2 3584   1.306   1.874   1.502 -0.0897 -0.3557  0.2280
 1193TIP3    H1 3585   1.321   1.958   1.545  0.7305 -0.0165 -0.6806
 1193TIP3    H2 3586   1.292   1.812   1.573 -0.3577  0.4871  0.9203
 1194TIP3   OH2 3587   2.338   2.764   5.062  0.1200 -0.4954 -0.1326
 1194TIP3    H1 3588   2.372   2.718   4.985 -0.5895  0.1065 -0.8185
 1194TIP3    H2 3589   2.392   2.842   5.070  0.8440 -1.0610  0.5897
 1195TIP3   OH2 3590   0.141   4.882   5.147 -0.0321  0.2840  0.0435
 1195TIP3    H1 3591   0.057   4.854   5.184  0.1438 -1.7315 -0.9238
 1195TIP3    H2 3592   0.202   4.877   5.222 -0.9992  3.3797  1.1628
 1196TIP3   OH2 3593   2.775   1.587   2.441  0.5411  0.0132 -0.6499
 1196TIP3    H1 3594   2.764   1.679   2.467  1.2099  0.3664 -1.5402
 1196TIP3    H2 3595   2.707   1.540   2.489  0.1473  0.9876 -0.2229
 1197TIP3   OH2 3596   3.012   3.810   1.090 -0.2045 -0.0089  0.0529
 1197TIP3    H1 3597   2.932   3.757   1.086 -0.1804 -0.0579  0.2475
 1197TIP3    H2 3598   2.998   3.871   1.162 -0.0307 -0.0753  0.1451
 1198TIP3   OH2 3599   3.730   0.177   3.594  0.1527 -0.0092 -0.1487
 1198TIP3    H1 3600   3.727   0.082   3.605  1.0325 -0.4986 -3.3187
 1198TIP3    H2 3601   3.670   0.195   3.521 -1.6452  2.2098  1.6868
 1199TIP3   OH2 3602   3.588   0.235   0.306  0.4689  0.2188  0.2631
 1199TIP3    H1 3603   3.610   0.142   0.309  2.4258  0.6658  1.3877
 1199TIP3    H2 3604   3.614   0.262   0.218 -2.7779 -0.7869 -1.1961
 1200TIP3   OH2 3605   3.676   0.361   3.055  0.3389 -0.1176 -0.0018
 1200TIP3    H1 3606   3.678   0.287   3.115 -0.3214 -1.3122 -1.3885
 1200TIP3    H2 3607   3.606   0.418   3.089 -1.9742 -2.1265 -1.0840
 1201TIP3   OH2 3608   5.491   5.788   0.640 -0.9269  0.0015  0.1143
 1201TIP3    H1 3609   5.476   5.744   0.556 -0.2043 -0.8703  0.4192
 1201TIP3    H2 3610   5.515   5.717   0.699 -2.6877  0.4136  1.4040
 1202TIP3   OH2 3611   6.246   2.968   0.825  0.2506 -0.5530 -0.1932
 1202TIP3    H1 3612   6.208   3.017   0.752  1.6088  0.4074 -0.3100
 1202TIP3    H2 3613   6.197   2.997   0.902 -0.0242 -0.2262 -0.4891
 1203TIP3   OH2 3614   0.549   3.660   1.678  0.3879  0.0210  0.3840
 1203TIP3    H1 3615   0.554   3.676   1.772  0.5145 -1.0366  0.5714
 1203TIP3    H2 3616   0.625   3.706   1.641  2.0126 -1.9060  1.1553
 1204TIP3   OH2 3617   3.153   3.009   0.958  0.0983 -0.0508  0.0051
 1204TIP3    H1 3618   3.067   2.969   0.945  0.7132 -1.7749  0.9428
 1204TIP3    H2 3619   3.198   2.951   1.020  1.4727  1.5098  0.5631
 1205TIP3   OH2 3620   4.009   1.628   4.894  0.2030 -0.1717  0.5648
 1205TIP3    H1 3621   3.977   1.675   4.972 -1.5590 -0.2212 -0.0719
 1205TIP3    H2 3622   4.102   1.615   4.911  0.2295  1.3260  1.8912
 1206TIP3   OH2 3623   2.853   1.816   4.009  0.1736  0.0887  0.7416
 1206TIP3    H1 3624   2.891   1.735   3.974  0.4114 -0.0132  1.2163
 1206TIP3    H2 3625   2.855   1.877   3.936  0.9450 -0.0253  0.6529
 1207TIP3   OH2 3626   4.373   5.774   1.549 -0.0520  0.2760 -0.1174
 1207TIP3    H1 3627   4.358   5.848   1.607 -0.6285  3.2085 -3.6200
 1207TIP3    H2 3628   4.302   5.713   1.568 -0.8180  1.5961  1.4587
 1208TIP3   OH2 3629   0.381   4.211   1.219  0.1720  0.1177 -0.6356
 1208TIP3    H1 3630   0.371   4.283   1.156  1.1243  0.6183 -0.2316
 1208TIP3    H2 3631   0.446   4.242   1.281  1.4114 -1.5023 -1.0523
 1209TIP3   OH2 3632   3.973   2.806   1.616  0.1153  0.7729 -0.1163
 1209TIP3    H1 3633   3.961   2.890   1.572 -1.9683  0.7831  0.3593
 1209TIP3    H2 3634   4.015   2.750   1.551 -1.9712  1.0723 -1.8314
 1210TIP3   OH2 3635   2.849   3.183   3.525 -0.4624 -0.3089 -0.1466
 1210TIP3    H1 3636   2.903   3.159   3.450 -0.7917 -2.1531  0.1609
 1210TIP3    H2 3637   2.838   3.101   3.574 -0.4504  0.7759  1.7973
 1211TIP3   OH2 3638   1.990   2.612   3.906 -0.6553 -0.6473 -0.5052
 1211TIP3    H1 3639   1.955   2.579   3.989  0.2781 -0.4351 -0.0142
 1211TIP3    H2 3640   1.948   2.558   3.839 -0.8400 -1.3410  0.1598
 1212TIP3   OH2 3641   5.467   5.459   4.574 -0.2741  0.0969 -0.3049
 1212TIP3    H1 3642   5.434   5.374   4.602  0.3248 -0.2843 -0.7406
 1212TIP3    H2 3643   5.560   5.446   4.559 -0.2238  0.7597 -0.6310
 1213TIP3   OH2 3644   0.911   1.263   3.195 -0.1860 -0.0559  0.2198
 1213TIP3    H1 3645   0.897   1.173   3.223  0.6269 -0.2246  0.1003
 1213TIP3    H2 3646   0.826   1.290   3.160 -0.3226 -0.9220 -0.1449
 1214TIP3   OH2 3647   3.364   5.238   3.157  0.2648  0.2963 -0.3638
 1214TIP3    H1 3648   3.452   5.267   3.182  1.1585 -0.3494 -2.5176
 1214TIP3    H2 3649   3.342   5.170   3.220  2.0211 -0.6613 -0.7201
 1215TIP3   OH2 3650   3.603   4.765   4.600 -0.2940 -0.3749  0.0296
 1215TIP3    H1 3651   3.639   4.689   4.645 -2.6254 -1.1523  0.6795
 1215TIP3    H2 3652   3.621   4.749   4.507  3.0314  0.4235  0.4011
 1216TIP3   OH2 3653   5.639   0.277   0.664  0.3079  0.1950  0.3092
 1216TIP3    H1 3654   5.729   0.304   0.683  0.4492 -1.4571  2.2735
 1216TIP3    H2 3655   5.641   0.182   0.669 -1.4500  0.0983 -0.1911
 1217TIP3   OH2 3656   0.042   2.918   4.997 -0.6891 -0.0854  0.0210
 1217TIP3    H1 3657   0.125   2.965   4.986 -0.9470  0.2690 -0.4347
 1217TIP3    H2 3658   0.058   2.858   5.070  0.1439 -0.3978 -0.3989
 1218TIP3   OH2 3659   4.437   3.695   2.616 -0.3547 -0.2819 -0.0348
 1218TIP3    H1 3660   4.447   3.749   2.537 -0.3328 -1.9515 -1.2176
 1218TIP3    H2 3661   4.391   3.752   2.678 -0.5467  1.0105 -1.3033
 1219TIP3   OH2 3662   3.650   3.242   2.674  0.1782  0.5401  0.3554
 1219TIP3    H1 3663   3.627   3.259   2.582 -0.9751  0.6173  0.6502
 1219TIP3    H2 3664   3.637   3.148   2.685  1.1167  0.3881  0.2297
 1220TIP3   OH2 3665   4.161   1.176   3.650  0.3820  0.6615  0.0216
 1220TIP3    H1 3666   4.220   1.236   3.605 -0.3847  1.2955 -0.1661
 1220TIP3    H2 3667   4.140   1.220   3.732 -2.0909  1.8649 -1.1239
 1221TIP3   OH2 3668   0.903   3.462   2.470  0.4302 -0.0110 -0.1441
 1221TIP3    H1 3669   0.908   3.367   2.456 -2.1229 -0.2218 -0.0136
 1221TIP3    H2 3670   0.835   3.474   2.535  2.3676  1.8412  1.7063
 1222TIP3   OH2 3671   1.892   3.758   0.732  0.2143 -0.2702 -0.0283
 1222TIP3    H1 3672   1.927   3.673   0.703 -0.6566 -0.6827  0.1025
 1222TIP3    H2 3673   1.854   3.740   0.817 -0.0926  0.2269 -0.0581
 1223TIP3   OH2 3674   1.725   4.417   0.377  0.2796  0.2255 -0.2482
 1223TIP3    H1 3675   1.661   4.478   0.339  0.1925  0.9705  1.0200
 1223TIP3    H2 3676   1.672   4.358   0.431  0.4665 -0.3836 -0.7296
 1224TIP3   OH2 3677   3.719   0.583   1.763  0.5628 -0.3806 -0.2411
 1224TIP3    H1 3678   3.759   0.601   1.678  0.9625  0.1035  0.0482
 1224TIP3    H2 3679   3.777   0.518   1.804  2.0284  1.5383  0.8734
 1225TIP3   OH2 3680   0.266   0.562   0.945 -0.2892 -0.5672 -0.1437
 1225TIP3    H1 3681   0.268   0.543   1.038 -1.4419  0.9255  0.2223
 1225TIP3    H2 3682   0.184   0.525   0.914 -0.9845  0.8626 -0.0800
 1226TIP3   OH2 3683   5.712   3.679   0.251 -0.0032 -0.1115 -0.0201
 1226TIP3    H1 3684   5.764   3.619   0.197 -1.5764 -1.5833  0.0107
 1226TIP3    H2 3685   5.629   3.689   0.203 -0.3392  0.8412  0.7281
 1227TIP3   OH2 3686   0.181   2.519   2.244 -0.0735  0.2289 -0.3580
 1227TIP3    H1 3687   0.197   2.590   2.181  0.7734 -0.0080 -0.4249
 1227TIP3    H2 3688   0.135   2.452   2.193 -0.8062  0.6913 -0.3145
 1228TIP3   OH2 3689   1.872   2.292   2.624 -0.1516  0.1674 -0.0111
 1228TIP3    H1 3690   1.847   2.201   2.639  2.2200 -0.3314  1.4265
 1228TIP3    H2 3691   1.820   2.343   2.687 -1.7864 -0.0762 -1.0949
 1229TIP3   OH2 3692   4.654   0.817   3.105 -0.0756 -0.3304 -0.1030
 1229TIP3    H1 3693   4.708   0.744   3.075  1.2103 -0.3360  2.0628
 1229TIP3    H2 3694   4.656   0.812   3.200  0.8309  3.0048  0.1915
 1230TIP3   OH2 3695   0.795   5.881   1.507 -0.7152 -0.3191  0.6102
 1230TIP3    H1 3696   0.786   5.870   1.602 -0.5449 -1.5386  0.4970
 1230TIP3    H2 3697   0.890   5.883   1.493 -0.6381  2.8751  0.7495
 1231TIP3   OH2 3698   5.123   2.783   0.377 -0.1048 -0.3636  0.0431
 1231TIP3    H1 3699   5.127   2.795   0.472  0.2598  1.7697 -0.1851
 1231TIP3    H2 3700   5.057   2.846   0.348 -2.2290 -2.8482 -0.9135
 1232TIP3   OH2 3701   2.328   2.996   3.430 -0.3128  0.0474  0.6336
 1232TIP3    H1 3702   2.286   2.962   3.508 -0.6951 -1.2018 -0.0758
 1232TIP3    H2 3703   2.257   3.029   3.376 -0.3844 -1.5814 -0.3361
 1233TIP3   OH2 3704   0.503   5.430   4.729  0.0316 -0.1336 -0.2240
 1233TIP3    H1 3705   0.529   5.425   4.821 -0.5188  0.6219 -0.0200
 1233TIP3    H2 3706   0.476   5.341   4.707 -1.6429  0.0613  0.9105
 1234TIP3   OH2 3707   4.229   5.174   0.580  0.2085 -0.2203  0.4825
 1234TIP3    H1 3708   4.148   5.165   0.630 -0.4294  0.4276 -0.4026
 1234TIP3    H2 3709   4.215   5.119   0.502 -0.1576  1.3182 -0.5863
 1235TIP3   OH2 3710   5.075   0.994   4.793 -0.6742 -0.2164  0.1780
 1235TIP3    H1 3711   5.043   1.024   4.708  0.9960 -2.1085 -1.2209
 1235TIP3    H2 3712   5.160   0.955   4.774 -0.1712 -0.5729  2.7685
 1236TIP3   OH2 3713   0.056   5.535   2.401  0.2968 -0.2473 -0.2680
 1236TIP3    H1 3714   0.058   5.604   2.467  1.2286 -0.7856  0.2775
 1236TIP3    H2 3715  -0.036   5.509   2.397  0.3221 -0.6323  1.2635
 1237TIP3   OH2 3716   0.247   2.061   2.958  0.2927 -0.0932 -0.2598
 1237TIP3    H1 3717   0.297   1.987   2.991  1.0559  0.4566 -0.1717
 1237TIP3    H2 3718   0.276   2.071   2.867  1.4511  1.1343  0.2141
 1238TIP3   OH2 3719   2.827   2.720   3.467  0.1429  0.3028  0.1368
 1238TIP3    H1 3720   2.891   2.655   3.496  0.9794  1.2688  0.4871
 1238TIP3    H2 3721   2.816   2.704   3.374  2.3538  1.3316 -0.3582
 1239TIP3   OH2 3722   1.933   3.346   1.352  0.0870 -0.1532  0.1021
 1239TIP3    H1 3723   1.951   3.418   1.413 -2.4121  0.9678 -0.3255
 1239TIP3    H2 3724   1.843   3.319   1.374 -0.1016 -1.1166 -1.6971
 1240TIP3   OH2 3725   2.106   2.837   3.575 -0.2228  0.0330  0.1938
 1240TIP3    H1 3726   2.043   2.769   3.548  1.3652 -1.3230 -0.2448
 1240TIP3    H2 3727   2.098   2.840   3.670 -0.6874 -0.3671  0.1751
 1241TIP3   OH2 3728   2.268   2.994   3.821 -0.1512 -0.2047 -0.0697
 1241TIP3    H1 3729   2.276   3.089   3.809 -0.8382 -0.2985 -1.5408
 1241TIP3    H2 3730   2.174   2.978   3.822 -0.0346 -0.9207 -0.3813
 1242TIP3   OH2 3731   0.776   4.414   3.433 -0.0090  0.1794 -0.0289
 1242TIP3    H1 3732   0.743   4.421   3.343 -1.4064 -1.1194  0.3549
 1242TIP3    H2 3733   0.741   4.492   3.477 -1.0746 -0.2488 -0.0952
 1243TIP3   OH2 3734   2.541   3.172   1.584 -0.2848  0.1445 -0.1715
 1243TIP3    H1 3735   2.497   3.127   1.656 -0.7620  2.1932  0.9093
 1243TIP3    H2 3736   2.583   3.102   1.533 -1.7646 -1.5532  0.8309
 1244TIP3   OH2 3737   2.098   2.984   1.723 -0.0922  0.5524 -0.2129
 1244TIP3    H1 3738   2.064   3.032   1.647 -2.3129 -1.7446 -0.8074
 1244TIP3    H2 3739   2.039   2.909   1.732  0.6730  0.2096  3.2298
 1245TIP3   OH2 3740   3.126   1.915   4.677 -0.2239 -0.0532 -0.0654
 1245TIP3    H1 3741   3.215   1.909   4.710 -0.6034 -3.6092  0.6380
 1245TIP3    H2 3742   3.130   1.880   4.588 -0.5832  2.0406 -0.9673
 1246TIP3   OH2 3743   1.466   2.973   0.943  0.0381 -0.0282  0.1791
 1246TIP3    H1 3744   1.523   3.028   0.997 -2.5355  0.2508  2.8820
 1246TIP3    H2 3745   1.456   2.892   0.993 -1.9554 -0.0211 -0.1208
 1247TIP3   OH2 3746   1.792   5.816   2.748 -0.2858 -0.0200  0.3822
 1247TIP3    H1 3747   1.860   5.836   2.684 -0.8414 -2.2648 -1.0106
 1247TIP3    H2 3748   1.837   5.766   2.817 -0.4342 -1.3258 -0.4370
 1248TIP3   OH2 3749   4.354   5.965   4.731 -0.3631  0.1510  0.3886
 1248TIP3    H1 3750   4.295   5.990   4.660  1.3674  0.1428 -1.1311
 1248TIP3    H2 3751   4.313   5.888   4.770 -0.1578 -1.4659 -2.3105
 1249TIP3   OH2 3752   4.999   4.185   3.397  0.1085  0.0944  0.1007
 1249TIP3    H1 3753   4.942   4.168   3.322  0.2792 -0.5180  0.1034
 1249TIP3    H2 3754   5.009   4.280   3.398 -2.7102  0.4959  1.3893
 1250TIP3   OH2 3755   0.615   1.356   3.437  0.5449 -0.0728 -0.0342
 1250TIP3    H1 3756   0.613   1.451   3.428  1.4145 -0.1733 -1.6616
 1250TIP3    H2 3757   0.670   1.341   3.514 -0.9176  0.7432  1.2284
 1251TIP3   OH2 3758   3.124   1.240   1.944  0.1881  0.5306  0.0033
 1251TIP3    H1 3759   3.200   1.298   1.943  0.6848 -0.1044  0.1826
 1251TIP3    H2 3760   3.148   1.170   2.004 -0.4219  0.1619 -0.1703
 1252TIP3   OH2 3761   4.939   5.389   2.158 -0.7480  0.3028 -0.7933
 1252TIP3    H1 3762   5.026   5.421   2.135 -1.5965  2.2732 -1.5450
 1252TIP3    H2 3763   4.899   5.461   2.206 -1.9674 -0.5782 -0.4311
 1253TIP3   OH2 3764   5.074   4.946   4.937 -0.3418  0.3519  0.6121
 1253TIP3    H1 3765   5.155   4.895   4.943 -0.3249  0.3319  0.2443
 1253TIP3    H2 3766   5.073   4.999   5.016  0.1654  0.5486  0.4877
 1254TIP3   OH2 3767   5.123   1.918   2.306 -0.5777  0.0295 -0.4915
 1254TIP3    H1 3768   5.160   2.000   2.338  1.6033 -0.7971 -0.7493
 1254TIP3    H2 3769   5.117   1.929   2.211  1.6076 -0.7567 -0.7735
 1255TIP3   OH2 3770   3.906   2.229   0.795 -0.5004 -0.0281 -0.2922
 1255TIP3    H1 3771   3.875   2.146   0.758  1.4793 -2.1754  2.4590
 1255TIP3    H2 3772   3.867   2.231   0.883  3.2304 -0.6126  1.5544
 1256TIP3   OH2 3773   5.474   3.726   0.140 -0.0982  0.1397  0.0921
 1256TIP3    H1 3774   5.382   3.743   0.159 -0.1986  0.5525 -0.7303
 1256TIP3    H2 3775   5.509   3.811   0.113  0.8015  0.2336  1.4233
 1257TIP3   OH2 3776   3.624   4.325   2.475  0.2815  0.1860 -0.4598
 1257TIP3    H1 3777   3.679   4.369   2.410 -0.2836 -1.6778 -2.3073
 1257TIP3    H2 3778   3.670   4.243   2.494  0.4443  0.6856  1.5890
 1258TIP3   OH2 3779   5.924   3.050   2.691  0.2367 -0.6070 -0.1167
 1258TIP3    H1 3780   5.966   3.075   2.609 -1.0962  3.0205  0.1611
 1258TIP3    H2 3781   5.996   3.044   2.754  0.8595  0.4572 -0.7106
 1259TIP3   OH2 3782   4.723   1.236   3.074  0.1238 -0.2968 -0.0497
 1259TIP3    H1 3783   4.765   1.322   3.080 -0.5562 -0.0021  0.7443
 1259TIP3    H2 3784   4.787   1.175   3.109  0.8031 -0.1899 -1.0780
 1260TIP3   OH2 3785   1.285   5.907   2.932  0.0809 -0.3059 -0.0673
 1260TIP3    H1 3786   1.214   5.853   2.967  0.6985 -0.0257  1.7273
 1260TIP3    H2 3787   1.349   5.843   2.898  0.3882 -0.7097  1.2075
 1261TIP3   OH2 3788   0.638   0.648   0.978  0.0158 -0.2609  0.0369
 1261TIP3    H1 3789   0.727   0.685   0.980 -0.1736  0.1843  0.7409
 1261TIP3    H2 3790   0.619   0.630   1.070 -0.6551 -0.2758 -0.1041
 1262TIP3   OH2 3791   1.393   4.584   4.792  0.3042  0.5152  0.4455
 1262TIP3    H1 3792   1.331   4.536   4.847  0.6123 -0.2706  0.1204
 1262TIP3    H2 3793   1.479   4.553   4.821  0.5356  1.2904  0.6136
 1263TIP3   OH2 3794   4.967   4.471   3.334  0.2580  0.4457  0.0915
 1263TIP3    H1 3795   4.878   4.477   3.300 -0.3822  1.0502  1.7896
 1263TIP3    H2 3796   5.021   4.511   3.266 -0.8963  1.1076 -0.4705
 1264TIP3   OH2 3797   1.992   2.232   1.842  0.2214  0.0066  0.7793
 1264TIP3    H1 3798   2.068   2.286   1.819  0.6254 -0.3303  1.2910
 1264TIP3    H2 3799   1.941   2.287   1.901  0.5801 -0.1259  1.2193
 1265TIP3   OH2 3800   3.863   3.921   1.753 -0.2129  0.6810  0.2078
 1265TIP3    H1 3801   3.774   3.931   1.786  0.1143  0.9336  1.0399
 1265TIP3    H2 3802   3.855   3.858   1.681 -1.0081  0.4485  0.4862
 1266TIP3   OH2 3803   0.801   3.017   4.030  0.3170 -0.4210  0.6914
 1266TIP3    H1 3804   0.869   3.083   4.015 -0.1717  0.4318  2.0263
 1266TIP3    H2 3805   0.720   3.067   4.037 -0.2792 -1.3104  0.3292
 1267TIP3   OH2 3806   3.408   4.956   5.147  0.5103  0.1086  0.4808
 1267TIP3    H1 3807   3.410   4.952   5.243  0.6684  1.2227  0.5327
 1267TIP3    H2 3808   3.339   5.019   5.127  0.4154 -0.1924 -0.1432
 1268TIP3   OH2 3809   0.842   3.140   4.352  0.2706  0.1678  0.4347
 1268TIP3    H1 3810   0.751   3.113   4.365 -0.0762  1.9702  2.4946
 1268TIP3    H2 3811   0.860   3.198   4.426  3.3911 -0.7602  0.5531
 1269TIP3   OH2 3812   4.448   2.401   2.695  0.0482 -0.2483 -0.2701
 1269TIP3    H1 3813   4.516   2.361   2.641 -0.8488  0.3528 -1.9113
 1269TIP3    H2 3814   4.368   2.394   2.643 -0.4708  2.1561  0.0903
 1270TIP3   OH2 3815   0.197   3.742   4.475  0.1610  0.1590  0.8806
 1270TIP3    H1 3816   0.266   3.685   4.441 -3.0335 -3.2173 -0.6198
 1270TIP3    H2 3817   0.191   3.812   4.410  1.8732  0.3867  0.9037
 1271TIP3   OH2 3818   1.855   4.818   1.806  0.2432 -0.0943 -0.0951
 1271TIP3    H1 3819   1.767   4.849   1.787  0.6264 -0.0379 -1.9655
 1271TIP3    H2 3820   1.845   4.725   1.824 -0.2344 -0.0200  0.0246
 1272TIP3   OH2 3821   2.821   1.272   3.695 -0.3638 -0.8565  0.3338
 1272TIP3    H1 3822   2.774   1.314   3.623  0.5333  0.6731  0.5957
 1272TIP3    H2 3823   2.908   1.255   3.661  0.6935  1.5995  1.5251
 1273TIP3   OH2 3824   2.948   3.871   1.585 -0.1296  0.0913  0.4223
 1273TIP3    H1 3825   2.963   3.915   1.669  0.1847  0.2027  0.3067
 1273TIP3    H2 3826   2.857   3.892   1.564  0.4292  1.9480 -0.3558
 1274TIP3   OH2 3827   5.392   2.174   1.736  0.0398 -0.2554  0.3990
 1274TIP3    H1 3828   5.400   2.151   1.643  0.9747  0.7870  0.2032
 1274TIP3    H2 3829   5.448   2.251   1.747 -0.8031  0.2113  1.6323
 1275TIP3   OH2 3830   4.315   4.647   4.554  0.0750  0.3892 -0.1060
 1275TIP3    H1 3831   4.253   4.608   4.492 -1.6241  0.5080  1.4217
 1275TIP3    H2 3832   4.387   4.679   4.500 -0.3244 -1.3889 -1.7811
 1276TIP3   OH2 3833   5.784   1.563   2.288 -0.0093 -0.3016 -0.0766
 1276TIP3    H1 3834   5.710   1.504   2.272  0.5211 -1.2731  0.9107
 1276TIP3    H2 3835   5.782   1.624   2.215 -0.8126 -1.3150 -0.9361
 1277TIP3   OH2 3836   0.093   0.522   5.128  0.7884 -0.2206 -0.7920
 1277TIP3    H1 3837   0.158   0.451   5.129  2.1416  0.9445 -1.9459
 1277TIP3    H2 3838   0.095   0.555   5.039  1.0047  1.9751 -0.0252
 1278TIP3   OH2 3839   1.010   3.608   4.023  0.2893 -0.1275 -0.2169
 1278TIP3    H1 3840   1.097   3.571   4.034  0.3316 -0.3354 -1.1289
 1278TIP3    H2 3841   1.010   3.644   3.934  0.0606  1.5582  0.4138
 1279TIP3   OH2 3842   3.200   3.177   2.194 -0.7777  0.6435 -0.2281
 1279TIP3    H1 3843   3.181   3.270   2.210 -0.4573  0.4861  1.1330
 1279TIP3    H2 3844   3.293   3.175   2.173 -0.9501  0.7101 -1.0327
 1280TIP3   OH2 3845   4.681   5.662   0.716  0.2859  0.2708  0.0158
 1280TIP3    H1 3846   4.677   5.752   0.683  0.0458 -0.2314 -1.3571
 1280TIP3    H2 3847   4.631   5.665   0.798 -1.1191  1.0566 -0.8212
 1281TIP3   OH2 3848   4.401   1.388   1.364 -0.1769 -0.3005  0.5229
 1281TIP3    H1 3849   4.477   1.426   1.407 -0.5954  0.9876  0.1794
 1281TIP3    H2 3850   4.409   1.415   1.272 -1.9904  1.5668  0.8162
 1282TIP3   OH2 3851   1.318   2.322   2.723  0.2174 -0.3178  0.2594
 1282TIP3    H1 3852   1.307   2.412   2.754  1.0909 -0.9407  2.5537
 1282TIP3    H2 3853   1.242   2.307   2.666  0.7978  2.2927 -1.3735
 1283TIP3   OH2 3854   2.932   2.202   3.904 -0.1385  0.6856 -0.4577
 1283TIP3    H1 3855   3.022   2.196   3.937 -0.3251 -0.6143 -0.1240
 1283TIP3    H2 3856   2.921   2.123   3.852 -1.5177  0.1428  0.6064
 1284TIP3   OH2 3857   1.900   4.958   0.045 -0.2434  0.1776  0.3507
 1284TIP3    H1 3858   1.805   4.969   0.054 -0.5333 -0.5926 -1.3956
 1284TIP3    H2 3859   1.912   4.865   0.030  0.3543  0.6899 -3.2915
 1285TIP3   OH2 3860   3.923   2.930   3.588  0.4395  0.3220  0.1321
 1285TIP3    H1 3861   3.928   2.901   3.679 -3.8724 -0.9324  0.2036
 1285TIP3    H2 3862   3.920   2.849   3.537  0.9761  0.9677 -0.9555
 1286TIP3   OH2 3863   0.244   2.032   0.931  0.4078 -0.2724 -0.1952
 1286TIP3    H1 3864   0.214   1.943   0.949 -2.4140  0.7862  0.8713
 1286TIP3    H2 3865   0.241   2.076   1.016 -1.1366  1.5995 -1.1399
 1287TIP3   OH2 3866   1.384   3.658   4.063  0.0243 -0.2027 -0.5996
 1287TIP3    H1 3867   1.427   3.705   4.134  1.2540 -2.3920  0.2033
 1287TIP3    H2 3868   1.315   3.607   4.106  0.0112 -0.6517 -1.1411
 1288TIP3   OH2 3869   4.840   4.165   0.032 -0.0905  0.3003  0.5880
 1288TIP3    H1 3870   4.819   4.255   0.056  0.9182  0.7431 -0.1032
 1288TIP3    H2 3871   4.806   4.156  -0.057  1.4712  0.6447 -0.0836
 1289TIP3   OH2 3872   5.142   1.905   1.234 -0.2652  0.3183  0.0658
 1289TIP3    H1 3873   5.147   1.955   1.153 -0.7152 -2.8670 -2.0739
 1289TIP3    H2 3874   5.225   1.858   1.239 -0.4816  0.0182  1.1799
 1290TIP3   OH2 3875   4.311   3.238   3.350  0.6266  0.2701  0.5720
 1290TIP3    H1 3876   4.297   3.301   3.421 -0.2788 -0.3057  0.9105
 1290TIP3    H2 3877   4.225   3.201   3.333  1.1157 -0.7413  0.2473
 1291TIP3   OH2 3878   0.099   3.715   3.313  0.1345 -0.0911 -0.1641
 1291TIP3    H1 3879   0.167   3.733   3.378 -0.6927 -2.3503  1.4450
 1291TIP3    H2 3880   0.140   3.655   3.251 -0.0282 -0.4914  0.1146
 1292TIP3   OH2 3881   2.655   3.845   1.574 -0.4064  0.2939  0.4481
 1292TIP3    H1 3882   2.615   3.895   1.645  0.3608  1.8908 -0.1903
 1292TIP3    H2 3883   2.673   3.910   1.506  1.8737 -0.5954  0.1057
 1293TIP3   OH2 3884   0.790   1.976   1.872  0.0240 -0.0780  0.4137
 1293TIP3    H1 3885   0.769   1.952   1.963 -1.2161 -0.3108  0.0879
 1293TIP3    H2 3886   0.705   1.972   1.827  0.8063 -1.2528 -1.0473
 1294TIP3   OH2 3887   4.414   5.567   0.734 -0.6013  0.8237  0.1126
 1294TIP3    H1 3888   4.404   5.628   0.808 -1.4799  0.1464  0.5775
 1294TIP3    H2 3889   4.508   5.550   0.730 -0.6592 -0.2790  2.0526
 1295TIP3   OH2 3890   0.805   2.829   0.790 -0.2713  0.4354 -0.2748
 1295TIP3    H1 3891   0.779   2.751   0.742 -0.2418  1.4145 -1.9523
 1295TIP3    H2 3892   0.868   2.873   0.733  0.9758  0.8628  1.3650
 1296TIP3   OH2 3893   4.250   1.271   4.775 -0.1184  0.6124  0.2721
 1296TIP3    H1 3894   4.314   1.335   4.804 -0.1565  0.0606  1.6212
 1296TIP3    H2 3895   4.190   1.261   4.849  0.3572 -1.5901  0.4344
 1297TIP3   OH2 3896   5.912   4.098   1.202  0.4819 -0.1920  0.1253
 1297TIP3    H1 3897   5.847   4.027   1.195 -1.3250  1.3955  0.0767
 1297TIP3    H2 3898   5.918   4.116   1.296  1.5117 -0.8663  0.2097
 1298TIP3   OH2 3899   3.021   4.558   4.920 -0.9279  0.1187 -0.0533
 1298TIP3    H1 3900   3.011   4.590   5.009 -0.2383  1.1648 -0.3437
 1298TIP3    H2 3901   2.935   4.570   4.880 -1.0987  0.1178  0.3153
 1299TIP3   OH2 3902   1.363   3.352   0.243  0.2982 -0.6209  0.0700
 1299TIP3    H1 3903   1.381   3.373   0.151 -1.1348 -0.8212 -0.2817
 1299TIP3    H2 3904   1.377   3.258   0.249 -1.9097 -1.0564 -0.5813
 1300TIP3   OH2 3905   1.685   2.174   2.996 -0.0141  0.0027  0.1152
 1300TIP3    H1 3906   1.693   2.236   2.924 -1.1401 -0.7813 -0.7271
 1300TIP3    H2 3907   1.692   2.227   3.075  1.7008  0.8207 -0.5500
 1301TIP3   OH2 3908   2.134   4.570   4.478  0.3551 -0.0053  0.3311
 1301TIP3    H1 3909   2.124   4.552   4.385 -1.1875  0.7136  0.3231
 1301TIP3    H2 3910   2.096   4.494   4.522 -1.4570  0.8319  0.3193
 1302TIP3   OH2 3911   5.546   4.686   1.238  0.8400  0.1578  0.2641
 1302TIP3    H1 3912   5.454   4.661   1.231  0.7448  0.3759  0.7354
 1302TIP3    H2 3913   5.581   4.630   1.307  0.2332  2.3589  2.5171
 1303TIP3   OH2 3914   4.120   1.363   4.283 -0.4601  0.2322  0.0132
 1303TIP3    H1 3915   4.174   1.346   4.361  1.4176 -3.3145 -1.7899
 1303TIP3    H2 3916   4.151   1.300   4.219 -1.9843  2.8680 -3.6625
 1304TIP3   OH2 3917   4.295   3.981   4.894 -1.0564  0.8625 -0.4170
 1304TIP3    H1 3918   4.381   3.969   4.852 -1.1208 -1.1999 -0.0809
 1304TIP3    H2 3919   4.315   4.020   4.979 -0.5494  1.3014 -0.7310
 1305TIP3   OH2 3920   0.079   5.623   1.114  0.1621  0.1558  0.3182
 1305TIP3    H1 3921   0.054   5.533   1.136 -0.0919  0.0674 -0.3223
 1305TIP3    H2 3922   0.007   5.676   1.146  0.0975  0.0887  0.2838
 1306TIP3   OH2 3923   2.048   5.262   1.408  0.1279 -0.2011  0.4663
 1306TIP3    H1 3924   2.050   5.211   1.326  4.1001  1.2328 -0.5985
 1306TIP3    H2 3925   2.066   5.197   1.476  0.2061 -0.9601 -0.2507
 1307TIP3   OH2 3926   1.324   5.597   4.091 -0.0470 -0.0222  0.2944
 1307TIP3    H1 3927   1.281   5.678   4.118 -1.1584 -0.6549  0.4873
 1307TIP3    H2 3928   1.377   5.571   4.167 -0.7593 -0.1817  0.7454
 1308TIP3   OH2 3929   1.703   3.789   3.873 -0.6511  0.2286 -0.6177
 1308TIP3    H1 3930   1.647   3.718   3.843 -0.9805  0.5784 -0.8545
 1308TIP3    H2 3931   1.781   3.783   3.818  0.0510 -0.9520  0.4746
 1309TIP3   OH2 3932   5.767   2.619   4.266 -0.3135  0.3506 -0.0322
 1309TIP3    H1 3933   5.830   2.656   4.204  0.3503 -0.0763  0.3758
 1309TIP3    H2 3934   5.776   2.672   4.345 -1.0433  0.7921 -0.2330
 1310TIP3   OH2 3935   6.003   1.547   4.522  0.0424 -0.1473  0.0310
 1310TIP3    H1 3936   6.062   1.508   4.456 -0.7631  1.0862 -1.4844
 1310TIP3    H2 3937   5.949   1.473   4.551  0.7026 -0.8091 -0.3679
 1311TIP3   OH2 3938   0.372   4.892   0.399 -0.4883 -0.1430 -0.1478
 1311TIP3    H1 3939   0.462   4.922   0.387 -0.4909 -0.5151 -1.2363
 1311TIP3    H2 3940   0.356   4.899   0.493  1.0943 -1.2597  0.2343
 1312TIP3   OH2 3941   0.145   0.816   3.919 -0.0353 -0.1317 -0.0602
 1312TIP3    H1 3942   0.152   0.751   3.848 -0.6791 -0.7289  0.4195
 1312TIP3    H2 3943   0.236   0.828   3.948  0.3285  0.6483 -1.4458
 1313TIP3   OH2 3944   3.086   5.824   1.648 -0.2624 -0.7031 -0.2367
 1313TIP3    H1 3945   3.077   5.734   1.617 -1.2574 -0.2255 -1.4258
 1313TIP3    H2 3946   2.996   5.855   1.660  0.0752 -0.1579  1.0982
 1314TIP3   OH2 3947   0.739   1.012   0.311 -0.3639  0.1269  0.5776
 1314TIP3    H1 3948   0.713   1.093   0.268  0.8278  0.2305 -0.0049
 1314TIP3    H2 3949   0.822   0.988   0.268 -0.4458 -1.1285  1.0769
 1315TIP3   OH2 3950   4.189   0.246   4.903 -1.1222  0.2528  0.4232
 1315TIP3    H1 3951   4.211   0.306   4.974  0.1304  1.1810 -0.6804
 1315TIP3    H2 3952   4.126   0.295   4.849 -0.0143  0.6782 -0.5397
 1316TIP3   OH2 3953   2.260   5.064   5.140  0.3571 -0.0741  0.2499
 1316TIP3    H1 3954   2.247   5.054   5.045  0.4694 -0.7593  0.3004
 1316TIP3    H2 3955   2.355   5.069   5.151  0.4570 -1.7311  0.4619
 1317TIP3   OH2 3956   2.272   0.902   4.611 -0.4504 -0.6134 -0.1961
 1317TIP3    H1 3957   2.255   0.808   4.617  0.0293 -0.7186 -0.4882
 1317TIP3    H2 3958   2.230   0.929   4.530  1.3560 -1.0151 -1.3161
 1318TIP3   OH2 3959   0.374   0.471   4.196 -0.3184 -0.3527  0.6333
 1318TIP3    H1 3960   0.416   0.498   4.114 -2.2043 -1.8386 -0.9284
 1318TIP3    H2 3961   0.308   0.539   4.211  1.7314  1.3884  2.4954
 1319TIP3   OH2 3962   4.555   0.559   3.963 -0.1893 -0.1044 -0.3000
 1319TIP3    H1 3963   4.466   0.578   3.992  0.0206  0.8311 -0.2358
 1319TIP3    H2 3964   4.571   0.469   3.993 -0.8806 -0.0604  0.2398
 1320TIP3   OH2 3965   5.309   4.819   5.041 -0.1224 -0.3360 -0.5603
 1320TIP3    H1 3966   5.387   4.865   5.012  0.3037 -0.8560 -0.2690
 1320TIP3    H2 3967   5.323   4.804   5.135 -0.2831 -0.9773 -0.6319
 1321TIP3   OH2 3968   1.089   3.982   0.135  0.6131  0.0088 -0.4100
 1321TIP3    H1 3969   1.109   4.026   0.218 -0.5835  0.5080 -0.3751
 1321TIP3    H2 3970   1.085   3.889   0.158  2.0372 -0.0544 -0.2742
 1322TIP3   OH2 3971   5.318   3.228   0.441 -0.0456 -0.1996 -0.6297
 1322TIP3    H1 3972   5.404   3.270   0.429 -0.6383  1.3036  0.1805
 1322TIP3    H2 3973   5.338   3.135   0.442  1.4692  0.0689 -1.3873
 1323TIP3   OH2 3974   4.861   2.321   1.300 -0.0868  0.0580 -0.0692
 1323TIP3    H1 3975   4.912   2.249   1.337 -1.2876 -0.5152  0.5369
 1323TIP3    H2 3976   4.771   2.302   1.325 -0.8216  0.2777 -2.3248
 1324TIP3   OH2 3977   1.041   5.189   4.142 -0.5222 -0.3660 -0.1660
 1324TIP3    H1 3978   0.959   5.163   4.100 -1.2098  0.0058  0.8865
 1324TIP3    H2 3979   1.034   5.284   4.151  0.2284 -0.2774 -0.4602
 1325TIP3   OH2 3980   0.288   3.799   1.400 -0.2043 -0.1795 -0.7473
 1325TIP3    H1 3981   0.362   3.855   1.424 -0.4955 -0.8455  2.2207
 1325TIP3    H2 3982   0.230   3.854   1.348  0.3310  1.7571  0.6229
 1326TIP3   OH2 3983   4.886   5.440   3.199 -0.2179  0.2091 -0.2690
 1326TIP3    H1 3984   4.891   5.532   3.226  0.4719  0.5424 -1.4636
 1326TIP3    H2 3985   4.924   5.438   3.111  1.6604 -1.5324  0.4901
 1327TIP3   OH2 3986   1.459   0.003   2.929  0.1132 -0.4122 -0.2075
 1327TIP3    H1 3987   1.480   0.013   3.022  0.8148 -0.2247 -0.3807
 1327TIP3    H2 3988   1.534   0.041   2.883 -0.3449 -0.2730 -0.8512
 1328TIP3   OH2 3989   2.146   4.870   1.325  0.0336 -0.0241 -0.1125
 1328TIP3    H1 3990   2.234   4.832   1.330 -0.2049 -0.7119 -1.0349
 1328TIP3    H2 3991   2.110   4.858   1.413  0.5622 -0.4668  0.0498
 1329TIP3   OH2 3992   4.424   4.733   0.902 -0.7165 -0.7277  0.0157
 1329TIP3    H1 3993   4.403   4.648   0.862 -2.2999 -0.8685  1.0728
 1329TIP3    H2 3994   4.342   4.781   0.901  0.0941  0.6970 -0.2722
 1330TIP3   OH2 3995   1.158   4.510   1.624  0.6371  0.3880  0.6557
 1330TIP3    H1 3996   1.239   4.488   1.578 -0.6133  0.8052 -1.9855
 1330TIP3    H2 3997   1.140   4.601   1.599 -1.2254 -0.0664  0.1660
 1331TIP3   OH2 3998   1.100   2.669   1.973 -0.2463 -0.1389 -0.8331
 1331TIP3    H1 3999   1.113   2.736   2.040 -1.1359  1.2750 -1.9869
 1331TIP3    H2 4000   1.085   2.720   1.893 -1.7950 -1.7292 -1.5990
 1332TIP3   OH2 4001   4.437   2.032   0.968 -0.1141  0.0722  0.2064
 1332TIP3    H1 4002   4.444   2.059   1.060 -0.7330 -0.0355  0.2832
 1332TIP3    H2 4003   4.358   1.979   0.963  0.8860 -1.4656 -0.0236
 1333TIP3   OH2 4004   0.941   1.479   4.429  0.2927 -0.8045 -0.3944
 1333TIP3    H1 4005   0.955   1.386   4.411  1.4484 -0.9642  1.0977
 1333TIP3    H2 4006   0.927   1.484   4.524  0.9021  0.5986 -0.3443
 1334TIP3   OH2 4007   4.367   2.701   3.115 -0.3290  0.0180  0.2975
 1334TIP3    H1 4008   4.436   2.684   3.051 -0.5227  0.6191 -0.0744
 1334TIP3    H2 4009   4.414   2.721   3.196 -0.0833 -1.7948  0.6558
 1335TIP3   OH2 4010   1.374   5.790   2.116 -0.2829 -0.0633  0.1128
 1335TIP3    H1 4011   1.405   5.881   2.121  0.3586 -0.1517 -1.5646
 1335TIP3    H2 4012   1.306   5.784   2.183 -0.0649  1.5420  0.5212
 1336TIP3   OH2 4013   5.563   3.747   5.158 -0.4538  0.3378  0.4064
 1336TIP3    H1 4014   5.599   3.836   5.159  1.5566 -0.4282 -0.1592
 1336TIP3    H2 4015   5.476   3.757   5.120 -0.7429  2.2044  1.4117
 1337TIP3   OH2 4016   5.062   4.961   2.419 -0.5116  0.0537 -0.2119
 1337TIP3    H1 4017   4.999   4.984   2.487 -0.4774 -2.5694  0.8355
 1337TIP3    H2 4018   5.014   4.905   2.359  0.7718 -2.2666  0.7794
 1338TIP3   OH2 4019   0.657   2.151   2.373  0.3346  0.0976  0.6715
 1338TIP3    H1 4020   0.612   2.213   2.314  0.9873  0.7559  0.8445
 1338TIP3    H2 4021   0.612   2.160   2.456  1.4168  1.5615  1.1508
 1339TIP3   OH2 4022   5.987   5.609   4.279 -0.3099  0.6362  0.1959
 1339TIP3    H1 4023   6.060   5.668   4.301  0.1351  0.4870 -0.8041
 1339TIP3    H2 4024   5.909   5.655   4.310  0.2254  0.5996  1.6893
 1340TIP3   OH2 4025   5.304   5.231   2.542  0.0820  0.0270  1.1091
 1340TIP3    H1 4026   5.216   5.213   2.508 -0.6549  1.0892  2.3746
 1340TIP3    H2 4027   5.302   5.198   2.632  0.6855  0.8783  1.4413
 1341TIP3   OH2 4028   4.156   3.244   4.312  0.4035 -0.4773  0.2903
 1341TIP3    H1 4029   4.115   3.160   4.292 -0.3133 -0.0429 -0.1164
 1341TIP3    H2 4030   4.121   3.269   4.398 -1.6075  0.7105 -0.7939
 1342TIP3   OH2 4031   1.139   1.837   0.198  0.8165 -0.5068  0.0155
 1342TIP3    H1 4032   1.204   1.867   0.262  1.6645  1.1265 -1.5025
 1342TIP3    H2 4033   1.055   1.844   0.243  1.1271  2.8372  0.3220
 1343TIP3   OH2 4034   2.135   0.648   4.416  0.2921  0.2960 -0.2669
 1343TIP3    H1 4035   2.177   0.593   4.350  0.9063  0.1719  0.2221
 1343TIP3    H2 4036   2.166   0.613   4.499 -1.1777 -0.1291  0.1406
 1344TIP3   OH2 4037   3.434   3.118   3.594  0.3083 -0.2988  0.5321
 1344TIP3    H1 4038   3.339   3.117   3.589  0.3539 -0.0598 -2.7702
 1344TIP3    H2 4039   3.460   3.204   3.560  1.6985 -0.9304 -0.1165
 1345TIP3   OH2 4040   2.075   0.882   1.274 -0.0391 -0.2080 -0.2494
 1345TIP3    H1 4041   2.071   0.966   1.320  3.0553 -0.4391  0.6544
 1345TIP3    H2 4042   2.130   0.827   1.330  0.0435 -2.0378 -2.0243
 1346TIP3   OH2 4043   5.047   2.540   4.353 -0.5611  0.1553  0.6133
 1346TIP3    H1 4044   5.086   2.571   4.271 -0.6674 -0.3481  0.3711
 1346TIP3    H2 4045   5.073   2.605   4.418  1.7675 -0.7860  0.7235
 1347TIP3   OH2 4046   5.827   5.601   2.148 -0.2058  0.1178  0.5112
 1347TIP3    H1 4047   5.757   5.656   2.113  1.5082  0.7791 -2.1201
 1347TIP3    H2 4048   5.785   5.517   2.167 -2.2507  1.3354  1.7788
 1348TIP3   OH2 4049   3.761   5.563   2.298 -0.0072 -0.0323 -0.1622
 1348TIP3    H1 4050   3.683   5.612   2.322  0.7825  0.7875  0.8390
 1348TIP3    H2 4051   3.761   5.487   2.356  0.4232  0.4641  0.4963
 1349TIP3   OH2 4052   4.804   3.736   2.252 -0.5083  0.0510 -0.5445
 1349TIP3    H1 4053   4.800   3.671   2.182 -1.3567  0.1828 -0.6283
 1349TIP3    H2 4054   4.849   3.692   2.323  1.0570  0.1580 -1.4188
 1350TIP3   OH2 4055   4.853   0.566   2.197  0.0692 -0.0521  0.7269
 1350TIP3    H1 4056   4.934   0.516   2.190  0.7823  1.2734 -2.0497
 1350TIP3    H2 4057   4.792   0.507   2.240  1.5589 -2.3556 -0.1199
 1351TIP3   OH2 4058   3.350   1.332   2.116  0.2687 -0.2683 -0.0152
 1351TIP3    H1 4059   3.440   1.318   2.088 -0.0089 -0.1551 -0.9943
 1351TIP3    H2 4060   3.331   1.258   2.174  1.3662  0.3457  1.1830
 1352TIP3   OH2 4061   5.370   0.432   4.891  0.4085 -0.0106  0.0539
 1352TIP3    H1 4062   5.452   0.449   4.844  0.9334 -0.1107  0.9094
 1352TIP3    H2 4063   5.388   0.352   4.941 -0.1939  0.0037  0.2933
 1353TIP3   OH2 4064   1.517   3.148   1.763  0.5736  0.0003 -0.3126
 1353TIP3    H1 4065   1.579   3.082   1.794  2.2395  0.9804 -1.3605
 1353TIP3    H2 4066   1.451   3.099   1.716  1.7024 -0.9486 -0.9657
 1354TIP3   OH2 4067   1.798   1.203   5.007 -0.2124  0.2320  0.0776
 1354TIP3    H1 4068   1.862   1.217   4.937 -0.0003  0.9256  0.4034
 1354TIP3    H2 4069   1.848   1.158   5.076  0.1215  1.4234  0.6276
 1355TIP3   OH2 4070   0.997   1.402   1.309 -0.5103  0.0959  0.0658
 1355TIP3    H1 4071   1.075   1.456   1.311  2.7614 -4.0676  0.7018
 1355TIP3    H2 4072   0.981   1.379   1.401 -2.3363  0.5786 -0.0877
 1356TIP3   OH2 4073   1.533   5.780   4.704 -0.6761 -0.1635 -0.1121
 1356TIP3    H1 4074   1.488   5.788   4.788 -1.8819 -0.7848 -0.6626
 1356TIP3    H2 4075   1.464   5.793   4.639  0.0808 -0.4590 -0.9965
 1357TIP3   OH2 4076   6.225   4.454   0.741  0.1623  0.0587  0.3639
 1357TIP3    H1 4077   6.202   4.407   0.821  0.8855  0.0505  0.5710
 1357TIP3    H2 4078   6.249   4.542   0.770  1.4737 -0.2506  0.2995
 1358TIP3   OH2 4079   1.643   2.927   2.630  0.2441  0.1831  0.0592
 1358TIP3    H1 4080   1.701   2.913   2.555  0.4913 -0.3293  0.3400
 1358TIP3    H2 4081   1.563   2.879   2.607  0.8803 -1.2936  0.7702
 1359TIP3   OH2 4082   0.942   3.138   2.226  0.2228  0.1954  0.2247
 1359TIP3    H1 4083   0.920   3.207   2.164 -0.6403  0.4855  0.8256
 1359TIP3    H2 4084   0.858   3.096   2.245  0.6897 -0.8118  0.1131
 1360TIP3   OH2 4085   3.084   4.251   1.889  0.3880  0.0644 -0.5309
 1360TIP3    H1 4086   3.143   4.218   1.956 -0.7835 -1.5380 -0.1962
 1360TIP3    H2 4087   3.013   4.293   1.937 -0.5192 -1.1960 -0.7124
 1361TIP3   OH2 4088   1.020   2.208   3.448 -0.4266 -0.0782 -0.4998
 1361TIP3    H1 4089   1.109   2.216   3.414 -0.3831  0.5063 -0.2629
 1361TIP3    H2 4090   0.964   2.225   3.372 -0.3403 -0.6459 -0.6933
 1362TIP3   OH2 4091   6.185   0.308   0.115  0.5440  0.2545 -0.0540
 1362TIP3    H1 4092   6.169   0.401   0.133  0.0710  0.5722 -1.8632
 1362TIP3    H2 4093   6.144   0.262   0.187  1.4908  1.4576  1.3196
 1363TIP3   OH2 4094   5.152   1.756   2.770 -0.0949  0.2279  0.4728
 1363TIP3    H1 4095   5.136   1.688   2.704  0.3140 -0.0431  0.6544
 1363TIP3    H2 4096   5.211   1.715   2.833 -0.1080  0.6451  0.7573
 1364TIP3   OH2 4097   0.846   1.903   0.756  0.4438  0.3687 -0.3666
 1364TIP3    H1 4098   0.896   1.837   0.805  0.2214  0.2571 -0.2901
 1364TIP3    H2 4099   0.790   1.944   0.821 -1.6387 -1.4334 -0.8995
 1365TIP3   OH2 4100   3.711   3.429   0.732 -0.6205 -0.1727  0.3285
 1365TIP3    H1 4101   3.710   3.496   0.664 -3.1964  0.8265  1.1974
 1365TIP3    H2 4102   3.643   3.366   0.705 -0.2401 -0.8662  0.9487
 1366TIP3   OH2 4103   2.772   3.547   0.830 -0.4192 -0.1780 -0.3757
 1366TIP3    H1 4104   2.774   3.575   0.921  0.7729  0.5906 -0.6165
 1366TIP3    H2 4105   2.691   3.584   0.795 -1.8967 -2.0471  0.7963
 1367TIP3   OH2 4106   5.152   4.868   3.062  0.1586 -0.7861 -0.2490
 1367TIP3    H1 4107   5.140   4.955   3.024 -0.3736 -0.9543 -0.4800
 1367TIP3    H2 4108   5.131   4.807   2.991  4.1369 -1.1852 -1.3287
 1368TIP3   OH2 4109   6.098   2.113   0.842  0.0921  0.5026 -0.1774
 1368TIP3    H1 4110   6.055   2.179   0.896  0.2310  0.0180  0.5382
 1368TIP3    H2 4111   6.191   2.135   0.846  0.1180  0.3821 -0.1033
 1369TIP3   OH2 4112   1.646   1.464   4.755  0.2111  0.2876 -0.1885
 1369TIP3    H1 4113   1.577   1.511   4.801  0.2555 -0.2561  0.4536
 1369TIP3    H2 4114   1.727   1.507   4.782  0.1669  0.5936 -0.5347
 1370TIP3   OH2 4115   6.218   2.442   0.187  0.0616  0.0486  0.0353
 1370TIP3    H1 4116   6.130   2.443   0.148  0.1861 -0.1922 -0.2506
 1370TIP3    H2 4117   6.267   2.507   0.136  0.4083 -0.7340 -0.6412
 1371TIP3   OH2 4118   2.078   1.267   0.286  0.2876 -0.1006  0.4645
 1371TIP3    H1 4119   2.037   1.187   0.318 -2.3925  0.5871 -0.9995
 1371TIP3    H2 4120   2.049   1.275   0.196  0.3315  2.6265  0.6143
 1372TIP3   OH2 4121   2.832   5.311   1.952  0.5627  0.5519 -0.4895
 1372TIP3    H1 4122   2.798   5.390   1.994  1.2649  0.0293  1.1384
 1372TIP3    H2 4123   2.925   5.329   1.937  0.9745 -0.3363  0.8777
 1373TIP3   OH2 4124   4.759   0.326   3.276  0.1130  0.7131  0.1774
 1373TIP3    H1 4125   4.744   0.311   3.369  2.7361  0.8563  0.7041
 1373TIP3    H2 4126   4.759   0.422   3.267  0.2945  0.7112  0.1402
 1374TIP3   OH2 4127   6.096   5.223   1.644  0.4518  0.4570 -0.2698
 1374TIP3    H1 4128   6.010   5.203   1.683  0.8456  0.4491  0.6161
 1374TIP3    H2 4129   6.075   5.266   1.561 -0.4104  0.4448 -0.0709
 1375TIP3   OH2 4130   1.101   2.933   4.657  0.1598 -0.2343  0.0019
 1375TIP3    H1 4131   1.145   2.981   4.586  1.6519 -0.0004  1.0514
 1375TIP3    H2 4132   1.124   2.841   4.641  0.2469 -0.2137  0.0061
 1376TIP3   OH2 4133   5.315   5.517   2.044 -0.3104  0.2243  0.3247
 1376TIP3    H1 4134   5.301   5.522   1.950 -1.4620 -2.5170  0.2531
 1376TIP3    H2 4135   5.370   5.440   2.057  0.9795  1.3281  1.8478
 1377TIP3   OH2 4136   6.227   3.430   2.061  0.4386 -0.5381 -0.1063
 1377TIP3    H1 4137   6.299   3.381   2.100  1.1456 -0.6029 -1.4495
 1377TIP3    H2 4138   6.171   3.363   2.021 -0.2841 -0.4714  0.7417
 1378TIP3   OH2 4139   3.942   3.591   4.041 -0.1763  0.0261 -0.0385
 1378TIP3    H1 4140   3.848   3.599   4.026 -0.5906  0.4869  2.4664
 1378TIP3    H2 4141   3.963   3.659   4.105  1.5992 -0.9653  0.5152
 1379TIP3   OH2 4142   3.582   4.955   3.081  0.7617  0.2549 -0.2950
 1379TIP3    H1 4143   3.527   4.880   3.103 -0.0483  0.5791 -1.1406
 1379TIP3    H2 4144   3.522   5.030   3.084  0.9586  0.5095 -1.9714
 1380TIP3   OH2 4145   5.378   2.972   3.763 -0.4293 -0.3756 -0.2515
 1380TIP3    H1 4146   5.452   2.953   3.705  0.8240 -0.8156  1.4040
 1380TIP3    H2 4147   5.311   2.909   3.738  0.6415 -1.5555 -0.2662
 1381TIP3   OH2 4148   0.984   1.414   0.076  0.4946  0.2532  0.4029
 1381TIP3    H1 4149   1.047   1.409   0.148 -0.3810  1.2345  1.2716
 1381TIP3    H2 4150   0.987   1.505   0.047  0.0406  0.1253 -0.0607
 1382TIP3   OH2 4151   1.500   4.542   0.576  0.1704  0.0467  0.2419
 1382TIP3    H1 4152   1.433   4.609   0.594 -0.1077 -0.5062  1.3269
 1382TIP3    H2 4153   1.478   4.509   0.489  0.6985  1.8093 -0.5993
 1383TIP3   OH2 4154   5.642   1.570   0.190 -0.1725 -0.2637 -0.1906
 1383TIP3    H1 4155   5.588   1.557   0.269 -1.4222 -2.9540 -1.3415
 1383TIP3    H2 4156   5.732   1.565   0.222 -0.6266 -2.9872  0.9724
 1384TIP3   OH2 4157   4.519   3.096   3.875  0.0157  0.5435 -0.1121
 1384TIP3    H1 4158   4.483   3.072   3.960 -0.2655 -0.6771 -0.5531
 1384TIP3    H2 4159   4.446   3.136   3.828 -0.1575  0.1453 -0.1891
 1385TIP3   OH2 4160   2.183   4.513   1.843  0.4647 -0.0220  0.2214
 1385TIP3    H1 4161   2.106   4.507   1.899  1.4947  0.5879  1.7956
 1385TIP3    H2 4162   2.257   4.507   1.904  1.6479  0.2355 -1.1344
 1386TIP3   OH2 4163   4.146   3.091   1.760 -0.2563  0.0612  0.3434
 1386TIP3    H1 4164   4.209   3.136   1.816  0.1013 -1.0670  0.8601
 1386TIP3    H2 4165   4.191   3.013   1.729 -0.6315  0.3964 -1.1153
 1387TIP3   OH2 4166   3.975   0.157   0.134 -0.4164 -0.0348 -0.7402
 1387TIP3    H1 4167   3.991   0.189   0.045 -0.2954  0.6033 -0.4907
 1387TIP3    H2 4168   3.973   0.236   0.188 -2.8798 -0.1646 -0.5149
 1388TIP3   OH2 4169   3.217   0.352   4.138 -0.0994 -0.1413 -0.0798
 1388TIP3    H1 4170   3.205   0.444   4.113  1.6745  0.2645  0.3710
 1388TIP3    H2 4171   3.230   0.355   4.233 -2.2967 -1.1469  0.2991
 1389TIP3   OH2 4172   2.040   2.004   0.408  0.0728  0.3825  0.7510
 1389TIP3    H1 4173   2.006   1.921   0.376 -0.8858  1.4121 -1.0264
 1389TIP3    H2 4174   2.050   2.058   0.330 -0.8823  2.4883  2.0028
 1390TIP3   OH2 4175   4.250   5.410   1.293  0.7114 -0.4404 -0.0510
 1390TIP3    H1 4176   4.268   5.362   1.375  1.0762 -0.2597 -0.0246
 1390TIP3    H2 4177   4.182   5.473   1.317  2.0372  0.8258  0.5705
 1391TIP3   OH2 4178   4.280   1.718   2.364  0.3773  0.5348 -0.0361
 1391TIP3    H1 4179   4.335   1.768   2.304 -0.5981  0.7329 -0.7934
 1391TIP3    H2 4180   4.266   1.777   2.439 -1.2329  1.6828 -1.1689
 1392TIP3   OH2 4181   2.983   4.306   2.662  0.3257  0.4774 -0.0776
 1392TIP3    H1 4182   3.030   4.246   2.605 -0.2429 -0.2315  0.1815
 1392TIP3    H2 4183   3.050   4.345   2.717  0.6953  0.0489 -0.2207
 1393TIP3   OH2 4184   5.666   4.703   0.722 -0.8769 -0.1917 -0.1540
 1393TIP3    H1 4185   5.702   4.781   0.680  1.7179 -1.0719  0.2617
 1393TIP3    H2 4186   5.658   4.727   0.815  0.1911 -0.4797  0.0227
 1394TIP3   OH2 4187   6.299   3.458   3.056  0.1945 -0.0831 -0.0127
 1394TIP3    H1 4188   6.379   3.464   3.004  0.0552 -1.4368 -0.4219
 1394TIP3    H2 4189   6.330   3.436   3.144  0.3447  0.8195  0.1701
 1395TIP3   OH2 4190   2.464   1.227   0.493 -0.0928  0.4346 -0.1347
 1395TIP3    H1 4191   2.550   1.231   0.535 -0.2555  0.0198  0.2527
 1395TIP3    H2 4192   2.451   1.134   0.474  0.9208  0.8122 -3.1097
 1396TIP3   OH2 4193   5.048   4.828   4.461 -0.0404 -0.1338 -0.2291
 1396TIP3    H1 4194   5.064   4.756   4.400  0.5545 -0.9485  0.8509
 1396TIP3    H2 4195   4.954   4.824   4.479  0.2845 -1.9707  1.3686
 1397TIP3   OH2 4196   2.069   4.288   1.498 -0.1123 -0.4345 -0.0738
 1397TIP3    H1 4197   2.107   4.298   1.585 -0.6905  0.8220  0.0611
 1397TIP3    H2 4198   2.025   4.202   1.501  1.5378 -1.3008  0.1858
 1398TIP3   OH2 4199   3.455   3.983   0.122  0.1073  0.1503 -0.1462
 1398TIP3    H1 4200   3.453   3.930   0.202 -0.7777 -0.0731 -0.3154
 1398TIP3    H2 4201   3.532   3.951   0.074  0.0273 -0.4410  0.1169
 1399TIP3   OH2 4202   4.086   4.663   2.253  0.7820  0.4633  0.1379
 1399TIP3    H1 4203   4.052   4.618   2.330  0.9967 -2.0161 -1.1122
 1399TIP3    H2 4204   4.173   4.693   2.279  1.2997 -1.3162  0.5651
 1400TIP3   OH2 4205   4.612   3.000   2.016 -0.0225  0.6281  0.3539
 1400TIP3    H1 4206   4.622   2.915   2.061  0.2546  0.0381 -0.7811
 1400TIP3    H2 4207   4.600   3.063   2.087  1.2818 -0.1480  1.3201
 1401TIP3   OH2 4208   2.729   2.794   1.850 -0.1144 -0.5236  0.2644
 1401TIP3    H1 4209   2.727   2.858   1.779 -0.7551 -0.7335  0.0860
 1401TIP3    H2 4210   2.822   2.773   1.861 -0.1448 -2.2556 -2.1192
 1402TIP3   OH2 4211   4.251   1.323   2.991 -0.0981  0.5720  0.0014
 1402TIP3    H1 4212   4.182   1.296   3.050 -0.1710  0.4913 -0.1211
 1402TIP3    H2 4213   4.294   1.242   2.964 -1.5283  0.3659 -1.8781
 1403TIP3   OH2 4214   2.384   1.625   0.434 -0.0524 -0.1593  0.3155
 1403TIP3    H1 4215   2.457   1.617   0.495  0.5641  0.1763 -0.3702
 1403TIP3    H2 4216   2.367   1.535   0.404  1.8647  0.0403 -1.5699
 1404TIP3   OH2 4217   0.481   1.487   4.435 -0.0406  0.1506 -0.1135
 1404TIP3    H1 4218   0.518   1.444   4.358  0.8766 -0.3899  0.6045
 1404TIP3    H2 4219   0.556   1.530   4.476 -0.2968 -0.5159  1.0894
 1405TIP3   OH2 4220   2.601   0.096   2.834 -0.3842  1.0645  0.4997
 1405TIP3    H1 4221   2.690   0.127   2.852  0.3274 -0.5326 -0.0336
 1405TIP3    H2 4222   2.560   0.168   2.785  0.6581  1.7827  0.6487
 1406TIP3   OH2 4223   3.351   0.962   5.183  0.0854  0.1376  0.5549
 1406TIP3    H1 4224   3.408   1.039   5.188  1.0938 -0.6213  1.1293
 1406TIP3    H2 4225   3.303   0.972   5.101  1.5825  0.4494 -0.3108
 1407TIP3   OH2 4226   2.007   5.654   0.581  0.2577  0.3974 -0.6513
 1407TIP3    H1 4227   2.090   5.630   0.540  1.3855  2.1333  0.5233
 1407TIP3    H2 4228   1.982   5.736   0.539 -1.6527 -0.7822 -1.9975
 1408TIP3   OH2 4229   1.468   3.447   2.059 -0.1387  0.2344 -0.2203
 1408TIP3    H1 4230   1.409   3.499   2.114 -0.0159  0.6584 -0.4852
 1408TIP3    H2 4231   1.417   3.370   2.036 -0.0954 -0.0840  0.7182
 1409TIP3   OH2 4232   2.888   4.782   3.456  0.3342  1.5388  0.3588
 1409TIP3    H1 4233   2.900   4.771   3.551  1.4269 -0.7294  0.0041
 1409TIP3    H2 4234   2.964   4.739   3.417 -1.0599  0.7467 -1.6097
 1410TIP3   OH2 4235   3.865   3.863   1.356 -0.0136 -0.1701 -0.1757
 1410TIP3    H1 4236   3.904   3.796   1.301 -2.1259 -0.7432 -1.0631
 1410TIP3    H2 4237   3.771   3.844   1.356 -0.7724  2.9536 -0.7163
 1411TIP3   OH2 4238   0.442   2.601   0.015 -0.3080 -0.0024  0.7579
 1411TIP3    H1 4239   0.368   2.636  -0.035 -1.0415 -1.6728  0.6189
 1411TIP3    H2 4240   0.423   2.624   0.106 -0.2385  0.8390  0.5723
 1412TIP3   OH2 4241   2.423   1.329   4.095  0.2068 -0.6476 -0.0704
 1412TIP3    H1 4242   2.469   1.405   4.131  0.9678 -0.6808 -0.9492
 1412TIP3    H2 4243   2.369   1.298   4.168  1.3152 -0.4171  0.8869
 1413TIP3   OH2 4244   4.451   1.513   4.001 -0.3914  0.2632  0.2178
 1413TIP3    H1 4245   4.370   1.560   4.025 -1.2551 -0.4974 -1.0686
 1413TIP3    H2 4246   4.506   1.580   3.960 -0.4579  0.7405  0.8940
 1414TIP3   OH2 4247   1.987   0.540   2.377 -0.1969  0.3286  0.1607
 1414TIP3    H1 4248   2.071   0.583   2.388 -0.7463  0.9586  2.8606
 1414TIP3    H2 4249   1.930   0.584   2.440 -1.6799 -2.1510  0.6925
 1415TIP3   OH2 4250   1.757   1.293   4.563  0.3043  0.2744 -0.3168
 1415TIP3    H1 4251   1.721   1.350   4.631  0.5588  1.3097 -1.0206
 1415TIP3    H2 4252   1.737   1.339   4.481 -0.9523 -1.4760 -1.0411
 1416TIP3   OH2 4253   0.183   4.162   1.696  0.3716  0.3380  0.0867
 1416TIP3    H1 4254   0.207   4.173   1.604 -2.8242 -0.9579 -1.0409
 1416TIP3    H2 4255   0.090   4.139   1.694 -0.2422  1.7676  3.7599
 1417TIP3   OH2 4256   4.699   1.957   1.561 -0.4392  0.4292  0.3881
 1417TIP3    H1 4257   4.657   1.874   1.539 -0.1340  0.3626  0.0454
 1417TIP3    H2 4258   4.793   1.941   1.546 -0.5372  1.4254 -1.6474
 1418TIP3   OH2 4259   3.431   3.651   0.101  0.0524  0.0733 -0.1600
 1418TIP3    H1 4260   3.475   3.717   0.154 -0.2984 -0.4712  0.8259
 1418TIP3    H2 4261   3.354   3.626   0.152 -0.2064 -0.5898 -0.8484
 1419TIP3   OH2 4262   3.009   3.199   3.292 -0.5918 -0.2091  0.7013
 1419TIP3    H1 4263   3.090   3.249   3.296 -1.4983  1.2828  1.8069
 1419TIP3    H2 4264   2.959   3.241   3.221 -0.7969 -0.4573  0.6981
 1420TIP3   OH2 4265   5.506   2.304   1.302  0.5797 -0.0176 -0.3125
 1420TIP3    H1 4266   5.461   2.348   1.230  0.8382 -1.1323 -1.1881
 1420TIP3    H2 4267   5.517   2.372   1.369  0.5364  1.1036 -1.4093
 1421TIP3   OH2 4268   1.974   2.244   3.146  0.2373 -0.0392 -0.1570
 1421TIP3    H1 4269   1.886   2.243   3.182  0.7262 -0.7256  1.0537
 1421TIP3    H2 4270   1.961   2.248   3.051 -1.0904 -0.3377 -0.0017
 1422TIP3   OH2 4271   1.603   2.614   3.912  0.3155  0.3734 -0.5180
 1422TIP3    H1 4272   1.669   2.546   3.926  0.6033  0.9031  0.8135
 1422TIP3    H2 4273   1.624   2.650   3.825 -0.1469 -1.5386 -1.4603
 1423TIP3   OH2 4274   0.696   1.172   4.541  0.6141 -0.3643  0.1677
 1423TIP3    H1 4275   0.627   1.165   4.607  0.7150  0.1117  0.3233
 1423TIP3    H2 4276   0.736   1.257   4.557  0.8692 -0.3987 -0.2857
 1424TIP3   OH2 4277   2.046   5.694   1.083  0.1429 -0.3122  0.2294
 1424TIP3    H1 4278   1.963   5.705   1.035  1.6024 -1.2194 -2.7586
 1424TIP3    H2 4279   2.026   5.629   1.150 -1.9899  0.9107  0.9074
 1425TIP3   OH2 4280   2.942   5.001   4.154  0.3051 -0.9228  0.4598
 1425TIP3    H1 4281   2.969   5.036   4.069  0.7339 -1.9535  0.1574
 1425TIP3    H2 4282   2.979   4.913   4.157  1.5007 -0.4026  2.3247
 1426TIP3   OH2 4283   6.387   3.723   0.800  0.0482  0.1325  0.5872
 1426TIP3    H1 4284   6.345   3.659   0.743  0.9582 -0.1541  0.2287
 1426TIP3    H2 4285   6.329   3.728   0.876 -0.3043 -0.7389  0.3923
 1427TIP3   OH2 4286   6.191   2.788   1.217 -0.0438  0.6844  0.2862
 1427TIP3    H1 4287   6.231   2.839   1.287  0.5555 -0.9804  1.2053
 1427TIP3    H2 4288   6.245   2.710   1.209  0.3794  1.1501 -2.6090
 1428TIP3   OH2 4289   3.696   1.399   0.565 -0.0840 -0.5288  0.3423
 1428TIP3    H1 4290   3.706   1.342   0.489  0.7246  0.5795 -0.4158
 1428TIP3    H2 4291   3.658   1.343   0.632  1.2016 -2.1206 -0.1932
 1429TIP3   OH2 4292   5.864   0.907   2.471  0.2890  0.3937 -0.2088
 1429TIP3    H1 4293   5.948   0.886   2.430  0.1915 -0.0980 -0.1609
 1429TIP3    H2 4294   5.838   0.989   2.431  0.7606  0.5160 -0.2743
 1430TIP3   OH2 4295   4.974   4.349   1.760  0.0406  0.1115 -0.3124
 1430TIP3    H1 4296   4.923   4.280   1.718 -1.3311  1.3526 -0.7754
 1430TIP3    H2 4297   5.003   4.311   1.843 -1.9804 -0.5263  0.1450
 1431TIP3   OH2 4298   0.990   5.672   3.958  0.7167 -0.4930  0.5134
 1431TIP3    H1 4299   0.903   5.647   3.928 -0.4244  2.1693  1.3612
 1431TIP3    H2 4300   1.046   5.661   3.881 -0.8456  0.0100 -0.7474
 1432TIP3   OH2 4301   2.552   5.570   1.953  0.0849 -0.2775 -0.1663
 1432TIP3    H1 4302   2.471   5.546   1.909 -1.1894 -0.2736  2.0699
 1432TIP3    H2 4303   2.558   5.665   1.943  0.2490 -0.3633 -0.9840
 1433TIP3   OH2 4304   2.849   4.496   1.888 -0.2343 -0.1236 -0.0357
 1433TIP3    H1 4305   2.888   4.547   1.959  1.8839 -1.0016 -0.5108
 1433TIP3    H2 4306   2.800   4.561   1.836  1.9574  1.3854 -0.3438
 1434TIP3   OH2 4307   2.833   2.158   2.457 -0.0389 -0.2564  0.4171
 1434TIP3    H1 4308   2.864   2.212   2.530 -0.7152  1.4377 -0.4868
 1434TIP3    H2 4309   2.741   2.140   2.478  0.2137 -1.2098  0.7729
 1435TIP3   OH2 4310   1.179   3.082   4.420 -0.3155  0.1182 -0.4727
 1435TIP3    H1 4311   1.099   3.103   4.372 -0.7178 -0.8481 -0.2510
 1435TIP3    H2 4312   1.245   3.071   4.352 -0.0963  1.9816 -0.5985
 1436TIP3   OH2 4313   1.876   2.573   1.479 -0.0298  0.1577  0.5762
 1436TIP3    H1 4314   1.815   2.510   1.516 -2.2330  1.3110 -0.8733
 1436TIP3    H2 4315   1.899   2.537   1.393  1.4839 -0.3069  1.1352
 1437TIP3   OH2 4316   1.460   5.148   2.467  0.3045 -0.1101  0.4348
 1437TIP3    H1 4317   1.443   5.232   2.423  1.1923 -0.5139 -0.7079
 1437TIP3    H2 4318   1.555   5.145   2.477  0.2027 -0.5597  1.3513
 1438TIP3   OH2 4319   2.544   5.124   2.439  0.5212 -0.2975 -0.0073
 1438TIP3    H1 4320   2.513   5.034   2.447 -1.8625  0.4676  0.2160
 1438TIP3    H2 4321   2.475   5.177   2.479  1.4400  1.6918 -0.9042
 1439TIP3   OH2 4322   0.817   5.493   4.943 -0.1542  0.0327 -0.1596
 1439TIP3    H1 4323   0.848   5.407   4.971  1.3051  0.5099 -0.2447
 1439TIP3    H2 4324   0.897   5.544   4.929 -1.0019  2.0029  1.6841
 1440TIP3   OH2 4325   4.416   0.572   2.247  0.0360 -0.1533 -0.2798
 1440TIP3    H1 4326   4.467   0.570   2.167  0.1929 -1.9736 -0.1644
 1440TIP3    H2 4327   4.459   0.638   2.302  0.5225  0.3741 -1.2778
 1441TIP3   OH2 4328   0.821   0.365   2.892 -0.0431 -0.3294  0.1322
 1441TIP3    H1 4329   0.870   0.350   2.973  1.7459 -0.8915 -0.9984
 1441TIP3    H2 4330   0.792   0.278   2.865 -0.2066 -0.2078 -0.0831
 1442TIP3   OH2 4331   3.810   0.308   2.085 -0.7155  0.1159 -0.3267
 1442TIP3    H1 4332   3.858   0.387   2.109 -1.6794  0.4465  0.5230
 1442TIP3    H2 4333   3.799   0.315   1.990 -0.0937  0.5973 -0.3685
 1443TIP3   OH2 4334   1.604   4.307   4.343  0.5829 -0.3317  0.4057
 1443TIP3    H1 4335   1.618   4.397   4.373 -1.7549 -0.0988  1.0009
 1443TIP3    H2 4336   1.535   4.314   4.276  0.4285 -1.6557  0.3945
 1444TIP3   OH2 4337   4.934   3.640   3.130  0.3786  0.1392  0.5975
 1444TIP3    H1 4338   4.899   3.611   3.046  2.6525 -2.3134  0.3422
 1444TIP3    H2 4339   4.858   3.650   3.186 -1.1432  1.1253 -1.5210
 1445TIP3   OH2 4340   5.560   4.049   1.968  0.2908 -0.0836  0.0503
 1445TIP3    H1 4341   5.616   4.031   2.044  1.2015 -0.6888 -0.7474
 1445TIP3    H2 4342   5.596   3.995   1.898  1.4258  2.7236 -1.7046
 1446TIP3   OH2 4343   1.720   0.314   4.802  0.2744  0.3400  0.1904
 1446TIP3    H1 4344   1.714   0.318   4.707  0.4031 -0.3731  0.1498
 1446TIP3    H2 4345   1.786   0.248   4.820 -0.2811 -0.0735  0.7829
 1447TIP3   OH2 4346   5.509   1.791   3.051  0.4283 -0.0557 -0.1670
 1447TIP3    H1 4347   5.485   1.837   3.131  0.3777  1.3217 -0.9441
 1447TIP3    H2 4348   5.536   1.860   2.991  1.8733 -1.1808 -0.8677
 1448TIP3   OH2 4349   4.345   1.124   2.802  0.3500 -0.4927  0.4072
 1448TIP3    H1 4350   4.295   1.043   2.808  0.8564 -0.7380  1.6132
 1448TIP3    H2 4351   4.434   1.096   2.780  0.4609 -0.2378  0.5212
 1449TIP3   OH2 4352   4.815   3.506   3.740  0.1099 -0.2303 -0.3612
 1449TIP3    H1 4353   4.892   3.477   3.691  0.6936 -1.4318  1.2006
 1449TIP3    H2 4354   4.836   3.487   3.831 -1.9783 -0.4319  0.1259
 1450TIP3   OH2 4355   0.930   0.516   3.752 -0.0766 -0.8503 -0.2845
 1450TIP3    H1 4356   0.981   0.441   3.723  0.4159 -0.0194 -1.6530
 1450TIP3    H2 4357   0.844   0.505   3.713  0.0223 -0.6640 -0.5575
 1451TIP3   OH2 4358   0.287   2.890   2.804 -0.0722 -0.5862 -0.5738
 1451TIP3    H1 4359   0.210   2.849   2.842  0.5960 -2.5229 -1.1825
 1451TIP3    H2 4360   0.359   2.868   2.864  0.2064  0.3034 -0.5566
 1452TIP3   OH2 4361   3.663   1.535   3.824 -0.2311 -0.0835 -0.3169
 1452TIP3    H1 4362   3.745   1.486   3.823 -0.3793 -0.3322 -1.9802
 1452TIP3    H2 4363   3.595   1.468   3.836 -0.2103  0.1883  1.8653
 1453TIP3   OH2 4364   6.010   5.233   4.180 -0.0175  0.2815  0.0583
 1453TIP3    H1 4365   5.980   5.270   4.263  0.3356  2.5874 -0.7475
 1453TIP3    H2 4366   6.101   5.207   4.196 -0.9754 -2.6680  1.3060
 1454TIP3   OH2 4367   2.312   3.566   2.273  0.1212  0.2608 -0.2302
 1454TIP3    H1 4368   2.273   3.570   2.186  1.5494  0.5911 -0.8892
 1454TIP3    H2 4369   2.360   3.483   2.275 -0.2888  0.0274  0.4286
 1455TIP3   OH2 4370   4.938   0.463   2.501 -0.1365  0.1633  0.0010
 1455TIP3    H1 4371   4.969   0.396   2.440  1.2747  0.4074  0.4181
 1455TIP3    H2 4372   5.010   0.525   2.507 -0.4042  0.3569  1.5971
 1456TIP3   OH2 4373   5.750   3.145   4.782 -0.0774  0.1978 -0.2484
 1456TIP3    H1 4374   5.670   3.194   4.798  0.5679  0.9677  0.7064
 1456TIP3    H2 4375   5.793   3.140   4.867  1.0426  0.0690 -0.8013
 1457TIP3   OH2 4376   1.635   0.907   4.253 -0.3658  0.6863  0.0362
 1457TIP3    H1 4377   1.634   0.941   4.342  0.6609 -0.3440  0.4585
 1457TIP3    H2 4378   1.656   0.815   4.262  0.3114  0.6821 -1.3093
 1458TIP3   OH2 4379   3.133   4.558   1.691 -0.5735 -0.3006  0.3235
 1458TIP3    H1 4380   3.136   4.564   1.595  2.1573 -1.5033  0.2703
 1458TIP3    H2 4381   3.076   4.483   1.708 -0.1697 -0.7889 -0.4029
 1459TIP3   OH2 4382   3.327   0.947   4.092 -0.3392 -0.2904 -0.1462
 1459TIP3    H1 4383   3.406   0.911   4.051 -0.5733 -0.3212 -0.5752
 1459TIP3    H2 4384   3.286   0.999   4.023 -2.1223 -2.4231 -0.8223
 1460TIP3   OH2 4385   1.671   1.104   1.249  0.4480  0.1899  0.3415
 1460TIP3    H1 4386   1.649   1.034   1.310 -0.6655 -0.8051 -1.1071
 1460TIP3    H2 4387   1.736   1.157   1.295  0.3046 -1.0008  2.0161
 1461TIP3   OH2 4388   2.657   0.875   2.168 -0.1448 -0.1974 -0.4971
 1461TIP3    H1 4389   2.673   0.965   2.141  1.0988 -0.2377  0.0561
 1461TIP3    H2 4390   2.658   0.825   2.087  1.9622 -0.0908 -0.5901
 1462TIP3   OH2 4391   2.861   5.562   1.064  0.4006 -0.3028  0.1793
 1462TIP3    H1 4392   2.853   5.612   1.145  1.0704  0.4262 -0.1991
 1462TIP3    H2 4393   2.773   5.567   1.025  0.1046 -0.5626  0.7930
 1463TIP3   OH2 4394   2.061   2.453   5.156  0.2101 -0.6991  0.2592
 1463TIP3    H1 4395   2.031   2.476   5.068  0.9834  0.8157  0.3485
 1463TIP3    H2 4396   2.092   2.363   5.149  0.9610 -0.3496 -1.2184
 1464TIP3   OH2 4397   6.026   4.882   4.584  0.2231  0.1402 -0.5916
 1464TIP3    H1 4398   6.079   4.908   4.660  0.2556 -2.4146  0.3599
 1464TIP3    H2 4399   6.025   4.786   4.587 -1.9296  0.0252 -2.3620
 1465TIP3   OH2 4400   3.379   1.149   2.318 -0.8100  0.1251 -0.4826
 1465TIP3    H1 4401   3.302   1.124   2.368 -1.6305  1.2146 -1.1554
 1465TIP3    H2 4402   3.422   1.066   2.296 -1.8271 -0.5003 -0.1599
 1466TIP3   OH2 4403   5.508   0.601   4.145 -0.9174  0.0025 -0.2748
 1466TIP3    H1 4404   5.549   0.582   4.229 -0.6481  1.2153 -0.1058
 1466TIP3    H2 4405   5.475   0.691   4.155 -0.3774  0.3736 -1.6500
 1467TIP3   OH2 4406   4.815   5.059   1.029 -0.6120 -0.0153 -0.2807
 1467TIP3    H1 4407   4.857   5.048   0.943 -0.6713 -0.5053 -0.2458
 1467TIP3    H2 4408   4.723   5.038   1.013 -0.5055 -0.7179  0.0445
 1468TIP3   OH2 4409   1.396   2.020   2.231  0.2930 -0.1971  0.2323
 1468TIP3    H1 4410   1.486   1.995   2.210 -0.0792 -2.3554  0.9284
 1468TIP3    H2 4411   1.399   2.043   2.324  0.2589  0.4156  0.0807
 1469TIP3   OH2 4412   5.196   5.175   3.852  0.5172 -0.3916 -0.4093
 1469TIP3    H1 4413   5.120   5.117   3.860 -1.2489  1.9222  0.5364
 1469TIP3    H2 4414   5.238   5.149   3.770 -1.9930 -0.9299 -1.6038
 1470TIP3   OH2 4415   3.528   1.940   3.835 -0.2304 -0.2441  0.3423
 1470TIP3    H1 4416   3.496   1.932   3.745 -0.1198 -1.6936  0.4060
 1470TIP3    H2 4417   3.613   1.982   3.826 -1.3353  2.1078  0.0315
 1471TIP3   OH2 4418   6.239   2.292   2.982  0.0482 -0.4209 -0.5018
 1471TIP3    H1 4419   6.291   2.250   3.050 -1.3768 -2.3744 -0.5542
 1471TIP3    H2 4420   6.294   2.288   2.903 -0.7393 -4.1468 -1.0283
 1472TIP3   OH2 4421   5.606   3.609   3.809 -0.6940  0.2925  0.2440
 1472TIP3    H1 4422   5.673   3.667   3.773  0.4254 -1.9790 -1.5613
 1472TIP3    H2 4423   5.628   3.603   3.902  1.3081  0.0124 -0.2146
 1473TIP3   OH2 4424   3.023   0.073   2.367  0.4517  0.4826 -0.4173
 1473TIP3    H1 4425   2.971   0.078   2.448  0.5048 -2.0695 -0.1415
 1473TIP3    H2 4426   2.959   0.081   2.297  0.2092  1.1948 -0.1279
 1474TIP3   OH2 4427   3.713   2.951   0.571 -0.5695  0.6575 -0.1593
 1474TIP3    H1 4428   3.727   2.937   0.477  1.0931  1.1544 -0.0132
 1474TIP3    H2 4429   3.801   2.957   0.608 -1.1949  0.2750  1.4773
 1475TIP3   OH2 4430   2.693   2.910   4.902 -0.3704  0.3064  0.8193
 1475TIP3    H1 4431   2.758   2.839   4.897  0.2127  0.9227 -1.4077
 1475TIP3    H2 4432   2.656   2.902   4.990  0.7197 -1.8307  1.1556
 1476TIP3   OH2 4433   6.192   4.810   1.039 -0.4332 -0.2306 -0.2948
 1476TIP3    H1 4434   6.126   4.874   1.065  1.1980  1.1182  0.7859
 1476TIP3    H2 4435   6.218   4.768   1.121  0.6500 -0.1142 -0.5630
 1477TIP3   OH2 4436   4.172   3.547   1.616  0.0290 -0.0678 -0.3156
 1477TIP3    H1 4437   4.104   3.613   1.604 -0.0997 -0.0272  0.6195
 1477TIP3    H2 4438   4.226   3.554   1.537  0.5953  1.8422  0.1809
 1478TIP3   OH2 4439   0.087   1.441   0.230 -0.4760  0.1196  0.0073
 1478TIP3    H1 4440   0.044   1.391   0.161 -1.2297  0.2098  0.4067
 1478TIP3    H2 4441   0.166   1.475   0.188 -0.9026  0.1459 -0.8067
 1479TIP3   OH2 4442   3.844   4.299   4.988 -0.5959 -0.0883  0.0044
 1479TIP3    H1 4443   3.825   4.219   5.038  0.1386  0.0378  0.4940
 1479TIP3    H2 4444   3.931   4.283   4.950  0.2855  1.1123  1.4263
 1480TIP3   OH2 4445   1.149   5.632   4.632  0.1793 -0.3947  0.2627
 1480TIP3    H1 4446   1.144   5.550   4.583  0.3772 -0.5619  0.5163
 1480TIP3    H2 4447   1.175   5.605   4.721  0.7387 -0.0103  0.2224
 1481TIP3   OH2 4448   0.499   3.063   4.020  0.1252 -0.0480  0.1675
 1481TIP3    H1 4449   0.482   2.968   4.024 -0.4033 -0.0781 -1.6234
 1481TIP3    H2 4450   0.450   3.092   3.943  0.7470  1.5991  0.3581
 1482TIP3   OH2 4451   2.298   2.666   1.126 -0.2511  0.1078  0.9408
 1482TIP3    H1 4452   2.283   2.724   1.200 -0.1799  0.6660  0.5302
 1482TIP3    H2 4453   2.287   2.722   1.049 -0.0981 -0.4051  0.5335
 1483TIP3   OH2 4454   6.029   1.893   3.546 -0.0427 -0.0310 -0.6001
 1483TIP3    H1 4455   5.997   1.881   3.636 -1.4264 -1.2425 -1.2213
 1483TIP3    H2 4456   6.075   1.812   3.526  0.8019  0.4779 -0.8112
 1484TIP3   OH2 4457   3.166   1.103   3.958  0.4149 -0.1755 -0.1206
 1484TIP3    H1 4458   3.070   1.107   3.965  0.4126 -0.4833  0.0303
 1484TIP3    H2 4459   3.183   1.117   3.865  0.2881  0.9585  0.0133
 1485TIP3   OH2 4460   1.239   0.329   0.371  0.0988  0.6545  0.3279
 1485TIP3    H1 4461   1.288   0.276   0.309  0.5790 -0.0305  1.2735
 1485TIP3    H2 4462   1.291   0.408   0.382 -0.3099  1.0632 -0.6196
 1486TIP3   OH2 4463   2.140   1.521   4.487  0.5466  0.8659  0.3646
 1486TIP3    H1 4464   2.083   1.484   4.420  0.9279  0.5795  0.1907
 1486TIP3    H2 4465   2.089   1.518   4.567  1.4602 -2.6322  0.9881
 1487TIP3   OH2 4466   0.940   0.732   0.729 -0.5416 -0.1335  0.3667
 1487TIP3    H1 4467   0.918   0.761   0.640  0.5276 -1.0764 -0.2340
 1487TIP3    H2 4468   0.905   0.643   0.734 -0.4844 -0.1321  0.8500
 1488TIP3   OH2 4469   2.377   5.137   2.075  0.1068 -0.3573 -0.0716
 1488TIP3    H1 4470   2.365   5.083   1.997  1.3013 -1.3246  0.3772
 1488TIP3    H2 4471   2.365   5.077   2.148  4.2571 -0.8363  0.4559
 1489TIP3   OH2 4472   0.404   0.111   2.955  0.4639 -0.3719 -0.5993
 1489TIP3    H1 4473   0.358   0.142   2.877 -0.6602  1.6306  0.7951
 1489TIP3    H2 4474   0.343   0.125   3.027  1.9646 -0.9280  0.8416
 1490TIP3   OH2 4475   3.192   1.911   4.224  0.0199  0.2661 -0.0454
 1490TIP3    H1 4476   3.273   1.960   4.212  1.0702 -0.8788  1.8258
 1490TIP3    H2 4477   3.206   1.830   4.176 -0.5914  0.6222 -0.8425
 1491TIP3   OH2 4478   0.540   1.816   3.797  0.1307  0.3998  0.1092
 1491TIP3    H1 4479   0.509   1.725   3.796  1.6142 -0.2298 -3.1193
 1491TIP3    H2 4480   0.463   1.868   3.776 -0.2434 -0.3829 -0.5145
 1492TIP3   OH2 4481   4.839   1.774   3.624  0.0077  0.6075  0.2518
 1492TIP3    H1 4482   4.881   1.833   3.561 -1.9505  0.2824 -1.4470
 1492TIP3    H2 4483   4.815   1.698   3.573  2.7715 -1.9953  2.4452
 1493TIP3   OH2 4484   1.843   5.246   0.472  0.2173  0.2676  0.2638
 1493TIP3    H1 4485   1.909   5.263   0.539  1.0358 -0.2023 -0.3959
 1493TIP3    H2 4486   1.853   5.153   0.452 -1.7523 -0.2094  1.2858
 1494TIP3   OH2 4487   2.174   5.778   4.704  0.2012 -0.5961  0.4025
 1494TIP3    H1 4488   2.128   5.853   4.668  0.0821 -1.3286 -1.0260
 1494TIP3    H2 4489   2.263   5.810   4.720 -0.4361  0.4808  2.0529
 1495TIP3   OH2 4490   6.040   5.849   2.177 -0.3689  0.3034 -0.1337
 1495TIP3    H1 4491   6.096   5.802   2.238 -1.7374  0.4813  1.3228
 1495TIP3    H2 4492   5.966   5.790   2.162 -0.6423  0.7650 -0.6423
 1496TIP3   OH2 4493   6.148   2.190   4.600  0.0577  0.7708  0.4668
 1496TIP3    H1 4494   6.189   2.190   4.687  0.5428 -0.7803  0.2689
 1496TIP3    H2 4495   6.092   2.268   4.600 -1.2701 -0.0578  2.8200
 1497TIP3   OH2 4496   3.153   5.658   4.482  0.0787  0.2092 -0.1844
 1497TIP3    H1 4497   3.203   5.592   4.435 -0.7694 -1.1650  0.7805
 1497TIP3    H2 4498   3.218   5.710   4.529  0.8096  0.5707 -1.5340
 1498TIP3   OH2 4499   0.310   3.831   1.870  0.8472 -0.0438  0.0365
 1498TIP3    H1 4500   0.370   3.849   1.797  0.7726  0.8657  0.1903
 1498TIP3    H2 4501   0.339   3.888   1.941 -0.6611  1.0320 -0.1448
 1499TIP3   OH2 4502   2.005   4.786   1.548  0.3216 -0.3195 -0.5219
 1499TIP3    H1 4503   1.959   4.731   1.612  0.1632  0.8247  0.3807
 1499TIP3    H2 4504   2.005   4.874   1.587  0.7605  0.2869 -1.8230
 1500TIP3   OH2 4505   1.729   5.601   3.162  0.2157 -1.1561  0.0128
 1500TIP3    H1 4506   1.728   5.510   3.193 -1.0607 -1.7365 -1.6060
 1500TIP3    H2 4507   1.639   5.618   3.134  0.8451  0.0127 -1.4099
 1501TIP3   OH2 4508   3.012   0.105   1.764  0.6206 -0.5808 -0.2874
 1501TIP3    H1 4509   3.009   0.011   1.781  3.5764 -0.8096 -0.4971
 1501TIP3    H2 4510   2.965   0.117   1.682 -1.9575 -1.4447  0.9694
 1502TIP3   OH2 4511   1.468   3.078   0.252 -0.2740 -0.0046 -0.3894
 1502TIP3    H1 4512   1.562   3.071   0.267 -0.7256 -0.3535  2.8893
 1502TIP3    H2 4513   1.445   2.998   0.205  0.4842 -2.1657  2.6870
 1503TIP3   OH2 4514   4.412   3.543   4.258 -0.3163 -0.0052  0.2019
 1503TIP3    H1 4515   4.405   3.532   4.164 -0.5501  2.3133 -0.1290
 1503TIP3    H2 4516   4.322   3.534   4.290 -0.5116  0.8814 -0.0599
 1504TIP3   OH2 4517   2.155   4.986   4.545  0.4423  0.0057  0.6051
 1504TIP3    H1 4518   2.185   4.953   4.460  2.0057  1.0999  0.6976
 1504TIP3    H2 4519   2.149   5.081   4.533  0.7498  0.1755  1.7482
 1505TIP3   OH2 4520   0.102   4.190   0.099  0.0998 -0.4962 -0.0994
 1505TIP3    H1 4521   0.176   4.208   0.156  0.7880 -0.6430 -0.9128
 1505TIP3    H2 4522   0.070   4.277   0.073 -0.8163 -0.4151  1.2310
 1506TIP3   OH2 4523   1.908   1.066   4.568  0.6000 -0.0179  0.4346
 1506TIP3    H1 4524   1.845   1.138   4.562 -1.5814 -1.8256  0.4839
 1506TIP3    H2 4525   1.976   1.090   4.505 -0.9417  1.2503 -0.8558
 1507TIP3   OH2 4526   5.359   2.204   3.962 -0.3013  0.1407  0.2622
 1507TIP3    H1 4527   5.326   2.286   3.998 -2.5021 -0.2332 -0.7393
 1507TIP3    H2 4528   5.385   2.224   3.873 -2.0399 -0.4326 -0.4238
 1508TIP3   OH2 4529   3.029   5.168   3.911  0.5437  0.0992 -0.4507
 1508TIP3    H1 4530   3.020   5.246   3.967 -1.3533  0.1595 -0.7666
 1508TIP3    H2 4531   3.112   5.181   3.866  1.7090  0.4744  1.6830
 1509TIP3   OH2 4532   1.694   4.039   3.039  0.2482 -0.2238 -0.2513
 1509TIP3    H1 4533   1.650   3.959   3.010  0.4767  0.3717 -2.4285
 1509TIP3    H2 4534   1.663   4.106   2.978  1.4259  0.9741  0.4283
 1510TIP3   OH2 4535   5.924   5.617   5.015  0.1009  0.0723  0.5296
 1510TIP3    H1 4536   6.008   5.620   4.968  0.2008 -1.3252  0.5829
 1510TIP3    H2 4537   5.866   5.569   4.957 -0.8212  1.3781  0.3172
 1511TIP3   OH2 4538   6.099   3.309   2.992 -0.3262 -0.0094 -0.0575
 1511TIP3    H1 4539   6.165   3.368   3.027 -0.2109 -0.4173  0.4375
 1511TIP3    H2 4540   6.131   3.222   3.014 -1.9724 -0.1703  2.0111
 1512TIP3   OH2 4541   3.427   4.270   0.805 -0.2162  0.6817 -0.0350
 1512TIP3    H1 4542   3.402   4.328   0.734 -0.0411  1.4504  0.5149
 1512TIP3    H2 4543   3.496   4.215   0.768 -0.5861  0.6264 -0.6491
 1513TIP3   OH2 4544   0.052   1.934   0.614  0.2687  0.3209 -0.6061
 1513TIP3    H1 4545  -0.033   1.975   0.605  0.4796  0.8528 -0.2133
 1513TIP3    H2 4546   0.091   1.939   0.526  0.8052  2.1267 -0.2974
 1514TIP3   OH2 4547   2.041   3.795   1.670  0.1221  0.3208  0.3819
 1514TIP3    H1 4548   2.085   3.848   1.737  1.1341 -1.1417  0.9142
 1514TIP3    H2 4549   2.032   3.709   1.710 -1.1150 -0.0464 -0.6327
 1515TIP3   OH2 4550   0.731   2.938   2.219 -0.3171  0.6361 -0.5809
 1515TIP3    H1 4551   0.726   2.923   2.313 -0.3655 -0.6321 -0.7644
 1515TIP3    H2 4552   0.647   2.907   2.185 -0.3767  1.2633 -1.0322
 1516TIP3   OH2 4553   0.109   3.275   4.921 -0.2487 -0.5989  0.0680
 1516TIP3    H1 4554   0.145   3.356   4.884 -3.1030  0.9618  0.4135
 1516TIP3    H2 4555   0.109   3.213   4.847  1.7135 -0.2659 -0.2783
 1517TIP3   OH2 4556   4.454   2.709   1.824 -0.0586 -0.2879 -0.0002
 1517TIP3    H1 4557   4.459   2.676   1.734 -1.5295 -0.4077 -0.0672
 1517TIP3    H2 4558   4.484   2.636   1.878 -0.9533 -0.9099 -0.3059
 1518TIP3   OH2 4559   1.474   0.411   4.452  0.4908 -0.2128  0.4604
 1518TIP3    H1 4560   1.485   0.316   4.455 -0.3257 -0.3143  0.7697
 1518TIP3    H2 4561   1.414   0.430   4.525 -0.1656  0.4138 -0.2297
 1519TIP3   OH2 4562   1.563   5.612   1.182 -0.2980  0.0226  0.5532
 1519TIP3    H1 4563   1.477   5.610   1.224 -0.6541 -0.5112 -0.1710
 1519TIP3    H2 4564   1.581   5.705   1.168 -1.6536  0.1073 -1.0077
 1520TIP3   OH2 4565   4.308   3.469   3.206 -0.0459  0.5881 -0.3209
 1520TIP3    H1 4566   4.319   3.379   3.236 -1.3586  0.8687  1.1501
 1520TIP3    H2 4567   4.395   3.496   3.176  0.1221 -1.5476 -2.0156
 1521TIP3   OH2 4568   5.695   4.136   0.038 -0.7577  0.2406 -0.3608
 1521TIP3    H1 4569   5.699   4.144   0.133  1.2498 -1.0170 -0.3025
 1521TIP3    H2 4570   5.735   4.217   0.006  2.3755 -1.0334 -0.0098
 1522TIP3   OH2 4571   0.325   4.430   3.898 -0.2825  0.2813 -0.0334
 1522TIP3    H1 4572   0.371   4.509   3.870  1.8608 -1.0007 -0.3789
 1522TIP3    H2 4573   0.295   4.449   3.987  1.2783  1.0648  0.3502
 1523TIP3   OH2 4574   2.401   5.960   3.133  0.0786 -0.6022 -0.1047
 1523TIP3    H1 4575   2.412   5.921   3.047  0.6510 -3.2336  1.0629
 1523TIP3    H2 4576   2.479   6.014   3.145 -0.4608  0.5506 -1.5510
 1524TIP3   OH2 4577   2.689   2.927   2.486 -0.2054 -0.1447 -0.2241
 1524TIP3    H1 4578   2.708   2.839   2.452 -1.0149 -1.4629  2.4557
 1524TIP3    H2 4579   2.725   2.926   2.575  0.5928  2.6210 -0.4269
 1525TIP3   OH2 4580   4.660   4.886   0.078  0.2909 -0.3179  0.1691
 1525TIP3    H1 4581   4.629   4.808   0.124 -1.0123 -0.1440 -0.3643
 1525TIP3    H2 4582   4.745   4.860   0.041 -0.7583 -2.0081 -1.2352
 1526TIP3   OH2 4583   0.043   4.454   3.031  0.7871 -0.0637 -0.3437
 1526TIP3    H1 4584   0.059   4.360   3.027  2.3377  0.1267  0.6316
 1526TIP3    H2 4585   0.124   4.494   2.999 -0.4756  0.9732 -2.4700
 1527TIP3   OH2 4586   1.787   0.074   0.238  0.0632 -0.0679 -0.4644
 1527TIP3    H1 4587   1.703   0.060   0.194 -0.0288  0.1035 -0.3420
 1527TIP3    H2 4588   1.820   0.157   0.203  0.7766 -0.7347 -1.4532
 1528TIP3   OH2 4589   1.731   1.846   3.614  1.2054  0.2597  0.0968
 1528TIP3    H1 4590   1.714   1.940   3.605 -0.8248 -0.0952 -0.4295
 1528TIP3    H2 4591   1.707   1.826   3.704  0.5693  0.0879 -0.1005
 1529TIP3   OH2 4592   1.441   1.337   3.459 -0.0448 -0.3472  0.1066
 1529TIP3    H1 4593   1.485   1.336   3.374  1.2911  3.5797  0.5545
 1529TIP3    H2 4594   1.357   1.295   3.443  0.2502  0.0326 -3.0951
 1530TIP3   OH2 4595   4.095   4.371   2.608  0.1903 -0.1042  0.3518
 1530TIP3    H1 4596   4.183   4.369   2.570  0.1032  0.0535  0.1361
 1530TIP3    H2 4597   4.041   4.323   2.546  0.4392 -1.7296  1.3434
 1531TIP3   OH2 4598   1.157   0.071   4.011  0.1508 -0.1429 -0.1499
 1531TIP3    H1 4599   1.196   0.111   4.089 -1.0914  0.6112  0.1166
 1531TIP3    H2 4600   1.185  -0.020   4.015 -0.2675 -0.2379  1.4700
 1532TIP3   OH2 4601   3.196   5.379   2.151  0.0814  0.4859 -0.3294
 1532TIP3    H1 4602   3.136   5.451   2.171 -1.0188 -0.5678  0.3256
 1532TIP3    H2 4603   3.174   5.354   2.061  1.7976  2.1701 -1.2900
 1533TIP3   OH2 4604   1.675   3.367  -0.013 -0.0027  0.0637  0.0114
 1533TIP3    H1 4605   1.689   3.338   0.077  1.6433 -1.9477 -0.8160
 1533TIP3    H2 4606   1.745   3.431  -0.028  0.1143 -0.0731 -0.0285
 1534TIP3   OH2 4607   4.589   2.470   3.252  0.1442 -0.3133 -0.2630
 1534TIP3    H1 4608   4.577   2.476   3.157 -0.7419  0.4034 -0.1193
 1534TIP3    H2 4609   4.576   2.377   3.272  0.9995 -0.5873 -0.9168
 1535TIP3   OH2 4610   3.138   1.639   3.883 -0.0825 -0.0848  0.0420
 1535TIP3    H1 4611   3.211   1.606   3.830  0.1571  1.9983 -1.0304
 1535TIP3    H2 4612   3.061   1.628   3.827  0.1337  1.8896 -0.7183
 1536TIP3   OH2 4613   3.098   5.135   2.490 -0.1603  0.0607 -0.7528
 1536TIP3    H1 4614   3.086   5.157   2.397 -1.2494  0.8862 -0.4372
 1536TIP3    H2 4615   3.010   5.137   2.527  0.1040 -1.5712  0.0443
 1537TIP3   OH2 4616   6.144   3.508   4.439  0.4647 -0.0878  0.3284
 1537TIP3    H1 4617   6.164   3.574   4.374  0.0047  0.5192  0.7939
 1537TIP3    H2 4618   6.174   3.426   4.401  0.5083  0.3107 -0.4968
 1538TIP3   OH2 4619   4.682   1.798   4.922  0.3487 -0.5960  0.8727
 1538TIP3    H1 4620   4.768   1.806   4.881  0.0153  0.2267  0.3063
 1538TIP3    H2 4621   4.676   1.707   4.949  1.1396 -0.8131  0.3359
 1539TIP3   OH2 4622   4.489   3.992   4.201 -0.3369  0.1865 -0.2544
 1539TIP3    H1 4623   4.574   3.969   4.164 -1.4368  0.1565 -2.9642
 1539TIP3    H2 4624   4.500   3.980   4.296  2.7172  0.4621 -0.4812
 1540TIP3   OH2 4625   4.928   5.716   1.608  0.6373  0.6834 -0.2364
 1540TIP3    H1 4626   4.972   5.736   1.525  2.8328  1.0233  0.9170
 1540TIP3    H2 4627   4.938   5.621   1.618  0.8489  0.7142 -0.1361
 1541TIP3   OH2 4628   2.304   5.152   3.057  0.0537 -0.3711 -0.1190
 1541TIP3    H1 4629   2.308   5.247   3.057 -0.4074 -0.3494  0.5397
 1541TIP3    H2 4630   2.384   5.125   3.104  0.1038 -0.3052 -0.1660
 1542TIP3   OH2 4631   3.506   0.118   5.187  0.6288  0.3360  0.0496
 1542TIP3    H1 4632   3.427   0.081   5.149  0.6350  1.0021 -0.6469
 1542TIP3    H2 4633   3.575   0.054   5.168  0.5289  0.4202 -0.6240
 1543TIP3   OH2 4634   0.605   5.541   2.052 -0.3742  0.0124  0.4537
 1543TIP3    H1 4635   0.518   5.507   2.033  0.2623 -0.3232 -2.4119
 1543TIP3    H2 4636   0.606   5.629   2.015  0.5556 -0.0766  0.2307
 1544TIP3   OH2 4637   3.515   0.971   1.217  0.0447 -0.2973  0.2920
 1544TIP3    H1 4638   3.578   1.029   1.260 -0.4552 -0.5370  1.3681
 1544TIP3    H2 4639   3.438   0.972   1.274 -1.0374  0.1677 -1.1082
 1545TIP3   OH2 4640   4.261   2.862   1.118  0.8615  0.5392 -0.0853
 1545TIP3    H1 4641   4.208   2.878   1.040  0.9148  2.1536  0.1725
 1545TIP3    H2 4642   4.308   2.780   1.100  1.1771  1.0967 -1.9045
 1546TIP3   OH2 4643   5.480   1.505   0.392 -0.2866 -0.0063 -0.7087
 1546TIP3    H1 4644   5.426   1.576   0.426 -1.7206 -0.7738 -1.2994
 1546TIP3    H2 4645   5.427   1.426   0.404  1.5136 -1.1424  0.5578
 1547TIP3   OH2 4646   3.123   2.607   0.854 -0.0677 -0.1698 -0.3651
 1547TIP3    H1 4647   3.078   2.522   0.856 -0.0865 -0.1503  0.3627
 1547TIP3    H2 4648   3.148   2.623   0.945  1.6121 -0.2753 -0.7857
 1548TIP3   OH2 4649   6.046   4.969   5.120  0.0561 -0.0297 -0.2020
 1548TIP3    H1 4650   5.967   4.987   5.069 -0.6965 -0.7751  0.6503
 1548TIP3    H2 4651   6.095   5.051   5.118 -0.5532  0.3318 -1.0611
 1549TIP3   OH2 4652   2.053   3.302   1.086 -0.0091 -0.2760 -0.4394
 1549TIP3    H1 4653   2.140   3.328   1.115 -0.2758 -0.6121  0.7426
 1549TIP3    H2 4654   1.996   3.319   1.162 -0.8126 -0.8564 -0.8885
 1550TIP3   OH2 4655   2.661   5.292   0.761  0.3148 -0.0642  0.0969
 1550TIP3    H1 4656   2.657   5.215   0.704  3.2463  0.1839 -0.6071
 1550TIP3    H2 4657   2.725   5.269   0.828  1.8939  1.9790 -0.6102
 1551TIP3   OH2 4658   0.461   0.062   4.322  0.1666 -0.1757  0.4777
 1551TIP3    H1 4659   0.389   0.121   4.299 -0.0470 -0.9343 -0.8758
 1551TIP3    H2 4660   0.419  -0.021   4.343  0.6543 -0.8528 -1.0742
 1552TIP3   OH2 4661   0.998   1.643   1.924 -0.6590 -0.5918 -0.1617
 1552TIP3    H1 4662   1.050   1.719   1.900  0.2486 -1.0789  0.2170
 1552TIP3    H2 4663   0.998   1.587   1.846 -2.2690  0.2734 -0.8325
 1553TIP3   OH2 4664   2.492   4.092   2.427  0.0847 -0.3818 -0.1306
 1553TIP3    H1 4665   2.496   4.042   2.508  1.3200 -0.5729 -0.2874
 1553TIP3    H2 4666   2.486   4.183   2.455 -1.9930 -0.5566  0.1547
 1554TIP3   OH2 4667   5.672   5.814   2.058 -0.0521 -0.3448 -0.3275
 1554TIP3    H1 4668   5.600   5.821   1.995  0.3295  1.5454 -0.6226
 1554TIP3    H2 4669   5.665   5.894   2.110  1.3859 -0.4984  0.1434
 1555TIP3   OH2 4670   4.339   3.876   1.361 -0.1305  0.3896 -0.1575
 1555TIP3    H1 4671   4.323   3.782   1.352 -0.7092  0.1624  2.3375
 1555TIP3    H2 4672   4.253   3.916   1.349 -0.4555  0.2838  1.5174
 1556TIP3   OH2 4673   5.159   1.541   0.255 -0.0536  0.0214 -0.1834
 1556TIP3    H1 4674   5.148   1.555   0.349 -0.4387  3.9060 -0.6704
 1556TIP3    H2 4675   5.238   1.591   0.232 -0.6992  0.2309 -2.1148
 1557TIP3   OH2 4676   3.577   4.897   0.894  0.2604 -0.7078 -0.9468
 1557TIP3    H1 4677   3.613   4.820   0.851  0.4817 -0.4114 -1.2940
 1557TIP3    H2 4678   3.537   4.948   0.823  0.4053 -0.3425 -0.7702
 1558TIP3   OH2 4679   4.809   4.350   3.629 -0.3708  0.0426  0.6338
 1558TIP3    H1 4680   4.813   4.256   3.609 -0.3061  0.3471 -0.8971
 1558TIP3    H2 4681   4.896   4.383   3.607 -1.1762  0.9145 -1.4311
 1559TIP3   OH2 4682   6.104   3.378   1.336 -0.1113 -0.0139  0.1792
 1559TIP3    H1 4683   6.180   3.320   1.341 -0.6529 -0.8418 -0.7159
 1559TIP3    H2 4684   6.057   3.365   1.418  0.1617 -0.2808  0.2933
 1560TIP3   OH2 4685   5.916   1.693   1.661 -0.4392 -0.4177 -0.7171
 1560TIP3    H1 4686   5.897   1.611   1.616 -0.4662  0.0740 -1.6334
 1560TIP3    H2 4687   5.843   1.706   1.721  1.3343 -2.9396  2.2851
 1561TIP3   OH2 4688   4.129   4.992   2.511 -0.3584 -0.0631 -0.2488
 1561TIP3    H1 4689   4.150   4.902   2.536 -0.0697  0.3112  0.9242
 1561TIP3    H2 4690   4.167   5.046   2.581 -0.5132  0.9714 -0.9389
 1562TIP3   OH2 4691   0.594   0.307   4.539  0.2635 -0.2671 -0.2614
 1562TIP3    H1 4692   0.558   0.384   4.582  2.0915 -0.0662  1.0168
 1562TIP3    H2 4693   0.582   0.236   4.603  1.3651 -0.3650 -0.1499
 1563TIP3   OH2 4694   2.661   3.478   4.498 -0.0985 -0.4732  0.3184
 1563TIP3    H1 4695   2.605   3.540   4.451  2.0737  2.4689  1.2957
 1563TIP3    H2 4696   2.739   3.469   4.443  0.5245 -0.6117  1.1978
 1564TIP3   OH2 4697   1.655   4.510   1.759 -0.0058  0.1969 -0.0371
 1564TIP3    H1 4698   1.627   4.590   1.803 -0.8143 -0.0857 -0.0313
 1564TIP3    H2 4699   1.575   4.473   1.722  0.4212 -0.4021 -0.3806
 1565TIP3   OH2 4700   0.497   0.186   2.327 -0.5086  0.0302  0.3989
 1565TIP3    H1 4701   0.575   0.182   2.381  0.1530 -0.5959 -0.5711
 1565TIP3    H2 4702   0.434   0.129   2.371 -0.6600  1.0227  1.5148
 1566TIP3   OH2 4703   4.168   1.580   3.924  0.2902  0.1152  0.6915
 1566TIP3    H1 4704   4.133   1.542   3.844  0.9492 -0.5213  0.6935
 1566TIP3    H2 4705   4.109   1.653   3.944 -0.4057 -0.2831  0.1343
 1567TIP3   OH2 4706   0.274   1.130   4.210 -0.4797  0.1711 -0.6116
 1567TIP3    H1 4707   0.215   1.061   4.242 -1.1625  1.1142  0.2100
 1567TIP3    H2 4708   0.356   1.114   4.256 -0.4591 -0.4225 -0.8465
 1568TIP3   OH2 4709   4.534   0.309   1.029  0.2008  0.3729 -0.6481
 1568TIP3    H1 4710   4.525   0.363   0.950  1.2473  1.5040 -0.0403
 1568TIP3    H2 4711   4.613   0.257   1.014 -0.8294 -1.0732 -1.2477
 1569TIP3   OH2 4712   3.712   2.637   1.390  0.1664  0.5201  0.2743
 1569TIP3    H1 4713   3.700   2.566   1.453  0.2994 -0.4076 -0.7060
 1569TIP3    H2 4714   3.629   2.684   1.391  0.2612  0.6908  1.3279
 1570TIP3   OH2 4715   3.414   4.402   0.530  0.1248  0.1902  0.0626
 1570TIP3    H1 4716   3.335   4.456   0.541 -0.1291 -0.0573 -0.4867
 1570TIP3    H2 4717   3.387   4.332   0.471  1.1173  0.8888 -1.2848
 1571TIP3   OH2 4718   6.199   0.751   3.624  0.0972  0.2563 -0.1141
 1571TIP3    H1 4719   6.216   0.698   3.702 -1.3489 -1.7887 -1.0714
 1571TIP3    H2 4720   6.107   0.776   3.631 -0.1030 -0.0928 -1.1817
 1572TIP3   OH2 4721   4.484   4.782   2.171 -0.0455  0.0137 -0.0598
 1572TIP3    H1 4722   4.442   4.779   2.084 -2.0742 -1.7293  0.8855
 1572TIP3    H2 4723   4.573   4.751   2.156 -0.0175  0.7763 -1.6768
 1573TIP3   OH2 4724   4.951   3.503   1.865  0.0709  0.0463 -0.4031
 1573TIP3    H1 4725   5.040   3.491   1.830 -0.1585 -0.7459 -0.7376
 1573TIP3    H2 4726   4.899   3.531   1.789  0.3162  1.9726  0.0902
 1574TIP3   OH2 4727   6.216   0.878   3.130  0.1612 -0.0468  0.1730
 1574TIP3    H1 4728   6.312   0.871   3.127  0.3979  2.5357 -0.9739
 1574TIP3    H2 4729   6.197   0.907   3.219  0.4689 -0.1059  0.2594
 1575TIP3   OH2 4730   5.451   4.311   3.955 -0.2403  0.4718  0.4422
 1575TIP3    H1 4731   5.415   4.223   3.945  1.0440 -0.1148  0.7750
 1575TIP3    H2 4732   5.419   4.341   4.040  1.6741 -0.8731  1.7048
 1576TIP3   OH2 4733   5.172   5.295   1.836 -0.5375 -0.0268 -0.7178
 1576TIP3    H1 4734   5.176   5.213   1.885 -0.4491 -0.5626 -1.5999
 1576TIP3    H2 4735   5.098   5.284   1.777 -0.7482  0.6756 -0.5910
 1577TIP3   OH2 4736   4.151   1.569   2.900  0.2433 -0.4413 -0.2215
 1577TIP3    H1 4737   4.235   1.614   2.897 -0.2234  0.4273 -0.8921
 1577TIP3    H2 4738   4.173   1.476   2.891  1.0615 -0.1342 -1.8741
 1578TIP3   OH2 4739   3.239   0.354   4.410 -0.0321  0.0600 -0.8265
 1578TIP3    H1 4740   3.214   0.297   4.483  0.2929 -0.1524 -0.8775
 1578TIP3    H2 4741   3.329   0.380   4.429  0.2724 -0.4963 -1.4536
 1579TIP3   OH2 4742   3.475   4.576   2.283  0.3269  0.2978  0.0001
 1579TIP3    H1 4743   3.381   4.559   2.287  0.3890  0.0948  0.7748
 1579TIP3    H2 4744   3.499   4.559   2.192 -0.6583  1.8105 -0.5802
 1580TIP3   OH2 4745   0.231   0.330   2.904  0.0607 -0.0799 -0.1712
 1580TIP3    H1 4746   0.184   0.413   2.896 -1.2651 -0.8726 -1.1473
 1580TIP3    H2 4747   0.239   0.298   2.815  0.2660 -1.1521  0.2102
 1581TIP3   OH2 4748   6.090   2.944   4.391  0.0788 -0.1598  0.5157
 1581TIP3    H1 4749   6.149   2.881   4.433  0.0651 -0.0279  0.7329
 1581TIP3    H2 4750   6.121   2.950   4.301  1.3074  1.0066  0.9877
 1582TIP3   OH2 4751   3.185   1.319   4.143 -0.2948  0.0309  0.1132
 1582TIP3    H1 4752   3.093   1.342   4.146 -0.5200 -0.7865 -0.2644
 1582TIP3    H2 4753   3.188   1.233   4.100  0.5551 -0.3754  0.9221
 1583TIP3   OH2 4754   0.716   4.000   0.308  0.1126 -0.2814  0.0583
 1583TIP3    H1 4755   0.733   4.074   0.366 -1.5031 -0.2450  0.5436
 1583TIP3    H2 4756   0.770   3.929   0.343 -0.0424  0.0426  0.9828
 1584TIP3   OH2 4757   2.081   5.643   3.683 -0.1438 -0.9066  0.0912
 1584TIP3    H1 4758   2.128   5.561   3.693 -0.0634 -0.9688 -0.6916
 1584TIP3    H2 4759   2.075   5.655   3.588  1.8300  1.0849  0.1219
 1585TIP3   OH2 4760   4.600   3.362   3.609 -0.5930 -0.0005  0.2336
 1585TIP3    H1 4761   4.655   3.434   3.640  0.3982 -1.2633  1.5281
 1585TIP3    H2 4762   4.650   3.283   3.630 -3.1200 -1.2535  2.0099
 1586TIP3   OH2 4763   4.864   2.482   3.828  0.6549  0.0290 -0.1008
 1586TIP3    H1 4764   4.775   2.493   3.862  0.4688 -0.5337 -0.3986
 1586TIP3    H2 4765   4.885   2.566   3.788 -0.3743 -0.3561 -1.5075
 1587TIP3   OH2 4766   1.057   2.871   2.185  0.1814 -0.1710 -0.3448
 1587TIP3    H1 4767   1.072   2.833   2.271  0.3667  1.1805  0.2511
 1587TIP3    H2 4768   0.988   2.936   2.198 -0.3478 -0.4928 -1.3884
 1588TIP3   OH2 4769   1.885   4.958   5.017  0.1032 -0.8440  0.3000
 1588TIP3    H1 4770   1.933   5.011   5.080  0.1232 -1.2286  0.6130
 1588TIP3    H2 4771   1.932   4.875   5.014  0.3244 -0.6988 -0.5131
 1589TIP3   OH2 4772   3.696   0.878   5.172  0.3157  0.0614 -0.0884
 1589TIP3    H1 4773   3.664   0.873   5.082  1.5175 -0.5102 -0.4986
 1589TIP3    H2 4774   3.634   0.938   5.216  0.4299  1.3541 -1.5972
 1590TIP3   OH2 4775   2.833   3.707   4.628  0.0665 -0.2827 -0.0344
 1590TIP3    H1 4776   2.752   3.671   4.663 -0.5663  0.2811 -0.8742
 1590TIP3    H2 4777   2.840   3.795   4.666  0.5539 -0.5099  0.4235
 1591TIP3   OH2 4778   0.245   0.725   1.394  0.1850 -0.2856 -0.3094
 1591TIP3    H1 4779   0.189   0.778   1.337  0.9656  0.1994 -0.6444
 1591TIP3    H2 4780   0.184   0.668   1.440 -0.8897  1.9554  1.2375
 1592TIP3   OH2 4781   0.946   3.074   4.831 -0.7137  0.4568 -0.7236
 1592TIP3    H1 4782   0.986   3.009   4.774  0.1535  1.3957 -1.2188
 1592TIP3    H2 4783   0.977   3.158   4.797 -0.7371  1.0743  0.7057
 1593TIP3   OH2 4784   2.616   3.310   1.858 -0.4950  0.3607  0.4238
 1593TIP3    H1 4785   2.684   3.267   1.909 -0.1963 -0.1642 -0.4015
 1593TIP3    H2 4786   2.628   3.278   1.769 -3.0472 -1.3435  0.5712
 1594TIP3   OH2 4787   4.940   4.637   4.699 -0.3422  0.1848  0.2806
 1594TIP3    H1 4788   4.908   4.603   4.783  0.4887 -0.4103  0.3717
 1594TIP3    H2 4789   4.864   4.679   4.660 -0.5243  1.2523  1.7197
 1595TIP3   OH2 4790   0.601   4.867   3.855  0.3347  0.5711 -0.2730
 1595TIP3    H1 4791   0.537   4.847   3.924  2.4640 -2.7398  1.0343
 1595TIP3    H2 4792   0.638   4.951   3.881 -0.5964  0.5473  1.2776
 1596TIP3   OH2 4793   1.916   2.910   0.284 -0.5643 -0.7650 -0.5780
 1596TIP3    H1 4794   1.889   2.830   0.330 -1.4247  0.3068  0.8639
 1596TIP3    H2 4795   1.918   2.977   0.353 -1.1853  0.7558 -1.9952
 1597TIP3   OH2 4796   3.301   4.792   2.964 -0.1851 -0.1932 -0.0639
 1597TIP3    H1 4797   3.244   4.849   2.914 -1.1717 -1.1418 -0.0533
 1597TIP3    H2 4798   3.356   4.748   2.899  0.5397  0.7106 -0.0745
 1598TIP3   OH2 4799   0.858   2.409   4.654  0.3291 -0.5483  0.2594
 1598TIP3    H1 4800   0.860   2.504   4.645 -1.1497 -0.5881 -0.8567
 1598TIP3    H2 4801   0.825   2.377   4.570 -0.4062 -1.9641  1.0425
 1599TIP3   OH2 4802   1.394   0.411   4.763 -0.4280  0.7674 -0.2132
 1599TIP3    H1 4803   1.329   0.379   4.827 -0.4484 -0.6372 -0.9026
 1599TIP3    H2 4804   1.415   0.499   4.793 -2.1676  1.0134  0.4106
 1600TIP3   OH2 4805   1.904   4.022   1.492  0.4210 -0.3114 -0.1366
 1600TIP3    H1 4806   1.889   3.963   1.418  2.6974 -0.7779 -0.2856
 1600TIP3    H2 4807   1.940   3.965   1.561 -2.1894 -0.0113  1.6326
 1601TIP3   OH2 4808   5.494   4.493   0.757 -0.5723 -1.0686 -0.0417
 1601TIP3    H1 4809   5.559   4.563   0.747 -0.1031 -1.2892  1.2229
 1601TIP3    H2 4810   5.496   4.446   0.673 -0.3692 -0.0185 -0.6373
 1602TIP3   OH2 4811   0.070   0.397   4.729  0.3512  0.1269 -0.0559
 1602TIP3    H1 4812   0.056   0.410   4.635  1.1400  0.7105 -0.1051
 1602TIP3    H2 4813   0.068   0.485   4.766 -1.5173 -0.2022  0.7323
 1603TIP3   OH2 4814   2.017   0.622   0.871 -0.5483  0.0435 -0.3174
 1603TIP3    H1 4815   1.985   0.578   0.792 -1.4189 -2.2323  1.1767
 1603TIP3    H2 4816   2.112   0.631   0.857 -0.4595 -1.6437 -1.0743
 1604TIP3   OH2 4817   1.806   3.832   0.063 -0.4257  0.0492 -0.0450
 1604TIP3    H1 4818   1.790   3.922   0.092  0.0760  0.3739 -0.7541
 1604TIP3    H2 4819   1.719   3.797   0.044 -0.8185 -0.2767  2.0979
 1605TIP3   OH2 4820   3.810   3.381   4.431  0.0415  0.8165 -0.0655
 1605TIP3    H1 4821   3.771   3.330   4.360 -2.1778  2.2631  0.0193
 1605TIP3    H2 4822   3.754   3.363   4.507  0.0064  2.2918  0.2908
 1606TIP3   OH2 4823   2.908   2.320   1.698 -0.0626  0.3996 -0.4985
 1606TIP3    H1 4824   2.925   2.225   1.695 -1.0978  0.2278 -2.1839
 1606TIP3    H2 4825   2.868   2.334   1.784 -0.3151 -0.7738 -0.4023
 1607TIP3   OH2 4826   1.932   0.103   4.764 -0.3750  0.4585 -0.3421
 1607TIP3    H1 4827   1.887   0.073   4.685 -2.0090  0.6144  0.4829
 1607TIP3    H2 4828   1.930   0.028   4.823  2.1594 -0.1498 -0.9307
 1608TIP3   OH2 4829   2.025   1.398   4.239  0.5603  0.5411  0.2618
 1608TIP3    H1 4830   2.016   1.409   4.144 -1.0083 -1.7109  0.0814
 1608TIP3    H2 4831   2.106   1.348   4.250  0.3501  0.1475  0.0398
 1609TIP3   OH2 4832   0.381   3.321   2.998 -0.6837 -0.2516 -0.3178
 1609TIP3    H1 4833   0.395   3.303   2.905 -0.1022 -0.7829 -0.1355
 1609TIP3    H2 4834   0.332   3.246   3.031 -2.4531  0.7503 -0.5521
 1610TIP3   OH2 4835   0.517   4.289   2.641 -0.3864 -0.3052 -0.2351
 1610TIP3    H1 4836   0.459   4.274   2.567 -1.2046  0.6987  0.1684
 1610TIP3    H2 4837   0.553   4.203   2.662  1.0824 -0.4132 -2.7444
 1611TIP3   OH2 4838   5.810   4.396   0.504 -0.1444 -0.4828 -0.0283
 1611TIP3    H1 4839   5.799   4.482   0.462  0.4245 -0.1574  0.4658
 1611TIP3    H2 4840   5.810   4.334   0.432  1.1999  0.0999 -0.5722
 1612TIP3   OH2 4841   0.532   5.183   3.749 -0.6548 -1.2020 -0.0831
 1612TIP3    H1 4842   0.527   5.163   3.656 -0.0977 -1.2107 -0.1158
 1612TIP3    H2 4843   0.502   5.273   3.757  0.8105 -0.6481 -0.4920
 1613TIP3   OH2 4844   3.030   2.914   3.158 -0.0284 -0.4283  0.4325
 1613TIP3    H1 4845   2.938   2.905   3.183  0.0661  0.0126  0.9451
 1613TIP3    H2 4846   3.071   2.957   3.232  0.2784  0.8203 -0.4378
 1614TIP3   OH2 4847   2.334   0.569   1.628 -0.1717 -0.3584 -0.0694
 1614TIP3    H1 4848   2.326   0.474   1.643  1.6190 -0.3709  1.0635
 1614TIP3    H2 4849   2.420   0.580   1.588 -0.4829  0.7737 -0.4475
 1615TIP3   OH2 4850   1.286   4.570   4.181 -0.1895  0.3506 -0.4367
 1615TIP3    H1 4851   1.375   4.589   4.150  0.2326 -1.3446 -0.3826
 1615TIP3    H2 4852   1.277   4.620   4.262  1.5645 -1.1516  0.7579
 1616TIP3   OH2 4853   5.123   5.270   4.551  0.1471  0.2032  0.1063
 1616TIP3    H1 4854   5.151   5.326   4.623  0.4065 -0.9039  0.8832
 1616TIP3    H2 4855   5.107   5.184   4.591  1.3901 -0.7482 -1.3099
 1617TIP3   OH2 4856   5.334   4.379   2.993  0.0699  0.3309 -0.2275
 1617TIP3    H1 4857   5.257   4.329   3.017  1.2436 -0.7841  1.4038
 1617TIP3    H2 4858   5.399   4.313   2.968  0.4970  1.2500 -1.6701
 1618TIP3   OH2 4859   4.780   0.120   0.652 -0.1664 -0.6329  0.2788
 1618TIP3    H1 4860   4.765   0.208   0.615  0.8835 -0.0321  1.2048
 1618TIP3    H2 4861   4.779   0.062   0.576  0.2797  0.3422 -0.4992
 1619TIP3   OH2 4862   1.716   2.325   4.642 -0.0904  0.1406 -0.3324
 1619TIP3    H1 4863   1.747   2.412   4.668 -0.7753  0.7210 -1.4084
 1619TIP3    H2 4864   1.718   2.326   4.547  1.4307 -1.6008 -0.3767
 1620TIP3   OH2 4865   2.138   0.095   2.226  0.8682 -0.2811 -0.1847
 1620TIP3    H1 4866   2.219   0.107   2.177  0.5858 -1.4808 -0.9783
 1620TIP3    H2 4867   2.081   0.166   2.196  0.1428 -1.8604 -2.8263
 1621TIP3   OH2 4868   1.535   4.604   4.060 -0.0274  0.1094 -0.1107
 1621TIP3    H1 4869   1.546   4.581   3.968  1.5523 -0.9659  0.2919
 1621TIP3    H2 4870   1.591   4.681   4.072  0.6935 -0.4513  0.1854
 1622TIP3   OH2 4871   2.810   3.442   3.482  0.1248  0.2685 -0.1128
 1622TIP3    H1 4872   2.811   3.346   3.481 -0.4404  0.2413 -1.9719
 1622TIP3    H2 4873   2.896   3.467   3.518  0.1854 -0.9148  0.6104
 1623TIP3   OH2 4874   5.604   3.216   1.573  0.5488 -0.1366  0.5307
 1623TIP3    H1 4875   5.665   3.282   1.539 -0.9435  0.9323 -0.2063
 1623TIP3    H2 4876   5.620   3.216   1.668  1.7169  0.0694  0.3580
 1624TIP3   OH2 4877   5.527   2.013   2.297  0.2099 -0.1909  0.8874
 1624TIP3    H1 4878   5.528   1.971   2.211 -0.4772  0.3857  0.5918
 1624TIP3    H2 4879   5.558   1.945   2.357 -0.2668 -0.9212  0.3210
 1625TIP3   OH2 4880   1.062   4.397   0.304 -0.5870  0.6561 -0.2584
 1625TIP3    H1 4881   1.054   4.381   0.210 -2.2348  1.0849 -0.2211
 1625TIP3    H2 4882   1.085   4.490   0.311 -1.1139  0.7888 -0.2352
 1626TIP3   OH2 4883   5.260   0.118   1.073  0.0086  0.0909  0.4118
 1626TIP3    H1 4884   5.334   0.176   1.091  0.4089  0.1092 -1.1689
 1626TIP3    H2 4885   5.296   0.050   1.016 -0.7743 -0.9797  1.1365
 1627TIP3   OH2 4886   3.472   1.368   3.808  0.1497  0.0761 -0.1263
 1627TIP3    H1 4887   3.483   1.300   3.742 -1.9531  0.5270 -1.0082
 1627TIP3    H2 4888   3.400   1.336   3.863  0.3745  0.7551  0.5724
 1628TIP3   OH2 4889   0.104   4.918   0.762  0.2521  0.8571  0.4282
 1628TIP3    H1 4890   0.038   4.852   0.739  0.2411  0.7950  0.6370
 1628TIP3    H2 4891   0.187   4.879   0.736  0.3911  0.1475  1.8835
 1629TIP3   OH2 4892   3.837   2.224   1.055 -0.0829 -0.2551  0.2945
 1629TIP3    H1 4893   3.847   2.130   1.067  5.2180  0.0741  0.8961
 1629TIP3    H2 4894   3.872   2.262   1.136 -0.7865  2.2473 -0.4854
 1630TIP3   OH2 4895   3.884   5.506   4.708 -0.5604 -0.3551 -0.0273
 1630TIP3    H1 4896   3.813   5.448   4.679 -0.2995 -0.2388 -0.9087
 1630TIP3    H2 4897   3.963   5.452   4.704 -0.1329  0.3450 -1.9323
 1631TIP3   OH2 4898   4.908   2.813   1.175  0.2494 -0.0121 -0.2310
 1631TIP3    H1 4899   4.992   2.838   1.137  0.9203  1.8093  2.1969
 1631TIP3    H2 4900   4.916   2.719   1.193  1.2159 -0.1437 -1.2775
 1632TIP3   OH2 4901   5.249   1.630   2.090  0.5455  0.6229 -0.4284
 1632TIP3    H1 4902   5.226   1.714   2.129  0.2825  0.2965  0.1265
 1632TIP3    H2 4903   5.167   1.581   2.090  0.6518  0.4444 -0.9537
 1633TIP3   OH2 4904   6.149   2.796   1.821 -0.2243  0.1286  0.0133
 1633TIP3    H1 4905   6.206   2.719   1.825  1.3335  1.1945 -0.6686
 1633TIP3    H2 4906   6.133   2.819   1.913 -2.7757 -2.3925  0.3343
 1634TIP3   OH2 4907   3.167   3.292   2.981  0.1091  0.6471  0.4895
 1634TIP3    H1 4908   3.098   3.358   2.972 -0.3873  0.0394 -0.2834
 1634TIP3    H2 4909   3.213   3.317   3.061 -0.9493  1.1261  0.9771
 1635TIP3   OH2 4910   1.064   5.603   1.666 -0.0298 -0.1704 -0.1919
 1635TIP3    H1 4911   1.089   5.572   1.578 -1.1423  0.2138 -0.6651
 1635TIP3    H2 4912   0.979   5.562   1.682 -0.8265  1.4036 -0.2015
 1636TIP3   OH2 4913   0.015   0.935   2.082  0.5804  0.3381 -0.5771
 1636TIP3    H1 4914   0.061   1.007   2.125 -0.1092  0.3232  0.2118
 1636TIP3    H2 4915   0.058   0.856   2.115 -0.3552  0.2996  0.6183
 1637TIP3   OH2 4916   5.263   4.329   3.300  0.4753  0.4739  1.0113
 1637TIP3    H1 4917   5.347   4.283   3.304  0.3438 -0.1420 -1.4784
 1637TIP3    H2 4918   5.200   4.265   3.336  0.6670 -0.2784  0.0483
 1638TIP3   OH2 4919   4.952   2.214   0.117  0.4832 -0.6261  0.1942
 1638TIP3    H1 4920   4.958   2.183   0.026 -2.2930  0.4396 -0.4771
 1638TIP3    H2 4921   4.918   2.304   0.109 -0.2174 -0.6555  2.2749
 1639TIP3   OH2 4922   1.036   3.101   3.016 -0.0098  0.2728  0.6942
 1639TIP3    H1 4923   0.967   3.058   2.965  0.8723 -2.5939  1.7041
 1639TIP3    H2 4924   1.019   3.074   3.106  1.2828  1.1934  1.2466
 1640TIP3   OH2 4925   1.213   4.124   1.011  0.0903 -0.1171  0.1103
 1640TIP3    H1 4926   1.219   4.154   1.101  1.0699 -0.1169  0.0627
 1640TIP3    H2 4927   1.288   4.164   0.967 -1.3966  1.4155 -1.1952
 1641TIP3   OH2 4928   3.273   5.945   0.914  0.0835  0.5852 -0.4139
 1641TIP3    H1 4929   3.305   6.035   0.922  0.1361  0.6045 -0.8301
 1641TIP3    H2 4930   3.346   5.896   0.877  0.7340 -0.0457  1.5907
 1642TIP3   OH2 4931   3.185   3.473   2.253  0.0912  0.3787 -0.0609
 1642TIP3    H1 4932   3.143   3.545   2.206 -0.3066 -0.5426 -1.1619
 1642TIP3    H2 4933   3.248   3.516   2.311 -0.9646  1.6737  0.1745
 1643TIP3   OH2 4934   2.202   2.300   0.751  0.5975  0.2598 -0.4221
 1643TIP3    H1 4935   2.235   2.388   0.730  1.9557 -0.0908  0.0943
 1643TIP3    H2 4936   2.243   2.279   0.835  0.0658 -0.7640 -0.4018
 1644TIP3   OH2 4937   1.174   1.127   0.050  0.2245  0.0557  0.2310
 1644TIP3    H1 4938   1.098   1.126   0.109 -1.4582 -1.4049 -1.8264
 1644TIP3    H2 4939   1.231   1.058   0.083 -0.1348  0.0154  0.7883
 1645TIP3   OH2 4940   4.840   5.300   4.513 -0.0275  0.3782  0.4939
 1645TIP3    H1 4941   4.837   5.285   4.608 -0.6166  0.7937  0.5414
 1645TIP3    H2 4942   4.922   5.259   4.486 -1.3094 -2.5726  0.7004
 1646TIP3   OH2 4943   1.064   3.123   3.883  0.2335  0.2024  0.3520
 1646TIP3    H1 4944   1.115   3.043   3.870 -0.6689 -0.3102 -0.1564
 1646TIP3    H2 4945   1.075   3.144   3.975 -0.3973 -1.1393  0.7621
 1647TIP3   OH2 4946   3.598   1.085   3.906  0.0008 -0.8364 -0.3071
 1647TIP3    H1 4947   3.542   1.045   3.972 -0.6807  2.3540  1.2026
 1647TIP3    H2 4948   3.677   1.111   3.953  0.8141 -1.1485 -1.4365
 1648TIP3   OH2 4949   4.601   4.031   3.398  0.3374 -0.3389  0.1118
 1648TIP3    H1 4950   4.521   4.009   3.445  0.2747  0.1186  0.2196
 1648TIP3    H2 4951   4.670   4.026   3.464  0.6939 -2.5864 -0.3652
 1649TIP3   OH2 4952   4.299   5.174   3.195 -0.0128  0.3183  0.3371
 1649TIP3    H1 4953   4.273   5.138   3.280 -0.3137 -0.2809 -0.0035
 1649TIP3    H2 4954   4.232   5.144   3.134  0.0700  0.9505 -0.0712
 1650TIP3   OH2 4955   3.907   3.161   0.215 -0.3551  0.1755 -0.4728
 1650TIP3    H1 4956   3.976   3.147   0.150 -0.8143  0.9752 -1.1594
 1650TIP3    H2 4957   3.948   3.143   0.299 -0.0258 -1.9011 -1.0371
 1651TIP3   OH2 4958   1.458   0.042   3.831  0.6924 -0.9999  0.0215
 1651TIP3    H1 4959   1.536   0.076   3.787  0.2859 -0.2720 -0.1647
 1651TIP3    H2 4960   1.389   0.106   3.810  0.0793 -1.5560  0.2908
 1652TIP3   OH2 4961   0.467   2.147   3.171 -0.0360  0.0118  0.2943
 1652TIP3    H1 4962   0.540   2.092   3.200  0.6974  0.9670  0.3156
 1652TIP3    H2 4963   0.410   2.154   3.247 -0.5633 -1.3474  0.0617
 1653TIP3   OH2 4964   3.590   1.733   0.837 -0.2967 -0.0327  0.3050
 1653TIP3    H1 4965   3.679   1.718   0.805  0.7454  1.6888  2.1328
 1653TIP3    H2 4966   3.587   1.687   0.921 -1.2776 -0.3692  0.0968
 1654TIP3   OH2 4967   4.547   3.012   0.947 -0.3035  0.3243  0.1247
 1654TIP3    H1 4968   4.594   3.092   0.926  3.4816 -1.4326  0.9748
 1654TIP3    H2 4969   4.537   3.015   1.042  0.0189 -0.2376  0.1823
 1655TIP3   OH2 4970   0.312   5.481   2.095 -0.1225  0.0930 -0.2408
 1655TIP3    H1 4971   0.275   5.568   2.113 -0.7947 -0.4631  1.1957
 1655TIP3    H2 4972   0.247   5.419   2.128  2.0679 -0.9175  2.6662
 1656TIP3   OH2 4973   4.780   1.414   1.176  0.1985  0.2553 -0.0094
 1656TIP3    H1 4974   4.740   1.501   1.179  1.5421  0.8690  0.8902
 1656TIP3    H2 4975   4.844   1.414   1.247  1.1025 -1.0314 -0.7786
 1657TIP3   OH2 4976   3.058   5.690   0.867 -0.5784  1.0387 -0.5446
 1657TIP3    H1 4977   3.007   5.670   0.946  0.8797 -0.3085  0.1305
 1657TIP3    H2 4978   3.115   5.762   0.893 -0.5004  0.9738 -0.5318
 1658TIP3   OH2 4979   3.073   3.248   0.383 -0.3455 -0.2759 -0.7345
 1658TIP3    H1 4980   3.121   3.215   0.306  0.9938  1.4370 -0.7056
 1658TIP3    H2 4981   3.138   3.297   0.432 -1.4314 -0.5034  1.0071
 1659TIP3   OH2 4982   5.823   4.293   3.595  0.2184 -0.1824 -0.1608
 1659TIP3    H1 4983   5.774   4.358   3.544  0.2021 -0.5575 -0.6224
 1659TIP3    H2 4984   5.767   4.275   3.671 -0.0855 -0.1651 -0.3811
 1660TIP3   OH2 4985   0.363   5.901   1.624 -0.4652 -0.5767 -0.3651
 1660TIP3    H1 4986   0.380   5.864   1.710 -0.8533  0.2093  0.0590
 1660TIP3    H2 4987   0.402   5.989   1.627 -0.9169 -0.3545 -0.8066
 1661TIP3   OH2 4988   1.453   5.095   3.358  0.0454 -0.5521  0.2420
 1661TIP3    H1 4989   1.449   5.179   3.404 -0.5237  0.1519 -1.0427
 1661TIP3    H2 4990   1.427   5.030   3.423  1.5380  0.1230  1.5706
 1662TIP3   OH2 4991   4.015   0.366   4.689  0.8281 -0.5644 -0.1498
 1662TIP3    H1 4992   3.946   0.400   4.633  1.2154  1.8065  0.6785
 1662TIP3    H2 4993   4.097   0.397   4.649  1.2795 -1.3610  0.1302
 1663TIP3   OH2 4994   1.890   1.950   2.948  0.6043 -0.3737  0.3511
 1663TIP3    H1 4995   1.805   1.984   2.977  0.8011 -1.1832  2.0300
 1663TIP3    H2 4996   1.883   1.855   2.960  2.3405 -0.3177  2.3529
 1664TIP3   OH2 4997   1.606   1.667   0.930  0.2418 -0.7423  0.2355
 1664TIP3    H1 4998   1.562   1.752   0.938  1.2725 -0.2738  1.3534
 1664TIP3    H2 4999   1.698   1.689   0.915  0.6689 -1.6303  1.3679
 1665TIP3   OH2 5000   1.624   1.756   3.209  0.5831 -0.7491 -0.5262
 1665TIP3    H1 5001   1.605   1.693   3.279  0.2128  0.2447  0.3048
 1665TIP3    H2 5002   1.692   1.714   3.157 -1.1824 -2.7739 -1.3440
 1666TIP3   OH2 5003   4.414  -0.011   1.816 -0.4169  0.8697  0.2236
 1666TIP3    H1 5004   4.401  -0.009   1.911  1.1721 -0.3878  0.4964
 1666TIP3    H2 5005   4.435   0.080   1.793  0.9015  0.8787  1.3538
 1667TIP3   OH2 5006   3.778   2.632   1.782  0.3485  0.2701  0.8971
 1667TIP3    H1 5007   3.793   2.663   1.872 -2.6464  0.9814  1.2384
 1667TIP3    H2 5008   3.829   2.693   1.728  3.4349 -1.0584  2.0530
 1668TIP3   OH2 5009   3.845   1.127   4.029  0.4540 -0.0342  0.3705
 1668TIP3    H1 5010   3.919   1.070   4.011 -0.0882 -0.5048 -0.4205
 1668TIP3    H2 5011   3.851   1.145   4.123  0.5546 -1.4920  0.6593
 1669TIP3   OH2 5012   5.952   4.856   1.740  0.0377  0.0477  0.1718
 1669TIP3    H1 5013   6.044   4.849   1.767  0.2152 -1.4386 -0.6661
 1669TIP3    H2 5014   5.908   4.787   1.789 -0.6513  0.7460  0.5547
 1670TIP3   OH2 5015   1.723   1.246   1.685  0.2353 -0.4323 -0.2559
 1670TIP3    H1 5016   1.671   1.241   1.766  1.5135 -1.3187  0.5572
 1670TIP3    H2 5017   1.740   1.154   1.663 -0.2815 -0.2060 -1.6770
 1671TIP3   OH2 5018   1.379   1.165   1.203 -0.1723 -0.2863  0.5281
 1671TIP3    H1 5019   1.469   1.143   1.227 -0.2453 -0.4558  0.6513
 1671TIP3    H2 5020   1.350   1.225   1.272 -1.1437 -2.5192  2.1974
 1672TIP3   OH2 5021   1.069   0.459   1.560 -0.1725 -0.1576 -0.5248
 1672TIP3    H1 5022   1.068   0.487   1.652 -0.4605 -1.9017  0.0563
 1672TIP3    H2 5023   1.021   0.528   1.513  0.9324  1.3112  0.4356
 1673TIP3   OH2 5024   1.649   5.467   0.480 -0.0539 -0.2762  0.3805
 1673TIP3    H1 5025   1.622   5.445   0.569 -1.7672 -0.1520 -0.0871
 1673TIP3    H2 5026   1.705   5.393   0.454 -1.1174 -1.2840  0.8673
 1674TIP3   OH2 5027   5.771   0.549   1.836  0.1780 -0.2198 -0.1760
 1674TIP3    H1 5028   5.735   0.637   1.824  1.9830  0.8403  1.6425
 1674TIP3    H2 5029   5.752   0.505   1.753  0.2142  2.2438 -1.6111
 1675TIP3   OH2 5030   5.491   0.212   4.999 -0.0323 -0.2492  0.3201
 1675TIP3    H1 5031   5.537   0.177   4.924  0.8212  1.0845  0.1918
 1675TIP3    H2 5032   5.465   0.135   5.050  0.1342 -1.1213 -0.8753
 1676TIP3   OH2 5033   5.501   1.330   2.429  0.2870  0.0017 -0.6210
 1676TIP3    H1 5034   5.491   1.409   2.375 -0.3299 -1.3639 -2.6480
 1676TIP3    H2 5035   5.411   1.304   2.448  0.4864  0.7592  1.6676
 1677TIP3   OH2 5036   1.658   1.736   3.864  0.0358  0.2501 -0.4754
 1677TIP3    H1 5037   1.600   1.683   3.810 -2.2019  2.5280 -0.4902
 1677TIP3    H2 5038   1.602   1.766   3.937  1.1829  2.4095 -0.3969
 1678TIP3   OH2 5039   0.104   1.074   4.716 -0.4212  0.2512 -0.0321
 1678TIP3    H1 5040   0.047   1.011   4.760 -0.0811  0.1005  0.2045
 1678TIP3    H2 5041   0.173   1.093   4.780  1.0933 -1.3253 -1.0930
 1679TIP3   OH2 5042   0.955   4.142   3.753 -0.1468 -0.3136  0.0142
 1679TIP3    H1 5043   0.896   4.217   3.750 -2.2327 -1.5566  3.6995
 1679TIP3    H2 5044   1.026   4.170   3.811  2.1226  0.5114 -2.9077
 1680TIP3   OH2 5045   5.438   4.483   3.759 -0.6153 -0.0647 -0.4994
 1680TIP3    H1 5046   5.418   4.426   3.832 -1.1601 -1.3697 -1.6226
 1680TIP3    H2 5047   5.381   4.452   3.688  2.2879 -1.1295 -2.5381
 1681TIP3   OH2 5048   1.775   1.762   1.483  0.2663 -0.3684  0.2146
 1681TIP3    H1 5049   1.757   1.843   1.530  2.2412 -0.8244  1.9196
 1681TIP3    H2 5050   1.815   1.791   1.401  0.4674  0.4186  0.5736
 1682TIP3   OH2 5051   3.992   5.684   1.917  0.4215  0.1754 -0.4006
 1682TIP3    H1 5052   4.020   5.730   1.996 -0.5052 -1.5736  1.0036
 1682TIP3    H2 5053   3.920   5.628   1.945  0.7189 -1.2574 -2.2772
 1683TIP3   OH2 5054   1.554   4.249   2.904  0.0623  0.1358  0.0835
 1683TIP3    H1 5055   1.559   4.344   2.917 -1.8025  0.0603  1.9194
 1683TIP3    H2 5056   1.465   4.226   2.933  1.2505 -2.4799  2.0846
 1684TIP3   OH2 5057   4.165   3.105   2.652 -0.1951  0.3732  0.4838
 1684TIP3    H1 5058   4.160   3.098   2.747 -0.8110  2.3559  0.6494
 1684TIP3    H2 5059   4.133   3.193   2.633  0.0633  0.0777 -1.5569
 1685TIP3   OH2 5060   2.904   1.741   1.106 -0.1092 -0.1933  0.4488
 1685TIP3    H1 5061   2.824   1.709   1.147 -0.0651 -1.2618 -0.2368
 1685TIP3    H2 5062   2.901   1.836   1.115 -0.5490 -0.3427  2.0547
 1686TIP3   OH2 5063   3.941   1.471   1.368 -0.1770 -0.0359  0.2112
 1686TIP3    H1 5064   3.926   1.415   1.292  0.1056 -2.4761  1.8400
 1686TIP3    H2 5065   4.034   1.461   1.387  0.0399  1.6125  0.1167
 1687TIP3   OH2 5066   1.734   0.747   3.376 -0.1757 -0.0020  1.1817
 1687TIP3    H1 5067   1.794   0.760   3.450 -1.5100 -1.5498  2.6275
 1687TIP3    H2 5068   1.648   0.739   3.417 -0.8857 -1.6046 -0.4820
 1688TIP3   OH2 5069   2.372   2.363   5.040 -0.5132  0.5420 -0.4841
 1688TIP3    H1 5070   2.403   2.437   4.988 -0.3212  0.0150 -1.1224
 1688TIP3    H2 5071   2.448   2.339   5.094 -0.6593  0.9773 -0.0772
 1689TIP3   OH2 5072   1.628   3.675   4.463 -0.0470 -0.4644 -0.0286
 1689TIP3    H1 5073   1.664   3.744   4.519  0.6635 -1.7597  1.1652
 1689TIP3    H2 5074   1.560   3.719   4.412  0.9963  1.3252  0.0188
 1690TIP3   OH2 5075   6.000   4.362   1.685 -0.1016  0.4538 -0.1940
 1690TIP3    H1 5076   5.959   4.293   1.736  2.2169  1.0378  2.7127
 1690TIP3    H2 5077   5.930   4.426   1.670 -1.6561 -1.2770 -0.7696
 1691TIP3   OH2 5078   5.444   3.084   2.025 -0.1279 -0.1173 -0.7011
 1691TIP3    H1 5079   5.534   3.056   2.042 -0.4419 -0.0860  1.3623
 1691TIP3    H2 5080   5.393   3.002   2.024 -0.1243 -0.1142 -1.5819
 1692TIP3   OH2 5081   2.142   5.371   0.911  0.1759 -0.3755  0.0689
 1692TIP3    H1 5082   2.056   5.347   0.945  0.2662 -0.1396  0.4591
 1692TIP3    H2 5083   2.182   5.422   0.980  0.3108  0.2095 -0.4314
 1693TIP3   OH2 5084   1.507   5.601   4.304 -0.3254 -0.2979 -0.0996
 1693TIP3    H1 5085   1.481   5.649   4.383 -0.5977  1.7399 -1.3372
 1693TIP3    H2 5086   1.602   5.592   4.311 -0.0855  1.5680 -0.3567
 1694TIP3   OH2 5087   5.981   5.182   2.954 -0.2044  0.9159 -0.3630
 1694TIP3    H1 5088   5.940   5.137   2.880  0.1376 -1.4314  0.7577
 1694TIP3    H2 5089   5.932   5.263   2.963 -3.3224 -0.8071 -0.3274
 1695TIP3   OH2 5090   4.053   5.583   2.912 -0.4140  0.6157  0.1619
 1695TIP3    H1 5091   3.988   5.527   2.870 -0.0335  0.1424  0.1966
 1695TIP3    H2 5092   4.070   5.541   2.996  1.1244 -0.1667 -0.5064
 1696TIP3   OH2 5093   3.132   2.579   1.410  0.1861 -0.1361 -0.2051
 1696TIP3    H1 5094   3.147   2.581   1.505  1.2074 -0.6952 -0.3395
 1696TIP3    H2 5095   3.037   2.578   1.401  0.0704 -1.0415  0.8499
 1697TIP3   OH2 5096   0.752   0.798   3.305  0.3722 -0.0674 -0.3908
 1697TIP3    H1 5097   0.723   0.791   3.214 -2.8689  1.9994  0.3392
 1697TIP3    H2 5098   0.745   0.891   3.326 -2.0123 -0.7732  2.7892
 1698TIP3   OH2 5099   5.113   4.208   3.008 -0.6928 -0.5976  0.2335
 1698TIP3    H1 5100   5.129   4.165   2.924 -2.8507  1.1431 -1.1762
 1698TIP3    H2 5101   5.050   4.152   3.052 -1.4696 -0.2600 -0.4287
 1699TIP3   OH2 5102   3.735   1.941   3.399  0.1528 -0.2662 -0.2528
 1699TIP3    H1 5103   3.729   1.909   3.309  0.3104 -0.2300 -0.2761
 1699TIP3    H2 5104   3.826   1.968   3.409 -0.2991  1.6694 -0.7607
 1700TIP3   OH2 5105   5.980   1.274   3.386  0.2135  0.7048  0.0609
 1700TIP3    H1 5106   6.069   1.295   3.358  0.6491  3.0028  2.7244
 1700TIP3    H2 5107   5.935   1.359   3.387 -1.7264 -0.2602 -0.2051
 1701TIP3   OH2 5108   0.585   0.026   3.136 -0.1352  0.3362  0.5591
 1701TIP3    H1 5109   0.539   0.006   3.217  0.3440 -0.2665  0.6920
 1701TIP3    H2 5110   0.516   0.047   3.074 -0.5581  0.0342  0.9198
 1702TIP3   OH2 5111   6.094   3.218   3.351  0.4505  0.8902  0.5817
 1702TIP3    H1 5112   6.151   3.154   3.309  0.7308  1.3243  0.2819
 1702TIP3    H2 5113   6.013   3.216   3.300  0.1468  0.1868  1.0819
 1703TIP3   OH2 5114   1.104   0.671   4.742  0.1533 -0.7752 -0.2824
 1703TIP3    H1 5115   1.137   0.760   4.755  0.3882 -0.8195 -0.5767
 1703TIP3    H2 5116   1.142   0.643   4.659 -1.9061 -0.2482 -1.4480
 1704TIP3   OH2 5117   4.513   4.285   0.408 -0.3931 -0.0829  0.0690
 1704TIP3    H1 5118   4.457   4.226   0.459  1.0962 -0.9394  0.7709
 1704TIP3    H2 5119   4.574   4.227   0.363  0.4210  0.8655 -0.0774
 1705TIP3   OH2 5120   4.476   0.115   4.365  0.1203  0.2015  0.0749
 1705TIP3    H1 5121   4.476   0.139   4.272  1.5103  0.4077  0.1008
 1705TIP3    H2 5122   4.568   0.118   4.390 -0.1341 -0.8211  1.2231
 1706TIP3   OH2 5123   5.639   2.313   1.718  0.0639  0.1873  0.1681
 1706TIP3    H1 5124   5.704   2.320   1.648 -0.3507  2.5423 -0.0352
 1706TIP3    H2 5125   5.691   2.315   1.799  0.3274  1.3339 -0.0119
 1707TIP3   OH2 5126   3.482   5.688   0.310  0.1908  0.0078  0.2639
 1707TIP3    H1 5127   3.564   5.704   0.356  1.5828 -0.4495 -1.8939
 1707TIP3    H2 5128   3.489   5.741   0.231 -0.9770 -1.0864 -0.6097
 1708TIP3   OH2 5129   6.071   3.322   3.941 -0.4362  0.2514 -0.5371
 1708TIP3    H1 5130   6.115   3.237   3.932 -0.1342  0.4858 -1.3651
 1708TIP3    H2 5131   6.068   3.357   3.852  0.1237  1.4658 -0.0955
 1709TIP3   OH2 5132   5.440   5.764   2.541 -0.4837  0.1828  0.1570
 1709TIP3    H1 5133   5.403   5.677   2.555  0.7321 -0.3030  0.4878
 1709TIP3    H2 5134   5.421   5.811   2.622  0.3380 -0.3307  0.6560
 1710TIP3   OH2 5135   0.270   3.645   3.691 -0.9466 -0.2424 -0.1684
 1710TIP3    H1 5136   0.348   3.590   3.700  0.4442  1.7713  0.7780
 1710TIP3    H2 5137   0.207   3.607   3.752  0.9942  0.7900  2.7022
 1711TIP3   OH2 5138   3.616   4.538   3.732 -0.3837  0.1309 -0.0268
 1711TIP3    H1 5139   3.593   4.450   3.700  1.5153 -0.9646  1.4370
 1711TIP3    H2 5140   3.563   4.549   3.811 -2.1988  1.2547 -1.3110
 1712TIP3   OH2 5141   0.016   5.374   4.043  0.5472  0.5427 -0.7708
 1712TIP3    H1 5142   0.085   5.435   4.069  0.9592 -0.3178  0.2420
 1712TIP3    H2 5143   0.056   5.287   4.054 -0.3192  0.0611 -1.3068
 1713TIP3   OH2 5144   2.435   4.286   1.977 -0.3752  0.3568 -0.3327
 1713TIP3    H1 5145   2.510   4.261   2.032 -1.1098  2.1318  1.6328
 1713TIP3    H2 5146   2.435   4.382   1.980 -1.2290  0.4672 -2.4607
 1714TIP3   OH2 5147   2.388   1.211   2.946 -0.4065  0.1381  0.5024
 1714TIP3    H1 5148   2.351   1.128   2.918  1.1111 -0.0855 -0.9420
 1714TIP3    H2 5149   2.311   1.265   2.968 -1.5616 -0.6835 -1.2698
 1715TIP3   OH2 5150   2.613   5.955   0.431  0.6224  0.0578  0.4336
 1715TIP3    H1 5151   2.636   5.891   0.364  1.4024  0.0333  0.7157
 1715TIP3    H2 5152   2.538   6.002   0.394 -0.5852 -1.6456  0.6367
 1716TIP3   OH2 5153   5.520   3.785   0.768  0.3003 -0.0647  0.7306
 1716TIP3    H1 5154   5.519   3.731   0.689 -1.5002  0.3049  0.4593
 1716TIP3    H2 5155   5.607   3.826   0.768 -0.0355  0.7874 -1.6689
 1717TIP3   OH2 5156   4.309   2.092   3.334 -0.1410 -0.7903 -0.2565
 1717TIP3    H1 5157   4.332   2.156   3.402 -1.0462 -1.2315  0.4780
 1717TIP3    H2 5158   4.216   2.108   3.316  0.2953 -0.0000 -2.1555
 1718TIP3   OH2 5159   5.168   5.944   2.790 -0.1438 -0.2563  0.6505
 1718TIP3    H1 5160   5.187   5.891   2.868 -0.8343 -0.4582  0.6901
 1718TIP3    H2 5161   5.100   6.005   2.818  0.9686  1.0024  0.7362
 1719TIP3   OH2 5162   5.709   3.838   3.118  0.7858  0.3748 -0.3243
 1719TIP3    H1 5163   5.659   3.885   3.185 -0.3163 -1.4511  0.2039
 1719TIP3    H2 5164   5.739   3.907   3.058 -1.8474  1.6725 -0.3224
 1720TIP3   OH2 5165   6.299   4.955   4.000 -0.2504  0.1494 -0.9850
 1720TIP3    H1 5166   6.283   4.895   4.073 -1.8379  0.8737 -0.6898
 1720TIP3    H2 5167   6.384   4.995   4.020 -0.0659 -0.5855 -0.2035
 1721TIP3   OH2 5168   2.596   0.067   3.381 -0.3576  0.6404 -0.0555
 1721TIP3    H1 5169   2.672   0.083   3.437 -0.0231 -1.2716  0.1292
 1721TIP3    H2 5170   2.621   0.103   3.296  0.6794  0.2534  0.0649
 1722TIP3   OH2 5171   5.744   2.554   3.166 -0.0702 -0.0205 -0.5658
 1722TIP3    H1 5172   5.797   2.628   3.139 -0.6906  0.6623  0.0250
 1722TIP3    H2 5173   5.695   2.530   3.088  0.7168 -0.3220 -0.9719
 1723TIP3   OH2 5174   5.904   1.615   3.889 -0.1819  0.1665 -0.1599
 1723TIP3    H1 5175   5.843   1.594   3.819  1.2564  1.2458 -1.8401
 1723TIP3    H2 5176   5.972   1.548   3.883  0.2017  0.5478 -0.1405
 1724TIP3   OH2 5177   4.825   3.055   5.167  0.2545  0.3652  0.0687
 1724TIP3    H1 5178   4.780   3.063   5.084  1.1064 -0.1866 -0.4642
 1724TIP3    H2 5179   4.887   2.983   5.154  1.2705  1.0795  0.7624
 1725TIP3   OH2 5180   5.492   4.469   0.459 -0.4944  0.4782  0.4398
 1725TIP3    H1 5181   5.485   4.373   0.467 -0.7868  0.4760  0.1526
 1725TIP3    H2 5182   5.573   4.482   0.410  0.1412  0.4192  1.4443
 1726TIP3   OH2 5183   1.510   0.078   1.120  0.3076 -0.6389  0.2159
 1726TIP3    H1 5184   1.504   0.173   1.134  1.6834 -0.6581  1.1399
 1726TIP3    H2 5185   1.452   0.041   1.187 -2.2707 -0.4522 -1.7420
 1727TIP3   OH2 5186   1.318   3.973   4.752  0.3570 -0.4348 -0.1101
 1727TIP3    H1 5187   1.340   4.052   4.702  0.2868 -1.5859 -2.0479
 1727TIP3    H2 5188   1.222   3.972   4.754  0.3635 -0.0625  0.6196
 1728TIP3   OH2 5189   4.132   4.082   0.036  0.1480  1.0730 -0.0586
 1728TIP3    H1 5190   4.138   4.018   0.107  2.0003  2.6976  1.3962
 1728TIP3    H2 5191   4.197   4.053  -0.028  1.4261  1.7435  0.8821
 1729TIP3   OH2 5192   5.479   0.415   0.480  0.4958 -0.2881 -0.7269
 1729TIP3    H1 5193   5.462   0.497   0.527 -1.0214  0.0414 -1.8083
 1729TIP3    H2 5194   5.527   0.362   0.544 -1.4243  0.1493  1.2349
 1730TIP3   OH2 5195   5.431   1.331   3.448  0.6700  0.2985  0.2170
 1730TIP3    H1 5196   5.507   1.306   3.397  0.9865 -0.7796  1.1719
 1730TIP3    H2 5197   5.359   1.280   3.411  0.7167  0.2090  0.2477
 1731TIP3   OH2 5198   6.213   2.458   5.046  0.3754  0.0571  0.2051
 1731TIP3    H1 5199   6.197   2.383   5.103 -1.5198 -0.3096 -0.7497
 1731TIP3    H2 5200   6.160   2.528   5.084  0.3433  0.2613 -0.2118
 1732TIP3   OH2 5201   4.493   5.872   4.293 -0.2511  0.0992 -0.2797
 1732TIP3    H1 5202   4.543   5.849   4.214 -1.2508  0.9400 -1.1868
 1732TIP3    H2 5203   4.401   5.863   4.267 -0.6146  1.5467  0.4166
 1733TIP3   OH2 5204   2.731   5.017   0.171 -1.0326  0.2255 -0.1056
 1733TIP3    H1 5205   2.732   5.072   0.092 -0.8113 -0.3298 -0.4956
 1733TIP3    H2 5206   2.647   5.036   0.212 -1.0457  0.7042 -0.3465
 1734TIP3   OH2 5207   5.312   4.037   0.215  0.1472  0.0151 -0.2535
 1734TIP3    H1 5208   5.217   4.022   0.214  0.1425  0.0415 -0.2014
 1734TIP3    H2 5209   5.333   4.059   0.124  0.4329 -2.0362 -0.7318
 1735TIP3   OH2 5210   5.625   4.530   1.441  0.1450  0.2579 -0.5221
 1735TIP3    H1 5211   5.536   4.549   1.472  0.2371  1.0588 -0.7195
 1735TIP3    H2 5212   5.668   4.489   1.515  0.0096  1.0896  0.0272
 1736TIP3   OH2 5213   3.845   1.615   2.992  0.0902 -0.8488  0.1055
 1736TIP3    H1 5214   3.924   1.569   2.962  0.8048 -0.9239  1.9440
 1736TIP3    H2 5215   3.774   1.554   2.977  0.2735 -0.6291 -1.9596
 1737TIP3   OH2 5216   6.234   2.445   3.771 -0.4996 -0.1377  0.2489
 1737TIP3    H1 5217   6.248   2.399   3.854  1.5066  0.1431  0.1271
 1737TIP3    H2 5218   6.311   2.501   3.762  0.5832 -1.9055 -2.9357
 1738TIP3   OH2 5219   4.258   2.406   2.471  0.6919 -0.1280 -0.1535
 1738TIP3    H1 5220   4.204   2.482   2.495  0.7670  0.0643 -0.5694
 1738TIP3    H2 5221   4.296   2.430   2.386  2.0946  0.0759  0.5113
 1739TIP3   OH2 5222   5.652   4.002   5.160  0.3346  0.5598  0.0731
 1739TIP3    H1 5223   5.654   4.059   5.237 -0.3807  1.7863 -0.7770
 1739TIP3    H2 5224   5.700   4.051   5.093  0.7763 -0.4024 -0.3328
 1740TIP3   OH2 5225   3.958   4.319   3.682 -0.3116 -0.1294 -0.0165
 1740TIP3    H1 5226   3.940   4.392   3.623  1.3659 -0.2679 -0.7654
 1740TIP3    H2 5227   4.038   4.345   3.729 -0.3626 -0.9776  0.5703
 1741TIP3   OH2 5228   3.844   0.811   2.966 -0.1670 -0.1833 -0.6183
 1741TIP3    H1 5229   3.925   0.813   3.018 -1.2750  0.8406  1.1677
 1741TIP3    H2 5230   3.793   0.740   3.004 -0.3018 -0.5572 -1.4680
 1742TIP3   OH2 5231   6.218   2.542   4.513  0.3686  0.7484  0.3845
 1742TIP3    H1 5232   6.210   2.531   4.607  1.9535  1.1784  0.6166
 1742TIP3    H2 5233   6.267   2.624   4.503 -2.0110  2.1136 -0.9035
 1743TIP3   OH2 5234   3.004   0.842   4.543 -0.3021 -0.2721  0.0305
 1743TIP3    H1 5235   3.039   0.767   4.493  0.2818  0.0711 -0.0903
 1743TIP3    H2 5236   3.068   0.856   4.613  0.9262  1.6256 -1.3643
 1744TIP3   OH2 5237   3.516   5.416   3.735 -0.0037 -0.0975 -0.2570
 1744TIP3    H1 5238   3.546   5.344   3.678  0.7042 -0.9527  1.1401
 1744TIP3    H2 5239   3.533   5.384   3.824  0.2355  1.7741  0.3964
 1745TIP3   OH2 5240   1.570   4.710   1.907  0.4343 -0.3585  0.0906
 1745TIP3    H1 5241   1.507   4.726   1.978  0.6858 -1.9475  0.7107
 1745TIP3    H2 5242   1.537   4.762   1.834 -1.0226 -0.3463  0.7227
 1746TIP3   OH2 5243   1.573   4.692   0.926  0.1255 -0.1570 -0.2404
 1746TIP3    H1 5244   1.480   4.670   0.931 -0.0661  0.7605  0.4603
 1746TIP3    H2 5245   1.612   4.619   0.878 -0.6069 -1.5507  1.2211
 1747TIP3   OH2 5246   0.185   5.355   0.163 -0.1835  0.5666  0.2519
 1747TIP3    H1 5247   0.195   5.301   0.242  0.2438  0.4629  0.1267
 1747TIP3    H2 5248   0.116   5.311   0.113  0.2172  0.0861  0.1114
 1748TIP3   OH2 5249   0.636   0.569   1.243  0.9971 -0.0936  0.1214
 1748TIP3    H1 5250   0.689   0.536   1.316  0.3139 -0.1237  0.6167
 1748TIP3    H2 5251   0.618   0.660   1.266  2.2025  0.4107 -0.8516
 1749TIP3   OH2 5252   0.524   5.364   0.779  0.8572  0.0039 -0.5056
 1749TIP3    H1 5253   0.454   5.371   0.845  1.4585 -1.5147  0.3220
 1749TIP3    H2 5254   0.482   5.395   0.698 -0.6577 -0.4647  0.0514
 1750TIP3   OH2 5255   4.850   1.337   0.925  0.1245  0.0850  0.3033
 1750TIP3    H1 5256   4.823   1.345   1.016  1.4715 -1.1233  0.8505
 1750TIP3    H2 5257   4.945   1.327   0.928  0.2401  0.3238 -1.2659
 1751TIP3   OH2 5258   4.501   3.461   2.386 -0.2269  0.4374 -0.6625
 1751TIP3    H1 5259   4.540   3.400   2.448 -3.1118 -1.7575 -0.7801
 1751TIP3    H2 5260   4.480   3.539   2.438 -1.6759 -0.9613  0.9638
 1752TIP3   OH2 5261   3.723   1.046   4.659  0.0141  0.1334 -0.3338
 1752TIP3    H1 5262   3.700   1.034   4.567  1.3256 -0.1437 -0.6462
 1752TIP3    H2 5263   3.739   1.139   4.668  1.8752 -0.1008 -0.9015
 1753TIP3   OH2 5264   4.694   2.653   3.641 -0.0841 -0.3227  0.6430
 1753TIP3    H1 5265   4.622   2.699   3.684 -0.6627 -1.1015  0.5105
 1753TIP3    H2 5266   4.661   2.565   3.624  0.8826 -0.6853  0.5483
 1754TIP3   OH2 5267   0.889   3.790   0.817  0.2397 -0.4904  0.3491
 1754TIP3    H1 5268   0.948   3.810   0.745 -1.2309 -0.8458 -1.0050
 1754TIP3    H2 5269   0.919   3.846   0.889  1.3458  0.3417 -0.7215
 1755TIP3   OH2 5270   3.622   0.577   0.855  0.0160  0.2194  0.8027
 1755TIP3    H1 5271   3.668   0.514   0.911  1.2765  0.2504 -0.1587
 1755TIP3    H2 5272   3.687   0.602   0.789 -1.6940 -0.5724 -1.2866
 1756TIP3   OH2 5273   4.737   0.826   0.810 -0.2266  0.1697 -1.3885
 1756TIP3    H1 5274   4.806   0.767   0.780 -0.0703  0.2093 -1.1052
 1756TIP3    H2 5275   4.783   0.896   0.856 -0.3742  0.7589 -2.1119
 1757TIP3   OH2 5276   0.575   1.534   2.488  0.5314  0.0487  0.1587
 1757TIP3    H1 5277   0.572   1.477   2.565  0.9018  0.3692  0.4132
 1757TIP3    H2 5278   0.529   1.614   2.516  0.7952  0.2230  0.0966
 1758TIP3   OH2 5279   1.382   5.825   1.836 -0.1724 -0.0435 -0.0007
 1758TIP3    H1 5280   1.401   5.734   1.811 -1.1535  0.0365 -1.1982
 1758TIP3    H2 5281   1.381   5.824   1.931 -1.8586 -1.7104  0.0391
 1759TIP3   OH2 5282   3.609   4.483   0.886  0.3364  0.2067  0.1817
 1759TIP3    H1 5283   3.597   4.569   0.847  0.3914 -0.1243 -0.5685
 1759TIP3    H2 5284   3.584   4.421   0.817 -1.4387 -0.3750  1.2655
 1760TIP3   OH2 5285   3.477   5.084   0.200  0.3339  0.2304 -0.0958
 1760TIP3    H1 5286   3.388   5.104   0.171  0.4576  0.8070 -0.0901
 1760TIP3    H2 5287   3.493   4.995   0.168 -0.6054 -0.2727  0.7870
 1761TIP3   OH2 5288   5.372   5.411   3.241 -0.3674 -0.6251  0.2721
 1761TIP3    H1 5289   5.341   5.373   3.322  1.9963 -2.9790  0.2106
 1761TIP3    H2 5290   5.465   5.428   3.256 -0.4897  1.7051 -1.0095
 1762TIP3   OH2 5291   2.772   2.836   3.203  0.1897  0.4688  0.2893
 1762TIP3    H1 5292   2.699   2.811   3.146 -1.4019  2.4431  1.3473
 1762TIP3    H2 5293   2.730   2.871   3.282  2.3131  0.3148  1.5722
 1763TIP3   OH2 5294   3.707   4.067   2.472 -0.2000 -0.4812  0.3920
 1763TIP3    H1 5295   3.649   3.998   2.440 -2.4620  2.0783 -1.3279
 1763TIP3    H2 5296   3.779   4.069   2.409 -0.8897 -0.2733 -0.3886
 1764TIP3   OH2 5297   6.249   2.483   2.165 -0.6071 -0.4468 -0.1386
 1764TIP3    H1 5298   6.277   2.561   2.213 -2.3030  0.2455 -0.2326
 1764TIP3    H2 5299   6.283   2.410   2.217  1.2605  0.3031 -0.2048
 1765TIP3   OH2 5300   6.090   4.710   3.631 -0.6034  0.4838  0.0014
 1765TIP3    H1 5301   6.000   4.704   3.664 -1.0821 -0.4200 -1.4135
 1765TIP3    H2 5302   6.115   4.801   3.648 -1.7072  0.6909  0.6061
 1766TIP3   OH2 5303   3.471   3.335   0.205  0.3704  0.1180 -0.2724
 1766TIP3    H1 5304   3.453   3.402   0.139  0.0058 -0.0392 -0.3336
 1766TIP3    H2 5305   3.557   3.301   0.181  0.4180  0.3432 -0.4292
 1767TIP3   OH2 5306   5.904   4.075   1.849  0.0069  0.6644  0.3591
 1767TIP3    H1 5307   5.982   4.064   1.904 -0.6302 -2.6805  0.7612
 1767TIP3    H2 5308   5.901   3.997   1.795 -1.9397  1.7235 -1.1965
 1768TIP3   OH2 5309   0.808   3.365   4.528 -0.5047  0.3820 -0.3553
 1768TIP3    H1 5310   0.746   3.410   4.469 -1.1939 -1.5150 -1.1661
 1768TIP3    H2 5311   0.752   3.315   4.587  0.2392  0.7009  0.6424
 1769TIP3   OH2 5312   3.548   4.677   3.098  0.5348  0.2106 -0.1526
 1769TIP3    H1 5313   3.469   4.714   3.058 -0.0223 -0.9899 -0.2121
 1769TIP3    H2 5314   3.544   4.583   3.076  1.5500 -0.0116  0.5466
 1770TIP3   OH2 5315   1.634   1.319   2.316  0.6076  0.0099 -0.3722
 1770TIP3    H1 5316   1.651   1.228   2.340 -0.0626  0.8118  3.8201
 1770TIP3    H2 5317   1.721   1.358   2.310  0.9132 -0.8078 -2.3783
 1771TIP3   OH2 5318   2.521   2.654   0.054  0.4560 -0.7003  0.2193
 1771TIP3    H1 5319   2.468   2.726   0.089  1.0697 -0.1102 -0.0397
 1771TIP3    H2 5320   2.461   2.605  -0.002  0.9216  1.9779 -2.9557
 1772TIP3   OH2 5321   2.644   1.154   1.142  0.0987  0.5315 -0.1977
 1772TIP3    H1 5322   2.583   1.113   1.203  1.7594 -0.1850  1.0242
 1772TIP3    H2 5323   2.668   1.237   1.183  1.7978 -0.2845  0.5551
 1773TIP3   OH2 5324   6.049   4.470   3.354  0.1436  0.2018 -0.3532
 1773TIP3    H1 5325   5.983   4.462   3.422 -0.5108 -0.4592 -1.0544
 1773TIP3    H2 5326   6.062   4.381   3.321 -1.3826  0.7907 -2.7859
 1774TIP3   OH2 5327   0.425   1.186   1.997 -0.0697 -0.5401  0.2587
 1774TIP3    H1 5328   0.450   1.113   1.940 -0.8983 -0.1098 -0.6943
 1774TIP3    H2 5329   0.496   1.193   2.060  1.1142 -0.7409 -1.0072
 1775TIP3   OH2 5330   1.139   3.119   2.414  0.2487  0.0704 -0.1351
 1775TIP3    H1 5331   1.106   3.069   2.490  0.0355 -0.3860 -0.5182
 1775TIP3    H2 5332   1.060   3.138   2.363  0.2280  1.4622  0.3746
 1776TIP3   OH2 5333   2.757   4.291   2.820  0.3916  0.4147  0.0838
 1776TIP3    H1 5334   2.839   4.285   2.771  1.1137  0.6813  1.2349
 1776TIP3    H2 5335   2.775   4.354   2.889 -0.2722 -0.7149  1.3270
 1777TIP3   OH2 5336   5.219   0.121   0.036 -0.6552  0.1405  0.8766
 1777TIP3    H1 5337   5.183   0.201  -0.001 -0.7483 -0.2636  0.0671
 1777TIP3    H2 5338   5.161   0.100   0.109  1.3020  2.6399  3.3463
 1778TIP3   OH2 5339   3.440   2.384   2.752 -0.0730 -0.5481  0.0492
 1778TIP3    H1 5340   3.417   2.472   2.784  1.0353 -0.3566  0.3867
 1778TIP3    H2 5341   3.445   2.331   2.832 -1.1201 -1.0194 -0.1918
 1779TIP3   OH2 5342   4.056   3.464   0.855 -0.1007 -0.3137  0.6957
 1779TIP3    H1 5343   3.971   3.430   0.827  0.3946 -1.0837  0.1056
 1779TIP3    H2 5344   4.070   3.425   0.941 -0.3055 -0.2520  0.7581
 1780TIP3   OH2 5345   1.500   3.575   3.823  0.0583 -0.0793  0.1686
 1780TIP3    H1 5346   1.476   3.487   3.795 -3.3812  0.8109 -0.2771
 1780TIP3    H2 5347   1.454   3.586   3.906  0.3088  1.3043  0.1412
 1781TIP3   OH2 5348   0.952   1.703   0.030  0.3084  0.3481  0.5307
 1781TIP3    H1 5349   1.025   1.756   0.064  0.8122 -0.5488  0.8841
 1781TIP3    H2 5350   0.904   1.762  -0.027  0.8540  1.1917  0.9255
 1782TIP3   OH2 5351   0.218   2.476   1.970 -0.3587  0.1036  0.5544
 1782TIP3    H1 5352   0.177   2.462   1.885  2.0156 -0.8977 -0.5322
 1782TIP3    H2 5353   0.206   2.393   2.016  1.0262 -0.4945 -0.0904
 1783TIP3   OH2 5354   3.743   4.102   4.646  0.0918  0.5022  0.1070
 1783TIP3    H1 5355   3.835   4.076   4.638 -0.4976 -1.9593  0.3708
 1783TIP3    H2 5356   3.734   4.128   4.738  0.6073  1.1403 -0.0205
 1784TIP3   OH2 5357   3.621   2.690   4.887 -0.2250  0.3341 -0.1598
 1784TIP3    H1 5358   3.664   2.766   4.848  0.1833  0.1760 -0.0143
 1784TIP3    H2 5359   3.529   2.717   4.895  0.1807  1.4043  1.3154
 1785TIP3   OH2 5360   4.255   4.332   5.172 -0.5396 -0.3345  0.5559
 1785TIP3    H1 5361   4.336   4.382   5.184 -1.1544  0.7836  0.1974
 1785TIP3    H2 5362   4.191   4.396   5.140 -1.5041 -1.2446  0.5842
 1786TIP3   OH2 5363   2.209   2.505   0.333 -0.2982  0.1700 -0.1428
 1786TIP3    H1 5364   2.235   2.595   0.314 -1.2798  0.6116  0.4961
 1786TIP3    H2 5365   2.280   2.470   0.387 -0.3695  0.8994  0.4453
 1787TIP3   OH2 5366   0.857   3.353   2.076 -0.0151 -0.3747 -0.3374
 1787TIP3    H1 5367   0.920   3.421   2.051 -0.8643  0.4167 -0.3342
 1787TIP3    H2 5368   0.780   3.400   2.105  0.2053 -1.2918  1.9498
 1788TIP3   OH2 5369   4.058   2.950   2.078  0.0084 -0.0631  0.2620
 1788TIP3    H1 5370   4.062   2.902   1.995 -0.3967  0.9733 -0.3800
 1788TIP3    H2 5371   4.035   2.883   2.143 -0.8584 -0.6980 -0.6525
 1789TIP3   OH2 5372   2.256   1.454   3.429  0.1086 -0.0623  0.5635
 1789TIP3    H1 5373   2.301   1.415   3.354  0.4860  0.1599  0.6715
 1789TIP3    H2 5374   2.326   1.496   3.479 -0.4262  1.7900 -0.1752
 1790TIP3   OH2 5375   3.620   5.602   2.613  0.0501 -0.3044  0.1654
 1790TIP3    H1 5376   3.650   5.691   2.635 -0.5683 -0.0787  0.1192
 1790TIP3    H2 5377   3.573   5.612   2.531 -0.0867 -0.6701  0.1981
 1791TIP3   OH2 5378   3.874   1.432   0.144 -0.0468 -0.3689  0.0052
 1791TIP3    H1 5379   3.896   1.353   0.094 -0.9630 -0.2685 -0.5992
 1791TIP3    H2 5380   3.953   1.453   0.193  0.5650 -1.0398 -0.6626
 1792TIP3   OH2 5381   4.771   3.782   0.071  0.0525  0.0633 -0.0491
 1792TIP3    H1 5382   4.712   3.830   0.014 -0.3679  0.1002  0.4129
 1792TIP3    H2 5383   4.744   3.806   0.160  0.8258  0.1629  0.1681
 1793TIP3   OH2 5384   3.005   3.040   2.426 -0.5038 -0.0625 -0.1270
 1793TIP3    H1 5385   3.083   3.076   2.385 -0.2897 -1.9551 -1.5433
 1793TIP3    H2 5386   2.964   3.114   2.471  1.5070  1.1960 -0.2685
 1794TIP3   OH2 5387   3.735   2.445   0.056 -0.3023  0.5333  0.7629
 1794TIP3    H1 5388   3.721   2.368   0.001  0.4954  0.9856 -0.0918
 1794TIP3    H2 5389   3.752   2.516  -0.006  1.4378  0.8878  1.5982
 1795TIP3   OH2 5390   3.348   3.626   2.939  0.3133 -0.2486  0.2392
 1795TIP3    H1 5391   3.410   3.589   3.002  0.1680 -0.0919  0.4765
 1795TIP3    H2 5392   3.283   3.671   2.993  0.0158 -0.3743 -0.0092
 1796TIP3   OH2 5393   4.052   2.562   3.854  0.3868  0.1704 -0.1283
 1796TIP3    H1 5394   4.065   2.505   3.778 -0.4307 -1.8085  1.1403
 1796TIP3    H2 5395   4.134   2.555   3.903  0.0450 -0.4933  0.3673
 1797TIP3   OH2 5396   2.173   0.484   0.468  0.0642 -0.9331  0.1191
 1797TIP3    H1 5397   2.267   0.473   0.481 -0.1641 -2.0896  0.9452
 1797TIP3    H2 5398   2.156   0.444   0.382  0.4742  0.2424 -0.5273
 1798TIP3   OH2 5399   6.214   5.767   1.184  0.3115 -0.0049 -0.5904
 1798TIP3    H1 5400   6.155   5.827   1.229  0.3968  0.3883 -0.9951
 1798TIP3    H2 5401   6.228   5.807   1.098  1.2810 -0.0213 -0.4533
 1799TIP3   OH2 5402   1.669   3.113   1.078 -0.6005  0.0032 -0.2993
 1799TIP3    H1 5403   1.742   3.159   1.037 -1.4488  1.8613  0.1416
 1799TIP3    H2 5404   1.709   3.057   1.144  0.4057  1.8243  0.7138
 1800TIP3   OH2 5405   4.869   4.342   2.905  0.0534 -0.0480  0.6515
 1800TIP3    H1 5406   4.958   4.321   2.934  1.1127  2.3403 -0.5620
 1800TIP3    H2 5407   4.880   4.372   2.814 -1.8190  1.3101  0.8122
 1801TIP3   OH2 5408   3.942   0.761   2.451  0.1081  0.7684 -0.0567
 1801TIP3    H1 5409   3.936   0.753   2.546  0.2740  2.4436  0.1256
 1801TIP3    H2 5410   4.032   0.788   2.435  0.5053 -0.9135 -0.8341
 1802TIP3   OH2 5411   3.474   0.107   4.473  0.5219 -0.3330  0.2520
 1802TIP3    H1 5412   3.436   0.020   4.486 -0.4630  0.2255  1.3480
 1802TIP3    H2 5413   3.483   0.142   4.562  0.3318  0.9100 -0.2036
 1803TIP3   OH2 5414   5.146   5.466   4.797  0.5958  0.1957  0.5963
 1803TIP3    H1 5415   5.062   5.473   4.844 -0.7149 -0.0275 -1.5771
 1803TIP3    H2 5416   5.160   5.554   4.762  0.0339 -0.3111 -0.9744
 1804TIP3   OH2 5417   2.839   5.969   3.617 -0.2855 -0.0001  0.6656
 1804TIP3    H1 5418   2.884   5.959   3.533 -1.2120  1.6102 -0.0862
 1804TIP3    H2 5419   2.897   6.024   3.670 -0.5506  0.6003  0.3458
 1805TIP3   OH2 5420   4.886   4.108   0.982 -0.0982  0.0668 -0.1823
 1805TIP3    H1 5421   4.815   4.071   1.034  0.5937  0.1101  0.8309
 1805TIP3    H2 5422   4.941   4.034   0.958  0.1707  0.1757  0.0854
 1806TIP3   OH2 5423   5.562   0.802   0.203 -0.1706  0.5536 -0.2221
 1806TIP3    H1 5424   5.553   0.709   0.226 -2.8677  1.2417  2.1282
 1806TIP3    H2 5425   5.519   0.810   0.118 -2.9545  0.0302  1.0062
 1807TIP3   OH2 5426   0.341   0.226   3.655  0.0643  0.0005 -0.2030
 1807TIP3    H1 5427   0.377   0.297   3.709  2.4751 -0.5059 -0.9944
 1807TIP3    H2 5428   0.252   0.214   3.687  0.6267  1.2658  2.0646
 1808TIP3   OH2 5429   0.416   3.363   1.101 -0.5345  0.2278 -0.2590
 1808TIP3    H1 5430   0.501   3.333   1.070 -0.2488  0.5784  0.1707
 1808TIP3    H2 5431   0.431   3.453   1.130 -0.8043 -0.0539  0.8023
 1809TIP3   OH2 5432   3.391   3.916   0.810 -0.4641 -0.2067 -0.1426
 1809TIP3    H1 5433   3.365   3.992   0.862  0.8182 -0.9683  1.7191
 1809TIP3    H2 5434   3.397   3.844   0.873  1.8629 -1.0253 -1.1996
 1810TIP3   OH2 5435   0.765   3.972   3.054 -0.4361 -0.3238 -0.1515
 1810TIP3    H1 5436   0.739   3.889   3.094  0.1161 -0.4260 -0.0060
 1810TIP3    H2 5437   0.839   4.003   3.106  1.3997 -1.2949 -2.0367
 1811TIP3   OH2 5438   5.193   4.924   0.697 -0.0796  0.0552  0.5280
 1811TIP3    H1 5439   5.165   4.993   0.637 -0.2651 -0.0860  0.4538
 1811TIP3    H2 5440   5.282   4.902   0.669 -1.1215 -1.9561 -1.4600
 1812TIP3   OH2 5441   5.381   0.885   5.045  0.2464  0.7420 -0.1741
 1812TIP3    H1 5442   5.437   0.815   5.078 -1.2582  0.2280  1.4458
 1812TIP3    H2 5443   5.354   0.933   5.123 -0.6023  1.7027 -1.0267
 1813TIP3   OH2 5444   6.160   2.978   3.691 -0.2548 -0.5476 -0.4635
 1813TIP3    H1 5445   6.067   2.959   3.679 -0.5766  0.6854 -0.0824
 1813TIP3    H2 5446   6.179   3.046   3.627  0.0251  0.2042  0.3879
 1814TIP3   OH2 5447   3.378   3.322   2.019 -0.5272  0.1658 -0.5223
 1814TIP3    H1 5448   3.420   3.407   2.028 -0.5897  0.2164 -0.7169
 1814TIP3    H2 5449   3.434   3.273   1.960  0.3413 -0.4637  0.7759
 1815TIP3   OH2 5450   2.999   1.387   5.018  0.4727  0.8215  0.4330
 1815TIP3    H1 5451   3.049   1.355   4.943  0.9511  0.6673  0.8150
 1815TIP3    H2 5452   3.018   1.481   5.020  1.8150  0.5473  1.3666
 1816TIP3   OH2 5453   1.455   2.743   4.847  0.2551  0.4049  0.4364
 1816TIP3    H1 5454   1.543   2.747   4.885 -0.0899 -0.2478  1.3452
 1816TIP3    H2 5455   1.405   2.806   4.899 -0.0637 -0.0080  0.6355
 1817TIP3   OH2 5456   6.317   0.955   4.335  0.6068 -0.1231 -0.4021
 1817TIP3    H1 5457   6.257   1.020   4.371  1.2234 -0.4525  1.3120
 1817TIP3    H2 5458   6.348   0.994   4.252  0.9931  1.8049  0.5857
 1818TIP3   OH2 5459   4.770   5.480   1.152  0.1474  0.1954  0.5328
 1818TIP3    H1 5460   4.850   5.454   1.198 -0.0569  0.8339  1.2574
 1818TIP3    H2 5461   4.721   5.532   1.215 -0.6131  0.2392 -0.0748
 1819TIP3   OH2 5462   4.581   2.700   2.938  0.5219  0.0432  0.2385
 1819TIP3    H1 5463   4.661   2.708   2.990  0.9121 -1.7826  0.0058
 1819TIP3    H2 5464   4.585   2.611   2.902 -2.0440 -0.4369  0.9544
 1820TIP3   OH2 5465   1.173   4.324   1.251  0.7308 -0.7718 -0.4618
 1820TIP3    H1 5466   1.180   4.278   1.335  0.8379  1.1872  0.6543
 1820TIP3    H2 5467   1.259   4.362   1.237  0.0882  0.8347 -0.2652
 1821TIP3   OH2 5468   6.294   2.377   0.948  0.0775 -0.2124 -0.1277
 1821TIP3    H1 5469   6.338   2.458   0.922 -1.0959 -0.0668 -1.7659
 1821TIP3    H2 5470   6.335   2.309   0.895  0.5762 -0.6194  0.7454
 1822TIP3   OH2 5471   5.986   0.245   2.539 -0.4442 -0.3593  0.1948
 1822TIP3    H1 5472   6.012   0.337   2.542  1.5720 -0.9017  0.6804
 1822TIP3    H2 5473   5.933   0.238   2.459  1.9775  0.6354 -1.6295
 1823TIP3   OH2 5474   1.796   2.625   4.626  0.1880 -0.1921  0.2507
 1823TIP3    H1 5475   1.788   2.719   4.641  0.3435 -0.3118  1.1753
 1823TIP3    H2 5476   1.794   2.615   4.531  1.6779  0.8910  0.0617
 1824TIP3   OH2 5477   0.454   0.506   5.134 -0.0795 -0.4452 -0.1805
 1824TIP3    H1 5478   0.504   0.556   5.070  0.5709  0.9119  1.3150
 1824TIP3    H2 5479   0.412   0.437   5.083 -1.3620  1.8410 -2.4233
 1825TIP3   OH2 5480   0.425   5.125   4.744 -0.2794 -0.2376 -0.7401
 1825TIP3    H1 5481   0.368   5.143   4.819 -0.3178  0.4391 -0.9263
 1825TIP3    H2 5482   0.468   5.042   4.765  0.1513  0.2406  0.2900
 1826TIP3   OH2 5483   0.132   4.471   2.479 -0.0452 -0.4199 -0.2843
 1826TIP3    H1 5484   0.119   4.566   2.484 -1.3738 -0.4394 -2.4630
 1826TIP3    H2 5485   0.082   4.437   2.553  1.4375  0.5995  1.2649
 1827TIP3   OH2 5486   0.206   5.492   1.636 -0.5739  0.4954  0.3053
 1827TIP3    H1 5487   0.197   5.575   1.589 -0.0866 -0.5991 -1.8406
 1827TIP3    H2 5488   0.116   5.462   1.649 -0.7067  0.4115 -0.7185
 1828TIP3   OH2 5489   3.536   0.974   2.914  0.1459  0.4812 -0.8400
 1828TIP3    H1 5490   3.448   1.009   2.929  0.0990  0.1926 -0.4432
 1828TIP3    H2 5491   3.586   1.000   2.992  0.3385  0.3998 -0.9359
 1829TIP3   OH2 5492   2.072   4.244   2.073 -0.3439  0.4054  0.2883
 1829TIP3    H1 5493   2.030   4.214   1.992  0.3223 -0.0935  0.1273
 1829TIP3    H2 5494   2.075   4.167   2.128  0.1709  0.4943  0.3846
 1830TIP3   OH2 5495   1.152   4.641   3.008  0.2591  0.1845 -0.2529
 1830TIP3    H1 5496   1.082   4.630   2.944  1.5622 -0.7660 -1.5978
 1830TIP3    H2 5497   1.220   4.689   2.961  2.5685 -3.2345 -0.7750
 1831TIP3   OH2 5498   3.206   2.415   1.630 -0.1226 -0.2700 -0.2139
 1831TIP3    H1 5499   3.114   2.433   1.649 -0.3999  1.2229 -2.5970
 1831TIP3    H2 5500   3.231   2.348   1.693 -2.7833 -0.5670  0.6217
 1832TIP3   OH2 5501   4.681   4.011   1.118 -0.3185  0.1486 -0.0498
 1832TIP3    H1 5502   4.641   4.035   1.202  0.8873  0.3140  0.4912
 1832TIP3    H2 5503   4.607   3.990   1.062 -1.1686  0.4362  0.9330
 1833TIP3   OH2 5504   2.118   3.857   4.339 -0.4924  0.2763 -0.1042
 1833TIP3    H1 5505   2.153   3.861   4.250  2.0070 -0.5078  0.7452
 1833TIP3    H2 5506   2.149   3.773   4.373 -2.4125  0.0153  1.1412
 1834TIP3   OH2 5507   4.765   5.243   4.083  0.0793 -0.2846  0.1903
 1834TIP3    H1 5508   4.833   5.204   4.137 -0.3851 -1.8807 -0.3038
 1834TIP3    H2 5509   4.725   5.310   4.138 -0.2930 -1.7599  1.7994
 1835TIP3   OH2 5510   0.701   1.381   2.278 -0.3380  0.0922  0.0877
 1835TIP3    H1 5511   0.670   1.418   2.195 -0.9274 -0.1897  0.1726
 1835TIP3    H2 5512   0.652   1.428   2.345 -1.9052 -1.5277  0.1544
 1836TIP3   OH2 5513   5.659   0.450   3.572 -0.2639 -0.2069 -0.6954
 1836TIP3    H1 5514   5.574   0.482   3.542 -0.7186 -1.4389 -0.7702
 1836TIP3    H2 5515   5.679   0.503   3.649 -0.6843  0.6721 -1.1814
 1837TIP3   OH2 5516   4.366   2.610   2.268  0.3121  0.3855 -0.0016
 1837TIP3    H1 5517   4.417   2.642   2.342 -0.3220 -1.2375  1.2010
 1837TIP3    H2 5518   4.421   2.541   2.229 -0.0609  0.0992 -0.0241
 1838TIP3   OH2 5519   1.948   1.998   3.802 -0.4309 -0.1481 -0.8635
 1838TIP3    H1 5520   1.964   1.919   3.751 -1.1670 -1.4441  0.8036
 1838TIP3    H2 5521   1.993   1.981   3.885  0.5444  1.7823 -0.9483
 1839TIP3   OH2 5522   2.640   0.686   0.808  0.7307  0.1864  0.0062
 1839TIP3    H1 5523   2.612   0.724   0.725  0.2845 -0.9858 -0.3997
 1839TIP3    H2 5524   2.660   0.761   0.864 -0.5348  1.0174 -0.6293
 1840TIP3   OH2 5525   0.352   2.108   3.424  0.3828  0.1117 -0.8078
 1840TIP3    H1 5526   0.302   2.056   3.488  1.0255 -1.1602 -1.3110
 1840TIP3    H2 5527   0.439   2.115   3.463  0.2499  0.9804 -0.6617
 1841TIP3   OH2 5528   5.627   2.914   1.525  0.4833  0.9881 -0.2395
 1841TIP3    H1 5529   5.592   2.835   1.485  1.5699 -0.3697  1.3504
 1841TIP3    H2 5530   5.553   2.955   1.569  0.0300  0.5048 -0.5519
 1842TIP3   OH2 5531   2.427   5.768   1.704 -0.5179 -0.0935 -0.0955
 1842TIP3    H1 5532   2.397   5.854   1.735  2.2128  0.9907 -0.1901
 1842TIP3    H2 5533   2.395   5.763   1.614  0.0814  1.3079 -0.4211
 1843TIP3   OH2 5534   1.700   5.883   1.132  0.5533  0.3137 -0.0212
 1843TIP3    H1 5535   1.765   5.859   1.065 -0.2219 -2.5995  0.1208
 1843TIP3    H2 5536   1.624   5.911   1.081  0.0012 -1.7940 -0.4351
 1844TIP3   OH2 5537   5.156   3.719   2.970 -0.0966  0.0206  0.5001
 1844TIP3    H1 5538   5.076   3.690   3.013  0.1747 -0.8408  0.4483
 1844TIP3    H2 5539   5.126   3.770   2.895 -0.5758  1.5955  1.7056
 1845TIP3   OH2 5540   2.871   0.364   0.831 -0.1685 -0.1263  0.0003
 1845TIP3    H1 5541   2.861   0.437   0.770 -2.1001 -0.4429 -0.1213
 1845TIP3    H2 5542   2.788   0.316   0.826 -0.0579 -0.6747  2.2026
 1846TIP3   OH2 5543   4.757   2.273   0.860 -0.4191 -0.0670 -0.9776
 1846TIP3    H1 5544   4.663   2.289   0.872 -0.5773 -1.5762  0.1442
 1846TIP3    H2 5545   4.799   2.353   0.891 -1.2510 -0.4706  1.3775
 1847TIP3   OH2 5546   0.303   0.747   3.007 -0.3110 -0.4970  0.2039
 1847TIP3    H1 5547   0.234   0.685   2.982  0.2649 -1.0173 -0.1146
 1847TIP3    H2 5548   0.381   0.716   2.961 -0.3693  1.3973 -1.3078
 1848TIP3   OH2 5549   2.601   1.292   4.566 -0.1313 -0.6948  0.0991
 1848TIP3    H1 5550   2.539   1.348   4.520  0.1770 -1.6141 -1.5044
 1848TIP3    H2 5551   2.632   1.230   4.500  1.5091 -1.0986  1.1699
 1849TIP3   OH2 5552   3.730   5.809   1.041 -0.0981  0.1162  0.5583
 1849TIP3    H1 5553   3.757   5.719   1.061  0.9024  0.0559 -0.9784
 1849TIP3    H2 5554   3.810   5.854   1.016 -0.7972  1.0898  0.0155
 1850TIP3   OH2 5555   1.962   5.051   4.242  0.2114  0.1550 -0.3968
 1850TIP3    H1 5556   1.952   5.076   4.334 -0.6452 -2.5730  0.3475
 1850TIP3    H2 5557   2.056   5.038   4.231  0.6020  2.6662 -0.6204
 1851TIP3   OH2 5558   5.749   3.592   3.457 -0.4521  0.2396  0.3831
 1851TIP3    H1 5559   5.693   3.517   3.437  0.7468 -0.5692  0.0016
 1851TIP3    H2 5560   5.778   3.578   3.547  1.2446 -0.7567 -0.2737
 1852TIP3   OH2 5561   4.332   4.358   3.435  0.2940 -0.0137  0.6564
 1852TIP3    H1 5562   4.240   4.385   3.432  0.7003  1.8142 -4.2458
 1852TIP3    H2 5563   4.380   4.440   3.447  1.3489 -0.5875  0.4512
 1853TIP3   OH2 5564   0.846   2.212   4.417  0.0371  0.2846 -0.1137
 1853TIP3    H1 5565   0.847   2.156   4.339  0.6618 -0.4295  0.3910
 1853TIP3    H2 5566   0.856   2.301   4.382  1.4105 -0.1043 -0.8114
 1854TIP3   OH2 5567   3.558   1.160   0.199  0.6737 -0.7035 -0.2670
 1854TIP3    H1 5568   3.484   1.142   0.257 -0.0008  1.7133 -0.2750
 1854TIP3    H2 5569   3.628   1.188   0.257  1.5571 -2.6609 -0.2926
 1855TIP3   OH2 5570   4.087   1.977   4.801  0.2308 -0.0203 -0.1345
 1855TIP3    H1 5571   4.000   1.954   4.771 -0.0601  1.1483 -0.2339
 1855TIP3    H2 5572   4.076   2.000   4.893  0.8167 -1.8949  0.4470
 1856TIP3   OH2 5573   0.406   0.441   3.834 -0.1379  0.3343  0.3595
 1856TIP3    H1 5574   0.343   0.510   3.814  0.5932  0.5135 -1.4946
 1856TIP3    H2 5575   0.489   0.487   3.846  0.2289 -0.1572 -0.2382
 1857TIP3   OH2 5576   4.653   1.403   1.749 -0.3690  0.0181  0.2524
 1857TIP3    H1 5577   4.709   1.467   1.791  0.9229 -1.7614  1.4171
 1857TIP3    H2 5578   4.585   1.383   1.814  0.7213 -1.5902  0.9685
 1858TIP3   OH2 5579   0.189   3.229   1.057 -0.0047 -0.1701  1.4087
 1858TIP3    H1 5580   0.275   3.264   1.077  0.0911  0.1783  0.4359
 1858TIP3    H2 5581   0.163   3.181   1.136  0.4550  0.9276  2.2490
 1859TIP3   OH2 5582   3.721   1.367   5.202 -0.1017 -0.4968 -0.4050
 1859TIP3    H1 5583   3.806   1.371   5.246 -0.4217 -0.4624  0.2102
 1859TIP3    H2 5584   3.729   1.430   5.130 -0.6145  1.8137  1.4469
 1860TIP3   OH2 5585   2.976   1.870   2.718 -0.0984  0.8801  0.0816
 1860TIP3    H1 5586   2.889   1.908   2.723 -0.5919  0.3365 -2.5315
 1860TIP3    H2 5587   3.008   1.896   2.631  1.9925  0.3465  0.6305
 1861TIP3   OH2 5588   3.747   4.423   0.008  0.2053 -0.0574 -0.4064
 1861TIP3    H1 5589   3.794   4.356   0.058 -0.8707 -0.8833 -0.4637
 1861TIP3    H2 5590   3.700   4.374  -0.059 -1.4222  0.6406  0.1901
 1862TIP3   OH2 5591   4.145   5.819   2.848  0.1116 -0.0883 -0.2626
 1862TIP3    H1 5592   4.090   5.859   2.781 -1.5075 -0.2394  0.9114
 1862TIP3    H2 5593   4.112   5.729   2.856 -1.2990  0.5570  2.2542
 1863TIP3   OH2 5594   6.281   3.272   0.701 -0.0778 -0.1559 -0.4030
 1863TIP3    H1 5595   6.281   3.293   0.794  1.2078 -1.4377 -0.0733
 1863TIP3    H2 5596   6.331   3.190   0.695 -0.7606 -0.4882 -2.1333
 1864TIP3   OH2 5597   1.080   2.167   0.895 -0.2952 -0.7319  0.1559
 1864TIP3    H1 5598   1.055   2.220   0.819 -1.9938  0.5348  1.5237
 1864TIP3    H2 5599   1.159   2.121   0.867  1.7930  3.1086 -0.8961
 1865TIP3   OH2 5600   0.121   3.828   0.289  0.1829  0.1806  0.2089
 1865TIP3    H1 5601   0.041   3.775   0.286  0.5548 -0.4030  0.4149
 1865TIP3    H2 5602   0.121   3.876   0.206 -0.3992  0.2166  0.2259
 1866TIP3   OH2 5603   5.038   4.920   1.202 -0.0049 -0.1361 -0.4436
 1866TIP3    H1 5604   4.943   4.920   1.197  0.0750  0.1634 -2.5660
 1866TIP3    H2 5605   5.068   4.909   1.112  1.9876 -2.0477  0.3340
 1867TIP3   OH2 5606   3.603   5.168   2.115 -0.5559 -0.3862  0.1230
 1867TIP3    H1 5607   3.661   5.127   2.178  0.6476 -1.2539 -1.4778
 1867TIP3    H2 5608   3.629   5.132   2.030 -2.3180  0.4804 -0.8607
 1868TIP3   OH2 5609   3.361   3.444   1.159  0.4964 -0.1841 -0.0491
 1868TIP3    H1 5610   3.363   3.349   1.174  0.5075  0.0921  1.9607
 1868TIP3    H2 5611   3.279   3.459   1.113 -0.9726 -0.8922  2.1914
 1869TIP3   OH2 5612   2.958   5.552   0.108 -0.5909  0.3064  0.3313
 1869TIP3    H1 5613   3.041   5.578   0.148 -1.2808  0.2329  1.8602
 1869TIP3    H2 5614   2.943   5.616   0.039  1.9404 -1.0952 -1.6862
 1870TIP3   OH2 5615   0.336   3.476   3.406  0.4447 -0.6381  0.0688
 1870TIP3    H1 5616   0.274   3.431   3.464 -1.1465  0.8944 -0.3536
 1870TIP3    H2 5617   0.378   3.541   3.463 -0.7002  0.4777 -0.3205
 1871TIP3   OH2 5618   5.518   2.836   3.172  0.1456 -0.0505  0.3721
 1871TIP3    H1 5619   5.481   2.749   3.156 -0.5234  0.3373 -0.2188
 1871TIP3    H2 5620   5.612   2.820   3.186  0.0228 -0.8617  0.2920
 1872TIP3   OH2 5621   5.824   2.835   4.427 -0.2998 -0.8324 -0.0538
 1872TIP3    H1 5622   5.804   2.834   4.521 -1.6175  0.3732 -0.2926
 1872TIP3    H2 5623   5.910   2.877   4.421 -1.0178  0.7988  0.5120
 1873TIP3   OH2 5624   3.297   3.226   2.506  0.6911 -0.6536  0.0939
 1873TIP3    H1 5625   3.328   3.264   2.424  1.5715 -0.8917  0.3101
 1873TIP3    H2 5626   3.219   3.277   2.528 -0.1261 -1.2050 -1.3738
 1874TIP3   OH2 5627   4.765   0.127   1.207 -0.5228  0.5152  0.1263
 1874TIP3    H1 5628   4.773   0.132   1.112 -0.6294  0.0692  0.0911
 1874TIP3    H2 5629   4.730   0.039   1.223  0.0327  0.3756  0.6097
 1875TIP3   OH2 5630   0.323   5.923   4.528  1.1047 -0.0402 -0.7931
 1875TIP3    H1 5631   0.280   5.959   4.606 -0.7038  0.4476 -1.9466
 1875TIP3    H2 5632   0.391   5.987   4.506  2.2236 -0.5973  0.8064
 1876TIP3   OH2 5633   1.072   0.301   3.587 -0.1512  0.1144  0.3545
 1876TIP3    H1 5634   1.060   0.217   3.632  0.4104 -0.0367  0.2268
 1876TIP3    H2 5635   1.152   0.290   3.536  0.1778  0.8844  0.6892
 1877TIP3   OH2 5636   3.279   5.042   2.085  0.4662  0.0221 -0.2409
 1877TIP3    H1 5637   3.297   5.123   2.037  0.8596 -0.2815 -0.6130
 1877TIP3    H2 5638   3.360   4.992   2.079  1.3045  0.8959  2.6255
 1878TIP3   OH2 5639   0.494   3.701   2.277 -0.2521  0.0629  0.3701
 1878TIP3    H1 5640   0.513   3.659   2.361  0.0769 -0.4170  0.0602
 1878TIP3    H2 5641   0.400   3.720   2.281 -0.2630 -0.0670  0.7994
 1879TIP3   OH2 5642   4.114   3.625   3.310 -0.7998  0.2466  0.1862
 1879TIP3    H1 5643   4.161   3.557   3.262 -0.5960  0.9943 -0.7049
 1879TIP3    H2 5644   4.023   3.595   3.311 -0.6339 -0.2666  0.2207
 1880TIP3   OH2 5645   4.254   2.836   4.798  0.3540 -0.3811 -0.3429
 1880TIP3    H1 5646   4.208   2.917   4.821  1.3090  0.2912 -0.7527
 1880TIP3    H2 5647   4.226   2.773   4.864 -0.3478  0.2961  0.0268
 1881TIP3   OH2 5648   3.097   1.411   4.477 -0.0997 -0.7823 -0.0534
 1881TIP3    H1 5649   3.122   1.468   4.404  0.4434  0.3072  0.9634
 1881TIP3    H2 5650   3.102   1.466   4.554 -0.4203 -1.9876  0.8644
 1882TIP3   OH2 5651   3.427   4.392   2.903 -0.6049 -0.5345  0.2052
 1882TIP3    H1 5652   3.426   4.378   2.998 -1.7551  0.5717  0.3901
 1882TIP3    H2 5653   3.402   4.307   2.867  0.3904 -1.1257  0.8461
 1883TIP3   OH2 5654   3.843   4.156   0.110  0.3213 -0.0193 -0.0337
 1883TIP3    H1 5655   3.938   4.143   0.104  0.3624 -0.2342  0.8567
 1883TIP3    H2 5656   3.821   4.130   0.200 -1.0461 -2.8830 -1.1000
 1884TIP3   OH2 5657   5.875   2.068   2.169  0.0467 -0.0271 -0.5503
 1884TIP3    H1 5658   5.792   2.022   2.179  0.4790 -0.6496  0.2582
 1884TIP3    H2 5659   5.866   2.115   2.086 -1.0860 -0.1282 -0.5026
 1885TIP3   OH2 5660   3.363   2.354   0.416 -0.2954 -0.3014 -0.1532
 1885TIP3    H1 5661   3.415   2.293   0.364 -0.2947  1.8400 -2.8992
 1885TIP3    H2 5662   3.419   2.377   0.489  0.4843 -2.0192 -0.1630
 1886TIP3   OH2 5663   1.607   1.633   3.465  0.5279 -0.0305  0.1175
 1886TIP3    H1 5664   1.634   1.717   3.504  1.5349 -0.5014  0.4521
 1886TIP3    H2 5665   1.543   1.598   3.527 -1.6745  1.4954 -1.1051
 1887TIP3   OH2 5666   3.951   4.305   1.156  0.5758 -0.0438  0.8164
 1887TIP3    H1 5667   3.927   4.361   1.082 -1.9326 -1.8076  0.1403
 1887TIP3    H2 5668   4.010   4.240   1.119  1.3988  0.5921  0.9953
 1888TIP3   OH2 5669   2.534   5.870   3.941 -0.3931  0.2920 -0.1310
 1888TIP3    H1 5670   2.501   5.840   4.025  1.1483 -1.5098 -0.1002
 1888TIP3    H2 5671   2.501   5.806   3.878  0.1156  0.4823 -0.6023
 1889TIP3   OH2 5672   1.819   1.584   0.464 -0.1341 -0.3272 -0.0440
 1889TIP3    H1 5673   1.744   1.556   0.413  0.3560 -1.6983 -0.0689
 1889TIP3    H2 5674   1.810   1.538   0.548  0.2568  0.1235  0.2537
 1890TIP3   OH2 5675   3.804   1.256   0.905 -0.2659 -0.1199 -0.2786
 1890TIP3    H1 5676   3.825   1.177   0.854 -0.5806  0.5485 -1.4956
 1890TIP3    H2 5677   3.854   1.325   0.862 -0.6625  0.5021  0.2507
 1891TIP3   OH2 5678   4.065  -0.027   2.994 -0.3189  0.1515 -0.7817
 1891TIP3    H1 5679   3.989   0.030   2.977  1.0268  3.0941  1.9986
 1891TIP3    H2 5680   4.139   0.033   2.999  1.4585 -2.0128  1.0145
 1892TIP3   OH2 5681   1.309   1.136   3.608  0.5913 -0.2342 -0.0294
 1892TIP3    H1 5682   1.265   1.083   3.542  0.9161 -1.8247  0.9949
 1892TIP3    H2 5683   1.400   1.141   3.579  0.5067 -0.0212 -0.2583
 1893TIP3   OH2 5684   3.004   1.174   3.505 -0.0256 -0.1262 -0.5266
 1893TIP3    H1 5685   3.021   1.262   3.469  1.3554  0.1641  0.7642
 1893TIP3    H2 5686   2.923   1.147   3.462 -0.0909  1.4746 -1.5149
 1894TIP3   OH2 5687   1.932   1.150   3.722  0.1235 -0.7606 -0.0172
 1894TIP3    H1 5688   1.930   1.126   3.814 -0.0254 -0.3622  0.0838
 1894TIP3    H2 5689   2.014   1.198   3.711 -1.1434  1.6982  0.5489
 1895TIP3   OH2 5690   2.937   3.681   2.323  0.0823 -0.3110  0.5370
 1895TIP3    H1 5691   3.018   3.711   2.281 -0.2518  0.0948  0.1793
 1895TIP3    H2 5692   2.947   3.707   2.415 -0.4060  1.3435  0.1457
 1896TIP3   OH2 5693   1.644   4.432   1.451  0.2164  0.7854 -0.3341
 1896TIP3    H1 5694   1.666   4.339   1.455 -0.2109  0.7063  0.2455
 1896TIP3    H2 5695   1.696   4.466   1.379 -0.6500 -0.1921 -1.4647
 1897TIP3   OH2 5696   2.270   4.214   1.714  0.4659  0.2750  0.7455
 1897TIP3    H1 5697   2.321   4.246   1.787 -0.3881 -0.5041  1.7160
 1897TIP3    H2 5698   2.188   4.183   1.753 -0.3606  0.5992 -0.6305
 1898TIP3   OH2 5699   4.283   4.075   5.150 -0.3908 -0.5720  0.0055
 1898TIP3    H1 5700   4.263   4.167   5.138 -0.3685 -0.4381  0.9148
 1898TIP3    H2 5701   4.199   4.030   5.139 -0.2705 -0.5419 -1.2174
 1899TIP3   OH2 5702   1.292   1.053   4.533  0.3321 -0.3418  0.0372
 1899TIP3    H1 5703   1.333   1.128   4.489 -1.1652  0.2930 -0.3419
 1899TIP3    H2 5704   1.303   0.980   4.473  1.6866 -0.4272  0.3484
 1900TIP3   OH2 5705   2.290   4.978   2.308  0.2104 -0.0915  0.1954
 1900TIP3    H1 5706   2.310   4.885   2.297 -0.5693 -0.3109  0.6217
 1900TIP3    H2 5707   2.211   4.981   2.361  0.5028  0.8337  0.6115
 1901TIP3   OH2 5708   5.384   3.764   3.837  0.5699 -0.4271 -0.0624
 1901TIP3    H1 5709   5.412   3.830   3.774 -0.0187  2.2277  2.2076
 1901TIP3    H2 5710   5.460   3.707   3.848  2.0383  1.3742 -0.3760
 1902TIP3   OH2 5711   2.498   1.829   3.924 -0.4027 -0.0426  0.1638
 1902TIP3    H1 5712   2.451   1.912   3.912 -1.5251 -0.3565  1.9852
 1902TIP3    H2 5713   2.429   1.762   3.922  0.3877 -0.8533 -0.4475
 1903TIP3   OH2 5714   1.180   0.615   3.578  0.1691  0.4730 -0.1192
 1903TIP3    H1 5715   1.267   0.577   3.579  0.5245  1.2280  1.3494
 1903TIP3    H2 5716   1.184   0.686   3.514  1.2342  1.7265  1.2647
 1904TIP3   OH2 5717   5.863   1.824   2.985 -0.0426  0.0190  0.2505
 1904TIP3    H1 5718   5.885   1.839   2.893 -0.8966 -0.7449 -0.0859
 1904TIP3    H2 5719   5.813   1.902   3.010  0.0083  0.1309  0.0136
 1905TIP3   OH2 5720   5.065   2.159   0.706 -0.1225  0.5105 -0.2756
 1905TIP3    H1 5721   5.079   2.204   0.624  1.2533  0.0462 -0.3148
 1905TIP3    H2 5722   5.002   2.213   0.753  1.1887  2.2640 -0.4740
 1906TIP3   OH2 5723   3.940   1.297   1.150 -0.2967 -0.5218 -0.5801
 1906TIP3    H1 5724   3.874   1.299   1.081 -0.3895 -0.6627 -0.4970
 1906TIP3    H2 5725   3.969   1.206   1.152 -1.2518 -0.8237  0.4643
 1907TIP3   OH2 5726   5.831   2.515   0.734  0.1028 -0.4367 -0.0519
 1907TIP3    H1 5727   5.915   2.490   0.771 -0.4104 -2.1617  0.0544
 1907TIP3    H2 5728   5.794   2.433   0.701 -1.6131  0.2393  0.0782
 1908TIP3   OH2 5729   0.845   3.245   2.839 -0.1836  0.0454  0.2926
 1908TIP3    H1 5730   0.890   3.169   2.876  1.7290  1.1980  0.4543
 1908TIP3    H2 5731   0.890   3.321   2.876  1.0375  1.2939 -3.2920
 1909TIP3   OH2 5732   4.401   2.874   2.646  0.1274  0.5015  0.3420
 1909TIP3    H1 5733   4.430   2.859   2.736  0.1490 -0.1728  0.2235
 1909TIP3    H2 5734   4.333   2.941   2.654 -0.5968 -0.2901  0.9795
 1910TIP3   OH2 5735   2.532   3.843   3.854 -0.2222 -0.1962  0.2802
 1910TIP3    H1 5736   2.454   3.830   3.801 -0.6753 -3.6586  1.5410
 1910TIP3    H2 5737   2.605   3.828   3.794 -0.6658 -1.2872 -0.0113
 1911TIP3   OH2 5738   4.378   2.771   4.205 -0.4358  0.2911 -0.4725
 1911TIP3    H1 5739   4.291   2.782   4.167 -0.9808 -2.3484 -0.1756
 1911TIP3    H2 5740   4.362   2.750   4.297  0.1642 -3.5927 -1.0860
 1912TIP3   OH2 5741   3.581   0.673   3.006 -0.3979  0.0949  0.0290
 1912TIP3    H1 5742   3.590   0.765   2.981 -0.7225  0.0912 -0.1142
 1912TIP3    H2 5743   3.555   0.675   3.098 -0.4793  0.1525  0.0056
 1913TIP3   OH2 5744   2.186   4.423   2.876 -0.4178  0.2010 -0.0008
 1913TIP3    H1 5745   2.244   4.349   2.861 -3.1032 -2.6017  2.1744
 1913TIP3    H2 5746   2.102   4.396   2.837 -1.3499  2.3242  0.3977
 1914TIP3   OH2 5747   3.866   2.670   2.412  0.1888 -0.1267  0.0218
 1914TIP3    H1 5748   3.875   2.576   2.394  1.0779 -0.2169  0.8527
 1914TIP3    H2 5749   3.940   2.711   2.368  0.3882  0.0589  0.5213
 1915TIP3   OH2 5750   3.846   3.985   0.719  0.1305  0.0053 -0.5354
 1915TIP3    H1 5751   3.924   3.999   0.666  0.6723 -2.4106 -0.5257
 1915TIP3    H2 5752   3.879   3.978   0.808 -0.2853  0.3592 -0.3533
 1916TIP3   OH2 5753   5.555   3.551   4.758  0.6651  0.0438 -0.6648
 1916TIP3    H1 5754   5.626   3.498   4.795  1.7864  1.8508 -0.1104
 1916TIP3    H2 5755   5.593   3.638   4.748 -0.6869  0.4479 -2.8781
 1917TIP3   OH2 5756   0.868   1.468   2.606  0.0003 -0.2261 -0.0538
 1917TIP3    H1 5757   0.866   1.448   2.512  1.9436 -1.1194  0.0602
 1917TIP3    H2 5758   0.914   1.551   2.611  0.6728 -0.6068  0.1580
 1918TIP3   OH2 5759   5.540   5.399   4.966  0.6755 -0.6158  1.1197
 1918TIP3    H1 5760   5.489   5.362   4.894  1.7675 -1.4135  0.7316
 1918TIP3    H2 5761   5.484   5.469   5.001 -0.9098 -1.8074  1.0795
 1919TIP3   OH2 5762   0.225   4.841   1.931  0.7557 -0.4653  0.2908
 1919TIP3    H1 5763   0.235   4.852   2.026 -0.7899 -0.0407  0.4442
 1919TIP3    H2 5764   0.144   4.791   1.921  1.0941 -0.8278 -0.8108
 1920TIP3   OH2 5765   0.960   5.349   1.083 -0.1740  0.4975 -0.5985
 1920TIP3    H1 5766   0.908   5.303   1.017 -1.1767  0.1851  0.3789
 1920TIP3    H2 5767   0.986   5.431   1.040 -1.4486  0.6524 -1.1310
 1921TIP3   OH2 5768   5.973   5.130   0.223 -0.4064 -0.0465 -0.6894
 1921TIP3    H1 5769   6.023   5.201   0.264  1.8953 -0.8506 -1.9564
 1921TIP3    H2 5770   5.887   5.134   0.266  1.0190  0.7539  2.3743
 1922TIP3   OH2 5771   5.916   0.785   0.067 -0.0106 -0.1629  0.2652
 1922TIP3    H1 5772   5.866   0.707   0.091  0.6724 -0.8853 -0.5999
 1922TIP3    H2 5773   5.950   0.766  -0.021  0.6816  0.8588  0.2911
 1923TIP3   OH2 5774   3.577   4.078   1.220 -0.5221  0.1555 -0.1225
 1923TIP3    H1 5775   3.526   4.078   1.139  0.4714 -2.0045 -0.8117
 1923TIP3    H2 5776   3.609   3.989   1.228  1.5818  0.9677  1.2780
 1924TIP3   OH2 5777   3.047   5.139   2.212  0.0989  0.3303  0.4327
 1924TIP3    H1 5778   3.121   5.128   2.152  0.6128  1.3272  0.8501
 1924TIP3    H2 5779   3.002   5.055   2.211  0.4608  0.1382 -0.8613
 1925TIP3   OH2 5780   4.242   0.348   0.388  0.0081  0.6790  0.3417
 1925TIP3    H1 5781   4.259   0.412   0.457  0.8463  0.0944  0.6916
 1925TIP3    H2 5782   4.300   0.374   0.316  1.7743 -0.7296  1.1673
 1926TIP3   OH2 5783   5.446   4.816   3.462 -0.3304 -0.0027  0.2856
 1926TIP3    H1 5784   5.408   4.805   3.375  0.2432  0.3395 -0.0152
 1926TIP3    H2 5785   5.480   4.905   3.462 -0.0003 -0.1259  0.7287
 1927TIP3   OH2 5786   1.656   0.529   1.041  0.4678 -0.3722 -0.1197
 1927TIP3    H1 5787   1.675   0.460   0.977  1.6196 -0.4374  0.2649
 1927TIP3    H2 5788   1.741   0.568   1.059  0.4180 -1.2902  2.4204
 1928TIP3   OH2 5789   0.220   2.457   4.695 -0.7126  0.5115 -0.0498
 1928TIP3    H1 5790   0.301   2.408   4.710 -0.9227  0.3580  0.5757
 1928TIP3    H2 5791   0.180   2.465   4.781 -1.9763 -0.4448 -0.5232
 1929TIP3   OH2 5792   3.137   1.582   1.162 -0.2191 -0.1621  0.2435
 1929TIP3    H1 5793   3.059   1.632   1.136 -1.1932 -0.9292  1.5738
 1929TIP3    H2 5794   3.188   1.643   1.215  0.5206  0.6002 -1.2893
 1930TIP3   OH2 5795   4.656   3.665   3.207 -0.2427  0.1671 -0.5628
 1930TIP3    H1 5796   4.652   3.758   3.184  0.4674  0.8864  1.8523
 1930TIP3    H2 5797   4.693   3.665   3.296 -2.6746 -2.2505  0.5662
 1931TIP3   OH2 5798   1.886   4.763   1.297  0.3141  0.4603 -0.3355
 1931TIP3    H1 5799   1.907   4.731   1.385 -0.3882 -1.5063 -0.8375
 1931TIP3    H2 5800   1.959   4.821   1.275  1.6950 -0.8311  0.6419
 1932TIP3   OH2 5801   3.576   5.235   4.139  0.6378  0.0742  0.1583
 1932TIP3    H1 5802   3.520   5.306   4.172 -2.4601 -0.3753 -3.4951
 1932TIP3    H2 5803   3.625   5.274   4.067  1.5659 -0.6978  0.3477
 1933TIP3   OH2 5804   2.078   1.895   4.043  0.3422 -0.0694 -0.1342
 1933TIP3    H1 5805   2.027   1.859   4.116  0.4147  0.8083  0.3719
 1933TIP3    H2 5806   2.116   1.976   4.078  0.7924  0.1078 -0.9953
 1934TIP3   OH2 5807   0.799   4.799   1.937 -0.4861  0.2732 -0.2736
 1934TIP3    H1 5808   0.725   4.777   1.993 -1.1202  0.0484 -1.1780
 1934TIP3    H2 5809   0.760   4.823   1.853  0.4401  0.6360 -0.6221
 1935TIP3   OH2 5810   2.608   0.300   0.811  0.5397 -0.6297  0.0482
 1935TIP3    H1 5811   2.557   0.379   0.826 -1.8184 -1.9905 -0.2416
 1935TIP3    H2 5812   2.592   0.278   0.719  2.2196 -0.7667 -0.2466
 1936TIP3   OH2 5813   2.294   4.848   1.607 -0.2535  0.6645  0.4425
 1936TIP3    H1 5814   2.293   4.756   1.579 -0.1698  0.8647 -0.2304
 1936TIP3    H2 5815   2.387   4.869   1.617  0.0496  1.7584 -3.1449
 1937TIP3   OH2 5816   3.004   3.177   1.874 -0.2989 -0.5570  0.4632
 1937TIP3    H1 5817   2.919   3.185   1.917  0.0771 -0.2159  1.1532
 1937TIP3    H2 5818   3.051   3.110   1.925  0.1537 -0.1437  0.5994
 1938TIP3   OH2 5819   3.178   5.870   3.609 -0.1584  0.2104  0.3629
 1938TIP3    H1 5820   3.140   5.861   3.697 -1.2350  1.4643  0.0687
 1938TIP3    H2 5821   3.107   5.844   3.550  0.4293 -0.2401 -0.1593
 1939TIP3   OH2 5822   0.940   3.586   5.061 -0.2968 -0.1234 -0.0925
 1939TIP3    H1 5823   0.861   3.548   5.023  1.1230 -2.3404 -0.9880
 1939TIP3    H2 5824   0.977   3.640   4.990 -0.7882  0.6515  0.2210
 1940TIP3   OH2 5825   1.778   0.019   3.353 -0.0248 -0.3790 -0.1959
 1940TIP3    H1 5826   1.740   0.092   3.403 -1.3185 -1.8873  1.1576
 1940TIP3    H2 5827   1.797  -0.048   3.418 -0.8321 -2.0617 -1.5917
 1941TIP3   OH2 5828   0.149   5.919   1.253 -0.2744  0.2052  0.2147
 1941TIP3    H1 5829   0.077   5.944   1.196 -1.0827 -0.0445  1.0921
 1941TIP3    H2 5830   0.195   6.001   1.272  1.7498 -0.0289 -2.9991
 1942TIP3   OH2 5831   5.464   5.538   0.865 -0.6119 -0.3795  0.0831
 1942TIP3    H1 5832   5.539   5.504   0.914  0.0030 -1.3690 -1.4397
 1942TIP3    H2 5833   5.411   5.461   0.845 -1.2992  0.1221 -0.0658
 1943TIP3   OH2 5834   4.447   2.715   3.870 -0.0548  0.6993 -0.4559
 1943TIP3    H1 5835   4.394   2.758   3.803 -1.3513 -2.3691 -1.5282
 1943TIP3    H2 5836   4.383   2.686   3.936  0.8529  0.8723  0.5306
 1944TIP3   OH2 5837   1.371   4.723   2.826  0.2511  0.1483  0.2566
 1944TIP3    H1 5838   1.416   4.726   2.741 -0.5414  0.7269 -0.1514
 1944TIP3    H2 5839   1.291   4.774   2.813  0.8559  1.5833  1.7901
 1945TIP3   OH2 5840   0.518   1.116   3.030 -0.1985  0.0231  0.3566
 1945TIP3    H1 5841   0.564   1.198   3.048 -0.8788  0.0416  2.2694
 1945TIP3    H2 5842   0.572   1.049   3.073  0.0223 -0.4702 -0.6595
 1946TIP3   OH2 5843   0.448   0.686   4.441 -0.3086 -0.0167 -0.6945
 1946TIP3    H1 5844   0.503   0.714   4.368  1.7966 -1.2097  0.3404
 1946TIP3    H2 5845   0.396   0.763   4.463  0.6390  1.0490 -1.9919
 1947TIP3   OH2 5846   1.372   1.485   1.052  0.0623 -0.0648  0.6911
 1947TIP3    H1 5847   1.362   1.566   1.102  0.4356  0.1137  0.4793
 1947TIP3    H2 5848   1.466   1.468   1.051  0.0901  0.0610 -0.1325
 1948TIP3   OH2 5849   0.755   5.137   5.033 -0.0326  0.2940 -0.1557
 1948TIP3    H1 5850   0.685   5.201   5.018  0.6233  0.7255 -1.5910
 1948TIP3    H2 5851   0.804   5.136   4.951  1.2398 -0.5096  0.5823
 1949TIP3   OH2 5852   5.201   4.893   0.979 -0.0911  0.1021  0.0414
 1949TIP3    H1 5853   5.203   4.900   0.884 -3.2134 -0.7886 -0.1944
 1949TIP3    H2 5854   5.237   4.807   0.999  0.8887  0.4299 -0.2803
 1950TIP3   OH2 5855   3.634   5.267   2.542  0.1913  0.1133 -0.3158
 1950TIP3    H1 5856   3.554   5.321   2.546  0.0644 -0.1302  1.9853
 1950TIP3    H2 5857   3.604   5.182   2.510 -0.7912 -0.3456  1.6172
 1951TIP3   OH2 5858   1.126   1.685   4.954 -0.2746  0.7940  0.2107
 1951TIP3    H1 5859   1.052   1.628   4.977  0.4433 -0.1324  0.3151
 1951TIP3    H2 5860   1.092   1.742   4.886 -1.2355  0.7331  0.6180
 1952TIP3   OH2 5861   0.489   1.093   4.372  0.6416 -0.4622  0.2177
 1952TIP3    H1 5862   0.549   1.119   4.441 -0.6232  2.0481  0.4863
 1952TIP3    H2 5863   0.544   1.047   4.308  2.7810  1.3844  0.6225
 1953TIP3   OH2 5864   1.372   0.677   1.022  0.4976 -0.0497  0.3365
 1953TIP3    H1 5865   1.466   0.660   1.015  0.5175  0.0364  0.3928
 1953TIP3    H2 5866   1.331   0.596   0.994  0.5957 -0.2653  0.8038
 1954TIP3   OH2 5867   0.825   5.794   0.215  0.3378 -0.7158  0.2594
 1954TIP3    H1 5868   0.887   5.772   0.145  1.6077 -0.8515  1.4061
 1954TIP3    H2 5869   0.879   5.822   0.288 -1.0543  2.1676  0.3172
 1955TIP3   OH2 5870   5.203   4.663   2.536 -0.8226  0.4023  0.1461
 1955TIP3    H1 5871   5.259   4.643   2.461 -0.7838 -0.8020  0.4616
 1955TIP3    H2 5872   5.236   4.746   2.570 -0.9761  1.0803 -1.2769
 1956TIP3   OH2 5873   4.595   5.345   2.426  0.0590  0.7558  0.4050
 1956TIP3    H1 5874   4.670   5.385   2.469  1.5471 -0.4072 -1.0065
 1956TIP3    H2 5875   4.583   5.395   2.346  0.2757  0.0371 -0.0868
 1957TIP3   OH2 5876   5.155   3.967   3.600  0.0819  0.4748  0.3537
 1957TIP3    H1 5877   5.163   4.031   3.670  0.1783  1.5731 -0.6201
 1957TIP3    H2 5878   5.165   4.018   3.519 -2.3462 -0.2976 -0.5627
 1958TIP3   OH2 5879   6.061   3.870   3.385 -0.2784 -0.0342 -0.3474
 1958TIP3    H1 5880   6.018   3.807   3.327  0.5456  0.4409 -1.5089
 1958TIP3    H2 5881   5.993   3.933   3.408 -0.8133 -0.6848 -0.1254
 1959TIP3   OH2 5882   5.350   4.404   4.560  0.7753 -0.2712 -0.1096
 1959TIP3    H1 5883   5.288   4.336   4.534  0.1039 -0.1649  1.1704
 1959TIP3    H2 5884   5.343   4.409   4.655  0.0882  2.2518 -0.2138
 1960TIP3   OH2 5885   3.259   0.484   3.483  0.3292  0.0684  0.1920
 1960TIP3    H1 5886   3.256   0.459   3.575  0.4021  0.6627  0.3599
 1960TIP3    H2 5887   3.205   0.563   3.478  0.7113  0.3096 -0.1845
 1961TIP3   OH2 5888   1.120   3.855   2.372  0.3899  0.2127  0.0947
 1961TIP3    H1 5889   1.128   3.792   2.443  1.3588  0.1402 -0.0659
 1961TIP3    H2 5890   1.204   3.899   2.369 -0.1407  1.2469 -0.0573
 1962TIP3   OH2 5891   1.840   4.034   3.915  0.2122 -0.1734  0.2560
 1962TIP3    H1 5892   1.796   3.951   3.932  0.7935 -0.6599 -0.5215
 1962TIP3    H2 5893   1.796   4.070   3.838 -1.6300  1.4433  1.9505
 1963TIP3   OH2 5894   5.798   0.393   1.348 -0.4123  0.2449 -0.3387
 1963TIP3    H1 5895   5.712   0.432   1.333 -0.4358 -0.2081 -1.4303
 1963TIP3    H2 5896   5.860   0.463   1.327 -0.4720 -0.0856 -1.7150
 1964TIP3   OH2 5897   6.264   4.091   3.889  0.2769 -0.3193  0.3454
 1964TIP3    H1 5898   6.352   4.129   3.886  0.4838 -0.8131 -0.0775
 1964TIP3    H2 5899   6.261   4.032   3.814 -0.8020  0.5020 -0.2824
 1965TIP3   OH2 5900   5.466   1.879   3.300  0.1318  0.2935 -0.0150
 1965TIP3    H1 5901   5.502   1.962   3.266  0.6239 -0.2166 -0.7776
 1965TIP3    H2 5902   5.509   1.867   3.384  0.4520  0.5556 -0.1369
 1966TIP3   OH2 5903   5.964   1.001   4.929 -0.5920  0.8209  0.0851
 1966TIP3    H1 5904   5.883   1.002   4.979  0.3776  0.4048  1.7557
 1966TIP3    H2 5905   6.027   1.048   4.984  1.1879 -1.8429  0.5164
 1967TIP3   OH2 5906   1.168   2.881   1.816  0.1125  0.1128  0.3622
 1967TIP3    H1 5907   1.230   2.884   1.744 -0.7200 -1.5130 -0.4705
 1967TIP3    H2 5908   1.165   2.971   1.849  1.4820  0.6061 -0.7751
 1968TIP3   OH2 5909   3.885   0.362   4.926 -0.4022  0.1152 -0.4485
 1968TIP3    H1 5910   3.799   0.403   4.917 -0.4986  0.0395  0.1101
 1968TIP3    H2 5911   3.931   0.386   4.846 -1.4920 -1.1428 -1.5172
 1969TIP3   OH2 5912   2.328   5.807   0.862 -0.2697  0.1754 -0.4079
 1969TIP3    H1 5913   2.329   5.713   0.845  2.2963  0.1673 -0.6041
 1969TIP3    H2 5914   2.341   5.846   0.776  1.1959  0.5695 -0.0387
 1970TIP3   OH2 5915   0.197   2.646   1.666 -0.4369 -0.2292  0.0524
 1970TIP3    H1 5916   0.185   2.710   1.595 -2.4563 -0.4699  0.1007
 1970TIP3    H2 5917   0.261   2.686   1.724  0.1010  0.6789 -1.1276
 1971TIP3   OH2 5918   5.474   1.929   3.685  0.0079  0.1642 -0.3211
 1971TIP3    H1 5919   5.390   1.886   3.702  0.1567 -0.0284 -0.0681
 1971TIP3    H2 5920   5.452   2.005   3.632 -0.1566 -0.8210 -1.7344
 1972TIP3   OH2 5921   6.192   2.136   3.559  0.1751 -0.1167  0.5643
 1972TIP3    H1 5922   6.138   2.058   3.546  1.1949 -0.6999 -0.2620
 1972TIP3    H2 5923   6.135   2.208   3.535 -0.2212 -0.7278 -0.3947
 1973TIP3   OH2 5924   6.327   5.956   1.530 -0.3283 -0.1391 -0.1261
 1973TIP3    H1 5925   6.306   5.870   1.564 -1.0475 -1.1966 -2.9551
 1973TIP3    H2 5926   6.410   5.944   1.483 -0.0032  0.9351  0.1359
 1974TIP3   OH2 5927   1.308   4.139   2.060  0.7713  0.4942  0.4332
 1974TIP3    H1 5928   1.365   4.063   2.073 -0.1219 -0.3419 -0.4293
 1974TIP3    H2 5929   1.254   4.116   1.985  0.6451  2.0975 -0.0023
 1975TIP3   OH2 5930   2.021   4.496   3.896 -0.1025 -0.6988  0.7713
 1975TIP3    H1 5931   2.099   4.543   3.924  1.2679 -2.4671  0.1529
 1975TIP3    H2 5932   1.952   4.525   3.955  0.0829  3.5615 -0.7848
 1976TIP3   OH2 5933   4.515   5.688   0.991  0.5513  0.7483  0.2716
 1976TIP3    H1 5934   4.524   5.601   1.030 -0.6718  0.1662 -0.6640
 1976TIP3    H2 5935   4.573   5.744   1.043  1.6719 -0.6911  0.6363
 1977TIP3   OH2 5936   3.658   1.322   4.206 -0.1559  0.5375 -0.4135
 1977TIP3    H1 5937   3.584   1.359   4.159  0.2951  1.3211 -0.5324
 1977TIP3    H2 5938   3.728   1.387   4.196 -0.1796  0.9756  1.7246
 1978TIP3   OH2 5939   5.645   0.475   1.585  0.3755 -0.0701  0.0214
 1978TIP3    H1 5940   5.715   0.448   1.526 -0.7940 -0.2437 -1.3131
 1978TIP3    H2 5941   5.617   0.393   1.628  0.0670 -0.2177 -0.4601
 1979TIP3   OH2 5942   2.685   0.905   1.536 -0.5917 -0.3107  0.5094
 1979TIP3    H1 5943   2.773   0.897   1.499 -1.5844 -2.0027 -1.7077
 1979TIP3    H2 5944   2.699   0.928   1.628  2.0837  2.2759 -0.3771
 1980TIP3   OH2 5945   2.473   4.295   3.166 -0.2355  0.0532  0.2181
 1980TIP3    H1 5946   2.527   4.359   3.119  0.4929 -1.5457 -1.2046
 1980TIP3    H2 5947   2.386   4.335   3.169 -0.0607  0.6530 -1.6474
 1981TIP3   OH2 5948   1.348   3.248   1.133  0.7040 -0.3664 -0.1325
 1981TIP3    H1 5949   1.417   3.254   1.066  0.2885 -1.5452 -0.7019
 1981TIP3    H2 5950   1.276   3.205   1.088  0.1314 -0.4810  0.8790
 1982TIP3   OH2 5951   4.730   5.398   3.558  0.3054  0.4238  0.0143
 1982TIP3    H1 5952   4.690   5.322   3.517 -0.9462  0.4661  1.0525
 1982TIP3    H2 5953   4.740   5.372   3.650  1.1607  1.0181  0.0926
 1983TIP3   OH2 5954   4.587   4.532   4.857  0.1014 -0.0485 -0.0732
 1983TIP3    H1 5955   4.643   4.461   4.889 -0.0843 -0.5019 -0.7259
 1983TIP3    H2 5956   4.524   4.546   4.928  0.2798 -0.3860  0.1544
 1984TIP3   OH2 5957   3.393   4.784   0.350 -0.7637 -0.2315 -0.4589
 1984TIP3    H1 5958   3.349   4.752   0.429 -0.7334 -0.6970 -0.6246
 1984TIP3    H2 5959   3.341   4.749   0.278  0.8667 -2.3875 -0.7127
 1985TIP3   OH2 5960   4.382   1.697   0.220 -0.1559  0.2329 -0.8226
 1985TIP3    H1 5961   4.370   1.790   0.238 -0.7042  0.3925 -1.9408
 1985TIP3    H2 5962   4.415   1.661   0.302  0.7964  1.5449 -0.5915
 1986TIP3   OH2 5963   1.290   0.189   3.046  0.0309 -0.4019  0.2861
 1986TIP3    H1 5964   1.318   0.123   2.983  0.4734 -0.1809  0.2513
 1986TIP3    H2 5965   1.358   0.187   3.114  0.7678  0.9710 -0.3852
 1987TIP3   OH2 5966   1.963   4.776   3.766 -0.0169  0.1161 -0.3034
 1987TIP3    H1 5967   1.949   4.682   3.760  1.0996 -0.1293  0.5600
 1987TIP3    H2 5968   1.971   4.793   3.860 -1.0472  1.2214 -0.3817
 1988TIP3   OH2 5969   5.121   1.545   3.467  0.3129  0.4054 -0.3285
 1988TIP3    H1 5970   5.069   1.465   3.458  0.5228  0.2479 -0.1401
 1988TIP3    H2 5971   5.183   1.526   3.537  0.2304  0.8031 -0.1432
 1989TIP3   OH2 5972   2.714   1.674   0.141  0.2687 -0.2629  0.7241
 1989TIP3    H1 5973   2.758   1.742   0.090 -0.7966  1.5950  2.1599
 1989TIP3    H2 5974   2.731   1.697   0.232 -2.0851 -0.4954  1.2917
 1990TIP3   OH2 5975   0.076   1.895   3.509  0.1083  0.3588 -0.2340
 1990TIP3    H1 5976   0.062   1.854   3.424 -1.0632 -0.2146  0.2177
 1990TIP3    H2 5977   0.049   1.986   3.497  2.2822  0.9661 -1.1126
 1991TIP3   OH2 5978   3.768   4.029   5.117 -0.4278  0.0885  0.2726
 1991TIP3    H1 5979   3.845   3.972   5.112  1.6490  2.6921  0.1030
 1991TIP3    H2 5980   3.755   4.044   5.211 -0.6828 -0.3140  0.3001
 1992TIP3   OH2 5981   5.939   3.071   3.553  0.1254 -0.3853 -0.3183
 1992TIP3    H1 5982   5.948   3.150   3.499 -1.9904 -0.2665 -0.5773
 1992TIP3    H2 5983   5.876   3.017   3.505 -0.0143 -1.3300  0.8980
 1993TIP3   OH2 5984   2.228   4.389   3.134  0.4510  0.0733  0.0280
 1993TIP3    H1 5985   2.138   4.381   3.167  0.6011 -0.0049  0.4161
 1993TIP3    H2 5986   2.217   4.398   3.039 -0.0463  1.5051  0.1898
 1994TIP3   OH2 5987   5.038   3.853   1.902  0.2947  0.3575 -0.0858
 1994TIP3    H1 5988   5.128   3.883   1.910 -0.5131  3.1269 -0.1472
 1994TIP3    H2 5989   5.036   3.804   1.820  1.8191 -0.1750  0.1658
 1995TIP3   OH2 5990   3.618   0.471   4.029  0.7748 -0.1683  0.5350
 1995TIP3    H1 5991   3.614   0.468   3.933 -0.0163  1.4873  0.4689
 1995TIP3    H2 5992   3.566   0.396   4.057 -1.9879  1.2311 -0.4041
 1996TIP3   OH2 5993   3.995   1.415   1.852  0.1586  0.1262  0.2408
 1996TIP3    H1 5994   4.066   1.415   1.915  0.7925 -0.9494 -0.4299
 1996TIP3    H2 5995   4.005   1.498   1.804 -0.8079  1.3253  2.0140
 1997TIP3   OH2 5996   6.354   3.563   1.230 -0.0212 -0.1330 -0.1979
 1997TIP3    H1 5997   6.287   3.606   1.283 -0.3897 -1.4402  0.4382
 1997TIP3    H2 5998   6.418   3.531   1.293  0.1316 -0.6905 -0.6287
 1998TIP3   OH2 5999   3.977   2.911   0.673 -0.6405  0.0894 -0.5107
 1998TIP3    H1 6000   3.956   2.819   0.657  0.4850 -0.1140 -0.9491
 1998TIP3    H2 6001   3.968   2.922   0.767  0.9652 -0.9641 -0.1892
 1999TIP3   OH2 6002   0.036   5.418   4.894 -0.0452 -0.7036 -0.3699
 1999TIP3    H1 6003   0.110   5.457   4.847 -1.3566 -0.5712 -2.4772
 1999TIP3    H2 6004   0.075   5.349   4.947  2.3640  2.9922  3.2888
 2000TIP3   OH2 6005   5.029   5.890   3.871 -0.0112  0.5994  0.2127
 2000TIP3    H1 6006   5.055   5.882   3.963 -0.3379  0.1392  0.2701
 2000TIP3    H2 6007   5.042   5.982   3.850 -0.4319  0.8187  0.8733
 2001TIP3   OH2 6008   4.179   2.899   5.168 -0.0440  0.0675 -0.2023
 2001TIP3    H1 6009   4.157   2.878   5.259 -0.7058 -0.1743 -0.4092
 2001TIP3    H2 6010   4.157   2.820   5.119  0.8417 -0.0054 -0.5031
 2002TIP3   OH2 6011   0.532   0.621   3.370  0.2711  0.0615 -0.1629
 2002TIP3    H1 6012   0.592   0.692   3.349 -1.8211  1.4147 -2.0360
 2002TIP3    H2 6013   0.573   0.543   3.334  0.3702  1.1489 -2.5775
 2003TIP3   OH2 6014   3.005   0.064   4.374  0.2536 -0.4099 -0.5845
 2003TIP3    H1 6015   3.101   0.066   4.371  0.3388 -1.1326  0.7468
 2003TIP3    H2 6016   2.978   0.142   4.326  1.6161  1.8725  2.0713
 2004TIP3   OH2 6017   1.494   2.180   1.091  0.6735  0.5519  0.2542
 2004TIP3    H1 6018   1.518   2.272   1.101 -0.2821  0.7774  0.6071
 2004TIP3    H2 6019   1.482   2.148   1.180  1.1861  0.0184  0.1435
 2005TIP3   OH2 6020   5.503   1.178   1.220  0.4375  0.0253 -0.2214
 2005TIP3    H1 6021   5.411   1.158   1.202  0.2364 -0.9285  1.5967
 2005TIP3    H2 6022   5.509   1.273   1.212 -0.3662 -0.0191 -1.7066
 2006TIP3   OH2 6023   4.352   5.461   3.247 -0.1806 -0.5181 -0.2818
 2006TIP3    H1 6024   4.410   5.465   3.324  0.3182 -2.3913 -0.5084
 2006TIP3    H2 6025   4.332   5.368   3.237 -2.2893 -0.0391 -0.9472
 2007TIP3   OH2 6026   5.390   4.667   0.094 -0.3793 -0.0820 -0.4117
 2007TIP3    H1 6027   5.463   4.680   0.035 -1.4701 -0.4344 -1.8976
 2007TIP3    H2 6028   5.337   4.746   0.085 -1.8543 -1.1561 -1.8942
 2008TIP3   OH2 6029   5.917   3.186   1.205  0.8446 -0.4580 -0.0081
 2008TIP3    H1 6030   5.847   3.235   1.162  0.2232 -0.5814  0.8476
 2008TIP3    H2 6031   5.961   3.249   1.261  0.8085 -0.6035  0.1851
 2009TIP3   OH2 6032   1.635   0.923   0.481  0.1580  0.4329  0.8378
 2009TIP3    H1 6033   1.661   0.890   0.567  0.6568  2.1752  1.3997
 2009TIP3    H2 6034   1.714   0.919   0.428 -0.2932 -1.2296  0.2116
 2010TIP3   OH2 6035   1.647   4.292   3.202 -0.4044  0.4430 -0.3121
 2010TIP3    H1 6036   1.616   4.220   3.148 -1.8485 -0.2006  1.3037
 2010TIP3    H2 6037   1.629   4.265   3.292 -0.1324  2.4228  0.3898
 2011TIP3   OH2 6038   3.709   4.741   1.460 -0.2699 -0.0919 -0.0538
 2011TIP3    H1 6039   3.674   4.805   1.399 -1.5519 -1.7011 -1.0709
 2011TIP3    H2 6040   3.644   4.671   1.463  0.9162 -1.2160  1.2704
 2012TIP3   OH2 6041   0.740   1.045   1.809 -0.0586  0.2814  0.0912
 2012TIP3    H1 6042   0.698   0.996   1.881 -0.3571  0.6091  0.1415
 2012TIP3    H2 6043   0.781   0.977   1.755  0.2170  0.0352  0.6031
 2013TIP3   OH2 6044   2.726   3.414   4.778 -0.1498  0.2671 -0.1861
 2013TIP3    H1 6045   2.761   3.325   4.782 -2.2578 -0.6187  0.0940
 2013TIP3    H2 6046   2.700   3.425   4.687 -0.2418  0.4571 -0.1365
 2014TIP3   OH2 6047   2.860   0.233   1.957  0.2258  0.0003 -0.0698
 2014TIP3    H1 6048   2.936   0.204   1.907  0.6979  0.1079  0.5656
 2014TIP3    H2 6049   2.885   0.319   1.990 -1.3462  1.4516 -2.3482
 2015TIP3   OH2 6050   1.792   2.043   2.596  0.0719  0.6401  0.3744
 2015TIP3    H1 6051   1.798   2.053   2.501  0.5975  0.8013  0.4192
 2015TIP3    H2 6052   1.763   1.953   2.609  0.9083  0.3147  0.0737
 2016TIP3   OH2 6053   6.251   0.975   0.779  0.6107  0.3544 -0.1690
 2016TIP3    H1 6054   6.260   1.061   0.821 -0.7198 -0.8459  2.8643
 2016TIP3    H2 6055   6.329   0.928   0.806  1.4619  0.6010 -2.0357
 2017TIP3   OH2 6056   2.166   3.319   0.491 -0.6602 -0.0962  0.5739
 2017TIP3    H1 6057   2.240   3.327   0.551 -1.5693  0.6497  1.6571
 2017TIP3    H2 6058   2.189   3.373   0.416  0.9450 -1.8584 -0.2567
 2018TIP3   OH2 6059   6.215   4.422   3.910  0.3314 -0.6054  0.4430
 2018TIP3    H1 6060   6.143   4.363   3.889  1.2444 -1.3746 -0.6346
 2018TIP3    H2 6061   6.234   4.467   3.828 -0.4407  1.3465  1.2730
 2019TIP3   OH2 6062   1.907   4.747   3.193  0.2265 -0.0840 -0.4914
 2019TIP3    H1 6063   1.846   4.674   3.180 -0.4911  0.0013  1.9744
 2019TIP3    H2 6064   1.972   4.735   3.123 -1.0595 -1.7835 -1.5088
 2020TIP3   OH2 6065   4.621   4.753   4.190 -0.5039  0.9981 -0.0855
 2020TIP3    H1 6066   4.624   4.818   4.259  0.7032 -0.5472  1.4118
 2020TIP3    H2 6067   4.611   4.669   4.236 -1.0808  0.0278 -1.8701
 2021TIP3   OH2 6068   3.626   3.162   0.722  0.0373  0.1795  0.0845
 2021TIP3    H1 6069   3.605   3.110   0.800  0.1561  0.2301  0.1499
 2021TIP3    H2 6070   3.653   3.097   0.657 -1.6583 -0.0322 -0.4575
 2022TIP3   OH2 6071   0.815   5.299   2.888 -0.3366  0.2061  0.0800
 2022TIP3    H1 6072   0.822   5.208   2.917  0.1833 -0.2181 -1.2908
 2022TIP3    H2 6073   0.731   5.328   2.923 -0.3322 -0.6684  0.8726
 2023TIP3   OH2 6074   1.345   3.516   3.527 -0.1956 -0.4412 -0.4264
 2023TIP3    H1 6075   1.436   3.532   3.504 -0.1778  0.8848  0.4893
 2023TIP3    H2 6076   1.314   3.455   3.459  0.9347  0.2518 -1.6165
 2024TIP3   OH2 6077   5.497   2.821   4.671 -0.2034  0.3033 -0.4093
 2024TIP3    H1 6078   5.488   2.778   4.757 -1.8252  0.5371 -0.4354
 2024TIP3    H2 6079   5.585   2.795   4.641  0.0438 -0.5158  0.9157
 2025TIP3   OH2 6080   3.163   0.569   2.897 -0.0376 -0.1980 -0.4797
 2025TIP3    H1 6081   3.231   0.599   2.837  1.3185  0.7593  1.4171
 2025TIP3    H2 6082   3.114   0.648   2.919 -1.1769 -0.7190 -1.0811
 2026TIP3   OH2 6083   4.001   2.405   5.078 -0.1000  0.7240 -0.3878
 2026TIP3    H1 6084   4.044   2.450   5.006  1.1419  1.7169  0.9015
 2026TIP3    H2 6085   3.929   2.463   5.103 -1.8509 -0.5884 -2.0684
 2027TIP3   OH2 6086   4.802   5.151   2.200 -0.1040  0.6208  0.1368
 2027TIP3    H1 6087   4.843   5.236   2.184  2.2639 -0.8636 -3.0536
 2027TIP3    H2 6088   4.782   5.118   2.112 -1.0762 -2.0564  1.2596
 2028TIP3   OH2 6089   1.719   4.550   3.181 -0.5918 -0.1628 -0.1494
 2028TIP3    H1 6090   1.684   4.469   3.218 -0.9819  0.4876  0.9609
 2028TIP3    H2 6091   1.691   4.549   3.090 -2.0845 -0.4749  0.2852
 2029TIP3   OH2 6092   1.406   5.152   3.995  0.4498  0.1675  0.0521
 2029TIP3    H1 6093   1.485   5.149   4.049  0.1910  0.2461  0.4362
 2029TIP3    H2 6094   1.396   5.244   3.972 -0.1694  0.3371  0.9588
 2030TIP3   OH2 6095   2.656   0.286   2.429  0.0534  0.3212 -0.2210
 2030TIP3    H1 6096   2.706   0.205   2.441  0.4472  0.4821 -0.7661
 2030TIP3    H2 6097   2.572   0.257   2.393  0.1480  0.1464 -0.3022
 2031TIP3   OH2 6098   1.574   5.895   3.594  0.5522  0.6157 -0.3968
 2031TIP3    H1 6099   1.649   5.835   3.600  0.1337  0.1893  0.8554
 2031TIP3    H2 6100   1.528   5.868   3.515 -0.0550 -1.2648  0.5324
 2032TIP3   OH2 6101   4.826   5.735   1.044 -0.1903 -0.2751 -0.3977
 2032TIP3    H1 6102   4.891   5.738   0.974  1.3811 -1.9406  0.9002
 2032TIP3    H2 6103   4.831   5.645   1.077 -1.7586  0.1313  1.0610
 2033TIP3   OH2 6104   0.560   4.398   4.912  0.3916 -0.0029 -0.3347
 2033TIP3    H1 6105   0.473   4.363   4.929 -0.1046  1.1276 -0.5164
 2033TIP3    H2 6106   0.553   4.440   4.826  0.8774  0.8535  0.0349
 2034TIP3   OH2 6107   4.070   5.885   1.250  0.4323  0.1291 -0.1611
 2034TIP3    H1 6108   4.039   5.891   1.159  0.2476 -1.8413 -0.2703
 2034TIP3    H2 6109   4.163   5.862   1.242  0.4328  0.0235  0.1476
 2035TIP3   OH2 6110   0.862   1.021   2.862  0.7202  0.5106  0.3180
 2035TIP3    H1 6111   0.859   1.107   2.819 -0.5196  0.4916  0.3359
 2035TIP3    H2 6112   0.828   0.960   2.797 -3.0946  0.7558  1.8408
 2036TIP3   OH2 6113   0.874   5.027   0.568  0.2092  0.3629 -0.3736
 2036TIP3    H1 6114   0.949   5.059   0.618 -0.1307  1.5725 -0.6201
 2036TIP3    H2 6115   0.839   4.955   0.621  1.2858  0.0424 -0.0609
 2037TIP3   OH2 6116   5.574   0.765   3.763  0.3990 -0.3537 -0.1304
 2037TIP3    H1 6117   5.597   0.847   3.718  0.9013 -0.8434 -0.7918
 2037TIP3    H2 6118   5.655   0.714   3.762  0.2087 -0.6795  0.6764
 2038TIP3   OH2 6119   2.991   2.590   1.910 -0.2401  0.5378  0.2204
 2038TIP3    H1 6120   3.070   2.568   1.959 -0.4659 -1.1208 -0.1289
 2038TIP3    H2 6121   2.929   2.520   1.930 -0.5646  0.1589 -1.8870
 2039TIP3   OH2 6122   0.568   2.215   4.851 -0.4036  0.5368  0.1031
 2039TIP3    H1 6123   0.663   2.225   4.861 -0.3882  1.0570 -0.4968
 2039TIP3    H2 6124   0.558   2.153   4.778 -0.4965  2.6129 -1.7647
 2040TIP3   OH2 6125   4.320   4.346   2.452 -0.1361 -0.3559 -0.6228
 2040TIP3    H1 6126   4.387   4.285   2.422  1.7448  1.1472  0.2792
 2040TIP3    H2 6127   4.328   4.422   2.394 -0.3017  0.2804  0.1600
 2041TIP3   OH2 6128   5.630   1.491   1.760  0.1544  0.1286  0.1704
 2041TIP3    H1 6129   5.694   1.445   1.707 -0.3940 -0.1030 -0.3062
 2041TIP3    H2 6130   5.625   1.579   1.723 -0.4147 -0.1091 -0.3428
 2042TIP3   OH2 6131   4.011   1.194   1.484  0.1765 -0.1480  0.4025
 2042TIP3    H1 6132   4.069   1.269   1.501 -0.5030  0.6731 -0.7531
 2042TIP3    H2 6133   3.923   1.229   1.494 -0.1473 -1.1705  1.2641
 2043TIP3   OH2 6134   0.204   0.025   1.712 -0.1850  0.5309 -0.5468
 2043TIP3    H1 6135   0.196   0.112   1.750 -0.1086  1.3003 -2.1812
 2043TIP3    H2 6136   0.219   0.041   1.618  2.9078 -1.1393 -0.4755
 2044TIP3   OH2 6137   3.842   5.456   2.057  0.7059 -0.0014 -0.2041
 2044TIP3    H1 6138   3.824   5.489   2.145 -5.2734 -0.8735 -0.7085
 2044TIP3    H2 6139   3.870   5.366   2.071 -2.9476 -1.1214  1.0356
 2045TIP3   OH2 6140   5.283   4.970   4.449  0.2613 -0.0149  0.0119
 2045TIP3    H1 6141   5.194   4.937   4.461  0.9164 -2.2478 -0.8473
 2045TIP3    H2 6142   5.272   5.047   4.393 -1.1970  0.4345  0.8392
 2046TIP3   OH2 6143   0.498   4.891   3.185 -1.1631  0.0060  0.1435
 2046TIP3    H1 6144   0.427   4.828   3.170 -2.1916  0.7940  1.4683
 2046TIP3    H2 6145   0.564   4.842   3.233 -0.2803 -1.0212 -1.9765
 2047TIP3   OH2 6146   2.291   5.420   0.552  0.0481  0.1493 -0.2347
 2047TIP3    H1 6147   2.368   5.376   0.517 -1.8179 -1.4065 -2.7672
 2047TIP3    H2 6148   2.242   5.447   0.475 -2.0818  0.8478  1.2616
 2048TIP3   OH2 6149   0.676   0.081   1.068 -0.5694 -0.5759 -0.0737
 2048TIP3    H1 6150   0.757   0.125   1.042  0.0216 -1.4178  0.2940
 2048TIP3    H2 6151   0.682  -0.005   1.026 -0.3901 -1.3249  1.4280
 2049TIP3   OH2 6152   2.233   0.388   2.284  0.5435  0.1564  0.3607
 2049TIP3    H1 6153   2.139   0.399   2.298  0.0946 -0.2824 -1.8303
 2049TIP3    H2 6154   2.270   0.475   2.301 -0.2411  0.3352  1.2488
 2050TIP3   OH2 6155   3.814   5.600   3.829 -0.5804 -0.2963  0.1116
 2050TIP3    H1 6156   3.881   5.604   3.897  0.6065 -1.0269 -0.9872
 2050TIP3    H2 6157   3.795   5.507   3.819 -0.3801 -0.2415 -0.8890
 2051TIP3   OH2 6158   4.287   0.590   4.031  0.2808  0.6002 -0.0323
 2051TIP3    H1 6159   4.204   0.590   4.078  0.7900 -0.1466  0.9038
 2051TIP3    H2 6160   4.267   0.630   3.946 -1.6119 -1.7409 -0.8148
 2052TIP3   OH2 6161   1.897   1.501   1.533 -0.3540  0.0267  0.2402
 2052TIP3    H1 6162   1.836   1.574   1.524 -1.4514 -0.6737  1.5787
 2052TIP3    H2 6163   1.971   1.538   1.581 -0.3603  0.5290 -0.1209
 2053TIP3   OH2 6164   4.555   1.739   1.756  0.1611  0.3706  0.1115
 2053TIP3    H1 6165   4.472   1.697   1.734  0.8733 -0.9223 -0.1683
 2053TIP3    H2 6166   4.619   1.701   1.695  1.2387  0.2503  1.2684
 2054TIP3   OH2 6167   3.911   3.070   1.517  0.1726 -0.3699 -0.4703
 2054TIP3    H1 6168   3.946   3.155   1.544  1.4285 -0.6742 -1.0509
 2054TIP3    H2 6169   3.832   3.091   1.469 -0.4981  0.3504  0.8936
 2055TIP3   OH2 6170   2.282   5.012   1.848  0.2047 -0.4315  0.1901
 2055TIP3    H1 6171   2.214   4.970   1.796  0.4138 -1.9504  1.0887
 2055TIP3    H2 6172   2.363   4.967   1.822  0.4058 -0.7472  1.3192
 2056TIP3   OH2 6173   4.995   1.203   2.366  0.1245 -0.4563  0.6061
 2056TIP3    H1 6174   5.010   1.132   2.428  0.3936 -0.2825  0.7374
 2056TIP3    H2 6175   4.940   1.265   2.413  0.0862 -0.4614  0.5689
 2057TIP3   OH2 6176   0.647   4.488   0.154  0.2160 -0.2868  0.2181
 2057TIP3    H1 6177   0.624   4.517   0.065  0.8100 -1.4314 -0.3280
 2057TIP3    H2 6178   0.692   4.405   0.141 -0.1992 -0.7576  1.6480
 2058TIP3   OH2 6179   3.047   4.282   3.367  0.3069 -0.3630 -0.1267
 2058TIP3    H1 6180   3.103   4.286   3.445  0.2224  0.3267 -0.0967
 2058TIP3    H2 6181   2.959   4.271   3.402  0.5017 -2.6177 -0.1988
 2059TIP3   OH2 6182   0.544   2.195   2.619  0.1585  0.3732  0.2079
 2059TIP3    H1 6183   0.469   2.254   2.608 -0.0100 -0.0094 -0.8330
 2059TIP3    H2 6184   0.508   2.120   2.667  0.1426  0.6988  0.7010
 2060TIP3   OH2 6185   1.632   3.108   0.756 -0.2210 -0.2178  0.6174
 2060TIP3    H1 6186   1.726   3.110   0.770 -0.0747 -0.2197 -0.2744
 2060TIP3    H2 6187   1.602   3.032   0.805 -0.1124  1.0509  2.7599
 2061TIP3   OH2 6188   0.936   3.197   1.160  0.3301  0.1430  0.4819
 2061TIP3    H1 6189   0.856   3.212   1.108 -0.2273 -2.5238  0.4407
 2061TIP3    H2 6190   1.006   3.189   1.095  0.3701  0.8661  0.4243
 2062TIP3   OH2 6191   5.055   5.616   2.571  0.2849 -0.4646 -0.1975
 2062TIP3    H1 6192   5.138   5.577   2.544  0.5641  0.8665 -1.3548
 2062TIP3    H2 6193   5.063   5.623   2.667  1.8271  0.3069 -0.3394
 2063TIP3   OH2 6194   2.902   4.062   3.712 -0.2560  0.2486  0.2422
 2063TIP3    H1 6195   2.838   3.993   3.729 -0.8690  0.9903  1.0641
 2063TIP3    H2 6196   2.860   4.118   3.646  0.2929 -0.2228 -0.5182
 2064TIP3   OH2 6197   5.535   5.023   1.826  0.4259  0.1285 -0.0542
 2064TIP3    H1 6198   5.496   4.999   1.910 -2.1836  0.8119 -0.9659
 2064TIP3    H2 6199   5.561   4.939   1.787  1.9569 -0.1681  1.5103
 2065TIP3   OH2 6200   0.987   0.049   4.644  0.1700 -0.1128 -0.3938
 2065TIP3    H1 6201   0.945   0.020   4.725 -0.5443 -0.9782 -1.0518
 2065TIP3    H2 6202   0.939   0.003   4.575  1.0080  0.3286 -1.2855
 2066TIP3   OH2 6203   1.124   0.372   4.368 -0.1595  0.2315 -0.2661
 2066TIP3    H1 6204   1.095   0.438   4.431  0.8615 -1.1341  1.7043
 2066TIP3    H2 6205   1.180   0.314   4.418  0.4429 -1.1056 -2.3903
 2067TIP3   OH2 6206   1.447   4.877   3.032 -0.2372 -0.5843  0.6392
 2067TIP3    H1 6207   1.428   4.830   2.951 -1.8091 -0.1896  0.7468
 2067TIP3    H2 6208   1.542   4.888   3.032 -0.1992 -0.6899 -1.0867
 2068TIP3   OH2 6209   1.904   2.459   0.823  0.0808  0.0732 -0.2494
 2068TIP3    H1 6210   1.942   2.473   0.910 -0.5692 -0.0035  0.0525
 2068TIP3    H2 6211   1.840   2.388   0.836 -1.9397  1.8100 -0.2141
 2069TIP3   OH2 6212   4.735   0.259   1.767  0.0913 -0.2032 -0.4194
 2069TIP3    H1 6213   4.715   0.291   1.855 -1.5985 -1.4819 -0.2812
 2069TIP3    H2 6214   4.830   0.271   1.757  0.4403 -0.7028  1.8546
 2070TIP3   OH2 6215   4.078   0.635   4.191 -0.0578 -0.3487 -0.0797
 2070TIP3    H1 6216   4.051   0.726   4.204 -1.8272 -0.5534 -1.8785
 2070TIP3    H2 6217   3.998   0.590   4.163  1.3103 -1.9229 -1.6565
 2071TIP3   OH2 6218   6.147   1.205   3.708 -0.0577 -0.0341  0.7940
 2071TIP3    H1 6219   6.213   1.253   3.658  1.9979 -2.5740  0.8500
 2071TIP3    H2 6220   6.183   1.116   3.716 -2.8947 -1.1943  2.0210
 2072TIP3   OH2 6221   4.927   1.410   0.065  0.0173  0.1374 -0.1638
 2072TIP3    H1 6222   4.927   1.395   0.160 -0.3061 -2.1754 -0.4572
 2072TIP3    H2 6223   4.852   1.468   0.050 -2.0821 -2.1188  0.7334
 2073TIP3   OH2 6224   3.161   2.724   0.254  0.1744  0.7443  0.2524
 2073TIP3    H1 6225   3.187   2.761   0.169  2.6042 -0.5513  0.3522
 2073TIP3    H2 6226   3.189   2.789   0.318 -1.4918  1.6366  0.1323
 2074TIP3   OH2 6227   1.387   2.245   5.038  0.4879  0.0829 -0.1989
 2074TIP3    H1 6228   1.418   2.285   4.957 -0.0990  0.6009 -0.1765
 2074TIP3    H2 6229   1.368   2.154   5.015 -1.6840  0.7298 -1.2038
 2075TIP3   OH2 6230   4.530   0.181   0.382 -0.4234  0.0768  0.1456
 2075TIP3    H1 6231   4.467   0.195   0.453  1.8370 -0.4948  2.4020
 2075TIP3    H2 6232   4.613   0.214   0.416  1.0021 -1.2261 -1.8329
 2076TIP3   OH2 6233   1.349   4.513   4.521 -0.3495  0.4033 -0.2233
 2076TIP3    H1 6234   1.421   4.557   4.476 -0.3081  1.6238  0.9721
 2076TIP3    H2 6235   1.363   4.532   4.614 -1.3521 -0.6598  0.1796
 2077TIP3   OH2 6236   2.451   2.170   0.815  0.2050 -0.3746  0.4158
 2077TIP3    H1 6237   2.432   2.089   0.767 -1.4434 -0.0642  0.4875
 2077TIP3    H2 6238   2.431   2.240   0.753 -2.0351  0.0344  1.5291
 2078TIP3   OH2 6239   1.171   4.669   1.129 -0.1225  0.0482  0.0269
 2078TIP3    H1 6240   1.253   4.644   1.173 -0.3839  1.6659  1.5549
 2078TIP3    H2 6241   1.157   4.760   1.155 -1.2621  0.5236 -2.0460
 2079TIP3   OH2 6242   6.108   3.200   4.937 -0.3051  0.2608 -0.2967
 2079TIP3    H1 6243   6.159   3.279   4.956 -1.8234  1.3661 -0.6073
 2079TIP3    H2 6244   6.168   3.143   4.889  0.3116  2.0252 -1.7152
 2080TIP3   OH2 6245   4.029   1.281   4.942 -0.5755  0.6355 -0.0343
 2080TIP3    H1 6246   4.046   1.325   5.025 -0.0202 -0.9503  0.7444
 2080TIP3    H2 6247   3.983   1.200   4.966  0.8765 -0.5743 -1.1018
 2081TIP3   OH2 6248   1.394   1.744   1.717  0.2947 -0.7763  0.3355
 2081TIP3    H1 6249   1.347   1.671   1.757 -1.2217 -0.6688 -1.1418
 2081TIP3    H2 6250   1.480   1.743   1.759 -0.1191 -2.6284  1.2442
 2082TIP3   OH2 6251   5.116   3.721   3.880 -0.1638  0.4314  0.4396
 2082TIP3    H1 6252   5.209   3.708   3.863 -0.4413 -0.6798 -0.4111
 2082TIP3    H2 6253   5.094   3.654   3.945 -0.9314 -1.3952 -1.5454
 2083TIP3   OH2 6254   0.419   0.812   3.963  0.2488  0.2857 -0.1973
 2083TIP3    H1 6255   0.478   0.753   3.916  0.6999  0.3837  0.2396
 2083TIP3    H2 6256   0.449   0.810   4.053 -0.1780  0.6368 -0.0424
 2084TIP3   OH2 6257   4.888   0.922   4.990 -0.0998 -0.0796 -0.1096
 2084TIP3    H1 6258   4.959   0.938   4.929  1.1529  1.6267  1.6638
 2084TIP3    H2 6259   4.929   0.923   5.076 -1.8927 -1.6993  0.8414
 2085TIP3   OH2 6260   4.880   1.172   0.546 -0.9101  0.3986 -0.7252
 2085TIP3    H1 6261   4.854   1.251   0.593 -0.3764  0.4267 -0.4703
 2085TIP3    H2 6262   4.807   1.111   0.559 -1.7237  1.1413 -1.6629
 2086TIP3   OH2 6263   1.842   2.049   4.712 -0.0551 -0.3272 -0.2422
 2086TIP3    H1 6264   1.759   2.086   4.680  0.2975 -0.1000 -0.9204
 2086TIP3    H2 6265   1.826   2.029   4.804 -0.3951  1.1199  0.0337
 2087TIP3   OH2 6266   4.364   5.894   2.977 -0.2817 -0.5598  0.4823
 2087TIP3    H1 6267   4.330   5.842   3.050  0.0326 -2.1338 -0.4471
 2087TIP3    H2 6268   4.306   5.875   2.904  1.7613 -2.3706 -0.8132
 2088TIP3   OH2 6269   0.511   5.451   3.714 -0.8585 -0.0624 -0.3183
 2088TIP3    H1 6270   0.432   5.499   3.689 -1.2051 -0.0912  0.6592
 2088TIP3    H2 6271   0.578   5.519   3.724 -0.7237 -0.0472 -1.2319
 2089TIP3   OH2 6272   3.268   5.174   4.648 -0.2901 -0.2875  0.5424
 2089TIP3    H1 6273   3.316   5.175   4.732  0.1756  0.1874  0.2819
 2089TIP3    H2 6274   3.221   5.091   4.648  0.8228 -0.9431  0.6562
 2090TIP3   OH2 6275   4.109   2.709   5.000  0.5831 -0.0811 -0.2513
 2090TIP3    H1 6276   4.018   2.682   5.013  0.2237  0.8449 -0.7339
 2090TIP3    H2 6277   4.158   2.627   4.991 -0.0170 -0.6362  1.1241
 2091TIP3   OH2 6278   3.748   5.527   3.527 -0.5286  0.0038 -0.7375
 2091TIP3    H1 6279   3.790   5.457   3.478  0.2654  1.0657 -1.6400
 2091TIP3    H2 6280   3.701   5.483   3.597  0.9573 -1.3501 -0.5250
 2092TIP3   OH2 6281   1.729   4.850   4.393 -0.2593  0.5623 -0.3784
 2092TIP3    H1 6282   1.709   4.884   4.480 -1.9253 -1.2246 -0.0001
 2092TIP3    H2 6283   1.816   4.811   4.401 -0.3932  0.4366  0.4987
 2093TIP3   OH2 6284   4.498   0.128   4.055 -0.2392 -0.1269  0.3314
 2093TIP3    H1 6285   4.415   0.162   4.023 -0.6456 -2.8293 -1.8579
 2093TIP3    H2 6286   4.560   0.144   3.983  0.8095  0.5746  1.3563
 2094TIP3   OH2 6287   5.612   0.600   3.147  0.5856 -0.1439  0.3377
 2094TIP3    H1 6288   5.522   0.627   3.168  1.4457  2.0976  1.4955
 2094TIP3    H2 6289   5.621   0.621   3.053  0.1644  0.5200  0.4339
 2095TIP3   OH2 6290   3.323   1.119   3.331  0.1904  0.4832  0.2931
 2095TIP3    H1 6291   3.391   1.063   3.370 -2.5384 -1.9706  1.9796
 2095TIP3    H2 6292   3.267   1.058   3.283 -1.2745  2.2850 -0.3822
 2096TIP3   OH2 6293   5.569   3.897   1.471  0.0401 -0.6563 -0.4179
 2096TIP3    H1 6294   5.523   3.853   1.400 -0.7287 -2.4068  1.0725
 2096TIP3    H2 6295   5.597   3.981   1.434 -3.1888 -0.0617 -1.8210
 2097TIP3   OH2 6296   0.104   2.520   4.943  0.0604  0.0537  0.3595
 2097TIP3    H1 6297   0.139   2.598   4.987 -0.4759  0.0638  0.7706
 2097TIP3    H2 6298   0.019   2.506   4.983  0.6408 -1.4418  1.1155
 2098TIP3   OH2 6299   5.360   5.896   4.279 -0.1873 -0.3504  0.2064
 2098TIP3    H1 6300   5.413   5.968   4.312 -1.7415  0.3492  1.3088
 2098TIP3    H2 6301   5.389   5.819   4.328  1.0532 -0.3732 -0.5328
 2099TIP3   OH2 6302   1.634   2.979   1.534 -0.4359  0.0982  0.6791
 2099TIP3    H1 6303   1.663   3.051   1.478  1.0445 -1.0469 -0.1138
 2099TIP3    H2 6304   1.697   2.979   1.607  1.4237 -2.1198 -0.8079
 2100TIP3   OH2 6305   6.150   4.321   4.541 -0.0122 -0.4803 -0.2783
 2100TIP3    H1 6306   6.114   4.354   4.458  0.8144  2.1328  0.3177
 2100TIP3    H2 6307   6.073   4.311   4.597 -0.4862 -1.4719 -1.0630
 2101TIP3   OH2 6308   2.208   0.377   1.983  0.7196 -0.6441 -0.3526
 2101TIP3    H1 6309   2.166   0.447   2.033 -0.1819  0.0973 -2.0522
 2101TIP3    H2 6310   2.292   0.364   2.026 -0.0263 -0.1067  1.3657
 2102TIP3   OH2 6311   5.936   0.564   4.421 -0.0618 -0.4164  0.1413
 2102TIP3    H1 6312   5.882   0.545   4.345  2.4194 -1.5139 -1.4902
 2102TIP3    H2 6313   5.898   0.643   4.459 -3.7485 -2.0101  0.1865
 2103TIP3   OH2 6314   2.769   2.668   2.362 -0.3874 -0.4410 -0.4023
 2103TIP3    H1 6315   2.768   2.575   2.382  1.0002 -0.1394  1.3847
 2103TIP3    H2 6316   2.858   2.685   2.332 -0.1112  0.5552  0.8755
 2104TIP3   OH2 6317   5.124   0.942   3.986 -0.1806 -0.0277 -0.0653
 2104TIP3    H1 6318   5.207   0.904   3.956 -1.1037 -1.5101 -0.8505
 2104TIP3    H2 6319   5.101   0.891   4.064 -1.4157 -1.1343 -1.1110
 2105TIP3   OH2 6320   5.355   5.252   4.103 -0.2013 -0.0708 -0.2985
 2105TIP3    H1 6321   5.330   5.215   4.018 -0.0748 -2.6767  0.7039
 2105TIP3    H2 6322   5.293   5.213   4.165 -0.9393  2.5661  0.7440
 2106TIP3   OH2 6323   5.695   1.333   2.638  0.2862 -0.0453  0.3977
 2106TIP3    H1 6324   5.713   1.418   2.679 -2.1595  0.0195  1.4829
 2106TIP3    H2 6325   5.619   1.349   2.582  0.4860 -1.2877 -0.2497
 2107TIP3   OH2 6326   1.145   0.432   0.750  0.0957 -0.7671 -0.3186
 2107TIP3    H1 6327   1.223   0.465   0.704  0.6799 -2.4655 -0.6194
 2107TIP3    H2 6328   1.094   0.389   0.681 -0.1239 -1.3751  0.2171
 2108TIP3   OH2 6329   5.297   2.099   0.080  0.3730 -0.4849  0.2640
 2108TIP3    H1 6330   5.236   2.047   0.028 -2.0183  2.9178 -0.6762
 2108TIP3    H2 6331   5.281   2.071   0.171 -2.5908  0.1723  0.0341
 2109TIP3   OH2 6332   2.083   5.969   4.337  0.0861 -0.4816  0.2067
 2109TIP3    H1 6333   2.175   5.990   4.348  0.1808 -0.0126 -1.1840
 2109TIP3    H2 6334   2.081   5.906   4.265 -0.7141  0.2684 -0.4674
 2110TIP3   OH2 6335   0.195   2.099   1.514  0.3009  0.4671 -0.0586
 2110TIP3    H1 6336   0.122   2.153   1.485  1.0748  1.8113  0.4237
 2110TIP3    H2 6337   0.267   2.161   1.528  0.4307 -0.2451  3.2391
 2111TIP3   OH2 6338   3.381   3.552   2.425  0.0234 -0.5450 -0.0133
 2111TIP3    H1 6339   3.351   3.577   2.512  0.1166  0.2004 -0.1870
 2111TIP3    H2 6340   3.475   3.540   2.434  0.1892  0.5245 -0.2244
 2112TIP3   OH2 6341   3.577   2.316   0.665  0.3411  0.1684 -0.2108
 2112TIP3    H1 6342   3.550   2.396   0.710 -0.4101  0.2617 -0.7974
 2112TIP3    H2 6343   3.672   2.325   0.655  0.1961  1.2569 -0.7770
 2113TIP3   OH2 6344   3.961   0.430   1.830 -0.2456  0.0312  0.0704
 2113TIP3    H1 6345   3.979   0.432   1.736 -0.6403  1.3283  0.0070
 2113TIP3    H2 6346   4.045   0.404   1.869  0.3516  0.9582 -0.5507
 2114TIP3   OH2 6347   5.425   1.785   0.467 -0.1423  0.4611  0.0665
 2114TIP3    H1 6348   5.395   1.779   0.376 -0.6042  0.1032  0.2379
 2114TIP3    H2 6349   5.505   1.837   0.463  0.4180 -0.4311 -0.6757
 2115TIP3   OH2 6350   0.563   2.393   3.715 -0.0509  0.6168 -0.0949
 2115TIP3    H1 6351   0.656   2.379   3.735 -0.2120 -0.4574 -0.0548
 2115TIP3    H2 6352   0.541   2.473   3.762  1.1410  1.5397 -1.0277
 2116TIP3   OH2 6353   1.564   5.763   1.523  0.0447 -0.1447 -0.4568
 2116TIP3    H1 6354   1.472   5.785   1.509 -0.3560 -1.4048  0.0340
 2116TIP3    H2 6355   1.568   5.736   1.615  1.5251  2.8164  0.4631
 2117TIP3   OH2 6356   1.005   2.638   1.284  0.3177  0.6088 -0.4965
 2117TIP3    H1 6357   1.040   2.558   1.244 -0.6788 -0.6143  0.9742
 2117TIP3    H2 6358   1.071   2.664   1.348 -0.7473 -0.9463  1.3363
 2118TIP3   OH2 6359   0.372   5.364   1.825  0.1980  0.2674 -0.5349
 2118TIP3    H1 6360   0.339   5.426   1.759  0.3858  1.3167  0.3181
 2118TIP3    H2 6361   0.335   5.395   1.907  0.5442 -0.5948 -0.0482
 2119TIP3   OH2 6362   1.477   4.719   5.142  0.0163  0.0188 -0.2318
 2119TIP3    H1 6363   1.460   4.668   5.221 -0.1794  0.2342 -0.1325
 2119TIP3    H2 6364   1.402   4.778   5.136  0.3183  0.3996 -0.2574
 2120TIP3   OH2 6365   5.322   1.513   0.714 -0.1992 -0.2817 -0.2555
 2120TIP3    H1 6366   5.336   1.582   0.778 -0.6727 -0.5972  0.1976
 2120TIP3    H2 6367   5.361   1.435   0.753  2.4460  0.1773 -1.7623
 2121TIP3   OH2 6368   2.327   2.613   1.879  0.3321  0.3560  0.1503
 2121TIP3    H1 6369   2.289   2.679   1.937  1.1111  2.2731 -1.4267
 2121TIP3    H2 6370   2.403   2.579   1.928 -1.0745 -0.7293  1.6939
 2122TIP3   OH2 6371   2.158   4.747   0.502  0.3145 -0.0359  0.1464
 2122TIP3    H1 6372   2.220   4.679   0.476  0.2465 -0.1763  0.3507
 2122TIP3    H2 6373   2.076   4.721   0.461  1.0135  1.6899 -2.6201
 2123TIP3   OH2 6374   3.678   5.745   1.770 -0.0981  0.0816  0.0425
 2123TIP3    H1 6375   3.724   5.662   1.782 -1.5364 -1.3733 -3.1930
 2123TIP3    H2 6376   3.711   5.779   1.686 -0.2425  2.3537  0.8230
 2124TIP3   OH2 6377   4.002   2.525   0.177  0.1612 -0.6473  0.1579
 2124TIP3    H1 6378   4.004   2.619   0.160  1.2917 -0.2624  2.1294
 2124TIP3    H2 6379   3.912   2.499   0.159 -0.1417  0.7797 -0.5199
 2125TIP3   OH2 6380   4.029   5.998   1.521  0.3997 -0.2490  0.2123
 2125TIP3    H1 6381   4.079   5.942   1.462 -1.5268 -1.6112 -0.2193
 2125TIP3    H2 6382   4.094   6.037   1.579  2.0455 -1.0527 -1.0290
 2126TIP3   OH2 6383   3.747   4.193   0.401  0.0973 -0.1109  0.0849
 2126TIP3    H1 6384   3.816   4.258   0.389 -1.7569  1.8847 -0.3818
 2126TIP3    H2 6385   3.791   4.109   0.395  2.4720  1.0873 -0.1206
 2127TIP3   OH2 6386   1.924   0.269   2.196  0.2266  0.9418  0.0470
 2127TIP3    H1 6387   1.953   0.337   2.135 -0.0302  0.7118 -0.3336
 2127TIP3    H2 6388   1.831   0.259   2.179  0.2390  0.5728  0.1817
 2128TIP3   OH2 6389   4.566   1.402   0.723 -0.0745  0.5609 -0.7404
 2128TIP3    H1 6390   4.504   1.466   0.758 -1.4166  0.2425 -2.4319
 2128TIP3    H2 6391   4.596   1.353   0.800 -1.0847  1.4382  0.2448
 2129TIP3   OH2 6392   4.849   4.209   4.199  0.4027  0.4034  0.0591
 2129TIP3    H1 6393   4.838   4.198   4.294 -0.4986  2.0695  0.1767
 2129TIP3    H2 6394   4.943   4.211   4.186  0.5486  1.6201  1.1334
 2130TIP3   OH2 6395   4.201   2.054   1.555  0.2963  0.8440  0.5218
 2130TIP3    H1 6396   4.283   2.090   1.588  0.3384  0.1281  1.2384
 2130TIP3    H2 6397   4.165   2.004   1.629 -2.5644  3.9738  1.4758
 2131TIP3   OH2 6398   3.878   0.524   3.983  0.0516  0.9495 -0.0330
 2131TIP3    H1 6399   3.887   0.531   3.888  0.5589  1.2029  0.0310
 2131TIP3    H2 6400   3.787   0.498   3.996  0.2548 -0.1851 -0.6431
 2132TIP3   OH2 6401   0.209   2.011   4.195 -0.3075  1.0964  0.3370
 2132TIP3    H1 6402   0.140   1.959   4.236  0.6796 -0.2684  0.3094
 2132TIP3    H2 6403   0.272   2.027   4.265 -0.4228  1.9798  0.2577
 2133TIP3   OH2 6404   0.328   4.955   1.139  0.0700 -0.0476 -0.0429
 2133TIP3    H1 6405   0.237   4.985   1.129  0.3038  0.7927  0.2513
 2133TIP3    H2 6406   0.379   5.036   1.145  1.0553 -0.4592 -1.9890
 2134TIP3   OH2 6407   4.088   0.692   0.435 -0.3796  0.1006  0.3122
 2134TIP3    H1 6408   4.041   0.666   0.355 -1.2858  0.3454  0.7542
 2134TIP3    H2 6409   4.176   0.715   0.404 -0.2185 -1.3413 -0.3971
 2135TIP3   OH2 6410   4.448   0.159   2.064  0.3347  0.7338 -0.3972
 2135TIP3    H1 6411   4.378   0.208   2.107  0.0559  1.2428 -1.4006
 2135TIP3    H2 6412   4.469   0.088   2.125 -1.4901  0.2013 -0.3401
 2136TIP3   OH2 6413   5.142   5.020   3.410 -0.0616  0.3472 -0.3967
 2136TIP3    H1 6414   5.094   5.100   3.386 -0.6148  0.2729  0.4242
 2136TIP3    H2 6415   5.211   5.050   3.468 -0.5115  0.1940  0.2299
 2137TIP3   OH2 6416   2.367   4.719   3.119 -0.0284  0.8059  0.4856
 2137TIP3    H1 6417   2.278   4.755   3.119  0.3776  1.9482  2.2286
 2137TIP3    H2 6418   2.424   4.795   3.108  0.7626  0.1206 -0.3271
 2138TIP3   OH2 6419   4.944   3.699   4.791 -0.2336 -0.2965  0.2786
 2138TIP3    H1 6420   4.972   3.613   4.820 -0.0373  0.3405  2.0717
 2138TIP3    H2 6421   4.893   3.682   4.711  2.2710 -1.7739 -1.1054
 2139TIP3   OH2 6422   4.249   3.817   2.318  0.7674 -0.3304 -0.3028
 2139TIP3    H1 6423   4.311   3.745   2.319  3.9944  2.2196  1.0668
 2139TIP3    H2 6424   4.274   3.869   2.242 -0.2839  0.2949 -0.2419
 2140TIP3   OH2 6425   1.858   2.336   0.143  0.1036 -0.4318  0.4605
 2140TIP3    H1 6426   1.952   2.332   0.126  0.1723  2.2372 -0.2306
 2140TIP3    H2 6427   1.846   2.282   0.221  2.5077  0.4608  1.5722
 2141TIP3   OH2 6428   1.875   4.533   1.615 -0.0579  0.0064  0.1644
 2141TIP3    H1 6429   1.799   4.520   1.671 -0.3275 -1.1588 -0.4251
 2141TIP3    H2 6430   1.914   4.445   1.608  0.0921  0.1670 -1.2803
 2142TIP3   OH2 6431   4.761   4.846   4.487 -0.2928 -0.2934  0.4563
 2142TIP3    H1 6432   4.709   4.786   4.541  1.8281 -2.7276 -0.0493
 2142TIP3    H2 6433   4.696   4.904   4.447 -2.1857 -0.0817  3.4550
 2143TIP3   OH2 6434   3.925   5.880   0.495 -0.0981 -0.3886  0.3915
 2143TIP3    H1 6435   3.993   5.835   0.545  0.9066  0.0497 -0.5501
 2143TIP3    H2 6436   3.916   5.829   0.415  0.8646  0.8729 -0.5714
 2144TIP3   OH2 6437   4.237   1.294   2.622  0.7068 -0.0459  0.2291
 2144TIP3    H1 6438   4.293   1.371   2.623  1.5950 -0.6768  0.3290
 2144TIP3    H2 6439   4.268   1.241   2.695 -1.5143  0.6060  1.7526
 2145TIP3   OH2 6440   0.346   1.205   1.525 -0.3936 -0.0671 -0.0958
 2145TIP3    H1 6441   0.433   1.239   1.503 -0.7710  1.3743  0.4791
 2145TIP3    H2 6442   0.305   1.188   1.441 -0.0624  0.6469 -0.4158
 2146TIP3   OH2 6443   4.920   4.887   5.194  0.2038 -0.7294 -0.1618
 2146TIP3    H1 6444   5.014   4.880   5.181  0.2745  0.2242 -0.2577
 2146TIP3    H2 6445   4.883   4.877   5.106  0.3652  0.9278 -0.4456
 2147TIP3   OH2 6446   3.313   4.030   0.566 -0.3489  0.2627  0.3211
 2147TIP3    H1 6447   3.352   4.037   0.653  1.0586  1.0543 -0.3325
 2147TIP3    H2 6448   3.282   3.940   0.561  0.1900 -0.0005  1.3794
 2148TIP3   OH2 6449   6.221   5.577   1.464 -0.3254 -0.1089  0.2962
 2148TIP3    H1 6450   6.292   5.642   1.467  0.5285 -1.0186  2.7379
 2148TIP3    H2 6451   6.145   5.625   1.433  1.0896  1.1802 -1.3425
 2149TIP3   OH2 6452   2.828   1.946   3.770 -0.0069  0.2826  0.3032
 2149TIP3    H1 6453   2.740   1.982   3.759  0.1304  0.6701  0.4547
 2149TIP3    H2 6454   2.861   1.935   3.681 -0.3710 -0.2711  0.2329
 2150TIP3   OH2 6455   3.541   0.631   3.581  0.0644  0.2868  0.1943
 2150TIP3    H1 6456   3.604   0.698   3.609  0.0018 -0.3717  2.0507
 2150TIP3    H2 6457   3.457   0.663   3.614 -0.3496  0.4252 -0.9638
 2151TIP3   OH2 6458   4.285   4.146   2.810 -0.0176  0.0501  0.1917
 2151TIP3    H1 6459   4.195   4.171   2.829  0.1654  0.3285  0.7355
 2151TIP3    H2 6460   4.325   4.225   2.772  0.2975  0.3063  1.0161
 2152TIP3   OH2 6461   2.260   5.793   3.316 -0.0161 -0.1657  0.1742
 2152TIP3    H1 6462   2.317   5.846   3.260  2.3914  0.2012  2.7097
 2152TIP3    H2 6463   2.256   5.843   3.398 -1.7109 -1.6238  1.0355
 2153TIP3   OH2 6464   3.304   3.815   1.155  0.2709 -0.6835 -0.3616
 2153TIP3    H1 6465   3.210   3.814   1.137 -0.4120 -3.1969  2.5346
 2153TIP3    H2 6466   3.316   3.887   1.217  0.1592 -0.7206 -0.2971
 2154TIP3   OH2 6467   1.675   5.438   0.121 -0.0028  0.7265  0.4609
 2154TIP3    H1 6468   1.692   5.498   0.048  1.1645  0.0067  0.1155
 2154TIP3    H2 6469   1.589   5.465   0.154 -0.9479  0.5363 -1.6974
 2155TIP3   OH2 6470   2.894   1.021   2.583 -0.0697 -0.1757 -0.0516
 2155TIP3    H1 6471   2.959   1.018   2.653 -0.7212 -1.2005  0.5236
 2155TIP3    H2 6472   2.850   0.937   2.587 -2.2602  0.9089  0.3813
 2156TIP3   OH2 6473   0.687   3.325   1.025 -0.5321 -0.5760  0.6106
 2156TIP3    H1 6474   0.712   3.412   1.057 -0.4423 -0.4938  0.3214
 2156TIP3    H2 6475   0.691   3.333   0.930  0.4779 -1.1929  0.5948
 2157TIP3   OH2 6476   1.850   3.493   4.887  0.4925 -0.0093 -0.0264
 2157TIP3    H1 6477   1.868   3.408   4.928  0.4896 -0.0826 -0.1749
 2157TIP3    H2 6478   1.859   3.476   4.793  1.7171  0.4383 -0.0121
 2158TIP3   OH2 6479   2.617   3.424   1.441  0.3999 -0.8890  0.2994
 2158TIP3    H1 6480   2.579   3.342   1.472  1.1003 -1.5586 -0.5553
 2158TIP3    H2 6481   2.707   3.424   1.475 -0.0533  0.2958  1.6220
 2159TIP3   OH2 6482   6.235   1.870   2.000 -0.5664  0.3743  0.7593
 2159TIP3    H1 6483   6.276   1.792   1.964 -2.9342  0.1345 -1.7164
 2159TIP3    H2 6484   6.303   1.938   1.992  0.4482 -0.6977 -0.1568
 2160TIP3   OH2 6485   4.593   2.989   4.504  0.3823  0.4126 -0.0237
 2160TIP3    H1 6486   4.541   2.909   4.516 -1.2111  1.2205 -1.2104
 2160TIP3    H2 6487   4.545   3.055   4.555  2.5770  0.3500  2.3326
 2161TIP3   OH2 6488   1.554   5.931   2.338  0.2865 -0.1704  0.3763
 2161TIP3    H1 6489   1.547   5.991   2.264  1.9557 -0.4051 -0.0119
 2161TIP3    H2 6490   1.600   5.981   2.405  0.4451 -0.5475  0.5541
 2162TIP3   OH2 6491   5.807   0.734   2.099 -0.0881  0.8453  0.1369
 2162TIP3    H1 6492   5.866   0.807   2.076 -1.1598  2.0581  1.0644
 2162TIP3    H2 6493   5.723   0.757   2.060 -0.4558  0.1139  0.4722
 2163TIP3   OH2 6494   0.593   4.986   2.649  0.2189 -0.2889  0.1235
 2163TIP3    H1 6495   0.524   5.022   2.705  0.6830 -0.8494  1.0553
 2163TIP3    H2 6496   0.629   5.063   2.604 -0.2186  0.1486  0.5050
 2164TIP3   OH2 6497   1.454   3.140   1.364  0.0843  0.1041 -0.6852
 2164TIP3    H1 6498   1.447   3.146   1.269  0.2727 -1.3492 -0.8103
 2164TIP3    H2 6499   1.373   3.096   1.391  0.5803 -0.5831 -0.2982
 2165TIP3   OH2 6500   3.800   2.308   3.356 -0.2827 -0.5171 -0.4753
 2165TIP3    H1 6501   3.748   2.379   3.318 -0.5915 -1.8081 -2.6784
 2165TIP3    H2 6502   3.745   2.273   3.426 -0.8720  0.3009 -0.5097
 2166TIP3   OH2 6503   1.051   2.150   3.955  0.0275 -0.0261  0.0894
 2166TIP3    H1 6504   0.965   2.118   3.928  0.4879 -1.9112  0.7075
 2166TIP3    H2 6505   1.032   2.229   4.005 -1.1190  1.1390 -2.0655
 2167TIP3   OH2 6506   4.144   0.220   2.888  0.1454 -0.3262  0.0283
 2167TIP3    H1 6507   4.130   0.314   2.875  1.6246 -0.0445  0.3730
 2167TIP3    H2 6508   4.069   0.179   2.843 -0.3323  0.9889 -0.4339
 2168TIP3   OH2 6509   1.026   5.203   0.057  0.2848  0.4614 -0.5615
 2168TIP3    H1 6510   0.966   5.154   0.001  0.0953  0.6227 -0.4999
 2168TIP3    H2 6511   1.072   5.137   0.107  1.3009  0.2334 -1.7449
 2169TIP3   OH2 6512   1.834   2.845   0.873 -0.5011 -0.1937  0.5155
 2169TIP3    H1 6513   1.885   2.855   0.954 -1.7330  0.7053  1.2245
 2169TIP3    H2 6514   1.769   2.778   0.893 -0.9423  0.1774  0.3443
 2170TIP3   OH2 6515   1.464   2.299   0.602  0.2621  0.1119  0.5445
 2170TIP3    H1 6516   1.544   2.248   0.613 -0.1091 -0.4803  0.5730
 2170TIP3    H2 6517   1.437   2.321   0.691  0.4456  0.3968  0.5302
 2171TIP3   OH2 6518   2.769   2.389   1.941  0.3647 -0.0554  0.2927
 2171TIP3    H1 6519   2.778   2.306   1.989 -3.5340 -1.0864 -0.3978
 2171TIP3    H2 6520   2.698   2.435   1.986  1.9758  2.6717  0.2173
 2172TIP3   OH2 6521   4.165   3.391   2.606 -0.1994 -0.0131  0.0288
 2172TIP3    H1 6522   4.095   3.357   2.550 -0.5235 -2.1411  1.5968
 2172TIP3    H2 6523   4.190   3.475   2.566 -0.1322 -1.5486 -3.4969
 2173TIP3   OH2 6524   1.877   1.499   3.672 -0.0157  0.4402 -0.0659
 2173TIP3    H1 6525   1.949   1.437   3.682 -0.0668  0.4198  0.1762
 2173TIP3    H2 6526   1.811   1.471   3.736  0.0917  0.9317  0.2742
 2174TIP3   OH2 6527   2.044   4.169   2.997 -0.5666 -0.1364 -0.6770
 2174TIP3    H1 6528   1.999   4.221   3.063 -0.9585  0.6646 -1.5447
 2174TIP3    H2 6529   2.085   4.098   3.046 -1.1261  0.2409  0.3756
 2175TIP3   OH2 6530   1.244   0.234   4.554 -0.1000 -0.2288 -0.4205
 2175TIP3    H1 6531   1.229   0.141   4.540  0.3946 -0.4793  0.5906
 2175TIP3    H2 6532   1.302   0.238   4.630 -0.2201  0.9105 -0.3636
 2176TIP3   OH2 6533   2.599   2.294   1.686  0.2323  0.1679 -0.2962
 2176TIP3    H1 6534   2.679   2.341   1.708  1.4487 -1.8586 -0.1463
 2176TIP3    H2 6535   2.571   2.332   1.603  1.6319  0.5797 -0.6020
 2177TIP3   OH2 6536   5.023   1.529   1.744  0.0654 -0.3562  0.6344
 2177TIP3    H1 6537   5.100   1.579   1.718  0.4504 -0.3236  1.8014
 2177TIP3    H2 6538   4.987   1.496   1.661  0.6752  0.5679 -0.0122
 2178TIP3   OH2 6539   1.273   0.421   0.989  0.2769  0.1187  0.1265
 2178TIP3    H1 6540   1.235   0.429   0.901 -1.0752  0.9181  0.7616
 2178TIP3    H2 6541   1.230   0.345   1.027  3.0678 -2.1698 -0.9206
 2179TIP3   OH2 6542   2.544   4.463  -0.007 -0.3519  0.0629  0.2422
 2179TIP3    H1 6543   2.574   4.472   0.084 -0.5314  2.3750  0.1161
 2179TIP3    H2 6544   2.539   4.552  -0.040 -1.5285 -0.6487 -1.6659
 2180TIP3   OH2 6545   0.444   0.822   2.205  0.0635 -0.3748 -0.1126
 2180TIP3    H1 6546   0.502   0.754   2.242  1.2843 -0.2223 -1.6432
 2180TIP3    H2 6547   0.416   0.873   2.281  3.4199  0.6700  0.5988
 2181TIP3   OH2 6548   1.029   4.084   4.849 -0.1171  0.6210  0.2385
 2181TIP3    H1 6549   1.109   4.117   4.889 -0.3255 -1.3756  2.4732
 2181TIP3    H2 6550   0.966   4.155   4.859  1.0964  1.9247 -0.8737
 2182TIP3   OH2 6551   5.647   4.458   4.215 -0.0210 -0.5522 -0.1116
 2182TIP3    H1 6552   5.719   4.418   4.165  0.4218  2.3349 -2.0640
 2182TIP3    H2 6553   5.646   4.549   4.186 -0.9015  0.9694  4.0077
 2183TIP3   OH2 6554   2.976   1.020   1.423  0.5043  0.2361  0.5032
 2183TIP3    H1 6555   2.953   1.113   1.411 -0.5350  0.1720  1.7588
 2183TIP3    H2 6556   3.035   1.020   1.498  1.9610  0.0252 -0.5833
 2184TIP3   OH2 6557   3.086   2.125   2.255  0.0253  0.4448 -0.4526
 2184TIP3    H1 6558   3.072   2.142   2.348  1.7730  2.3688 -0.4577
 2184TIP3    H2 6559   3.010   2.163   2.212 -0.2771  0.5110  0.1339
 2185TIP3   OH2 6560   3.397   5.648   4.227 -0.1144  0.2183  0.1709
 2185TIP3    H1 6561   3.325   5.585   4.220  0.7371 -0.9217  1.1120
 2185TIP3    H2 6562   3.455   5.626   4.154 -0.1417  0.3593  0.1064
 2186TIP3   OH2 6563   6.218   5.442   0.969 -0.5633  0.4775 -0.0583
 2186TIP3    H1 6564   6.300   5.394   0.960 -0.7322  0.2924 -0.5946
 2186TIP3    H2 6565   6.213   5.462   1.063  0.5546  1.3019 -0.1480
 2187TIP3   OH2 6566   2.614   2.002   1.864 -0.1502 -0.0669  0.3679
 2187TIP3    H1 6567   2.580   2.081   1.906 -0.4505 -0.9828  1.8918
 2187TIP3    H2 6568   2.621   2.026   1.771 -2.2567  1.0745  0.4364
 2188TIP3   OH2 6569   5.375   1.670   4.860 -0.0112 -0.1976  0.0478
 2188TIP3    H1 6570   5.330   1.602   4.910 -2.9469  1.2941 -0.3263
 2188TIP3    H2 6571   5.426   1.718   4.926 -0.8795 -0.5123  0.9822
 2189TIP3   OH2 6572   1.212   3.370   3.019 -0.5089 -0.1915  0.0603
 2189TIP3    H1 6573   1.278   3.307   3.050  0.4126  0.0622 -1.3102
 2189TIP3    H2 6574   1.174   3.329   2.942 -0.2805  0.6891 -0.5306
 2190TIP3   OH2 6575   4.188   3.682   1.957 -0.1249  0.4411  0.1194
 2190TIP3    H1 6576   4.203   3.607   2.015 -2.4078  2.0226  3.0671
 2190TIP3    H2 6577   4.246   3.750   1.992  1.1994  0.4211 -1.9007
 2191TIP3   OH2 6578   2.413   5.569   1.349  1.0263 -0.0943  0.1560
 2191TIP3    H1 6579   2.496   5.538   1.386 -0.0548 -1.3121  1.7098
 2191TIP3    H2 6580   2.347   5.537   1.411 -0.7768 -0.9012 -2.0748
 2192TIP3   OH2 6581   3.323   4.033   1.421  0.2650  0.4728  0.3302
 2192TIP3    H1 6582   3.255   4.084   1.379 -0.4719 -1.0100 -0.3524
 2192TIP3    H2 6583   3.345   4.082   1.501 -0.2838  1.8953 -0.3641
 2193TIP3   OH2 6584   2.164   5.861   2.028  0.3827 -0.4372 -0.2616
 2193TIP3    H1 6585   2.161   5.879   2.122  1.7167 -1.7866  0.0834
 2193TIP3    H2 6586   2.219   5.782   2.020  1.4759  0.4378 -2.2787
 2194TIP3   OH2 6587   4.172   5.721   3.953  0.0086 -0.1788  0.1280
 2194TIP3    H1 6588   4.088   5.686   3.981  0.0205  0.7656  1.4064
 2194TIP3    H2 6589   4.151   5.796   3.898  0.0220  0.0888  0.4905
 2195TIP3   OH2 6590   1.247   1.794   4.244 -0.1215  0.4465  0.3481
 2195TIP3    H1 6591   1.159   1.830   4.242 -0.0616  0.6854  1.5768
 2195TIP3    H2 6592   1.234   1.700   4.261 -0.1319  0.4792  0.5154
 2196TIP3   OH2 6593   3.720   0.380   0.033 -0.4803  0.1239  0.5750
 2196TIP3    H1 6594   3.720   0.291  -0.002 -0.6097  0.5158 -0.4555
 2196TIP3    H2 6595   3.812   0.401   0.045 -0.3258  0.5256 -1.0161
 2197TIP3   OH2 6596   4.545   5.061   3.395 -0.3242 -0.5475  0.5330
 2197TIP3    H1 6597   4.614   5.001   3.365 -0.0961 -0.1549  0.2725
 2197TIP3    H2 6598   4.558   5.141   3.344 -1.8040 -0.9178 -0.4909
 2198TIP3   OH2 6599   6.147   2.478   4.781  0.2600 -0.6588  0.1548
 2198TIP3    H1 6600   6.169   2.460   4.872 -0.3710 -1.9926  0.0672
 2198TIP3    H2 6601   6.069   2.533   4.785  0.0816 -0.9318  0.4180
 2199TIP3   OH2 6602   5.301   0.066   4.258 -0.0948  0.1879  0.3761
 2199TIP3    H1 6603   5.255   0.142   4.295 -2.2598 -1.7803  2.0152
 2199TIP3    H2 6604   5.258   0.052   4.173  0.6612  1.0429 -0.1691
 2200TIP3   OH2 6605   1.963   3.573   1.468  0.2014  0.5971 -0.0814
 2200TIP3    H1 6606   1.926   3.571   1.556  1.1443  0.5959  0.3238
 2200TIP3    H2 6607   1.965   3.665   1.444  0.1000  0.6096 -0.0432
 2201TIP3   OH2 6608   1.308   5.744   0.912 -0.5426  0.0970 -0.2923
 2201TIP3    H1 6609   1.380   5.744   0.848 -0.8288  2.0578 -0.6963
 2201TIP3    H2 6610   1.322   5.824   0.963 -3.5218  1.6811 -1.7222
 2202TIP3   OH2 6611   2.866   4.515   4.538 -0.3107 -0.1071  0.9956
 2202TIP3    H1 6612   2.859   4.540   4.630 -2.0170  1.8460  0.4177
 2202TIP3    H2 6613   2.783   4.471   4.519 -0.1937 -0.0258  0.2673
 2203TIP3   OH2 6614   2.615   5.700   3.187 -0.6497 -0.1668 -0.1276
 2203TIP3    H1 6615   2.543   5.693   3.123 -0.3951  1.3175 -0.6219
 2203TIP3    H2 6616   2.689   5.657   3.143 -0.5353  0.6498 -0.7608
 2204TIP3   OH2 6617   2.195   1.850   2.733 -0.1645 -0.4591 -0.8264
 2204TIP3    H1 6618   2.102   1.828   2.732  0.2284 -2.2832 -1.3783
 2204TIP3    H2 6619   2.232   1.797   2.804  0.3518  0.7706 -0.1537
 2205TIP3   OH2 6620   4.902   3.007   4.272  0.6548  0.3150 -0.3676
 2205TIP3    H1 6621   4.997   3.017   4.284  0.5890 -0.1677  0.6944
 2205TIP3    H2 6622   4.894   2.960   4.189  1.3722 -0.1424 -0.1897
 2206TIP3   OH2 6623   3.523   5.454   2.832 -0.8241  0.0174 -0.5131
 2206TIP3    H1 6624   3.517   5.501   2.749 -2.2594 -0.6563 -0.8312
 2206TIP3    H2 6625   3.477   5.371   2.816 -0.7831 -0.2913  0.8304
 2207TIP3   OH2 6626   0.356   1.502   0.495 -0.4900  0.5534 -0.0368
 2207TIP3    H1 6627   0.302   1.432   0.529  0.5630 -0.4030 -0.2733
 2207TIP3    H2 6628   0.294   1.565   0.458 -1.5220  0.4949  1.5175
 2208TIP3   OH2 6629   5.030   5.947   5.177  0.4473 -0.0440  0.3319
 2208TIP3    H1 6630   5.033   6.033   5.134  0.6649 -0.0869  0.2565
 2208TIP3    H2 6631   5.119   5.912   5.166  0.0823 -0.7423 -0.5867
 2209TIP3   OH2 6632   2.265   1.794   0.586 -0.3428  0.0023 -0.3846
 2209TIP3    H1 6633   2.305   1.875   0.556  0.3374 -0.7122 -1.4560
 2209TIP3    H2 6634   2.295   1.727   0.524 -1.5706 -0.9210 -0.0287
 2210TIP3   OH2 6635   0.574   4.343   1.348  0.2563  0.1213  0.4410
 2210TIP3    H1 6636   0.576   4.439   1.342 -0.7019  0.2590  1.7428
 2210TIP3    H2 6637   0.639   4.313   1.285 -0.7105  1.5671 -1.3587
 2211TIP3   OH2 6638   5.905   1.522   0.997 -0.4632  0.6368  0.2879
 2211TIP3    H1 6639   5.999   1.520   1.014 -0.6895  1.2842  1.7126
 2211TIP3    H2 6640   5.898   1.526   0.901  0.9192 -0.7688  0.0891
 2212TIP3   OH2 6641   2.606   3.149   3.735 -0.2484  0.2140 -0.3840
 2212TIP3    H1 6642   2.550   3.180   3.664  0.0680  2.0802  0.1280
 2212TIP3    H2 6643   2.692   3.186   3.716  0.5285 -1.5044 -0.4398
 2213TIP3   OH2 6644   5.269   4.830   1.324 -0.3750  0.4703 -0.0782
 2213TIP3    H1 6645   5.193   4.864   1.277  0.3647 -0.4034 -1.9703
 2213TIP3    H2 6646   5.344   4.861   1.274  0.4490 -0.4260  0.5744
 2214TIP3   OH2 6647   6.211   1.561   0.750  0.2930  0.5946  0.4134
 2214TIP3    H1 6648   6.247   1.540   0.664 -1.3360 -2.0405  0.2400
 2214TIP3    H2 6649   6.120   1.585   0.732  0.1155  0.6424  1.3325
 2215TIP3   OH2 6650   5.653   2.712   5.121 -0.0074  0.0281 -0.0491
 2215TIP3    H1 6651   5.721   2.773   5.151 -0.0541  0.6401 -1.1323
 2215TIP3    H2 6652   5.700   2.631   5.102  0.6050  0.6788 -1.5465
 2216TIP3   OH2 6653   3.763   5.724   0.746 -0.2430  0.1746 -0.1091
 2216TIP3    H1 6654   3.831   5.664   0.777 -0.0424  0.1864 -0.5168
 2216TIP3    H2 6655   3.795   5.811   0.768 -1.5304  0.0984  2.5094
 2217TIP3   OH2 6656   0.079   3.764   1.688 -0.3851 -0.1519 -0.1338
 2217TIP3    H1 6657   0.133   3.824   1.740 -0.7168  1.3508 -1.4093
 2217TIP3    H2 6658   0.142   3.706   1.645 -0.0276 -0.5130  0.8471
 2218TIP3   OH2 6659   5.894   0.908   1.238 -0.3609 -0.2313  0.4829
 2218TIP3    H1 6660   5.822   0.907   1.176  0.0125  1.4498 -0.0226
 2218TIP3    H2 6661   5.972   0.896   1.184 -0.1341 -0.2318  0.8080
 2219TIP3   OH2 6662   3.430   4.348   5.169 -0.3252 -0.3581 -0.1596
 2219TIP3    H1 6663   3.394   4.433   5.194 -0.1412 -0.2961 -0.1014
 2219TIP3    H2 6664   3.376   4.284   5.215  0.0384 -0.2421  0.4319
 2220TIP3   OH2 6665   0.638   5.881   2.039 -0.1791  0.6223 -0.2632
 2220TIP3    H1 6666   0.544   5.862   2.041 -0.5124  1.6486 -2.9194
 2220TIP3    H2 6667   0.644   5.976   2.047  0.7884  0.4633  1.4529
 2221TIP3   OH2 6668   1.099   5.573   0.495 -0.0413 -0.5008 -0.2018
 2221TIP3    H1 6669   1.132   5.492   0.533  0.1868 -0.7214 -0.8467
 2221TIP3    H2 6670   1.026   5.546   0.440  0.0391 -0.2718 -0.4244
 2222TIP3   OH2 6671   2.999   0.446   3.769 -0.3441 -0.1478 -0.3970
 2222TIP3    H1 6672   3.092   0.429   3.752  0.0158  0.7066  0.5783
 2222TIP3    H2 6673   2.959   0.453   3.682  0.2718 -1.5918 -0.8408
 2223TIP3   OH2 6674   2.380   5.387   3.190 -0.0150  0.3676  0.0542
 2223TIP3    H1 6675   2.363   5.350   3.276  0.7228 -1.6865 -0.6198
 2223TIP3    H2 6676   2.313   5.455   3.179  0.1227  0.9467  2.3586
 2224TIP3   OH2 6677   4.532   4.308   1.443  0.4000 -0.4934  0.1686
 2224TIP3    H1 6678   4.505   4.361   1.518  0.2396 -2.6646  1.7299
 2224TIP3    H2 6679   4.607   4.355   1.406  0.1647  0.8879  1.3572
 2225TIP3   OH2 6680   4.241   1.233   4.497 -0.0538  0.4146 -0.4405
 2225TIP3    H1 6681   4.261   1.261   4.586 -0.0596  0.0291 -0.3145
 2225TIP3    H2 6682   4.176   1.163   4.508 -0.8598  1.0828 -0.7972
 2226TIP3   OH2 6683   2.071   3.248   0.032  0.1409  0.0889  0.7766
 2226TIP3    H1 6684   1.990   3.279   0.073 -0.1242 -1.2773  1.3304
 2226TIP3    H2 6685   2.041   3.183  -0.032  0.8027 -0.6475  1.1989
 2227TIP3   OH2 6686   2.183   2.936   4.244  0.1561  0.2210 -0.0104
 2227TIP3    H1 6687   2.235   2.963   4.320 -0.9056  0.9837  0.4757
 2227TIP3    H2 6688   2.226   2.979   4.170  0.8302 -0.0103  0.2391
 2228TIP3   OH2 6689   2.451   0.954   0.419  0.0381  0.0510  0.8967
 2228TIP3    H1 6690   2.362   0.926   0.400 -0.1936  1.0154  0.4788
 2228TIP3    H2 6691   2.505   0.908   0.355 -0.1619 -0.4984  1.1193
 2229TIP3   OH2 6692   2.766   0.514   2.536  0.2698  0.6777 -0.6708
 2229TIP3    H1 6693   2.733   0.425   2.525  0.1263  0.6351  0.0385
 2229TIP3    H2 6694   2.727   0.563   2.463 -0.9316  0.4991 -0.1853
 2230TIP3   OH2 6695   0.618   3.487   4.359 -0.4509 -0.7389  0.0311
 2230TIP3    H1 6696   0.549   3.542   4.396 -0.0356 -0.3810  0.2878
 2230TIP3    H2 6697   0.573   3.429   4.297 -0.7384  0.7316 -1.1951
 2231TIP3   OH2 6698   4.665   2.977   0.531  0.7507  0.1785  0.1395
 2231TIP3    H1 6699   4.593   2.920   0.557  1.7717 -1.2915 -0.1417
 2231TIP3    H2 6700   4.701   3.010   0.614  0.6514 -0.2260  0.3437
 2232TIP3   OH2 6701   2.609   1.141   4.984  0.1986  0.0560  0.3856
 2232TIP3    H1 6702   2.532   1.115   5.034  1.1047  0.2231  1.9574
 2232TIP3    H2 6703   2.585   1.224   4.943 -0.8966 -0.5658 -0.2868
 2233TIP3   OH2 6704   5.080   5.436   0.832 -0.3730  0.3145  0.0138
 2233TIP3    H1 6705   5.128   5.386   0.899 -0.2199 -1.1504 -1.1512
 2233TIP3    H2 6706   5.093   5.528   0.858  0.0891 -0.1822  1.7107
 2234TIP3   OH2 6707   1.081   2.636   4.613 -0.1006  0.4090 -0.7009
 2234TIP3    H1 6708   1.102   2.559   4.666 -1.6738  1.3107  1.3802
 2234TIP3    H2 6709   0.986   2.645   4.621 -0.1551  1.6272 -2.2785
 2235TIP3   OH2 6710   1.716   4.990   3.315 -0.0323 -0.0622 -0.3486
 2235TIP3    H1 6711   1.794   5.022   3.360  1.1352  0.8040 -2.8074
 2235TIP3    H2 6712   1.653   5.062   3.324  0.5486  0.5388 -0.8782
 2236TIP3   OH2 6713   6.286   4.634   4.403 -0.3364  0.6562  0.1331
 2236TIP3    H1 6714   6.371   4.655   4.365  0.1734  0.4657  1.1275
 2236TIP3    H2 6715   6.237   4.592   4.332  1.1533 -1.1435  0.0838
 2237TIP3   OH2 6716   3.213   3.373   3.247  0.3178  0.6078 -0.0850
 2237TIP3    H1 6717   3.281   3.320   3.288 -0.2928 -0.4208 -0.3575
 2237TIP3    H2 6718   3.254   3.457   3.230  1.0139  0.5573  1.2821
 2238TIP3   OH2 6719   6.164   3.526   1.711  0.2814  0.1692  0.8209
 2238TIP3    H1 6720   6.193   3.581   1.783 -1.2594  0.2595  1.4248
 2238TIP3    H2 6721   6.213   3.444   1.720  1.7519  0.9995  0.5930
 2239TIP3   OH2 6722   4.996   3.087   1.894 -0.2818  0.6582  0.4204
 2239TIP3    H1 6723   5.000   3.142   1.973  0.3062  1.4561 -0.1479
 2239TIP3    H2 6724   5.063   3.123   1.837  0.7419 -1.2248  0.3649
 2240TIP3   OH2 6725   5.797   0.291   4.008  0.5567 -0.4131 -0.2491
 2240TIP3    H1 6726   5.802   0.262   3.917 -1.3657  2.4947 -1.4198
 2240TIP3    H2 6727   5.733   0.233   4.049 -2.6763  1.3657 -2.3279
 2241TIP3   OH2 6728   1.259   0.649   2.985  0.1597 -0.3580 -0.4788
 2241TIP3    H1 6729   1.237   0.576   2.927 -0.3462  1.5313 -2.8704
 2241TIP3    H2 6730   1.197   0.719   2.961  0.7901  0.9761  1.4836
 2242TIP3   OH2 6731   4.089   1.751   5.153 -0.1518 -0.2120 -0.4995
 2242TIP3    H1 6732   4.018   1.752   5.217  1.1155 -0.1458  0.9766
 2242TIP3    H2 6733   4.117   1.659   5.151  1.7451  0.2301  1.3781
 2243TIP3   OH2 6734   4.928   2.123   0.386  0.6481 -0.4694 -0.2402
 2243TIP3    H1 6735   4.924   2.211   0.425  0.3092 -0.2091 -0.8470
 2243TIP3    H2 6736   4.943   2.139   0.293 -1.5142 -0.9639 -0.7246
 2244TIP3   OH2 6737   4.360   0.258   3.516  0.0123 -0.8056  0.2758
 2244TIP3    H1 6738   4.356   0.227   3.425  3.1706 -1.9159  0.4006
 2244TIP3    H2 6739   4.424   0.328   3.514 -1.3613  0.5527  1.3921
 2245TIP3   OH2 6740   0.891   2.664   3.398 -0.0045 -0.3138  0.1811
 2245TIP3    H1 6741   0.934   2.653   3.313 -0.4116 -2.6191  0.1934
 2245TIP3    H2 6742   0.916   2.586   3.447 -2.6764 -0.8660  0.8375
 2246TIP3   OH2 6743   4.052   2.110   3.667  0.0480 -0.5578 -0.2995
 2246TIP3    H1 6744   4.040   2.084   3.575 -0.3021  1.3559 -0.8573
 2246TIP3    H2 6745   4.050   2.206   3.664  2.6629 -0.3671  1.3682
 2247TIP3   OH2 6746   6.053   0.431   1.100 -0.2555  0.1116  0.4247
 2247TIP3    H1 6747   6.040   0.338   1.119 -0.0536 -0.1213 -0.4992
 2247TIP3    H2 6748   6.144   0.448   1.121 -0.3486  0.1517  0.7921
 2248TIP3   OH2 6749   2.832   3.119   0.480  0.6886  0.6888  0.3471
 2248TIP3    H1 6750   2.923   3.147   0.472  1.1909 -0.6565  0.9325
 2248TIP3    H2 6751   2.822   3.049   0.415 -0.2334  1.4805 -0.4012
 2249TIP3   OH2 6752   2.209   0.552   3.460 -0.4362  0.2330 -0.0182
 2249TIP3    H1 6753   2.258   0.473   3.480 -1.4804 -0.3520  0.3607
 2249TIP3    H2 6754   2.260   0.623   3.500  1.8977  0.1485 -2.6056
 2250TIP3   OH2 6755   3.720   5.449   1.765  0.0816 -0.1295  0.3664
 2250TIP3    H1 6756   3.646   5.389   1.754 -0.2971  0.4536 -0.3991
 2250TIP3    H2 6757   3.770   5.413   1.838  0.8419 -2.3565 -1.1446
 2251TIP3   OH2 6758   2.094   5.896   4.039  0.2507 -0.0879 -0.0100
 2251TIP3    H1 6759   2.028   5.826   4.038  0.8504 -0.7305  1.5902
 2251TIP3    H2 6760   2.044   5.976   4.056 -0.0748 -0.7377  2.5381
 2252TIP3   OH2 6761   1.661   0.278   2.152  0.0630 -0.3837  0.0079
 2252TIP3    H1 6762   1.573   0.304   2.124  0.8976  1.7268 -0.8547
 2252TIP3    H2 6763   1.652   0.260   2.246 -1.0508  1.0647  0.2135
 2253TIP3   OH2 6764   4.079   5.276   4.694  0.5349 -0.5330  0.8078
 2253TIP3    H1 6765   4.012   5.209   4.685  0.7341 -0.6983  0.5640
 2253TIP3    H2 6766   4.160   5.235   4.664  1.1388 -0.9488  2.8592
 2254TIP3   OH2 6767   0.904   2.079   0.557 -0.4951  0.1474  0.2592
 2254TIP3    H1 6768   0.919   2.161   0.603 -0.0450 -0.0443  0.4648
 2254TIP3    H2 6769   0.879   2.017   0.626 -1.8819  0.3631 -0.0263
 2255TIP3   OH2 6770   6.249   2.489   1.200 -0.2802 -0.5099  0.3639
 2255TIP3    H1 6771   6.326   2.446   1.237 -0.4583 -0.3668  0.9175
 2255TIP3    H2 6772   6.230   2.440   1.120  0.3334 -0.5946  0.2634
 2256TIP3   OH2 6773   5.567   2.519   2.451 -0.4039 -0.0706  0.1416
 2256TIP3    H1 6774   5.627   2.592   2.437 -1.3705  0.8125  0.4494
 2256TIP3    H2 6775   5.500   2.554   2.510 -0.7270 -1.3035  0.5492
 2257TIP3   OH2 6776   4.332   3.131   5.143  0.4291  0.0765  0.4217
 2257TIP3    H1 6777   4.277   3.055   5.163 -1.5539  1.9848  2.7297
 2257TIP3    H2 6778   4.375   3.153   5.226  0.1227  2.0975  0.0894
 2258TIP3   OH2 6779   5.597   3.600   3.071  0.4910 -0.2097  0.2643
 2258TIP3    H1 6780   5.627   3.681   3.113 -1.9677  0.1670  1.4844
 2258TIP3    H2 6781   5.662   3.583   3.002  1.0763  2.8279 -0.0761
 2259TIP3   OH2 6782   6.228   5.175   1.319 -0.4795  0.6575 -0.5402
 2259TIP3    H1 6783   6.322   5.173   1.301 -0.1153  1.1180  1.1292
 2259TIP3    H2 6784   6.216   5.118   1.395 -1.5444  0.6904 -0.6595
 2260TIP3   OH2 6785   1.518   3.533   0.444 -0.0207 -0.7007 -0.2638
 2260TIP3    H1 6786   1.599   3.581   0.462 -1.3054  0.9727  1.3927
 2260TIP3    H2 6787   1.532   3.493   0.358  1.9472  0.8522 -0.7236
 2261TIP3   OH2 6788   1.597   0.380   3.417 -0.0289  0.2785  0.1023
 2261TIP3    H1 6789   1.559   0.463   3.445 -0.4741 -0.0243  0.4072
 2261TIP3    H2 6790   1.523   0.319   3.415  0.3203 -0.1497  0.0416
 2262TIP3   OH2 6791   0.865   3.524   3.225  0.8340  0.0881 -0.8481
 2262TIP3    H1 6792   0.898   3.460   3.288  0.3637  1.8829  1.3626
 2262TIP3    H2 6793   0.821   3.472   3.158  0.9305 -1.8987  0.5566
 2263TIP3   OH2 6794   0.970   4.621   0.874 -0.8926 -0.0823 -0.6430
 2263TIP3    H1 6795   1.043   4.564   0.847 -0.5229  0.3497 -0.5628
 2263TIP3    H2 6796   1.010   4.685   0.932 -1.2069  0.5910 -1.1586
 2264TIP3   OH2 6797   1.458   4.343   1.229 -0.1613  0.4834  0.4111
 2264TIP3    H1 6798   1.439   4.301   1.313 -1.7300  1.8406  0.7792
 2264TIP3    H2 6799   1.553   4.333   1.218 -0.2913 -2.1046  1.0032
 2265TIP3   OH2 6800   6.249   2.308   1.820  0.5586  0.3485  0.6149
 2265TIP3    H1 6801   6.244   2.308   1.724  0.6126  1.5942  0.5848
 2265TIP3    H2 6802   6.293   2.226   1.842  0.6610  0.0999 -0.4352
 2266TIP3   OH2 6803   3.010   5.297   3.580 -0.4975 -0.5551 -0.2687
 2266TIP3    H1 6804   3.044   5.367   3.524  2.0525 -1.2618  0.2471
 2266TIP3    H2 6805   2.965   5.343   3.650  1.8300  0.7238  0.5179
 2267TIP3   OH2 6806   4.844   0.331   4.437  0.2859 -0.1610  0.3058
 2267TIP3    H1 6807   4.846   0.427   4.437  0.5272 -0.1527 -0.9320
 2267TIP3    H2 6808   4.805   0.308   4.522 -0.2028  1.0386  0.4302
 2268TIP3   OH2 6809   4.993   3.934   2.302 -0.2265  0.2498 -0.0655
 2268TIP3    H1 6810   4.947   3.853   2.324 -0.2600  0.9461  2.7970
 2268TIP3    H2 6811   5.076   3.904   2.264 -0.1926 -1.1503  1.0083
 2269TIP3   OH2 6812   3.291   2.288   1.902  0.0201  0.0399 -0.9764
 2269TIP3    H1 6813   3.284   2.201   1.943  0.6966  0.0642 -0.7960
 2269TIP3    H2 6814   3.373   2.284   1.852  0.2526  0.6955 -0.6624
 2270TIP3   OH2 6815   5.350   1.908   4.577  0.1866  0.4472  0.2009
 2270TIP3    H1 6816   5.402   1.831   4.554 -0.2906  0.3688 -0.6958
 2270TIP3    H2 6817   5.293   1.921   4.501 -1.1545  0.4779  1.1663
 2271TIP3   OH2 6818   1.272   4.902   0.933  0.2116  0.0970 -0.0584
 2271TIP3    H1 6819   1.322   4.974   0.894  0.3887  0.4615  0.8158
 2271TIP3    H2 6820   1.284   4.913   1.027  1.5565 -2.0117  0.0832
 2272TIP3   OH2 6821   5.962   0.472   0.409 -0.0040 -0.0928  0.4568
 2272TIP3    H1 6822   5.923   0.518   0.484 -1.1120 -0.7462  0.3115
 2272TIP3    H2 6823   6.056   0.473   0.426 -0.1923  0.3076  1.5480
 2273TIP3   OH2 6824   0.115   2.557   3.786  1.0227 -0.1364  0.2652
 2273TIP3    H1 6825   0.172   2.623   3.746  1.0996 -2.1546 -3.4658
 2273TIP3    H2 6826   0.174   2.486   3.811  0.6594  0.0425  1.7100
 2274TIP3   OH2 6827   5.169   1.217   2.806  0.2274 -0.9658 -0.2599
 2274TIP3    H1 6828   5.179   1.258   2.720 -1.6831 -1.6179 -0.8499
 2274TIP3    H2 6829   5.121   1.282   2.857  0.9597 -0.7675  0.1951
 2275TIP3   OH2 6830   1.563   4.295   2.366 -0.0013 -0.2828 -0.6058
 2275TIP3    H1 6831   1.592   4.258   2.282 -0.1187 -1.5854 -0.0961
 2275TIP3    H2 6832   1.637   4.282   2.425  0.6452  1.9538 -0.8361
 2276TIP3   OH2 6833   4.291   2.566   0.108  0.0979 -0.1136 -0.5208
 2276TIP3    H1 6834   4.349   2.594   0.179 -0.0830 -0.5837 -0.1846
 2276TIP3    H2 6835   4.205   2.557   0.149 -0.0268 -0.3104 -0.8184
 2277TIP3   OH2 6836   2.261   1.269   1.531 -0.2943 -0.4218  0.0239
 2277TIP3    H1 6837   2.314   1.289   1.454 -3.8661  0.7015 -2.4226
 2277TIP3    H2 6838   2.218   1.352   1.552 -0.7388 -1.1457  2.1734
 2278TIP3   OH2 6839   5.988   5.895   2.913 -0.0401 -0.8568  0.2748
 2278TIP3    H1 6840   5.921   5.841   2.956  0.2133 -0.3089  1.4001
 2278TIP3    H2 6841   6.069   5.845   2.923 -0.2004 -1.3719 -0.8121
 2279TIP3   OH2 6842   2.819   1.578   1.844  0.5350  0.1571  0.8168
 2279TIP3    H1 6843   2.860   1.578   1.931  0.1249  0.1535  1.0108
 2279TIP3    H2 6844   2.818   1.486   1.818 -1.5230 -0.1606  1.8506
 2280TIP3   OH2 6845   3.232   5.880   4.759  0.3813  0.2643 -0.3868
 2280TIP3    H1 6846   3.167   5.825   4.803  2.3587 -0.3842  1.9713
 2280TIP3    H2 6847   3.284   5.818   4.708 -0.5266  0.7195 -1.9155
 2281TIP3   OH2 6848   3.451   1.961   4.453 -0.3547 -0.3582 -0.0888
 2281TIP3    H1 6849   3.519   2.023   4.429  2.8516 -3.0401  1.3292
 2281TIP3    H2 6850   3.448   1.898   4.381  0.6735 -1.7371  1.0217
 2282TIP3   OH2 6851   3.099   2.491   4.444  0.1260 -0.4124 -0.2662
 2282TIP3    H1 6852   3.037   2.418   4.444 -1.9957  1.2648  0.7363
 2282TIP3    H2 6853   3.177   2.456   4.488 -1.2690 -1.7520  1.3277
 2283TIP3   OH2 6854   3.900   1.168   0.037 -0.4061 -0.5002 -0.4306
 2283TIP3    H1 6855   3.990   1.200   0.044 -1.0279  1.1381  0.7611
 2283TIP3    H2 6856   3.884   1.122   0.120 -1.3707  1.3088  0.4602
 2284TIP3   OH2 6857   3.787   1.671   0.601 -0.0392 -0.0622  0.0607
 2284TIP3    H1 6858   3.749   1.586   0.584 -1.8618  0.7670 -0.2143
 2284TIP3    H2 6859   3.849   1.685   0.529 -0.2220 -0.8566 -0.2559
 2285TIP3   OH2 6860   5.757   5.629   0.496 -0.2348  0.2795  0.3230
 2285TIP3    H1 6861   5.838   5.584   0.469 -1.0088 -1.1645  0.2863
 2285TIP3    H2 6862   5.727   5.580   0.573 -0.5494  1.4398  0.9615
 2286TIP3   OH2 6863   2.097   1.536   0.350 -0.1340  0.4738 -0.4604
 2286TIP3    H1 6864   2.078   1.574   0.436  1.8772 -0.8157  0.6341
 2286TIP3    H2 6865   2.063   1.447   0.356  1.4802 -0.1695 -0.3287
 2287TIP3   OH2 6866   3.099   3.586   3.966  0.5262 -0.2795 -0.3674
 2287TIP3    H1 6867   3.097   3.528   4.042  0.9274  0.4059  0.1726
 2287TIP3    H2 6868   3.173   3.556   3.914  0.6651 -0.3228 -0.1448
 2288TIP3   OH2 6869   3.788   1.056   2.424 -0.4947 -0.1394  0.1330
 2288TIP3    H1 6870   3.882   1.073   2.419 -0.3847 -0.7794 -0.0056
 2288TIP3    H2 6871   3.771   1.043   2.517 -0.2902 -0.8919  0.0661
 2289TIP3   OH2 6872   3.363   4.099   3.376  0.2383 -0.4598 -0.5020
 2289TIP3    H1 6873   3.281   4.067   3.414  1.0170 -1.5039  0.3417
 2289TIP3    H2 6874   3.368   4.191   3.404 -0.3818 -0.5271 -0.1421
 2290TIP3   OH2 6875   1.970   4.793   4.477  0.0093 -0.5368 -0.1521
 2290TIP3    H1 6876   2.023   4.714   4.485  1.6246  0.4147 -0.9071
 2290TIP3    H2 6877   2.027   4.863   4.510 -0.8376  0.5103 -0.8484
 2291TIP3   OH2 6878   1.742   0.262   3.973 -0.3018  0.0406 -0.4226
 2291TIP3    H1 6879   1.711   0.172   3.963  1.1492 -0.4162 -1.0501
 2291TIP3    H2 6880   1.679   0.303   4.033 -1.2979 -1.2189 -0.5768
 2292TIP3   OH2 6881   2.931   1.440   3.273 -0.0934 -0.5261 -0.1401
 2292TIP3    H1 6882   3.015   1.404   3.300  0.7928  1.1772 -0.4672
 2292TIP3    H2 6883   2.949   1.484   3.189 -1.1659  0.3555  0.0573
 2293TIP3   OH2 6884   0.246   3.033   4.689 -0.2828 -0.3301  0.1089
 2293TIP3    H1 6885   0.307   3.030   4.763 -0.7549 -0.1626  0.5090
 2293TIP3    H2 6886   0.249   2.945   4.652  2.6520  0.4324 -1.9083
 2294TIP3   OH2 6887   4.684   5.088   1.947 -0.6490  0.0967  0.2687
 2294TIP3    H1 6888   4.665   5.164   1.892 -0.6499 -0.9073 -1.1609
 2294TIP3    H2 6889   4.602   5.069   1.992 -0.9616  0.2547 -0.2348
 2295TIP3   OH2 6890   5.914   3.867   1.662  0.0650  0.3968  0.6387
 2295TIP3    H1 6891   5.844   3.801   1.664 -0.0876  0.5303 -0.0723
 2295TIP3    H2 6892   5.989   3.822   1.623  0.1070  0.5087  0.5895
 2296TIP3   OH2 6893   2.284   2.002   3.734 -0.2658  0.2058 -0.7368
 2296TIP3    H1 6894   2.230   2.063   3.684 -0.9946  0.7412  0.6360
 2296TIP3    H2 6895   2.227   1.926   3.749 -0.5398  0.6037  0.3765
 2297TIP3   OH2 6896   3.524   4.974   3.922  0.5445  0.2455  0.1368
 2297TIP3    H1 6897   3.524   4.999   4.014  0.3429  0.4721  0.0757
 2297TIP3    H2 6898   3.614   4.992   3.892 -0.1694  3.3253 -0.5438
 2298TIP3   OH2 6899   4.392   2.699   0.357  0.1423 -0.1701 -0.0137
 2298TIP3    H1 6900   4.434   2.763   0.299 -2.3610  0.1742 -1.5828
 2298TIP3    H2 6901   4.410   2.731   0.445  0.6029  1.6003 -0.6990
 2299TIP3   OH2 6902   5.807   1.252   1.016 -0.5100 -0.3426 -0.0252
 2299TIP3    H1 6903   5.853   1.336   1.006 -0.2258 -0.5593 -0.5572
 2299TIP3    H2 6904   5.804   1.216   0.928  0.2268 -1.3512  0.3475
 2300TIP3   OH2 6905   2.705   5.637   2.199 -0.1620  0.2549 -0.0650
 2300TIP3    H1 6906   2.700   5.597   2.113  3.2818  0.9092 -0.7148
 2300TIP3    H2 6907   2.698   5.564   2.260  2.2055 -0.9392 -1.1055
 2301TIP3   OH2 6908   2.127   5.556   2.935  0.3450  0.0396 -0.0447
 2301TIP3    H1 6909   2.134   5.524   2.845 -0.6731  0.4803 -0.2903
 2301TIP3    H2 6910   2.062   5.626   2.930  0.9889  0.7259  0.8616
 2302TIP3   OH2 6911   1.433   1.632   3.721  0.3809 -0.1592  0.4267
 2302TIP3    H1 6912   1.355   1.688   3.730 -0.2330  0.5529 -5.3629
 2302TIP3    H2 6913   1.402   1.545   3.746 -1.7725  0.4393  0.1120
 2303TIP3   OH2 6914   2.457   5.244   1.606  0.1098  0.1882  0.0818
 2303TIP3    H1 6915   2.470   5.155   1.639  0.2118  0.0201 -0.4039
 2303TIP3    H2 6916   2.377   5.274   1.649  0.3202  0.0269  0.5900
 2304TIP3   OH2 6917   2.904   1.277   1.372 -0.3329 -0.4182  0.1413
 2304TIP3    H1 6918   2.834   1.339   1.352 -0.3457 -0.4403  0.1174
 2304TIP3    H2 6919   2.964   1.284   1.298  0.8426  1.2166  1.1865
 2305TIP3   OH2 6920   4.371   4.610   5.030 -0.0118 -0.3225 -0.5451
 2305TIP3    H1 6921   4.353   4.588   5.121  1.5046  1.5163  0.2587
 2305TIP3    H2 6922   4.326   4.694   5.016  0.8752  0.0845 -1.0562
 2306TIP3   OH2 6923   2.204   2.785   0.291  0.4809 -0.2493  0.2442
 2306TIP3    H1 6924   2.244   2.800   0.206  0.7313 -0.0292  0.3969
 2306TIP3    H2 6925   2.203   2.872   0.332  1.0843 -0.4831  0.7747
 2307TIP3   OH2 6926   4.614   0.486   0.392  0.5187  0.9497  0.1871
 2307TIP3    H1 6927   4.525   0.496   0.424 -0.0687 -0.7865 -0.8057
 2307TIP3    H2 6928   4.606   0.431   0.315  2.5196  0.2040  0.4549
 2308TIP3   OH2 6929   1.991   1.567   5.124 -0.5951 -0.0384  0.4150
 2308TIP3    H1 6930   1.995   1.476   5.153  0.4205 -0.5036 -1.0442
 2308TIP3    H2 6931   1.899   1.592   5.134 -0.8383 -1.1491  1.0565
 2309TIP3   OH2 6932   1.342   3.308   2.430  0.3674  0.2413 -0.6445
 2309TIP3    H1 6933   1.267   3.249   2.432  0.1967  0.4587 -0.4281
 2309TIP3    H2 6934   1.408   3.263   2.377 -0.3425  0.5574 -1.8314
 2310TIP3   OH2 6935   5.166   4.291   0.781  0.7200 -0.0792  0.9119
 2310TIP3    H1 6936   5.177   4.233   0.706 -0.8088  0.8571 -0.0901
 2310TIP3    H2 6937   5.193   4.377   0.749  0.7773  0.2000  1.6804
 2311TIP3   OH2 6938   1.659   0.688   5.009 -0.1955  0.3467  0.1036
 2311TIP3    H1 6939   1.732   0.685   4.948 -0.9935 -0.3443 -0.8637
 2311TIP3    H2 6940   1.628   0.598   5.014  0.4515  0.1964  2.3218
 2312TIP3   OH2 6941   1.191   4.036   3.612 -0.0387 -0.5488 -0.4996
 2312TIP3    H1 6942   1.266   4.056   3.669  0.6633 -0.6992 -1.3380
 2312TIP3    H2 6943   1.203   3.944   3.589 -1.4543 -1.0684  0.7376
 2313TIP3   OH2 6944   4.785   2.940   1.375 -0.0637 -0.9455  0.0651
 2313TIP3    H1 6945   4.841   2.936   1.297 -2.5088  1.1147 -1.9529
 2313TIP3    H2 6946   4.752   2.850   1.385  0.3146 -1.2606 -1.2788
 2314TIP3   OH2 6947   1.617   0.226   2.418 -0.3111  0.5347 -0.4551
 2314TIP3    H1 6948   1.526   0.229   2.449 -0.0673  1.5226  0.2277
 2314TIP3    H2 6949   1.639   0.133   2.417 -0.0135  0.4068  3.3554
 2315TIP3   OH2 6950   2.611   5.222   3.112  0.7557  0.1564 -0.3562
 2315TIP3    H1 6951   2.536   5.281   3.102 -0.3445 -1.3480 -1.5204
 2315TIP3    H2 6952   2.671   5.247   3.043 -0.9635 -1.7695 -2.7240
 2316TIP3   OH2 6953   1.653   2.936   1.850  0.3588 -0.0905  0.1264
 2316TIP3    H1 6954   1.629   2.865   1.910  0.3037 -0.9024 -0.8263
 2316TIP3    H2 6955   1.738   2.966   1.882 -0.3425  0.5211  1.5065
 2317TIP3   OH2 6956   1.843   1.764   4.835 -0.9254  0.3369  0.8251
 2317TIP3    H1 6957   1.874   1.675   4.814  1.0208  1.2517 -0.4124
 2317TIP3    H2 6958   1.783   1.786   4.764  1.0374  1.1467 -0.6751
 2318TIP3   OH2 6959   6.116   4.413   0.987 -0.4221  0.0270 -0.1277
 2318TIP3    H1 6960   6.034   4.370   0.963  0.3665 -1.0418 -1.0235
 2318TIP3    H2 6961   6.123   4.401   1.082 -1.0979 -0.2343 -0.1107
 2319TIP3   OH2 6962   3.926   1.971   4.144 -0.1967 -0.4675 -0.0325
 2319TIP3    H1 6963   3.947   2.052   4.096  0.3827 -0.3666  0.3894
 2319TIP3    H2 6964   3.830   1.974   4.155 -0.0442  0.8933  1.2521
 2320TIP3   OH2 6965   5.773   4.124   2.275 -0.5374  0.3003  0.2666
 2320TIP3    H1 6966   5.680   4.138   2.294 -0.4855  1.5306 -0.2371
 2320TIP3    H2 6967   5.801   4.207   2.236  0.0070 -1.0381 -2.4869
 2321TIP3   OH2 6968   4.410   4.970   3.610  0.2903  0.0059 -0.6689
 2321TIP3    H1 6969   4.458   5.012   3.539 -0.3261  1.3782 -0.3187
 2321TIP3    H2 6970   4.476   4.917   3.656  0.6764 -0.9754 -2.2745
 2322TIP3   OH2 6971   2.773   5.214   4.838 -0.3587  0.3531 -0.2701
 2322TIP3    H1 6972   2.854   5.163   4.840 -0.3736  0.3509  0.9708
 2322TIP3    H2 6973   2.706   5.155   4.875 -1.0228  0.2351 -1.5763
 2323TIP3   OH2 6974   3.504   3.932   2.304  0.8053 -0.3256 -0.2752
 2323TIP3    H1 6975   3.458   3.853   2.332  2.3840 -1.2652 -0.2080
 2323TIP3    H2 6976   3.515   3.921   2.210  2.6031 -1.0923 -0.0103
 2324TIP3   OH2 6977   2.868   5.599   1.834  0.2425  0.8866 -0.1463
 2324TIP3    H1 6978   2.812   5.677   1.826 -0.2630  0.5275 -0.1396
 2324TIP3    H2 6979   2.884   5.571   1.744  0.4415  1.0101 -0.1495
 2325TIP3   OH2 6980   1.569   3.541   1.552  0.0691 -0.0734  0.5053
 2325TIP3    H1 6981   1.505   3.586   1.496  0.6032 -0.3319 -0.3433
 2325TIP3    H2 6982   1.517   3.481   1.605 -0.5997  1.1571  1.2828
 2326TIP3   OH2 6983   0.961   1.894   1.661  0.3294  0.3641  0.0576
 2326TIP3    H1 6984   0.893   1.896   1.728 -0.3331 -0.4606 -0.5721
 2326TIP3    H2 6985   1.042   1.878   1.709 -0.3117 -1.5798  0.5700
 2327TIP3   OH2 6986   1.257   5.009   3.813  0.1795  0.5510  0.1298
 2327TIP3    H1 6987   1.314   5.036   3.884  0.7146  2.1075 -0.8395
 2327TIP3    H2 6988   1.248   5.087   3.758  0.6942 -0.8599 -2.1001
 2328TIP3   OH2 6989   1.411   1.035   2.130 -0.4020  0.4635  0.2532
 2328TIP3    H1 6990   1.368   0.985   2.200 -0.4676  1.1215  0.6931
 2328TIP3    H2 6991   1.468   0.972   2.087  0.8853  0.3999  1.9279
 2329TIP3   OH2 6992   3.008   5.023   3.117  0.4193 -0.4047 -0.6492
 2329TIP3    H1 6993   3.003   4.927   3.125  0.2944 -0.4609 -1.3270
 2329TIP3    H2 6994   3.000   5.055   3.207  0.7327 -1.0442 -0.3873
 2330TIP3   OH2 6995   6.136   1.878   3.112 -0.1594  0.3999  0.0641
 2330TIP3    H1 6996   6.049   1.851   3.141  0.8200 -2.7638  0.4167
 2330TIP3    H2 6997   6.121   1.958   3.061 -3.4379 -0.6911 -0.9109
 2331TIP3   OH2 6998   4.191   4.665   1.234  0.4032 -0.4579  0.3654
 2331TIP3    H1 6999   4.254   4.689   1.302 -0.2130 -0.5913  1.0048
 2331TIP3    H2 7000   4.106   4.664   1.280 -0.0277 -0.5260 -0.4131
 2332TIP3   OH2 7001   4.819   4.831   4.959  0.0253  0.3984  0.0495
 2332TIP3    H1 7002   4.886   4.871   4.903 -0.8703  0.1326 -1.2682
 2332TIP3    H2 7003   4.736   4.852   4.916 -0.5904 -1.3101  0.3108
 2333TIP3   OH2 7004   2.343   0.665   3.743 -0.0669 -0.2525  0.1749
 2333TIP3    H1 7005   2.434   0.650   3.770  0.0943  0.9395  0.3486
 2333TIP3    H2 7006   2.348   0.742   3.687 -0.9043 -0.5380 -0.3085
 2334TIP3   OH2 7007   5.279   5.573   3.041 -0.0480  0.0188 -0.1258
 2334TIP3    H1 7008   5.319   5.517   3.107  1.5067  1.1018 -0.0925
 2334TIP3    H2 7009   5.247   5.648   3.091 -0.0897  0.2044 -0.4296
 2335TIP3   OH2 7010   2.786   0.710   4.940 -0.2786  0.0788  0.2392
 2335TIP3    H1 7011   2.790   0.625   4.896 -0.7920  0.0157  0.3085
 2335TIP3    H2 7012   2.695   0.738   4.931  0.0997  1.0854 -0.6404
 2336TIP3   OH2 7013   6.179   5.396   3.064  0.4694  0.2075 -0.5156
 2336TIP3    H1 7014   6.198   5.306   3.089  1.5645  0.7390  0.7380
 2336TIP3    H2 7015   6.104   5.421   3.117  1.6092  0.7253  0.9452
 2337TIP3   OH2 7016   5.407   0.363   1.163 -0.2109  0.6480  0.2961
 2337TIP3    H1 7017   5.409   0.380   1.069 -0.3905 -0.3067  0.1060
 2337TIP3    H2 7018   5.471   0.424   1.199  0.8695  0.1006 -0.6137
 2338TIP3   OH2 7019   0.758   0.153   1.564 -0.0900 -0.1796 -0.1755
 2338TIP3    H1 7020   0.691   0.095   1.601  0.4680 -1.1778 -0.7096
 2338TIP3    H2 7021   0.709   0.229   1.533 -1.0562 -1.1299 -1.0514
 2339TIP3   OH2 7022   4.871   1.850   1.973 -0.0515  0.5707  0.4578
 2339TIP3    H1 7023   4.961   1.850   1.940 -0.5758 -1.8857 -1.2718
 2339TIP3    H2 7024   4.840   1.939   1.958  1.0706  0.6187 -2.1182
 2340TIP3   OH2 7025   4.919   4.191   2.300 -0.5793  0.8754 -0.3100
 2340TIP3    H1 7026   4.936   4.101   2.326  0.2620  1.0144 -0.3687
 2340TIP3    H2 7027   4.959   4.245   2.368 -0.3426  1.2105 -0.7049
 2341TIP3   OH2 7028   1.488   3.218   3.546  0.4507  0.3485  0.7285
 2341TIP3    H1 7029   1.538   3.239   3.466 -1.0274 -1.2813 -0.7026
 2341TIP3    H2 7030   1.532   3.142   3.582  0.0202 -0.0718  0.3868
 2342TIP3   OH2 7031   1.195   0.954   3.440  0.0525 -0.3877  0.0614
 2342TIP3    H1 7032   1.117   0.960   3.495  0.5251 -0.4971  0.7476
 2342TIP3    H2 7033   1.162   0.919   3.356 -0.9480  1.4342 -0.3527
 2343TIP3   OH2 7034   6.276   2.214   2.256 -0.1620 -0.2440 -0.0544
 2343TIP3    H1 7035   6.231   2.265   2.324  1.5285 -0.0537  0.9753
 2343TIP3    H2 7036   6.314   2.140   2.304 -0.6999 -1.2818 -1.1687
 2344TIP3   OH2 7037   2.256   1.139   4.781  0.3179 -0.4204 -0.4017
 2344TIP3    H1 7038   2.330   1.195   4.803  1.5097 -2.3537  0.7712
 2344TIP3    H2 7039   2.293   1.069   4.727 -0.6447 -1.4143  0.1845
 2345TIP3   OH2 7040   2.908   1.721   4.507 -0.2877  0.0149 -0.2038
 2345TIP3    H1 7041   2.919   1.646   4.449  0.8109 -0.2673  0.3397
 2345TIP3    H2 7042   2.996   1.758   4.515 -1.1232  2.7194 -2.2212
 2346TIP3   OH2 7043   0.924   2.241   1.115  0.0678  0.1329 -0.4341
 2346TIP3    H1 7044   0.897   2.317   1.063  1.7552  0.0146 -1.5463
 2346TIP3    H2 7045   0.999   2.205   1.068 -0.1270 -1.6947  0.5660
 2347TIP3   OH2 7046   3.154   5.530   4.179  0.3543 -0.1222 -0.3119
 2347TIP3    H1 7047   3.086   5.482   4.132  0.6810  0.8038 -1.7982
 2347TIP3    H2 7048   3.119   5.618   4.192  1.8400  0.9290 -2.6935
 2348TIP3   OH2 7049   0.314   4.611   5.010 -0.1747 -0.1958  1.1879
 2348TIP3    H1 7050   0.232   4.572   5.039  0.1599  0.3605  3.0383
 2348TIP3    H2 7051   0.357   4.640   5.091  0.3985  2.4068  0.0519
 2349TIP3   OH2 7052   2.453   4.778   3.601  0.2828 -0.2595  0.5415
 2349TIP3    H1 7053   2.507   4.800   3.677  0.5961  0.4728  0.1179
 2349TIP3    H2 7054   2.500   4.816   3.527 -0.6738  0.1485  0.1254
 2350TIP3   OH2 7055   5.735   1.609   3.674 -0.6260  0.6702 -0.1403
 2350TIP3    H1 7056   5.642   1.585   3.675 -0.1706 -1.3353 -1.1239
 2350TIP3    H2 7057   5.770   1.564   3.597  1.1038  1.6730  0.0263
 2351TIP3   OH2 7058   3.385   2.796   0.986 -0.0489  0.0371 -0.2219
 2351TIP3    H1 7059   3.316   2.745   1.027  0.2320 -0.1116  0.0623
 2351TIP3    H2 7060   3.461   2.785   1.043  0.5403 -0.7208 -1.1334
 2352TIP3   OH2 7061   1.501   0.973   1.438 -0.3218  0.4338  0.4551
 2352TIP3    H1 7062   1.487   0.891   1.391 -0.0870  0.1742  0.8301
 2352TIP3    H2 7063   1.414   0.998   1.469 -0.3930  0.3306  0.3412
 2353TIP3   OH2 7064   0.932   2.236   3.163  0.0788 -0.1060  0.5398
 2353TIP3    H1 7065   0.840   2.212   3.150  0.7266 -3.4496  1.1634
 2353TIP3    H2 7066   0.965   2.253   3.074 -0.7485 -0.4974  0.1448
 2354TIP3   OH2 7067   1.391   2.685   0.323 -0.3338 -0.0415 -0.6470
 2354TIP3    H1 7068   1.397   2.592   0.345  0.2411  0.0291 -0.4915
 2354TIP3    H2 7069   1.347   2.725   0.398 -2.3276 -0.4697 -1.5239
 2355TIP3   OH2 7070   3.938   2.061   1.466  0.2873  0.2692  0.3968
 2355TIP3    H1 7071   3.944   1.966   1.458  0.6555  0.3360 -0.2109
 2355TIP3    H2 7072   4.022   2.087   1.504  0.5185  0.4205 -0.2005
 2356TIP3   OH2 7073   2.559   5.859   2.014  0.1160  0.2184  0.0793
 2356TIP3    H1 7074   2.522   5.946   2.031  1.6510  1.1249 -0.9967
 2356TIP3    H2 7075   2.543   5.811   2.095 -0.7460  1.4982  0.7176
 2357TIP3   OH2 7076   6.081   2.410   0.731 -0.4176  0.1828  0.2043
 2357TIP3    H1 7077   6.098   2.458   0.650 -0.9140  1.1866  0.6843
 2357TIP3    H2 7078   6.131   2.455   0.798 -0.8413 -0.0042  0.6543
 2358TIP3   OH2 7079   3.905   3.508   0.108  0.0279 -0.5989 -0.7189
 2358TIP3    H1 7080   3.834   3.444   0.119 -0.1902 -0.1720  0.4253
 2358TIP3    H2 7081   3.980   3.456   0.078 -0.9372 -0.9646 -2.6973
 2359TIP3   OH2 7082  -0.020   3.430   5.108 -0.0521  0.4388 -0.1150
 2359TIP3    H1 7083   0.030   3.367   5.055 -0.6530  0.0103 -0.1805
 2359TIP3    H2 7084   0.040   3.453   5.179  0.9087  1.2996 -1.1577
 2360TIP3   OH2 7085   4.049   4.366   3.117 -0.2766  0.6316  0.3287
 2360TIP3    H1 7086   4.018   4.346   3.029  3.6234 -0.3542 -1.0200
 2360TIP3    H2 7087   4.061   4.280   3.158 -1.0905  1.0551  1.5095
 2361TIP3   OH2 7088   0.065   0.043   0.283 -0.6426  0.1895 -0.0180
 2361TIP3    H1 7089   0.070  -0.044   0.244 -3.1582  0.6551 -1.5792
 2361TIP3    H2 7090  -0.027   0.068   0.276  0.0208  3.0688  0.1804
 2362TIP3   OH2 7091   4.207   1.912   4.149 -0.0930  0.2610 -0.2753
 2362TIP3    H1 7092   4.203   1.823   4.183  0.2568  0.5883  0.6560
 2362TIP3    H2 7093   4.120   1.948   4.165 -0.0503  0.2820 -0.0847
 2363TIP3   OH2 7094   1.063   0.389   2.609 -1.0555 -0.4640 -0.2804
 2363TIP3    H1 7095   1.050   0.294   2.606  0.1637 -0.6253 -1.0285
 2363TIP3    H2 7096   1.104   0.404   2.694 -0.9215 -0.6545 -0.3092
 2364TIP3   OH2 7097   0.079   3.935   2.106 -0.0237  0.2722  0.9556
 2364TIP3    H1 7098   0.038   4.011   2.147 -1.0794 -0.0838  0.5974
 2364TIP3    H2 7099   0.006   3.881   2.077  0.6808 -1.3201  1.9867
 2365TIP3   OH2 7100   0.227   0.551   3.263 -0.5689  0.0778 -0.1767
 2365TIP3    H1 7101   0.272   0.473   3.231  1.7657  1.5185 -0.5983
 2365TIP3    H2 7102   0.293   0.621   3.260 -3.1662  2.6987 -2.1795
 2366TIP3   OH2 7103   2.386   3.492   1.300 -0.3365  0.5507  0.3481
 2366TIP3    H1 7104   2.362   3.429   1.232  0.3641  1.7115 -1.0320
 2366TIP3    H2 7105   2.479   3.477   1.315 -0.4261  0.4928  0.8699
 2367TIP3   OH2 7106   1.992   5.576   4.940  0.2702 -0.0061  0.4101
 2367TIP3    H1 7107   1.997   5.565   4.845 -1.7862 -0.9904  0.3744
 2367TIP3    H2 7108   1.927   5.645   4.953  1.5126  1.0808  1.1078
 2368TIP3   OH2 7109   5.326   0.409  -0.001  0.1079  0.2610 -0.3075
 2368TIP3    H1 7110   5.298   0.403   0.091 -1.6510 -1.4761 -0.8983
 2368TIP3    H2 7111   5.245   0.430  -0.049  0.6495 -0.5746 -1.6347
 2369TIP3   OH2 7112   3.439   5.783   0.787 -0.1221 -0.7806  0.1810
 2369TIP3    H1 7113   3.398   5.744   0.710 -0.5968 -1.1119  0.5946
 2369TIP3    H2 7114   3.533   5.772   0.772 -0.1482  0.4705 -1.0246
 2370TIP3   OH2 7115   1.666   0.632   1.647 -0.1470  0.0900 -0.7050
 2370TIP3    H1 7116   1.672   0.662   1.737  0.1432 -0.1027 -0.6578
 2370TIP3    H2 7117   1.573   0.617   1.632 -0.0509 -1.3387  0.0428
 2371TIP3   OH2 7118   2.920   2.685   5.123  0.0577  0.4296 -0.5078
 2371TIP3    H1 7119   2.899   2.778   5.132  1.4305  0.7937 -0.7743
 2371TIP3    H2 7120   2.899   2.665   5.032  0.5649  0.7133 -0.6930
 2372TIP3   OH2 7121   5.078   1.473   4.760  0.3861 -0.2199  0.0990
 2372TIP3    H1 7122   5.084   1.447   4.668 -0.9504 -1.4650  0.3406
 2372TIP3    H2 7123   5.072   1.569   4.757  0.5328 -0.2291 -1.0906
 2373TIP3   OH2 7124   6.122   3.137   2.472 -0.2551  0.1607 -0.5472
 2373TIP3    H1 7125   6.204   3.137   2.423 -0.0900  0.6498 -0.2823
 2373TIP3    H2 7126   6.054   3.148   2.406 -0.0461  0.6075 -0.6874
 2374TIP3   OH2 7127   3.390   2.316   1.444  0.2045  0.1845  0.2517
 2374TIP3    H1 7128   3.484   2.320   1.462  0.0180 -0.7554  1.5315
 2374TIP3    H2 7129   3.348   2.341   1.527 -0.7181  3.0072 -0.9359
 2375TIP3   OH2 7130   3.077   0.582   4.486  0.5356 -0.2857 -0.5371
 2375TIP3    H1 7131   3.025   0.523   4.541  0.1175 -0.0791 -0.7017
 2375TIP3    H2 7132   3.142   0.526   4.445 -0.1776 -0.7314 -1.0902
 2376TIP3   OH2 7133   1.225   3.362   3.331 -0.1134 -0.3234  0.3079
 2376TIP3    H1 7134   1.313   3.336   3.305  0.0706  2.0241 -1.6974
 2376TIP3    H2 7135   1.182   3.388   3.250 -2.0192  0.4343  1.4908
 2377TIP3   OH2 7136   5.867   2.726   1.784  0.5893 -0.8783 -0.1567
 2377TIP3    H1 7137   5.958   2.731   1.754  0.8040  1.9617  0.7092
 2377TIP3    H2 7138   5.873   2.725   1.879 -0.2693 -0.8344 -0.0979
 2378TIP3   OH2 7139   3.234   1.168   4.518 -0.2940 -0.2119 -0.5432
 2378TIP3    H1 7140   3.164   1.115   4.557 -1.2700  1.5965  0.2941
 2378TIP3    H2 7141   3.188   1.237   4.471  0.8678  1.7864  1.1000
 2379TIP3   OH2 7142   1.184   5.924   3.726  0.3658  0.1370  0.3895
 2379TIP3    H1 7143   1.112   5.863   3.738  1.0540 -0.8818 -0.5466
 2379TIP3    H2 7144   1.153   5.986   3.660 -0.4261  0.9923  1.5181
 2380TIP3   OH2 7145   3.996   0.957   3.282 -0.1499  0.0879 -1.0116
 2380TIP3    H1 7146   4.087   0.931   3.298 -0.1370  1.3456  1.4271
 2380TIP3    H2 7147   3.955   0.879   3.245  1.4835 -1.1237 -0.3948
 2381TIP3   OH2 7148   4.771   2.035   0.748  0.2512 -0.3280 -0.1419
 2381TIP3    H1 7149   4.800   2.122   0.777  1.0583  0.0356 -1.8789
 2381TIP3    H2 7150   4.853   1.990   0.725  0.0554 -2.3274  2.5605
 2382TIP3   OH2 7151   0.608   5.375   2.298  0.0652  0.0798 -0.1183
 2382TIP3    H1 7152   0.697   5.401   2.323 -0.2080  1.3992 -0.4667
 2382TIP3    H2 7153   0.598   5.407   2.209 -0.4312 -0.9430 -0.4454
 2383TIP3   OH2 7154   5.837   2.090   3.105 -0.4111  0.7481  0.1437
 2383TIP3    H1 7155   5.884   2.052   3.180 -2.0364 -0.0282  0.8170
 2383TIP3    H2 7156   5.905   2.102   3.038  0.8181  0.0765  1.2115
 2384TIP3   OH2 7157   5.003   0.262   1.734  0.0147  0.4833 -0.2258
 2384TIP3    H1 7158   5.017   0.264   1.639  0.0536  1.8827 -0.2229
 2384TIP3    H2 7159   5.091   0.266   1.771  0.0151 -0.3742 -0.1159
 2385TIP3   OH2 7160   1.681   5.536   4.929  0.0962  0.4921 -0.4330
 2385TIP3    H1 7161   1.591   5.550   4.957 -0.0812  1.7566 -1.5599
 2385TIP3    H2 7162   1.728   5.613   4.960  0.4160  0.6832 -1.3485
 2386TIP3   OH2 7163   2.730   3.563   2.593  0.2812 -0.2666 -0.4654
 2386TIP3    H1 7164   2.803   3.614   2.558  0.0810  1.7481  1.7972
 2386TIP3    H2 7165   2.677   3.627   2.640  0.0917 -2.5397  2.7035
 2387TIP3   OH2 7166   5.567   0.152   1.002 -0.1490 -0.0574 -0.0411
 2387TIP3    H1 7167   5.635   0.116   0.945 -0.0326 -0.2895  0.2453
 2387TIP3    H2 7168   5.600   0.238   1.029  0.8743 -0.9155  1.5732
 2388TIP3   OH2 7169   1.208   1.272   1.007 -0.1436 -0.0720  0.0086
 2388TIP3    H1 7170   1.149   1.310   0.942 -1.8505 -0.6082  1.1600
 2388TIP3    H2 7171   1.263   1.345   1.035 -1.7795  1.0502  0.4814
 2389TIP3   OH2 7172   4.683   3.982   2.275  0.1808 -0.0888  0.4426
 2389TIP3    H1 7173   4.741   4.047   2.234  0.3194  0.2066  1.1032
 2389TIP3    H2 7174   4.728   3.898   2.260  1.5369  0.2630  2.1783
 2390TIP3   OH2 7175   0.428   0.746   3.587 -0.4434 -0.0546 -0.1458
 2390TIP3    H1 7176   0.334   0.728   3.589 -0.6350  0.6416 -1.5104
 2390TIP3    H2 7177   0.457   0.708   3.504 -0.0361  1.9721 -0.9864
 2391TIP3   OH2 7178   1.720   2.291   4.949  0.1985 -0.7221 -0.0661
 2391TIP3    H1 7179   1.758   2.297   4.862 -1.6695  0.0379 -0.8699
 2391TIP3    H2 7180   1.711   2.197   4.965  0.1108 -0.8566 -0.8857
 2392TIP3   OH2 7181   6.222   2.143   0.575  0.0092 -0.3003  0.4126
 2392TIP3    H1 7182   6.193   2.175   0.490  1.5116 -0.0839 -0.0517
 2392TIP3    H2 7183   6.159   2.178   0.637 -1.4129 -0.8757 -0.6430
 2393TIP3   OH2 7184   6.152   1.136   4.462  0.0368  0.0856 -0.6366
 2393TIP3    H1 7185   6.100   1.121   4.541 -0.6232 -0.1391 -1.0981
 2393TIP3    H2 7186   6.204   1.213   4.481  0.6894 -0.5989  0.4158
 2394TIP3   OH2 7187   5.163   4.299   1.981 -0.0033  0.0466 -0.1647
 2394TIP3    H1 7188   5.210   4.382   1.982 -0.9420  0.6112  1.1963
 2394TIP3    H2 7189   5.160   4.273   1.889  0.4693  1.4248 -0.5872
 2395TIP3   OH2 7190   3.507   5.910   1.171  0.4838  0.4698  0.0109
 2395TIP3    H1 7191   3.585   5.863   1.144  0.2106 -0.0398  0.1015
 2395TIP3    H2 7192   3.492   5.975   1.102 -0.7624 -1.4286 -1.6141
 2396TIP3   OH2 7193   1.719   1.375   2.600  0.0805  0.2755 -0.7435
 2396TIP3    H1 7194   1.671   1.293   2.606  0.0243  0.4182  1.3498
 2396TIP3    H2 7195   1.797   1.353   2.549  1.0510 -1.6178  1.3836
 2397TIP3   OH2 7196   6.026   0.059   4.053  0.3640  0.3283 -0.9163
 2397TIP3    H1 7197   6.113   0.060   4.013  1.4169 -1.1425  1.1458
 2397TIP3    H2 7198   6.040   0.089   4.143 -1.2302 -0.1213 -0.4736
 2398TIP3   OH2 7199   4.381   2.614   1.560 -0.2076 -0.7371  0.3483
 2398TIP3    H1 7200   4.385   2.527   1.521 -1.3830 -0.8351  0.4076
 2398TIP3    H2 7201   4.322   2.664   1.503  1.0352  0.2577 -0.1033
 2399TIP3   OH2 7202   3.854   5.383   0.280 -0.3620 -0.1535  0.0279
 2399TIP3    H1 7203   3.805   5.412   0.357  0.4515 -0.5229  0.7034
 2399TIP3    H2 7204   3.788   5.351   0.220 -1.1302  1.2613  0.0644
 2400TIP3   OH2 7205   3.635   3.844   0.644 -0.1857 -0.0076  0.3359
 2400TIP3    H1 7206   3.561   3.872   0.699  0.2487  3.2831 -0.5836
 2400TIP3    H2 7207   3.712   3.876   0.690  0.5063 -0.8880 -0.1776
 2401TIP3   OH2 7208   2.141   4.680   2.131  0.0453  0.5053  0.0895
 2401TIP3    H1 7209   2.087   4.755   2.157 -0.0675 -0.1523  1.9134
 2401TIP3    H2 7210   2.082   4.624   2.081 -1.1763 -0.3921  2.3853
 2402TIP3   OH2 7211   4.972   3.834   5.165  0.2003  0.0232 -0.1857
 2402TIP3    H1 7212   5.002   3.879   5.085 -0.2885  1.0668  0.1960
 2402TIP3    H2 7213   4.917   3.763   5.133  1.0970 -0.4072 -0.8150
 2403TIP3   OH2 7214   5.450   1.175   1.642 -0.4403  0.6655  0.1893
 2403TIP3    H1 7215   5.498   1.151   1.722  0.5395 -0.6189 -0.7397
 2403TIP3    H2 7216   5.448   1.094   1.590 -1.9893  1.2012 -0.6350
 2404TIP3   OH2 7217   4.061   1.518   1.084  0.2594  0.2376  0.7291
 2404TIP3    H1 7218   4.151   1.486   1.080  0.1344 -0.3977  2.1851
 2404TIP3    H2 7219   4.009   1.441   1.108 -0.5067  0.8393  1.0666
 2405TIP3   OH2 7220   2.156   4.621   1.115 -0.2119 -0.3077  0.1842
 2405TIP3    H1 7221   2.174   4.713   1.100 -0.1118 -0.2291  0.7376
 2405TIP3    H2 7222   2.069   4.620   1.156  0.0256 -0.4073  0.6999
 2406TIP3   OH2 7223   6.238   0.628   3.868  0.3460 -0.2298  0.0138
 2406TIP3    H1 7224   6.163   0.570   3.853 -0.7759  0.5663  2.0680
 2406TIP3    H2 7225   6.228   0.657   3.959  3.1230 -0.0023  0.3260
 2407TIP3   OH2 7226   0.165   0.436   2.204 -0.0032  0.6060 -0.2482
 2407TIP3    H1 7227   0.199   0.428   2.115  0.7853  1.7241 -0.0719
 2407TIP3    H2 7228   0.161   0.531   2.220 -1.8640  0.4882  0.2655
 2408TIP3   OH2 7229   1.609   5.295   5.196  0.3264  0.1711 -0.2836
 2408TIP3    H1 7230   1.663   5.365   5.234 -0.2098  1.1432 -1.2552
 2408TIP3    H2 7231   1.667   5.252   5.132  0.5264 -0.0081  0.0167
 2409TIP3   OH2 7232   2.871   0.948   4.306 -0.7065  0.5184 -0.0671
 2409TIP3    H1 7233   2.952   0.921   4.262 -1.8712  0.1152 -2.0652
 2409TIP3    H2 7234   2.882   0.917   4.396  0.6717 -1.0050 -0.6983
 2410TIP3   OH2 7235   4.930   2.511   1.598 -0.2963  0.0538 -0.2747
 2410TIP3    H1 7236   4.938   2.605   1.611  1.6420 -0.2761  1.4853
 2410TIP3    H2 7237   4.988   2.492   1.524  0.4138  0.0875  0.2644
 2411TIP3   OH2 7238   1.284   3.701   0.436  0.6373 -0.5765 -0.1940
 2411TIP3    H1 7239   1.217   3.639   0.407  1.4455 -1.3614 -0.4343
 2411TIP3    H2 7240   1.365   3.650   0.439  1.5110  0.6610 -1.2483
 2412TIP3   OH2 7241   5.118   5.591   4.095  0.6690 -0.2337  0.4203
 2412TIP3    H1 7242   5.197   5.563   4.141 -0.4666 -1.8160  1.5141
 2412TIP3    H2 7243   5.132   5.564   4.004  2.3369  1.6602  0.0139
 2413TIP3   OH2 7244   2.700   1.136   2.104 -0.0829  0.1380  0.4937
 2413TIP3    H1 7245   2.610   1.166   2.116  0.1495  1.0327  0.0011
 2413TIP3    H2 7246   2.741   1.149   2.190 -0.1668  0.5937  0.4643
 2414TIP3   OH2 7247   5.276   2.783   2.967  0.3657  0.2569  0.1628
 2414TIP3    H1 7248   5.313   2.865   2.935 -0.3708 -0.2520 -2.1897
 2414TIP3    H2 7249   5.352   2.728   2.986  0.8400  0.7228 -0.3499
 2415TIP3   OH2 7250   2.027   1.888   4.983 -0.4461  0.0523 -0.1748
 2415TIP3    H1 7251   1.968   1.856   4.915  1.4611  0.5928 -2.2138
 2415TIP3    H2 7252   1.981   1.872   5.065 -2.9185 -0.5152 -1.5844
 2416TIP3   OH2 7253   2.616   4.489   2.197  0.0986  0.1819  0.2390
 2416TIP3    H1 7254   2.593   4.472   2.288  0.6006  2.4374  0.8576
 2416TIP3    H2 7255   2.706   4.458   2.189  0.0182 -0.1215  0.4645
 2417TIP3   OH2 7256   5.222   0.212   3.254  0.2496 -0.3735  0.2525
 2417TIP3    H1 7257   5.197   0.126   3.287 -1.0343  0.7075  2.2724
 2417TIP3    H2 7258   5.272   0.251   3.325  0.0585  0.8929 -0.2850
 2418TIP3   OH2 7259   0.455   3.011   3.454 -0.0443 -0.2235  0.0602
 2418TIP3    H1 7260   0.412   2.930   3.428 -0.4676  0.1433 -0.4063
 2418TIP3    H2 7261   0.515   3.031   3.382 -0.0183 -0.0677  0.1228
 2419TIP3   OH2 7262   3.609   3.643   3.298 -0.2998 -0.0041 -1.2131
 2419TIP3    H1 7263   3.522   3.677   3.317 -0.4658 -1.0642  0.1255
 2419TIP3    H2 7264   3.668   3.715   3.321 -0.7080 -0.1197  0.3101
 2420TIP3   OH2 7265   4.363   2.472   3.405 -0.1022  0.3325 -0.3851
 2420TIP3    H1 7266   4.375   2.411   3.478  1.4047  0.6984 -0.2849
 2420TIP3    H2 7267   4.445   2.467   3.356 -0.0947  1.9856 -0.5989
 2421TIP3   OH2 7268   1.913   4.919   2.645 -0.6785  0.4278  0.2160
 2421TIP3    H1 7269   1.925   4.829   2.676 -0.8608  0.6187  0.8528
 2421TIP3    H2 7270   1.820   4.938   2.662 -0.7480  0.5844 -0.3235
 2422TIP3   OH2 7271   4.216   3.870   2.714 -0.1711  0.3688 -0.0128
 2422TIP3    H1 7272   4.232   3.942   2.775 -0.2367 -0.5392  1.1044
 2422TIP3    H2 7273   4.145   3.821   2.753 -0.8667  0.2975 -1.3234
 2423TIP3   OH2 7274   5.342   3.135   2.614 -0.6335 -0.0946 -0.0433
 2423TIP3    H1 7275   5.321   3.174   2.699 -0.1825 -0.4304  0.2270
 2423TIP3    H2 7276   5.435   3.115   2.619 -0.5336  0.1752 -0.7413
 2424TIP3   OH2 7277   3.944   2.782   0.103  0.6156  0.5834 -0.0170
 2424TIP3    H1 7278   3.894   2.735   0.036  4.0280  1.1912 -3.3362
 2424TIP3    H2 7279   3.936   2.874   0.077 -0.1491  1.1817  2.1407
 2425TIP3   OH2 7280   5.630   5.457   0.662 -0.4279 -0.2724  0.7697
 2425TIP3    H1 7281   5.562   5.404   0.620 -0.8347  1.1219 -0.4073
 2425TIP3    H2 7282   5.588   5.491   0.742 -1.0611  0.4067  0.1583
 2426TIP3   OH2 7283   5.024   2.134   1.429 -0.3863 -0.2251  0.1186
 2426TIP3    H1 7284   5.011   2.064   1.493  3.3014 -1.8118 -0.5755
 2426TIP3    H2 7285   5.052   2.088   1.349 -0.1811  1.9264 -1.1270
 2427TIP3   OH2 7286   5.492   5.579   2.806  0.1706 -0.2450  1.2344
 2427TIP3    H1 7287   5.500   5.674   2.809  0.7286 -0.1826 -0.7724
 2427TIP3    H2 7288   5.414   5.560   2.858 -1.7057  1.6187 -0.6564
 2428TIP3   OH2 7289   3.330   2.629   3.494 -0.3923 -0.4508  0.6923
 2428TIP3    H1 7290   3.284   2.596   3.571 -0.0989 -0.9315  0.6683
 2428TIP3    H2 7291   3.379   2.704   3.526 -0.6711 -0.3389  0.8637
 2429TIP3   OH2 7292   3.271   4.192   3.960  0.1791  0.1020  0.4207
 2429TIP3    H1 7293   3.231   4.196   4.047  0.7215 -0.2037  0.6846
 2429TIP3    H2 7294   3.222   4.122   3.916 -0.4139  0.5736  0.3100
 2430TIP3   OH2 7295   2.226   2.923   2.440 -0.2228  0.1541  0.1709
 2430TIP3    H1 7296   2.275   2.841   2.442  0.1944  0.3564 -1.0648
 2430TIP3    H2 7297   2.158   2.909   2.374  0.0470  0.9034 -0.2765
 2431TIP3   OH2 7298   1.963   5.351   4.206 -0.0757  0.4641  0.0246
 2431TIP3    H1 7299   2.032   5.382   4.148 -0.1248  1.5070  0.4991
 2431TIP3    H2 7300   1.981   5.257   4.217  0.6481  0.5130 -0.6826
 2432TIP3   OH2 7301   5.093   0.991   2.955 -1.2565 -0.1592 -0.2531
 2432TIP3    H1 7302   5.141   1.059   2.908 -0.6683 -0.7373 -0.4971
 2432TIP3    H2 7303   5.013   1.034   2.984 -2.3073 -0.1161 -2.9719
 2433TIP3   OH2 7304   5.398   0.849   1.720  0.2275  0.3087  0.2221
 2433TIP3    H1 7305   5.471   0.855   1.660 -0.8436  0.9996 -1.0679
 2433TIP3    H2 7306   5.337   0.917   1.691 -0.7798 -0.0235  1.4511
 2434TIP3   OH2 7307   3.866   0.395   1.222 -0.1191  0.0361  0.0805
 2434TIP3    H1 7308   3.778   0.384   1.258 -0.0899 -0.4323  0.0130
 2434TIP3    H2 7309   3.907   0.309   1.230  0.8675  0.5948  1.5017
 2435TIP3   OH2 7310   0.374   2.402   3.457  0.4514 -0.6383 -0.2509
 2435TIP3    H1 7311   0.413   2.403   3.545 -1.1145 -1.0118  0.4844
 2435TIP3    H2 7312   0.354   2.310   3.441 -1.9614 -0.2524  0.2740
 2436TIP3   OH2 7313   3.015   5.020   0.020 -0.4623 -0.0873  0.0571
 2436TIP3    H1 7314   3.004   4.982  -0.067 -1.4526  0.3721 -0.0398
 2436TIP3    H2 7315   2.939   4.989   0.069 -0.2043  0.1169  0.5951
 2437TIP3   OH2 7316   2.421   3.418   0.557  0.0721 -0.0825  0.8090
 2437TIP3    H1 7317   2.488   3.428   0.490 -1.2217 -0.7122 -0.6249
 2437TIP3    H2 7318   2.445   3.482   0.624  0.8265  1.3307 -0.7262
 2438TIP3   OH2 7319   2.343   3.069   4.073 -0.4937 -0.4700 -0.2805
 2438TIP3    H1 7320   2.419   3.125   4.060 -1.5661  1.4760  1.2830
 2438TIP3    H2 7321   2.320   3.038   3.985  1.4347 -0.2452 -0.9006
 2439TIP3   OH2 7322   0.953   3.169   0.462  0.0702 -0.0362 -0.0170
 2439TIP3    H1 7323   1.043   3.153   0.490 -0.3787 -0.2940  1.3571
 2439TIP3    H2 7324   0.953   3.147   0.369  1.4549  0.1279 -0.0875
 2440TIP3   OH2 7325   2.694   5.516   0.168  0.2779 -0.1076  0.3122
 2440TIP3    H1 7326   2.671   5.428   0.137  0.5261 -0.1807  0.3353
 2440TIP3    H2 7327   2.790   5.517   0.168  0.2974 -0.3566  1.7644
 2441TIP3   OH2 7328   2.448   2.871   2.011 -0.5256  0.3237  0.6084
 2441TIP3    H1 7329   2.515   2.860   2.079  0.2447 -1.6748 -0.3942
 2441TIP3    H2 7330   2.371   2.826   2.045 -0.5588  0.4393  0.6882
 2442TIP3   OH2 7331   3.974   1.023   1.097 -0.3403  0.1657  0.2153
 2442TIP3    H1 7332   3.989   0.968   1.019 -0.3373  2.0665 -1.1927
 2442TIP3    H2 7333   3.896   0.986   1.137 -0.0610 -1.1708 -0.3890
 2443TIP3   OH2 7334   3.208   5.966   0.277  0.5066  0.0700 -0.0878
 2443TIP3    H1 7335   3.254   6.003   0.201 -1.1172 -1.0897 -1.7234
 2443TIP3    H2 7336   3.187   5.876   0.251 -0.6055 -0.1771  1.5165
 2444TIP3   OH2 7337   6.017   0.628   1.618 -0.5523  0.1183 -0.0893
 2444TIP3    H1 7338   6.063   0.682   1.683 -1.2943  1.5510 -0.7062
 2444TIP3    H2 7339   6.007   0.543   1.660  2.6803 -0.3077  0.0813
 2445TIP3   OH2 7340   1.920   1.210   3.339  0.7000  0.3026  0.4537
 2445TIP3    H1 7341   1.830   1.205   3.371  0.4383 -4.1592 -0.2911
 2445TIP3    H2 7342   1.974   1.209   3.419  0.1402  1.9162  0.8765
 2446TIP3   OH2 7343   3.587   4.083   2.721 -0.3695 -0.5042 -0.0841
 2446TIP3    H1 7344   3.630   4.084   2.636  1.7403 -0.6717  0.9101
 2446TIP3    H2 7345   3.660   4.082   2.784 -1.8627 -0.2740  1.7125
 2447TIP3   OH2 7346   0.685   5.499   3.332 -0.5107 -0.6372  0.6545
 2447TIP3    H1 7347   0.764   5.551   3.315  0.1392 -2.0438 -0.9162
 2447TIP3    H2 7348   0.625   5.523   3.261 -0.4318 -1.5543  0.2610
 2448TIP3   OH2 7349   4.295   4.017   4.461 -0.1546 -0.3065 -0.0864
 2448TIP3    H1 7350   4.223   4.027   4.522  0.2374  0.3615  0.2800
 2448TIP3    H2 7351   4.337   3.934   4.486 -0.5998 -0.5356 -0.0993
 2449TIP3   OH2 7352   1.749   2.021   4.997 -0.7324  0.1503 -0.1883
 2449TIP3    H1 7353   1.690   1.955   4.961 -0.6882 -0.2058  0.3792
 2449TIP3    H2 7354   1.757   1.998   5.089 -0.9074  1.0974  0.0674
 2450TIP3   OH2 7355   5.611   4.251   2.695  0.2084  0.0145  0.5308
 2450TIP3    H1 7356   5.555   4.307   2.748  0.7709  0.4000  0.7341
 2450TIP3    H2 7357   5.605   4.165   2.735 -1.0683 -0.2066 -0.0874
 2451TIP3   OH2 7358   5.023   3.344   2.877  0.3960  0.0583 -0.0437
 2451TIP3    H1 7359   4.961   3.417   2.877  1.4109  0.9632 -1.2372
 2451TIP3    H2 7360   4.984   3.280   2.817  0.5729  0.5964 -0.7415
 2452TIP3   OH2 7361   3.651   4.828   3.614 -0.1531  0.4217  0.0303
 2452TIP3    H1 7362   3.562   4.826   3.650 -0.0187  0.2340  0.3614
 2452TIP3    H2 7363   3.686   4.741   3.634 -0.1709  0.2167 -0.8063
 2453TIP3   OH2 7364   0.119   4.301   0.640  0.3970  0.0706 -0.1104
 2453TIP3    H1 7365   0.148   4.212   0.620 -2.4114 -0.7142 -1.1625
 2453TIP3    H2 7366   0.200   4.352   0.646  2.1034 -2.5786  0.8414
 2454TIP3   OH2 7367   5.602   4.731   2.191 -0.1634 -0.3609 -0.5656
 2454TIP3    H1 7368   5.653   4.663   2.149  1.5604  1.4927 -1.6490
 2454TIP3    H2 7369   5.598   4.801   2.126  0.6440  1.7227  1.4967
 2455TIP3   OH2 7370   3.003   3.814   0.377 -1.0521  0.2121  0.6631
 2455TIP3    H1 7371   2.964   3.871   0.310  0.6007  0.0118 -0.5540
 2455TIP3    H2 7372   2.948   3.826   0.454 -3.2406  0.2087 -0.8089
 2456TIP3   OH2 7373   4.418   1.129   5.018 -0.3347  0.3133 -0.1734
 2456TIP3    H1 7374   4.413   1.191   5.091 -2.4597  0.6724 -0.5613
 2456TIP3    H2 7375   4.404   1.043   5.058 -2.7641  0.6138 -0.2230
 2457TIP3   OH2 7376   2.800   3.166   4.911  0.8819  0.3670  0.7109
 2457TIP3    H1 7377   2.763   3.086   4.874  1.0221  0.8386 -0.4814
 2457TIP3    H2 7378   2.813   3.145   5.004  0.9361 -0.9949  0.4214
 2458TIP3   OH2 7379   5.062   5.544   0.157  0.1453 -0.7803  0.1735
 2458TIP3    H1 7380   4.975   5.526   0.194 -0.6577  2.1822 -0.0152
 2458TIP3    H2 7381   5.044   5.584   0.072  1.8557 -3.0704 -1.3843
 2459TIP3   OH2 7382   3.190   3.079   3.865 -0.0486 -0.3913  0.1626
 2459TIP3    H1 7383   3.128   3.152   3.869  0.8147  0.3443  0.4253
 2459TIP3    H2 7384   3.194   3.057   3.771 -0.0606  0.1202  0.0376
 2460TIP3   OH2 7385   4.197   2.787   2.908  0.0481  0.0957 -0.5564
 2460TIP3    H1 7386   4.265   2.730   2.945 -0.6083  0.9388  2.1306
 2460TIP3    H2 7387   4.228   2.876   2.925 -0.7773  0.5130 -1.1691
 2461TIP3   OH2 7388   5.268  -0.011   1.890 -0.8175 -0.5813  0.3885
 2461TIP3    H1 7389   5.219  -0.020   1.809  0.0762 -0.4155 -0.1833
 2461TIP3    H2 7390   5.339   0.050   1.869  0.9083 -2.3948  0.5627
 2462TIP3   OH2 7391   2.889   2.203   3.154 -0.4421  0.2323 -0.6752
 2462TIP3    H1 7392   2.960   2.165   3.205 -1.1278  0.4460  0.4722
 2462TIP3    H2 7393   2.838   2.254   3.217 -1.4966  0.2457 -1.5037
 2463TIP3   OH2 7394   4.853  -0.028   2.633  0.9983  0.2132  0.5161
 2463TIP3    H1 7395   4.824  -0.024   2.542  1.3409  2.0150  0.4635
 2463TIP3    H2 7396   4.828   0.056   2.670  1.4402 -0.2523  1.9186
 2464TIP3   OH2 7397   3.714   4.299   3.936  0.2901  0.0559 -0.2520
 2464TIP3    H1 7398   3.781   4.366   3.954  0.4169 -0.6473  2.3641
 2464TIP3    H2 7399   3.711   4.293   3.841  0.6568  3.3758 -0.6002
 2465TIP3   OH2 7400   2.074   4.084   4.657  0.0305  0.1282  0.3441
 2465TIP3    H1 7401   2.034   4.029   4.725  1.3315  0.1250  1.1507
 2465TIP3    H2 7402   2.151   4.034   4.628 -0.4541  0.1861 -1.0677
 2466TIP3   OH2 7403   1.447   4.810   1.425  0.3183 -0.2823 -0.1269
 2466TIP3    H1 7404   1.434   4.747   1.354  2.5752 -0.0045 -0.8855
 2466TIP3    H2 7405   1.532   4.850   1.406 -0.5446  2.2261  0.9335
 2467TIP3   OH2 7406   0.013   2.159   0.823  0.3067 -0.5869 -0.3343
 2467TIP3    H1 7407   0.075   2.114   0.880 -1.4837 -2.3087  0.3443
 2467TIP3    H2 7408   0.029   2.122   0.736  0.6445 -0.5440 -0.2912
 2468TIP3   OH2 7409   0.649   1.916   2.105 -0.3380 -0.1149  0.3425
 2468TIP3    H1 7410   0.659   1.885   2.194  0.9792 -1.0605 -0.1083
 2468TIP3    H2 7411   0.650   2.011   2.112  2.2831 -0.1421  1.1210
 2469TIP3   OH2 7412   2.330   1.471   3.850  0.0163 -0.7208 -0.7728
 2469TIP3    H1 7413   2.378   1.405   3.900  3.2353  0.7951 -1.5954
 2469TIP3    H2 7414   2.328   1.548   3.907 -0.7016 -0.4825 -1.1050
 2470TIP3   OH2 7415   0.045   5.110   4.971  0.0024 -0.5694 -0.5076
 2470TIP3    H1 7416   0.073   5.018   4.966 -0.8229 -0.8687  0.2291
 2470TIP3    H2 7417  -0.008   5.115   5.051 -2.9645 -0.2876 -2.3365
 2471TIP3   OH2 7418   3.036   4.130   4.503 -0.6319 -0.3216 -0.3814
 2471TIP3    H1 7419   3.035   4.085   4.419  0.5514 -0.5763 -0.2768
 2471TIP3    H2 7420   3.072   4.066   4.565 -2.2630 -0.4256  0.5147
 2472TIP3   OH2 7421   4.758   2.835   4.715 -0.0388 -0.4851  0.0377
 2472TIP3    H1 7422   4.776   2.768   4.781 -0.8685  0.2732  1.0669
 2472TIP3    H2 7423   4.663   2.838   4.709 -0.0295  0.8435  0.2832
 2473TIP3   OH2 7424   5.956   5.158   0.565 -0.0259 -0.0161 -0.0142
 2473TIP3    H1 7425   6.017   5.090   0.536  0.3261 -0.0039  0.6686
 2473TIP3    H2 7426   6.011   5.235   0.580 -0.4302  0.4360 -0.8289
 2474TIP3   OH2 7427   6.130   3.816   1.308  0.4329  0.0549 -0.5518
 2474TIP3    H1 7428   6.152   3.909   1.298  0.3045  0.1311 -0.1531
 2474TIP3    H2 7429   6.150   3.797   1.399 -0.5704 -0.0261 -0.3305
 2475TIP3   OH2 7430   3.189   1.192   5.130  0.5763 -0.2070 -0.7637
 2475TIP3    H1 7431   3.237   1.266   5.167 -1.3286 -0.8282  3.4703
 2475TIP3    H2 7432   3.113   1.232   5.087 -0.0754  0.4429  0.9059
 2476TIP3   OH2 7433   0.398   3.437   0.427 -0.0563  0.1976  0.5656
 2476TIP3    H1 7434   0.374   3.529   0.413  2.4029  0.6697 -1.3687
 2476TIP3    H2 7435   0.382   3.396   0.342 -0.7173 -1.1058  1.2903
 2477TIP3   OH2 7436   6.115   4.041   0.984  0.6110  0.4682 -0.7492
 2477TIP3    H1 7437   6.152   3.997   1.061  2.2745  2.0408 -0.5695
 2477TIP3    H2 7438   6.028   4.069   1.012  0.1018 -1.3811 -0.3940
 2478TIP3   OH2 7439   5.699   1.274   2.183 -0.6491  0.5775  0.5570
 2478TIP3    H1 7440   5.704   1.179   2.191 -0.0029  0.4784 -0.6591
 2478TIP3    H2 7441   5.620   1.289   2.131 -0.4260  0.6633  0.2420
 2479TIP3   OH2 7442   5.655   5.090   4.064  0.0139  0.0474 -0.8898
 2479TIP3    H1 7443   5.608   5.173   4.074  2.0532  1.2154 -0.2653
 2479TIP3    H2 7444   5.642   5.045   4.147  0.5071  0.6724 -0.4612
 2480TIP3   OH2 7445   5.732   2.846   0.641 -0.2691  0.2476 -0.1739
 2480TIP3    H1 7446   5.663   2.808   0.696 -0.0149 -1.2160 -0.8131
 2480TIP3    H2 7447   5.813   2.814   0.679 -0.1105 -2.2366 -2.2666
 2481TIP3   OH2 7448   2.360   0.933   3.893  0.0192  0.6654  0.7612
 2481TIP3    H1 7449   2.426   1.003   3.887 -0.0105  0.6517  0.1944
 2481TIP3    H2 7450   2.401   0.866   3.946  0.1786  0.9751  1.0345
 2482TIP3   OH2 7451   3.299   5.952   2.139 -0.1145  0.6793 -0.0443
 2482TIP3    H1 7452   3.284   5.861   2.162 -1.3209  1.0695  0.8529
 2482TIP3    H2 7453   3.285   5.956   2.045 -0.6912  0.0495  0.0094
 2483TIP3   OH2 7454   1.428   5.098   4.391  0.3414 -0.0200  0.4887
 2483TIP3    H1 7455   1.486   5.067   4.461 -0.0938  0.7053  1.1808
 2483TIP3    H2 7456   1.390   5.018   4.355  1.8329 -0.5237 -0.0552
 2484TIP3   OH2 7457   3.937   0.145   1.224 -0.0658 -0.0595 -0.2361
 2484TIP3    H1 7458   3.899   0.070   1.179  0.4720 -0.5292  0.0741
 2484TIP3    H2 7459   4.010   0.108   1.274 -2.4560 -0.2235  3.5740
 2485TIP3   OH2 7460   1.453   2.436   2.041 -0.0627 -0.0932  0.2779
 2485TIP3    H1 7461   1.388   2.469   2.103 -0.3925 -0.4587  0.1314
 2485TIP3    H2 7462   1.509   2.379   2.094  0.1800  0.2689  0.4168
 2486TIP3   OH2 7463   3.008   0.953   0.886 -0.2190 -0.0253  0.0016
 2486TIP3    H1 7464   3.039   0.863   0.895 -0.2740 -0.0942 -0.4618
 2486TIP3    H2 7465   2.976   0.976   0.973  1.3257  0.1232  0.5644
 2487TIP3   OH2 7466   2.557   4.552   3.386 -0.1887 -0.6371  0.1580
 2487TIP3    H1 7467   2.492   4.597   3.439  1.5626 -1.1234  2.8851
 2487TIP3    H2 7468   2.520   4.465   3.371 -1.7336  0.2344 -1.6015
 2488TIP3   OH2 7469   3.086   1.039   0.649 -0.1238 -0.6916 -0.3685
 2488TIP3    H1 7470   3.049   1.007   0.731 -1.5190  0.1160 -0.6416
 2488TIP3    H2 7471   3.091   1.134   0.660  2.3605 -0.7803 -0.1949
 2489TIP3   OH2 7472   2.630   0.411   2.914  0.1461  0.6499 -0.1386
 2489TIP3    H1 7473   2.581   0.406   2.832  1.1033 -0.1962 -0.6762
 2489TIP3    H2 7474   2.720   0.389   2.890  0.1524 -1.2290  1.3987
 2490TIP3   OH2 7475   6.059   1.636   4.111 -0.0651  0.5619  0.0059
 2490TIP3    H1 7476   6.039   1.703   4.177  0.5997  0.8400 -0.0706
 2490TIP3    H2 7477   5.999   1.655   4.039 -1.6536 -0.4842  0.9970
 2491TIP3   OH2 7478   6.164   0.957   3.850 -0.7386 -0.1047  1.4042
 2491TIP3    H1 7479   6.084   0.912   3.822  0.2547 -1.4525  0.5983
 2491TIP3    H2 7480   6.168   0.944   3.945 -0.9380 -0.9549  1.3022
 2492TIP3   OH2 7481   1.389   1.189   2.471 -0.0793 -0.3090 -0.6998
 2492TIP3    H1 7482   1.352   1.242   2.400  3.6174  3.0949 -0.4725
 2492TIP3    H2 7483   1.459   1.138   2.429  0.3893 -0.3127  0.0605
 2493TIP3   OH2 7484   2.363   4.614   2.594 -0.5143 -0.0901  0.7069
 2493TIP3    H1 7485   2.269   4.604   2.579 -0.3423 -0.7268 -0.0136
 2493TIP3    H2 7486   2.380   4.563   2.673 -0.5460 -1.1804  0.0331
 2494TIP3   OH2 7487   5.941   1.566   1.310 -0.6040 -0.4251 -0.2446
 2494TIP3    H1 7488   5.903   1.492   1.357 -0.6604 -1.2436 -1.5215
 2494TIP3    H2 7489   5.955   1.533   1.221  1.8026  0.2694 -0.1930
 2495TIP3   OH2 7490   3.676   2.424   3.037  0.4086  0.3372 -0.0474
 2495TIP3    H1 7491   3.723   2.500   3.070 -1.4732  1.2269  0.7361
 2495TIP3    H2 7492   3.745   2.365   3.006  1.9533  2.0384 -0.0399
 2496TIP3   OH2 7493   2.470   2.249   1.911  0.0646  0.0916  0.2314
 2496TIP3    H1 7494   2.526   2.288   1.978 -1.4054 -0.3649  1.7892
 2496TIP3    H2 7495   2.515   2.268   1.829  2.1398  0.3174  1.3448
 2497TIP3   OH2 7496   4.656   3.928   3.151  0.0402  0.3782 -0.0367
 2497TIP3    H1 7497   4.600   3.947   3.075 -0.8926 -1.1182  0.2253
 2497TIP3    H2 7498   4.665   4.012   3.196 -0.2138  1.0866 -1.2592
 2498TIP3   OH2 7499   6.114   4.014   2.305  0.0787 -0.0530 -0.2892
 2498TIP3    H1 7500   6.106   3.957   2.382 -0.4881  1.5129  0.8771
 2498TIP3    H2 7501   6.037   3.995   2.252 -0.5044  0.1424  0.4711
 2499TIP3   OH2 7502   3.076   3.200   1.601 -0.2930 -0.3353 -0.0559
 2499TIP3    H1 7503   3.053   3.232   1.688  0.6498 -0.2089  0.1572
 2499TIP3    H2 7504   3.147   3.137   1.616  0.5320  0.3841 -0.7997
 2500TIP3   OH2 7505   6.228   4.371   1.286  0.3780  0.3252 -0.3948
 2500TIP3    H1 7506   6.202   4.462   1.295 -2.7483 -0.5700  0.9678
 2500TIP3    H2 7507   6.239   4.339   1.375  0.5016 -0.8524 -0.8070
 2501TIP3   OH2 7508   3.829   4.447   3.481 -0.3804  0.1732  0.5691
 2501TIP3    H1 7509   3.816   4.381   3.413  2.3622 -1.9802  1.9506
 2501TIP3    H2 7510   3.757   4.509   3.467 -0.9554 -1.0561 -3.1324
 2502TIP3   OH2 7511   0.809   5.255   0.878 -0.0353 -0.5465  0.3119
 2502TIP3    H1 7512   0.728   5.307   0.878  0.4715  0.2613 -0.5173
 2502TIP3    H2 7513   0.782   5.168   0.849 -1.0577 -1.0696  2.5611
 2503TIP3   OH2 7514   4.419   5.966   5.049  0.8294 -0.5949  0.1165
 2503TIP3    H1 7515   4.326   5.945   5.043  0.8285 -0.6200  0.2079
 2503TIP3    H2 7516   4.429   6.050   5.005  1.0462 -1.4074 -1.4320
 2504TIP3   OH2 7517   4.240   5.832   4.224 -0.6248 -0.1386 -0.0365
 2504TIP3    H1 7518   4.161   5.830   4.279 -1.0214 -1.2929 -0.6134
 2504TIP3    H2 7519   4.209   5.808   4.137  0.2105  0.3868 -0.4919
 2505TIP3   OH2 7520   3.894   4.637   3.173 -0.4444  0.0091  0.2875
 2505TIP3    H1 7521   3.841   4.558   3.170  0.6043 -0.6989 -0.5638
 2505TIP3    H2 7522   3.927   4.647   3.084 -0.2561  1.2097  0.4661
 2506TIP3   OH2 7523   1.970   2.541   2.176  0.0639 -0.3264  0.1269
 2506TIP3    H1 7524   2.059   2.512   2.194  0.4442 -0.2400 -1.4847
 2506TIP3    H2 7525   1.926   2.538   2.261  1.2425 -1.5990  0.7253
 2507TIP3   OH2 7526   5.559   2.021   2.925 -0.2798  0.1836 -0.0163
 2507TIP3    H1 7527   5.558   2.114   2.948  1.2333 -0.0228  1.0034
 2507TIP3    H2 7528   5.579   2.020   2.832 -3.5695  0.9379 -0.8755
 2508TIP3   OH2 7529   5.553   5.560   1.322 -0.0137 -0.2819 -0.0887
 2508TIP3    H1 7530   5.514   5.618   1.388  0.2969 -0.0475 -0.1059
 2508TIP3    H2 7531   5.647   5.577   1.329  0.0590 -0.6242 -0.2500
 2509TIP3   OH2 7532   1.822   4.502   5.204  0.1767  1.0045  0.4407
 2509TIP3    H1 7533   1.779   4.454   5.133 -1.0033  2.2894  0.2500
 2509TIP3    H2 7534   1.883   4.438   5.243  0.8083  0.2425 -1.6585
 2510TIP3   OH2 7535   6.115   1.169   5.072 -0.5489 -0.0665  0.4059
 2510TIP3    H1 7536   6.193   1.214   5.105 -0.1320 -1.2073  1.0491
 2510TIP3    H2 7537   6.069   1.235   5.020  0.3035  0.9319  0.8802
 2511TIP3   OH2 7538   5.027   1.355   3.845  0.2639 -0.0857 -0.3258
 2511TIP3    H1 7539   5.043   1.344   3.939  0.3583  0.6922 -0.2364
 2511TIP3    H2 7540   4.992   1.271   3.816 -0.9881  0.0562  0.6598
 2512TIP3   OH2 7541   0.932   0.309   4.677 -0.0494 -0.5765  0.6478
 2512TIP3    H1 7542   0.962   0.219   4.666 -0.8623 -0.8911  0.9849
 2512TIP3    H2 7543   0.910   0.338   4.589  2.2926  0.0530  0.2034
 2513TIP3   OH2 7544   1.079   5.987   3.228  0.0382  0.4239  0.5848
 2513TIP3    H1 7545   0.987   6.009   3.240  0.3094  2.5104 -0.7583
 2513TIP3    H2 7546   1.078   5.918   3.161 -0.5080  1.2367 -0.2649
 2514TIP3   OH2 7547   2.172   3.099   0.906  0.1132  0.4570 -0.0980
 2514TIP3    H1 7548   2.112   3.150   0.961  0.0413  0.1681  0.0920
 2514TIP3    H2 7549   2.258   3.139   0.921  0.1397  0.2223  0.4265
 2515TIP3   OH2 7550   2.211   2.687   2.753  0.3877 -0.6709  0.0235
 2515TIP3    H1 7551   2.127   2.710   2.713  0.7775  0.0675 -0.3916
 2515TIP3    H2 7552   2.199   2.597   2.785 -0.4855 -0.6464 -0.2198
 2516TIP3   OH2 7553   0.672   3.706   0.192 -0.0396  0.3311  0.2772
 2516TIP3    H1 7554   0.709   3.722   0.278  1.0774  0.8691 -0.2791
 2516TIP3    H2 7555   0.585   3.747   0.194 -0.2089 -0.0693  1.2845
 2517TIP3   OH2 7556   3.871   5.717   4.854 -0.4003 -0.0810 -0.1545
 2517TIP3    H1 7557   3.876   5.638   4.801  0.3613 -0.1678  0.0415
 2517TIP3    H2 7558   3.912   5.693   4.937  0.6208  0.7633 -0.3906
 2518TIP3   OH2 7559   1.234   2.103   1.657 -0.3313 -0.0792 -0.1727
 2518TIP3    H1 7560   1.150   2.148   1.659  0.0212  0.5922  0.9568
 2518TIP3    H2 7561   1.271   2.117   1.745 -0.1922 -2.6097  0.2477
 2519TIP3   OH2 7562   0.802   0.802   1.695  0.6196  1.0572 -0.0768
 2519TIP3    H1 7563   0.739   0.745   1.739  2.2700 -2.1784 -1.5482
 2519TIP3    H2 7564   0.763   0.817   1.609  1.8129 -1.2548 -1.1275
 2520TIP3   OH2 7565   0.098   1.839   1.591  0.4634 -0.1503 -0.6449
 2520TIP3    H1 7566   0.138   1.917   1.553  0.7825 -0.5933 -1.2364
 2520TIP3    H2 7567   0.016   1.829   1.543  0.6563 -0.4597 -0.9091
 2521TIP3   OH2 7568   4.359   5.687   2.287 -0.1737  0.2860  0.6902
 2521TIP3    H1 7569   4.441   5.641   2.271  0.1357  0.5591  1.4563
 2521TIP3    H2 7570   4.353   5.693   2.382 -1.7087 -0.8525  0.6853
 2522TIP3   OH2 7571   6.061   2.087   2.963  0.3885 -0.3265  0.5578
 2522TIP3    H1 7572   6.058   2.083   2.868 -0.6572 -1.7744  0.6204
 2522TIP3    H2 7573   6.133   2.148   2.983  0.7253 -0.1413 -1.1333
 2523TIP3   OH2 7574   2.836   0.351   5.048  0.4125 -0.2139  0.2473
 2523TIP3    H1 7575   2.913   0.306   5.013  0.8220  1.3630 -0.9905
 2523TIP3    H2 7576   2.784   0.374   4.971 -1.3802 -1.3209  1.0674
 2524TIP3   OH2 7577   3.434   3.042   3.995 -0.5515 -0.2117  0.3825
 2524TIP3    H1 7578   3.346   3.060   3.963 -0.0401 -0.8441 -1.5009
 2524TIP3    H2 7579   3.484   3.019   3.917  0.8032 -1.7773  1.6243
 2525TIP3   OH2 7580   0.222   4.072   0.513 -0.3559 -0.1795 -0.0704
 2525TIP3    H1 7581   0.169   4.006   0.469  0.3577  0.0135 -1.2991
 2525TIP3    H2 7582   0.256   4.126   0.441 -2.0218  2.4028  0.9281
 2526TIP3   OH2 7583   1.012   0.530   5.156 -0.2984 -0.6319 -0.7499
 2526TIP3    H1 7584   1.019   0.487   5.071 -0.8468 -1.2883 -0.4721
 2526TIP3    H2 7585   1.024   0.459   5.220  1.1735  0.0054 -0.2556
 2527TIP3   OH2 7586   3.341   2.501   2.449 -0.1647 -0.2090  0.1874
 2527TIP3    H1 7587   3.426   2.495   2.405  0.6542 -1.2801  1.8298
 2527TIP3    H2 7588   3.347   2.581   2.501 -0.1644 -0.3041  0.3314
 2528TIP3   OH2 7589   1.969   1.721   3.519 -0.1469  0.7114 -0.0226
 2528TIP3    H1 7590   1.883   1.761   3.528 -1.3205 -1.6920  0.1697
 2528TIP3    H2 7591   1.957   1.631   3.549  3.3686  1.2583  3.9416
 2529TIP3   OH2 7592   0.171   1.911   4.817  0.3362  0.0398  0.2405
 2529TIP3    H1 7593   0.095   1.914   4.875  1.8527 -1.5940  2.4761
 2529TIP3    H2 7594   0.175   1.819   4.788  0.0963  0.6394 -1.8960
 2530TIP3   OH2 7595   3.935   3.817   3.460 -0.0441  0.7717 -0.2319
 2530TIP3    H1 7596   4.018   3.860   3.478  0.9006 -0.8928 -0.4183
 2530TIP3    H2 7597   3.959   3.731   3.427 -1.8241 -0.6644  1.8857
 2531TIP3   OH2 7598   1.978   3.274   3.049 -0.0144  0.4320 -0.0515
 2531TIP3    H1 7599   2.020   3.230   2.976  1.1873 -0.0958  0.9196
 2531TIP3    H2 7600   2.002   3.366   3.039 -0.6011  0.5115 -0.7975
 2532TIP3   OH2 7601   4.118   3.774   3.739  0.0143  0.3668  0.2492
 2532TIP3    H1 7602   4.057   3.846   3.722  2.0363  2.1414  0.0889
 2532TIP3    H2 7603   4.167   3.802   3.816  0.6065 -1.0173  0.4044
 2533TIP3   OH2 7604   1.023   4.372   0.037 -0.3325  0.2211 -0.4675
 2533TIP3    H1 7605   0.939   4.326   0.027 -0.7941  0.8653  0.2989
 2533TIP3    H2 7606   1.045   4.401  -0.051 -0.3103 -0.9727 -0.8755
 2534TIP3   OH2 7607   3.879   2.748   2.690 -0.3187  0.3080  0.9948
 2534TIP3    H1 7608   3.839   2.703   2.615 -0.6885 -0.7700  1.8087
 2534TIP3    H2 7609   3.868   2.841   2.671 -0.9365  0.0459 -0.0071
 2535TIP3   OH2 7610   2.580   5.039   4.917  0.5889 -0.2305 -0.2898
 2535TIP3    H1 7611   2.582   5.032   5.012  0.3790  1.2511 -0.1601
 2535TIP3    H2 7612   2.495   5.080   4.898  0.8526 -0.0302 -1.0782
 2536TIP3   OH2 7613   4.018   3.134   3.139  0.2079  0.3046  0.1901
 2536TIP3    H1 7614   3.963   3.147   3.216  0.9936 -0.0266  0.8094
 2536TIP3    H2 7615   4.088   3.075   3.168 -0.3906 -1.1874 -1.1946
 2537TIP3   OH2 7616   5.308   3.355   5.056  0.0582 -0.0895  0.4247
 2537TIP3    H1 7617   5.264   3.383   5.136  0.4465 -0.9239  0.9448
 2537TIP3    H2 7618   5.288   3.262   5.049  0.3678 -0.1107 -0.2337
 2538TIP3   OH2 7619   0.140   3.184   4.231 -0.0696  0.1907 -0.6061
 2538TIP3    H1 7620   0.132   3.110   4.172 -3.1919 -0.0786 -0.0367
 2538TIP3    H2 7621   0.197   3.246   4.186  1.5159 -1.9656 -1.6800
 2539TIP3   OH2 7622   0.786   4.849   1.374  0.3728 -0.3132 -0.4741
 2539TIP3    H1 7623   0.733   4.805   1.307 -0.0310  1.8402 -1.6332
 2539TIP3    H2 7624   0.722   4.895   1.428  0.8745 -0.1655  0.0015
 2540TIP3   OH2 7625   5.176   2.820   4.765  0.3515 -0.4774 -0.0752
 2540TIP3    H1 7626   5.234   2.820   4.689  1.7732  0.8628  0.9441
 2540TIP3    H2 7627   5.212   2.887   4.823 -1.0038 -1.0775  1.5577
 2541TIP3   OH2 7628   4.671   3.044   3.276  0.2259  0.1066  0.8510
 2541TIP3    H1 7629   4.605   3.031   3.207 -0.1291  0.1404  1.1771
 2541TIP3    H2 7630   4.753   3.054   3.229 -0.3389  2.7657  0.2244
 2542TIP3   OH2 7631   0.119   5.114   1.498 -0.6556 -0.2861 -0.4449
 2542TIP3    H1 7632   0.153   5.043   1.553 -1.5559 -0.4922 -0.1232
 2542TIP3    H2 7633   0.095   5.183   1.560  0.3397  0.3619 -0.7683
 2543TIP3   OH2 7634   0.830   4.421   2.335  0.0046 -0.3764 -0.2350
 2543TIP3    H1 7635   0.758   4.481   2.314  0.6593  0.4243 -0.2737
 2543TIP3    H2 7636   0.885   4.423   2.257  0.1513 -0.8519 -0.1430
 2544TIP3   OH2 7637   3.744   0.847   4.204  0.0273  0.3916  0.1582
 2544TIP3    H1 7638   3.716   0.924   4.254 -0.2594 -0.4371  1.3296
 2544TIP3    H2 7639   3.751   0.778   4.270 -2.3804 -1.3209 -1.2034
 2545TIP3   OH2 7640   5.946   0.871   3.634  0.0868  0.4556 -0.1170
 2545TIP3    H1 7641   5.894   0.823   3.570  0.2163  2.0239 -1.4717
 2545TIP3    H2 7642   5.900   0.955   3.643  0.3949  0.4877  1.4364
 2546TIP3   OH2 7643   1.125   1.267   4.942 -0.0550 -0.0824 -0.1571
 2546TIP3    H1 7644   1.101   1.184   4.900  0.1786 -0.9654  1.3899
 2546TIP3    H2 7645   1.150   1.243   5.031  0.9449  1.5442  0.0455
 2547TIP3   OH2 7646   2.900   1.002   0.465  0.4941 -0.4146  0.1292
 2547TIP3    H1 7647   2.910   0.936   0.396 -1.1481  1.5986 -2.2578
 2547TIP3    H2 7648   2.987   1.011   0.503  1.8855 -0.6338 -2.7183
 2548TIP3   OH2 7649   1.135   3.107   0.991  0.0050  0.0669  0.5155
 2548TIP3    H1 7650   1.183   3.136   0.914 -0.4785 -1.2556 -0.3274
 2548TIP3    H2 7651   1.143   3.012   0.990 -1.0226 -0.0553  1.4222
 2549TIP3   OH2 7652   3.530   1.599   2.730  0.1232 -0.3427 -0.4704
 2549TIP3    H1 7653   3.592   1.539   2.773  0.0629  0.7064  1.1559
 2549TIP3    H2 7654   3.548   1.588   2.637  3.5497  0.6872 -0.0903
 2550TIP3   OH2 7655   5.061   4.924   3.792  0.0616 -0.4101  0.0652
 2550TIP3    H1 7656   5.118   4.853   3.762 -2.1297 -2.5679  0.7003
 2550TIP3    H2 7657   5.053   4.909   3.886 -0.7148  0.4832  0.1450
 2551TIP3   OH2 7658   1.169   3.102   1.973  0.5028  0.2445 -0.2209
 2551TIP3    H1 7659   1.193   3.194   1.981 -0.4410  0.4520  0.4345
 2551TIP3    H2 7660   1.159   3.071   2.063 -1.6117  0.1951 -0.4249
 2552TIP3   OH2 7661   5.613   2.057   4.579 -0.4399  0.1234 -0.3248
 2552TIP3    H1 7662   5.617   2.134   4.636 -0.4521  0.3885 -0.6777
 2552TIP3    H2 7663   5.525   2.023   4.591 -0.4816  0.2485 -0.2761
 2553TIP3   OH2 7664   2.940   4.685   1.048  1.0129  0.0439  0.9609
 2553TIP3    H1 7665   2.891   4.627   0.989 -0.1238  0.8906  1.0451
 2553TIP3    H2 7666   3.029   4.647   1.050  0.5323 -1.1868  0.3462
 2554TIP3   OH2 7667   0.453   1.446   0.239 -0.0631 -0.7144  0.6970
 2554TIP3    H1 7668   0.408   1.527   0.212 -1.4200 -1.7009 -0.1453
 2554TIP3    H2 7669   0.429   1.436   0.331 -0.9663 -0.8192  0.4630
 2555TIP3   OH2 7670   2.374   4.185   4.900  0.1688 -0.3987  0.0684
 2555TIP3    H1 7671   2.422   4.152   4.824  0.8868 -0.6115  0.6099
 2555TIP3    H2 7672   2.441   4.221   4.957 -0.5245  1.3291 -0.1546
 2556TIP3   OH2 7673   0.305   1.631   4.608  0.0058  0.1792 -0.0730
 2556TIP3    H1 7674   0.383   1.594   4.567  0.5607 -0.7806  1.7623
 2556TIP3    H2 7675   0.234   1.612   4.546  1.0269  0.0819 -1.2510
 2557TIP3   OH2 7676   4.262   2.864   3.723  0.0419  0.1667  0.9598
 2557TIP3    H1 7677   4.233   2.857   3.632  0.7398  1.8092  0.5674
 2557TIP3    H2 7678   4.221   2.944   3.755 -1.5413 -1.2253  2.6713
 2558TIP3   OH2 7679   2.607   2.489   4.707  0.6220 -0.3657  0.1440
 2558TIP3    H1 7680   2.609   2.507   4.613  3.3005 -0.0352  0.1981
 2558TIP3    H2 7681   2.605   2.393   4.713  0.6655 -0.3938 -0.2644
 2559TIP3   OH2 7682   0.931   4.434   1.226 -0.1484 -0.4788 -0.0073
 2559TIP3    H1 7683   0.907   4.341   1.221  1.1532 -0.8008 -0.7858
 2559TIP3    H2 7684   1.026   4.433   1.235 -0.0406  0.7999 -0.8027
 2560TIP3   OH2 7685   0.758   1.552   0.144 -0.3675 -0.1285  0.2158
 2560TIP3    H1 7686   0.826   1.489   0.121  0.1860  0.6820 -0.4295
 2560TIP3    H2 7687   0.712   1.512   0.218  0.4428 -0.9452  0.2927
 2561TIP3   OH2 7688   3.090   5.978   5.122 -0.0776 -0.0879 -0.0141
 2561TIP3    H1 7689   3.022   5.958   5.186  1.6262 -2.6074  1.1734
 2561TIP3    H2 7690   3.046   5.974   5.037 -1.7241  0.0451  0.8055
 2562TIP3   OH2 7691   4.153   4.531   4.280  0.4152 -0.3946 -0.2698
 2562TIP3    H1 7692   4.199   4.615   4.280  0.3301 -0.3432 -0.7736
 2562TIP3    H2 7693   4.172   4.493   4.194 -1.3251  0.0976 -0.9037
 2563TIP3   OH2 7694   2.119   2.219   0.244 -0.1002 -0.1144  0.3489
 2563TIP3    H1 7695   2.182   2.197   0.174 -1.3119  0.6157 -1.0317
 2563TIP3    H2 7696   2.174   2.238   0.320  1.2864 -0.7234 -0.4456
 2564TIP3   OH2 7697   5.567   0.355   2.902 -0.1641  0.0198  0.0773
 2564TIP3    H1 7698   5.488   0.312   2.868  0.4585 -1.7092  0.7291
 2564TIP3    H2 7699   5.562   0.344   2.996  0.6124  0.3535  0.1681
 2565TIP3   OH2 7700   4.403   5.691   3.815  0.1967 -0.0023  1.1377
 2565TIP3    H1 7701   4.436   5.644   3.892 -0.1078 -1.0863  0.6330
 2565TIP3    H2 7702   4.309   5.699   3.831 -0.1459 -1.6325  0.2105
 2566TIP3   OH2 7703   3.187   2.662   1.128 -0.1837  0.3724  0.5411
 2566TIP3    H1 7704   3.164   2.741   1.177 -0.6464 -0.7739  2.3029
 2566TIP3    H2 7705   3.160   2.590   1.186 -1.0524 -1.0975 -1.5659
 2567TIP3   OH2 7706   5.423   2.465   4.959  0.1841 -0.3161 -0.7511
 2567TIP3    H1 7707   5.333   2.446   4.932 -0.3492 -0.7880  1.2275
 2567TIP3    H2 7708   5.433   2.559   4.943 -0.5407 -0.3161 -1.2770
 2568TIP3   OH2 7709   0.598   0.302   1.809  0.1512  0.4225 -0.0827
 2568TIP3    H1 7710   0.582   0.353   1.888  1.5021  1.3377 -0.3697
 2568TIP3    H2 7711   0.681   0.335   1.775 -0.0150 -0.4868 -1.4688
 2569TIP3   OH2 7712   5.176   1.276   1.487  0.2772 -0.2358 -0.1601
 2569TIP3    H1 7713   5.253   1.332   1.496  1.4823 -1.4120 -2.5004
 2569TIP3    H2 7714   5.111   1.332   1.444  0.9980 -0.2003 -1.2317
 2570TIP3   OH2 7715   4.203   2.891   3.203 -0.2266 -0.1546  0.2236
 2570TIP3    H1 7716   4.229   2.815   3.151  0.5533  0.6270 -0.5548
 2570TIP3    H2 7717   4.283   2.942   3.213 -0.9528  1.1291 -0.2406
 2571TIP3   OH2 7718   6.369   1.847   4.274  0.1191  0.6547 -0.4003
 2571TIP3    H1 7719   6.339   1.798   4.350 -0.6515  2.0504  0.2308
 2571TIP3    H2 7720   6.360   1.786   4.201  2.8719 -1.4415  0.8626
 2572TIP3   OH2 7721   4.725   1.599   0.448 -0.2400 -0.0542  0.0576
 2572TIP3    H1 7722   4.774   1.607   0.530  0.3282 -2.0045 -0.0505
 2572TIP3    H2 7723   4.792   1.597   0.380 -0.4761 -1.9784 -0.1546
 2573TIP3   OH2 7724   1.657   3.408   5.116 -0.2876  0.0073  0.3583
 2573TIP3    H1 7725   1.635   3.443   5.202  0.3086  1.1842  0.0626
 2573TIP3    H2 7726   1.742   3.365   5.128  0.1095  0.7417  0.2330
 2574TIP3   OH2 7727   3.414   2.333   5.065 -0.5656  0.3602  0.5293
 2574TIP3    H1 7728   3.396   2.380   4.983 -1.0199 -0.4014  0.1836
 2574TIP3    H2 7729   3.506   2.352   5.084 -0.1957 -0.1836 -0.6447
 2575TIP3   OH2 7730   2.955   3.477   2.998  0.2775  0.1756  0.2964
 2575TIP3    H1 7731   2.906   3.454   2.919  0.5970  0.7110 -0.0601
 2575TIP3    H2 7732   2.916   3.423   3.067 -0.0057 -0.2871 -0.2241
 2576TIP3   OH2 7733   4.612   5.843   1.430 -0.1570 -0.4116 -0.2589
 2576TIP3    H1 7734   4.519   5.836   1.452 -0.5313  2.1054 -0.7197
 2576TIP3    H2 7735   4.613   5.883   1.343  1.3660 -1.1641 -0.6190
 2577TIP3   OH2 7736   2.304   5.136   0.777 -0.1299 -0.0233  0.0843
 2577TIP3    H1 7737   2.293   5.228   0.804 -2.6191 -0.5066  0.9690
 2577TIP3    H2 7738   2.216   5.109   0.750  1.4407 -0.5356 -5.8849
 2578TIP3   OH2 7739   2.738   3.148   0.873  0.5073 -0.4120 -0.3192
 2578TIP3    H1 7740   2.811   3.092   0.900  1.7854  0.5079 -1.7521
 2578TIP3    H2 7741   2.709   3.112   0.790  2.0646  1.5895 -1.8268
 2579TIP3   OH2 7742   4.616   4.393   2.518 -0.2844 -0.3575  0.1348
 2579TIP3    H1 7743   4.585   4.302   2.514  0.2895 -0.5728  0.4927
 2579TIP3    H2 7744   4.620   4.421   2.427 -0.9743 -0.5143  0.0471
 2580TIP3   OH2 7745   4.778   2.805   0.062 -0.2569 -0.0505 -0.2242
 2580TIP3    H1 7746   4.835   2.876   0.090 -0.0497 -0.1862 -0.2961
 2580TIP3    H2 7747   4.779   2.743   0.135 -0.8693  0.2706  0.0644
 2581TIP3   OH2 7748   5.265   4.772   3.675 -0.0468 -0.6158  1.1456
 2581TIP3    H1 7749   5.265   4.745   3.584 -1.5499  2.5468  0.0519
 2581TIP3    H2 7750   5.356   4.762   3.704  0.4482 -1.6930 -0.6842
 2582TIP3   OH2 7751   4.043   1.140   1.857 -0.3502  0.0941  0.0780
 2582TIP3    H1 7752   4.005   1.216   1.813 -1.7467 -0.2776  0.5910
 2582TIP3    H2 7753   4.057   1.169   1.947 -2.1470 -0.6298  0.6231
 2583TIP3   OH2 7754   3.333   5.587   3.138  0.2450 -0.2432  0.1638
 2583TIP3    H1 7755   3.412   5.533   3.130 -0.5946 -1.1931 -2.6571
 2583TIP3    H2 7756   3.366   5.676   3.147  1.6308 -0.7369  0.2657
 2584TIP3   OH2 7757   1.117   5.586   1.002  0.0123 -0.0117 -0.2967
 2584TIP3    H1 7758   1.193   5.638   0.978 -0.0877  0.5964  0.6706
 2584TIP3    H2 7759   1.073   5.568   0.919 -0.3644  2.0855 -0.5924
 2585TIP3   OH2 7760   5.522   2.510   4.221 -0.0607  0.1489 -0.0381
 2585TIP3    H1 7761   5.609   2.547   4.231  0.3506 -1.0057  0.8037
 2585TIP3    H2 7762   5.533   2.417   4.236 -1.5564  0.0711  0.8052
 2586TIP3   OH2 7763   1.823   1.271   1.394 -0.6781  0.5392  0.0113
 2586TIP3    H1 7764   1.874   1.342   1.355 -0.0613  0.2662  0.2956
 2586TIP3    H2 7765   1.817   1.294   1.486  1.5366 -0.8830  0.5915
 2587TIP3   OH2 7766   2.992   0.165   0.977  1.4122 -0.6366 -0.1204
 2587TIP3    H1 7767   2.936   0.109   0.924  2.3900 -0.0991 -1.8133
 2587TIP3    H2 7768   2.983   0.252   0.938  1.4357 -0.0024  1.2203
 2588TIP3   OH2 7769   3.366   1.551   0.910  0.5079  0.9506  0.1281
 2588TIP3    H1 7770   3.289   1.585   0.956  1.2385  1.8242  0.7478
 2588TIP3    H2 7771   3.410   1.495   0.975  0.2175  0.1524 -0.3417
 2589TIP3   OH2 7772   0.579   2.483   1.587  0.0340 -0.2896  0.2362
 2589TIP3    H1 7773   0.582   2.570   1.549 -1.3044 -0.6338 -0.7477
 2589TIP3    H2 7774   0.640   2.486   1.661  1.2312  0.9767 -0.7592
 2590TIP3   OH2 7775   4.887   4.759   2.773  0.2969  0.1051  0.2194
 2590TIP3    H1 7776   4.817   4.696   2.793  0.2459 -0.2290 -0.9609
 2590TIP3    H2 7777   4.897   4.755   2.678  2.7255 -0.7304  0.4483
 2591TIP3   OH2 7778   0.289   1.488   2.312  0.2259 -0.3387  0.4218
 2591TIP3    H1 7779   0.381   1.511   2.331 -0.0260 -0.8742  2.5023
 2591TIP3    H2 7780   0.258   1.560   2.257  2.2272 -0.7861 -1.4191
 2592TIP3   OH2 7781   0.671   5.049   2.098 -0.3183  0.5828  0.2106
 2592TIP3    H1 7782   0.633   4.962   2.106  1.2887 -0.2952 -1.2176
 2592TIP3    H2 7783   0.635   5.084   2.017  1.0187  0.1560 -0.6057
 2593TIP3   OH2 7784   1.695   5.633   3.606  0.4856 -0.2399 -0.2544
 2593TIP3    H1 7785   1.753   5.576   3.655  1.8512 -0.2144 -1.7366
 2593TIP3    H2 7786   1.681   5.588   3.523 -2.6384 -0.8010  0.4695
 2594TIP3   OH2 7787   6.300   3.957   3.216  0.3994  0.7207 -0.0008
 2594TIP3    H1 7788   6.222   3.905   3.237  0.3271  0.1969 -1.4039
 2594TIP3    H2 7789   6.372   3.909   3.256  0.0469  1.1019  1.1415
 2595TIP3   OH2 7790   4.354   4.225   4.104 -0.8494 -0.4838  0.4943
 2595TIP3    H1 7791   4.390   4.142   4.136 -1.1422 -0.5822  0.5724
 2595TIP3    H2 7792   4.378   4.289   4.170  1.9019  0.0774 -0.9375
 2596TIP3   OH2 7793   0.650   5.514   1.119  0.1663  0.0889 -0.6369
 2596TIP3    H1 7794   0.683   5.463   1.193  0.7970  1.1955 -0.1404
 2596TIP3    H2 7795   0.612   5.592   1.158 -0.5942  0.1197 -1.4081
 2597TIP3   OH2 7796   0.585   5.780   3.109 -0.5329 -0.3446  0.2526
 2597TIP3    H1 7797   0.554   5.701   3.153 -1.0135 -0.4896 -0.3382
 2597TIP3    H2 7798   0.509   5.839   3.109 -1.0930 -1.0011 -1.9082
 2598TIP3   OH2 7799   5.371   0.075   3.024  0.1859  0.4491 -0.3958
 2598TIP3    H1 7800   5.383   0.151   3.082 -0.3231 -0.5630  1.1087
 2598TIP3    H2 7801   5.276   0.070   3.011  0.1410 -0.4054  0.2052
 2599TIP3   OH2 7802   4.307   0.152   1.417  0.0519 -0.1429  0.1653
 2599TIP3    H1 7803   4.394   0.192   1.429  0.2681 -0.4165 -0.4645
 2599TIP3    H2 7804   4.272   0.192   1.338  0.5916 -1.7210 -0.9120
 2600TIP3   OH2 7805   6.297   3.615   3.564  0.2421 -0.2619 -0.6459
 2600TIP3    H1 7806   6.362   3.645   3.628 -1.0979  0.5244  0.3773
 2600TIP3    H2 7807   6.333   3.643   3.480  1.4507 -0.2523 -0.1526
 2601TIP3   OH2 7808   2.383   4.245   2.821 -0.6166 -0.1042  0.1919
 2601TIP3    H1 7809   2.433   4.238   2.902 -0.4343 -2.0179 -0.0358
 2601TIP3    H2 7810   2.439   4.296   2.762  0.3330 -0.7799  0.4920
 2602TIP3   OH2 7811   2.559   2.070   3.359  0.1422 -0.9950 -0.3090
 2602TIP3    H1 7812   2.494   2.068   3.289 -1.1205  0.0638  0.8041
 2602TIP3    H2 7813   2.575   1.978   3.380 -0.2705 -1.2862 -1.2280
 2603TIP3   OH2 7814   4.196   1.473   2.077  0.3249 -0.1788 -0.5870
 2603TIP3    H1 7815   4.180   1.414   2.151  1.8174  1.1182  0.8320
 2603TIP3    H2 7816   4.174   1.560   2.111  1.0331  0.4388 -1.6662
 2604TIP3   OH2 7817   5.704   0.224   3.754  0.2421  0.1670 -0.4223
 2604TIP3    H1 7818   5.650   0.148   3.733  0.7223 -0.4655  0.5736
 2604TIP3    H2 7819   5.677   0.291   3.691 -0.8734 -0.5124 -0.6866
 2605TIP3   OH2 7820   1.599   0.868   0.924  0.3445  0.0084 -0.3392
 2605TIP3    H1 7821   1.624   0.812   0.850 -0.6894 -1.3408  0.2861
 2605TIP3    H2 7822   1.518   0.911   0.896  0.1937 -0.1588 -0.1608
 2606TIP3   OH2 7823   3.953   5.904   2.682 -0.5222 -0.4389  0.4390
 2606TIP3    H1 7824   3.868   5.923   2.642  0.6012 -0.1812 -1.9826
 2606TIP3    H2 7825   3.977   5.984   2.729 -0.3474  0.5629 -1.2978
 2607TIP3   OH2 7826   0.119   5.283   3.684  0.0648  0.0857  0.1077
 2607TIP3    H1 7827   0.144   5.201   3.726 -2.1010 -1.5616 -1.5833
 2607TIP3    H2 7828   0.023   5.279   3.680  0.0638  1.0016 -3.1585
 2608TIP3   OH2 7829   0.548   3.951   0.605 -0.4637 -0.6983 -0.2881
 2608TIP3    H1 7830   0.622   3.896   0.580 -0.1356  0.1092 -1.1009
 2608TIP3    H2 7831   0.483   3.888   0.639  0.2274 -1.5015 -0.4162
 2609TIP3   OH2 7832   4.085   5.327   4.303 -0.0950 -0.5677 -0.0459
 2609TIP3    H1 7833   4.177   5.347   4.320  0.3664 -1.2571 -1.5605
 2609TIP3    H2 7834   4.077   5.233   4.321 -0.2377 -0.7314 -0.9239
 2610TIP3   OH2 7835   1.235   5.647   0.115 -0.2043 -0.1967 -0.1068
 2610TIP3    H1 7836   1.257   5.554   0.113  0.3841 -0.1116  1.1290
 2610TIP3    H2 7837   1.299   5.688   0.057  0.1961 -0.4464  0.1558
 2611TIP3   OH2 7838   3.697   5.245   3.596 -0.5064 -0.4050 -0.5399
 2611TIP3    H1 7839   3.768   5.219   3.537 -0.5314  0.9837 -1.2142
 2611TIP3    H2 7840   3.714   5.196   3.676  1.1315 -0.2332 -0.7487
 2612TIP3   OH2 7841   4.752   0.085   4.338 -0.1029 -0.3042  0.0160
 2612TIP3    H1 7842   4.772   0.077   4.431  1.8576 -0.3105 -0.3724
 2612TIP3    H2 7843   4.774   0.176   4.317 -0.8308 -0.2142 -0.3978
 2613TIP3   OH2 7844   2.966   5.317   0.951  0.1625  0.0273  0.3831
 2613TIP3    H1 7845   3.037   5.336   0.890  0.3120 -1.3734  0.1107
 2613TIP3    H2 7846   2.957   5.398   1.002  1.0855  0.6663 -0.4308
 2614TIP3   OH2 7847   2.861   4.229   5.123 -0.1121  0.4252 -0.4194
 2614TIP3    H1 7848   2.810   4.309   5.106 -1.5432  0.0516  1.7082
 2614TIP3    H2 7849   2.949   4.251   5.095 -1.0629  1.6538 -2.7899
 2615TIP3   OH2 7850   0.692   5.597   0.864  0.3722 -0.5360 -0.0976
 2615TIP3    H1 7851   0.638   5.546   0.803  1.7835 -1.0329 -0.9698
 2615TIP3    H2 7852   0.673   5.558   0.950 -1.8121  0.3241 -0.1361
 2616TIP3   OH2 7853   4.045   2.967   0.964  0.0262 -0.4772  0.0157
 2616TIP3    H1 7854   3.992   3.003   1.035 -2.2197 -1.5695 -0.9946
 2616TIP3    H2 7855   4.067   3.043   0.910 -1.0741 -0.0483  0.1389
 2617TIP3   OH2 7856   2.995   1.747   0.812  0.2199 -0.7017  0.2084
 2617TIP3    H1 7857   3.042   1.821   0.850 -0.3828 -0.1558 -0.0916
 2617TIP3    H2 7858   2.955   1.703   0.886  1.9792 -1.7750  0.6028
 2618TIP3   OH2 7859   1.855   2.466   3.717 -0.6557  0.0571  0.5355
 2618TIP3    H1 7860   1.802   2.531   3.672 -2.0527 -0.9248  0.6756
 2618TIP3    H2 7861   1.885   2.407   3.648  2.5753  2.0199  0.0467
 2619TIP3   OH2 7862   2.531   1.175   3.203  0.0610  0.2808  0.2063
 2619TIP3    H1 7863   2.486   1.188   3.119 -1.9503  0.4658  1.2480
 2619TIP3    H2 7864   2.464   1.139   3.261  1.0646  1.2315  2.0757
 2620TIP3   OH2 7865   3.698   3.819   0.087 -0.1764  0.2831 -0.0496
 2620TIP3    H1 7866   3.770   3.842   0.145 -0.3064  0.8257 -0.0966
 2620TIP3    H2 7867   3.732   3.746   0.035 -0.4140 -0.8985  1.3943
 2621TIP3   OH2 7868   0.592   3.362   2.728  0.5485 -0.5464 -0.3772
 2621TIP3    H1 7869   0.626   3.450   2.713  1.4850 -0.9683 -0.8106
 2621TIP3    H2 7870   0.649   3.326   2.797  0.2562 -0.8560 -0.2947
 2622TIP3   OH2 7871   6.297   0.266   1.616 -0.3453  0.1000  0.0057
 2622TIP3    H1 7872   6.350   0.249   1.694 -3.4426 -1.1479  1.9972
 2622TIP3    H2 7873   6.210   0.285   1.649 -1.5092  0.8860 -3.1436
 2623TIP3   OH2 7874   0.944   3.996   0.993  0.5486 -0.1377 -0.0604
 2623TIP3    H1 7875   1.030   4.036   1.006 -0.8864  2.5017  2.5530
 2623TIP3    H2 7876   0.895   4.059   0.940  0.2829 -1.8537 -1.9744
 2624TIP3   OH2 7877   5.327   3.722   4.799  0.6099  0.7340  0.5555
 2624TIP3    H1 7878   5.313   3.754   4.888 -0.0797  1.3885  0.2261
 2624TIP3    H2 7879   5.375   3.640   4.810  0.5140  0.7953  1.5271
 2625TIP3   OH2 7880   3.305   0.322   0.901 -0.0096 -0.1591 -0.2413
 2625TIP3    H1 7881   3.219   0.363   0.899  1.4465  3.2938  0.7085
 2625TIP3    H2 7882   3.327   0.314   0.994  0.8733 -0.6622 -0.4758
 2626TIP3   OH2 7883   5.934   5.469   1.198 -0.0808  0.3521 -0.1459
 2626TIP3    H1 7884   5.885   5.540   1.156 -0.6808  1.9812  3.0094
 2626TIP3    H2 7885   6.024   5.481   1.167 -0.5180  1.2943 -1.1264
 2627TIP3   OH2 7886   5.897   5.431   4.054 -0.0586  0.2059  0.1464
 2627TIP3    H1 7887   5.915   5.466   4.141  0.1639 -0.0735  0.2164
 2627TIP3    H2 7888   5.942   5.346   4.053  1.5042  0.9897 -0.8801
 2628TIP3   OH2 7889   4.810   2.271   4.223  0.1862 -0.3449 -0.1004
 2628TIP3    H1 7890   4.881   2.290   4.162  0.3343 -0.5526  0.0073
 2628TIP3    H2 7891   4.848   2.282   4.310 -0.1115  0.2661 -0.0438
 2629TIP3   OH2 7892   5.488   1.385   4.537  0.1455  0.5714  0.8349
 2629TIP3    H1 7893   5.526   1.328   4.471 -1.3382  1.3846 -0.8465
 2629TIP3    H2 7894   5.452   1.458   4.486 -1.9509  0.7405  2.4322
 2630TIP3   OH2 7895   2.964   4.000   4.245 -0.2848  0.1710 -0.3922
 2630TIP3    H1 7896   2.895   4.015   4.180 -0.2721  1.4045 -0.1643
 2630TIP3    H2 7897   2.929   3.931   4.301 -1.4510  0.8833 -0.1805
 2631TIP3   OH2 7898   0.253   0.175   0.101 -0.2500  0.3905  0.6891
 2631TIP3    H1 7899   0.221   0.124   0.175  1.2258  1.2834  2.0012
 2631TIP3    H2 7900   0.348   0.164   0.102 -0.2369 -0.1925 -1.5757
 2632TIP3   OH2 7901   4.397   4.698   1.923  0.3377  0.3950  0.2363
 2632TIP3    H1 7902   4.325   4.636   1.908 -0.5295  0.9057  2.0236
 2632TIP3    H2 7903   4.474   4.655   1.885 -0.5228 -1.1191  0.1342
 2633TIP3   OH2 7904   2.369   5.551   0.803  0.0265  0.3798 -0.1307
 2633TIP3    H1 7905   2.312   5.481   0.835  0.7193 -0.2014 -0.1412
 2633TIP3    H2 7906   2.346   5.561   0.711  0.1637 -0.0829 -0.2190
 2634TIP3   OH2 7907   5.514   4.530   2.577  0.4145 -0.1465  0.5967
 2634TIP3    H1 7908   5.609   4.532   2.565  0.5643  0.3287  1.7083
 2634TIP3    H2 7909   5.486   4.447   2.538  1.1416  0.1462 -0.6147
 2635TIP3   OH2 7910   5.043   0.245   4.879  0.1762 -0.0678 -0.4501
 2635TIP3    H1 7911   5.097   0.296   4.939  2.0735 -1.0236 -1.2774
 2635TIP3    H2 7912   5.105   0.204   4.820 -1.4842 -1.1766 -1.4939
 2636TIP3   OH2 7913   4.344   5.653   4.449 -0.3882  0.3302  0.0140
 2636TIP3    H1 7914   4.363   5.676   4.540  0.7213 -0.3497 -0.0278
 2636TIP3    H2 7915   4.364   5.732   4.399  1.5357 -0.0764  0.0834
 2637TIP3   OH2 7916   1.917   1.744   2.749 -0.4654 -0.0038 -0.4789
 2637TIP3    H1 7917   1.836   1.767   2.704 -1.3895  0.5691  1.3799
 2637TIP3    H2 7918   1.900   1.657   2.787 -0.3992  0.3125  0.2971
 2638TIP3   OH2 7919   2.644   1.824   0.686  0.0835 -0.0319 -0.2846
 2638TIP3    H1 7920   2.725   1.857   0.726 -0.7238  1.8139 -0.0484
 2638TIP3    H2 7921   2.607   1.765   0.752  0.1251  0.8932  0.6013
 2639TIP3   OH2 7922   4.568   4.981   0.971  0.3320  0.0999 -0.0997
 2639TIP3    H1 7923   4.498   5.046   0.976 -0.3651 -0.2324 -3.3289
 2639TIP3    H2 7924   4.526   4.899   0.999  0.1977  0.3900  0.5557
 2640TIP3   OH2 7925   6.046   3.351   0.295  0.1731  0.3978  0.5366
 2640TIP3    H1 7926   6.139   3.347   0.274  0.5606  0.3382  2.1328
 2640TIP3    H2 7927   6.041   3.409   0.371 -1.0362  0.0524  0.7449
 2641TIP3   OH2 7928   3.467   1.741   4.289  0.2641 -0.3285  0.3446
 2641TIP3    H1 7929   3.501   1.726   4.200 -2.3546  2.0705 -1.2446
 2641TIP3    H2 7930   3.421   1.659   4.310  2.6081 -1.7089  0.4654
 2642TIP3   OH2 7931   4.474   5.191   1.589  0.0293 -0.1975 -0.2690
 2642TIP3    H1 7932   4.401   5.152   1.637 -1.5524  0.5618 -1.9408
 2642TIP3    H2 7933   4.466   5.285   1.606  0.6126 -0.1061 -0.4735
 2643TIP3   OH2 7934   4.077   4.705   0.554  0.0491  0.2145 -0.3577
 2643TIP3    H1 7935   3.996   4.749   0.579 -0.1148  0.2117 -0.8706
 2643TIP3    H2 7936   4.062   4.676   0.464  0.4918 -0.0926 -0.3373
 2644TIP3   OH2 7937   5.480   5.493   3.798 -0.4389 -0.5076  0.1918
 2644TIP3    H1 7938   5.522   5.416   3.758  0.3399  0.9726 -2.0310
 2644TIP3    H2 7939   5.553   5.546   3.830 -0.7278  0.7445 -1.1255
 2645TIP3   OH2 7940   5.162   1.911   2.023  0.0500  0.2480 -0.2440
 2645TIP3    H1 7941   5.173   2.005   2.007 -0.2287  0.4628  0.7433
 2645TIP3    H2 7942   5.233   1.870   1.974  0.8107  1.0615  0.1455
 2646TIP3   OH2 7943   5.665   1.273   1.494  0.0431  0.4125  0.0670
 2646TIP3    H1 7944   5.715   1.220   1.431  1.0370  0.6422  0.6364
 2646TIP3    H2 7945   5.597   1.214   1.526  0.8667 -0.4003  0.3704
 2647TIP3   OH2 7946   4.641   1.663   1.517 -0.0858 -0.1015 -0.2254
 2647TIP3    H1 7947   4.726   1.633   1.486 -0.6550 -1.1103 -0.8815
 2647TIP3    H2 7948   4.593   1.687   1.438 -0.9457 -1.0514 -0.0211
 2648TIP3   OH2 7949   5.200   1.042   2.146 -0.2577  0.5257 -0.5544
 2648TIP3    H1 7950   5.179   1.127   2.186  3.1764  0.6994  1.2741
 2648TIP3    H2 7951   5.234   1.064   2.060  0.0941  1.0055 -0.3010
 2649TIP3   OH2 7952   1.586   0.431   5.041  0.3157 -0.2693  0.0755
 2649TIP3    H1 7953   1.608   0.371   5.112  2.1655 -0.0192 -0.2385
 2649TIP3    H2 7954   1.613   0.386   4.962  0.3105  0.3422 -0.2832
 2650TIP3   OH2 7955   5.435   5.301   1.383  0.5372  0.3943 -0.1088
 2650TIP3    H1 7956   5.480   5.384   1.365  0.9722  0.1603 -0.1021
 2650TIP3    H2 7957   5.504   5.236   1.386  0.0198 -0.3731 -2.4172
 2651TIP3   OH2 7958   1.021   4.430   2.538 -0.3370  0.2346  0.2722
 2651TIP3    H1 7959   0.948   4.421   2.478  0.5489  0.3368 -0.8651
 2651TIP3    H2 7960   1.063   4.512   2.512  0.2415  0.1235  0.8332
 2652TIP3   OH2 7961   6.282   3.200   0.026  0.2056 -0.4664  0.4394
 2652TIP3    H1 7962   6.309   3.137   0.093 -0.1138 -0.9261  0.1399
 2652TIP3    H2 7963   6.203   3.162  -0.013 -2.5834  2.0182  3.0624
 2653TIP3   OH2 7964   4.980  -0.016   4.950 -0.1898  0.3156 -0.1958
 2653TIP3    H1 7965   4.900  -0.051   4.911  1.0115 -0.1079 -2.5013
 2653TIP3    H2 7966   4.972   0.079   4.941 -0.4071  0.2710 -0.4875
 2654TIP3   OH2 7967   5.312   5.092   1.143 -0.1948 -0.1026 -0.4953
 2654TIP3    H1 7968   5.396   5.047   1.154  0.3571  1.1975  0.9436
 2654TIP3    H2 7969   5.266   5.041   1.077  1.2693 -1.5076 -0.4853
 2655TIP3   OH2 7970   5.977   3.226   4.279 -0.4976 -0.0138  0.0321
 2655TIP3    H1 7971   6.062   3.270   4.279 -0.2168 -0.4832 -1.7366
 2655TIP3    H2 7972   5.969   3.191   4.367  0.4374  1.3452  0.7036
 2656TIP3   OH2 7973   0.529   5.044   0.758  0.1373  0.2720 -0.2972
 2656TIP3    H1 7974   0.539   4.950   0.771  0.4153  0.4927  1.2930
 2656TIP3    H2 7975   0.597   5.068   0.696  1.2724 -0.3011  0.6907
 2657TIP3   OH2 7976   1.519   1.579   2.614 -0.0439 -0.3199 -0.1469
 2657TIP3    H1 7977   1.552   1.493   2.590 -0.0817 -0.0168 -1.3747
 2657TIP3    H2 7978   1.481   1.568   2.701 -0.1408 -1.5606 -0.3402
 2658TIP3   OH2 7979   6.082   0.792   0.510  0.1178  0.3678 -0.0428
 2658TIP3    H1 7980   6.084   0.883   0.538  2.4424  0.2268  0.4534
 2658TIP3    H2 7981   5.990   0.768   0.511 -0.3425  2.0123  2.0974
 2659TIP3   OH2 7982   0.876   0.640   4.508 -0.1951  0.5257  0.0813
 2659TIP3    H1 7983   0.885   0.651   4.413  2.0359  1.2783  0.3244
 2659TIP3    H2 7984   0.964   0.658   4.542 -0.5707 -1.2395  2.1636
 2660TIP3   OH2 7985   4.310   1.602   1.772 -0.3356 -0.2580 -0.2791
 2660TIP3    H1 7986   4.221   1.627   1.797 -0.6846 -1.3235 -0.3802
 2660TIP3    H2 7987   4.356   1.590   1.855 -0.1631  0.6849 -0.2315
 2661TIP3   OH2 7988   3.693   1.412   2.879 -0.3382  0.6788  0.8657
 2661TIP3    H1 7989   3.614   1.367   2.909 -0.8663  1.2885  0.4477
 2661TIP3    H2 7990   3.755   1.342   2.860 -1.0207  0.1368  0.5547
 2662TIP3   OH2 7991   3.689   2.843   2.015 -0.1025 -0.1224  0.3072
 2662TIP3    H1 7992   3.756   2.776   2.030  0.9537  0.4885 -1.3899
 2662TIP3    H2 7993   3.688   2.894   2.096  1.0405 -0.5402  0.6072
 2663TIP3   OH2 7994   5.225   2.861   2.711 -0.3123 -0.7801  0.3115
 2663TIP3    H1 7995   5.243   2.782   2.762 -0.1926 -2.5665 -2.3005
 2663TIP3    H2 7996   5.306   2.912   2.715  0.3386 -1.8030  0.3782
 2664TIP3   OH2 7997   1.042   3.751   3.156  0.0234  0.0252  0.2094
 2664TIP3    H1 7998   0.963   3.697   3.166  0.8114 -0.9938  1.1154
 2664TIP3    H2 7999   1.103   3.695   3.108  1.2401 -0.3470  2.0875
 2665TIP3   OH2 8000   3.977   5.226   3.754  0.0084 -0.0277 -0.0665
 2665TIP3    H1 8001   4.049   5.229   3.817  0.4074 -1.2772 -0.4432
 2665TIP3    H2 8002   4.014   5.183   3.677 -0.3417  1.8884 -1.3598
 2666TIP3   OH2 8003   1.908   0.992   0.019  0.6431  0.3169 -0.4326
 2666TIP3    H1 8004   1.919   0.976   0.113  1.4643 -1.1727 -0.7433
 2666TIP3    H2 8005   1.886   0.906  -0.018  1.6277  0.5986 -1.7687
 2667TIP3   OH2 8006   5.763   4.174   0.732  0.2051  0.2951  0.5210
 2667TIP3    H1 8007   5.773   4.241   0.664  0.0203  0.3340  0.5318
 2667TIP3    H2 8008   5.790   4.218   0.813 -2.5698  1.2859  1.0407
 2668TIP3   OH2 8009   5.695   4.728   3.546  0.1263  0.1133  0.2540
 2668TIP3    H1 8010   5.660   4.642   3.523  0.8523  0.3687 -2.0922
 2668TIP3    H2 8011   5.618   4.785   3.549 -0.3121 -0.4982  1.4151
 2669TIP3   OH2 8012   2.162   3.828   0.853  0.2165 -0.2506 -0.0146
 2669TIP3    H1 8013   2.190   3.739   0.873  1.6046  0.2200  0.2914
 2669TIP3    H2 8014   2.071   3.819   0.825 -0.2657 -1.5442  1.7375
 2670TIP3   OH2 8015   0.052   4.354   1.964 -0.0839 -0.3385  0.4573
 2670TIP3    H1 8016   0.072   4.315   1.879  0.9512 -1.7390  1.3129
 2670TIP3    H2 8017   0.124   4.327   2.021 -1.7820 -1.1967  2.3312
 2671TIP3   OH2 8018   2.916   4.731   4.213 -0.3172 -0.2748 -0.1703
 2671TIP3    H1 8019   2.915   4.636   4.201 -0.8926 -0.1352 -1.4590
 2671TIP3    H2 8020   2.889   4.744   4.304 -0.6622 -1.3306 -0.0979
 2672TIP3   OH2 8021   5.510   0.841   0.467  0.1078 -0.0620  0.1489
 2672TIP3    H1 8022   5.416   0.845   0.486  0.1553 -1.8219  0.9221
 2672TIP3    H2 8023   5.514   0.831   0.372 -0.4176  1.1695 -0.0312
 2673TIP3   OH2 8024   5.068   0.821   4.235  0.1023 -0.7084 -0.1587
 2673TIP3    H1 8025   5.139   0.805   4.297  0.1521 -0.3132 -0.1128
 2673TIP3    H2 8026   5.002   0.756   4.258 -0.3325  0.1177  1.0181
 2674TIP3   OH2 8027   4.286   5.826   0.922 -0.3404  0.4783 -0.0791
 2674TIP3    H1 8028   4.284   5.912   0.964  0.4869  0.5566 -0.1823
 2674TIP3    H2 8029   4.361   5.782   0.961  0.7812  0.7517 -1.8062
 2675TIP3   OH2 8030   1.434   5.813   3.375 -0.1219  0.4885  0.0669
 2675TIP3    H1 8031   1.411   5.900   3.340 -1.3680  1.0079  2.0292
 2675TIP3    H2 8032   1.440   5.757   3.297 -1.1152  1.9310 -1.1201
 2676TIP3   OH2 8033   1.250   3.036   0.735 -0.7813 -0.4146  0.2441
 2676TIP3    H1 8034   1.276   3.066   0.648 -0.7668 -0.9999  0.0363
 2676TIP3    H2 8035   1.331   3.033   0.786 -0.7943 -0.0456  0.2834
 2677TIP3   OH2 8036   3.936   3.850   4.565  0.2083 -0.5881 -0.5299
 2677TIP3    H1 8037   3.992   3.923   4.593  1.6614 -1.7874 -0.1569
 2677TIP3    H2 8038   3.972   3.824   4.480 -0.5123 -0.6670 -0.8195
 2678TIP3   OH2 8039   1.008   5.283   0.533  0.0131  0.3379 -0.3836
 2678TIP3    H1 8040   1.058   5.203   0.515  0.4624  0.5712 -0.2108
 2678TIP3    H2 8041   1.035   5.343   0.463  0.5617  0.7200  0.1460
 2679TIP3   OH2 8042   1.070   1.011   0.626 -0.0402 -0.1101 -0.1623
 2679TIP3    H1 8043   1.068   0.943   0.560  1.3720 -0.8147  0.4860
 2679TIP3    H2 8044   0.984   1.053   0.619  0.5690  0.9225 -3.5169
 2680TIP3   OH2 8045   4.606   2.742   1.483  0.3530 -0.1819 -0.5133
 2680TIP3    H1 8046   4.663   2.679   1.438 -0.5864 -0.1595 -1.8025
 2680TIP3    H2 8047   4.528   2.692   1.506 -0.1834  0.3796 -1.0833
 2681TIP3   OH2 8048   1.900   2.738   2.641 -0.5178 -0.2606  0.3284
 2681TIP3    H1 8049   1.819   2.747   2.591  0.6872  0.3558 -1.6057
 2681TIP3    H2 8050   1.915   2.826   2.676 -1.5429 -0.7643  2.2026
 2682TIP3   OH2 8051   4.015   3.297   1.614  0.1627 -0.4987  0.0371
 2682TIP3    H1 8052   4.050   3.385   1.624  0.1843 -0.6180  1.0806
 2682TIP3    H2 8053   4.055   3.247   1.685 -1.1177 -0.9478  0.4625
 2683TIP3   OH2 8054   1.816   2.152   1.508 -0.3929  0.0239 -0.0376
 2683TIP3    H1 8055   1.807   2.107   1.592 -0.1931  0.9143  0.4699
 2683TIP3    H2 8056   1.778   2.238   1.522 -0.1912  0.2483 -0.8087
 2684TIP3   OH2 8057   2.458   1.073   1.847  0.0956 -0.4003  0.1775
 2684TIP3    H1 8058   2.546   1.109   1.832 -0.1533 -0.1499 -0.7441
 2684TIP3    H2 8059   2.435   1.031   1.764 -0.0386 -1.8255  0.8993
 2685TIP3   OH2 8060   5.979   1.855   4.287  0.1087  0.4235 -0.0049
 2685TIP3    H1 8061   6.019   1.884   4.369 -0.0347  1.7908 -0.3798
 2685TIP3    H2 8062   5.983   1.933   4.231 -2.4263  0.4018 -0.3100
 2686TIP3   OH2 8063   2.408   4.525   1.334  0.3108 -0.2062 -0.1746
 2686TIP3    H1 8064   2.353   4.520   1.413 -1.4758 -0.5546 -1.3706
 2686TIP3    H2 8065   2.459   4.605   1.346  0.3666 -0.4378  1.4883
 2687TIP3   OH2 8066   6.187   4.905   4.257 -0.5298  0.2251 -1.2690
 2687TIP3    H1 8067   6.165   4.995   4.231 -0.7742  1.2614  2.0420
 2687TIP3    H2 8068   6.232   4.915   4.341 -1.3138 -2.7896 -0.3634
 2688TIP3   OH2 8069   2.770   1.163   0.631 -0.1426 -0.2354  0.5282
 2688TIP3    H1 8070   2.815   1.106   0.567  0.6312 -1.3044  1.9670
 2688TIP3    H2 8071   2.834   1.231   0.650  0.3277 -0.9044  1.4373
 2689TIP3   OH2 8072   1.517   0.361   1.195  0.1915 -0.2952  0.5754
 2689TIP3    H1 8073   1.548   0.427   1.134 -0.8947 -0.1437  0.1519
 2689TIP3    H2 8074   1.426   0.385   1.211 -0.1966 -1.6141  0.4841
 2690TIP3   OH2 8075   3.380   5.405   2.562 -0.0021 -0.5576  0.7072
 2690TIP3    H1 8076   3.374   5.367   2.475  2.2367 -0.3375  0.4149
 2690TIP3    H2 8077   3.296   5.451   2.574 -1.0229 -1.9648 -0.6253
 2691TIP3   OH2 8078   5.030   2.780   4.541 -0.1697 -0.4419 -0.2984
 2691TIP3    H1 8079   5.118   2.811   4.519 -0.5073  0.3940 -0.5462
 2691TIP3    H2 8080   5.025   2.788   4.636  0.0887 -0.6680 -0.2661
 2692TIP3   OH2 8081   5.060   5.936   4.844 -0.6641 -0.1042 -0.2820
 2692TIP3    H1 8082   4.985   5.881   4.867 -0.9561  0.5966  0.4930
 2692TIP3    H2 8083   5.136   5.890   4.882 -0.9596  0.2545  0.7548
 2693TIP3   OH2 8084   2.424   1.451   3.197  0.1534  0.3525 -0.1474
 2693TIP3    H1 8085   2.418   1.356   3.203 -0.0754  0.2025 -2.0226
 2693TIP3    H2 8086   2.504   1.468   3.147  0.0562  1.1366 -0.0602
 2694TIP3   OH2 8087   2.810   1.065   4.835 -0.4911  0.0164 -0.5575
 2694TIP3    H1 8088   2.745   1.102   4.895 -0.9573 -0.5692 -0.6849
 2694TIP3    H2 8089   2.858   1.001   4.887  0.0154  0.4692 -0.4562
 2695TIP3   OH2 8090   2.681   3.356   5.096  0.7623  0.0765 -0.3064
 2695TIP3    H1 8091   2.705   3.444   5.127  0.3643 -0.0447  0.3625
 2695TIP3    H2 8092   2.721   3.350   5.009  0.5034  1.0585 -0.5127
 2696TIP3   OH2 8093   6.186   3.890   0.472  0.0021 -0.1302 -0.5206
 2696TIP3    H1 8094   6.218   3.816   0.422  2.3551 -0.1995  0.9613
 2696TIP3    H2 8095   6.227   3.966   0.432  0.4818 -0.0104  0.1774
 2697TIP3   OH2 8096   5.686   1.591   0.636  0.1263 -0.4117 -0.1173
 2697TIP3    H1 8097   5.732   1.661   0.590  0.4436 -0.9890 -0.6836
 2697TIP3    H2 8098   5.638   1.545   0.568  1.2352 -1.7628 -0.0168
 2698TIP3   OH2 8099   6.096   3.461   3.690 -0.1301  0.2201  0.0351
 2698TIP3    H1 8100   6.133   3.527   3.631 -2.2292  2.4626  1.0675
 2698TIP3    H2 8101   6.003   3.459   3.669 -0.4468 -1.0183  1.3878
 2699TIP3   OH2 8102   0.485   4.273   4.438  0.6259 -0.1088 -0.2525
 2699TIP3    H1 8103   0.479   4.248   4.530  0.7159 -1.2047 -0.5335
 2699TIP3    H2 8104   0.406   4.325   4.422  1.3546  1.4001  0.8165
 2700TIP3   OH2 8105   0.019   2.796   0.527  0.2129  0.1170 -0.6840
 2700TIP3    H1 8106   0.081   2.744   0.578  1.4367  2.5245  0.4610
 2700TIP3    H2 8107  -0.063   2.748   0.533  0.5744 -0.3348  2.6699
 2701TIP3   OH2 8108   0.391   1.658   4.009 -0.1452  0.0525  0.4712
 2701TIP3    H1 8109   0.354   1.746   4.000 -2.0694 -0.6960  0.6607
 2701TIP3    H2 8110   0.315   1.600   4.014  1.0825 -1.6685  0.0525
 2702TIP3   OH2 8111   4.441   0.908   1.321 -0.4697  0.1531  0.3199
 2702TIP3    H1 8112   4.433   0.976   1.388 -0.6746  1.8270 -1.3158
 2702TIP3    H2 8113   4.355   0.903   1.281 -0.6838 -1.6917  0.9229
 2703TIP3   OH2 8114   0.216   0.382   2.501 -0.3632  0.0391  0.2248
 2703TIP3    H1 8115   0.123   0.400   2.516 -0.2417  1.1581 -0.2734
 2703TIP3    H2 8116   0.224   0.377   2.406  0.0452 -0.3496  0.2787
 2704TIP3   OH2 8117   3.776   4.554   2.366  0.4830  0.4708 -0.1104
 2704TIP3    H1 8118   3.772   4.619   2.436  0.4724 -1.3284  1.6708
 2704TIP3    H2 8119   3.686   4.547   2.335  0.1468  0.1234  0.8835
 2705TIP3   OH2 8120   4.601   5.541   2.194  0.2576  0.5759  0.2907
 2705TIP3    H1 8121   4.601   5.505   2.105  0.6375  0.2834  0.4013
 2705TIP3    H2 8122   4.691   5.571   2.207  0.5933 -0.6459  1.0618
 2706TIP3   OH2 8123   5.232   0.797   0.472  0.2323 -0.1039  0.0191
 2706TIP3    H1 8124   5.158   0.826   0.418  1.9888  1.5080 -1.6935
 2706TIP3    H2 8125   5.232   0.702   0.464 -0.4839 -0.0030 -1.6176
 2707TIP3   OH2 8126   1.586   0.992   5.079 -0.2818 -0.6247 -0.3919
 2707TIP3    H1 8127   1.598   0.917   5.137  0.6147 -1.3577 -1.4800
 2707TIP3    H2 8128   1.652   1.056   5.109 -0.8012 -0.4001  0.3016
 2708TIP3   OH2 8129   1.241   4.982   4.137  0.7177  0.0990  0.0131
 2708TIP3    H1 8130   1.172   5.048   4.143 -1.3391 -1.8834 -0.5281
 2708TIP3    H2 8131   1.310   5.024   4.084 -1.5573  1.0214 -2.4691
 2709TIP3   OH2 8132   4.908   0.646   4.391  0.0828 -0.4400  0.1555
 2709TIP3    H1 8133   4.901   0.671   4.483  0.3304  0.4302 -0.0479
 2709TIP3    H2 8134   4.818   0.630   4.363  0.1678 -2.9377  1.1163
 2710TIP3   OH2 8135   0.365   1.834   2.360  0.3764 -0.1849  0.1692
 2710TIP3    H1 8136   0.416   1.774   2.305 -0.0190 -0.5789  0.2198
 2710TIP3    H2 8137   0.404   1.825   2.447  0.9828  0.4165 -0.0386
 2711TIP3   OH2 8138   5.473   0.087   3.582  0.0043 -0.1672 -0.2431
 2711TIP3    H1 8139   5.412   0.019   3.553 -1.0709  0.7053 -0.0645
 2711TIP3    H2 8140   5.450   0.102   3.674 -0.3586  1.0511 -0.5244
 2712TIP3   OH2 8141   6.337   0.754   2.427  0.3603 -0.0433  0.0526
 2712TIP3    H1 8142   6.278   0.711   2.489  0.8219 -2.0569 -0.8243
 2712TIP3    H2 8143   6.422   0.756   2.472  0.8554 -2.1174 -0.7032
 2713TIP3   OH2 8144   5.393   2.083   1.461 -0.3654  0.1312  0.1633
 2713TIP3    H1 8145   5.394   2.008   1.401 -2.7970 -0.1813  0.4133
 2713TIP3    H2 8146   5.414   2.158   1.406  0.5609 -0.5239 -0.4094
 2714TIP3   OH2 8147   1.975   0.336   0.903 -0.1088 -0.1600  0.5338
 2714TIP3    H1 8148   2.003   0.419   0.943 -1.1663  0.3981  0.1605
 2714TIP3    H2 8149   2.044   0.274   0.926  0.3731  0.6613  1.3968
 2715TIP3   OH2 8150   5.840   3.162   3.814 -0.0545 -0.3263 -0.1516
 2715TIP3    H1 8151   5.878   3.141   3.899 -0.7659 -0.6328  0.1040
 2715TIP3    H2 8152   5.854   3.084   3.760  0.8569  0.0596 -0.4914
 2716TIP3   OH2 8153   6.209   0.250   3.768 -0.2553 -0.5482 -0.2814
 2716TIP3    H1 8154   6.175   0.300   3.843  2.3465  0.7397  0.1432
 2716TIP3    H2 8155   6.140   0.257   3.702 -0.3646  3.0068  0.0439
 2717TIP3   OH2 8156   4.997   2.356   0.517  0.0050 -0.9277 -0.9588
 2717TIP3    H1 8157   4.937   2.413   0.565 -0.5095 -1.8859 -0.4280
 2717TIP3    H2 8158   5.064   2.415   0.482  0.3874 -0.1912  0.9190
 2718TIP3   OH2 8159   1.953   2.725   1.863  0.2528 -0.0341  0.3054
 2718TIP3    H1 8160   1.969   2.724   1.958  0.1143 -0.3449  0.3263
 2718TIP3    H2 8161   1.866   2.688   1.853  0.2810 -0.0329  0.0519
 2719TIP3   OH2 8162   6.320   5.848   2.116  0.3206  0.0199  0.3125
 2719TIP3    H1 8163   6.264   5.883   2.046  1.8749 -2.1502 -2.2073
 2719TIP3    H2 8164   6.355   5.926   2.160  0.5561  1.5652 -2.4030
 2720TIP3   OH2 8165   0.914   1.722   1.135  0.3346  0.0922 -0.0054
 2720TIP3    H1 8166   0.988   1.783   1.124 -0.6771  1.1276 -1.5204
 2720TIP3    H2 8167   0.902   1.716   1.229  2.1133  0.1811  0.2721
 2721TIP3   OH2 8168   3.137   0.632   2.569 -0.0973 -0.1372 -0.3589
 2721TIP3    H1 8169   3.186   0.560   2.529  0.6189 -0.4990  1.1099
 2721TIP3    H2 8170   3.204   0.686   2.611 -0.8681 -0.2260  1.0398
 2722TIP3   OH2 8171   0.319   4.379   0.989 -0.6741 -0.3120  0.1395
 2722TIP3    H1 8172   0.286   4.451   1.043 -1.4000 -0.4542 -0.1120
 2722TIP3    H2 8173   0.242   4.326   0.970 -0.2305 -0.8674 -0.1202
 2723TIP3   OH2 8174   1.765   3.372   3.349 -0.7227  0.7289 -0.5807
 2723TIP3    H1 8175   1.729   3.448   3.302  0.0870 -0.1298 -2.7153
 2723TIP3    H2 8176   1.847   3.405   3.387 -1.1830  1.3325 -0.0881
 2724TIP3   OH2 8177   4.680   2.774   0.951  0.1615 -0.0569  0.3370
 2724TIP3    H1 8178   4.759   2.807   0.995  0.4038  1.6167 -1.1918
 2724TIP3    H2 8179   4.638   2.853   0.917 -1.1309 -1.0916 -0.5562
 2725TIP3   OH2 8180   4.469   3.199   4.646  0.1876 -0.1630 -0.0260
 2725TIP3    H1 8181   4.473   3.168   4.736  1.0411 -1.7191 -0.5459
 2725TIP3    H2 8182   4.415   3.278   4.649  0.3414 -0.0881  1.8552
 2726TIP3   OH2 8183   3.086   3.387   2.519  0.0465  0.2117  0.4796
 2726TIP3    H1 8184   3.091   3.408   2.426  0.1610 -2.3169 -0.1508
 2726TIP3    H2 8185   3.127   3.461   2.562  0.8697  1.0097 -1.5383
 2727TIP3   OH2 8186   0.876   1.547   0.423 -0.1518  0.0003 -0.5408
 2727TIP3    H1 8187   0.909   1.458   0.419  0.5758  0.3029 -1.5192
 2727TIP3    H2 8188   0.796   1.541   0.476  0.1574 -1.1365 -0.1875
 2728TIP3   OH2 8189   0.512   3.956   4.497  0.2832  0.2663 -0.0256
 2728TIP3    H1 8190   0.465   4.022   4.549 -0.6870  0.6622 -1.3455
 2728TIP3    H2 8191   0.595   3.999   4.475 -0.9523  1.7510 -2.1711
 2729TIP3   OH2 8192   0.852   6.021   2.804 -0.3591  0.2040  0.0625
 2729TIP3    H1 8193   0.908   6.002   2.729 -1.4413 -1.8757 -0.2977
 2729TIP3    H2 8194   0.877   5.955   2.869 -1.2410  0.2939  0.5056
 2730TIP3   OH2 8195   1.885   4.124   0.395  0.2688 -0.0951  0.2183
 2730TIP3    H1 8196   1.916   4.054   0.452 -0.0637 -0.3353  0.1034
 2730TIP3    H2 8197   1.811   4.162   0.441  0.5543  0.2934  0.3594
 2731TIP3   OH2 8198   0.367   3.227   2.727 -0.1012  0.2775  0.2208
 2731TIP3    H1 8199   0.362   3.165   2.654 -0.2035  1.5886 -0.9174
 2731TIP3    H2 8200   0.450   3.273   2.714 -0.0860  0.4836  0.9789
 2732TIP3   OH2 8201  -0.005   1.284   4.181 -0.2475  0.8288  0.3359
 2732TIP3    H1 8202   0.088   1.267   4.165 -0.1409  0.5310  1.2013
 2732TIP3    H2 8203  -0.011   1.379   4.189  0.0583  0.8232  0.6779
 2733TIP3   OH2 8204   5.737   3.869   1.171 -0.1827  0.2855  0.4289
 2733TIP3    H1 8205   5.700   3.919   1.098  1.0429 -0.4401 -0.7315
 2733TIP3    H2 8206   5.668   3.806   1.195  0.5905 -1.8959 -2.5160
 2734TIP3   OH2 8207   6.111   0.868   2.051  0.5104  0.7552 -0.1311
 2734TIP3    H1 8208   6.202   0.896   2.057  1.9068 -3.2624  1.0682
 2734TIP3    H2 8209   6.086   0.848   2.142 -1.3235  1.0826 -0.5307
 2735TIP3   OH2 8210   5.073   2.396   1.788  0.0036 -0.1417 -0.2582
 2735TIP3    H1 8211   5.030   2.412   1.704 -1.9156 -0.7384  0.5378
 2735TIP3    H2 8212   5.018   2.441   1.852  3.3516  3.4047  0.4636
 2736TIP3   OH2 8213   3.984   0.223   4.434 -0.4445  0.3640 -0.0566
 2736TIP3    H1 8214   3.913   0.277   4.467 -0.2457  0.0148  0.9858
 2736TIP3    H2 8215   4.062   0.278   4.439 -0.6494  0.7864 -1.3113
 2737TIP3   OH2 8216   4.272   0.580   1.034 -1.1501  0.0270  0.1561
 2737TIP3    H1 8217   4.302   0.506   0.981 -0.3536  0.4372  0.0195
 2737TIP3    H2 8218   4.345   0.598   1.094 -0.8772  1.3997 -0.5616
 2738TIP3   OH2 8219   1.248   4.944   1.563  0.1445 -0.8942  0.2007
 2738TIP3    H1 8220   1.329   4.899   1.537 -0.1917 -0.7704 -1.1581
 2738TIP3    H2 8221   1.271   5.037   1.561 -0.2281 -0.8031 -1.0586
 2739TIP3   OH2 8222   6.334   3.887   2.963 -0.7934 -0.2169 -0.2091
 2739TIP3    H1 8223   6.259   3.828   2.966  0.3547 -1.6701  1.6428
 2739TIP3    H2 8224   6.347   3.915   3.053  2.3729 -2.0191  0.0400
 2740TIP3   OH2 8225   2.285   3.727   1.443  0.8831 -0.4357  0.5849
 2740TIP3    H1 8226   2.244   3.766   1.520  2.4945 -0.4177  1.4993
 2740TIP3    H2 8227   2.345   3.661   1.479  1.1013 -0.9770 -0.7084
 2741TIP3   OH2 8228   0.139   4.222   3.773 -0.0822 -0.0754 -0.0725
 2741TIP3    H1 8229   0.175   4.294   3.825 -0.7576  0.6887 -0.6286
 2741TIP3    H2 8230   0.075   4.264   3.715  0.4161 -0.9368 -1.3015
 2742TIP3   OH2 8231   3.398   4.117   1.033  0.1925  0.0075 -0.1303
 2742TIP3    H1 8232   3.304   4.127   1.047  0.1605  1.2845 -1.0678
 2742TIP3    H2 8233   3.420   4.183   0.967  1.5645 -0.9567 -0.6953
 2743TIP3   OH2 8234   2.147   3.493   4.623  0.1120  0.0329  0.0417
 2743TIP3    H1 8235   2.056   3.508   4.599 -1.5112 -2.9718  3.2933
 2743TIP3    H2 8236   2.155   3.533   4.710  1.8653  0.0820 -0.1095
 2744TIP3   OH2 8237   1.761   4.300   1.886 -0.2611 -0.5578 -0.4638
 2744TIP3    H1 8238   1.714   4.227   1.846 -1.2333 -0.4527  0.4345
 2744TIP3    H2 8239   1.717   4.378   1.853  0.3293 -0.3892 -0.8721
 2745TIP3   OH2 8240   0.285   3.980   3.762  0.5553  0.3692  0.1555
 2745TIP3    H1 8241   0.236   4.062   3.762  1.0541  0.6764  0.7569
 2745TIP3    H2 8242   0.375   4.006   3.741  1.0493  0.1993  1.8929
 2746TIP3   OH2 8243   2.841   3.933   3.346 -0.3588 -0.4865  0.1612
 2746TIP3    H1 8244   2.787   3.881   3.406  1.3309 -1.4797  0.8936
 2746TIP3    H2 8245   2.872   3.870   3.281 -0.2754  0.1262 -0.4029
 2747TIP3   OH2 8246   4.484   1.661   4.390 -0.1344 -0.1099 -0.8972
 2747TIP3    H1 8247   4.511   1.727   4.327  1.0369  0.3786  0.0839
 2747TIP3    H2 8248   4.398   1.690   4.420  0.9407  1.7504  0.5328
 2748TIP3   OH2 8249   4.579   4.542   1.108  0.1817  0.3494  0.0673
 2748TIP3    H1 8250   4.596   4.571   1.019 -1.7470  1.9837  0.1564
 2748TIP3    H2 8251   4.517   4.469   1.098  0.3101  0.2438  0.0474
 2749TIP3   OH2 8252   3.249   5.707   1.831 -0.5063  0.9390 -0.4524
 2749TIP3    H1 8253   3.211   5.764   1.764 -2.1369 -0.5136 -0.8284
 2749TIP3    H2 8254   3.184   5.705   1.901 -0.4868 -0.4065 -0.4469
 2750TIP3   OH2 8255   4.016   5.078   4.369  0.2239 -0.0148 -0.2911
 2750TIP3    H1 8256   3.964   5.012   4.323 -0.1398  1.1551 -1.6560
 2750TIP3    H2 8257   3.976   5.085   4.456 -0.4482 -0.7581 -0.5355
 2751TIP3   OH2 8258   1.427   0.323   0.105  0.4928 -0.2284  0.1280
 2751TIP3    H1 8259   1.368   0.306   0.032 -1.6076  0.1288  1.6397
 2751TIP3    H2 8260   1.398   0.407   0.141  2.6671  0.5127  0.2917
 2752TIP3   OH2 8261   1.406   1.102   0.917 -0.0447 -0.1448 -0.2330
 2752TIP3    H1 8262   1.500   1.119   0.924 -0.1407  1.1454 -1.7005
 2752TIP3    H2 8263   1.364   1.184   0.941 -0.9422 -1.3326  2.6194
 2753TIP3   OH2 8264   5.745   1.673   4.330 -0.1817  0.3263  0.0139
 2753TIP3    H1 8265   5.765   1.582   4.348  0.1704  0.5526  0.8144
 2753TIP3    H2 8266   5.828   1.719   4.343  0.0505  0.5720 -1.9366
 2754TIP3   OH2 8267   5.811   5.407   0.198 -0.3595 -0.0555  0.0009
 2754TIP3    H1 8268   5.889   5.448   0.236  0.0323 -0.9007  0.1254
 2754TIP3    H2 8269   5.788   5.337   0.260 -1.6074  0.5816  0.3004
 2755TIP3   OH2 8270   5.871   5.132   3.682  0.0501  0.2682  0.0407
 2755TIP3    H1 8271   5.872   5.096   3.771 -0.3566  0.0890 -0.0261
 2755TIP3    H2 8272   5.856   5.056   3.626 -0.7756  0.5322 -0.1058
 2756TIP3   OH2 8273   1.973   4.163   4.109  0.9778  0.0342  0.2762
 2756TIP3    H1 8274   1.920   4.235   4.142  0.5464  0.7054 -1.7175
 2756TIP3    H2 8275   1.923   4.127   4.036  2.2704 -0.7404 -0.2733
 2757TIP3   OH2 8276   1.015   3.210   4.156  0.4289 -0.1163 -0.0972
 2757TIP3    H1 8277   0.952   3.261   4.104  0.7881 -0.2439 -0.6703
 2757TIP3    H2 8278   0.962   3.171   4.226 -0.6357 -2.1802 -1.9199
 2758TIP3   OH2 8279   5.956   2.222   2.702 -0.4415 -0.6469  0.3984
 2758TIP3    H1 8280   5.919   2.222   2.613 -0.6753  1.4446  0.4275
 2758TIP3    H2 8281   6.045   2.188   2.691  0.3277  1.5931 -1.0837
 2759TIP3   OH2 8282   1.626   4.548   2.636 -0.2655 -0.5723 -0.1254
 2759TIP3    H1 8283   1.699   4.559   2.575 -1.1272  0.9627 -0.9466
 2759TIP3    H2 8284   1.556   4.509   2.583 -0.9835  0.6727 -0.1305
 2760TIP3   OH2 8285   0.103   5.999   3.035  0.0764 -1.2951 -0.5516
 2760TIP3    H1 8286   0.085   5.931   3.100  1.7682 -0.6799  0.6234
 2760TIP3    H2 8287   0.023   6.052   3.034 -0.3197 -1.8511  0.3656
 2761TIP3   OH2 8288   5.612   0.982   3.025 -0.3895  0.1242  0.7958
 2761TIP3    H1 8289   5.629   1.063   2.977 -1.4735 -1.1178 -1.8257
 2761TIP3    H2 8290   5.698   0.953   3.055  0.0212  2.1843  1.7689
 2762TIP3   OH2 8291   6.219   3.230   3.605  0.4565  0.2216 -0.7860
 2762TIP3    H1 8292   6.174   3.306   3.642  0.2366 -0.4525  0.3749
 2762TIP3    H2 8293   6.182   3.220   3.517 -0.9984  0.2485 -0.1969
 2763TIP3   OH2 8294   2.269   2.720   3.276 -0.3282  0.3579 -0.1783
 2763TIP3    H1 8295   2.186   2.764   3.296  0.0070  0.4755  1.0221
 2763TIP3    H2 8296   2.276   2.724   3.181 -1.7296  0.2955 -0.2991
 2764TIP3   OH2 8297   6.302   5.428   3.385  0.1721  0.5610  0.2899
 2764TIP3    H1 8298   6.260   5.374   3.453  0.8211 -2.0125 -1.2165
 2764TIP3    H2 8299   6.238   5.496   3.365 -1.1039 -0.1934  1.6167
 2765TIP3   OH2 8300   4.300   4.920   4.663  0.0676 -0.2561 -0.0101
 2765TIP3    H1 8301   4.233   4.866   4.621 -0.4014  0.1714  0.1916
 2765TIP3    H2 8302   4.301   5.001   4.612  3.5527 -1.8396 -2.9394
 2766TIP3   OH2 8303   5.757   0.634   1.096  0.2849  0.4783  0.6679
 2766TIP3    H1 8304   5.808   0.647   1.175  1.8336 -0.9001 -0.0587
 2766TIP3    H2 8305   5.810   0.673   1.026  0.9072 -1.8244 -0.2411
 2767TIP3   OH2 8306   0.682   2.255   3.050 -0.1074  0.0108  0.3682
 2767TIP3    H1 8307   0.648   2.339   3.018 -3.1097 -1.3108 -0.2726
 2767TIP3    H2 8308   0.606   2.210   3.085  1.5086 -2.2747  1.1886
 2768TIP3   OH2 8309   3.476   0.505   4.715 -0.1308  0.7357  0.6637
 2768TIP3    H1 8310   3.417   0.546   4.778  0.8769  0.0046  2.1572
 2768TIP3    H2 8311   3.490   0.417   4.750  1.2253  0.6360 -0.0786
 2769TIP3   OH2 8312   1.753   2.171   3.835  0.0838 -0.6870  0.4353
 2769TIP3    H1 8313   1.706   2.166   3.752 -1.0255 -0.4147  1.0225
 2769TIP3    H2 8314   1.831   2.117   3.823  0.9018  0.7863 -1.3963
 2770TIP3   OH2 8315   5.053   4.010   0.147  0.1574  0.3330  0.0124
 2770TIP3    H1 8316   5.051   3.938   0.084  2.4063  0.7153 -0.5681
 2770TIP3    H2 8317   4.984   4.070   0.117  1.0261  0.4071 -2.0108
 2771TIP3   OH2 8318   1.020   4.007   4.447 -0.9945  0.2087  0.5876
 2771TIP3    H1 8319   0.992   3.946   4.380 -0.1050  0.0467  0.3429
 2771TIP3    H2 8320   1.086   3.959   4.498 -1.0931  0.5866  1.0901
 2772TIP3   OH2 8321   2.482   0.774   4.083  0.3063  0.2757 -0.2793
 2772TIP3    H1 8322   2.487   0.686   4.119  0.7071  0.0279 -0.9115
 2772TIP3    H2 8323   2.574   0.801   4.073  0.2230  0.2642 -1.2442
 2773TIP3   OH2 8324   2.250   4.683   0.779 -0.1145 -0.2223 -0.2138
 2773TIP3    H1 8325   2.339   4.681   0.744 -0.0058  0.6817 -0.0181
 2773TIP3    H2 8326   2.202   4.743   0.721 -0.3571 -0.0032  0.2005
 2774TIP3   OH2 8327   3.374   3.100   1.308  0.0896  0.1752  0.2243
 2774TIP3    H1 8328   3.402   3.031   1.368 -1.2893 -0.4811  0.1515
 2774TIP3    H2 8329   3.340   3.169   1.365  0.5021  0.3493  0.2606
 2775TIP3   OH2 8330   2.852   4.373   1.640 -0.6288  0.5668 -0.3051
 2775TIP3    H1 8331   2.868   4.409   1.728  0.5695  0.7669 -0.5831
 2775TIP3    H2 8332   2.806   4.290   1.656 -1.9647  1.4058  0.4184
 2776TIP3   OH2 8333   0.326   5.341   4.402 -0.4157 -0.0988  0.1198
 2776TIP3    H1 8334   0.252   5.395   4.373  1.1035  1.4711 -1.0775
 2776TIP3    H2 8335   0.301   5.252   4.379 -2.1887  0.3003  0.3470
 2777TIP3   OH2 8336   4.855   0.912   1.565 -0.3476 -0.5835 -0.2291
 2777TIP3    H1 8337   4.830   0.835   1.514 -1.0819 -0.1675 -0.5012
 2777TIP3    H2 8338   4.854   0.984   1.503 -1.1515 -0.0897  0.3420
 2778TIP3   OH2 8339   6.213   2.229   1.550  0.5667  0.5018 -0.9650
 2778TIP3    H1 8340   6.236   2.168   1.479  0.9591 -0.4754 -0.0331
 2778TIP3    H2 8341   6.159   2.295   1.508  1.0524  0.1211 -2.2419
 2779TIP3   OH2 8342   6.163   4.953   3.737 -0.3932  0.0689  0.1358
 2779TIP3    H1 8343   6.116   5.035   3.745 -0.4118  0.0777 -0.0423
 2779TIP3    H2 8344   6.201   4.937   3.823  0.5663  0.8466 -0.1258
 2780TIP3   OH2 8345   5.784   5.273   2.562  0.6996 -0.5855  0.0364
 2780TIP3    H1 8346   5.727   5.349   2.556  0.0571 -0.9940  0.8280
 2780TIP3    H2 8347   5.782   5.235   2.473  2.7146  1.4640 -0.9777
 2781TIP3   OH2 8348   2.769   0.723   1.192  0.0467  0.4349  0.1212
 2781TIP3    H1 8349   2.715   0.771   1.129 -0.5176  1.2721  1.2061
 2781TIP3    H2 8350   2.809   0.653   1.140 -0.8941  0.7021 -1.0276
 2782TIP3   OH2 8351   2.870   3.205   4.551 -0.3729 -0.2989  0.2116
 2782TIP3    H1 8352   2.941   3.174   4.608  1.0762  2.1495 -0.0956
 2782TIP3    H2 8353   2.793   3.157   4.580  1.5515 -4.0340 -0.2201
 2783TIP3   OH2 8354   4.208   5.041   2.247  0.1950  0.2418 -0.5660
 2783TIP3    H1 8355   4.150   4.985   2.196  0.7210  0.5021 -1.4614
 2783TIP3    H2 8356   4.190   5.017   2.338 -0.9923  0.0149 -0.8483
 2784TIP3   OH2 8357   4.368   0.591   1.554 -0.1930  0.2459 -0.2227
 2784TIP3    H1 8358   4.291   0.633   1.591 -0.4963  1.4358 -2.0773
 2784TIP3    H2 8359   4.341   0.500   1.539 -0.4234  0.0358  1.3163
 2785TIP3   OH2 8360   0.711   4.501   3.880  0.1375 -0.4074 -0.0387
 2785TIP3    H1 8361   0.710   4.411   3.850 -1.4690  0.0722 -1.5873
 2785TIP3    H2 8362   0.639   4.543   3.833  0.0112  1.3725  1.6062
 2786TIP3   OH2 8363   3.397   0.737   0.798  0.1311 -0.6702  0.2450
 2786TIP3    H1 8364   3.478   0.691   0.820 -0.0181 -0.1059  2.1177
 2786TIP3    H2 8365   3.412   0.827   0.824 -0.3996 -0.0907 -1.3010
 2787TIP3   OH2 8366   0.615   3.400   1.369 -0.1589 -0.1697 -0.1750
 2787TIP3    H1 8367   0.683   3.363   1.426  1.1091  1.3722 -0.6215
 2787TIP3    H2 8368   0.661   3.466   1.317 -1.9905  0.8439 -0.5776
 2788TIP3   OH2 8369   6.268   0.875   0.334  0.3040  0.2307  0.6488
 2788TIP3    H1 8370   6.301   0.950   0.383  2.4843  0.1727 -0.6185
 2788TIP3    H2 8371   6.204   0.834   0.393  0.9202  1.6198  2.3614
 2789TIP3   OH2 8372   5.953   5.827   0.696 -0.1326  0.2204  0.5915
 2789TIP3    H1 8373   5.883   5.784   0.647 -1.8456  0.5818  2.5737
 2789TIP3    H2 8374   5.913   5.908   0.728  1.4528  0.8201  1.1475
 2790TIP3   OH2 8375   0.182   2.190   4.824 -0.3665 -0.2511  0.2888
 2790TIP3    H1 8376   0.198   2.096   4.824  1.3833 -0.0204 -1.5308
 2790TIP3    H2 8377   0.087   2.199   4.821 -0.5961 -2.0864 -3.4702
 2791TIP3   OH2 8378   1.506   2.818   4.072  0.0793 -0.7930 -0.6419
 2791TIP3    H1 8379   1.547   2.746   4.025  2.2349 -0.3477  0.4156
 2791TIP3    H2 8380   1.469   2.778   4.151 -0.0660 -0.9467 -0.7874
 2792TIP3   OH2 8381   6.068   2.983   4.689  0.0413  0.2846  0.4735
 2792TIP3    H1 8382   6.095   2.903   4.734 -1.2286 -0.2324  0.3499
 2792TIP3    H2 8383   6.145   3.041   4.695  1.1868 -1.1359  0.0443
 2793TIP3   OH2 8384   2.162   4.157   4.394 -0.8975  0.1343 -0.3788
 2793TIP3    H1 8385   2.147   4.067   4.366 -0.3616  0.5567 -2.1033
 2793TIP3    H2 8386   2.107   4.167   4.472 -1.0361 -1.6384 -0.2114
 2794TIP3   OH2 8387   4.752   2.788   3.876 -0.0854  0.1388 -0.1322
 2794TIP3    H1 8388   4.659   2.776   3.894  0.3912 -0.6974  1.9652
 2794TIP3    H2 8389   4.754   2.853   3.805 -2.2596 -0.4363 -0.7982
 2795TIP3   OH2 8390   5.803   4.975   0.993 -0.3200  0.9543  0.3803
 2795TIP3    H1 8391   5.870   4.907   1.005  1.7682  2.5970 -1.3101
 2795TIP3    H2 8392   5.825   5.042   1.058 -0.4815  1.3871 -0.0091
 2796TIP3   OH2 8393   0.850   2.422   0.473  0.1947 -0.3946 -0.6271
 2796TIP3    H1 8394   0.874   2.412   0.381 -1.2037  0.3000 -1.0933
 2796TIP3    H2 8395   0.773   2.367   0.484 -0.0088  0.0010 -0.0109
 2797TIP3   OH2 8396   4.520   1.008   3.959 -0.7166  0.0998 -0.1245
 2797TIP3    H1 8397   4.442   0.999   4.012 -1.0781 -1.0738 -0.8093
 2797TIP3    H2 8398   4.550   1.097   3.974 -1.6124  0.2378  0.9205
 2798TIP3   OH2 8399   4.823   2.054   2.282 -0.2436 -0.3537  0.0131
 2798TIP3    H1 8400   4.892   2.001   2.322 -0.1176 -1.6163 -1.7749
 2798TIP3    H2 8401   4.744   2.032   2.332  0.5501  1.1656  2.1376
 2799TIP3   OH2 8402   3.918   0.518   3.010 -0.6988  0.1238 -0.0365
 2799TIP3    H1 8403   3.848   0.466   3.048 -1.4075  0.9784 -0.1250
 2799TIP3    H2 8404   3.993   0.459   3.005 -1.5511 -0.9668 -0.3975
 2800TIP3   OH2 8405   2.199   0.258   2.851  0.1799 -0.3732  0.2914
 2800TIP3    H1 8406   2.120   0.302   2.822  0.7493 -0.2448 -1.1333
 2800TIP3    H2 8407   2.171   0.169   2.873 -0.4284 -0.1931  0.2499
 2801TIP3   OH2 8408   6.246   0.604   0.183  0.0213  0.2610  0.4210
 2801TIP3    H1 8409   6.267   0.600   0.090 -0.1928 -0.3173  0.3951
 2801TIP3    H2 8410   6.204   0.689   0.195  0.9073  0.7474  0.1737
 2802TIP3   OH2 8411   6.006   3.029   1.825 -0.1204  0.1460 -0.3219
 2802TIP3    H1 8412   5.990   3.031   1.730 -0.4028 -1.6867 -0.3399
 2802TIP3    H2 8413   6.056   2.949   1.839 -1.3676 -0.4036  1.2716
 2803TIP3   OH2 8414   1.779   2.916   2.393  0.5343 -0.3381 -0.0704
 2803TIP3    H1 8415   1.726   2.847   2.354  1.9665 -1.8535  0.5270
 2803TIP3    H2 8416   1.770   2.990   2.334 -2.1630 -0.5206 -0.0211
 2804TIP3   OH2 8417   0.937   4.109   2.645 -0.2171  0.6671 -0.6186
 2804TIP3    H1 8418   0.863   4.126   2.587  0.3276 -0.2348 -1.6100
 2804TIP3    H2 8419   1.014   4.116   2.589  0.3589  0.2171  0.0952
 2805TIP3   OH2 8420   2.045   0.274   3.957  0.0544 -0.3381 -0.7978
 2805TIP3    H1 8421   1.962   0.320   3.949 -0.0390 -0.3013  0.2187
 2805TIP3    H2 8422   2.108   0.330   3.913 -0.3066  0.0789 -0.7874
 2806TIP3   OH2 8423   1.762   0.315   2.950  0.0072 -0.1247 -0.2968
 2806TIP3    H1 8424   1.795   0.305   3.039 -1.1947  0.2693  0.2185
 2806TIP3    H2 8425   1.682   0.368   2.960  0.7075  1.3203 -1.7759
 2807TIP3   OH2 8426   0.861   2.080   2.906 -0.7426 -0.0915  0.5891
 2807TIP3    H1 8427   0.777   2.114   2.934 -0.3935  0.9965  0.3577
 2807TIP3    H2 8428   0.875   2.003   2.961 -2.8949 -1.6508 -0.8791
 2808TIP3   OH2 8429   2.620   4.416   4.419 -0.6527  0.0664 -0.0780
 2808TIP3    H1 8430   2.570   4.340   4.389 -0.3085 -0.5311  0.8147
 2808TIP3    H2 8431   2.558   4.489   4.412 -1.4375 -0.5382  0.3377
 2809TIP3   OH2 8432   6.254   5.718   1.726 -0.1564  0.2242 -0.4225
 2809TIP3    H1 8433   6.329   5.668   1.759 -0.3473 -0.3189 -0.7890
 2809TIP3    H2 8434   6.250   5.795   1.782  0.0225 -0.2696  0.2854
 2810TIP3   OH2 8435   4.385   5.876   2.068  0.7599 -0.3907 -0.2750
 2810TIP3    H1 8436   4.373   5.841   2.156 -0.8397 -1.1887 -0.7757
 2810TIP3    H2 8437   4.458   5.938   2.077 -1.6795  2.4484  2.4793
 2811TIP3   OH2 8438   5.779   3.400   4.546 -0.3396 -0.2753  0.4519
 2811TIP3    H1 8439   5.787   3.433   4.635  1.9638  0.5855  0.0097
 2811TIP3    H2 8440   5.851   3.336   4.538 -0.2674 -0.0475 -0.8877
 2812TIP3   OH2 8441   4.637   0.344   2.010 -0.4387  0.0280  0.4145
 2812TIP3    H1 8442   4.667   0.335   2.100 -0.3993 -3.0729  0.2051
 2812TIP3    H2 8443   4.548   0.308   2.011 -1.2934  1.9863 -0.4281
 2813TIP3   OH2 8444   3.343   4.646   1.480 -0.2026  0.4153  0.0130
 2813TIP3    H1 8445   3.413   4.617   1.422 -0.0870 -0.2448  0.4839
 2813TIP3    H2 8446   3.262   4.623   1.433 -0.1332  1.4986 -0.6952
 2814TIP3   OH2 8447   4.061   1.119   2.477 -0.2444  0.0282 -0.3039
 2814TIP3    H1 8448   4.111   1.038   2.466 -1.1515 -0.8342  1.3615
 2814TIP3    H2 8449   4.110   1.170   2.541 -0.7965 -0.2422  0.3534
 2815TIP3   OH2 8450   3.633   5.621   4.470 -0.2532 -0.0466 -0.2616
 2815TIP3    H1 8451   3.635   5.633   4.375 -1.5097  0.3786 -0.2604
 2815TIP3    H2 8452   3.666   5.703   4.505  0.2586 -0.2221 -0.3246
 2816TIP3   OH2 8453   1.604   3.903   4.114  0.6866 -0.3448 -0.3063
 2816TIP3    H1 8454   1.639   3.854   4.040  1.3821  1.6250 -1.3639
 2816TIP3    H2 8455   1.681   3.923   4.168  0.1863 -1.7733  1.0101
 2817TIP3   OH2 8456   5.567   0.506   4.730  0.7347 -0.3352 -0.1996
 2817TIP3    H1 8457   5.601   0.459   4.654 -0.0899 -1.0580 -0.1403
 2817TIP3    H2 8458   5.631   0.576   4.747  2.4652 -1.9683  0.2619
 2818TIP3   OH2 8459   4.812   0.774   1.839  0.2157 -0.5200 -0.4342
 2818TIP3    H1 8460   4.783   0.839   1.775 -1.3920 -0.3735  0.3864
 2818TIP3    H2 8461   4.907   0.770   1.828  0.0563 -0.0292 -2.3554
 2819TIP3   OH2 8462   1.448   2.381   4.795  0.1850 -0.3361 -0.1098
 2819TIP3    H1 8463   1.458   2.328   4.715 -2.0056  0.5723 -1.0702
 2819TIP3    H2 8464   1.516   2.448   4.788  0.3951 -0.6219 -0.9335
 2820TIP3   OH2 8465   2.751   1.196   0.019  0.2766  0.3525 -0.9396
 2820TIP3    H1 8466   2.768   1.175   0.111  0.1146 -1.3540 -1.2539
 2820TIP3    H2 8467   2.688   1.268   0.022  1.4881  1.4033  0.2558
 2821TIP3   OH2 8468   4.971   4.840   0.235  0.3626 -0.1676 -0.2024
 2821TIP3    H1 8469   4.995   4.759   0.191 -0.6540 -0.8958  0.5458
 2821TIP3    H2 8470   5.012   4.833   0.322  1.2500  0.6594 -0.5402
 2822TIP3   OH2 8471   0.727   4.986   3.622 -0.0777  1.0685 -0.2953
 2822TIP3    H1 8472   0.711   4.954   3.533 -0.0546 -0.7005  0.2877
 2822TIP3    H2 8473   0.642   5.015   3.653 -0.4483  0.0670 -0.3204
 2823TIP3   OH2 8474   5.387   4.054   3.988  0.2009 -0.5491 -0.1154
 2823TIP3    H1 8475   5.391   3.960   3.970 -0.4346 -0.7325  0.6447
 2823TIP3    H2 8476   5.440   4.066   4.067 -1.6383 -0.6659  1.1993
 2824TIP3   OH2 8477   5.862   1.245   4.160  0.1481 -0.0507 -0.2540
 2824TIP3    H1 8478   5.949   1.236   4.121 -0.7191  0.8682 -2.5433
 2824TIP3    H2 8479   5.826   1.325   4.121 -0.9625  0.7452  2.2233
 2825TIP3   OH2 8480   4.650   4.311   5.019 -0.3067 -0.2987  0.1758
 2825TIP3    H1 8481   4.655   4.340   5.110 -4.0732  1.8621 -0.1208
 2825TIP3    H2 8482   4.591   4.236   5.022 -0.6627 -0.0457 -0.5130
 2826TIP3   OH2 8483   3.107   5.565   0.454  0.3110  0.5509  0.8954
 2826TIP3    H1 8484   3.046   5.564   0.528 -0.1811 -2.4270  0.6022
 2826TIP3    H2 8485   3.065   5.620   0.388 -1.9825 -1.0976  0.8382
 2827TIP3   OH2 8486   5.383   0.863   3.934  0.0892 -0.6145  0.3688
 2827TIP3    H1 8487   5.414   0.798   3.871  0.6169 -0.4816  0.4819
 2827TIP3    H2 8488   5.449   0.932   3.931 -0.3360 -0.2041  0.4326
 2828TIP3   OH2 8489   2.589   4.370   4.072 -0.2179  0.2259 -0.0442
 2828TIP3    H1 8490   2.655   4.405   4.011 -0.2082  4.4275  2.0266
 2828TIP3    H2 8491   2.506   4.381   4.026 -0.0378  1.4888 -0.0913
 2829TIP3   OH2 8492   3.487   0.723   1.586 -0.0814 -0.0306  0.0283
 2829TIP3    H1 8493   3.581   0.706   1.591 -0.4679 -2.1863  1.2893
 2829TIP3    H2 8494   3.452   0.684   1.666 -2.4816 -2.5575 -2.0898
 2830TIP3   OH2 8495   3.646   2.411   2.056  0.0734 -0.0589 -0.0240
 2830TIP3    H1 8496   3.630   2.432   1.964 -0.6754  0.1027  0.1385
 2830TIP3    H2 8497   3.597   2.331   2.071 -1.1170  0.7571  0.6304
 2831TIP3   OH2 8498   5.283   5.073   2.778 -0.5448 -0.1057 -0.2279
 2831TIP3    H1 8499   5.344   5.110   2.842  0.3975  0.1713 -1.2599
 2831TIP3    H2 8500   5.201   5.064   2.826  0.3074 -0.5282  1.2093
 2832TIP3   OH2 8501   0.335   4.685   1.058  0.3951 -0.1313 -0.3857
 2832TIP3    H1 8502   0.324   4.775   1.087  0.1061 -0.4712  0.6386
 2832TIP3    H2 8503   0.406   4.688   0.995  1.3940  0.6090  0.7311
 2833TIP3   OH2 8504   4.622   4.420   4.606  0.3390  0.2164 -0.0586
 2833TIP3    H1 8505   4.628   4.470   4.688 -0.4452 -0.5834  0.4965
 2833TIP3    H2 8506   4.626   4.329   4.633  2.0088 -0.0581 -1.0833
 2834TIP3   OH2 8507   1.131   5.723   2.253 -0.1661  0.6722  0.1290
 2834TIP3    H1 8508   1.145   5.717   2.347 -1.6092 -0.4405  0.3021
 2834TIP3    H2 8509   1.036   5.726   2.243 -0.0406  0.4777 -1.3111
 2835TIP3   OH2 8510   5.401   2.896   0.900 -0.0132  0.1352  0.2557
 2835TIP3    H1 8511   5.438   2.951   0.831 -1.3371  0.9620  0.1603
 2835TIP3    H2 8512   5.474   2.878   0.958  0.7790  0.7668 -0.5090
 2836TIP3   OH2 8513   1.281   4.517   1.884  0.4029  0.2605  0.1732
 2836TIP3    H1 8514   1.278   4.466   1.803 -0.1898  2.1333 -1.0625
 2836TIP3    H2 8515   1.203   4.572   1.880  2.1504  2.9113  0.2602
 2837TIP3   OH2 8516   1.726   2.119   3.558  0.4401  0.0518  0.0589
 2837TIP3    H1 8517   1.665   2.183   3.521  0.2655  0.3915  0.8932
 2837TIP3    H2 8518   1.742   2.057   3.487 -1.9491 -0.8315  0.1879
 2838TIP3   OH2 8519   2.338   1.185   3.630 -0.0037  0.2769 -0.6426
 2838TIP3    H1 8520   2.429   1.187   3.657 -0.0441  1.6736 -0.5060
 2838TIP3    H2 8521   2.340   1.176   3.535  0.1934 -2.0971 -0.4720
 2839TIP3   OH2 8522   0.755   0.753   0.480 -0.3055  0.5900  0.1187
 2839TIP3    H1 8523   0.676   0.732   0.430  0.8620 -0.8946 -1.2376
 2839TIP3    H2 8524   0.799   0.821   0.429 -0.0366  0.4192  0.1169
 2840TIP3   OH2 8525   5.065   1.719   5.095  0.2209 -0.3092  0.0303
 2840TIP3    H1 8526   5.107   1.672   5.166 -0.9460  0.6140  1.3920
 2840TIP3    H2 8527   4.987   1.668   5.075 -0.8487  0.7634  1.2553
 2841TIP3   OH2 8528   5.264   3.947   0.790 -0.1903 -0.1636  0.4580
 2841TIP3    H1 8529   5.235   3.973   0.702 -1.4555  0.7555  1.1212
 2841TIP3    H2 8530   5.349   3.905   0.775  0.7445  2.0721 -0.9462
 2842TIP3   OH2 8531   2.060   5.007   2.442 -0.6262 -0.3435  0.0735
 2842TIP3    H1 8532   2.001   4.988   2.515 -1.4790 -0.2255 -0.5732
 2842TIP3    H2 8533   2.026   4.954   2.369 -1.3978  1.5237 -0.9910
 2843TIP3   OH2 8534   3.883   1.332   3.855  0.2735  0.0882  0.1118
 2843TIP3    H1 8535   3.885   1.246   3.896  2.6188 -1.4950 -2.9538
 2843TIP3    H2 8536   3.970   1.368   3.870  0.1325  0.8202 -0.7570
 2844TIP3   OH2 8537   2.296   1.709   3.157  0.6116  1.0888 -0.4042
 2844TIP3    H1 8538   2.341   1.631   3.188  0.1781  0.5132 -1.1690
 2844TIP3    H2 8539   2.283   1.763   3.235 -0.7174 -0.4457  0.4922
 2845TIP3   OH2 8540   4.636   5.328   3.308  0.4025  0.3740  0.6723
 2845TIP3    H1 8541   4.589   5.411   3.313 -1.8915 -0.7862  0.0370
 2845TIP3    H2 8542   4.720   5.349   3.268 -0.4874  2.2590 -0.3150
 2846TIP3   OH2 8543   2.000   3.211   3.897  0.4376  0.7017  0.3546
 2846TIP3    H1 8544   2.027   3.300   3.874 -0.7900  0.7071 -1.1980
 2846TIP3    H2 8545   1.905   3.217   3.909  0.5025 -0.1734  1.4591
 2847TIP3   OH2 8546   5.586   3.669   0.507  0.1107 -0.2983 -0.4147
 2847TIP3    H1 8547   5.629   3.641   0.427  1.4608 -2.3385  0.9372
 2847TIP3    H2 8548   5.531   3.595   0.533  1.4697 -0.6511  1.7081
 2848TIP3   OH2 8549   3.605   4.750   0.664  0.0790 -0.0171 -0.2039
 2848TIP3    H1 8550   3.541   4.679   0.670 -0.8336  0.7735 -0.1353
 2848TIP3    H2 8551   3.612   4.768   0.570 -1.4531  1.2755 -0.1343
 2849TIP3   OH2 8552   4.984   1.775   0.894  0.5938 -0.3806  0.1206
 2849TIP3    H1 8553   4.950   1.716   0.827 -0.4225  1.0071 -0.6409
 2849TIP3    H2 8554   5.064   1.812   0.856  0.7911 -0.6420  0.2723
 2850TIP3   OH2 8555   3.036   3.720   4.930 -0.2111 -0.2418 -0.2400
 2850TIP3    H1 8556   3.011   3.812   4.938  0.0001 -0.0144 -1.8689
 2850TIP3    H2 8557   3.074   3.713   4.842 -1.8758 -2.2619 -0.8705
 2851TIP3   OH2 8558   3.258   3.208   4.328  0.3109 -0.1517 -0.0877
 2851TIP3    H1 8559   3.196   3.226   4.257  1.7532  0.0654 -1.3405
 2851TIP3    H2 8560   3.275   3.293   4.367  0.9279  0.0281 -0.7204
 2852TIP3   OH2 8561   2.398   3.146   2.967 -0.0352  0.7504 -0.2896
 2852TIP3    H1 8562   2.343   3.080   2.925  1.6952 -0.4232 -0.7929
 2852TIP3    H2 8563   2.459   3.174   2.899 -0.1199  2.1825  0.1935
 2853TIP3   OH2 8564   6.347   1.958   5.027  0.4503 -0.5464 -0.3251
 2853TIP3    H1 8565   6.391   2.027   5.077 -1.1248  1.4093 -1.4802
 2853TIP3    H2 8566   6.271   1.935   5.081  0.1876 -0.3121 -0.5874
 2854TIP3   OH2 8567   1.802   0.734   3.654  0.0656 -0.0190 -0.2375
 2854TIP3    H1 8568   1.832   0.647   3.626  2.2901  0.9673 -1.1051
 2854TIP3    H2 8569   1.802   0.730   3.750 -1.1967 -1.3680 -0.2565
 2855TIP3   OH2 8570   0.355   0.933   4.752 -0.3940 -0.1192 -0.2995
 2855TIP3    H1 8571   0.295   0.887   4.694  1.5466 -2.6137 -0.4622
 2855TIP3    H2 8572   0.339   0.896   4.838 -0.8877  1.1166  0.1621
 2856TIP3   OH2 8573   3.111   5.980   0.693  0.0989 -0.4078 -0.4742
 2856TIP3    H1 8574   3.149   5.974   0.781  0.8339  0.9120 -0.6657
 2856TIP3    H2 8575   3.018   5.964   0.706  0.0742  0.5317  0.6776
 2857TIP3   OH2 8576   3.232   2.037   4.981 -0.6093 -0.5307  0.8160
 2857TIP3    H1 8577   3.255   2.052   5.073  0.2666 -0.1356  0.5439
 2857TIP3    H2 8578   3.179   2.113   4.957  1.6545  0.9538  0.1780
 2858TIP3   OH2 8579   6.196   3.748   1.567 -0.1213 -0.4549  0.0881
 2858TIP3    H1 8580   6.179   3.659   1.597  1.5809 -0.2006  2.0456
 2858TIP3    H2 8581   6.285   3.767   1.597  0.1662  1.3626 -1.6666
 2859TIP3   OH2 8582   3.104   5.037   0.427 -0.3205  0.3880 -0.3282
 2859TIP3    H1 8583   3.178   4.987   0.462  0.2602 -0.0619 -2.0947
 2859TIP3    H2 8584   3.103   5.118   0.478  2.0164  0.8148 -0.8498
 2860TIP3   OH2 8585   5.424   3.697   4.494 -0.6049 -0.2348  0.4478
 2860TIP3    H1 8586   5.459   3.611   4.515 -0.7431 -0.7270 -1.2186
 2860TIP3    H2 8587   5.451   3.753   4.567  0.9309 -1.3026  0.7307
 2861TIP3   OH2 8588   4.621   0.640   4.284  0.1238  0.3014  0.3492
 2861TIP3    H1 8589   4.607   0.594   4.367 -2.1692 -1.2403 -0.7698
 2861TIP3    H2 8590   4.558   0.712   4.286  1.8231  1.8582  0.9346
 2862TIP3   OH2 8591   0.274   5.827   0.897 -0.1703  0.0924  0.0433
 2862TIP3    H1 8592   0.219   5.903   0.881 -0.6565 -0.0205  1.0983
 2862TIP3    H2 8593   0.214   5.762   0.934 -0.1439 -1.4224 -2.3205
 2863TIP3   OH2 8594   0.693   3.161   4.635 -0.4340 -0.3495 -0.0508
 2863TIP3    H1 8595   0.719   3.133   4.723  1.4385  0.1223 -0.4254
 2863TIP3    H2 8596   0.656   3.083   4.595 -0.4614 -0.8048  0.8366
 2864TIP3   OH2 8597   0.568   4.601   1.781  0.1847  0.1311 -0.3932
 2864TIP3    H1 8598   0.532   4.680   1.820  0.3089 -0.5373  1.1966
 2864TIP3    H2 8599   0.558   4.613   1.687  0.4697  2.1433 -0.2132
 2865TIP3   OH2 8600   0.506   2.023   5.058  0.1199  0.0977 -0.9708
 2865TIP3    H1 8601   0.502   2.118   5.044  0.8530  1.0614  3.6567
 2865TIP3    H2 8602   0.423   1.990   5.022 -0.8881  2.7226 -1.2687
 2866TIP3   OH2 8603   6.334   0.932   4.890 -0.4649  0.6645 -0.0454
 2866TIP3    H1 8604   6.367   0.979   4.966 -0.1968  0.0960  0.1995
 2866TIP3    H2 8605   6.259   0.882   4.923 -0.0124 -0.0120 -0.0168
 2867TIP3   OH2 8606   1.753   2.897   4.756  0.0326  0.3689 -0.1230
 2867TIP3    H1 8607   1.716   2.854   4.833  0.5496 -0.5035 -0.3540
 2867TIP3    H2 8608   1.729   2.990   4.767  1.2259  0.5046  1.7403
 2868TIP3   OH2 8609   1.852   0.928   2.519 -0.1489 -0.3015 -0.1699
 2868TIP3    H1 8610   1.942   0.938   2.551 -0.1527  1.5418 -0.6178
 2868TIP3    H2 8611   1.799   0.924   2.599  0.2466 -0.4155  0.0942
 2869TIP3   OH2 8612   5.213   5.694   4.654  0.3026 -0.1417 -0.1698
 2869TIP3    H1 8613   5.272   5.667   4.584 -0.0222 -0.8827 -0.1619
 2869TIP3    H2 8614   5.153   5.756   4.612  1.8612  1.6442  0.1115
 2870TIP3   OH2 8615   0.255   1.768   0.729 -0.4016 -0.0874  0.0186
 2870TIP3    H1 8616   0.342   1.774   0.690 -0.2141 -0.2317  0.4131
 2870TIP3    H2 8617   0.204   1.837   0.685  0.2066  0.7226  0.5526
 2871TIP3   OH2 8618   5.416   3.604   1.019  0.0723  0.0316  0.2249
 2871TIP3    H1 8619   5.488   3.644   0.969  0.1928 -0.3404  0.0976
 2871TIP3    H2 8620   5.355   3.574   0.952 -0.1177  0.1857  0.3280
 2872TIP3   OH2 8621   1.622   0.163   2.767  0.2222  0.4674  0.0197
 2872TIP3    H1 8622   1.700   0.127   2.725 -0.2301  0.2178 -0.6186
 2872TIP3    H2 8623   1.656   0.219   2.837  0.9492 -0.6205  0.5607
 2873TIP3   OH2 8624   3.839   4.073   4.214  0.2614  0.2638 -0.0779
 2873TIP3    H1 8625   3.792   3.996   4.245  0.0680 -0.6765 -2.5150
 2873TIP3    H2 8626   3.771   4.138   4.198  0.4297  1.0590  2.0369
 2874TIP3   OH2 8627   6.258   4.189   3.029  1.0612  0.1586 -0.1597
 2874TIP3    H1 8628   6.298   4.114   3.073  0.6823  0.2826  0.4033
 2874TIP3    H2 8629   6.173   4.199   3.070  0.7884  0.4235 -0.7707
 2875TIP3   OH2 8630   5.032   1.544   2.626  0.3395  0.1746 -0.2451
 2875TIP3    H1 8631   5.087   1.517   2.552 -0.4348  1.1230 -1.2035
 2875TIP3    H2 8632   4.972   1.470   2.639 -0.8390  0.7604 -1.9202
 2876TIP3   OH2 8633   2.797   1.376   4.731  0.0279  0.2622  0.4705
 2876TIP3    H1 8634   2.731   1.360   4.663  2.7855  0.7589 -2.5754
 2876TIP3    H2 8635   2.814   1.289   4.768 -1.6272 -0.0088  0.6634
 2877TIP3   OH2 8636   0.820   0.480   2.175  0.1742  0.0416 -0.2625
 2877TIP3    H1 8637   0.879   0.533   2.230  1.0965  0.2248 -1.4017
 2877TIP3    H2 8638   0.868   0.398   2.161  0.7020  0.6425 -2.1605
 2878TIP3   OH2 8639   0.513   1.147   1.194 -0.0134 -0.0481 -0.0346
 2878TIP3    H1 8640   0.549   1.129   1.107  0.0544 -1.2164  0.2154
 2878TIP3    H2 8641   0.570   1.097   1.253  1.3684  2.5130  0.9381
 2879TIP3   OH2 8642   4.804   3.561   0.504  0.4600  0.2357  0.1022
 2879TIP3    H1 8643   4.816   3.648   0.540  0.6843  0.8683 -1.4318
 2879TIP3    H2 8644   4.878   3.550   0.443 -0.0115 -0.6926 -0.3242
 2880TIP3   OH2 8645   5.741   4.729   4.990 -0.3874 -0.3215  0.1064
 2880TIP3    H1 8646   5.770   4.705   5.078  0.7121  0.2155 -0.0894
 2880TIP3    H2 8647   5.666   4.672   4.972  1.2002 -2.5723  0.2297
 2881TIP3   OH2 8648   2.835   2.408   2.333  0.1124 -0.3155 -0.2894
 2881TIP3    H1 8649   2.839   2.328   2.385  1.5166  0.2159  0.4440
 2881TIP3    H2 8650   2.926   2.432   2.317 -0.2830  0.6154 -1.3344
 2882TIP3   OH2 8651   0.248   5.378   4.665  0.1219 -0.6059  0.2010
 2882TIP3    H1 8652   0.271   5.372   4.573 -2.1396  0.5275 -0.5188
 2882TIP3    H2 8653   0.298   5.452   4.698  1.2826 -1.2923  0.0413
 2883TIP3   OH2 8654   0.096   4.952   3.688  0.3441  0.2076 -0.0420
 2883TIP3    H1 8655   0.001   4.948   3.681  0.2359  1.9217  0.0044
 2883TIP3    H2 8656   0.117   4.897   3.764 -0.5596 -0.5327 -0.3229
 2884TIP3   OH2 8657   5.157   0.666   1.550  0.1757 -0.1998 -0.3963
 2884TIP3    H1 8658   5.205   0.589   1.581  0.1410 -0.4564 -0.9609
 2884TIP3    H2 8659   5.065   0.641   1.555  0.0729  0.4057  0.9834
 2885TIP3   OH2 8660   4.296   4.746   4.222 -0.1989 -0.3659 -0.2171
 2885TIP3    H1 8661   4.369   4.725   4.163 -0.0138 -1.9054  0.5004
 2885TIP3    H2 8662   4.258   4.826   4.187 -0.5223 -1.5689 -2.8434
 2886TIP3   OH2 8663   4.051   2.463   2.943 -0.1748  0.1604  0.1735
 2886TIP3    H1 8664   4.115   2.454   3.014 -1.1171 -0.6452  0.9647
 2886TIP3    H2 8665   4.023   2.555   2.948  2.6541  1.2668 -1.7980
 2887TIP3   OH2 8666   4.895   1.022   1.172  0.2318 -0.3705 -0.7901
 2887TIP3    H1 8667   4.818   1.062   1.211  0.9333  2.3353 -1.9793
 2887TIP3    H2 8668   4.877   1.021   1.078  0.8349 -1.6608 -0.9204
 2888TIP3   OH2 8669   5.321   3.582   0.341 -0.3822 -0.2457 -0.6532
 2888TIP3    H1 8670   5.408   3.586   0.302  0.0014 -1.1303  0.0796
 2888TIP3    H2 8671   5.300   3.488   0.342 -1.0695 -0.0916 -0.2269
 2889TIP3   OH2 8672   2.582   5.403   3.520  0.0493 -0.2101  0.0264
 2889TIP3    H1 8673   2.536   5.467   3.465 -1.0837 -0.5590  0.5411
 2889TIP3    H2 8674   2.652   5.370   3.464  0.6568  1.4582 -0.2581
 2890TIP3   OH2 8675   5.622   1.941   2.002 -0.4304 -0.0847  0.3944
 2890TIP3    H1 8676   5.563   1.877   1.961  0.9044 -0.6109 -0.8075
 2890TIP3    H2 8677   5.646   2.001   1.931 -0.2962  0.7090  1.0938
 2891TIP3   OH2 8678   1.589   0.027   0.850 -0.1892 -0.1221  0.0656
 2891TIP3    H1 8679   1.511   0.037   0.794 -0.3131 -0.5090  0.1638
 2891TIP3    H2 8680   1.557   0.037   0.939 -0.4853 -2.1417  0.2322
 2892TIP3   OH2 8681   5.049   3.867   1.327 -0.0456  0.0458 -0.2516
 2892TIP3    H1 8682   5.072   3.960   1.328 -0.6861  0.3667  4.2857
 2892TIP3    H2 8683   5.084   3.835   1.244 -1.7142  4.6923 -3.1220
 2893TIP3   OH2 8684   0.291   5.526   2.663 -0.1203 -0.1126 -0.0663
 2893TIP3    H1 8685   0.291   5.568   2.749 -2.2849 -0.7828  0.3219
 2893TIP3    H2 8686   0.215   5.564   2.618  0.6092 -0.2409 -1.4540
 2894TIP3   OH2 8687   5.851   5.645   3.290  0.4349 -0.1480  0.0430
 2894TIP3    H1 8688   5.798   5.572   3.321  0.0143  0.6476  1.2985
 2894TIP3    H2 8689   5.805   5.676   3.212  0.5946 -1.1703 -0.4738
 2895TIP3   OH2 8690   2.454   4.054   4.674  0.8425  0.4295 -0.6654
 2895TIP3    H1 8691   2.403   4.125   4.634  0.1326  1.2269  1.5030
 2895TIP3    H2 8692   2.406   3.974   4.652  0.4742  0.8345 -1.3655
 2896TIP3   OH2 8693   2.340   3.273   1.134  0.1691  0.0141 -0.2516
 2896TIP3    H1 8694   2.343   3.193   1.187  1.2102  0.9747  1.2034
 2896TIP3    H2 8695   2.397   3.254   1.059  1.7207 -0.0914  0.9022
 2897TIP3   OH2 8696   4.093   3.192   1.329 -0.4739  0.1190 -0.1128
 2897TIP3    H1 8697   4.186   3.195   1.353 -0.5084  0.9019 -0.0511
 2897TIP3    H2 8698   4.056   3.122   1.383  0.0452 -0.0781 -0.0078
 2898TIP3   OH2 8699   3.238   2.960   0.438 -0.3084 -0.2370 -0.2935
 2898TIP3    H1 8700   3.182   3.036   0.454  1.4693  0.8456  1.1592
 2898TIP3    H2 8701   3.216   2.899   0.508 -0.7897 -0.5011 -0.6708
 2899TIP3   OH2 8702   1.078   2.366   2.947 -0.1842 -0.2004 -0.2182
 2899TIP3    H1 8703   1.022   2.390   2.873 -1.1676 -1.1020  0.2139
 2899TIP3    H2 8704   1.163   2.403   2.925 -0.2709 -1.0197 -2.1277
 2900TIP3   OH2 8705   2.908   0.822   5.146  0.4776  0.9085 -0.0300
 2900TIP3    H1 8706   2.925   0.733   5.178 -1.9579  1.0628  1.9196
 2900TIP3    H2 8707   2.830   0.814   5.092  0.4852  1.8012 -0.1869
 2901TIP3   OH2 8708   0.521   0.649   2.838 -0.1039 -0.3468 -0.2444
 2901TIP3    H1 8709   0.556   0.679   2.754  2.3908 -0.0140  0.8286
 2901TIP3    H2 8710   0.538   0.555   2.839  0.1234 -0.3046 -0.0059
 2902TIP3   OH2 8711   0.289   3.103   0.814  0.6473 -0.2452 -0.0435
 2902TIP3    H1 8712   0.266   3.137   0.901 -1.9469 -0.6165 -0.5231
 2902TIP3    H2 8713   0.347   3.170   0.777  0.5539  0.6581  1.3729
 2903TIP3   OH2 8714   5.711   5.718   0.229 -0.5095  0.4884 -0.0682
 2903TIP3    H1 8715   5.719   5.697   0.322  0.5391  1.6949  0.1297
 2903TIP3    H2 8716   5.639   5.662   0.199 -0.6301 -0.1903  1.3717
 2904TIP3   OH2 8717   0.149   2.254   3.982  0.2155  0.4165 -0.1974
 2904TIP3    H1 8718   0.057   2.273   3.998  0.0482  0.2833 -0.9758
 2904TIP3    H2 8719   0.160   2.164   4.014 -0.8247 -0.9607 -3.3135
 2905TIP3   OH2 8720   0.069   2.858   0.966 -0.1381 -0.0007  0.3235
 2905TIP3    H1 8721   0.102   2.923   1.028  0.1958 -0.9259  1.1536
 2905TIP3    H2 8722   0.019   2.909   0.902  2.4902  1.4297 -0.7581
 2906TIP3   OH2 8723   4.483   0.732   3.708  0.1892 -0.0330 -0.1165
 2906TIP3    H1 8724   4.421   0.805   3.705  0.3839  0.1463  0.2338
 2906TIP3    H2 8725   4.524   0.739   3.794 -0.2759 -0.9542  0.1950
 2907TIP3   OH2 8726   3.389   4.807   4.758  0.3822 -0.0698 -0.1364
 2907TIP3    H1 8727   3.346   4.724   4.778  1.2164 -0.2316  1.0726
 2907TIP3    H2 8728   3.467   4.783   4.708 -0.6810  0.1973 -2.0137
 2908TIP3   OH2 8729   4.427   3.326   2.711 -0.0426 -0.0419  0.5025
 2908TIP3    H1 8730   4.334   3.351   2.706 -0.1008 -0.4224 -1.1607
 2908TIP3    H2 8731   4.468   3.396   2.761 -1.5570 -0.9784  3.2831
 2909TIP3   OH2 8732   4.168   1.305   3.914  0.0346 -0.2192  0.3231
 2909TIP3    H1 8733   4.232   1.376   3.913 -0.0921 -0.1022 -0.4242
 2909TIP3    H2 8734   4.169   1.272   4.004  0.6588  0.2145  0.4785
 2910TIP3   OH2 8735   4.787   5.943   1.606 -0.2603  0.2979 -0.0198
 2910TIP3    H1 8736   4.823   5.856   1.619 -1.6112 -0.1356  1.1136
 2910TIP3    H2 8737   4.718   5.932   1.540  0.3273  0.7501 -0.7337
 2911TIP3   OH2 8738   1.681   2.656   3.631  0.0358  0.1135  0.3436
 2911TIP3    H1 8739   1.729   2.708   3.566 -0.5017 -1.6373 -1.5783
 2911TIP3    H2 8740   1.629   2.595   3.579 -2.0371 -0.0433  2.4100
 2912TIP3   OH2 8741   4.605   4.301   2.988 -0.4135  0.1772 -0.5837
 2912TIP3    H1 8742   4.558   4.384   2.999 -0.9419 -0.0024 -1.3745
 2912TIP3    H2 8743   4.693   4.327   2.959 -1.0707  0.4473 -2.4934
 2913TIP3   OH2 8744   0.623   1.382   4.203 -0.0620 -0.1287  0.0953
 2913TIP3    H1 8745   0.712   1.351   4.187  0.4385  0.8064  0.9188
 2913TIP3    H2 8746   0.581   1.381   4.117  1.0498  0.3124 -0.4768
 2914TIP3   OH2 8747   3.198   2.942   0.039 -0.5012  0.1022  0.3749
 2914TIP3    H1 8748   3.262   2.937  -0.032 -0.0446  0.2623  0.7738
 2914TIP3    H2 8749   3.232   3.010   0.097  0.1186 -1.3399  1.7413
 2915TIP3   OH2 8750   3.463   1.773   5.117  0.0390 -0.0770 -0.3184
 2915TIP3    H1 8751   3.467   1.862   5.153 -2.0529 -0.4037  0.9054
 2915TIP3    H2 8752   3.517   1.721   5.177 -0.5465  0.0015  0.2904
 2916TIP3   OH2 8753   0.001   4.840   2.138 -0.0720 -0.0899 -0.1064
 2916TIP3    H1 8754  -0.023   4.770   2.078 -2.4268 -2.0792  2.8635
 2916TIP3    H2 8755   0.093   4.824   2.159 -0.5087 -2.2552  0.3572
 2917TIP3   OH2 8756   0.929   1.085   2.539 -0.1010 -0.0273 -0.0304
 2917TIP3    H1 8757   1.024   1.078   2.554  0.0968  0.3491 -1.0240
 2917TIP3    H2 8758   0.910   1.178   2.553 -0.0173  0.2181 -1.4025
 2918TIP3   OH2 8759   4.824   2.493   2.790  0.2439  0.3807  0.1047
 2918TIP3    H1 8760   4.866   2.412   2.820  0.5649  0.9235  1.1788
 2918TIP3    H2 8761   4.873   2.563   2.832 -1.3886  1.0594  0.9847
 2919TIP3   OH2 8762   3.641   2.830   1.177 -0.1162  0.4248 -0.4991
 2919TIP3    H1 8763   3.614   2.864   1.263 -0.2821  1.3961 -0.9233
 2919TIP3    H2 8764   3.683   2.746   1.197  1.1688  1.3033  0.6860
 2920TIP3   OH2 8765   1.609   1.738   2.387  0.0116  0.2716  0.5009
 2920TIP3    H1 8766   1.698   1.708   2.406  0.0685 -0.5455 -0.9414
 2920TIP3    H2 8767   1.553   1.685   2.444  0.3043 -0.7708 -0.1572
 2921TIP3   OH2 8768   2.549   4.891   1.971 -0.3654  0.0616  0.2148
 2921TIP3    H1 8769   2.532   4.836   2.048 -1.3830 -0.0681 -0.0928
 2921TIP3    H2 8770   2.638   4.923   1.984  0.3288 -1.7864  0.3466
 2922TIP3   OH2 8771  -0.013   3.395   1.001  0.1049 -0.1752  0.7499
 2922TIP3    H1 8772   0.074   3.357   1.009  0.4998  0.0828 -1.4773
 2922TIP3    H2 8773  -0.021   3.455   1.075  1.4991 -0.8060  1.4329
 2923TIP3   OH2 8774   0.678   5.686   1.366  0.0246 -0.3888 -0.5267
 2923TIP3    H1 8775   0.690   5.769   1.412 -0.7019 -0.5074 -0.1129
 2923TIP3    H2 8776   0.736   5.692   1.290 -0.5025  0.7634 -0.8584
 2924TIP3   OH2 8777   5.200   5.351   0.606 -0.2188 -0.2792 -0.1349
 2924TIP3    H1 8778   5.136   5.340   0.537 -0.4514  1.3154 -0.1991
 2924TIP3    H2 8779   5.148   5.362   0.686 -0.0100  0.2501 -0.0706
 2925TIP3   OH2 8780   5.252   0.412   1.626  0.3494  0.1468  0.1815
 2925TIP3    H1 8781   5.230   0.395   1.717  0.9629 -0.4742  0.2200
 2925TIP3    H2 8782   5.348   0.411   1.623  0.3442  0.5056 -0.4047
 2926TIP3   OH2 8783   3.637   5.501   3.091 -0.0660 -0.7424  0.0185
 2926TIP3    H1 8784   3.616   5.510   2.998 -1.1569 -0.1475  0.2975
 2926TIP3    H2 8785   3.657   5.408   3.103  1.5984 -0.5708 -1.0822
 2927TIP3   OH2 8786   5.257   1.496   3.730  0.6838  0.0611 -0.0883
 2927TIP3    H1 8787   5.203   1.420   3.752  1.3134 -0.3691  0.0149
 2927TIP3    H2 8788   5.228   1.565   3.790  0.1894 -0.1339 -0.0984
 2928TIP3   OH2 8789   1.723   2.233   0.925  0.6005  0.2772  0.8707
 2928TIP3    H1 8790   1.744   2.231   1.018 -1.1587  0.4693  1.3154
 2928TIP3    H2 8791   1.628   2.224   0.922  0.7551 -1.6373 -1.0005
 2929TIP3   OH2 8792   4.232   5.646   4.760 -0.1389 -0.1097 -0.3462
 2929TIP3    H1 8793   4.168   5.715   4.743 -2.1237 -1.7999 -0.1272
 2929TIP3    H2 8794   4.199   5.601   4.839  0.7689 -1.6450 -0.7879
 2930TIP3   OH2 8795   2.074   2.962   2.709 -0.0028 -0.1859 -0.1365
 2930TIP3    H1 8796   2.100   3.039   2.760 -1.5543  0.5266 -0.3952
 2930TIP3    H2 8797   2.151   2.943   2.655  0.2651  1.4252 -0.3769
 2931TIP3   OH2 8798   3.268   0.584   0.608  0.2789  0.2853 -0.2547
 2931TIP3    H1 8799   3.336   0.531   0.565 -0.3477 -3.0987  2.4608
 2931TIP3    H2 8800   3.316   0.633   0.676  0.5042  1.1406 -1.0171
 2932TIP3   OH2 8801   4.377   0.836   3.046 -0.6181  0.1583  0.0718
 2932TIP3    H1 8802   4.472   0.824   3.046 -0.6401 -0.0640  0.6982
 2932TIP3    H2 8803   4.360   0.887   3.124 -1.1392 -0.8910  0.6641
 2933TIP3   OH2 8804   1.999   4.016   2.213 -0.0613  0.0806  0.1229
 2933TIP3    H1 8805   2.040   3.939   2.174 -0.1571  0.3345 -0.4997
 2933TIP3    H2 8806   2.022   4.012   2.306  0.7106 -0.1908 -0.0761
 2934TIP3   OH2 8807   3.136   4.218   4.217 -0.0804 -0.1400 -0.0118
 2934TIP3    H1 8808   3.069   4.286   4.229  0.4190  0.5353 -0.8746
 2934TIP3    H2 8809   3.087   4.136   4.215 -0.6973  0.1764  1.1039
 2935TIP3   OH2 8810   5.478   1.725   5.117 -0.9477  0.0816 -0.0835
 2935TIP3    H1 8811   5.513   1.644   5.155 -0.9231  0.7793  1.4812
 2935TIP3    H2 8812   5.400   1.745   5.169 -1.3527  0.7020 -0.8982
 2936TIP3   OH2 8813   0.082   4.363   4.965 -0.6794 -0.0239  0.4555
 2936TIP3    H1 8814   0.010   4.300   4.958 -0.9480  0.3914 -0.7430
 2936TIP3    H2 8815   0.040   4.443   4.995 -1.0226  0.6467 -1.6437
 2937TIP3   OH2 8816   0.027   0.958   3.657  0.7558  0.1056  0.1353
 2937TIP3    H1 8817  -0.009   0.884   3.610 -0.1111  0.2972  0.4684
 2937TIP3    H2 8818  -0.016   0.956   3.742  2.1148 -0.0996  0.8559
 2938TIP3   OH2 8819   4.927   5.830   0.399  0.2867  0.8120  0.2685
 2938TIP3    H1 8820   4.992   5.866   0.338 -0.3328 -0.0408 -0.9359
 2938TIP3    H2 8821   4.973   5.758   0.442  1.3993  2.6565  2.3930
 2939TIP3   OH2 8822   1.036   5.700   1.243  0.2526 -0.3608  0.2260
 2939TIP3    H1 8823   1.082   5.673   1.163  0.8491  1.7351 -0.2224
 2939TIP3    H2 8824   0.954   5.737   1.211 -0.3032 -1.1046  0.7590
 2940TIP3   OH2 8825  -0.002   0.724   1.053  0.5647  0.3524  0.8552
 2940TIP3    H1 8826  -0.021   0.795   1.114  1.8895  0.7855  0.8062
 2940TIP3    H2 8827   0.045   0.767   0.981 -0.8529 -0.1642 -0.4232
 2941TIP3   OH2 8828   2.831   2.985   1.659 -0.2618 -0.0796 -0.5481
 2941TIP3    H1 8829   2.875   3.062   1.695 -0.8145  1.2604 -2.5535
 2941TIP3    H2 8830   2.890   2.912   1.677  1.3071  1.1690 -0.4688
 2942TIP3   OH2 8831   5.813   3.523   2.902  0.1053 -0.7847  0.8596
 2942TIP3    H1 8832   5.805   3.450   2.841 -1.4814  0.4202 -0.4852
 2942TIP3    H2 8833   5.873   3.583   2.859 -0.7998 -0.0565  0.5738
 2943TIP3   OH2 8834   4.246   4.558   0.736  0.1314  0.2723  0.3019
 2943TIP3    H1 8835   4.188   4.601   0.672  0.6325  0.4972 -0.0027
 2943TIP3    H2 8836   4.318   4.524   0.683 -0.3288 -1.0988  0.5077
 2944TIP3   OH2 8837   5.279   0.017   2.553  0.4570 -0.0711  0.7779
 2944TIP3    H1 8838   5.226   0.096   2.569  1.2159  0.3250  1.4138
 2944TIP3    H2 8839   5.229  -0.054   2.594  0.5373  0.3465  1.6254
 2945TIP3   OH2 8840   2.891   6.021   0.207 -0.1067 -0.0102 -0.5422
 2945TIP3    H1 8841   2.913   6.006   0.298 -0.9843  0.6714 -0.1979
 2945TIP3    H2 8842   2.857   5.937   0.176  1.7929 -0.7414 -0.7683
 2946TIP3   OH2 8843   3.745   3.367   1.610  0.5123  0.2985 -0.3706
 2946TIP3    H1 8844   3.669   3.323   1.649  0.0415  0.7315 -0.7757
 2946TIP3    H2 8845   3.820   3.330   1.655 -0.0254  0.9893  1.1504
 2947TIP3   OH2 8846   2.300   0.381   3.089 -0.5017  0.5132  0.3593
 2947TIP3    H1 8847   2.288   0.329   3.009  3.1993 -0.1377  0.0613
 2947TIP3    H2 8848   2.320   0.469   3.057 -2.6608  1.2006  0.7570
 2948TIP3   OH2 8849   3.052   1.297   1.612 -0.0643 -0.1917  0.4749
 2948TIP3    H1 8850   2.984   1.306   1.545  1.7680  1.6340 -1.3137
 2948TIP3    H2 8851   3.010   1.326   1.693 -1.9494 -1.0231 -0.1506
 2949TIP3   OH2 8852   4.766   4.190   2.647  0.2194  0.0278  0.4939
 2949TIP3    H1 8853   4.780   4.279   2.613  0.7472 -1.1813 -2.9299
 2949TIP3    H2 8854   4.842   4.175   2.704 -0.0030  1.8120  1.3422
 2950TIP3   OH2 8855   2.511   2.595   0.954  0.4280  0.1657  0.3981
 2950TIP3    H1 8856   2.483   2.627   0.868 -0.3011  0.0860  0.5971
 2950TIP3    H2 8857   2.447   2.632   1.015 -0.0731 -1.1562  0.7082
 2951TIP3   OH2 8858   3.916   0.129   2.778  0.0702 -0.1555  0.0434
 2951TIP3    H1 8859   3.856   0.054   2.774 -0.9571  0.7007 -1.5416
 2951TIP3    H2 8860   3.869   0.200   2.735  2.1086  0.6377 -1.0363
 2952TIP3   OH2 8861   0.171   5.322   2.277 -0.2216 -0.1564  0.3109
 2952TIP3    H1 8862   0.092   5.271   2.258 -0.1635  0.1146 -0.7156
 2952TIP3    H2 8863   0.141   5.392   2.336 -0.2951 -1.3527  1.7541
 2953TIP3   OH2 8864   1.649   0.961   4.530 -0.5050 -0.2247 -0.7067
 2953TIP3    H1 8865   1.621   0.957   4.622 -0.7709  0.5537 -0.7483
 2953TIP3    H2 8866   1.739   0.992   4.533 -0.0245 -1.5604 -0.6420
 2954TIP3   OH2 8867   3.259   3.739   0.552  0.2989 -0.1215 -0.6234
 2954TIP3    H1 8868   3.290   3.715   0.639  1.2252  3.6395  0.2773
 2954TIP3    H2 8869   3.166   3.714   0.551  0.0595  0.4664  1.7931
 2955TIP3   OH2 8870   0.740   3.242   0.745 -0.3321 -0.5644  0.8815
 2955TIP3    H1 8871   0.721   3.270   0.655  0.3779 -0.3184  0.7982
 2955TIP3    H2 8872   0.699   3.156   0.752 -0.7834 -0.3926  0.4686
 2956TIP3   OH2 8873   4.367   5.531   4.059  0.4903 -0.1092  0.5610
 2956TIP3    H1 8874   4.286   5.574   4.030  0.4168 -1.3009 -1.1161
 2956TIP3    H2 8875   4.337   5.458   4.112  0.5903  1.1153  2.3991
 2957TIP3   OH2 8876   1.538   1.625   1.486 -0.5537  0.4940  0.2296
 2957TIP3    H1 8877   1.489   1.689   1.538 -1.6936  0.8005 -1.1611
 2957TIP3    H2 8878   1.626   1.663   1.478 -0.3700  0.4696  1.8281
 2958TIP3   OH2 8879   1.363   2.948   2.340 -0.2752 -0.0320 -0.3672
 2958TIP3    H1 8880   1.368   2.906   2.425  0.0976 -1.2831 -0.9828
 2958TIP3    H2 8881   1.276   2.988   2.338 -0.1169  0.4168  0.7604
 2959TIP3   OH2 8882   4.611   2.471   3.963 -0.6251  0.2568  0.3436
 2959TIP3    H1 8883   4.588   2.560   3.938  0.8167  0.6464  0.2890
 2959TIP3    H2 8884   4.616   2.473   4.058 -1.2943  0.0474  0.3835
 2960TIP3   OH2 8885   1.463   1.441   0.447 -0.0636  0.4749  0.5911
 2960TIP3    H1 8886   1.392   1.468   0.506  1.0104  0.9945  1.6771
 2960TIP3    H2 8887   1.485   1.352   0.475 -1.4697 -0.4165 -0.9375
 2961TIP3   OH2 8888   4.925   3.563   2.421  0.0419  0.1559  0.1298
 2961TIP3    H1 8889   4.979   3.512   2.482  2.5608  0.3284 -1.8141
 2961TIP3    H2 8890   4.897   3.499   2.356 -1.1523  0.3126  0.4748
 2962TIP3   OH2 8891   5.236   4.085   0.555  0.1300  0.1382  0.3002
 2962TIP3    H1 8892   5.326   4.115   0.571 -0.5716  2.1674  0.7283
 2962TIP3    H2 8893   5.244   4.027   0.479  1.5407  2.1789 -1.2418
 2963TIP3   OH2 8894   2.841   2.632   0.784 -0.2175 -0.2096 -0.1900
 2963TIP3    H1 8895   2.755   2.612   0.821 -0.6693  0.9778 -0.5540
 2963TIP3    H2 8896   2.892   2.552   0.797 -1.0446 -0.5763  0.9751
 2964TIP3   OH2 8897   4.997   4.862   1.921  0.3375 -0.4489  0.5394
 2964TIP3    H1 8898   5.037   4.807   1.854 -0.1376  1.1511 -1.1531
 2964TIP3    H2 8899   4.903   4.845   1.913  0.0985  1.1606 -0.6164
 2965TIP3   OH2 8900   0.890   2.835   1.638  0.4797  0.3700 -0.9891
 2965TIP3    H1 8901   0.943   2.768   1.681  1.7804  1.3928 -0.9356
 2965TIP3    H2 8902   0.952   2.906   1.619 -0.9706  1.8483 -0.4423
 2966TIP3   OH2 8903   3.869   1.584   3.350 -0.0748  0.3590  0.5785
 2966TIP3    H1 8904   3.839   1.632   3.427  0.9822  0.6756  0.8175
 2966TIP3    H2 8905   3.929   1.517   3.385 -1.9412 -1.5634  0.3172
 2967TIP3   OH2 8906   3.177   2.497   4.034 -0.0330  0.7522 -0.0738
 2967TIP3    H1 8907   3.145   2.422   4.085 -0.1064  0.6978 -0.2013
 2967TIP3    H2 8908   3.099   2.548   4.014 -0.2831 -0.2178 -1.7700
 2968TIP3   OH2 8909   0.317   3.809   2.946  0.5871 -0.2426 -0.2362
 2968TIP3    H1 8910   0.350   3.720   2.933  0.4481 -0.4055  0.5058
 2968TIP3    H2 8911   0.222   3.800   2.943  0.5549  0.2242 -2.3447
 2969TIP3   OH2 8912   1.005   4.996   1.343 -0.2013  0.4265 -1.0691
 2969TIP3    H1 8913   0.992   5.072   1.398 -0.3633 -0.5533  0.2987
 2969TIP3    H2 8914   0.923   4.946   1.350  0.4231 -0.5890 -0.7676
 2970TIP3   OH2 8915   2.476   3.270   3.534  0.1025 -0.4884  0.7975
 2970TIP3    H1 8916   2.516   3.281   3.447 -0.2246  0.6350  0.7736
 2970TIP3    H2 8917   2.383   3.258   3.516  0.2478 -1.9038  0.9178
 2971TIP3   OH2 8918   0.652   1.955   3.240 -0.5489  0.6304  0.3970
 2971TIP3    H1 8919   0.717   1.934   3.173 -0.1534  1.8982  0.3622
 2971TIP3    H2 8920   0.682   1.907   3.317 -2.5094 -3.1556 -0.9277
 2972TIP3   OH2 8921   4.278   3.264   1.959 -0.4934 -0.1070 -0.8281
 2972TIP3    H1 8922   4.315   3.216   2.033  0.0542  0.1468 -0.9346
 2972TIP3    H2 8923   4.196   3.301   1.992 -0.4160 -0.2712 -0.4537
 2973TIP3   OH2 8924   3.455   2.207   2.412  0.2005 -0.2758 -0.2910
 2973TIP3    H1 8925   3.394   2.248   2.473  0.1298 -0.2505 -0.3776
 2973TIP3    H2 8926   3.535   2.259   2.419  0.5981 -0.9810  0.6503
 2974TIP3   OH2 8927   1.334   5.212   1.483 -0.0862  0.6564 -0.3223
 2974TIP3    H1 8928   1.347   5.184   1.392  1.7093 -0.6673  0.2760
 2974TIP3    H2 8929   1.404   5.275   1.499  0.3755 -0.0322  0.4633
 2975TIP3   OH2 8930   1.732   0.034   4.263 -0.2852  0.2661 -0.0338
 2975TIP3    H1 8931   1.781  -0.046   4.243 -1.3000 -0.2192 -0.6578
 2975TIP3    H2 8932   1.660   0.034   4.200 -0.3795  1.6048  0.0599
 2976TIP3   OH2 8933   5.368   0.321   3.454  0.3730 -0.8322  0.1609
 2976TIP3    H1 8934   5.307   0.360   3.516 -1.4371 -1.1848 -1.3195
 2976TIP3    H2 8935   5.414   0.254   3.504  0.3962  0.2029  1.5941
 2977TIP3   OH2 8936   1.727   0.485   0.268 -0.6449 -0.6508 -0.5855
 2977TIP3    H1 8937   1.773   0.552   0.217  0.7566 -0.8426  0.3568
 2977TIP3    H2 8938   1.722   0.410   0.209  2.7728 -1.5824  0.0453
 2978TIP3   OH2 8939   3.776   4.138   2.917 -0.5253 -0.4487 -0.6638
 2978TIP3    H1 8940   3.729   4.152   2.999 -2.5764  2.4807 -2.1378
 2978TIP3    H2 8941   3.834   4.214   2.910 -0.1148 -0.8443 -1.7678
 2979TIP3   OH2 8942   0.906   0.078   3.220 -0.0487 -0.1299 -0.0019
 2979TIP3    H1 8943   0.965   0.143   3.181 -0.9965 -0.1327 -1.5089
 2979TIP3    H2 8944   0.838   0.131   3.262  1.7561 -0.0653  3.1785
 2980TIP3   OH2 8945   4.926   1.756   3.316  0.1700 -0.1551  0.4897
 2980TIP3    H1 8946   4.882   1.701   3.251 -1.3734  3.1007 -1.4925
 2980TIP3    H2 8947   5.017   1.762   3.284  0.3580 -1.4814  0.7365
 2981TIP3   OH2 8948   4.790   0.682   4.947 -0.2287 -0.4695 -0.5695
 2981TIP3    H1 8949   4.827   0.767   4.969  2.4868 -1.5145 -0.7926
 2981TIP3    H2 8950   4.713   0.703   4.894  0.8923  1.8550 -1.4140
 2982TIP3   OH2 8951   3.087   4.893   2.731 -1.0728  0.6177  0.8640
 2982TIP3    H1 8952   3.146   4.933   2.666 -0.4937  1.0274  1.6291
 2982TIP3    H2 8953   3.038   4.827   2.681 -1.4219  1.6632 -0.2355
 2983TIP3   OH2 8954   3.216   1.937   3.261 -0.0251  0.5575  0.9704
 2983TIP3    H1 8955   3.297   1.977   3.230  0.4626 -1.0792 -0.0102
 2983TIP3    H2 8956   3.175   1.902   3.181 -2.1902  2.1366  1.2955
 2984TIP3   OH2 8957   1.136   5.885   0.710 -0.3711  0.5374 -0.0200
 2984TIP3    H1 8958   1.071   5.830   0.754  0.5963  0.7498  1.7457
 2984TIP3    H2 8959   1.200   5.823   0.676 -0.9203  0.3964 -0.8234
 2985TIP3   OH2 8960   1.740   2.933   4.393  0.2658  0.3967 -0.3426
 2985TIP3    H1 8961   1.661   2.947   4.445 -0.5494 -3.2807 -0.3655
 2985TIP3    H2 8962   1.798   2.882   4.449  1.9363  1.4663 -0.9944
 2986TIP3   OH2 8963   4.371   4.252   4.832 -0.2922 -0.3677  0.1892
 2986TIP3    H1 8964   4.310   4.183   4.855 -0.8339  0.4689  1.3217
 2986TIP3    H2 8965   4.318   4.332   4.831  0.9066  0.5020  2.0231
 2987TIP3   OH2 8966   2.248   2.360   3.584  0.0286  0.0516 -0.1868
 2987TIP3    H1 8967   2.341   2.343   3.572 -0.0245  0.9574 -2.1914
 2987TIP3    H2 8968   2.209   2.273   3.594  0.6054 -0.7360 -3.6058
 2988TIP3   OH2 8969   4.277   1.377   0.603  0.3599  0.0493  0.4456
 2988TIP3    H1 8970   4.347   1.393   0.666 -0.6512  2.5372  1.0455
 2988TIP3    H2 8971   4.212   1.326   0.652  0.8458 -0.5433  0.4909
 2989TIP3   OH2 8972   5.384   1.684   3.958  0.5651  0.3819  0.2979
 2989TIP3    H1 8973   5.456   1.671   4.020  0.2446 -2.9725  0.1286
 2989TIP3    H2 8974   5.422   1.741   3.890  2.7934 -0.5399  0.6760
 2990TIP3   OH2 8975   4.809   5.749   3.761  0.1982  0.0583 -0.0271
 2990TIP3    H1 8976   4.884   5.802   3.788 -1.5078  2.6633 -0.0930
 2990TIP3    H2 8977   4.847   5.662   3.745  3.3800  1.4356 -0.9482
 2991TIP3   OH2 8978   2.474   0.770   2.569  0.6479 -0.4195  0.3695
 2991TIP3    H1 8979   2.546   0.826   2.538 -0.2994  1.2754  1.0666
 2991TIP3    H2 8980   2.396   0.807   2.528 -0.1471 -0.5094  1.7418
 2992TIP3   OH2 8981   5.226   1.693   1.698 -0.6263  0.5209  0.1030
 2992TIP3    H1 8982   5.257   1.781   1.676  1.3834  0.3815  2.0531
 2992TIP3    H2 8983   5.281   1.635   1.646 -2.4086  0.3380 -1.7112
 2993TIP3   OH2 8984   1.092   2.562   3.954  0.1759 -0.4469 -0.6631
 2993TIP3    H1 8985   1.092   2.627   4.024  0.3379 -0.5835 -0.5327
 2993TIP3    H2 8986   1.185   2.552   3.931  0.3057 -1.6344  0.2727
 2994TIP3   OH2 8987   0.646   5.736   4.636  0.2664 -0.2260 -0.3108
 2994TIP3    H1 8988   0.646   5.677   4.560  2.8650 -2.2826  1.1014
 2994TIP3    H2 8989   0.737   5.763   4.645  0.1770 -0.5473  2.3811
 2995TIP3   OH2 8990   3.139   3.357   1.399 -0.7539  0.3289  0.1948
 2995TIP3    H1 8991   3.112   3.300   1.327 -1.2925  0.2175  0.4822
 2995TIP3    H2 8992   3.127   3.304   1.478  2.9464 -0.7939  0.2039
 2996TIP3   OH2 8993   0.623   5.808   2.477 -0.0249 -0.0099 -0.2971
 2996TIP3    H1 8994   0.567   5.770   2.409  0.4074 -1.5091  0.1529
 2996TIP3    H2 8995   0.578   5.788   2.559  0.5764 -0.1847 -0.0061
 2997TIP3   OH2 8996   4.150   2.298   0.260  0.3903 -0.2030  0.3440
 2997TIP3    H1 8997   4.091   2.372   0.246  1.0465  0.3899  0.6453
 2997TIP3    H2 8998   4.126   2.263   0.346 -1.9537 -2.2722 -1.0259
 2998TIP3   OH2 8999   6.235   4.336   1.570 -0.0663 -0.1972  0.2625
 2998TIP3    H1 9000   6.146   4.359   1.593 -0.3535 -1.1206  0.1221
 2998TIP3    H2 9001   6.264   4.277   1.640  0.2071 -0.3961 -0.0081
 2999TIP3   OH2 9002   4.333   1.548   2.604  0.4261  0.0821 -0.0782
 2999TIP3    H1 9003   4.380   1.564   2.685  1.0805  0.0117 -0.4324
 2999TIP3    H2 9004   4.343   1.628   2.553 -0.2376  0.2382  0.0306
 3000TIP3   OH2 9005   3.289   4.799   4.006 -0.8533  0.4129 -0.0931
 3000TIP3    H1 9006   3.308   4.832   4.094 -2.2303  0.4279  0.2157
 3000TIP3    H2 9007   3.248   4.714   4.020  0.2915 -0.2819 -0.7994
 3001TIP3   OH2 9008   2.571   2.566   3.276  0.4070  0.0684 -0.2014
 3001TIP3    H1 9009   2.526   2.603   3.352  0.1727  0.0134 -0.3130
 3001TIP3    H2 9010   2.554   2.628   3.206 -0.0728 -0.2998 -0.4147
 3002TIP3   OH2 9011   0.579   0.800   0.186 -0.0749  0.0125 -0.2697
 3002TIP3    H1 9012   0.545   0.815   0.098  0.5068 -0.8542 -0.6503
 3002TIP3    H2 9013   0.611   0.886   0.214 -1.7617  0.6627 -0.2355
 3003TIP3   OH2 9014   2.715   5.428   2.631 -0.2790  0.1306  0.4353
 3003TIP3    H1 9015   2.664   5.471   2.700 -1.5638  1.4849 -1.2799
 3003TIP3    H2 9016   2.805   5.457   2.647 -0.7221  1.3471  0.8964
 3004TIP3   OH2 9017   5.722   4.635   0.427 -0.0896  0.5948  0.5668
 3004TIP3    H1 9018   5.731   4.726   0.398  0.6726  0.2583 -0.3033
 3004TIP3    H2 9019   5.689   4.641   0.517 -1.4486  1.7033  0.0344
 3005TIP3   OH2 9020   5.790   5.982   3.569 -0.0757  0.3106 -0.3005
 3005TIP3    H1 9021   5.829   5.910   3.519  0.3159  0.8025 -0.7103
 3005TIP3    H2 9022   5.849   5.994   3.643  0.6547  1.1621 -1.0076
 3006TIP3   OH2 9023   4.826   3.052   1.614  0.8785 -0.4507 -0.3823
 3006TIP3    H1 9024   4.892   3.118   1.592  1.4522 -1.2832 -1.1723
 3006TIP3    H2 9025   4.800   3.015   1.530  0.9284 -1.5925  0.0958
 3007TIP3   OH2 9026   4.968   3.894   4.035  0.1510  0.1221  0.3064
 3007TIP3    H1 9027   5.011   3.839   3.970 -0.0067  0.4906 -0.1167
 3007TIP3    H2 9028   4.915   3.956   3.983 -0.4616  0.0215  0.7998
 3008TIP3   OH2 9029   5.419   0.131   3.853 -0.2650  0.4839 -0.3760
 3008TIP3    H1 9030   5.402   0.063   3.918 -0.6277 -0.0205 -0.9817
 3008TIP3    H2 9031   5.403   0.213   3.899 -1.7497  0.1001 -0.1607
 3009TIP3   OH2 9032   5.339   4.686   0.384  0.3669  0.1630 -0.2376
 3009TIP3    H1 9033   5.327   4.716   0.294  0.5643  0.4823 -0.1585
 3009TIP3    H2 9034   5.386   4.603   0.376 -2.3582 -1.4837 -0.6012
 3010TIP3   OH2 9035   1.284   0.880   0.182 -0.1892 -0.2588 -0.5485
 3010TIP3    H1 9036   1.294   0.853   0.273  0.3114 -0.8912 -0.7805
 3010TIP3    H2 9037   1.372   0.909   0.156 -0.8788  2.5979 -0.0271
 3011TIP3   OH2 9038   2.403   2.676   2.504 -0.5275 -0.0041  0.0867
 3011TIP3    H1 9039   2.356   2.689   2.586 -0.6711 -2.2183  0.4132
 3011TIP3    H2 9040   2.459   2.599   2.520  1.0705  0.8293 -1.2079
 3012TIP3   OH2 9041   4.523   3.767   2.341 -0.1421  0.1270 -0.7170
 3012TIP3    H1 9042   4.553   3.743   2.253  0.3630  0.3753 -0.6127
 3012TIP3    H2 9043   4.572   3.846   2.362  1.2022 -0.9957  0.5821
 3013TIP3   OH2 9044   4.343   3.249   1.410 -0.4407  0.0230 -0.3922
 3013TIP3    H1 9045   4.370   3.255   1.501  1.1942 -0.4406 -0.8155
 3013TIP3    H2 9046   4.356   3.337   1.374  0.2567 -0.1206 -0.5107
 3014TIP3   OH2 9047   2.104   4.769   3.401 -0.1794 -0.0972  0.2542
 3014TIP3    H1 9048   2.146   4.840   3.353  0.3860 -1.1124 -0.7979
 3014TIP3    H2 9049   2.020   4.757   3.358 -1.1412  1.2103  1.6770
 3015TIP3   OH2 9050   1.728   3.006   4.122  0.1123 -1.1186 -0.1759
 3015TIP3    H1 9051   1.651   2.955   4.096  0.2320 -1.5909  0.3975
 3015TIP3    H2 9052   1.746   2.980   4.212 -0.0400  0.2043  0.2537
 3016TIP3   OH2 9053   2.214   3.220   4.617  0.0438 -0.6026  0.4989
 3016TIP3    H1 9054   2.129   3.233   4.574  0.7342  0.8650 -0.4950
 3016TIP3    H2 9055   2.244   3.308   4.638  0.8275 -1.1707  1.8500
 3017TIP3   OH2 9056   5.249   0.393   1.903 -0.5972  0.2210 -0.1134
 3017TIP3    H1 9057   5.292   0.477   1.914 -0.6253  0.1303  0.7268
 3017TIP3    H2 9058   5.282   0.339   1.974  0.3079 -0.8616 -1.3084
 3018TIP3   OH2 9059   1.728   3.987   0.698 -0.3386  0.1373 -0.1570
 3018TIP3    H1 9060   1.646   3.938   0.700 -1.0238  1.2514  2.1485
 3018TIP3    H2 9061   1.796   3.922   0.716 -0.8522 -0.5215 -0.5350
 3019TIP3   OH2 9062   3.658   3.913   3.847  0.4917 -0.2936  0.1216
 3019TIP3    H1 9063   3.689   3.837   3.897 -2.6771 -1.0520  1.1302
 3019TIP3    H2 9064   3.653   3.983   3.912  0.6960 -0.0142 -0.1653
 3020TIP3   OH2 9065   2.892   0.204   1.272  0.3231 -0.4209  0.6221
 3020TIP3    H1 9066   2.950   0.144   1.225 -0.1039  0.0356 -0.5303
 3020TIP3    H2 9067   2.839   0.245   1.203 -0.3483  0.2521  1.5142
 3021TIP3   OH2 9068   4.269   3.468   0.509  0.5219  0.0394  0.2462
 3021TIP3    H1 9069   4.289   3.488   0.601  4.4744  3.4002 -1.0386
 3021TIP3    H2 9070   4.347   3.422   0.477 -0.5037 -0.5140 -1.5862
 3022TIP3   OH2 9071   4.010   4.661   1.470  0.5557 -0.4608  0.5698
 3022TIP3    H1 9072   4.056   4.744   1.457  0.4132 -0.6137 -1.2717
 3022TIP3    H2 9073   3.920   4.686   1.489  0.8200 -0.1952  1.5345
 3023TIP3   OH2 9074   1.062   0.117   2.613  0.0709  0.0932 -0.3007
 3023TIP3    H1 9075   1.019   0.068   2.682 -3.1488 -1.4156 -3.0579
 3023TIP3    H2 9076   1.066   0.056   2.539  1.9630  2.0320 -1.9520
 3024TIP3   OH2 9077   0.385   3.937   2.457 -0.7583 -0.3593 -0.1504
 3024TIP3    H1 9078   0.305   3.986   2.440 -1.8552 -2.0737 -0.0795
 3024TIP3    H2 9079   0.429   3.934   2.372 -1.3749 -0.4776 -0.4659
 3025TIP3   OH2 9080   5.551   0.513   0.246 -0.2510 -0.1922  0.3511
 3025TIP3    H1 9081   5.549   0.470   0.331  0.6167 -2.3334 -0.6378
 3025TIP3    H2 9082   5.508   0.452   0.186  1.4178  0.0484 -1.1975
 3026TIP3   OH2 9083   0.166   1.756   2.726  0.2653 -0.1567  0.6947
 3026TIP3    H1 9084   0.167   1.763   2.822  0.0805 -0.8898  0.7524
 3026TIP3    H2 9085   0.222   1.828   2.697 -0.0957  0.3962  1.3320
 3027TIP3   OH2 9086   0.851   2.314   5.046 -0.7441 -0.2214  0.4849
 3027TIP3    H1 9087   0.941   2.309   5.078 -1.0822 -0.0406  1.5160
 3027TIP3    H2 9088   0.849   2.257   4.969  0.4948  0.5861 -0.1657
 3028TIP3   OH2 9089   1.338   5.398   0.647 -0.3121 -0.5085  0.3276
 3028TIP3    H1 9090   1.306   5.367   0.732  0.3799  1.4008  1.3473
 3028TIP3    H2 9091   1.422   5.439   0.667  0.4700 -1.1264 -1.5120
 3029TIP3   OH2 9092   2.915   5.234   5.091  0.7825 -0.3491 -0.7131
 3029TIP3    H1 9093   2.884   5.220   5.001  0.0575  0.9687 -0.6865
 3029TIP3    H2 9094   2.862   5.307   5.124  2.5320  0.6502  0.0249
 3030TIP3   OH2 9095   1.867   4.414   2.698  0.0293  0.1008 -0.1673
 3030TIP3    H1 9096   1.915   4.350   2.645 -0.6398 -0.3348 -0.2601
 3030TIP3    H2 9097   1.778   4.379   2.702 -0.3388  1.0214 -0.2032
 3031TIP3   OH2 9098   0.830   5.807   1.095 -0.2221 -0.2912  0.8973
 3031TIP3    H1 9099   0.880   5.798   1.014  0.9329  1.4941  1.3743
 3031TIP3    H2 9100   0.747   5.845   1.068 -0.1826 -0.5044  0.4643
 3032TIP3   OH2 9101   4.201   0.492   2.956 -0.0007  0.6268 -0.5694
 3032TIP3    H1 9102   4.259   0.447   3.017  0.1124 -0.7603 -1.6515
 3032TIP3    H2 9103   4.260   0.527   2.889 -0.1916  1.4976 -0.3017
 3033TIP3   OH2 9104   4.981   2.891   2.108 -0.2646  0.1100  0.1952
 3033TIP3    H1 9105   4.893   2.871   2.139 -0.0909 -0.8319  0.1059
 3033TIP3    H2 9106   4.967   2.949   2.033 -0.7865  0.3059  0.4388
 3034TIP3   OH2 9107   1.876   4.515   4.386  0.3691 -0.3292  0.3167
 3034TIP3    H1 9108   1.887   4.430   4.427  0.8509 -0.1721  0.5130
 3034TIP3    H2 9109   1.818   4.563   4.445  0.7554 -0.2365  0.6224
 3035TIP3   OH2 9110   2.228   3.246   3.216 -0.0933  0.2229  0.3819
 3035TIP3    H1 9111   2.264   3.205   3.137  1.0014 -0.1473  1.0500
 3035TIP3    H2 9112   2.133   3.240   3.204  0.0313 -1.3647 -0.1466
 3036TIP3   OH2 9113   4.595   5.784   2.574 -0.2331  0.5468  0.4752
 3036TIP3    H1 9114   4.681   5.826   2.586  0.1762 -0.3896  0.8756
 3036TIP3    H2 9115   4.602   5.701   2.621 -0.9396 -0.1003 -0.5224
 3037TIP3   OH2 9116   6.167   5.196   3.914  0.1583 -0.0075  0.0797
 3037TIP3    H1 9117   6.085   5.158   3.946 -0.3324  0.1735 -0.9263
 3037TIP3    H2 9118   6.227   5.186   3.988 -0.0655 -2.3589  0.0485
 3038TIP3   OH2 9119   3.858   0.512   2.285 -0.0623  0.1810  0.4122
 3038TIP3    H1 9120   3.899   0.568   2.352 -0.8382  0.2931  0.8103
 3038TIP3    H2 9121   3.866   0.563   2.204  1.5575 -0.2876  0.2581
 3039TIP3   OH2 9122   1.755   1.935   1.094  0.7043  0.1229  0.5052
 3039TIP3    H1 9123   1.843   1.948   1.061  0.7971 -0.7519  0.3694
 3039TIP3    H2 9124   1.755   1.845   1.128 -0.9903 -1.1098 -2.3618
 3040TIP3   OH2 9125   6.296   5.336   1.952  0.1585  0.1197 -0.8373
 3040TIP3    H1 9126   6.309   5.242   1.967 -0.5992  0.2664  0.9381
 3040TIP3    H2 9127   6.274   5.342   1.859  3.5571 -1.0541 -1.8876
 3041TIP3   OH2 9128   0.953   2.898   3.513 -0.0157 -0.8255 -0.1947
 3041TIP3    H1 9129   0.944   2.885   3.607 -0.5575  0.3603 -0.0614
 3041TIP3    H2 9130   0.913   2.821   3.473 -1.7357 -0.3678  0.5396
 3042TIP3   OH2 9131   5.390   4.335   4.222  0.0170 -0.6151  0.3590
 3042TIP3    H1 9132   5.394   4.253   4.270  0.7948 -1.1629 -0.6201
 3042TIP3    H2 9133   5.468   4.383   4.250  0.9842 -1.3290 -1.0134
 3043TIP3   OH2 9134   3.321   2.793   3.099 -0.1299 -0.0870 -0.4149
 3043TIP3    H1 9135   3.393   2.765   3.155 -0.3071  1.4251  0.6323
 3043TIP3    H2 9136   3.242   2.763   3.143 -0.2888  1.4263  0.4051
 3044TIP3   OH2 9137   2.870   1.457   0.949  0.1821 -0.3425 -0.6785
 3044TIP3    H1 9138   2.903   1.383   0.999 -2.0779 -0.8060  0.2138
 3044TIP3    H2 9139   2.804   1.498   1.006  1.6677  2.7077 -0.9002
 3045TIP3   OH2 9140   4.215   4.029   2.488  0.6882 -0.1960  0.2962
 3045TIP3    H1 9141   4.235   4.026   2.581  0.5789  0.0639  0.3299
 3045TIP3    H2 9142   4.232   3.941   2.457  0.3885 -0.3751  0.6340
 3046TIP3   OH2 9143   0.729   5.125   0.121  0.3826 -0.1036  0.9918
 3046TIP3    H1 9144   0.663   5.059   0.143  0.0814 -0.0257  0.3604
 3046TIP3    H2 9145   0.802   5.108   0.180  1.2954 -2.4914 -0.6861
 3047TIP3   OH2 9146   0.824   0.905   0.079 -0.0275 -0.1208  0.0569
 3047TIP3    H1 9147   0.741   0.856   0.084 -0.6986  1.0909  1.8718
 3047TIP3    H2 9148   0.843   0.910  -0.014 -1.4311 -1.3507 -0.3447
 3048TIP3   OH2 9149   0.384   2.814   0.791 -0.0908 -0.6031  0.2581
 3048TIP3    H1 9150   0.350   2.898   0.824  0.2430 -0.5773  0.5342
 3048TIP3    H2 9151   0.343   2.748   0.848  0.6478 -0.5459  0.8678
 3049TIP3   OH2 9152   0.946   3.057   3.277 -0.1913 -0.7542 -0.5924
 3049TIP3    H1 9153   1.002   3.132   3.299 -0.8419 -0.2531 -0.6396
 3049TIP3    H2 9154   0.950   3.001   3.355 -0.8993  0.0520  0.0339
 3050TIP3   OH2 9155   4.318   0.527   0.577 -0.2641  0.4298  0.0750
 3050TIP3    H1 9156   4.237   0.538   0.627  1.4549  2.3712  2.7167
 3050TIP3    H2 9157   4.340   0.615   0.547  2.0297  0.4412  1.5310
 3051TIP3   OH2 9158   1.427   5.963   0.457  0.3530 -0.0292 -0.1870
 3051TIP3    H1 9159   1.479   5.981   0.536 -1.7737  0.3740  1.2082
 3051TIP3    H2 9160   1.389   5.877   0.473 -0.7109  0.3876 -0.3977
 3052TIP3   OH2 9161   2.940   2.421   4.680 -0.0891  0.3445  0.5604
 3052TIP3    H1 9162   3.033   2.433   4.698 -0.4059  0.7983  1.9846
 3052TIP3    H2 9163   2.914   2.500   4.632 -0.3878  1.7411  2.8739
 3053TIP3   OH2 9164   3.076   0.816   2.976  0.1593  0.3874  0.2298
 3053TIP3    H1 9165   3.153   0.837   3.028 -1.0775 -2.7721  3.7745
 3053TIP3    H2 9166   3.002   0.826   3.037 -1.9429  0.4563 -2.1578
 3054TIP3   OH2 9167   1.753   0.421   1.850  0.4401 -0.3766  0.3023
 3054TIP3    H1 9168   1.798   0.344   1.883 -0.2560 -0.8417  0.1838
 3054TIP3    H2 9169   1.781   0.428   1.759 -0.3032 -1.1131  0.0053
 3055TIP3   OH2 9170   2.987   2.326   3.520 -0.2681  0.2497  0.1609
 3055TIP3    H1 9171   3.014   2.234   3.532 -0.2762  0.3593  1.1307
 3055TIP3    H2 9172   2.900   2.330   3.559 -0.0209  0.7996  0.6761
 3056TIP3   OH2 9173   4.137   3.905   1.165 -0.4504 -0.2754  0.0112
 3056TIP3    H1 9174   4.065   3.965   1.185 -0.5559 -0.7462  1.1238
 3056TIP3    H2 9175   4.097   3.818   1.166  0.0277 -0.4953  0.1242
 3057TIP3   OH2 9176   4.802   2.425   2.377 -0.2665 -0.2077  0.1862
 3057TIP3    H1 9177   4.859   2.386   2.311  0.7651  1.3356  0.1012
 3057TIP3    H2 9178   4.845   2.508   2.399 -1.3452 -0.0295  1.7489
 3058TIP3   OH2 9179   4.111   3.645   4.584 -0.7436 -0.8560 -0.1003
 3058TIP3    H1 9180   4.142   3.609   4.667  0.7258 -0.2614 -0.3539
 3058TIP3    H2 9181   4.064   3.725   4.608  0.1194 -0.4061  0.1546
 3059TIP3   OH2 9182   4.376   0.486   4.990  0.1155 -0.0205 -0.1260
 3059TIP3    H1 9183   4.349   0.566   5.036 -3.1350 -1.1392  0.1330
 3059TIP3    H2 9184   4.383   0.420   5.059  0.4860 -0.4992 -0.6124
 3060TIP3   OH2 9185   3.338   3.164   2.773 -0.0603  0.6098 -0.4500
 3060TIP3    H1 9186   3.277   3.204   2.835  0.5673 -0.3041  0.7850
 3060TIP3    H2 9187   3.310   3.198   2.688 -0.4175  2.5623  0.3924
 3061TIP3   OH2 9188   2.363   4.608   0.446  0.4184  0.8632  0.0868
 3061TIP3    H1 9189   2.320   4.525   0.431 -1.6129  1.6689  1.1245
 3061TIP3    H2 9190   2.455   4.585   0.462  0.6129 -0.8564 -2.7182
 3062TIP3   OH2 9191   3.781   0.848   2.210  0.3183  0.1455 -0.1607
 3062TIP3    H1 9192   3.840   0.858   2.286 -1.0236  1.9193  0.7115
 3062TIP3    H2 9193   3.823   0.781   2.156  1.3210 -1.2245  2.1602
 3063TIP3   OH2 9194   0.617   2.880   4.659  0.0978 -0.0405 -0.1482
 3063TIP3    H1 9195   0.566   2.802   4.638 -1.8635  1.5975 -1.8927
 3063TIP3    H2 9196   0.556   2.938   4.703  0.3272  1.9916 -2.2817
 3064TIP3   OH2 9197   2.237   2.117   4.021  0.6410  0.1256 -0.5150
 3064TIP3    H1 9198   2.314   2.094   4.074  0.4145  0.7984  0.1206
 3064TIP3    H2 9199   2.259   2.088   3.933  1.3806 -0.2334 -0.2223
 3065TIP3   OH2 9200   4.453   5.100   2.377 -0.0370 -0.3283 -0.4550
 3065TIP3    H1 9201   4.470   5.171   2.315 -0.6617  1.5102  1.3625
 3065TIP3    H2 9202   4.364   5.071   2.356 -0.0458 -0.0809 -0.7704
 3066TIP3   OH2 9203   0.398   5.566   3.123 -0.0400 -0.1426 -0.6266
 3066TIP3    H1 9204   0.319   5.538   3.077 -1.5022  2.0594  0.3835
 3066TIP3    H2 9205   0.383   5.540   3.214 -0.1488  1.2981 -0.2142
 3067TIP3   OH2 9206   3.922   2.360   2.699  0.0263 -0.2549 -0.1568
 3067TIP3    H1 9207   3.994   2.309   2.661  1.4931  1.1278  0.6340
 3067TIP3    H2 9208   3.951   2.451   2.693 -1.8756  0.4053 -0.2005
 3068TIP3   OH2 9209   6.088   0.934   1.041  0.2710 -0.1683  0.5102
 3068TIP3    H1 9210   6.105   0.848   1.003 -2.0815 -0.5613  0.1996
 3068TIP3    H2 9211   6.026   0.975   0.980 -0.4707  0.7949  1.8707
 3069TIP3   OH2 9212   5.882   5.294   4.418 -0.3842 -0.2421 -0.2519
 3069TIP3    H1 9213   5.824   5.218   4.424  0.2358 -0.6505  0.9817
 3069TIP3    H2 9214   5.968   5.260   4.443 -0.0501  0.8213  0.0802
 3070TIP3   OH2 9215   2.893   4.902   1.702  0.3522  0.6494  0.3215
 3070TIP3    H1 9216   2.912   4.826   1.757  2.2141 -0.0302 -1.1722
 3070TIP3    H2 9217   2.928   4.879   1.616  2.1468  3.6854  0.1111
 3071TIP3   OH2 9218   0.303   0.401   0.685 -0.3228 -0.6093 -0.3804
 3071TIP3    H1 9219   0.396   0.379   0.672 -0.2436  0.5502 -2.1027
 3071TIP3    H2 9220   0.302   0.454   0.764  0.9605  1.8370 -1.8818
 3072TIP3   OH2 9221   4.528   5.418   2.996 -0.2093  0.0758  0.2029
 3072TIP3    H1 9222   4.455   5.421   3.058 -1.3662  1.8775 -1.1409
 3072TIP3    H2 9223   4.529   5.505   2.955  2.3270 -0.0933 -0.2792
 3073TIP3   OH2 9224   2.986   2.345   2.920  0.3441 -0.1186 -0.1290
 3073TIP3    H1 9225   3.062   2.399   2.938  1.2491 -1.4158  0.0719
 3073TIP3    H2 9226   2.993   2.272   2.982 -0.7714 -0.5394 -0.4693
 3074TIP3   OH2 9227   3.409   2.074   1.022 -0.2434  0.5696  0.1034
 3074TIP3    H1 9228   3.441   2.127   1.095  2.0513 -1.4555  0.7412
 3074TIP3    H2 9229   3.477   2.081   0.955  0.8951 -2.4770  0.7579
 3075TIP3   OH2 9230   1.109   4.702   4.429  0.1784  0.3287  0.3367
 3075TIP3    H1 9231   1.151   4.658   4.503 -0.6203  0.1218  0.6676
 3075TIP3    H2 9232   1.080   4.631   4.372 -0.0066  0.4609  0.2656
 3076TIP3   OH2 9233   4.993   5.394   3.467  0.6789 -0.0496 -0.4348
 3076TIP3    H1 9234   4.975   5.412   3.375  1.2552  0.8464 -0.3865
 3076TIP3    H2 9235   4.907   5.397   3.509  0.4463 -0.1676 -0.8876
 3077TIP3   OH2 9236   3.860   0.503   3.721 -0.1930 -0.4086  0.1612
 3077TIP3    H1 9237   3.900   0.418   3.703 -0.8352 -0.5935 -0.4826
 3077TIP3    H2 9238   3.863   0.549   3.637 -0.1927  0.0606  0.4138
 3078TIP3   OH2 9239   5.825   1.997   1.046 -0.2297 -0.0659 -0.6737
 3078TIP3    H1 9240   5.761   2.012   0.976 -1.1221 -1.8494 -0.2953
 3078TIP3    H2 9241   5.867   2.082   1.059 -2.5275  1.1857 -0.9377
 3079TIP3   OH2 9242   2.014   1.923   2.376 -0.1511  0.3110  0.7868
 3079TIP3    H1 9243   2.008   1.941   2.282  0.4066  1.0183  0.8783
 3079TIP3    H2 9244   2.019   2.009   2.417  0.0189 -0.0000  1.4390
 3080TIP3   OH2 9245   5.916   2.276   3.544 -0.1091  0.4145 -0.0581
 3080TIP3    H1 9246   5.901   2.303   3.453 -1.1104 -0.9197 -0.3182
 3080TIP3    H2 9247   5.845   2.215   3.563  0.4102  0.2372  1.4461
 3081TIP3   OH2 9248   3.097   2.267   5.083 -0.7437 -0.3070 -1.1090
 3081TIP3    H1 9249   3.084   2.291   5.175 -2.1764 -1.7306 -0.8945
 3081TIP3    H2 9250   3.185   2.299   5.062  0.6354 -2.0394  1.4807
 3082TIP3   OH2 9251   3.147   4.584   4.106 -0.2816 -0.1105 -0.4855
 3082TIP3    H1 9252   3.078   4.519   4.118 -0.1734 -0.2136 -0.4225
 3082TIP3    H2 9253   3.176   4.605   4.195 -1.4884  1.2894 -0.3806
 3083TIP3   OH2 9254   1.662   1.959   0.281 -0.1035 -0.0679  0.7448
 3083TIP3    H1 9255   1.729   1.891   0.287  0.8894  0.9019  1.0110
 3083TIP3    H2 9256   1.579   1.911   0.273  0.7665 -1.3176 -1.8419
 3084TIP3   OH2 9257   5.180   0.480   0.888 -0.1958 -0.0031 -0.3043
 3084TIP3    H1 9258   5.247   0.452   0.826 -0.0818  0.0915 -0.2249
 3084TIP3    H2 9259   5.216   0.558   0.929 -0.6965  0.5200 -0.8362
 3085TIP3   OH2 9260   4.239   5.295   2.449  0.1678 -0.2263  0.2720
 3085TIP3    H1 9261   4.221   5.373   2.503  1.2244 -0.8564  1.6070
 3085TIP3    H2 9262   4.167   5.291   2.387 -1.1650  0.4973  1.7160
 3086TIP3   OH2 9263   0.716   1.384   1.736  0.0715  0.0680 -0.1862
 3086TIP3    H1 9264   0.625   1.359   1.749  0.9346 -3.7076 -0.0679
 3086TIP3    H2 9265   0.744   1.335   1.659  1.8910  1.5495 -0.5480
 3087TIP3   OH2 9266   3.095   4.708   4.522  0.2253  0.2807  0.5222
 3087TIP3    H1 9267   3.136   4.696   4.436  0.7460  0.4884  0.7372
 3087TIP3    H2 9268   3.026   4.642   4.525  1.1400 -0.6953  0.5312
 3088TIP3   OH2 9269   5.654   2.007   4.255 -0.1078 -0.0921 -0.7435
 3088TIP3    H1 9270   5.669   1.949   4.329  1.0019  1.0716  0.0030
 3088TIP3    H2 9271   5.741   2.020   4.217 -0.4028  0.6585 -1.1960
 3089TIP3   OH2 9272   4.831   4.043   3.583  0.3087 -0.3185  0.0859
 3089TIP3    H1 9273   4.892   4.085   3.522  0.0166 -0.3023 -0.2041
 3089TIP3    H2 9274   4.820   3.955   3.549  1.1488 -0.7372  0.8654
 3090TIP3   OH2 9275   1.127   2.316   5.139  0.0115 -0.8632 -0.2843
 3090TIP3    H1 9276   1.115   2.268   5.221 -1.4172 -1.7154 -0.9583
 3090TIP3    H2 9277   1.217   2.297   5.113  0.4849 -0.5838  1.0596
 3091TIP3   OH2 9278   3.291   5.296   3.957  0.0868  0.5951 -0.0437
 3091TIP3    H1 9279   3.245   5.378   3.943 -1.9941 -0.4933  0.0924
 3091TIP3    H2 9280   3.329   5.304   4.045 -1.6718  0.7391  0.7495
 3092TIP3   OH2 9281   6.267   3.284   4.312  0.7910 -0.5092 -0.0908
 3092TIP3    H1 9282   6.347   3.299   4.262  1.2843 -0.6183  0.6516
 3092TIP3    H2 9283   6.280   3.200   4.355 -0.0968 -0.9574 -0.6654
 3093TIP3   OH2 9284   1.094   2.231   2.585  0.0465 -0.0272 -0.0217
 3093TIP3    H1 9285   1.008   2.272   2.577  0.7510  1.2128 -1.8070
 3093TIP3    H2 9286   1.084   2.146   2.543  0.3569  1.2722 -2.9493
 3094TIP3   OH2 9287   1.191   4.148   0.332 -0.1642  0.0065 -0.2577
 3094TIP3    H1 9288   1.169   4.239   0.310  1.1056  0.2910 -0.3821
 3094TIP3    H2 9289   1.199   4.148   0.427 -0.4566 -0.0520 -0.2306
 3095TIP3   OH2 9290   3.537   0.415   2.026  0.0654 -0.6721  0.1091
 3095TIP3    H1 9291   3.621   0.370   2.035  1.0415  1.2880  1.8317
 3095TIP3    H2 9292   3.544   0.489   2.087 -2.4687  0.2232 -0.5883
 3096TIP3   OH2 9293   5.914   4.029   5.035 -0.1256 -0.2669  0.7311
 3096TIP3    H1 9294   5.926   3.936   5.055  1.1909 -0.4788 -0.8344
 3096TIP3    H2 9295   5.956   4.075   5.107  0.2467 -0.9095  0.9260
 3097TIP3   OH2 9296   0.564   3.073   0.151 -0.1216 -0.0764  0.1759
 3097TIP3    H1 9297   0.512   3.065   0.231 -0.0529  1.0303  0.3449
 3097TIP3    H2 9298   0.590   3.165   0.148  0.2371 -0.1967 -0.8975
 3098TIP3   OH2 9299   1.006   1.719   2.237  0.4270 -0.1495  0.0425
 3098TIP3    H1 9300   1.091   1.718   2.192 -0.4630  0.2736 -1.7083
 3098TIP3    H2 9301   0.942   1.709   2.167 -1.0471  1.0740  1.1606
 3099TIP3   OH2 9302   3.056   0.587   4.013 -0.4353 -0.3589 -0.1064
 3099TIP3    H1 9303   3.008   0.513   3.975  0.6209 -0.3798 -1.4498
 3099TIP3    H2 9304   3.143   0.582   3.975 -0.5284  1.9845 -0.8040
 3100TIP3   OH2 9305   2.072   3.848   1.326  0.2623  0.0766  0.5336
 3100TIP3    H1 9306   2.155   3.807   1.352 -0.1520 -2.0917 -1.2858
 3100TIP3    H2 9307   2.097   3.909   1.256  0.2432 -1.5571 -0.9600
 3101TIP3   OH2 9308   5.434   1.223   3.683  0.0724 -0.2445 -0.1676
 3101TIP3    H1 9309   5.433   1.283   3.608 -0.9365 -0.2640 -0.1882
 3101TIP3    H2 9310   5.373   1.153   3.657 -0.0449 -0.4102  0.5465
 3102TIP3   OH2 9311   4.062   0.138   1.525 -0.2018  0.3188  0.8014
 3102TIP3    H1 9312   4.006   0.215   1.511 -0.2941  0.4108  1.6039
 3102TIP3    H2 9313   4.143   0.158   1.479 -0.5254  0.5423  0.3195
 3103TIP3   OH2 9314   3.732   4.397   4.517  0.3883  0.0455 -0.3110
 3103TIP3    H1 9315   3.742   4.459   4.590 -1.6260  1.1010 -0.8384
 3103TIP3    H2 9316   3.695   4.319   4.558  1.9469 -0.4631  0.1969
 3104TIP3   OH2 9317   1.876   2.551   3.175  0.3830  0.2465  0.3569
 3104TIP3    H1 9318   1.832   2.466   3.179  0.2180  0.3839  2.8010
 3104TIP3    H2 9319   1.968   2.531   3.192  1.3420  0.0734 -3.8611
 3105TIP3   OH2 9320   4.384   4.569   2.319  0.2778  0.3272  0.0565
 3105TIP3    H1 9321   4.389   4.505   2.247 -1.6253 -0.5064  0.6041
 3105TIP3    H2 9322   4.416   4.651   2.281  0.5636 -0.4069 -1.3441
 3106TIP3   OH2 9323   1.853   2.162   2.252  0.5610  0.0584 -0.2568
 3106TIP3    H1 9324   1.893   2.089   2.205  0.8970 -1.5376  2.3233
 3106TIP3    H2 9325   1.925   2.200   2.303 -0.1270  0.5092  0.3963
 3107TIP3   OH2 9326   4.276   0.050   0.585  0.0643 -0.3246  0.4091
 3107TIP3    H1 9327   4.328   0.126   0.610  1.0836 -1.0904  0.6999
 3107TIP3    H2 9328   4.341  -0.014   0.555 -0.8884 -0.4987 -1.4600
 3108TIP3   OH2 9329   2.007   2.439   0.493 -0.2583  0.4908 -0.4678
 3108TIP3    H1 9330   1.993   2.365   0.434 -0.8106 -1.4353  1.9111
 3108TIP3    H2 9331   2.056   2.502   0.441  0.1749 -1.5053 -2.6502
 3109TIP3   OH2 9332   1.337   5.921   1.194 -0.7534  0.1769  0.6397
 3109TIP3    H1 9333   1.416   5.964   1.160 -0.8057  0.4268  0.8381
 3109TIP3    H2 9334   1.265   5.964   1.149 -0.7239 -1.0054 -0.6148
 3110TIP3   OH2 9335   5.945   5.692   1.408 -0.8061  0.2030 -0.0079
 3110TIP3    H1 9336   5.877   5.745   1.450  0.4919  0.3742  2.0090
 3110TIP3    H2 9337   5.923   5.693   1.315 -2.2814  2.1249  0.3170
 3111TIP3   OH2 9338   2.858   3.748   3.994 -0.0981  0.2376  0.0223
 3111TIP3    H1 9339   2.922   3.686   3.960  0.5034  1.6185 -1.4955
 3111TIP3    H2 9340   2.804   3.697   4.054  1.0789 -1.4585 -0.3076
 3112TIP3   OH2 9341   0.094   4.848   4.863 -0.0881 -0.5461 -0.3068
 3112TIP3    H1 9342   0.137   4.839   4.948  0.6833 -1.1110 -0.7424
 3112TIP3    H2 9343   0.148   4.797   4.803 -1.1558 -0.9582 -0.9549
 3113TIP3   OH2 9344   4.053   1.831   2.968  0.0622 -0.0651  0.0410
 3113TIP3    H1 9345   4.080   1.741   2.950 -0.0810 -0.0018 -0.4878
 3113TIP3    H2 9346   4.011   1.827   3.055 -0.1402 -0.5451 -0.0801
 3114TIP3   OH2 9347   2.777   1.059   3.314  0.5546 -0.3507  0.0918
 3114TIP3    H1 9348   2.725   1.139   3.313  1.0261 -0.0244  0.7048
 3114TIP3    H2 9349   2.721   0.992   3.275  0.0763  0.2329 -0.2161
 3115TIP3   OH2 9350   3.608   3.434   3.626 -0.3591  0.2380  0.0170
 3115TIP3    H1 9351   3.675   3.500   3.646  0.4207 -0.4820 -0.1513
 3115TIP3    H2 9352   3.650   3.375   3.563 -1.4807  0.2993 -0.8400
 3116TIP3   OH2 9353   2.732   5.265   0.075  0.1701 -0.5297  0.0735
 3116TIP3    H1 9354   2.792   5.295   0.007  0.0336  1.0641  0.6077
 3116TIP3    H2 9355   2.787   5.258   0.153  0.3390 -2.4023 -0.1786
 3117TIP3   OH2 9356   6.178   2.995   1.553  0.7470 -0.8728 -0.0431
 3117TIP3    H1 9357   6.149   3.085   1.537 -1.2421 -0.8011  3.0310
 3117TIP3    H2 9358   6.124   2.942   1.494  2.4085 -0.1221 -2.3746
 3118TIP3   OH2 9359   5.638   1.371   3.989 -0.2879  0.2268 -0.1210
 3118TIP3    H1 9360   5.610   1.439   3.927 -0.7850  1.0485  0.9550
 3118TIP3    H2 9361   5.568   1.307   3.988 -0.1312  0.0578 -0.6522
 3119TIP3   OH2 9362   5.145   5.193   1.369 -0.2222 -0.3381 -0.7104
 3119TIP3    H1 9363   5.178   5.129   1.306  0.3764  0.6235 -1.4069
 3119TIP3    H2 9364   5.212   5.263   1.369  0.0940 -0.5769  1.4266
 3120TIP3   OH2 9365   4.758   5.612   1.943  0.0558 -0.1888  0.1322
 3120TIP3    H1 9366   4.834   5.670   1.949  0.2059 -0.3428 -0.2194
 3120TIP3    H2 9367   4.786   5.542   1.884  0.1314 -1.0317  1.1447
 3121TIP3   OH2 9368   1.354   5.698   0.498  0.0143  0.3810 -0.2200
 3121TIP3    H1 9369   1.376   5.660   0.413 -0.4637  1.4738 -0.8504
 3121TIP3    H2 9370   1.295   5.635   0.539  1.1987 -0.7237 -0.1654
 3122TIP3   OH2 9371   5.880   4.313   4.626  0.2022  0.3803  0.2373
 3122TIP3    H1 9372   5.863   4.239   4.684  0.6410  1.3833  1.6872
 3122TIP3    H2 9373   5.795   4.334   4.588  0.0339 -0.7177 -0.0084
 3123TIP3   OH2 9374   5.813   1.626   3.169  0.4575 -0.3993  0.4244
 3123TIP3    H1 9375   5.723   1.627   3.201 -0.0457 -0.7086 -0.9228
 3123TIP3    H2 9376   5.817   1.697   3.105  0.9380 -0.9039 -0.1186
 3124TIP3   OH2 9377   4.954   1.302   4.135 -0.0490 -0.0129  0.6660
 3124TIP3    H1 9378   4.958   1.217   4.179 -1.9185 -1.2443 -1.3577
 3124TIP3    H2 9379   4.868   1.337   4.158 -1.1798 -0.7900 -1.9700
 3125TIP3   OH2 9380   4.957   0.314   1.442 -0.2611  0.1461 -0.4283
 3125TIP3    H1 9381   4.901   0.237   1.441  0.6908 -0.5844  0.5528
 3125TIP3    H2 9382   4.986   0.325   1.351 -0.9224 -0.2469 -0.6902
 3126TIP3   OH2 9383   1.032   3.310   4.719  0.1269  0.0647 -0.2292
 3126TIP3    H1 9384   0.971   3.347   4.655 -0.4922  0.7061  0.7165
 3126TIP3    H2 9385   1.055   3.384   4.776  1.6462 -0.2066 -0.4411
 3127TIP3   OH2 9386   0.238   2.189   1.181  0.2879 -0.2934  0.1195
 3127TIP3    H1 9387   0.199   2.276   1.172 -0.8496 -0.7409  0.4601
 3127TIP3    H2 9388   0.331   2.205   1.197  0.4087  0.8178 -1.4481
 3128TIP3   OH2 9389   1.292   4.241   2.315 -0.3263 -0.1046  0.0197
 3128TIP3    H1 9390   1.275   4.198   2.231 -1.7022 -1.2886  0.8659
 3128TIP3    H2 9391   1.382   4.272   2.307  0.5176 -2.5185 -0.9334
 3129TIP3   OH2 9392   4.657   0.894   5.197  0.1841  0.3429 -0.3114
 3129TIP3    H1 9393   4.716   0.874   5.124  2.4436 -1.2096  1.7633
 3129TIP3    H2 9394   4.708   0.954   5.252 -0.4002 -0.5087  1.2148
 3130TIP3   OH2 9395   3.507   0.215   4.097  0.3781  0.1090  0.4159
 3130TIP3    H1 9396   3.566   0.159   4.046 -0.1688  1.5822 -2.0171
 3130TIP3    H2 9397   3.427   0.219   4.045  0.0309  2.2953  1.0201
 3131TIP3   OH2 9398   3.003   3.968   1.307 -0.1202 -0.0885 -0.4760
 3131TIP3    H1 9399   3.001   4.063   1.323  0.3790 -0.0743 -0.4534
 3131TIP3    H2 9400   2.998   3.929   1.395 -0.1579 -0.0752 -0.4725
 3132TIP3   OH2 9401   2.164   3.203   2.172  0.0544 -0.4790  0.2284
 3132TIP3    H1 9402   2.162   3.125   2.118 -2.4924  0.8080 -1.7606
 3132TIP3    H2 9403   2.145   3.275   2.111  0.2033  1.4513  2.3133
 3133TIP3   OH2 9404   3.759   5.019   0.053 -0.2303  0.0880  0.1719
 3133TIP3    H1 9405   3.689   4.954   0.059 -0.2745  0.0522 -0.5526
 3133TIP3    H2 9406   3.717   5.102   0.073 -0.9495  0.3354 -2.0619
 3134TIP3   OH2 9407   5.116   0.067   2.907 -0.3109  0.0556  0.1592
 3134TIP3    H1 9408   5.036   0.114   2.930  0.0319  0.7984 -0.1503
 3134TIP3    H2 9409   5.147   0.110   2.828 -0.0508 -0.7693 -0.1969
 3135TIP3   OH2 9410   4.962   2.885   4.030  0.3318  0.0897  0.1412
 3135TIP3    H1 9411   4.956   2.962   3.973 -0.3320  0.1241  0.2515
 3135TIP3    H2 9412   4.898   2.823   3.994  1.2217 -0.6247 -0.2587
 3136TIP3   OH2 9413   4.149   0.258   4.191  0.2538 -0.1967 -0.2309
 3136TIP3    H1 9414   4.063   0.269   4.150 -0.0309 -3.3009 -0.7045
 3136TIP3    H2 9415   4.133   0.201   4.266  1.9321 -1.4421 -0.7535
 3137TIP3   OH2 9416   0.522   3.329   4.163 -0.3291  0.2777  0.0771
 3137TIP3    H1 9417   0.443   3.362   4.121 -0.1908  0.7083  0.1458
 3137TIP3    H2 9418   0.517   3.234   4.154 -0.4606  0.3469 -0.6271
 3138TIP3   OH2 9419   1.510   5.715   0.714  0.4175 -0.2052 -0.0011
 3138TIP3    H1 9420   1.558   5.796   0.731 -1.2647  0.5660  1.3872
 3138TIP3    H2 9421   1.475   5.727   0.626 -0.0437  0.7143  0.2935
 3139TIP3   OH2 9422   5.217   2.998   1.502 -0.6346 -0.9277 -0.2195
 3139TIP3    H1 9423   5.158   3.027   1.432  0.1714  1.8767  0.1240
 3139TIP3    H2 9424   5.284   3.066   1.505  0.2370 -1.8186  2.2100
 3140TIP3   OH2 9425   4.547   1.262   4.038  0.4220  0.5394 -0.0392
 3140TIP3    H1 9426   4.546   1.356   4.023  1.4148  0.3349 -1.6387
 3140TIP3    H2 9427   4.568   1.253   4.131  0.3191  1.8815  0.1380
 3141TIP3   OH2 9428   0.347   0.968   1.804  0.3852  0.5107  0.4874
 3141TIP3    H1 9429   0.331   0.902   1.871  1.5314 -0.9213 -0.5910
 3141TIP3    H2 9430   0.376   0.918   1.728  1.4077  2.2616 -0.3270
 3142TIP3   OH2 9431   0.752   1.594   3.668  0.5092 -0.6762 -0.3566
 3142TIP3    H1 9432   0.839   1.559   3.682 -0.2497 -1.9005  1.6438
 3142TIP3    H2 9433   0.727   1.632   3.752  0.5369  3.2060 -1.8677
 3143TIP3   OH2 9434   5.567   2.509   1.480 -0.2103 -0.0870 -0.7326
 3143TIP3    H1 9435   5.658   2.506   1.509 -0.2548  0.0213 -0.5779
 3143TIP3    H2 9436   5.516   2.520   1.561 -0.2957  0.8613 -0.8963
 3144TIP3   OH2 9437   5.182   5.832   0.587 -0.1106  0.4899 -0.0937
 3144TIP3    H1 9438   5.187   5.756   0.530  0.1433  1.1149 -0.9264
 3144TIP3    H2 9439   5.272   5.850   0.612 -0.3556 -0.7745  1.8929
 3145TIP3   OH2 9440   1.312   0.185   4.218  0.1269 -0.2377  0.2681
 3145TIP3    H1 9441   1.356   0.161   4.300  1.6511  1.2486 -0.0559
 3145TIP3    H2 9442   1.245   0.247   4.244  0.8507  0.5151  0.3745
 3146TIP3   OH2 9443   0.120   5.348   1.001 -0.0940 -0.0279  0.1513
 3146TIP3    H1 9444   0.168   5.284   0.948  0.8863 -0.3223  1.3441
 3146TIP3    H2 9445   0.114   5.308   1.088 -1.4068  0.5684  0.3533
 3147TIP3   OH2 9446   5.034   5.024   4.661  0.3180  0.3180  0.1235
 3147TIP3    H1 9447   5.054   4.951   4.603 -0.8507 -0.5718  0.8028
 3147TIP3    H2 9448   5.049   4.990   4.749 -1.0854  0.5842  0.4970
 3148TIP3   OH2 9449   4.330   0.800   0.491 -0.0876  0.2090  0.1101
 3148TIP3    H1 9450   4.278   0.859   0.545  1.0755  0.7163  0.7153
 3148TIP3    H2 9451   4.380   0.857   0.433 -1.9711 -0.3475 -2.2266
 3149TIP3   OH2 9452   0.918   4.927   1.009 -0.7277 -0.6333  0.2600
 3149TIP3    H1 9453   0.904   4.845   1.058 -0.9090  0.1614  1.5738
 3149TIP3    H2 9454   0.937   4.992   1.076  2.4145 -0.1600 -0.9483
 3150TIP3   OH2 9455   2.021   4.411   3.474 -0.4300  0.0889 -0.5162
 3150TIP3    H1 9456   2.034   4.320   3.446 -1.2651  0.5099 -2.4455
 3150TIP3    H2 9457   2.105   4.454   3.457 -0.3106 -0.1293 -0.4781
 3151TIP3   OH2 9458   5.718   5.531   2.670 -0.0675 -0.7406 -0.1223
 3151TIP3    H1 9459   5.641   5.534   2.726  0.4818  0.9136  0.6018
 3151TIP3    H2 9460   5.751   5.621   2.670  1.0711 -1.1215 -1.5362
 3152TIP3   OH2 9461   3.934   5.667   2.532  0.2143 -0.5173 -0.3113
 3152TIP3    H1 9462   3.977   5.715   2.461 -0.9945  1.1414  0.0086
 3152TIP3    H2 9463   3.927   5.731   2.603 -0.8092 -1.4023  0.4125
 3153TIP3   OH2 9464   5.211   1.737   3.257 -0.0805 -0.1281  0.1250
 3153TIP3    H1 9465   5.250   1.809   3.307  0.6687 -1.7310  1.9648
 3153TIP3    H2 9466   5.176   1.678   3.323  0.7229 -2.2383 -1.2177
 3154TIP3   OH2 9467   1.603   5.029   4.618 -0.3115  0.3777 -0.3288
 3154TIP3    H1 9468   1.683   5.000   4.661 -1.0946 -2.1346 -0.4078
 3154TIP3    H2 9469   1.537   5.028   4.686 -0.7860 -0.0322 -0.7843
 3155TIP3   OH2 9470   2.659   3.984   4.368 -0.1806 -0.0192 -0.0320
 3155TIP3    H1 9471   2.618   4.047   4.309 -0.8066  0.0990  0.5120
 3155TIP3    H2 9472   2.639   4.017   4.456 -1.0213 -1.2615  0.2790
 3156TIP3   OH2 9473   4.330   2.109   2.757  0.1437 -0.0169 -0.0994
 3156TIP3    H1 9474   4.248   2.148   2.788 -0.4748 -0.4270 -1.1584
 3156TIP3    H2 9475   4.399   2.162   2.797 -0.5419 -1.1772  2.9187
 3157TIP3   OH2 9476   3.868   4.707   1.746  0.1673  0.3003  0.3248
 3157TIP3    H1 9477   3.925   4.668   1.812  2.0527  0.4700 -1.0978
 3157TIP3    H2 9478   3.845   4.634   1.688  0.5255  0.5638 -0.1632
 3158TIP3   OH2 9479   2.002   5.463   1.223 -0.2185  0.5596 -0.1479
 3158TIP3    H1 9480   1.955   5.414   1.156 -0.8135  0.4289  0.3506
 3158TIP3    H2 9481   1.969   5.427   1.306  0.5615  0.6613  0.2139
 3159TIP3   OH2 9482   5.215   4.559   0.699 -0.2928 -0.4235  0.3115
 3159TIP3    H1 9483   5.216   4.645   0.657  1.9339  0.1606  1.4118
 3159TIP3    H2 9484   5.244   4.499   0.631  2.0815  0.3327  0.5778
 3160TIP3   OH2 9485   0.817   3.839   2.749  0.3039  0.5832  0.0432
 3160TIP3    H1 9486   0.722   3.847   2.741  0.2618  0.6690  0.6096
 3160TIP3    H2 9487   0.851   3.922   2.717  0.2769 -0.0032 -1.6045
 3161TIP3   OH2 9488   0.111   0.647   4.879 -0.8904  0.2768  0.1322
 3161TIP3    H1 9489   0.045   0.712   4.854 -2.1243 -1.2880 -0.8998
 3161TIP3    H2 9490   0.183   0.698   4.917 -2.4485  2.0840  0.7775
 3162TIP3   OH2 9491   3.193   2.312   2.616 -0.5678 -0.2921  0.0830
 3162TIP3    H1 9492   3.262   2.349   2.671 -0.4750  0.5198 -0.5613
 3162TIP3    H2 9493   3.203   2.357   2.532 -2.0477  0.0497  0.0588
 3163TIP3   OH2 9494   4.154   4.998   3.686 -0.0707 -0.0072 -0.2276
 3163TIP3    H1 9495   4.128   4.922   3.737 -0.8708  1.0937  1.0885
 3163TIP3    H2 9496   4.243   4.980   3.658 -0.1171 -1.2481  0.3910
 3164TIP3   OH2 9497   0.802   3.997   0.044 -0.6503 -0.1432  0.2526
 3164TIP3    H1 9498   0.784   3.985   0.137 -1.5082  1.0352  0.2692
 3164TIP3    H2 9499   0.898   3.995   0.037 -0.4758  1.5468  1.4673
 3165TIP3   OH2 9500   3.484   4.480   3.973 -0.3603  0.7285  0.2443
 3165TIP3    H1 9501   3.429   4.455   4.046 -2.4257  0.2434 -1.3905
 3165TIP3    H2 9502   3.573   4.458   4.001 -1.4533 -3.4706  1.0225
 3166TIP3   OH2 9503   0.266   4.478   4.176  0.0365  0.2148 -0.0403
 3166TIP3    H1 9504   0.242   4.569   4.197  1.5789  1.4575 -2.9792
 3166TIP3    H2 9505   0.361   4.480   4.166 -0.0613 -1.2890 -1.8626
 3167TIP3   OH2 9506   6.353   4.688   1.923 -0.0064  0.2285 -0.4409
 3167TIP3    H1 9507   6.352   4.611   1.979 -1.5746  1.2041  1.0148
 3167TIP3    H2 9508   6.293   4.667   1.852  0.5887 -0.3541 -0.7806
 3168TIP3   OH2 9509   3.121   3.230   4.818  0.0790  0.0348  0.0151
 3168TIP3    H1 9510   3.035   3.240   4.857 -0.5903 -3.4620 -0.2496
 3168TIP3    H2 9511   3.175   3.297   4.861 -2.4675  1.6589  0.9112
 3169TIP3   OH2 9512   5.557   1.598   3.274  0.0395 -0.6314 -0.0134
 3169TIP3    H1 9513   5.503   1.548   3.336  0.7933 -0.4238  0.8190
 3169TIP3    H2 9514   5.498   1.666   3.241 -0.8548 -1.7327 -0.7886
 3170TIP3   OH2 9515   0.550   1.852   0.189  0.0227 -0.2284 -0.1351
 3170TIP3    H1 9516   0.561   1.927   0.247  0.5242  1.5678 -2.4115
 3170TIP3    H2 9517   0.621   1.792   0.214 -1.1833 -0.6598  2.5999
 3171TIP3   OH2 9518   0.054   4.686   2.722 -0.1788  0.0666  0.2991
 3171TIP3    H1 9519   0.113   4.735   2.665  0.9746 -1.3884  0.1754
 3171TIP3    H2 9520  -0.024   4.672   2.669 -0.2765  1.1977  0.1199
 3172TIP3   OH2 9521   0.724   2.547   2.965 -0.0115  0.3406 -0.4813
 3172TIP3    H1 9522   0.776   2.526   2.887  1.0696  1.1310 -0.0092
 3172TIP3    H2 9523   0.640   2.577   2.930 -0.2102 -1.0735 -1.2678
 3173TIP3   OH2 9524   2.697   1.484   0.424  0.6176 -0.0890 -0.2424
 3173TIP3    H1 9525   2.729   1.560   0.376  0.1553  0.1599 -0.1579
 3173TIP3    H2 9526   2.682   1.515   0.513 -0.4839 -0.0302 -0.4347
 3174TIP3   OH2 9527   2.616   1.055   2.824 -0.0552  0.2337 -0.0906
 3174TIP3    H1 9528   2.702   1.070   2.863  0.3427 -0.0603 -0.8465
 3174TIP3    H2 9529   2.600   0.961   2.837 -1.0292  0.5857  1.5663
 3175TIP3   OH2 9530   4.976   1.237   1.686 -0.2524  0.1892  0.1994
 3175TIP3    H1 9531   4.933   1.299   1.627 -1.8282 -2.0940 -1.1700
 3175TIP3    H2 9532   5.065   1.229   1.651  0.4070  2.5113  1.1369
 3176TIP3   OH2 9533   3.903   5.799   2.170 -0.2860 -0.1646  0.2123
 3176TIP3    H1 9534   3.977   5.808   2.230 -0.3335  1.1234  0.0999
 3176TIP3    H2 9535   3.846   5.734   2.213  0.0408  0.1637  1.1834
 3177TIP3   OH2 9536   0.030   3.045   1.718 -0.2853  0.5786  0.0643
 3177TIP3    H1 9537   0.108   3.060   1.664  1.5804 -3.7311  1.1903
 3177TIP3    H2 9538  -0.035   3.010   1.656 -0.7249  2.2214 -0.4817
 3178TIP3   OH2 9539   3.516   4.562   2.536 -0.0352 -0.0104  0.3212
 3178TIP3    H1 9540   3.488   4.571   2.445 -1.8365  1.9835  0.9846
 3178TIP3    H2 9541   3.548   4.472   2.543  0.4589 -0.1182 -2.3381
 3179TIP3   OH2 9542   4.681   3.982   1.728 -0.6679 -0.7017  0.0641
 3179TIP3    H1 9543   4.718   3.942   1.807 -0.6298  0.5838  0.7300
 3179TIP3    H2 9544   4.751   3.976   1.663 -0.2207 -0.5946  0.5314
 3180TIP3   OH2 9545   5.230   1.599   1.333 -0.3670  0.1301  0.2379
 3180TIP3    H1 9546   5.157   1.552   1.373 -0.9105  1.4009  0.8284
 3180TIP3    H2 9547   5.201   1.620   1.245  0.9141 -2.8590 -1.0096
 3181TIP3   OH2 9548   4.670   1.202   4.294  0.2763 -0.0751  0.0588
 3181TIP3    H1 9549   4.680   1.281   4.347  0.8882 -0.7679  1.0033
 3181TIP3    H2 9550   4.757   1.162   4.292 -0.2193 -1.2293  0.4154
 3182TIP3   OH2 9551   2.321   3.123   0.134  0.1522 -0.1267  0.1660
 3182TIP3    H1 9552   2.260   3.182   0.090 -0.2234 -0.0273  0.8018
 3182TIP3    H2 9553   2.404   3.170   0.135  0.3486 -0.4068 -1.0153
 3183TIP3   OH2 9554   2.654   2.189   4.825 -0.1293 -0.3281 -0.4892
 3183TIP3    H1 9555   2.722   2.232   4.877 -1.0533 -0.4579  0.8797
 3183TIP3    H2 9556   2.698   2.165   4.743  1.2443  0.3104  0.0248
 3184TIP3   OH2 9557   4.936   4.431   4.487 -0.4046 -0.4690 -0.7373
 3184TIP3    H1 9558   4.948   4.481   4.568  0.9576 -1.4462 -0.2935
 3184TIP3    H2 9559   4.950   4.495   4.417  0.1939  0.0147 -0.1869
 3185TIP3   OH2 9560   2.905   3.716   3.147  0.7387 -0.0203  0.8576
 3185TIP3    H1 9561   2.811   3.701   3.135  0.6547  1.8457 -1.5916
 3185TIP3    H2 9562   2.945   3.633   3.121 -0.1838 -0.4617  0.8036
 3186TIP3   OH2 9563   5.036   0.177   0.909 -0.2692 -0.3397  0.0183
 3186TIP3    H1 9564   5.079   0.241   0.853 -2.5058 -0.6303 -2.1886
 3186TIP3    H2 9565   5.104   0.151   0.972  2.0305  0.8532 -1.8070
 3187TIP3   OH2 9566   6.199   4.203   4.850  0.3048  0.7398  0.1956
 3187TIP3    H1 9567   6.122   4.237   4.896  0.6896 -0.5276  1.8785
 3187TIP3    H2 9568   6.167   4.125   4.805  0.6328 -0.0090  1.2087
 3188TIP3   OH2 9569   1.532   4.559   3.608  0.1763  0.0438 -1.0030
 3188TIP3    H1 9570   1.602   4.602   3.558  0.9541  3.0257  2.2317
 3188TIP3    H2 9571   1.566   4.473   3.629  2.7612  1.2019 -0.0109
 3189TIP3   OH2 9572   0.965   2.402   4.097  0.7976 -0.1673 -0.1551
 3189TIP3    H1 9573   0.876   2.396   4.063  1.3539 -0.7045 -1.5725
 3189TIP3    H2 9574   1.005   2.471   4.045  0.9951  0.6265  1.0170
 3190TIP3   OH2 9575   3.667   5.276   0.077 -0.2711  0.3109 -0.2354
 3190TIP3    H1 9576   3.629   5.286  -0.010  0.4383  0.4037 -0.5430
 3190TIP3    H2 9577   3.593   5.249   0.132 -0.9066  1.0942 -0.6812
 3191TIP3   OH2 9578   1.757   5.508   4.295 -0.3979  0.1187 -0.2367
 3191TIP3    H1 9579   1.842   5.478   4.263 -0.2827 -0.7867  0.8555
 3191TIP3    H2 9580   1.698   5.436   4.274 -0.7732  0.4737 -0.4068
 3192TIP3   OH2 9581   0.820   2.245   0.202  0.2119 -0.1592 -0.7793
 3192TIP3    H1 9582   0.726   2.261   0.211  0.1844 -0.2656 -0.8798
 3192TIP3    H2 9583   0.836   2.254   0.108  0.2150 -0.6392 -0.8240
 3193TIP3   OH2 9584   4.985   5.636   1.281 -0.1643  0.3247 -0.8527
 3193TIP3    H1 9585   4.953   5.556   1.322 -0.1713  0.3931 -0.7246
 3193TIP3    H2 9586   5.071   5.651   1.321 -0.1990  0.4263 -0.8151
 3194TIP3   OH2 9587   2.020   5.697   3.415  0.4810  0.0330 -0.2531
 3194TIP3    H1 9588   1.939   5.735   3.378 -0.5292 -0.2174  1.5972
 3194TIP3    H2 9589   2.090   5.738   3.365 -0.7074  1.8566 -0.5107
 3195TIP3   OH2 9590   2.521   3.651   0.679  0.2454 -0.5345  0.0207
 3195TIP3    H1 9591   2.475   3.681   0.601  1.3705 -0.3568 -0.5892
 3195TIP3    H2 9592   2.481   3.700   0.751 -3.1177 -3.0476  0.0984
 3196TIP3   OH2 9593   4.674   0.774   2.792 -0.1538  0.7510  0.7160
 3196TIP3    H1 9594   4.752   0.790   2.738 -1.5623  0.7600 -1.4480
 3196TIP3    H2 9595   4.644   0.861   2.816  0.1284  0.7739  0.9915
 3197TIP3   OH2 9596   5.590   5.025   3.799 -0.2280 -0.1253 -0.0473
 3197TIP3    H1 9597   5.619   5.047   3.887 -1.2047  2.9793 -0.3983
 3197TIP3    H2 9598   5.541   4.943   3.810  0.3573 -0.2455  2.1254
 3198TIP3   OH2 9599   6.166   1.573   3.574 -0.4964  0.4956  0.3109
 3198TIP3    H1 9600   6.139   1.527   3.654  1.1451 -1.4218 -0.1803
 3198TIP3    H2 9601   6.127   1.523   3.503  0.4589  0.4540 -0.1990
 3199TIP3   OH2 9602   1.569   4.877   1.698  0.4728 -0.5187  0.4146
 3199TIP3    H1 9603   1.555   4.971   1.700 -1.7393 -0.7557 -0.6501
 3199TIP3    H2 9604   1.612   4.861   1.613 -0.3916 -0.5819 -0.0197
 3200TIP3   OH2 9605   1.266   4.617   0.892  0.6352 -0.1308  0.4502
 3200TIP3    H1 9606   1.286   4.711   0.890  1.6091 -0.3239  0.6001
 3200TIP3    H2 9607   1.237   4.600   0.982 -0.1173  0.1262  0.2671
 3201TIP3   OH2 9608   2.377   3.303   4.207  0.2699 -0.8715 -0.4892
 3201TIP3    H1 9609   2.340   3.227   4.164  0.7557 -1.4316  0.0627
 3201TIP3    H2 9610   2.304   3.365   4.214  0.5255 -0.0233 -3.6243
 3202TIP3   OH2 9611   2.253   4.204   3.684 -0.3098 -1.0030  0.3831
 3202TIP3    H1 9612   2.333   4.156   3.705 -0.5639 -2.2108 -1.1926
 3202TIP3    H2 9613   2.273   4.250   3.602 -0.9924 -0.7497  0.3490
 3203TIP3   OH2 9614   3.836   2.138   4.634 -0.2119  0.3760 -0.6214
 3203TIP3    H1 9615   3.924   2.174   4.648  0.2311 -0.9322  0.1287
 3203TIP3    H2 9616   3.847   2.044   4.643 -1.9496  0.2636  0.9371
 3204TIP3   OH2 9617   3.898   3.141   1.148 -0.5761  0.3632  0.1416
 3204TIP3    H1 9618   3.975   3.166   1.199  0.6282 -2.4702 -0.1333
 3204TIP3    H2 9619   3.828   3.133   1.213  0.1255  0.0181  0.8683
 3205TIP3   OH2 9620   4.215   1.788   0.778  0.0821  0.3098  0.7491
 3205TIP3    H1 9621   4.275   1.726   0.819  0.4553 -0.5976 -1.0418
 3205TIP3    H2 9622   4.264   1.823   0.703 -0.8871  1.1707  0.4832
 3206TIP3   OH2 9623   3.001   4.332   0.908  0.1004 -0.1343 -0.1406
 3206TIP3    H1 9624   2.992   4.361   0.817 -0.5202 -0.4740 -0.1886
 3206TIP3    H2 9625   2.915   4.347   0.947  0.0480 -0.9892  0.0948
 3207TIP3   OH2 9626   5.033   5.145   1.633  0.2316  0.2009  0.3930
 3207TIP3    H1 9627   5.069   5.169   1.548  1.1057  0.7754  0.9154
 3207TIP3    H2 9628   5.085   5.070   1.660 -0.7072 -0.6248 -0.0090
 3208TIP3   OH2 9629   1.871   0.456   3.500 -0.8102  0.5351 -0.2369
 3208TIP3    H1 9630   1.791   0.413   3.469 -1.1402  0.7851  0.2453
 3208TIP3    H2 9631   1.938   0.388   3.494 -0.7936  0.6549 -1.7360
 3209TIP3   OH2 9632   5.386   5.284   0.793 -0.1866  0.3042 -0.5240
 3209TIP3    H1 9633   5.328   5.282   0.868  0.1720  1.7016 -0.1759
 3209TIP3    H2 9634   5.329   5.297   0.718 -0.5048 -0.6216 -0.4483
 3210TIP3   OH2 9635   3.758   0.690   1.514  0.1082 -0.1753 -0.4079
 3210TIP3    H1 9636   3.834   0.734   1.476  1.0906 -1.1865  0.3208
 3210TIP3    H2 9637   3.695   0.687   1.442  0.4903  1.2683 -0.8331
 3211TIP3   OH2 9638   3.723   5.237   1.017  0.3649  0.0031 -0.5824
 3211TIP3    H1 9639   3.701   5.280   0.934 -2.6462 -0.5644 -0.1707
 3211TIP3    H2 9640   3.660   5.166   1.025  1.4870 -0.8474  1.5751
 3212TIP3   OH2 9641   6.254   1.358   3.343  0.0397  0.2599  0.1100
 3212TIP3    H1 9642   6.300   1.321   3.267  0.4627 -0.6954  0.8105
 3212TIP3    H2 9643   6.313   1.343   3.417 -0.4396  1.0296  0.6670
 3213TIP3   OH2 9644   1.326   5.640   1.331 -0.0643  0.2414  0.7828
 3213TIP3    H1 9645   1.243   5.595   1.320 -0.0444  0.3086  0.3689
 3213TIP3    H2 9646   1.306   5.732   1.313  0.6459 -0.0784 -2.0235
 3214TIP3   OH2 9647   2.799   1.645   5.206  0.7231  0.4988  0.0446
 3214TIP3    H1 9648   2.884   1.602   5.196 -0.0700 -0.9738 -0.6186
 3214TIP3    H2 9649   2.781   1.681   5.119  0.3283  0.1376 -0.0268
 3215TIP3   OH2 9650   4.434   0.267   0.649 -0.6196 -0.0952  0.2544
 3215TIP3    H1 9651   4.496   0.297   0.715  0.7365 -1.3858 -0.3690
 3215TIP3    H2 9652   4.389   0.346   0.620  2.2657  1.2867 -0.7879
 3216TIP3   OH2 9653   3.640   2.345   4.641 -0.1563 -0.2905 -0.2131
 3216TIP3    H1 9654   3.603   2.367   4.555  0.9177 -1.7712 -1.1002
 3216TIP3    H2 9655   3.700   2.273   4.623  1.8033  0.8369  1.4247
 3217TIP3   OH2 9656   1.152   1.015   4.749  0.1407 -0.1309 -0.4343
 3217TIP3    H1 9657   1.076   1.023   4.692  0.4250  2.2354 -0.5598
 3217TIP3    H2 9658   1.227   1.029   4.691  0.4283  2.6796  0.4815
 3218TIP3   OH2 9659   1.174   4.176   3.911  0.1935  0.3531  0.2570
 3218TIP3    H1 9660   1.246   4.196   3.851 -1.0799  1.3858 -1.0106
 3218TIP3    H2 9661   1.195   4.090   3.946  0.6924 -0.5890 -2.1835
 3219TIP3   OH2 9662   3.636   0.575   0.298  0.1899  0.2478 -1.3164
 3219TIP3    H1 9663   3.583   0.496   0.312 -0.9820  1.1280 -0.4873
 3219TIP3    H2 9664   3.617   0.601   0.208 -0.1756  0.1131 -1.2817
 3220TIP3   OH2 9665   2.338   1.970   1.793 -0.5932 -0.4513 -0.0327
 3220TIP3    H1 9666   2.407   1.965   1.859 -0.6356  0.0088  0.0514
 3220TIP3    H2 9667   2.362   2.044   1.738 -0.9674 -0.3434 -0.0567
 3221TIP3   OH2 9668   2.068   3.194   4.195 -0.2958  0.4460  0.0989
 3221TIP3    H1 9669   2.107   3.111   4.223 -0.6785  0.3245  0.2710
 3221TIP3    H2 9670   2.035   3.176   4.107 -1.5077  0.0471  0.6246
 3222TIP3   OH2 9671   2.804   0.869   2.878 -0.1301 -0.0408  0.1880
 3222TIP3    H1 9672   2.813   0.858   2.783 -0.2701  0.7522  0.0747
 3222TIP3    H2 9673   2.777   0.783   2.910  0.2247 -0.3956 -0.4527
 3223TIP3   OH2 9674   1.230   2.736   0.579  0.4249 -0.2070  0.1016
 3223TIP3    H1 9675   1.221   2.677   0.654  1.0923  0.5727  0.8211
 3223TIP3    H2 9676   1.163   2.707   0.518  1.1054 -2.0500  0.1793
 3224TIP3   OH2 9677   5.260   5.812   0.071 -0.0477  0.3553  0.2058
 3224TIP3    H1 9678   5.195   5.756   0.028 -1.2551  1.7202  0.1589
 3224TIP3    H2 9679   5.323   5.833   0.002  0.5760 -1.1176  0.2891
 3225TIP3   OH2 9680   3.583   4.826   4.988  0.0741  0.0985 -0.1505
 3225TIP3    H1 9681   3.531   4.808   4.910 -0.6238  0.2020  0.2802
 3225TIP3    H2 9682   3.529   4.885   5.041  0.9822  0.8756 -0.0633
 3226TIP3   OH2 9683   4.472   2.751   3.377 -0.0216  0.0534  0.1687
 3226TIP3    H1 9684   4.446   2.659   3.383 -1.7758  0.3857 -1.2056
 3226TIP3    H2 9685   4.421   2.795   3.446  1.7367 -0.1274  1.6450
 3227TIP3   OH2 9686   4.101   2.726   2.265  0.0337 -0.0613 -0.3355
 3227TIP3    H1 9687   4.179   2.671   2.279  0.1770 -0.2884 -1.8442
 3227TIP3    H2 9688   4.110   2.797   2.328  0.6682 -0.9157  0.5638
 3228TIP3   OH2 9689   1.800   3.507   0.457 -0.7331  0.1129 -0.4743
 3228TIP3    H1 9690   1.829   3.572   0.392  0.0048  0.7525  0.4775
 3228TIP3    H2 9691   1.877   3.489   0.509 -1.3502 -0.3229  0.3091
 3229TIP3   OH2 9692   2.633   0.913   3.119  0.0586  0.1090 -0.2398
 3229TIP3    H1 9693   2.642   0.913   3.024  0.7737  0.3403 -0.1735
 3229TIP3    H2 9694   2.547   0.872   3.134  0.1362 -0.3450 -0.9624
 3230TIP3   OH2 9695   6.277   1.512   4.957  0.2862 -0.1207 -0.3691
 3230TIP3    H1 9696   6.288   1.456   5.034 -2.0274  0.0146  0.1528
 3230TIP3    H2 9697   6.228   1.458   4.895  0.8165  0.2812 -1.1541
 3231TIP3   OH2 9698   2.653   5.400   2.326  0.3868  0.6481 -0.1125
 3231TIP3    H1 9699   2.668   5.403   2.421  1.3265  0.9887 -0.2671
 3231TIP3    H2 9700   2.565   5.363   2.317  1.0438 -1.2847  0.8322
 3232TIP3   OH2 9701   5.162   0.582   4.776 -0.1730 -0.2622  0.0109
 3232TIP3    H1 9702   5.143   0.570   4.683  2.9726  0.5351 -0.8688
 3232TIP3    H2 9703   5.203   0.499   4.803 -0.3593 -0.2087  0.4610
 3233TIP3   OH2 9704   1.934   5.467   2.205  0.0416 -0.6516  0.3001
 3233TIP3    H1 9705   1.982   5.550   2.209 -0.6149 -0.1067 -1.9078
 3233TIP3    H2 9706   1.994   5.407   2.160 -1.0122 -0.1384 -1.9101
 3234TIP3   OH2 9707   6.060   5.232   0.853  0.3511  0.4329 -0.9868
 3234TIP3    H1 9708   5.981   5.279   0.827 -0.4342 -0.5975 -0.5428
 3234TIP3    H2 9709   6.124   5.301   0.872 -0.8121  1.3380 -0.1755
 3235TIP3   OH2 9710   2.863   4.437   4.209 -0.0914  0.1321  0.6058
 3235TIP3    H1 9711   2.783   4.398   4.172 -0.9383  2.0233  0.3537
 3235TIP3    H2 9712   2.859   4.415   4.302 -0.6404 -0.2164  0.5111
 3236TIP3   OH2 9713   0.252   2.196   4.457  0.5609 -0.4380  0.1654
 3236TIP3    H1 9714   0.291   2.276   4.421  0.6372  0.0266  1.2365
 3236TIP3    H2 9715   0.161   2.219   4.473  0.1141 -1.1614 -1.2531
 3237TIP3   OH2 9716   4.270   1.238   3.318 -0.2856  0.2345 -0.2430
 3237TIP3    H1 9717   4.321   1.259   3.396 -2.3134  0.2512  1.1665
 3237TIP3    H2 9718   4.269   1.143   3.315 -2.0660  0.1600  1.1361
 3238TIP3   OH2 9719   0.691   4.291   1.585  0.3532  0.4794  0.2157
 3238TIP3    H1 9720   0.623   4.274   1.519  0.8773 -0.9871  0.0125
 3238TIP3    H2 9721   0.738   4.368   1.552  1.0942 -0.6625 -1.5649
 3239TIP3   OH2 9722   3.186   1.947   0.941  0.0619 -0.2221  0.2591
 3239TIP3    H1 9723   3.267   1.965   0.989  0.0289  0.5023  0.0629
 3239TIP3    H2 9724   3.212   1.884   0.874 -0.0230 -1.7407  1.5834
 3240TIP3   OH2 9725   2.360   5.458   5.022 -0.3067  0.4185  0.7697
 3240TIP3    H1 9726   2.353   5.553   5.021 -0.2254  0.4342 -0.3023
 3240TIP3    H2 9727   2.394   5.436   4.935 -2.9998 -0.7602 -0.1091
 3241TIP3   OH2 9728   2.445   5.249   4.608 -0.7407 -0.3212 -0.3324
 3241TIP3    H1 9729   2.539   5.238   4.599 -0.1698  3.2251 -0.1824
 3241TIP3    H2 9730   2.413   5.254   4.518 -0.8243 -1.5020 -0.3826
 3242TIP3   OH2 9731   6.050   3.113   0.417 -0.5650  0.0006  0.8223
 3242TIP3    H1 9732   6.139   3.086   0.396  0.7648  2.5857  2.6816
 3242TIP3    H2 9733   6.041   3.199   0.378 -2.2427 -0.1499  0.7936
 3243TIP3   OH2 9734   1.054   3.933   2.091  1.0004  0.7661 -0.3038
 3243TIP3    H1 9735   0.982   3.906   2.034  2.2535 -1.4701 -0.9687
 3243TIP3    H2 9736   1.016   3.937   2.178 -0.5545  2.5542 -0.9928
 3244TIP3   OH2 9737   0.391   5.927   0.516  0.4584 -0.1554  0.2961
 3244TIP3    H1 9738   0.312   5.948   0.565  0.3699 -0.2339  0.1887
 3244TIP3    H2 9739   0.364   5.932   0.424  1.3289  2.9441  0.0957
 3245TIP3   OH2 9740   5.104   4.365   2.449 -0.2625  0.7290  0.8111
 3245TIP3    H1 9741   5.181   4.335   2.497  0.0832  2.3390  1.3296
 3245TIP3    H2 9742   5.087   4.452   2.483 -1.2190  1.1341 -0.6065
 3246TIP3   OH2 9743   3.347   1.362   2.524  0.4193 -0.1070 -0.4526
 3246TIP3    H1 9744   3.396   1.308   2.462  1.1231 -0.7455  0.6350
 3246TIP3    H2 9745   3.397   1.444   2.529  0.6574 -0.2642 -0.3057
 3247TIP3   OH2 9746   3.930   0.881   4.816  0.0889  0.0628  0.8019
 3247TIP3    H1 9747   3.944   0.947   4.748  1.4287 -1.6601 -0.6999
 3247TIP3    H2 9748   3.932   0.798   4.769  1.1116 -1.2117  2.9569
 3248TIP3   OH2 9749   1.949   4.178   1.063 -0.1746  0.0478 -0.0341
 3248TIP3    H1 9750   1.998   4.132   0.995  1.2564  0.6344  0.5556
 3248TIP3    H2 9751   1.995   4.157   1.145 -2.6765 -1.7929  1.0204
 3249TIP3   OH2 9752   1.312   5.659   2.880 -0.0291  0.4195  0.1840
 3249TIP3    H1 9753   1.266   5.600   2.940 -1.1758 -0.2397 -1.2681
 3249TIP3    H2 9754   1.303   5.617   2.794  1.1583  1.5538 -0.5242
 3250TIP3   OH2 9755   0.047   0.486   0.831  0.2534 -0.9623  0.3148
 3250TIP3    H1 9756   0.044   0.411   0.772  1.0650  0.2076 -1.2920
 3250TIP3    H2 9757  -0.018   0.548   0.795  2.0248  0.5163 -0.5040
 3251TIP3   OH2 9758   2.942   0.889   0.210  0.1191  0.4718  0.1046
 3251TIP3    H1 9759   2.915   0.871   0.120  0.1176  0.8014  0.0402
 3251TIP3    H2 9760   2.972   0.804   0.242  0.9809  0.5284 -0.5022
 3252TIP3   OH2 9761   1.409   3.880   0.608  0.0154 -0.4332  0.4799
 3252TIP3    H1 9762   1.376   3.890   0.697  0.9849  0.4231  0.7520
 3252TIP3    H2 9763   1.370   3.797   0.577 -2.0260  0.2942  0.9311
 3253TIP3   OH2 9764   5.935   4.631   2.579  0.0405 -0.1455 -0.1099
 3253TIP3    H1 9765   5.929   4.615   2.673 -3.1659 -0.8106 -0.3128
 3253TIP3    H2 9766   5.853   4.675   2.557  0.9705  0.5021 -2.5148
 3254TIP3   OH2 9767   0.294   1.908   2.047  0.6584  0.0689  0.2106
 3254TIP3    H1 9768   0.388   1.895   2.061  1.1761  2.3444 -0.7206
 3254TIP3    H2 9769   0.289   1.970   1.975 -1.5784 -0.0414  0.2171
 3255TIP3   OH2 9770   0.064   3.068   4.489  0.4139 -0.0052 -0.2393
 3255TIP3    H1 9771   0.090   3.101   4.403  0.9087 -0.0981 -0.1245
 3255TIP3    H2 9772   0.146   3.052   4.535  0.1796  2.4467  1.2007
 3256TIP3   OH2 9773   3.116   4.397   4.503  0.2307  0.2381  0.7913
 3256TIP3    H1 9774   3.103   4.302   4.495  0.3434  0.3315 -1.0596
 3256TIP3    H2 9775   3.028   4.434   4.497  0.3370  0.3237 -0.7081
 3257TIP3   OH2 9776   1.978   0.093   3.007 -0.1339  0.4827  0.6459
 3257TIP3    H1 9777   1.891   0.055   2.998 -0.6495  1.9123 -1.0107
 3257TIP3    H2 9778   1.968   0.157   3.077 -0.3664  0.4668  0.6304
 3258TIP3   OH2 9779   1.013   2.731   2.919 -0.6360  0.3504 -0.1218
 3258TIP3    H1 9780   1.086   2.699   2.867 -1.5527  0.7368 -1.7018
 3258TIP3    H2 9781   1.011   2.673   2.996 -0.4103 -1.4875 -1.4350
 3259TIP3   OH2 9782   5.741   0.220   0.046 -0.3226 -0.4395 -0.5636
 3259TIP3    H1 9783   5.794   0.253  -0.026 -0.3344  0.5843 -0.1178
 3259TIP3    H2 9784   5.800   0.221   0.122 -0.4838 -0.9422 -0.4257
 3260TIP3   OH2 9785   5.744   3.625   4.355 -0.4494 -0.0821 -0.0698
 3260TIP3    H1 9786   5.724   3.546   4.405  0.6916 -1.2151 -1.3445
 3260TIP3    H2 9787   5.817   3.665   4.402 -1.3464  0.5395  0.8618
 3261TIP3   OH2 9788   6.253   1.962   3.814  0.0950 -0.3788 -0.6215
 3261TIP3    H1 9789   6.244   2.051   3.779 -0.0440 -0.8141 -1.7145
 3261TIP3    H2 9790   6.163   1.929   3.818  0.1529 -0.4981 -0.2843
 3262TIP3   OH2 9791   4.812   3.480   0.053  0.4772 -0.0503 -0.7376
 3262TIP3    H1 9792   4.877   3.443  -0.007  1.9128  0.1436  0.6215
 3262TIP3    H2 9793   4.846   3.567   0.074  0.6670 -0.5469  1.2406
 3263TIP3   OH2 9794   4.451   2.341   0.878 -0.5406  0.2434 -0.4811
 3263TIP3    H1 9795   4.366   2.323   0.839 -2.5901  3.4228  1.9318
 3263TIP3    H2 9796   4.453   2.288   0.958  0.1714 -0.4590 -0.9512
 3264TIP3   OH2 9797   4.171   0.596   1.344 -0.0456 -0.4493  0.0022
 3264TIP3    H1 9798   4.153   0.689   1.328 -2.3113 -1.0505 -1.4029
 3264TIP3    H2 9799   4.265   0.586   1.327  0.3834  1.6577  0.8099
 3265TIP3   OH2 9800   3.829   5.482   2.805 -0.2423  0.2161  0.1109
 3265TIP3    H1 9801   3.821   5.524   2.719 -0.4721  1.2041  0.6037
 3265TIP3    H2 9802   3.739   5.460   2.829 -0.1453 -0.3507 -0.0433
 3266TIP3   OH2 9803   3.149   4.714   3.491  0.0693  0.4043  0.3210
 3266TIP3    H1 9804   3.139   4.801   3.531  0.9524  1.1411 -0.9922
 3266TIP3    H2 9805   3.234   4.683   3.521 -0.7022 -0.5252  1.6669
 3267TIP3   OH2 9806   0.084   0.567   2.860 -0.3767  0.0296 -0.2921
 3267TIP3    H1 9807   0.116   0.597   2.775  1.4033  1.5043  0.8353
 3267TIP3    H2 9808   0.009   0.624   2.879 -0.4277  0.0706 -0.6074
 3268TIP3   OH2 9809   0.277   3.333   1.823 -0.3249  0.3336  0.1668
 3268TIP3    H1 9810   0.332   3.360   1.750 -1.0010 -0.3597 -0.6117
 3268TIP3    H2 9811   0.330   3.271   1.872  0.2222  0.9867  0.4217
 3269TIP3   OH2 9812   4.596   0.029   5.144 -0.1466 -0.8664 -0.0085
 3269TIP3    H1 9813   4.652   0.026   5.066 -0.0719  2.4791 -0.1967
 3269TIP3    H2 9814   4.655   0.008   5.216  0.6580 -0.3765 -0.5051
 3270TIP3   OH2 9815   4.776   0.153   0.943 -0.4548  0.1229  0.0703
 3270TIP3    H1 9816   4.871   0.159   0.931 -0.2116 -1.9394  0.5784
 3270TIP3    H2 9817   4.742   0.131   0.856  0.0182 -3.0447  0.5871
 3271TIP3   OH2 9818   0.469   3.413   3.812 -0.0208 -0.1477 -0.1661
 3271TIP3    H1 9819   0.480   3.322   3.785  1.1985 -0.0521 -0.0694
 3271TIP3    H2 9820   0.542   3.459   3.770 -1.5634  1.1217 -1.5997
 3272TIP3   OH2 9821   1.548   4.768   0.334 -0.2384  0.2970  0.1321
 3272TIP3    H1 9822   1.611   4.787   0.403 -2.1682  1.4142  1.7203
 3272TIP3    H2 9823   1.565   4.834   0.267  1.7977 -0.9288 -0.6283
 3273TIP3   OH2 9824   2.730   3.716   0.217  0.3920  0.1461  0.1518
 3273TIP3    H1 9825   2.797   3.653   0.244 -1.1293 -0.5762  2.5025
 3273TIP3    H2 9826   2.755   3.740   0.127  3.1340 -0.9111  0.5366
 3274TIP3   OH2 9827   1.900   0.580   0.520  0.1943 -0.3522 -0.1352
 3274TIP3    H1 9828   1.993   0.581   0.500  0.1254  1.8457 -0.5444
 3274TIP3    H2 9829   1.859   0.538   0.445  0.8418 -1.5894  0.1722
 3275TIP3   OH2 9830   2.216   3.610   4.869 -0.0855  0.6113 -0.0173
 3275TIP3    H1 9831   2.272   3.666   4.923  1.1034 -0.2262 -0.3382
 3275TIP3    H2 9832   2.148   3.579   4.929  0.2276  1.0541  0.5765
 3276TIP3   OH2 9833   5.159   3.414   0.533  0.5981  0.4246 -0.3890
 3276TIP3    H1 9834   5.201   3.344   0.483 -0.6111  0.7110 -1.9000
 3276TIP3    H2 9835   5.231   3.472   0.559  1.3220  0.0880 -1.5437
 3277TIP3   OH2 9836   3.932   5.571   4.384  0.2263  0.2755  0.2635
 3277TIP3    H1 9837   3.844   5.551   4.416  0.1643  0.0871 -0.0252
 3277TIP3    H2 9838   3.982   5.490   4.397 -0.2732 -0.4214 -1.7925
 3278TIP3   OH2 9839   2.948   0.724   2.178  0.2263  0.2405  0.3173
 3278TIP3    H1 9840   2.899   0.806   2.179  0.9243  0.6739 -0.1941
 3278TIP3    H2 9841   3.032   0.745   2.217  0.8009  0.0312 -0.7587
 3279TIP3   OH2 9842   3.293   1.796   1.310 -0.7753 -0.6393 -0.3878
 3279TIP3    H1 9843   3.352   1.734   1.353 -0.4004 -0.4565 -0.6355
 3279TIP3    H2 9844   3.344   1.876   1.301 -0.8805 -0.6383 -1.0666
 3280TIP3   OH2 9845   2.368   3.691   1.114  0.0591 -0.1438  0.2769
 3280TIP3    H1 9846   2.288   3.687   1.062  0.0917  1.1191  0.1012
 3280TIP3    H2 9847   2.348   3.642   1.193  0.1288 -2.4352 -1.0314
 3281TIP3   OH2 9848   3.778   3.171   3.986 -0.4407 -0.6448 -0.2636
 3281TIP3    H1 9849   3.793   3.078   4.004  0.2094 -0.4691  0.1242
 3281TIP3    H2 9850   3.862   3.202   3.953 -0.6913 -0.2147 -0.4999
 3282TIP3   OH2 9851   4.818   3.661   4.548 -0.6703  0.4823  0.5876
 3282TIP3    H1 9852   4.806   3.594   4.481  0.9012 -0.5255  1.2626
 3282TIP3    H2 9853   4.819   3.744   4.499 -0.9021 -0.1163 -0.4509
 3283TIP3   OH2 9854   5.007   1.881   1.567  0.1806 -0.2533  0.2938
 3283TIP3    H1 9855   5.054   1.821   1.624  0.2232 -0.1331  0.3866
 3283TIP3    H2 9856   5.004   1.837   1.482  0.8202 -0.0803  0.1834
 3284TIP3   OH2 9857   3.460   3.304   3.376  0.8363 -0.2806 -0.2536
 3284TIP3    H1 9858   3.449   3.223   3.326  1.4174  0.0545 -0.9324
 3284TIP3    H2 9859   3.510   3.362   3.318 -0.0101  0.7523  0.0286
 3285TIP3   OH2 9860   5.045   1.464   2.127 -0.3078  0.0479  0.5988
 3285TIP3    H1 9861   4.962   1.500   2.097  0.1776  1.3234  0.7325
 3285TIP3    H2 9862   5.052   1.380   2.082 -2.5574 -1.0113  2.0237
 3286TIP3   OH2 9863   0.257   1.167   3.957 -0.7950  0.3939  0.6700
 3286TIP3    H1 9864   0.257   1.145   4.050  0.1573  1.0648  0.8521
 3286TIP3    H2 9865   0.337   1.126   3.922 -0.7886  0.7110  0.3013
 3287TIP3   OH2 9866   0.471   2.050  -0.016 -0.3277  0.5970 -0.7045
 3287TIP3    H1 9867   0.475   2.138   0.022  0.0043  0.2089  0.1784
 3287TIP3    H2 9868   0.502   1.992   0.053  1.9046  0.0096 -2.0988
 3288TIP3   OH2 9869   6.227   5.778   0.661 -0.3804  0.0861 -0.0980
 3288TIP3    H1 9870   6.138   5.799   0.689  0.1996  1.9349  0.4968
 3288TIP3    H2 9871   6.236   5.821   0.576  0.8636  2.5679  1.1803
 3289TIP3   OH2 9872   5.801   4.940   0.647  0.1899  0.5765 -0.2563
 3289TIP3    H1 9873   5.820   5.001   0.576  0.8844  1.3788  0.6083
 3289TIP3    H2 9874   5.750   4.991   0.710  0.9344  0.3346  0.5620
 3290TIP3   OH2 9875   0.951   0.384   0.539  0.2701 -0.1569  0.0497
 3290TIP3    H1 9876   0.874   0.413   0.587 -0.7874 -2.0588 -0.3688
 3290TIP3    H2 9877   0.959   0.445   0.466 -0.8410  0.0721  0.1140
 3291TIP3   OH2 9878   1.199   3.028   0.063 -0.1697 -0.0384  0.1818
 3291TIP3    H1 9879   1.121   2.994   0.018 -0.0606 -0.8359  0.5882
 3291TIP3    H2 9880   1.254   2.951   0.078  0.2023  0.3578  0.8840
 3292TIP3   OH2 9881   4.725   3.320   2.571 -0.1856  0.0651  0.2484
 3292TIP3    H1 9882   4.818   3.338   2.585 -0.2163  0.0651  0.4589
 3292TIP3    H2 9883   4.682   3.354   2.650 -0.3184 -0.3005  0.3339
 3293TIP3   OH2 9884   0.283   4.830   2.201 -0.4813  0.2729 -0.7058
 3293TIP3    H1 9885   0.326   4.888   2.263  0.8026 -0.4955 -0.8295
 3293TIP3    H2 9886   0.255   4.755   2.253 -1.4389  0.6235 -0.6834
 3294TIP3   OH2 9887   0.345   4.536   2.976  0.1314  0.0419 -0.6705
 3294TIP3    H1 9888   0.378   4.564   2.891  1.4824 -1.8839 -0.8422
 3294TIP3    H2 9889   0.387   4.451   2.992  0.1523  0.4554  2.0379
 3295TIP3   OH2 9890   3.297   3.129   0.220  0.1853  0.2493  0.3039
 3295TIP3    H1 9891   3.365   3.197   0.225  2.0010 -1.4369  0.0133
 3295TIP3    H2 9892   3.319   3.069   0.291 -1.0609 -0.2966  0.2397
 3296TIP3   OH2 9893   6.148   3.458   0.541  0.1087  0.4572 -0.1694
 3296TIP3    H1 9894   6.179   3.383   0.593  0.0257  0.8166  0.4135
 3296TIP3    H2 9895   6.226   3.513   0.532 -0.0188  0.6753  0.0714
 3297TIP3   OH2 9896   1.950   4.310   3.225  0.3789 -0.4511 -0.2867
 3297TIP3    H1 9897   1.885   4.380   3.230 -0.8293 -1.5237 -0.4778
 3297TIP3    H2 9898   1.917   4.242   3.284  0.9474 -1.3085 -0.9218
 3298TIP3   OH2 9899   5.961   1.656   5.034 -0.4224  0.4994  0.5418
 3298TIP3    H1 9900   5.914   1.625   4.957  0.0572  0.8895  0.0892
 3298TIP3    H2 9901   6.004   1.578   5.069  1.4785  0.7489 -1.0754
 3299TIP3   OH2 9902   5.306   3.785   5.076 -0.5642 -0.2741 -1.1199
 3299TIP3    H1 9903   5.269   3.866   5.110 -1.4149 -0.2977 -1.9327
 3299TIP3    H2 9904   5.250   3.716   5.110 -0.8267 -0.3779 -1.7454
 3300TIP3   OH2 9905   4.670   0.944   0.067 -0.1731  0.4630  0.5770
 3300TIP3    H1 9906   4.713   0.882   0.008  0.9149  0.3268  1.4859
 3300TIP3    H2 9907   4.733   1.014   0.078 -0.5275  0.6786  1.2629
 3301TIP3   OH2 9908   2.031   3.478   3.758 -0.3040  0.1844 -0.4001
 3301TIP3    H1 9909   2.029   3.477   3.662 -0.1445 -0.0438 -0.4003
 3301TIP3    H2 9910   1.939   3.487   3.784 -0.5562 -1.6420 -0.5448
 3302TIP3   OH2 9911   2.258   3.856   2.838  0.2794  0.2852 -0.8409
 3302TIP3    H1 9912   2.212   3.772   2.846 -0.4501  0.8398  1.5880
 3302TIP3    H2 9913   2.188   3.921   2.835  0.8525  0.9795  0.3013
 3303TIP3   OH2 9914   3.351   1.933   2.449 -0.3861 -0.9839  0.7705
 3303TIP3    H1 9915   3.429   1.889   2.483 -0.5501 -0.0534  2.4719
 3303TIP3    H2 9916   3.385   2.013   2.410 -0.3781 -1.1384  0.4618
 3304TIP3   OH2 9917   4.853   5.116   0.050 -0.1294  0.5260  0.4341
 3304TIP3    H1 9918   4.795   5.056   0.097 -1.0474  1.4182  0.4714
 3304TIP3    H2 9919   4.924   5.061   0.018 -0.9964 -0.5956  0.3999
 3305TIP3   OH2 9920   0.043   5.815   3.252 -0.1829  0.4329 -0.0719
 3305TIP3    H1 9921   0.122   5.852   3.290 -0.7499  0.0095  1.5794
 3305TIP3    H2 9922  -0.006   5.779   3.326 -1.6668  0.1895 -1.1079
 3306TIP3   OH2 9923   2.346   2.846   0.079 -0.1709  0.0572 -0.2172
 3306TIP3    H1 9924   2.366   2.928   0.125 -0.1560  0.4027 -0.8365
 3306TIP3    H2 9925   2.321   2.873  -0.009 -1.5394 -0.4982 -0.0268
 3307TIP3   OH2 9926   3.648   3.407   2.898  0.0237 -0.0706  0.4707
 3307TIP3    H1 9927   3.732   3.370   2.924 -0.2269  0.2825  1.8749
 3307TIP3    H2 9928   3.619   3.354   2.824  1.0689 -0.7470  0.5363
 3308TIP3   OH2 9929   2.357   4.494   3.620  0.2362 -0.3682 -0.7357
 3308TIP3    H1 9930   2.327   4.533   3.537 -0.0416 -0.6162 -0.7552
 3308TIP3    H2 9931   2.386   4.568   3.672  0.1726 -0.1833 -0.9608
 3309TIP3   OH2 9932   6.116   4.198   2.735  0.0160 -0.3757 -0.0230
 3309TIP3    H1 9933   6.040   4.218   2.680 -0.3288 -1.5691  0.0045
 3309TIP3    H2 9934   6.083   4.203   2.824  0.1079 -0.3407  0.0091
 3310TIP3   OH2 9935   2.654   5.613   0.746 -0.0202  0.1599  0.1134
 3310TIP3    H1 9936   2.591   5.672   0.787 -1.2627 -0.5193 -0.7367
 3310TIP3    H2 9937   2.619   5.525   0.764  1.9696 -0.3799  1.6611
 3311TIP3   OH2 9938   6.203   0.141   0.906 -0.0955 -0.1838  0.6505
 3311TIP3    H1 9939   6.264   0.182   0.845  0.2614 -2.2910 -0.5008
 3311TIP3    H2 9940   6.256   0.124   0.984 -0.1435  1.0977  0.9845
 3312TIP3   OH2 9941   4.626   1.494   4.610 -0.0596  0.5015  0.5746
 3312TIP3    H1 9942   4.714   1.529   4.613  0.7733 -1.2214 -1.4302
 3312TIP3    H2 9943   4.592   1.520   4.524 -2.0587  2.2400  1.7890
 3313TIP3   OH2 9944   4.881   2.779   0.719 -0.5703 -0.3393 -0.4557
 3313TIP3    H1 9945   4.976   2.784   0.724 -0.6639  0.3603  1.1552
 3313TIP3    H2 9946   4.851   2.868   0.741 -1.5715 -0.1155 -2.5007
 3314TIP3   OH2 9947   1.975   0.503   2.064  0.3588  0.5310 -0.2900
 3314TIP3    H1 9948   2.006   0.591   2.084  0.0479  0.7027 -0.5714
 3314TIP3    H2 9949   1.911   0.514   1.994 -0.9172  0.2674  0.7853
 3315TIP3   OH2 9950   4.352   1.378   3.561  0.1854  0.5544 -0.1138
 3315TIP3    H1 9951   4.370   1.471   3.578  0.6907  0.1537  1.8014
 3315TIP3    H2 9952   4.393   1.332   3.634  0.5409 -1.2560 -1.3806
 3316TIP3   OH2 9953   3.710   5.321   4.660  0.1556 -0.1992 -0.5648
 3316TIP3    H1 9954   3.733   5.304   4.569  0.1976 -1.6086 -0.3135
 3316TIP3    H2 9955   3.631   5.375   4.655  0.9696  0.9763 -1.4197
 3317TIP3   OH2 9956   0.799   4.817   3.386 -0.2763  0.0185 -0.2816
 3317TIP3    H1 9957   0.732   4.757   3.353  0.8992 -1.2319 -0.4591
 3317TIP3    H2 9958   0.871   4.809   3.324 -0.4099  2.3242 -0.8378
 3318TIP3   OH2 9959   5.712   4.292   3.859  0.8956  0.3801  0.0545
 3318TIP3    H1 9960   5.754   4.312   3.942  0.7752  1.5418 -0.1469
 3318TIP3    H2 9961   5.620   4.316   3.872  0.8702  0.5468 -0.4005
 3319TIP3   OH2 9962   3.885   0.347   2.617 -0.5016 -0.3998  0.9676
 3319TIP3    H1 9963   3.973   0.370   2.647 -0.4608  0.2577  0.3676
 3319TIP3    H2 9964   3.827   0.410   2.660 -0.3986  0.8407 -0.6099
 3320TIP3   OH2 9965   4.047   2.407   4.731  0.0946 -0.7067  0.1107
 3320TIP3    H1 9966   4.075   2.416   4.640  0.3831 -2.0574  0.0463
 3320TIP3    H2 9967   3.980   2.473   4.742 -0.1479 -0.7153 -1.1770
 3321TIP3   OH2 9968   5.644   2.580   1.079  0.0811 -0.0460 -0.6067
 3321TIP3    H1 9969   5.702   2.547   1.148  0.5414  1.1703 -0.3951
 3321TIP3    H2 9970   5.672   2.670   1.065 -1.2973  0.3397 -1.0090
 3322TIP3   OH2 9971   4.631   3.672   0.886  0.0052  0.1859 -0.7607
 3322TIP3    H1 9972   4.550   3.720   0.903  0.1188 -0.3192  1.4414
 3322TIP3    H2 9973   4.605   3.601   0.827 -0.6488  1.4260 -2.0302
 3323TIP3   OH2 9974   6.019   5.362   1.943  0.0713 -0.5411  0.0896
 3323TIP3    H1 9975   6.032   5.415   1.865 -0.3335 -1.0593 -0.3310
 3323TIP3    H2 9976   6.095   5.382   1.998  0.3723 -0.1971 -0.4454
 3324TIP3   OH2 9977   1.374   1.149   3.907 -0.4426  0.0689  0.1328
 3324TIP3    H1 9978   1.394   1.212   3.838  0.3686  0.0812  0.3629
 3324TIP3    H2 9979   1.460   1.121   3.939 -0.7294  1.9003  2.8449
 3325TIP3   OH2 9980   2.887   1.082   3.924  0.9498  0.1071  0.2590
 3325TIP3    H1 9981   2.857   1.075   4.015  2.5830 -0.0240  0.8235
 3325TIP3    H2 9982   2.824   1.142   3.883  0.0961  0.0558  1.4281
 3326TIP3   OH2 9983   1.607   4.211   0.547 -0.5976  0.1750  0.2772
 3326TIP3    H1 9984   1.624   4.160   0.626 -1.1849 -0.0434  0.2683
 3326TIP3    H2 9985   1.562   4.151   0.488 -0.5438  0.4594 -0.0566
 3327TIP3   OH2 9986   2.408   3.371   5.058 -0.9357 -0.1846  0.3076
 3327TIP3    H1 9987   2.496   3.381   5.093 -0.1611 -2.4993 -0.7591
 3327TIP3    H2 9988   2.351   3.380   5.134  0.1255  2.0323  0.9058
 3328TIP3   OH2 9989   5.055   2.316   2.528 -0.0524 -0.6818 -0.3198
 3328TIP3    H1 9990   5.095   2.392   2.571  0.7996 -0.0872 -2.0607
 3328TIP3    H2 9991   5.014   2.352   2.449 -1.0819 -1.8025 -0.3276
 3329TIP3   OH2 9992   4.497   0.222   1.651 -0.0237  0.2408 -0.7959
 3329TIP3    H1 9993   4.544   0.221   1.568  0.2313 -0.5665 -0.6547
 3329TIP3    H2 9994   4.566   0.233   1.717  0.1389 -1.9882 -0.5150
 3330TIP3   OH2 9995   2.410   1.975   3.109  0.0342  0.1291 -0.0486
 3330TIP3    H1 9996   2.337   2.036   3.125 -0.0464  1.0402 -3.2438
 3330TIP3    H2 9997   2.373   1.889   3.129 -1.7716  0.6362 -0.9074
 3331TIP3   OH2 9998   3.146   2.962   1.979  0.2941 -0.0182 -0.0691
 3331TIP3    H1 9999   3.167   2.962   2.073 -2.2959 -0.3745  0.6039
 3331TIP3    H210000   3.192   2.886   1.944 -0.4952 -1.2607  1.4430
 3332TIP3   OH210001   5.327   2.012   4.845  0.4282 -0.2744 -0.2708
 3332TIP3    H110002   5.236   1.994   4.869  0.7943 -2.8103 -0.4351
 3332TIP3    H210003   5.342   1.958   4.767  2.6695 -1.7606  1.0738
 3333TIP3   OH210004   3.877   1.654   0.906 -0.8068  0.3121 -0.0326
 3333TIP3    H110005   3.958   1.680   0.861  0.0522 -0.9933  0.6905
 3333TIP3    H210006   3.907   1.608   0.984 -2.2237 -1.6022 -0.5431
 3334TIP3   OH210007   5.838   1.569   4.809  0.5841 -0.7875  0.2014
 3334TIP3    H110008   5.751   1.548   4.775  1.5863 -3.2423 -1.1139
 3334TIP3    H210009   5.872   1.634   4.747  0.4380 -1.3298 -0.4565
 3335TIP3   OH210010   2.293   2.076   0.088  0.4073  0.1882 -0.0437
 3335TIP3    H110011   2.316   2.017   0.160 -0.1822 -1.5457 -1.1880
 3335TIP3    H210012   2.370   2.075   0.031  0.5355  0.8327  0.1168
 3336TIP3   OH210013   4.062   0.454   5.161 -0.2629  0.5703  0.0569
 3336TIP3    H110014   4.005   0.424   5.090  0.2229  0.2452 -0.1979
 3336TIP3    H210015   4.075   0.377   5.216 -1.5730  1.0833  1.1595
 3337TIP3   OH210016   2.435   2.670   3.492  0.2524 -1.1381  0.0569
 3337TIP3    H110017   2.342   2.672   3.468 -0.3003 -2.2762  1.8306
 3337TIP3    H210018   2.461   2.762   3.499 -0.9627 -0.7940  0.2661
 3338TIP3   OH210019   2.185   3.696   2.499  0.1042 -0.8674  0.0927
 3338TIP3    H110020   2.183   3.644   2.579 -1.3889 -2.4077 -0.8905
 3338TIP3    H210021   2.225   3.639   2.434  0.2057 -0.0743 -0.5550
 3339TIP3   OH210022   5.803   0.505   4.167  0.6463  0.1449 -0.6313
 3339TIP3    H110023   5.798   0.426   4.113 -2.9231 -0.9297  0.9473
 3339TIP3    H210024   5.776   0.576   4.109  0.0523 -0.4493 -1.0899
 3340TIP3   OH210025   0.736   1.985   4.192 -0.0580 -1.0686 -0.1460
 3340TIP3    H110026   0.750   1.956   4.102 -1.1577  0.0638 -0.7205
 3340TIP3    H210027   0.656   2.038   4.188 -0.9181 -2.1095  1.7413
 3341TIP3   OH210028   1.433   1.527   4.484  0.1137 -0.0794  0.2866
 3341TIP3    H110029   1.495   1.596   4.461 -1.8058  1.9029  0.7123
 3341TIP3    H210030   1.414   1.542   4.576 -2.3498  0.6045 -0.2605
 3342TIP3   OH210031   0.625   2.382   0.043 -0.2334  0.0281  0.5291
 3342TIP3    H110032   0.702   2.428   0.077 -0.0467 -0.3417  0.6161
 3342TIP3    H210033   0.560   2.451   0.028  0.4765  0.4815 -0.5658
 3343TIP3   OH210034   0.424   3.626   1.160  0.4503 -0.1222 -0.3740
 3343TIP3    H110035   0.442   3.698   1.220  0.6035  1.7629 -2.5349
 3343TIP3    H210036   0.348   3.656   1.110 -0.4369 -2.1584 -0.3464
 3344TIP3   OH210037   6.247   4.604   2.488 -0.4934 -0.6694  0.1809
 3344TIP3    H110038   6.249   4.666   2.415 -0.8497 -0.0209  0.7181
 3344TIP3    H210039   6.154   4.596   2.510 -0.4999 -1.7305 -0.1602
 3345TIP3   OH210040   2.636   5.597   4.083  0.0245  0.0802  0.0076
 3345TIP3    H110041   2.571   5.621   4.017 -0.7357 -0.3101  0.5951
 3345TIP3    H210042   2.624   5.503   4.096  1.5497 -0.2457 -0.7559
 3346TIP3   OH210043   2.503   0.352   1.938  0.3354 -0.5682 -0.3889
 3346TIP3    H110044   2.566   0.400   1.884 -0.2043 -0.8092 -1.2435
 3346TIP3    H210045   2.521   0.381   2.028  2.1869 -1.2002 -0.5158
 3347TIP3   OH210046   5.547   0.105   1.928  0.0332 -0.1798 -0.2266
 3347TIP3    H110047   5.569   0.017   1.898  0.5841 -0.0571 -0.1849
 3347TIP3    H210048   5.595   0.114   2.010 -0.9327 -0.2682  0.3745
 3348TIP3   OH210049   2.428   4.150   0.290  0.4326 -0.1601  0.1467
 3348TIP3    H110050   2.363   4.085   0.318  0.3660 -0.4441 -0.6196
 3348TIP3    H210051   2.511   4.102   0.289  0.3416 -0.3229 -0.6723
 3349TIP3   OH210052   0.764   4.217   4.908 -0.0325  0.2658 -0.0256
 3349TIP3    H110053   0.689   4.276   4.913 -0.2204  0.0603 -0.4056
 3349TIP3    H210054   0.727   4.131   4.889  0.3971  0.4411 -1.8743
 3350TIP3   OH210055   5.922   1.591   0.223  0.2155 -0.4402  0.3052
 3350TIP3    H110056   5.902   1.684   0.214 -0.8470 -0.5344  1.4636
 3350TIP3    H210057   5.989   1.574   0.156  0.2430  1.0890 -0.0837
 3351TIP3   OH210058   4.914   2.384   3.542  0.0073 -0.4782  0.0364
 3351TIP3    H110059   4.886   2.423   3.625 -2.3395 -0.3135 -0.7638
 3351TIP3    H210060   4.875   2.296   3.543 -0.1212 -0.4438 -0.9032
 3352TIP3   OH210061   5.087   4.685   1.700  0.1476  0.1416 -0.1176
 3352TIP3    H110062   5.150   4.756   1.686  0.5320 -0.1867 -0.0623
 3352TIP3    H210063   5.133   4.606   1.672  0.7595 -0.4932  2.4254
 3353TIP3   OH210064   3.492   4.270   0.229  0.9133  0.7752  0.4086
 3353TIP3    H110065   3.461   4.185   0.199  3.5005  0.4659 -1.7661
 3353TIP3    H210066   3.552   4.249   0.301  1.2053  0.8006  0.1726
 3354TIP3   OH210067   1.625   2.750   1.368  0.9378  0.3402 -0.1967
 3354TIP3    H110068   1.668   2.665   1.381 -0.7862 -0.8105 -1.6072
 3354TIP3    H210069   1.663   2.806   1.435  1.4032 -1.8136  1.4547
 3355TIP3   OH210070   6.390   2.764   2.091 -0.5470 -0.5001  0.1810
 3355TIP3    H110071   6.373   2.698   2.023 -1.7054  1.1983 -1.2511
 3355TIP3    H210072   6.304   2.800   2.111  0.1776  1.2977  0.1655
 3356TIP3   OH210073   2.851   1.665   4.756 -0.1522  0.9703  0.3123
 3356TIP3    H110074   2.855   1.570   4.767 -0.3632  1.1768  2.7786
 3356TIP3    H210075   2.874   1.680   4.664 -0.8088 -1.4908 -0.3295
 3357TIP3   OH210076   0.803   1.055   3.335 -0.2601 -0.5747  0.5356
 3357TIP3    H110077   0.708   1.059   3.345 -0.4827  0.9272 -1.4787
 3357TIP3    H210078   0.836   1.119   3.399 -0.8555  1.0513 -0.7138
 3358TIP3   OH210079   5.305   1.434   4.969  0.2839 -0.5303  0.1553
 3358TIP3    H110080   5.359   1.361   4.940 -0.6156 -0.5408 -1.6780
 3358TIP3    H210081   5.224   1.426   4.918 -0.9879  0.1545  1.9450
 3359TIP3   OH210082   4.703   5.928   0.549  0.0820  0.5371 -0.4360
 3359TIP3    H110083   4.783   5.891   0.512  1.6565  1.3887  1.8435
 3359TIP3    H210084   4.686   6.007   0.499 -0.1770 -0.3733 -1.8311
 3360TIP3   OH210085   6.157   3.518   4.883  0.3836  0.6606 -0.0591
 3360TIP3    H110086   6.225   3.538   4.948  0.9104 -0.8063 -0.1201
 3360TIP3    H210087   6.195   3.449   4.829 -0.5238  0.9967 -1.1666
 3361TIP3   OH210088   4.327   0.138   3.252 -0.0537  0.0845  0.5776
 3361TIP3    H110089   4.242   0.095   3.250  0.3884 -0.7794  0.1899
 3361TIP3    H210090   4.390   0.068   3.237  0.6124  1.0568 -1.4430
 3362TIP3   OH210091   5.175   0.416   3.624 -0.4251 -0.4092  0.1892
 3362TIP3    H110092   5.080   0.410   3.626 -0.5542  1.1362  0.3144
 3362TIP3    H210093   5.194   0.500   3.666  0.9873 -0.5971 -0.0248
 3363TIP3   OH210094   6.169   1.701   2.599  0.3993 -0.3140  0.0994
 3363TIP3    H110095   6.124   1.622   2.569 -1.1148  0.5381 -0.0142
 3363TIP3    H210096   6.143   1.709   2.691 -0.5849  0.7480 -0.2445
 3364TIP3   OH210097   2.723   4.500   3.590 -0.1782  0.0483 -0.0598
 3364TIP3    H110098   2.657   4.502   3.521 -1.8449  0.6038  1.4712
 3364TIP3    H210099   2.785   4.569   3.566  0.8510 -1.5444 -2.3735
 3365TIP3   OH210100   0.834   5.691   3.202 -0.1236  0.0115  0.2187
 3365TIP3    H110101   0.762   5.743   3.166 -0.1548 -0.4150 -0.3570
 3365TIP3    H210102   0.848   5.622   3.137  1.4670  0.6552 -0.1490
 3366TIP3   OH210103   4.764   5.488   0.206  0.3488 -0.0056  0.3004
 3366TIP3    H110104   4.766   5.441   0.123  0.3207 -2.4347  1.5927
 3366TIP3    H210105   4.764   5.420   0.273  0.4781  1.8574  2.3305
 3367TIP3   OH210106   1.549   4.534   2.912 -0.0572  0.0594  0.5726
 3367TIP3    H110107   1.470   4.588   2.920 -0.0356  0.2055 -0.1323
 3367TIP3    H210108   1.581   4.552   2.823  1.0156  0.3472  1.0022
 3368TIP3   OH210109   2.870   4.405   0.622  0.7690  0.2868 -0.3597
 3368TIP3    H110110   2.865   4.428   0.530  0.6762 -1.2018 -0.7463
 3368TIP3    H210111   2.854   4.311   0.625  1.6837  0.1358  1.0749
 3369TIP3   OH210112   6.271   0.156   2.086 -0.0326 -0.2099 -0.0345
 3369TIP3    H110113   6.188   0.119   2.115 -0.5772  0.2224 -0.9893
 3369TIP3    H210114   6.287   0.114   2.001  0.3114  0.3134 -0.2304
 3370TIP3   OH210115   4.199   2.799   3.464 -0.5446  0.0680  0.2579
 3370TIP3    H110116   4.125   2.739   3.474 -0.0989 -0.9320 -1.7961
 3370TIP3    H210117   4.181   2.846   3.382  1.3149 -0.6345 -0.6233
 3371TIP3   OH210118   4.675   3.664   2.009 -0.1236  0.7469 -0.3045
 3371TIP3    H110119   4.658   3.571   2.018  3.1396 -0.0845 -1.4405
 3371TIP3    H210120   4.598   3.699   1.964 -1.5074 -1.3139  0.3453
 3372TIP3   OH210121   5.798   3.398   1.437 -0.2690 -0.0248  0.5683
 3372TIP3    H110122   5.821   3.486   1.406  0.1728  0.0770  1.1790
 3372TIP3    H210123   5.866   3.376   1.500 -1.3436 -0.0857  1.7357
 3373TIP3   OH210124   0.654   5.953   4.268  0.0344 -0.4434  0.1477
 3373TIP3    H110125   0.746   5.959   4.293 -0.0508 -0.4621  0.4743
 3373TIP3    H210126   0.655   5.953   4.173  0.2910  0.7355  0.1426
 3374TIP3   OH210127   5.486   5.858   2.829 -0.3878  0.0229 -0.1031
 3374TIP3    H110128   5.443   5.942   2.816 -0.2907  0.8181  3.5009
 3374TIP3    H210129   5.575   5.879   2.855  0.1820 -1.3002 -0.8717
 3375TIP3   OH210130   4.494   5.199   4.685  0.3078 -0.4284  0.4874
 3375TIP3    H110131   4.568   5.143   4.706  0.1801 -0.3447  1.1647
 3375TIP3    H210132   4.516   5.284   4.723 -0.6343 -0.6991  1.6862
 3376TIP3   OH210133   3.345   1.449   0.396  0.2892  0.4660  0.0025
 3376TIP3    H110134   3.384   1.459   0.483  0.3914  0.2356 -0.0175
 3376TIP3    H210135   3.324   1.356   0.389 -2.4869  0.9162  0.9680
 3377TIP3   OH210136   4.436   5.330   0.330 -0.0704 -0.5693  0.0957
 3377TIP3    H110137   4.363   5.280   0.293 -0.7112 -1.0601  1.9184
 3377TIP3    H210138   4.447   5.404   0.270 -2.2536 -0.3257 -0.1061
 3378TIP3   OH210139   5.146   3.882   4.248 -0.1258  0.3607 -0.1698
 3378TIP3    H110140   5.142   3.915   4.158  3.1476 -2.3891 -1.5137
 3378TIP3    H210141   5.062   3.837   4.261 -0.3702  0.1688 -2.1240
 3379TIP3   OH210142   6.221   2.389   2.439  0.0484  0.1049  0.2973
 3379TIP3    H110143   6.233   2.484   2.441  1.2599  0.0265 -1.3831
 3379TIP3    H210144   6.260   2.358   2.521  0.5351  0.9626  0.4011
 3380TIP3   OH210145   5.987   2.892   3.183 -0.0660  0.4383  0.1740
 3380TIP3    H110146   6.077   2.925   3.186  0.2854 -0.5709  1.2687
 3380TIP3    H210147   5.933   2.969   3.201  0.4720  1.3178 -1.6654
 3381TIP3   OH210148   2.467   3.595   0.176  0.0693 -0.6459  0.1178
 3381TIP3    H110149   2.506   3.548   0.102  0.4366 -2.8620  1.6067
 3381TIP3    H210150   2.492   3.686   0.163  2.5775 -1.3993 -0.9873
 3382TIP3   OH210151   5.202   5.463   3.852 -0.4096  0.4279 -0.0499
 3382TIP3    H110152   5.295   5.486   3.858 -0.1179 -0.6366 -0.3988
 3382TIP3    H210153   5.198   5.372   3.879 -1.1189 -0.0222 -1.5658
 3383TIP3   OH210154   4.377   5.527   0.166 -0.5953  0.1898  0.0379
 3383TIP3    H110155   4.351   5.513   0.075 -0.5288  1.5238 -0.2000
 3383TIP3    H210156   4.384   5.622   0.175 -1.6517  0.1556  1.7293
 3384TIP3   OH210157   0.330   5.456   0.599  0.3357 -0.8434  0.3389
 3384TIP3    H110158   0.289   5.532   0.641 -0.3168 -0.7125 -0.5119
 3384TIP3    H210159   0.274   5.382   0.622 -0.7127 -0.5842 -1.2408
 3385TIP3   OH210160   6.078   3.746   3.738  0.2188 -0.2271 -0.6062
 3385TIP3    H110161   6.105   3.691   3.812  0.2043  3.0341  2.0233
 3385TIP3    H210162   6.159   3.769   3.693  0.5070 -0.2054 -0.0766
 3386TIP3   OH210163   3.635   0.470   4.978  0.8835 -0.0395 -0.1046
 3386TIP3    H110164   3.565   0.520   4.937  0.5861  0.6406  1.1809
 3386TIP3    H210165   3.594   0.386   5.000 -0.0427  0.8729  1.9900
 3387TIP3   OH210166   4.711   5.997   5.101 -0.3052 -0.4247  0.0853
 3387TIP3    H110167   4.795   5.993   5.146 -0.0330 -0.5876 -0.4295
 3387TIP3    H210168   4.675   5.908   5.109  0.0421 -0.6294 -0.5766
 3388TIP3   OH210169   0.168   0.277   1.806 -0.6491  0.4104  0.2799
 3388TIP3    H110170   0.219   0.305   1.882  0.2607 -1.4334  0.4083
 3388TIP3    H210171   0.177   0.349   1.743  2.1321  0.1857  0.3059
 3389TIP3   OH210172   2.413   5.900   2.862  0.2540  0.3943  0.3223
 3389TIP3    H110173   2.391   5.853   2.781 -1.4896  0.1140  0.9204
 3389TIP3    H210174   2.362   5.981   2.857 -1.0362 -0.2704  1.7565
 3390TIP3   OH210175   2.927   2.012   0.486 -0.3535  0.1014 -0.1725
 3390TIP3    H110176   2.923   2.004   0.582  0.8943 -0.5766 -0.1530
 3390TIP3    H210177   2.910   2.104   0.469  1.2649  0.6512  0.8619
 3391TIP3   OH210178   4.342   1.898   0.580 -0.4712  0.1778 -0.0126
 3391TIP3    H110179   4.398   1.958   0.629 -0.1938 -0.2249  0.1791
 3391TIP3    H210180   4.404   1.839   0.536 -0.7295  0.2477 -0.4704
 3392TIP3   OH210181   0.341   0.181   0.432 -0.0506 -0.1190  0.1009
 3392TIP3    H110182   0.278   0.140   0.491  0.3955  1.2760  1.6304
 3392TIP3    H210183   0.296   0.258   0.398 -0.0585 -0.5356 -0.8427
 3393TIP3   OH210184   4.473   5.500   1.165  0.1973  0.3198  0.2866
 3393TIP3    H110185   4.382   5.476   1.180 -0.1190  0.7399 -0.9118
 3393TIP3    H210186   4.516   5.480   1.249 -0.4926 -2.1637  0.1386
 3394TIP3   OH210187   2.775   1.228   3.044 -0.5190  0.0253  0.0333
 3394TIP3    H110188   2.737   1.310   3.011  0.7789  0.0886 -1.4260
 3394TIP3    H210189   2.726   1.209   3.124 -1.2455  1.9182  0.0886
 3395TIP3   OH210190   3.999   0.860   1.901 -0.1357  0.5824 -0.7382
 3395TIP3    H110191   4.006   0.828   1.811  1.3693 -0.4161 -0.2965
 3395TIP3    H210192   4.024   0.952   1.896 -1.1838  0.8459 -1.4988
 3396TIP3   OH210193   2.332   3.026   4.849 -0.3732  0.0744  0.3247
 3396TIP3    H110194   2.310   2.935   4.825 -0.9208  0.4380 -0.6102
 3396TIP3    H210195   2.267   3.049   4.916  0.5343 -0.6136  1.4840
 3397TIP3   OH210196   2.518   4.092   3.549 -0.0101 -0.5375  0.1543
 3397TIP3    H110197   2.505   3.999   3.531  0.0514 -0.2478 -1.5441
 3397TIP3    H210198   2.458   4.137   3.491  0.0520  0.5059  0.8654
 3398TIP3   OH210199   1.065   0.975   0.918 -0.3010 -0.0496  0.5222
 3398TIP3    H110200   1.072   0.973   0.822  1.2080  1.5185  0.5490
 3398TIP3    H210201   0.977   0.942   0.936 -1.1748  0.9476 -1.5042
 3399TIP3   OH210202   5.982   1.346   2.136 -0.5751  0.0271 -0.0121
 3399TIP3    H110203   6.024   1.429   2.113 -0.4233  0.5655  1.9771
 3399TIP3    H210204   5.893   1.370   2.161 -0.9698 -0.6194 -0.7582
 3400TIP3   OH210205   1.549   2.153   1.384  0.0367  0.2295  0.0927
 3400TIP3    H110206   1.577   2.081   1.439 -0.4062 -0.4420 -0.5410
 3400TIP3    H210207   1.529   2.224   1.445 -0.5929 -0.5466  0.8123
 3401TIP3   OH210208   5.416   1.769   1.939 -0.0641  0.7337 -0.1749
 3401TIP3    H110209   5.364   1.738   1.865 -0.5312  1.8728 -0.3538
 3401TIP3    H210210   5.401   1.704   2.008 -1.6158  0.9469 -0.2798
 3402TIP3   OH210211   0.344   5.744   4.139 -0.0296 -0.0635 -0.1053
 3402TIP3    H110212   0.337   5.705   4.226  2.8719 -1.1690 -0.2690
 3402TIP3    H210213   0.351   5.670   4.079 -0.5042  0.6977 -1.1385
 3403TIP3   OH210214   2.569   2.229   2.182  0.4043  0.4044 -0.3366
 3403TIP3    H110215   2.551   2.295   2.250  0.5021  0.6765 -0.5728
 3403TIP3    H210216   2.503   2.161   2.197 -0.4160  1.0785 -0.7868
 3404TIP3   OH210217   4.882   3.639   2.870 -0.3253 -0.7448  0.3687
 3404TIP3    H110218   4.809   3.680   2.823  0.6937  1.7429  0.8073
 3404TIP3    H210219   4.958   3.655   2.814  0.1695 -1.8538  0.6969
 3405TIP3   OH210220   2.758   5.338   0.521 -0.1336  0.1771  0.0692
 3405TIP3    H110221   2.689   5.350   0.585 -0.0504 -0.1320  0.2224
 3405TIP3    H210222   2.827   5.399   0.547  0.3202 -0.6450  0.8814
 3406TIP3   OH210223   2.489   3.829   4.120 -0.3999  0.9740  0.3078
 3406TIP3    H110224   2.491   3.843   4.026  3.0382 -0.1255  0.0674
 3406TIP3    H210225   2.551   3.894   4.155 -0.0579  0.0335  1.5231
 3407TIP3   OH210226   1.617   2.991   3.674  0.2966  0.3366  0.3587
 3407TIP3    H110227   1.696   3.045   3.674  0.3522  0.2728 -0.6424
 3407TIP3    H210228   1.646   2.906   3.708  0.3337  0.7457  1.3805
 3408TIP3   OH210229   5.229   1.827   3.672  0.0297 -0.0470 -0.0600
 3408TIP3    H110230   5.197   1.839   3.582 -0.0083  1.2888  0.1023
 3408TIP3    H210231   5.153   1.799   3.721 -0.7150  2.0593  0.1063
 3409TIP3   OH210232   0.546   3.370   2.397 -0.1861  0.4593  0.1257
 3409TIP3    H110233   0.524   3.316   2.321  1.4781  1.4836 -1.1562
 3409TIP3    H210234   0.597   3.312   2.453 -3.1830 -0.9601  1.6062
 3410TIP3   OH210235   3.526   5.681   3.716 -0.5234 -0.1740  0.2624
 3410TIP3    H110236   3.468   5.717   3.782 -0.7535 -0.0026 -0.0276
 3410TIP3    H210237   3.529   5.587   3.735  0.0218 -0.0155  0.9750
 3411TIP3   OH210238   3.804   2.024   3.808 -0.1969 -0.4711  0.2067
 3411TIP3    H110239   3.783   2.105   3.854  1.3604  0.5049 -0.7567
 3411TIP3    H210240   3.868   2.048   3.742 -1.1476 -2.1273 -1.4468
 3412TIP3   OH210241  -0.019   5.589   4.625 -0.5649 -0.3612 -0.3134
 3412TIP3    H110242   0.057   5.636   4.660  0.4140 -0.7376 -1.8322
 3412TIP3    H210243   0.016   5.503   4.600 -1.3849 -0.3703 -1.4846
 3413TIP3   OH210244   5.715   4.870   0.282 -0.1608  0.1828  0.0315
 3413TIP3    H110245   5.720   4.815   0.204  0.3791  0.1792  0.0681
 3413TIP3    H210246   5.621   4.882   0.297 -0.2834  1.4452 -1.5189
 3414TIP3   OH210247   2.443   3.580   1.611  0.5594 -0.0428  0.5239
 3414TIP3    H110248   2.515   3.526   1.580  0.2245 -0.2351  0.0690
 3414TIP3    H210249   2.485   3.660   1.643  1.0356 -0.4710  0.9904
 3415TIP3   OH210250   3.128   4.462   2.997 -0.2244  0.1170  0.3738
 3415TIP3    H110251   3.151   4.369   3.000 -0.5762  0.0544  1.5791
 3415TIP3    H210252   3.152   4.496   3.083 -0.0143  1.1721 -0.0869
 3416TIP3   OH210253   3.169   2.191   0.536  0.6175 -0.1897  0.1670
 3416TIP3    H110254   3.078   2.190   0.507  0.5763 -2.4889  0.1431
 3416TIP3    H210255   3.208   2.267   0.494 -1.3186  0.9325  0.3158
 3417TIP3   OH210256   1.748   1.986   3.315 -0.2135  0.0996 -0.3186
 3417TIP3    H110257   1.699   2.057   3.275  0.2758 -0.2660 -1.5975
 3417TIP3    H210258   1.698   1.907   3.295 -0.1197 -0.0633  0.0645
 3418TIP3   OH210259   2.702   4.174   1.723 -0.1080  0.0742 -0.4973
 3418TIP3    H110260   2.777   4.126   1.757  1.2069 -0.8038 -4.1421
 3418TIP3    H210261   2.627   4.116   1.735  0.7455 -1.2104 -1.2352
 3419TIP3   OH210262   2.409   2.150   1.529 -0.3529 -0.2611 -0.0638
 3419TIP3    H110263   2.500   2.163   1.552 -0.1609  0.6045 -1.2546
 3419TIP3    H210264   2.410   2.077   1.466 -0.7492 -1.7812  1.5918
 3420TIP3   OH210265   0.451   2.904   3.063 -0.4666 -0.5925  0.8156
 3420TIP3    H110266   0.484   2.815   3.047  0.3403 -0.0094 -1.1225
 3420TIP3    H210267   0.519   2.946   3.116  1.4135  0.1687 -1.9878
 3421TIP3   OH210268   6.051   5.700   4.004 -0.1216  0.0687  0.4432
 3421TIP3    H110269   6.027   5.702   4.097  1.6404  1.1021  0.9242
 3421TIP3    H210270   6.086   5.612   3.991  0.4511  0.2034  1.0072
 3422TIP3   OH210271   2.299   5.256   1.226  0.7397 -0.2336  0.6348
 3422TIP3    H110272   2.385   5.297   1.239  0.6453  0.5442 -0.9939
 3422TIP3    H210273   2.243   5.327   1.196 -0.1613 -1.0034  0.4620
 3423TIP3   OH210274   1.994   3.564   4.047  0.4484 -0.4017  0.1470
 3423TIP3    H110275   1.960   3.582   3.959  0.1688  1.8339  0.6565
 3423TIP3    H210276   1.917   3.566   4.104  0.4836 -2.8176  0.3807
 3424TIP3   OH210277   3.897   5.671   0.283 -0.0427 -0.2623 -0.0006
 3424TIP3    H110278   3.830   5.634   0.341  1.0593 -0.8579  0.9195
 3424TIP3    H210279   3.980   5.638   0.317  0.8870  1.8117 -0.0867
 3425TIP3   OH210280   3.221   1.699   1.940 -0.3504 -0.8448  0.1535
 3425TIP3    H110281   3.235   1.706   1.845 -0.7793  0.0255  0.1479
 3425TIP3    H210282   3.303   1.729   1.978 -0.3403 -0.7635  0.0671
 3426TIP3   OH210283   2.091   0.112   4.504  0.1294  0.0152  0.2270
 3426TIP3    H110284   2.162   0.112   4.568  0.9341 -0.1759 -0.6269
 3426TIP3    H210285   2.042   0.032   4.522  1.0934 -0.6881 -0.1614
 3427TIP3   OH210286   1.720   3.928   2.073  0.0342 -0.3997  0.1335
 3427TIP3    H110287   1.758   3.924   1.985  1.9879 -3.5400  0.9598
 3427TIP3    H210288   1.785   3.976   2.125 -0.8155  0.8766  0.0732
 3428TIP3   OH210289   5.954   2.296   3.974 -0.0506 -0.2433 -0.4893
 3428TIP3    H110290   5.866   2.259   3.978 -0.1832  0.1617  0.8270
 3428TIP3    H210291   5.958   2.340   3.889 -0.7420 -1.1542 -1.0192
 3429TIP3   OH210292   3.557   1.318   1.898  0.3486 -0.4164  0.0674
 3429TIP3    H110293   3.483   1.307   1.838  0.0440  0.6325  0.2202
 3429TIP3    H210294   3.599   1.233   1.900 -0.5118 -0.8748 -0.4849
 3430TIP3   OH210295   5.324   1.079   4.530  0.6307 -0.1831  0.4037
 3430TIP3    H110296   5.362   1.147   4.474  0.3714 -1.9309 -2.0574
 3430TIP3    H210297   5.231   1.080   4.510  0.3222 -0.0953  1.7308
 3431TIP3   OH210298   5.376   3.984   1.656  0.5825 -0.1376 -0.4359
 3431TIP3    H110299   5.451   3.972   1.598  1.0442 -0.7821  0.2755
 3431TIP3    H210300   5.316   3.913   1.633 -0.0019  0.6047 -1.2706
 3432TIP3   OH210301   0.418   4.041   4.197  0.4500 -0.5154 -0.0469
 3432TIP3    H110302   0.448   4.094   4.270 -0.0104  0.5721 -0.6260
 3432TIP3    H210303   0.473   3.962   4.200  1.2433  0.0540  0.7445
 3433TIP3   OH210304   0.239   1.117   1.192  0.6638  0.1755  0.1104
 3433TIP3    H110305   0.235   1.146   1.101 -0.2365 -1.3815 -0.3673
 3433TIP3    H210306   0.331   1.094   1.206  0.6128 -0.6079 -0.7493
 3434TIP3   OH210307   2.223   4.984   4.261  0.1258 -0.1609 -0.1767
 3434TIP3    H110308   2.282   5.049   4.300 -1.8595  1.3540  0.4533
 3434TIP3    H210309   2.282   4.923   4.217  2.1545  1.4214  0.1433
 3435TIP3   OH210310   0.299   4.318   5.197 -0.3517 -0.6520 -0.4293
 3435TIP3    H110311   0.361   4.360   5.137  0.9013 -0.6623  0.8191
 3435TIP3    H210312   0.231   4.385   5.210  0.1345 -0.0909 -0.6921
 3436TIP3   OH210313   4.356   4.556   3.756  0.2614  0.2220 -0.3216
 3436TIP3    H110314   4.418   4.548   3.829 -0.0402 -0.0546 -0.0914
 3436TIP3    H210315   4.313   4.471   3.752  0.2156  0.2638 -0.7753
 3437TIP3   OH210316   0.886   0.977   3.767  0.1729 -0.2490  0.1517
 3437TIP3    H110317   0.940   1.000   3.692 -0.6417  1.9323  0.1485
 3437TIP3    H210318   0.826   0.910   3.734 -0.4777  1.0073 -1.2988
 3438TIP3   OH210319   0.340   1.869   4.397 -0.1809 -0.5187  0.5821
 3438TIP3    H110320   0.316   1.776   4.398 -0.3192 -0.4807  0.8421
 3438TIP3    H210321   0.356   1.890   4.489 -0.4225 -0.2143  0.5531
 3439TIP3   OH210322   3.725   1.231   1.665  0.5984  0.0448  0.1923
 3439TIP3    H110323   3.705   1.171   1.737  2.1957  0.5103  1.0540
 3439TIP3    H210324   3.728   1.317   1.706 -1.7944  0.8140 -1.0580
 3440TIP3   OH210325   2.160   0.808   2.123  0.7300 -0.2448 -0.3829
 3440TIP3    H110326   2.193   0.887   2.080 -1.5462  0.4518 -0.9883
 3440TIP3    H210327   2.086   0.839   2.176 -0.4661 -1.9820 -0.9450
 3441TIP3   OH210328   1.293   3.113   0.464 -0.0031 -0.1837 -0.7509
 3441TIP3    H110329   1.243   3.108   0.382  1.2248 -0.6062 -1.5137
 3441TIP3    H210330   1.385   3.108   0.436  0.5075  1.0433  0.5537
 3442TIP3   OH210331   0.887   4.421   5.059 -0.6241 -0.3899 -0.6147
 3442TIP3    H110332   0.858   4.357   4.993 -0.2216 -2.5144  1.1794
 3442TIP3    H210333   0.824   4.413   5.130  0.8786 -0.6759  0.7399
 3443TIP3   OH210334   1.882   5.932   3.623  0.6306  0.2231 -0.9489
 3443TIP3    H110335   1.936   5.977   3.688  0.2718  0.1366 -0.5853
 3443TIP3    H210336   1.914   5.842   3.624  1.4931  0.5075 -1.8316
 3444TIP3   OH210337   0.489   5.106   3.484 -0.0698  0.4966 -0.1898
 3444TIP3    H110338   0.504   5.127   3.392  0.2358 -0.9939 -0.5153
 3444TIP3    H210339   0.418   5.042   3.482  0.6368 -0.3439  0.5021
 3445TIP3   OH210340   2.000   4.544   0.759 -0.3806  0.2467  0.5779
 3445TIP3    H110341   2.021   4.469   0.815 -0.0130 -1.7793 -2.0725
 3445TIP3    H210342   2.074   4.604   0.770  0.9729 -1.2995  0.3889
 3446TIP3   OH210343   4.686   2.379   1.607  0.0534 -0.3034 -0.3433
 3446TIP3    H110344   4.639   2.441   1.551 -0.1179  0.1153  0.2456
 3446TIP3    H210345   4.773   2.418   1.618  0.3369 -0.7683 -0.9344
 3447TIP3   OH210346   2.721   2.315   2.981 -0.4046  0.1319 -0.4102
 3447TIP3    H110347   2.779   2.249   3.020 -0.0888  2.0854  2.7560
 3447TIP3    H210348   2.779   2.373   2.932 -0.2882 -0.2090 -0.6828
 3448TIP3   OH210349   3.983   5.207   2.034  0.0465 -0.4025  0.3335
 3448TIP3    H110350   4.058   5.236   1.982  0.2402 -0.2565  0.6915
 3448TIP3    H210351   4.011   5.217   2.125 -1.6586  3.2632  0.6336
 3449TIP3   OH210352   1.491   1.359   3.729  0.2629 -0.0115  0.0701
 3449TIP3    H110353   1.480   1.343   3.635  0.2341 -0.4347  0.1429
 3449TIP3    H210354   1.568   1.415   3.734  1.0269 -1.0012 -0.1407
 3450TIP3   OH210355   2.358   0.759   1.200 -0.0941 -0.1003  0.3828
 3450TIP3    H110356   2.422   0.828   1.218  0.9447 -0.8956 -0.1239
 3450TIP3    H210357   2.301   0.758   1.277 -2.0225  3.2632 -0.7753
 3451TIP3   OH210358   5.727   2.746   0.368 -0.3869 -1.2463 -0.3933
 3451TIP3    H110359   5.816   2.756   0.333 -0.7760 -1.8880 -1.6273
 3451TIP3    H210360   5.734   2.778   0.458  0.7011  0.3336 -0.9695
 3452TIP3   OH210361   4.225   5.445   0.570  0.8986 -0.2728 -0.8855
 3452TIP3    H110362   4.267   5.496   0.639  0.1253  0.7673 -1.1663
 3452TIP3    H210363   4.237   5.354   0.597  1.2609  0.0916  0.2265
 3453TIP3   OH210364   5.026   5.870   4.525  0.4858 -0.6180  0.1727
 3453TIP3    H110365   4.965   5.867   4.599 -0.2753  0.1919 -0.4013
 3453TIP3    H210366   4.988   5.808   4.462  1.1742 -1.3640  0.4707
 3454TIP3   OH210367   3.278   0.587   1.374 -0.3150  0.2862 -0.1907
 3454TIP3    H110368   3.203   0.530   1.359  0.9255 -1.1488 -1.2907
 3454TIP3    H210369   3.316   0.601   1.287  0.7138  0.9314  0.3349
 3455TIP3   OH210370   5.311   5.419   1.621 -0.5321  0.7039 -0.0347
 3455TIP3    H110371   5.401   5.388   1.606 -0.3262  0.6577  1.1517
 3455TIP3    H210372   5.278   5.363   1.691 -0.9637  1.6683  0.5567
 3456TIP3   OH210373   0.827   2.816   0.404  0.6743 -0.5234  0.2707
 3456TIP3    H110374   0.777   2.763   0.465  1.7703 -0.3011  1.4087
 3456TIP3    H210375   0.908   2.837   0.451  1.0368  0.6529 -0.8182
 3457TIP3   OH210376   6.198   0.284   4.466  0.3047 -0.3379  0.3592
 3457TIP3    H110377   6.188   0.374   4.498 -0.0730 -0.6378  1.1278
 3457TIP3    H210378   6.290   0.278   4.440 -0.1441  0.8774 -1.6802
 3458TIP3   OH210379   1.439   5.227   0.237  0.0014  0.5087 -0.3063
 3458TIP3    H110380   1.378   5.283   0.188 -1.0359  1.1182  1.5850
 3458TIP3    H210381   1.508   5.207   0.174 -1.6256  0.6098 -2.2385
 3459TIP3   OH210382   0.476   3.057   4.879  0.1363 -0.2352 -0.5496
 3459TIP3    H110383   0.427   3.084   4.956  1.7758  0.6268  0.2255
 3459TIP3    H210384   0.561   3.030   4.913 -0.1193 -2.8411 -1.7180
 3460TIP3   OH210385   3.333   5.749   1.312  0.8203  0.4014 -0.2489
 3460TIP3    H110386   3.287   5.808   1.372 -0.1387  0.0463 -0.6089
 3460TIP3    H210387   3.392   5.806   1.262 -0.2407  1.0947 -0.7428
 3461TIP3   OH210388   5.658   3.262   1.842 -0.0678 -0.4076 -0.3469
 3461TIP3    H110389   5.570   3.298   1.832 -0.0976 -1.1605 -3.9227
 3461TIP3    H210390   5.698   3.315   1.912 -2.4059  1.8257 -0.5708
 3462TIP3   OH210391   1.496   3.034   4.539  0.1110  0.1769  0.3426
 3462TIP3    H110392   1.515   3.124   4.567  1.5570  0.8786 -2.4863
 3462TIP3    H210393   1.406   3.018   4.568  0.4055  1.8634  2.4097
 3463TIP3   OH210394   3.720   3.665   0.892  0.1442 -0.4944  0.2591
 3463TIP3    H110395   3.706   3.579   0.851  0.7529 -0.2424 -0.5147
 3463TIP3    H210396   3.637   3.686   0.935 -0.8701 -0.3459 -1.6776
 3464TIP3   OH210397   2.577   4.756   5.121 -0.4150 -0.1570  0.0377
 3464TIP3    H110398   2.541   4.832   5.074 -1.3613 -0.2149  0.6561
 3464TIP3    H210399   2.612   4.792   5.202 -1.2505 -0.4308  0.5281
 3465TIP3   OH210400   1.964   3.547   3.084  0.2940  0.3825  0.2638
 3465TIP3    H110401   1.896   3.595   3.038 -0.2511 -1.5848 -1.0783
 3465TIP3    H210402   1.948   3.567   3.177 -2.3238 -0.2793  0.0237
 3466TIP3   OH210403   0.884   5.808   0.813  0.0407  0.0666 -0.4114
 3466TIP3    H110404   0.815   5.749   0.843 -0.3929  0.4263 -0.6838
 3466TIP3    H210405   0.843   5.858   0.742  0.0558  1.4308  0.4892
 3467TIP3   OH210406   6.201   4.953   4.814 -0.2329  0.6849  0.0853
 3467TIP3    H110407   6.170   4.965   4.904  0.0291  0.4889  0.2030
 3467TIP3    H210408   6.288   4.914   4.824 -0.3362  0.3615 -0.2564
 3468TIP3   OH210409   1.459   4.906   0.616 -0.0400  0.0220 -0.0092
 3468TIP3    H110410   1.447   4.883   0.708  2.2286  0.1210  0.3593
 3468TIP3    H210411   1.550   4.883   0.597  0.2065  2.0640 -1.6106
 3469TIP3   OH210412   3.648   5.114   2.803 -0.7399  0.4085  0.2931
 3469TIP3    H110413   3.637   5.024   2.772 -1.5291  0.9487 -1.1256
 3469TIP3    H210414   3.624   5.168   2.727  1.8806  1.8278  0.3370
 3470TIP3   OH210415   0.641   1.509   0.578 -0.1678  0.6123  0.1101
 3470TIP3    H110416   0.666   1.443   0.643 -1.1875  0.6861  0.5909
 3470TIP3    H210417   0.550   1.489   0.557 -0.0551  1.0134 -0.7911
 3471TIP3   OH210418   5.926   2.791   4.012 -0.1097  0.0212 -0.4211
 3471TIP3    H110419   5.974   2.711   4.032 -2.5163 -1.2833  0.5441
 3471TIP3    H210420   5.923   2.794   3.916  1.0675 -0.3432 -0.4875
 3472TIP3   OH210421   4.551   0.942   1.950  0.3585 -0.0940 -0.3484
 3472TIP3    H110422   4.571   1.008   2.016  3.0400 -0.9284 -0.2000
 3472TIP3    H210423   4.576   0.982   1.867  0.9049 -0.4854 -0.3801
 3473TIP3   OH210424   3.530   5.532   0.966 -0.1088  0.1113 -0.0240
 3473TIP3    H110425   3.501   5.621   0.947 -0.1247  0.0777 -0.1584
 3473TIP3    H210426   3.617   5.543   1.005 -0.7967  0.2933  1.5472
 3474TIP3   OH210427   0.096   0.195   0.789 -0.0723 -0.1653  0.7946
 3474TIP3    H110428   0.100   0.144   0.708 -2.5601  1.3080 -0.3780
 3474TIP3    H210429   0.185   0.226   0.802  0.3726 -0.2975 -1.5185
 3475TIP3   OH210430   4.522   1.294   3.747  0.0828  0.0479  0.3367
 3475TIP3    H110431   4.543   1.386   3.766  1.2974  0.0040 -0.6743
 3475TIP3    H210432   4.565   1.245   3.816  1.8999  0.0835 -0.7061
 3476TIP3   OH210433   2.376   5.382   0.206 -0.0102 -0.6283 -0.2583
 3476TIP3    H110434   2.425   5.333   0.273  1.0347 -0.1922 -0.6880
 3476TIP3    H210435   2.356   5.316   0.139 -0.1208 -0.8390 -0.0190
 3477TIP3   OH210436   2.471   1.758   3.383 -0.3290 -0.3367  0.3092
 3477TIP3    H110437   2.386   1.769   3.427  0.3957 -1.8613  2.2457
 3477TIP3    H210438   2.510   1.682   3.426  0.9458 -1.2825 -2.3426
 3478TIP3   OH210439   3.737   0.068   4.802 -0.2553  0.8059 -0.3782
 3478TIP3    H110440   3.810   0.127   4.817 -0.4472  1.4049 -1.6784
 3478TIP3    H210441   3.769  -0.018   4.830  1.2438  0.8957 -1.6915
 3479TIP3   OH210442   3.850   3.042   1.832  0.4091 -0.0377 -0.2453
 3479TIP3    H110443   3.945   3.052   1.829  0.3679  0.2605 -0.6042
 3479TIP3    H210444   3.829   2.989   1.755  0.1844  0.7444 -0.7333
 3480TIP3   OH210445   3.422   1.914   4.733 -0.0574 -0.0271 -0.3582
 3480TIP3    H110446   3.423   1.936   4.640 -0.9733  0.1875 -0.3212
 3480TIP3    H210447   3.468   1.987   4.776 -0.6775  0.4601 -0.5181
 3481TIP3   OH210448   1.489   1.908   1.032  0.0037  0.5799 -0.0320
 3481TIP3    H110449   1.427   1.954   0.975  0.8654  1.1058 -0.5540
 3481TIP3    H210450   1.563   1.967   1.040  0.5962 -0.1908  0.3106
 3482TIP3   OH210451   5.106   3.566   4.113  0.4007 -0.0067 -0.0510
 3482TIP3    H110452   5.140   3.480   4.137  0.8365  0.1938  0.0740
 3482TIP3    H210453   5.022   3.572   4.157  1.0984  0.2801  1.3096
 3483TIP3   OH210454   3.984   4.613   1.991  0.1524  0.6259  0.5513
 3483TIP3    H110455   4.045   4.645   2.057  0.0016  3.0338 -0.3805
 3483TIP3    H210456   3.898   4.637   2.025 -0.0194  0.5925  0.1369
 3484TIP3   OH210457   0.137   1.228   4.963  0.1060  0.0507 -0.7399
 3484TIP3    H110458   0.074   1.279   5.016 -1.1345 -1.1645 -0.9945
 3484TIP3    H210459   0.162   1.288   4.893 -0.8032  0.5625 -0.6487
 3485TIP3   OH210460   4.393   0.471   0.171 -0.1702 -0.1954  0.1581
 3485TIP3    H110461   4.467   0.421   0.138  1.2504  2.3808 -0.9356
 3485TIP3    H210462   4.401   0.556   0.127 -1.4274  1.5875  3.0919
 3486TIP3   OH210463   0.907   0.444   3.440 -0.2525 -0.3371  0.6942
 3486TIP3    H110464   0.849   0.381   3.396 -1.0361 -2.0703  3.9274
 3486TIP3    H210465   0.966   0.390   3.493  2.1230  1.5503  0.1803
 3487TIP3   OH210466   3.160   4.346   3.598 -0.4131 -0.4071  0.1932
 3487TIP3    H110467   3.248   4.361   3.633 -1.1897  1.0988  1.6606
 3487TIP3    H210468   3.101   4.377   3.667 -2.0921 -0.0058 -1.3318
 3488TIP3   OH210469   2.195   3.073   5.095  0.2450 -0.0123 -0.1765
 3488TIP3    H110470   2.111   3.051   5.137  0.9822 -2.2800  0.2248
 3488TIP3    H210471   2.247   3.110   5.165 -0.2155  0.9019 -0.3021
 3489TIP3   OH210472   5.628   3.304   2.818  0.3207 -0.0072  0.4872
 3489TIP3    H110473   5.569   3.236   2.785  0.5095  0.1576 -0.1951
 3489TIP3    H210474   5.589   3.386   2.788  0.1614  0.1839  1.2028
 3490TIP3   OH210475   5.187   0.531   4.426 -0.0340 -0.4152 -0.2583
 3490TIP3    H110476   5.106   0.582   4.425 -0.1490 -0.5990 -1.1536
 3490TIP3    H210477   5.169   0.456   4.370  1.5310  0.7796 -2.5221
 3491TIP3   OH210478   6.032   3.809   0.696  0.0271 -0.4149 -0.3475
 3491TIP3    H110479   6.071   3.839   0.613  0.4422  0.9947  0.3193
 3491TIP3    H210480   6.106   3.775   0.746  0.2434  1.1536  0.4480
 3492TIP3   OH210481   5.135   5.916   4.122 -0.5688 -0.6332  0.0989
 3492TIP3    H110482   5.111   6.008   4.126 -1.3972 -0.8505  3.1648
 3492TIP3    H210483   5.206   5.907   4.186 -0.7689 -2.1547  0.1535
 3493TIP3   OH210484   3.921   5.974   1.844  0.8191  0.0858 -0.2240
 3493TIP3    H110485   3.895   5.882   1.847 -0.0832  0.3178 -0.6214
 3493TIP3    H210486   4.007   5.972   1.801  0.4326 -0.5070 -1.0106
 3494TIP3   OH210487   0.852   2.916   1.962 -0.1241 -0.1039  0.5147
 3494TIP3    H110488   0.814   2.940   2.046  1.1358  0.0083  1.0692
 3494TIP3    H210489   0.931   2.866   1.984  0.8380  0.8772 -0.5598
 3495TIP3   OH210490   0.869   5.689   2.796 -0.0025 -0.9237 -0.0677
 3495TIP3    H110491   0.777   5.678   2.818 -0.4390  1.5124 -0.3867
 3495TIP3    H210492   0.879   5.647   2.710 -0.9574 -0.7196 -0.2827
 3496TIP3   OH210493   0.798   4.878   2.802  0.2190  0.2087  0.2304
 3496TIP3    H110494   0.724   4.918   2.755 -2.2936 -0.8075  3.0165
 3496TIP3    H210495   0.814   4.935   2.877  2.1870  0.2742 -0.1756
 3497TIP3   OH210496   5.649   4.073   0.985  0.1878  0.1144 -0.1227
 3497TIP3    H110497   5.614   4.160   0.966 -0.3483  0.0142  0.3998
 3497TIP3    H210498   5.694   4.047   0.904 -2.4872 -0.5297 -1.5123
 3498TIP3   OH210499   0.368   5.431   1.306 -0.7731  0.0431 -0.6668
 3498TIP3    H110500   0.422   5.399   1.234  0.6033  0.3707  0.1872
 3498TIP3    H210501   0.363   5.525   1.292 -1.7891 -0.0688 -1.1607
 3499TIP3   OH210502   0.133   1.569   3.945 -0.0647 -0.6126 -0.1985
 3499TIP3    H110503   0.133   1.635   3.876 -1.2627  0.6800  0.9719
 3499TIP3    H210504   0.128   1.485   3.899  0.6446  0.1295 -1.6955
 3500TIP3   OH210505   2.011   0.286   5.088  0.4650  0.4037 -0.0205
 3500TIP3    H110506   2.022   0.315   4.998 -1.1358  0.0252 -0.3609
 3500TIP3    H210507   2.050   0.356   5.141  2.1045  0.2826 -0.9961
 3501TIP3   OH210508   2.229   2.160   3.174  0.3470 -1.0410  0.1933
 3501TIP3    H110509   2.141   2.198   3.182  0.4278 -1.1376  2.1557
 3501TIP3    H210510   2.286   2.236   3.159  0.3242 -0.4481  2.6070
 3502TIP3   OH210511   2.260   1.171   3.333 -0.3542 -0.1832 -0.1388
 3502TIP3    H110512   2.179   1.223   3.326  0.3162  0.7231 -1.5585
 3502TIP3    H210513   2.234   1.082   3.308 -0.6558  0.3992 -2.0310
 3503TIP3   OH210514   5.475   0.586   2.643  0.1996 -0.4394  0.3069
 3503TIP3    H110515   5.538   0.556   2.578 -0.6079  0.9667 -1.2408
 3503TIP3    H210516   5.490   0.681   2.648 -1.0367 -0.2465  0.7066
 3504TIP3   OH210517   0.443   0.451   2.618 -0.2080 -0.0017  0.0872
 3504TIP3    H110518   0.360   0.425   2.579 -0.2005 -1.8984  1.2192
 3504TIP3    H210519   0.450   0.545   2.599 -3.1779  0.5192  1.0236
 3505TIP3   OH210520   3.425   1.823   2.139  0.7898 -0.7838 -0.3573
 3505TIP3    H110521   3.379   1.761   2.196  1.0932  0.4636  1.3522
 3505TIP3    H210522   3.503   1.776   2.110  0.9125 -1.2858  0.7416
 3506TIP3   OH210523   3.506   3.476   0.448 -0.1883  0.3470  0.5138
 3506TIP3    H110524   3.417   3.460   0.480 -0.8479  0.4655 -1.1692
 3506TIP3    H210525   3.502   3.455   0.355  1.4873  0.6174  0.3603
 3507TIP3   OH210526   5.128   3.426   4.869 -0.4354  0.3430 -0.5649
 3507TIP3    H110527   5.153   3.361   4.803 -1.0765  1.6030 -2.1264
 3507TIP3    H210528   5.202   3.429   4.929  0.3578 -0.5699 -1.4599
 3508TIP3   OH210529   4.144   1.483   2.341 -0.0161 -0.4185  0.1397
 3508TIP3    H110530   4.184   1.570   2.341  0.0021 -0.4256  0.5394
 3508TIP3    H210531   4.080   1.486   2.412 -1.8868  0.1009 -1.5052
 3509TIP3   OH210532   1.722   4.805   4.119  0.3587  0.1826 -0.2510
 3509TIP3    H110533   1.695   4.845   4.202 -0.2890 -0.5636 -0.0902
 3509TIP3    H210534   1.778   4.871   4.078  0.3737  0.7196  0.5989
 3510TIP3   OH210535   3.955   4.886   5.195  0.2236 -0.3140  0.4143
 3510TIP3    H110536   4.032   4.896   5.139 -0.9673 -0.2717 -1.2973
 3510TIP3    H210537   3.933   4.793   5.191 -0.8406 -0.0534 -0.6183
 3511TIP3   OH210538   1.672   4.105   3.431 -0.0607 -0.0887 -0.3480
 3511TIP3    H110539   1.744   4.043   3.418 -0.2529 -0.8707  1.9095
 3511TIP3    H210540   1.598   4.065   3.385  0.8968  0.8036 -2.8414
 3512TIP3   OH210541   1.403   0.297   2.658 -0.1968  0.0671  0.2680
 3512TIP3    H110542   1.455   0.222   2.686 -1.8690 -0.4787  2.1209
 3512TIP3    H210543   1.364   0.270   2.575  1.4041  0.0126 -0.5114
 3513TIP3   OH210544   1.568   2.319   2.457 -0.5303  0.3900  0.0534
 3513TIP3    H110545   1.645   2.330   2.514 -1.5724  0.1338  1.5747
 3513TIP3    H210546   1.551   2.225   2.458 -0.2640  0.3113 -1.1419
 3514TIP3   OH210547   5.685   1.879   1.306 -0.0056 -0.2688 -0.3100
 3514TIP3    H110548   5.741   1.906   1.380 -0.6924  2.4438 -0.6929
 3514TIP3    H210549   5.737   1.900   1.228 -1.5027  2.5717 -0.6830
 3515TIP3   OH210550   0.327   4.647   0.248 -0.1634  0.3728 -0.0900
 3515TIP3    H110551   0.371   4.586   0.306  0.0457 -0.4870 -1.1140
 3515TIP3    H210552   0.328   4.731   0.295 -0.3717 -0.3775  1.2990
 3516TIP3   OH210553   5.656   2.713   2.849  0.1938  0.0938  0.4521
 3516TIP3    H110554   5.606   2.648   2.899  1.3157 -0.5756  0.7464
 3516TIP3    H210555   5.663   2.788   2.907  0.8290 -0.3894  1.0133
 3517TIP3   OH210556   0.010   0.090   3.995 -0.1871  0.4831  0.0382
 3517TIP3    H110557   0.088   0.040   3.973 -0.7867 -1.0771  1.2710
 3517TIP3    H210558  -0.007   0.144   3.917  2.4124  1.3157 -0.0352
 3518TIP3   OH210559   3.829   2.029   5.161 -0.3515 -0.3708 -0.2461
 3518TIP3    H110560   3.865   2.076   5.086 -0.1583 -1.5839 -0.9433
 3518TIP3    H210561   3.870   2.070   5.237  0.7430 -0.2168 -0.8976
 3519TIP3   OH210562   6.234   3.632   3.927 -0.1813 -0.3901  0.0902
 3519TIP3    H110563   6.318   3.652   3.886 -0.2508 -0.6984 -0.1989
 3519TIP3    H210564   6.243   3.542   3.958 -0.2179 -0.2460  0.5347
 3520TIP3   OH210565   0.948   1.255   1.546  0.3172 -0.3837 -0.5497
 3520TIP3    H110566   0.858   1.223   1.545  0.1996 -0.1097  0.4510
 3520TIP3    H210567   0.998   1.184   1.587  0.2583  0.1607  0.5143
 3521TIP3   OH210568   3.784   3.677   3.685 -0.0883 -0.3392  0.2445
 3521TIP3    H110569   3.770   3.771   3.692 -0.5582 -0.3237 -0.7388
 3521TIP3    H210570   3.848   3.667   3.615  0.2589 -0.7381  0.6101
 3522TIP3   OH210571   0.884   2.955   2.830 -0.0418 -0.3690  0.0066
 3522TIP3    H110572   0.947   2.978   2.762  0.5890  2.6263  1.4045
 3522TIP3    H210573   0.925   2.883   2.878  0.9741 -0.3708 -0.8243
 3523TIP3   OH210574   2.868   5.674   4.502 -0.0747 -0.3277  0.3166
 3523TIP3    H110575   2.869   5.760   4.544 -1.2743 -0.1333 -0.0061
 3523TIP3    H210576   2.958   5.642   4.511  0.7274  1.4796 -0.6189
 3524TIP3   OH210577   6.339   4.096   4.278  0.5832 -0.1667 -0.0274
 3524TIP3    H110578   6.247   4.084   4.298  0.3202 -1.3623 -1.7454
 3524TIP3    H210579   6.342   4.173   4.221  0.4481 -0.8281 -0.9696
 3525TIP3   OH210580   2.370   5.273   3.450 -0.7089 -0.2183  0.7360
 3525TIP3    H110581   2.401   5.183   3.438  0.4642  0.1348  1.0127
 3525TIP3    H210582   2.440   5.317   3.499  0.2472  1.7282 -2.1325
 3526TIP3   OH210583   1.523   0.056   1.495 -0.4675  0.0768 -0.0672
 3526TIP3    H110584   1.517   0.151   1.482 -0.3258  0.0604 -0.2653
 3526TIP3    H210585   1.617   0.039   1.494 -0.5127 -0.1399 -0.5761
 3527TIP3   OH210586   0.172   2.348   0.556  0.0776 -0.4121  0.4724
 3527TIP3    H110587   0.138   2.306   0.477  0.0305  0.7902 -0.1669
 3527TIP3    H210588   0.213   2.277   0.605  0.1945 -1.1688 -0.6852
 3528TIP3   OH210589   1.819   0.095   0.943  0.3986  0.3349  0.0200
 3528TIP3    H110590   1.735   0.075   0.902  0.8871  1.7362 -1.8235
 3528TIP3    H210591   1.863   0.153   0.881  2.1201  0.8525  1.6072
 3529TIP3   OH210592   5.181   4.052   5.120 -0.5203 -0.6714 -0.1083
 3529TIP3    H110593   5.116   4.057   5.190 -1.1604 -0.5040 -0.6975
 3529TIP3    H210594   5.129   4.046   5.040  0.1911 -0.1514 -0.6202
 3530TIP3   OH210595   0.628   1.977   1.493  0.5377 -0.3760  0.1108
 3530TIP3    H110596   0.634   2.031   1.572  1.1081 -0.2274 -0.0309
 3530TIP3    H210597   0.542   1.998   1.457  0.5992  0.1562  0.2615
 3531TIP3   OH210598   2.225   2.391   4.181 -1.5510  0.0556  0.7586
 3531TIP3    H110599   2.175   2.352   4.109 -0.5712  1.3133 -0.6963
 3531TIP3    H210600   2.187   2.355   4.260 -2.7800 -1.2909 -0.3949
 3532TIP3   OH210601   1.029   0.318   3.133 -0.3620 -0.0058 -0.1576
 3532TIP3    H110602   1.119   0.288   3.137 -0.2399  0.3779  0.0040
 3532TIP3    H210603   1.027   0.398   3.185 -1.2040 -0.9843  1.3841
 3533TIP3   OH210604   0.767   0.438   4.032  0.2505  0.0883 -0.5960
 3533TIP3    H110605   0.725   0.362   4.073 -0.3623  1.3113  1.1295
 3533TIP3    H210606   0.852   0.444   4.076 -0.5742  1.6532  0.8651
 3534TIP3   OH210607   6.393   4.671   0.964 -0.2765 -0.4221  0.0178
 3534TIP3    H110608   6.324   4.737   0.970 -1.2084 -1.2270 -1.2227
 3534TIP3    H210609   6.350   4.590   0.989  0.5978 -0.7266  0.5676
 3535TIP3   OH210610   2.802   3.460   0.555  0.1492 -0.0884  0.0712
 3535TIP3    H110611   2.848   3.502   0.629  1.0635  0.0796 -0.5709
 3535TIP3    H210612   2.801   3.367   0.578 -2.0467  0.2299  1.5918
 3536TIP3   OH210613   1.696   3.318   0.271 -0.0903 -0.1472 -0.0482
 3536TIP3    H110614   1.623   3.288   0.326 -1.2262 -0.4006 -1.6029
 3536TIP3    H210615   1.735   3.391   0.319 -1.3650 -0.0207  0.8414
 3537TIP3   OH210616   1.978   3.832   4.787 -0.3840 -0.1884  0.3530
 3537TIP3    H110617   2.064   3.791   4.796 -1.1246 -2.1004 -0.7027
 3537TIP3    H210618   1.925   3.791   4.856 -0.8901 -0.2542 -0.0754
 3538TIP3   OH210619   3.784   4.664   5.116 -0.0928 -0.3219 -0.5872
 3538TIP3    H110620   3.771   4.754   5.086  0.9055  0.1348  0.2893
 3538TIP3    H210621   3.706   4.617   5.085 -0.6980  0.8636 -0.9323
 3539TIP3   OH210622   2.551   0.665   3.455 -0.1620 -0.5800  0.1424
 3539TIP3    H110623   2.492   0.712   3.514 -1.4106 -2.1844  0.2444
 3539TIP3    H210624   2.536   0.704   3.369 -0.0380  0.2155  0.4693
 3540TIP3   OH210625   5.040   2.115   3.233 -0.7297 -0.1780 -0.0996
 3540TIP3    H110626   5.072   2.203   3.253  1.8928 -1.1872  0.6032
 3540TIP3    H210627   5.074   2.096   3.146 -1.8595 -0.2721 -0.5342
 3541TIP3   OH210628   6.333   1.699   0.984 -0.9834 -0.5341 -0.0160
 3541TIP3    H110629   6.303   1.754   0.911  0.7270 -0.7537 -0.9286
 3541TIP3    H210630   6.293   1.614   0.967  0.7420 -1.0839 -1.7403
 3542TIP3   OH210631   4.341   3.565   2.191  0.6564 -0.2400 -0.5327
 3542TIP3    H110632   4.398   3.574   2.115 -0.8945 -2.0823 -2.0359
 3542TIP3    H210633   4.397   3.525   2.258  1.2705 -1.7129 -1.8529
 3543TIP3   OH210634   5.846   2.334   3.285  0.2989 -0.3373 -0.2803
 3543TIP3    H110635   5.829   2.418   3.244  0.1078 -0.0670  0.3356
 3543TIP3    H210636   5.853   2.272   3.212 -1.5307 -0.1321 -0.6776
 3544TIP3   OH210637   1.347   5.920   1.476  0.1703  0.3941  0.6873
 3544TIP3    H110638   1.333   5.955   1.388  0.4827 -1.4581 -0.1567
 3544TIP3    H210639   1.316   5.989   1.535 -0.8329  1.3459 -0.8777
 3545TIP3   OH210640   5.318   3.395   2.479  0.0702 -0.0269 -0.1886
 3545TIP3    H110641   5.341   3.431   2.393 -0.2212  1.4748  0.3343
 3545TIP3    H210642   5.342   3.303   2.473  1.7594  0.4278 -1.2692
 3546TIP3   OH210643   6.231   4.763   0.716 -0.2296 -0.0178  0.2646
 3546TIP3    H110644   6.185   4.841   0.748  0.3337 -0.5754  2.6033
 3546TIP3    H210645   6.187   4.742   0.634 -2.1595  1.2018  0.9056
 3547TIP3   OH210646   4.175   4.052   0.474  0.5724 -0.1123 -0.3000
 3547TIP3    H110647   4.132   3.980   0.521  0.6003  0.2688  0.3283
 3547TIP3    H210648   4.268   4.036   0.488  0.5648  0.3447  0.3105
 3548TIP3   OH210649   2.291   2.022   2.534 -0.2425 -0.2167 -0.2138
 3548TIP3    H110650   2.273   1.957   2.601 -0.6168  0.5567  0.4482
 3548TIP3    H210651   2.270   2.106   2.575  0.5680  0.3601 -0.9292
 3549TIP3   OH210652   2.683   0.623   2.295 -1.3104 -0.1402 -0.3558
 3549TIP3    H110653   2.772   0.640   2.264 -1.8619 -0.8874 -2.5549
 3549TIP3    H210654   2.630   0.692   2.255 -1.6198  0.9422  1.8070
 3550TIP3   OH210655   3.954   4.965   1.696  0.0927  0.1334 -0.3620
 3550TIP3    H110656   4.039   4.957   1.737 -0.0657  1.7065  0.3538
 3550TIP3    H210657   3.909   4.883   1.717  1.0464 -0.2794  0.1194
 3551TIP3   OH210658   1.153   0.410   2.352  0.4004 -0.7581  0.2945
 3551TIP3    H110659   1.076   0.372   2.309  0.8011 -0.4026 -0.7580
 3551TIP3    H210660   1.129   0.413   2.445 -0.9502 -0.4538 -0.0409
 3552TIP3   OH210661   0.158   1.520   0.816 -0.4449  0.0590 -0.5242
 3552TIP3    H110662   0.205   1.590   0.770  1.1853 -0.6725 -0.0628
 3552TIP3    H210663   0.071   1.556   0.833  0.0381  1.6053 -1.1524
 3553TIP3   OH210664   6.125   4.492   4.208  0.3516  0.7665  0.9212
 3553TIP3    H110665   6.198   4.434   4.229  0.3378  0.6745  0.7135
 3553TIP3    H210666   6.104   4.473   4.117  0.1451  0.8765  0.9448
 3554TIP3   OH210667   4.828   0.746   3.573  0.6046  0.7100 -0.5044
 3554TIP3    H110668   4.751   0.755   3.516  0.6122  0.9929 -0.4737
 3554TIP3    H210669   4.794   0.709   3.654  0.7518 -0.6603 -1.0384
 3555TIP3   OH210670   2.433   5.742   4.400  0.4083 -0.3613 -0.4540
 3555TIP3    H110671   2.434   5.792   4.481 -0.9738 -1.4930  0.3210
 3555TIP3    H210672   2.419   5.807   4.331 -0.6013  0.3960  0.4404
 3556TIP3   OH210673   2.508   1.979   4.887 -0.0912  0.6210  0.6086
 3556TIP3    H110674   2.417   2.005   4.871  0.5163  1.1927 -2.7165
 3556TIP3    H210675   2.560   2.054   4.858  1.4689 -0.5354  0.2801
 3557TIP3   OH210676   1.240   0.398   1.345 -0.3223  0.3387  0.0629
 3557TIP3    H110677   1.289   0.475   1.375 -2.5975  1.9684 -0.0957
 3557TIP3    H210678   1.170   0.387   1.410 -0.3908 -1.2645 -0.2384
 3558TIP3   OH210679   2.590   0.833   0.186 -0.1342 -0.3041  0.1269
 3558TIP3    H110680   2.680   0.860   0.170 -0.2729 -0.2944 -0.6790
 3558TIP3    H210681   2.588   0.740   0.164 -0.4920 -0.1307 -0.6141
 3559TIP3   OH210682   0.013   0.402   3.332  0.1438  0.3855  0.1107
 3559TIP3    H110683  -0.070   0.443   3.307 -0.0347 -0.1144 -0.1304
 3559TIP3    H210684   0.080   0.461   3.298 -0.1101  0.2570 -0.6288
 3560TIP3   OH210685   6.258   4.791   5.176  0.4955  1.1793  0.2671
 3560TIP3    H110686   6.169   4.825   5.175  0.4288  1.0148  0.7466
 3560TIP3    H210687   6.258   4.722   5.110 -0.2481 -0.1331  1.5981
 3561TIP3   OH210688   0.763   2.185   3.836  0.7474  0.4127 -0.0041
 3561TIP3    H110689   0.806   2.270   3.835 -0.9977  1.3655 -1.5330
 3561TIP3    H210690   0.679   2.201   3.879  0.6819 -0.7070  0.3267
 3562TIP3   OH210691   3.007   5.074   4.861  0.0378  0.1050  0.0711
 3562TIP3    H110692   3.090   5.080   4.909 -0.1673  1.0052  0.3370
 3562TIP3    H210693   3.025   5.014   4.789  0.5215 -0.8090  0.9374
 3563TIP3   OH210694   6.246   2.656   0.838  0.4567  0.1050 -0.5248
 3563TIP3    H110695   6.307   2.698   0.898  1.7413  0.3727 -1.9671
 3563TIP3    H210696   6.168   2.711   0.839  0.3800  0.0037  0.9998
 3564TIP3   OH210697   3.540   1.373   1.013  0.1085  0.1382  0.0505
 3564TIP3    H110698   3.627   1.332   1.011  0.6455  1.2586 -0.1770
 3564TIP3    H210699   3.482   1.309   0.972  0.6783 -0.9358  0.8735
 3565TIP3   OH210700   2.115   0.824   3.849  0.0096 -0.3896 -0.4306
 3565TIP3    H110701   2.207   0.841   3.867 -0.3383  0.6089  0.5271
 3565TIP3    H210702   2.099   0.862   3.763 -0.2619  2.4815  0.7880
 3566TIP3   OH210703   1.232   5.368   2.963  0.1435 -0.2589  0.9384
 3566TIP3    H110704   1.321   5.392   2.989 -0.4795  1.3446  1.6732
 3566TIP3    H210705   1.219   5.281   3.001  1.3304 -0.4548  0.9423
 3567TIP3   OH210706   3.499   1.315   3.060  0.1864 -0.0576 -0.3389
 3567TIP3    H110707   3.564   1.259   3.102 -0.7940 -1.2117 -0.3171
 3567TIP3    H210708   3.474   1.377   3.128 -0.4831 -1.1405  0.4349
 3568TIP3   OH210709   2.336   4.294   4.586  0.1400 -1.3757  0.5433
 3568TIP3    H110710   2.391   4.369   4.564 -2.0551  1.0290  2.5120
 3568TIP3    H210711   2.283   4.279   4.508  0.0119 -0.2669  0.4002
 3569TIP3   OH210712   4.329   2.982   2.132  0.1185 -0.0021  0.0430
 3569TIP3    H110713   4.364   2.936   2.057 -0.4050  1.1326 -0.9404
 3569TIP3    H210714   4.235   2.962   2.131  0.1979 -0.4277  0.7292
 3570TIP3   OH210715   6.299   4.050   5.049 -0.2601 -0.0294 -0.5956
 3570TIP3    H110716   6.243   4.102   4.992 -1.2436 -0.7700 -0.3347
 3570TIP3    H210717   6.238   3.991   5.095  0.5169  0.3545  1.0114
 3571TIP3   OH210718   5.806   2.368   4.724  0.1689  0.7950 -0.4939
 3571TIP3    H110719   5.833   2.455   4.752  1.3488  0.6638 -1.1474
 3571TIP3    H210720   5.792   2.376   4.630  0.5716  0.2157 -0.6118
 3572TIP3   OH210721   5.093   4.174   4.526  0.0969  0.0734  0.1459
 3572TIP3    H110722   5.095   4.205   4.617 -1.5981 -0.4146  0.3852
 3572TIP3    H210723   5.017   4.218   4.488  1.5853  1.3968 -1.4964
 3573TIP3   OH210724   4.732   4.419   0.061 -0.3909 -0.0049 -0.3558
 3573TIP3    H110725   4.675   4.449   0.132  1.4147 -0.8518  1.5546
 3573TIP3    H210726   4.797   4.489   0.051 -0.3388 -0.1165 -0.8252
 3574TIP3   OH210727   3.487   2.860   1.444  0.3397 -0.1128 -0.3285
 3574TIP3    H110728   3.456   2.771   1.428 -1.7029  0.4092  0.4542
 3574TIP3    H210729   3.457   2.880   1.533 -0.7793  1.9611 -1.1166
 3575TIP3   OH210730   4.729   5.862   3.349 -0.5124  0.7394  0.0347
 3575TIP3    H110731   4.719   5.896   3.438  2.3086  0.1673  0.6496
 3575TIP3    H210732   4.809   5.810   3.351 -0.9726 -0.2366 -2.5865
 3576TIP3   OH210733   5.362   1.964   4.119  0.2154  0.1584 -0.0725
 3576TIP3    H110734   5.429   1.957   4.187  0.1388  0.3625  0.0231
 3576TIP3    H210735   5.385   2.044   4.070 -0.3472  0.6039  0.3815
 3577TIP3   OH210736   1.987   2.879   3.812 -0.0922 -0.3376 -0.3782
 3577TIP3    H110737   1.913   2.920   3.857 -0.4364 -1.3192 -0.0173
 3577TIP3    H210738   1.995   2.793   3.853  0.0463 -0.9884 -1.7138
 3578TIP3   OH210739   2.956   2.487   3.862  0.0177 -0.2313 -0.2151
 3578TIP3    H110740   2.863   2.510   3.859  0.3042  0.8228 -1.5950
 3578TIP3    H210741   2.956   2.391   3.868 -1.1451 -0.1814  1.2536
 3579TIP3   OH210742   4.381   3.463   1.826 -0.0828  0.0272  0.5525
 3579TIP3    H110743   4.336   3.385   1.859 -1.9448  2.3638  4.0585
 3579TIP3    H210744   4.314   3.512   1.780  0.8263  0.1242 -0.7323
 3580TIP3   OH210745   5.395   3.161   4.318 -0.1559  0.4961 -0.1695
 3580TIP3    H110746   5.417   3.237   4.263  0.8482  0.5258  0.2622
 3580TIP3    H210747   5.463   3.159   4.385 -0.8694 -0.0692  0.5564
 3581TIP3   OH210748   0.716   5.277   3.473 -0.1301 -0.6985 -0.2947
 3581TIP3    H110749   0.628   5.240   3.481  0.0568 -1.1109 -0.1152
 3581TIP3    H210750   0.703   5.358   3.423 -0.4859 -1.2403 -1.1147
 3582TIP3   OH210751   2.550   1.122   3.959 -0.0066 -0.0135 -0.0207
 3582TIP3    H110752   2.517   1.209   3.981  2.6775  1.4840 -1.3667
 3582TIP3    H210753   2.615   1.102   4.027  2.9134  1.3491 -2.1762
 3583TIP3   OH210754   4.742   4.817   1.204 -0.2598  0.1537  0.0702
 3583TIP3    H110755   4.750   4.725   1.179 -0.8112  0.3269 -0.7898
 3583TIP3    H210756   4.684   4.855   1.138  1.8192  1.6626 -1.0410
 3584TIP3   OH210757   4.689   0.352   2.286 -0.2829  0.2606  0.4245
 3584TIP3    H110758   4.650   0.396   2.361 -0.3238  0.5550  0.2288
 3584TIP3    H210759   4.716   0.267   2.321 -0.2708  0.4076  0.7814
 3585TIP3   OH210760   0.645   4.964   4.626 -0.3400 -1.0576 -0.3738
 3585TIP3    H110761   0.736   4.993   4.623 -0.6940  0.2944  0.6546
 3585TIP3    H210762   0.627   4.954   4.720 -1.5803 -0.1074 -0.4884
 3586TIP3   OH210763   5.297   3.487   0.808 -0.0475  0.3984  0.6779
 3586TIP3    H110764   5.261   3.398   0.798  1.1906 -0.6674  4.2705
 3586TIP3    H210765   5.384   3.482   0.769 -1.0669  1.0364 -1.8883
 3587TIP3   OH210766   1.101   0.775   2.500 -0.2916 -0.1315 -0.0309
 3587TIP3    H110767   1.060   0.833   2.564 -0.7951 -0.7700  0.2402
 3587TIP3    H210768   1.179   0.742   2.543  0.1866  0.6058 -0.3158
 3588TIP3   OH210769   5.519   2.850   2.172 -0.4761 -0.2885 -0.0757
 3588TIP3    H110770   5.472   2.801   2.239 -0.5088 -2.6826 -1.7318
 3588TIP3    H210771   5.540   2.785   2.105  0.1647  1.8539 -2.0711
 3589TIP3   OH210772   2.170   3.064   0.402  0.0141 -0.3733  0.0953
 3589TIP3    H110773   2.167   3.061   0.306  1.8070  0.2455 -0.0039
 3589TIP3    H210774   2.168   3.157   0.423  2.5131 -0.3481  0.4925
 3590TIP3   OH210775   0.286   4.076   2.986  0.2950  0.4213  0.1476
 3590TIP3    H110776   0.209   4.091   2.931 -0.5669 -1.7610  0.6409
 3590TIP3    H210777   0.306   3.983   2.973  1.2177  0.3101  2.0636
 3591TIP3   OH210778   0.694   3.613   0.855  0.3444  0.0304  0.5062
 3591TIP3    H110779   0.744   3.692   0.836 -1.4667  1.1043 -0.0295
 3591TIP3    H210780   0.644   3.596   0.775 -1.3784 -0.0245  1.5310
 3592TIP3   OH210781   3.201   2.484   3.063 -0.2985 -0.3954 -0.2717
 3592TIP3    H110782   3.281   2.478   3.011  0.2242  0.3091  0.4276
 3592TIP3    H210783   3.220   2.433   3.142 -0.1175  0.6810  0.4003
 3593TIP3   OH210784   5.429   0.594   1.836 -0.0497 -0.4047 -0.5907
 3593TIP3    H110785   5.477   0.546   1.769 -2.1970 -1.9832 -1.1098
 3593TIP3    H210786   5.411   0.679   1.797  2.0836  0.1707 -0.4389
 3594TIP3   OH210787   0.288   4.137   3.464 -0.6472  0.1152  0.0923
 3594TIP3    H110788   0.219   4.187   3.509  0.7209  2.2692 -0.0429
 3594TIP3    H210789   0.293   4.178   3.377 -1.7152 -2.5032 -1.3235
 3595TIP3   OH210790   0.077   0.425   4.432  0.3277 -0.2370 -0.9580
 3595TIP3    H110791   0.074   0.511   4.389  1.4668 -0.5767 -1.7812
 3595TIP3    H210792   0.157   0.385   4.398 -0.0165 -1.4958 -0.3249
 3596TIP3   OH210793   3.986   5.687   1.443 -0.3990  0.5311  0.4886
 3596TIP3    H110794   4.014   5.746   1.373 -0.6328  1.2875  1.0125
 3596TIP3    H210795   3.892   5.703   1.451 -1.0430 -1.8365 -1.1286
 3597TIP3   OH210796   2.636   1.811   4.166  0.0143  0.5626 -0.0366
 3597TIP3    H110797   2.568   1.812   4.098  0.7699  1.2015 -0.8158
 3597TIP3    H210798   2.717   1.828   4.118  0.5452  1.2208  1.0583
 3598TIP3   OH210799   1.992   5.085   3.121 -0.0771  0.3997  0.4957
 3598TIP3    H110800   2.029   5.062   3.206 -0.4385 -0.6736  0.3732
 3598TIP3    H210801   2.067   5.087   3.062 -0.0041 -0.2805  0.5556
 3599TIP3   OH210802   5.654   3.869   3.416 -0.2266  0.4902  0.4379
 3599TIP3    H110803   5.708   3.791   3.422 -0.2650  0.5686  2.5394
 3599TIP3    H210804   5.605   3.872   3.498  1.3926  3.8802  1.4849
 3600TIP3   OH210805   0.042   2.086   3.143 -0.4130 -0.1503 -0.0068
 3600TIP3    H110806   0.122   2.074   3.091  0.0610 -0.4928  0.7813
 3600TIP3    H210807   0.042   2.012   3.203  0.8760  1.9550  2.8102
 3601TIP3   OH210808   4.442   4.501   0.552  0.6888 -0.4939  0.1738
 3601TIP3    H110809   4.484   4.428   0.506 -1.7084 -1.2456 -0.9757
 3601TIP3    H210810   4.407   4.557   0.483  1.4863  1.1897  1.0650
 3602TIP3   OH210811   1.237   1.491   0.768  0.0351 -0.3674 -0.0209
 3602TIP3    H110812   1.254   1.398   0.755 -0.0840 -0.4597  0.4480
 3602TIP3    H210813   1.323   1.533   0.766  0.0802 -0.4749 -0.3223
 3603TIP3   OH210814   0.926   3.179   2.586  0.0226 -0.6000 -0.9516
 3603TIP3    H110815   0.888   3.219   2.664  4.3201  1.9762  0.1596
 3603TIP3    H210816   0.987   3.113   2.620  1.3753 -0.0090 -2.1319
 3604TIP3   OH210817   5.001   2.513   1.143 -0.8794 -0.1845  0.0798
 3604TIP3    H110818   5.063   2.563   1.196  0.0480  0.6922 -1.7417
 3604TIP3    H210819   4.979   2.437   1.197  2.0569 -0.7166  0.7116
 3605TIP3   OH210820   5.783   3.898   0.769  0.3341  0.0615  0.3477
 3605TIP3    H110821   5.863   3.857   0.736  0.1078  0.9978 -1.4724
 3605TIP3    H210822   5.786   3.988   0.738 -1.4049  0.1393  0.2674
 3606TIP3   OH210823   4.451   5.302   0.893  0.3345  0.1571 -0.0969
 3606TIP3    H110824   4.539   5.328   0.921  0.3341  1.5404 -1.2092
 3606TIP3    H210825   4.461   5.282   0.800 -0.8364  2.2155 -0.7330
 3607TIP3   OH210826   3.330   3.104   3.229  0.3266  0.3519 -0.0156
 3607TIP3    H110827   3.292   3.021   3.258  0.1557  0.1912 -0.6695
 3607TIP3    H210828   3.336   3.095   3.134  0.2818  1.1021 -0.0949
 3608TIP3   OH210829   1.646   3.602   3.226  0.2465  0.0829 -0.2703
 3608TIP3    H110830   1.571   3.662   3.221 -0.0874 -0.3476 -0.5838
 3608TIP3    H210831   1.694   3.617   3.145 -0.6381 -1.0764 -1.0613
 3609TIP3   OH210832   3.389   2.632   0.009 -0.2145  0.1127 -0.2833
 3609TIP3    H110833   3.404   2.599   0.097  0.7069  0.4929 -0.2906
 3609TIP3    H210834   3.296   2.614  -0.008 -0.7912  1.3915  1.3169
 3610TIP3   OH210835   1.980   4.119   3.442 -0.6396  0.1089  0.9098
 3610TIP3    H110836   1.922   4.045   3.428  0.3855 -0.6410  0.4857
 3610TIP3    H210837   2.009   4.110   3.533 -1.8259  0.9824  1.4072
 3611TIP3   OH210838   2.918   0.578   1.035  0.1061  0.4833 -0.6597
 3611TIP3    H110839   2.901   0.493   0.995  2.2955 -0.3757  0.0515
 3611TIP3    H210840   2.969   0.626   0.969  0.7144  0.3966 -0.2648
 3612TIP3   OH210841   0.004   1.296   4.571  0.6772 -1.0220  0.1943
 3612TIP3    H110842   0.087   1.299   4.524  0.4938 -1.7129 -0.1788
 3612TIP3    H210843   0.010   1.219   4.627 -0.3116 -2.0060 -0.9892
 3613TIP3   OH210844   0.331   2.686   1.228 -0.2111 -0.1772 -0.4427
 3613TIP3    H110845   0.420   2.712   1.206 -0.3659  1.1326  0.3461
 3613TIP3    H210846   0.285   2.768   1.244 -0.7379 -0.8918  2.2143
 3614TIP3   OH210847   5.801   3.776   3.703  0.2496  0.1536 -0.1449
 3614TIP3    H110848   5.798   3.865   3.736  0.1855  0.2656 -0.4549
 3614TIP3    H210849   5.894   3.756   3.694  0.3823 -0.6577  2.2050
 3615TIP3   OH210850   6.050   2.831   0.499  0.1539 -0.5800  0.1317
 3615TIP3    H110851   6.022   2.923   0.501 -0.5380 -0.7715 -0.5238
 3615TIP3    H210852   6.055   2.806   0.591 -1.2890 -0.3702  0.2897
 3616TIP3   OH210853   3.841   4.209   3.329  0.3601  0.7260 -0.0482
 3616TIP3    H110854   3.926   4.176   3.356  0.6095  1.5751  0.2171
 3616TIP3    H210855   3.784   4.132   3.329  1.0596  0.2039  0.0224
 3617TIP3   OH210856   0.886   5.702   4.203 -0.4971 -0.4891  0.7958
 3617TIP3    H110857   0.906   5.680   4.113  0.5810 -0.4369  1.0135
 3617TIP3    H210858   0.794   5.677   4.214 -1.5302  1.9988 -1.1019
 3618TIP3   OH210859   5.116   3.253   2.307  0.0813  0.8448 -0.0143
 3618TIP3    H110860   5.157   3.340   2.303 -1.2835  1.4570 -1.6826
 3618TIP3    H210861   5.044   3.257   2.245 -0.3762 -1.3257  0.2915
 3619TIP3   OH210862   5.144   3.407   1.224  0.6256 -0.8358 -0.2675
 3619TIP3    H110863   5.080   3.425   1.292 -0.7823 -2.2735 -1.1160
 3619TIP3    H210864   5.113   3.456   1.148 -0.5610 -2.8643 -1.1943
 3620TIP3   OH210865   4.707   5.274   3.812 -0.6839 -0.5980 -0.2084
 3620TIP3    H110866   4.713   5.261   3.907  1.6103  1.1455 -0.0272
 3620TIP3    H210867   4.759   5.203   3.775 -0.8318 -0.7524 -0.1243
 3621TIP3   OH210868   3.294   4.668   0.577  0.2482  0.2373  0.2213
 3621TIP3    H110869   3.208   4.708   0.583  0.2849  0.5797 -1.1854
 3621TIP3    H210870   3.326   4.664   0.668 -0.4106  1.9215  0.5534
 3622TIP3   OH210871   3.539   3.521   2.176  0.3867 -1.0814  0.2483
 3622TIP3    H110872   3.513   3.593   2.118  3.1496  0.7475  1.0817
 3622TIP3    H210873   3.492   3.538   2.258  0.1743 -0.8982  0.0905
 3623TIP3   OH210874   4.961   5.750   4.293  0.4808  0.3508  0.3355
 3623TIP3    H110875   5.002   5.835   4.279 -1.1307  1.1938  0.4748
 3623TIP3    H210876   5.006   5.691   4.233  1.9108  1.1930  0.5475
 3624TIP3   OH210877   6.117   0.492   4.878  0.3210  0.5577  0.2378
 3624TIP3    H110878   6.061   0.415   4.866  2.4612 -1.2194  0.9341
 3624TIP3    H210879   6.153   0.509   4.790  0.0070  0.6325  0.1233
 3625TIP3   OH210880   5.756   4.325   1.910  0.3615 -0.4414  0.0585
 3625TIP3    H110881   5.770   4.231   1.921 -0.6874 -0.4524  1.5555
 3625TIP3    H210882   5.767   4.362   1.998  1.2136  0.9134 -0.5819
 3626TIP3   OH210883   5.459   0.653   0.638 -0.2288  0.5134 -0.0219
 3626TIP3    H110884   5.473   0.662   0.732 -0.5139 -2.8963  0.4879
 3626TIP3    H210885   5.499   0.731   0.600  0.1324  1.8688  2.8795
 3627TIP3   OH210886   2.164   0.745   4.132  0.0325 -0.4030  0.1843
 3627TIP3    H110887   2.173   0.724   4.039  2.1098  1.0801  0.0028
 3627TIP3    H210888   2.216   0.678   4.177 -2.1494 -2.0249  0.4823
 3628TIP3   OH210889   2.072   3.864   5.137 -0.2709  0.0734 -0.1187
 3628TIP3    H110890   2.104   3.946   5.100 -0.0095  0.4635  0.9235
 3628TIP3    H210891   2.000   3.889   5.195  0.8790 -0.1999  1.5138
 3629TIP3   OH210892   2.907   5.253   4.291  0.7202 -0.4749 -0.0978
 3629TIP3    H110893   2.977   5.278   4.351  0.8268 -2.5628  0.7162
 3629TIP3    H210894   2.936   5.170   4.252  0.7601  0.8657 -3.2792
 3630TIP3   OH210895   4.917   4.562   4.957 -0.4460  0.1921 -1.2240
 3630TIP3    H110896   4.998   4.529   4.997  0.0971 -0.4718 -2.7684
 3630TIP3    H210897   4.897   4.642   5.005  0.8202  0.0668 -0.4392
 3631TIP3   OH210898   4.737   5.790   2.303  0.1159  0.2445  0.1495
 3631TIP3    H110899   4.695   5.843   2.235  3.2796 -0.1590 -2.3881
 3631TIP3    H210900   4.726   5.840   2.383 -0.3385  2.8557 -1.4249
 3632TIP3   OH210901   6.061   2.389   2.012 -0.0511  0.0190 -0.0546
 3632TIP3    H110902   6.130   2.404   2.077  0.2071 -3.0150  0.4776
 3632TIP3    H210903   6.106   2.345   1.939 -1.2835 -1.5269  0.0758
 3633TIP3   OH210904   4.536   1.112   3.552 -0.1052  0.4022 -0.7195
 3633TIP3    H110905   4.506   1.182   3.611  0.0810 -1.1989  1.4244
 3633TIP3    H210906   4.457   1.084   3.506 -0.4720  1.0537 -0.4978
 3634TIP3   OH210907   3.655   1.040   4.377 -0.4062 -0.0081  0.5447
 3634TIP3    H110908   3.564   1.048   4.350 -0.0168 -0.8846 -1.2537
 3634TIP3    H210909   3.697   1.120   4.345 -0.0427 -0.8317 -1.1887
 3635TIP3   OH210910   0.356   3.502   4.984 -0.0415 -0.6097  0.0661
 3635TIP3    H110911   0.315   3.508   4.897  0.5276  0.6725 -0.1454
 3635TIP3    H210912   0.308   3.566   5.037  2.1202  1.5524 -0.4093
 3636TIP3   OH210913   2.865   3.353   1.508 -0.0438  0.1309  0.4196
 3636TIP3    H110914   2.900   3.440   1.487 -1.1205  0.6840  0.8858
 3636TIP3    H210915   2.939   3.307   1.547  0.5576  0.8051  0.1150
 3637TIP3   OH210916   2.765   0.520   0.438 -0.2107  0.1344 -0.1643
 3637TIP3    H110917   2.730   0.608   0.450  1.7456  1.2816 -2.1471
 3637TIP3    H210918   2.851   0.523   0.478 -0.3297 -1.0535  0.2035
 3638TIP3   OH210919   0.132   4.079   2.434 -0.3183  0.1113 -0.5630
 3638TIP3    H110920   0.070   4.124   2.376 -1.6322 -0.0049  0.6921
 3638TIP3    H210921   0.079   4.052   2.509  1.2743  0.0081  0.5700
 3639TIP3   OH210922   4.933   3.141   2.724 -0.5680  0.7897 -0.1493
 3639TIP3    H110923   4.934   3.065   2.782 -0.4858  0.6996 -0.2696
 3639TIP3    H210924   4.969   3.109   2.641 -4.8175 -0.3204 -1.8064
 3640TIP3   OH210925   4.156   2.220   2.120 -0.2046  0.1663 -0.3213
 3640TIP3    H110926   4.210   2.186   2.049 -0.7974 -0.1736 -0.6183
 3640TIP3    H210927   4.216   2.228   2.194  0.2206 -0.3544 -0.6015
 3641TIP3   OH210928   0.432   3.285   0.685 -0.4462  0.6944 -0.2292
 3641TIP3    H110929   0.411   3.359   0.742  0.8316  1.5329 -0.7920
 3641TIP3    H210930   0.453   3.325   0.600  2.4658 -0.0074  0.0317
 3642TIP3   OH210931   1.109   0.929   2.892  0.4254  0.1300 -0.3504
 3642TIP3    H110932   1.116   0.950   2.799 -0.4261 -0.6929 -0.6172
 3642TIP3    H210933   1.020   0.956   2.916 -0.6608 -2.8424 -0.6701
 3643TIP3   OH210934   3.381   5.696   4.629  0.1888 -0.5300  0.5242
 3643TIP3    H110935   3.404   5.604   4.640  0.6643 -0.4755  0.0705
 3643TIP3    H210936   3.456   5.733   4.582 -0.9039 -0.3866 -1.2018
 3644TIP3   OH210937   3.334   0.553   4.947 -0.3167 -0.7273 -0.0556
 3644TIP3    H110938   3.259   0.612   4.945 -1.2748 -1.9100 -1.7077
 3644TIP3    H210939   3.327   0.508   5.031 -0.6241  0.1995  0.4224
 3645TIP3   OH210940   0.896   2.166   4.792  0.3404  0.1025 -0.1471
 3645TIP3    H110941   0.883   2.252   4.753  0.9543 -0.1556 -0.9420
 3645TIP3    H210942   0.984   2.140   4.766 -0.7769 -1.9515 -2.2949
 3646TIP3   OH210943   1.000   4.371   3.975 -0.3998 -0.1621  0.3509
 3646TIP3    H110944   0.998   4.392   4.068 -1.4176  0.8575  0.1237
 3646TIP3    H210945   1.071   4.307   3.966  0.3906  0.4878  1.6609
 3647TIP3   OH210946   5.248   4.943   2.226  0.2578  0.2905  0.4770
 3647TIP3    H110947   5.266   4.853   2.254  2.2045  0.9732  1.6240
 3647TIP3    H210948   5.193   4.979   2.296 -0.0701  0.1591  0.2885
 3648TIP3   OH210949   4.871   5.001   2.598 -0.0719 -0.2767  0.2596
 3648TIP3    H110950   4.858   4.957   2.682 -1.5478 -1.6009 -0.6357
 3648TIP3    H210951   4.785   5.001   2.556  0.6339  0.3536 -1.2758
 3649TIP3   OH210952   4.969   1.077   4.541  0.1668  0.6072 -0.2326
 3649TIP3    H110953   4.900   1.131   4.578  1.4003  2.7274 -0.8603
 3649TIP3    H210954   4.979   1.108   4.451  0.7249 -0.8935 -0.7263
 3650TIP3   OH210955   1.862   3.133   3.666  0.1614  0.2911  0.2042
 3650TIP3    H110956   1.921   3.119   3.741  2.8528  0.0875 -1.8078
 3650TIP3    H210957   1.919   3.126   3.589 -2.6676 -0.7371 -1.9722
 3651TIP3   OH210958   2.883   2.982   5.142 -0.4564  0.1099  0.1456
 3651TIP3    H110959   2.794   2.956   5.165  0.1403 -1.1181  1.2213
 3651TIP3    H210960   2.908   3.045   5.209 -0.0345 -0.6179  0.6825
 3652TIP3   OH210961   0.001   5.070   2.270 -0.3271  0.0372 -0.3113
 3652TIP3    H110962   0.011   4.987   2.224 -0.1713 -0.8673  1.2720
 3652TIP3    H210963   0.037   5.054   2.357  1.8079  2.4334 -0.6377
 3653TIP3   OH210964   0.187   1.667   2.125 -0.0160 -0.2600  0.2945
 3653TIP3    H110965   0.254   1.625   2.070  0.5755 -0.2806  1.0125
 3653TIP3    H210966   0.202   1.761   2.114 -0.8924 -0.2254 -0.7678
 3654TIP3   OH210967   0.286   4.338   2.110 -0.3512 -0.2963  0.5038
 3654TIP3    H110968   0.340   4.380   2.043 -1.0255 -0.8883 -0.4348
 3654TIP3    H210969   0.279   4.247   2.081 -0.8431 -0.5111  1.2656
 3655TIP3   OH210970   4.045   4.302   0.418 -0.2732 -0.2138 -0.1246
 3655TIP3    H110971   4.093   4.223   0.443  1.8664  0.5808 -1.4838
 3655TIP3    H210972   4.027   4.346   0.502  0.9459 -0.8040  0.4791
 3656TIP3   OH210973   4.221   5.034   5.091  0.0217  0.3919  0.1843
 3656TIP3    H110974   4.288   5.073   5.146  1.5027  0.2492 -1.4495
 3656TIP3    H210975   4.148   5.097   5.094  0.6425  1.0857  1.1127
 3657TIP3   OH210976   2.658   4.319   2.448 -0.4990  0.2940 -0.4030
 3657TIP3    H110977   2.632   4.334   2.539 -1.9306 -1.7551 -0.4158
 3657TIP3    H210978   2.694   4.230   2.448  1.0345  0.8693 -1.5710
 3658TIP3   OH210979   3.676   2.009   1.532  0.3105 -0.7349 -0.4742
 3658TIP3    H110980   3.672   2.016   1.627  2.3269 -0.5447 -0.3577
 3658TIP3    H210981   3.763   2.042   1.509  0.9139 -3.2164 -2.1222
 3659TIP3   OH210982   2.456   5.039   3.369  0.3313 -0.0373 -0.2694
 3659TIP3    H110983   2.498   4.954   3.383  1.1467 -0.0037 -2.1097
 3659TIP3    H210984   2.529   5.101   3.363 -0.2300  0.7291  0.5682
 3660TIP3   OH210985   1.431   0.073   1.792 -0.3355  0.2494  0.1158
 3660TIP3    H110986   1.489   0.049   1.864  1.7691  1.0856 -1.2276
 3660TIP3    H210987   1.489   0.099   1.721 -2.3667  2.0613 -1.0023
 3661TIP3   OH210988   4.967   0.420   0.247 -0.4735 -0.1555  0.3820
 3661TIP3    H110989   4.884   0.459   0.221 -0.1581  1.1351  1.2361
 3661TIP3    H210990   5.016   0.411   0.165 -0.8651  0.4985  0.0675
 3662TIP3   OH210991   5.343   2.688   2.322 -0.4128 -0.0888 -0.0097
 3662TIP3    H110992   5.266   2.744   2.323 -0.1647  0.2447  0.3235
 3662TIP3    H210993   5.359   2.667   2.414  0.4766  0.6369  0.0038
 3663TIP3   OH210994   6.117   5.774   2.650  0.6916 -0.3694 -0.8568
 3663TIP3    H110995   6.187   5.807   2.707  0.0732 -0.5763  0.0475
 3663TIP3    H210996   6.101   5.685   2.680  0.0500 -0.3280 -1.0588
 3664TIP3   OH210997   5.575   3.124   3.494  0.1297  0.0215 -0.3959
 3664TIP3    H110998   5.554   3.104   3.403  1.0822 -0.8805 -0.4294
 3664TIP3    H210999   5.563   3.041   3.540 -1.8350  0.7959  0.6150
 3665TIP3   OH211000   5.144   4.207   4.221 -0.0677  0.1876 -0.2429
 3665TIP3    H111001   5.174   4.146   4.288 -0.2098  0.6771  0.2732
 3665TIP3    H211002   5.223   4.250   4.189 -0.2220  2.1137  1.7332
 3666TIP3   OH211003   1.258   3.750   3.622  0.3331 -0.0303 -0.5999
 3666TIP3    H111004   1.168   3.764   3.590 -0.1593 -0.5381  0.5121
 3666TIP3    H211005   1.282   3.663   3.589  0.5298  0.2081 -1.1088
 3667TIP3   OH211006   3.780   1.297   2.216 -0.1538  0.5263  0.4061
 3667TIP3    H111007   3.791   1.309   2.310  1.1036 -3.1395  0.8787
 3667TIP3    H211008   3.711   1.231   2.208 -1.4843  2.0190 -1.4093
 3668TIP3   OH211009   2.801   2.149   0.172 -0.1584 -0.0262 -0.4653
 3668TIP3    H111010   2.835   2.236   0.153  2.1001 -0.4533  1.2469
 3668TIP3    H211011   2.796   2.106   0.086 -0.1456  1.3798 -1.1866
 3669TIP3   OH211012   1.491   1.596   2.066  0.2696 -0.0301 -0.0390
 3669TIP3    H111013   1.461   1.560   1.983  2.3618  1.7247 -1.6499
 3669TIP3    H211014   1.580   1.561   2.076 -0.0358 -0.4333  1.6500
 3670TIP3   OH211015   2.777   3.652   1.105 -0.4567  0.0392 -0.0030
 3670TIP3    H111016   2.764   3.562   1.134  1.5790  0.1071  1.2672
 3670TIP3    H211017   2.717   3.703   1.159  0.0999 -0.3098  0.9533
 3671TIP3   OH211018   0.917   1.327   0.786  0.0400  0.2252 -0.2573
 3671TIP3    H111019   0.890   1.362   0.871  3.7180 -0.3528  1.3578
 3671TIP3    H211020   0.962   1.401   0.744 -0.6804  0.1505 -1.1668
 3672TIP3   OH211021   1.576   0.618   1.942 -0.1577 -0.3036  0.1381
 3672TIP3    H111022   1.617   0.533   1.923  0.6202  0.1490 -0.2490
 3672TIP3    H211023   1.611   0.642   2.028 -1.0786 -0.7745  0.6744
 3673TIP3   OH211024   1.089   2.106   4.507 -0.3214 -0.4554  0.0517
 3673TIP3    H111025   1.080   2.041   4.437  0.0817 -0.6150  0.1466
 3673TIP3    H211026   1.004   2.149   4.510 -1.0777 -1.9513  0.9565
 3674TIP3   OH211027   4.668   2.032   0.116 -0.0821 -0.7416  0.5832
 3674TIP3    H111028   4.656   2.014   0.209  1.6213 -0.8425  0.8145
 3674TIP3    H211029   4.748   2.084   0.112 -0.9487  0.5454 -0.7176
 3675TIP3   OH211030   4.578   3.459   0.706 -0.1033 -0.3929  0.2882
 3675TIP3    H111031   4.496   3.454   0.755 -0.5097 -0.8894 -0.4190
 3675TIP3    H211032   4.555   3.428   0.618  0.8624 -0.6468  0.1114
 3676TIP3   OH211033   2.963   0.124   0.017  0.0365 -0.4395  0.2513
 3676TIP3    H111034   2.997   0.123   0.106  0.4810  1.6624  0.1714
 3676TIP3    H211035   2.868   0.117   0.027 -0.0900  1.6882  1.0965
 3677TIP3   OH211036   5.471   3.019   1.253  0.0318  0.3771 -0.0041
 3677TIP3    H111037   5.389   3.060   1.224 -0.6479  0.8866  2.4579
 3677TIP3    H211038   5.444   2.940   1.298  0.9139  0.4166  0.6242
 3678TIP3   OH211039   0.666   4.078   2.520  0.4454  0.1602  0.0416
 3678TIP3    H111040   0.599   4.026   2.565  0.3418  0.1834 -0.0833
 3678TIP3    H211041   0.653   4.057   2.427  1.1316 -0.4556  0.0757
 3679TIP3   OH211042   0.661   1.583   3.948 -0.1270  0.5004 -0.1330
 3679TIP3    H111043   0.582   1.621   3.988 -1.0898 -0.3425 -1.1642
 3679TIP3    H211044   0.632   1.498   3.914  1.3814 -0.0770 -0.0274
 3680TIP3   OH211045   0.460   1.523   3.676  0.3217  0.6292  0.0814
 3680TIP3    H111046   0.384   1.493   3.726 -0.0290  1.7449  0.2625
 3680TIP3    H211047   0.534   1.474   3.712 -0.4692 -1.4148 -0.9703
 3681TIP3   OH211048   0.148   1.502   4.412  0.3621 -0.3716  0.1778
 3681TIP3    H111049   0.133   1.514   4.318 -0.3763 -2.4575 -0.0259
 3681TIP3    H211050   0.071   1.540   4.454  0.6486  0.4794 -0.0595
 3682TIP3   OH211051   3.209   2.398   3.348 -0.2641  0.3440 -0.3285
 3682TIP3    H111052   3.261   2.467   3.390 -1.4970  0.7126  0.6860
 3682TIP3    H211053   3.126   2.398   3.397 -0.7593 -1.0307 -1.1086
 3683TIP3   OH211054   4.803   0.081   1.535  0.1751  0.3319 -0.3085
 3683TIP3    H111055   4.742   0.045   1.470  1.2796  2.2812 -2.5920
 3683TIP3    H211056   4.747   0.116   1.604 -1.1419 -0.3744 -0.9783
 3684TIP3   OH211057   4.814   0.623   3.277  0.1781 -0.2543 -0.2177
 3684TIP3    H111058   4.902   0.587   3.287 -0.0046 -0.3462  1.3124
 3684TIP3    H211059   4.811   0.695   3.340 -0.2622  0.9249 -1.5291
 3685TIP3   OH211060   3.944   5.357   4.063 -0.3069  0.1452 -1.0060
 3685TIP3    H111061   3.985   5.356   4.149 -2.7471 -0.1601  0.2587
 3685TIP3    H211062   4.015   5.339   4.002  1.4726  0.1394  0.9496
 3686TIP3   OH211063   6.098   2.864   2.395  0.0096 -0.1843 -0.3750
 3686TIP3    H111064   6.116   2.950   2.433 -0.1543 -0.5508  0.5518
 3686TIP3    H211065   6.156   2.805   2.441  0.1754 -0.5703 -1.0648
 3687TIP3   OH211066   0.802   4.258   0.416 -0.4327  0.1275 -0.4833
 3687TIP3    H111067   0.884   4.262   0.465 -1.1717 -2.5481  1.1794
 3687TIP3    H211068   0.823   4.294   0.330  2.6629 -1.0676 -0.3413
 3688TIP3   OH211069   3.464   4.326   3.442  0.4415 -0.3189  0.1858
 3688TIP3    H111070   3.435   4.383   3.513  0.3530 -1.0319  0.7403
 3688TIP3    H211071   3.555   4.307   3.463 -0.0943 -2.0112  1.1446
 3689TIP3   OH211072   6.101   5.279   4.758 -0.2254 -0.3394  0.0971
 3689TIP3    H111073   6.194   5.281   4.783 -0.5080  2.0142  1.1797
 3689TIP3    H211074   6.085   5.187   4.736  1.8526 -1.2212  1.8600
 3690TIP3   OH211075   3.420   3.277   1.596 -0.8598 -0.2154 -0.1503
 3690TIP3    H111076   3.441   3.344   1.661 -0.4202  0.3065 -0.8154
 3690TIP3    H211077   3.437   3.319   1.512 -0.5092 -1.1845 -0.5801
 3691TIP3   OH211078  -0.010   4.338   4.136 -0.1977  0.4211 -0.5571
 3691TIP3    H111079  -0.056   4.377   4.061  0.3474 -3.4214 -3.1452
 3691TIP3    H211080   0.077   4.379   4.134 -0.2139  0.4493 -2.0411
 3692TIP3   OH211081   2.204   4.326   1.249  0.0471 -0.2063 -0.3974
 3692TIP3    H111082   2.247   4.410   1.235  1.8209 -0.9505  0.3227
 3692TIP3    H211083   2.184   4.324   1.343 -1.5599  0.0857 -0.6958
 3693TIP3   OH211084   1.483   3.310   3.255 -0.8420  0.2439  0.0473
 3693TIP3    H111085   1.566   3.322   3.302 -0.0301  0.4559 -1.3753
 3693TIP3    H211086   1.506   3.256   3.179 -1.9902  0.3968 -0.4288
 3694TIP3   OH211087   6.247   1.480   1.811 -0.3448 -0.7284  0.5944
 3694TIP3    H111088   6.282   1.463   1.724  0.1871 -1.7154  0.9832
 3694TIP3    H211089   6.283   1.565   1.835 -0.4004 -0.5051 -0.0967
 3695TIP3   OH211090   6.026   1.943   4.616 -0.0291 -0.3653 -0.1781
 3695TIP3    H111091   6.075   2.021   4.643 -1.9883  0.9940 -0.3402
 3695TIP3    H211092   6.060   1.873   4.671  1.7156  0.5917  0.0553
 3696TIP3   OH211093   3.355   5.083   1.788 -0.2117 -0.2080 -0.2479
 3696TIP3    H111094   3.262   5.090   1.770 -0.3485 -0.4517  0.3471
 3696TIP3    H211095   3.383   5.004   1.742 -0.7716 -1.4262  1.4214
 3697TIP3   OH211096   3.328   4.295   1.281  0.1853 -0.2359 -0.1950
 3697TIP3    H111097   3.333   4.379   1.237  1.9383 -0.6759 -0.9418
 3697TIP3    H211098   3.401   4.244   1.244 -0.9273 -2.1444  0.0892
 3698TIP3   OH211099   2.064   0.053   4.141  0.1964  0.0973 -0.1582
 3698TIP3    H111100   2.038   0.103   4.064 -2.5615 -0.9040  0.0022
 3698TIP3    H211101   2.007   0.086   4.211 -0.4284 -1.9380  0.3714
 3699TIP3   OH211102   2.273   3.327   1.557  0.7248 -0.3615 -0.3002
 3699TIP3    H111103   2.313   3.389   1.496 -1.6949  0.5318 -1.1073
 3699TIP3    H211104   2.347   3.286   1.602  2.5683 -0.1401 -2.9165
 3700TIP3   OH211105   1.214   4.034   1.823 -0.0550 -0.2597  0.1701
 3700TIP3    H111106   1.156   3.965   1.793 -0.4473 -0.1083  0.5701
 3700TIP3    H211107   1.190   4.111   1.770 -1.8150  0.4373  1.8805
 3701TIP3   OH211108   1.619   2.094   4.059 -0.5480 -0.4706  0.2016
 3701TIP3    H111109   1.566   2.173   4.045 -1.4486 -0.9166  1.0124
 3701TIP3    H211110   1.681   2.094   3.985 -0.4494  1.0494  0.2462
 3702TIP3   OH211111   4.744   5.313   0.957  0.2262  0.0710 -0.4873
 3702TIP3    H111112   4.758   5.369   1.033 -1.7697  0.5808 -0.4441
 3702TIP3    H211113   4.782   5.228   0.982 -0.5987  0.1561  1.1695
 3703TIP3   OH211114   3.278   1.769   4.921 -0.5599 -0.2595  0.0678
 3703TIP3    H111115   3.334   1.762   4.998  0.3485  0.2345 -0.5345
 3703TIP3    H211116   3.256   1.862   4.915 -0.4403 -0.2570 -0.3872
 3704TIP3   OH211117   4.161   2.276   0.987  0.3927 -0.1365  0.2558
 3704TIP3    H111118   4.098   2.325   1.039  1.6919  1.6051  0.2876
 3704TIP3    H211119   4.122   2.189   0.978 -2.4229  1.0987 -0.5394
 3705TIP3   OH211120   5.122   1.321   0.972 -0.1917  0.3176  0.1897
 3705TIP3    H111121   5.156   1.250   0.918  0.0506  1.4908 -1.2498
 3705TIP3    H211122   5.130   1.288   1.062  2.1400 -0.5522 -0.2680
 3706TIP3   OH211123   3.265   2.071   1.585 -0.2637 -0.3078 -0.1548
 3706TIP3    H111124   3.176   2.077   1.550 -0.4842  0.2723  0.4983
 3706TIP3    H211125   3.321   2.084   1.508 -0.7153  3.5014 -0.0271
 3707TIP3   OH211126   2.880   5.226   0.313 -0.4478 -0.0435 -0.4864
 3707TIP3    H111127   2.833   5.268   0.384 -1.2949  1.7695 -2.0270
 3707TIP3    H211128   2.932   5.158   0.355 -0.9931  0.8831  1.8210
 3708TIP3   OH211129   6.223   1.843   1.185  0.2875 -0.0280 -0.5939
 3708TIP3    H111130   6.247   1.790   1.109 -0.1916  0.4885 -1.1174
 3708TIP3    H211131   6.136   1.876   1.164 -1.0093 -1.9775  1.3320
 3709TIP3   OH211132   4.030   1.964   2.205 -0.4546 -0.6232  0.2648
 3709TIP3    H111133   3.950   1.978   2.154 -0.8162 -0.2767  0.9018
 3709TIP3    H211134   4.086   2.039   2.182 -0.8695 -0.1294  0.8393
 3710TIP3   OH211135   2.665   0.082   0.248  0.2906  0.0230 -0.0638
 3710TIP3    H111136   2.698   0.107   0.162 -0.2328  0.2629 -0.2041
 3710TIP3    H211137   2.629  -0.006   0.235 -0.4057  0.3305 -0.2642
 3711TIP3   OH211138   2.876   4.012   0.222  0.1089  0.0996  0.5572
 3711TIP3    H111139   2.882   4.108   0.222 -0.8770  0.2021 -1.6399
 3711TIP3    H211140   2.926   3.984   0.145 -1.0715 -1.0158  0.1572
 3712TIP3   OH211141   1.182   1.244   3.300  0.4245  0.2459 -0.3694
 3712TIP3    H111142   1.221   1.170   3.253  1.4220 -0.0377  0.8235
 3712TIP3    H211143   1.098   1.258   3.258  1.6090  0.5830 -2.7714
 3713TIP3   OH211144   6.302   4.538   3.683  0.0293 -0.4849  0.1589
 3713TIP3    H111145   6.228   4.579   3.640 -0.8064 -0.9361  1.1255
 3713TIP3    H211146   6.353   4.499   3.611 -0.8848 -0.5263 -0.4806
 3714TIP3   OH211147   1.237   2.736   5.142  0.0100 -0.9720  0.6257
 3714TIP3    H111148   1.163   2.680   5.117  0.2823 -1.3860  0.7320
 3714TIP3    H211149   1.212   2.824   5.114 -1.1695 -0.8396  1.9717
 3715TIP3   OH211150   5.587   1.742   1.697  0.3248  0.1257  0.0645
 3715TIP3    H111151   5.573   1.720   1.605  1.0824  0.3634 -0.1129
 3715TIP3    H211152   5.509   1.794   1.721 -0.9026 -1.6749  0.1685
 3716TIP3   OH211153   3.838   3.403   4.906 -0.3708 -0.2952 -0.0803
 3716TIP3    H111154   3.796   3.425   4.989 -1.3383  1.1273 -0.9088
 3716TIP3    H211155   3.927   3.437   4.914 -0.3268 -0.5411  0.5227
 3717TIP3   OH211156   1.291   3.889   0.882 -0.2718  0.1260  0.1793
 3717TIP3    H111157   1.250   3.964   0.926 -1.2117 -0.0166 -0.4221
 3717TIP3    H211158   1.270   3.814   0.938  0.1041  0.2178  0.4410
 3718TIP3   OH211159   2.259   0.759   1.450  0.1121 -0.5563  0.3354
 3718TIP3    H111160   2.263   0.845   1.492 -0.1830 -0.5855  0.4258
 3718TIP3    H211161   2.274   0.697   1.521 -1.3772 -0.6495  0.6019
 3719TIP3   OH211162   4.126   0.786   2.948  0.2417  0.2069  0.8418
 3719TIP3    H111163   4.128   0.699   2.988  0.0388 -0.7879 -1.1831
 3719TIP3    H211164   4.211   0.823   2.969 -0.2238  0.2082  3.0535
 3720TIP3   OH211165   1.553   5.870   5.141 -0.7027 -0.2673  0.3218
 3720TIP3    H111166   1.568   5.809   5.213  0.9447  0.6951  0.8525
 3720TIP3    H211167   1.635   5.869   5.092 -0.8023  1.1870  0.0996
 3721TIP3   OH211168   3.387   5.241   4.896  0.6262 -0.5414  0.5603
 3721TIP3    H111169   3.466   5.229   4.949 -0.3898 -0.8084  2.0765
 3721TIP3    H211170   3.315   5.229   4.958 -0.6093 -0.3303 -0.7952
 3722TIP3   OH211171   2.753   1.848   3.286 -0.3759 -0.2646 -0.3479
 3722TIP3    H111172   2.668   1.814   3.315 -1.3238  2.3669  0.1833
 3722TIP3    H211173   2.734   1.893   3.204  0.5528  0.2027 -0.3145
 3723TIP3   OH211174   5.170   2.277   3.572 -0.1295  0.4516  0.3299
 3723TIP3    H111175   5.077   2.264   3.556 -0.2903  0.9119  0.8841
 3723TIP3    H211176   5.178   2.368   3.600  0.8665  1.4405 -2.6871
 3724TIP3   OH211177   4.371   4.272   4.382  0.2882  0.0184 -0.0875
 3724TIP3    H111178   4.348   4.179   4.390 -0.5752  0.2162 -0.1233
 3724TIP3    H211179   4.426   4.289   4.459 -1.0546 -0.0958  0.9442
 3725TIP3   OH211180   3.653   1.748   1.986 -0.1751 -0.2125 -0.1233
 3725TIP3    H111181   3.603   1.690   1.929  0.4187 -0.7958 -0.0657
 3725TIP3    H211182   3.719   1.691   2.026 -0.4580  0.2145  1.0027
 3726TIP3   OH211183   5.921   3.189   2.291 -0.0597  0.4565 -0.3705
 3726TIP3    H111184   5.858   3.120   2.269 -0.5819  1.2283 -1.3543
 3726TIP3    H211185   5.967   3.206   2.209 -0.2825  1.6238 -0.2653
 3727TIP3   OH211186   2.127   1.779   3.738 -0.7105  0.4019  0.4790
 3727TIP3    H111187   2.114   1.688   3.764 -1.2324  0.5309  0.6953
 3727TIP3    H211188   2.100   1.783   3.646  4.5084 -0.8440 -1.4365
 3728TIP3   OH211189   0.788   5.326   3.770 -0.1742 -0.4619  0.1869
 3728TIP3    H111190   0.857   5.276   3.725  0.1015 -1.9546  2.1503
 3728TIP3    H211191   0.710   5.272   3.760 -1.1652  1.2044 -1.9950
 3729TIP3   OH211192   2.807   1.256   0.277 -0.7346 -0.0357 -0.0401
 3729TIP3    H111193   2.755   1.335   0.294  0.1098  0.9282 -1.6473
 3729TIP3    H211194   2.822   1.218   0.363 -0.3141  2.1302  0.9315
 3730TIP3   OH211195   1.167   1.490   0.257 -0.6256 -0.2993  0.0386
 3730TIP3    H111196   1.156   1.493   0.352 -1.1158 -0.2641 -0.0192
 3730TIP3    H211197   1.247   1.540   0.240 -1.4802  1.1894  0.2773
 3731TIP3   OH211198  -0.014   2.309   2.706 -0.0475 -1.0594  0.1392
 3731TIP3    H111199   0.055   2.335   2.646 -1.2576  0.3763 -0.6791
 3731TIP3    H211200  -0.025   2.215   2.691 -0.2259 -0.7616 -1.8293
 3732TIP3   OH211201   5.331   4.930   2.542  0.0778 -0.4336 -0.0726
 3732TIP3    H111202   5.311   4.981   2.620 -1.1285  0.2849 -0.8273
 3732TIP3    H211203   5.248   4.923   2.495  0.4475 -2.1241 -0.5694
 3733TIP3   OH211204   2.412   0.953   0.843 -0.5566 -0.2576  0.0482
 3733TIP3    H111205   2.391   0.995   0.760 -1.3731  0.5630  0.6442
 3733TIP3    H211206   2.339   0.978   0.901 -0.6983 -1.9270  0.6285
 3734TIP3   OH211207   6.109   5.154   4.467 -0.5168  0.0560 -0.3941
 3734TIP3    H111208   6.150   5.072   4.493 -1.1330 -0.3286 -0.6060
 3734TIP3    H211209   6.157   5.182   4.389 -0.4615 -0.2366 -0.4662
 3735TIP3   OH211210   6.233   2.871   4.146 -0.1014 -0.3512  0.1360
 3735TIP3    H111211   6.302   2.918   4.098 -0.5658  0.9878  0.7278
 3735TIP3    H211212   6.249   2.779   4.127  1.6871 -0.0552  0.0327
 3736TIP3   OH211213   2.833   3.401   4.047  0.3139 -0.0823  0.0553
 3736TIP3    H111214   2.854   3.369   4.135 -0.4219 -0.4433  0.1046
 3736TIP3    H211215   2.742   3.429   4.052  0.1100 -0.5611 -0.7145
 3737TIP3   OH211216   4.727   4.839   1.818  0.0537  0.1452 -0.2590
 3737TIP3    H111217   4.711   4.920   1.867 -2.5536 -0.4410 -0.0218
 3737TIP3    H211218   4.747   4.869   1.729  3.0060  1.1434  0.6335
 3738TIP3   OH211219   1.963   5.166   5.200  0.4184 -0.1867  0.3160
 3738TIP3    H111220   1.887   5.205   5.156  1.3382  1.1994 -0.0999
 3738TIP3    H211221   2.037   5.219   5.172  1.5467 -1.4338  0.8189
 3739TIP3   OH211222   0.321   2.801   3.281 -0.1524 -0.0493 -0.2050
 3739TIP3    H111223   0.352   2.840   3.199  0.5506 -0.4547 -0.1428
 3739TIP3    H211224   0.236   2.763   3.258  0.5959 -1.2593 -1.0797
 3740TIP3   OH211225   0.327   2.897   2.533 -0.0601 -0.0184  0.3182
 3740TIP3    H111226   0.366   2.815   2.503 -0.4638 -0.5121  1.1027
 3740TIP3    H211227   0.322   2.888   2.628 -0.7540  0.6205  0.3543
 3741TIP3   OH211228   5.001   3.960   4.930 -0.3389 -0.2714  0.5688
 3741TIP3    H111229   4.928   4.001   4.883  0.1096 -0.2605 -0.1398
 3741TIP3    H211230   5.027   3.886   4.874  0.9944  0.4687  0.1610
 3742TIP3   OH211231   2.391   1.942   1.351 -0.0384 -0.0941 -0.4435
 3742TIP3    H111232   2.388   1.864   1.406 -0.2992 -1.0624 -1.7977
 3742TIP3    H211233   2.443   1.917   1.275 -0.0602  1.0765 -0.8696
 3743TIP3   OH211234   2.246   3.879   4.592 -0.1251 -0.5592  0.1420
 3743TIP3    H111235   2.214   3.869   4.502 -1.0485  0.1481  0.3747
 3743TIP3    H211236   2.244   3.791   4.628 -0.3783 -0.7508 -0.3287
 3744TIP3   OH211237   4.609   4.832   3.790 -0.3205  0.0990 -0.9952
 3744TIP3    H111238   4.670   4.767   3.755 -1.2958 -1.9662  0.8523
 3744TIP3    H211239   4.659   4.877   3.859 -0.1250  0.1765 -1.1881
 3745TIP3   OH211240   0.898   5.006   4.540  0.2407 -0.0823 -0.1960
 3745TIP3    H111241   0.900   5.097   4.508  0.3097  0.2105  0.6264
 3745TIP3    H211242   0.879   4.954   4.462 -0.6075  0.7049 -0.5273
 3746TIP3   OH211243   6.178   0.911   3.412 -0.5041  0.0458  0.3655
 3746TIP3    H111244   6.207   0.848   3.478 -0.4048  2.0708  2.3591
 3746TIP3    H211245   6.139   0.983   3.462 -3.3496  0.2990 -1.9381
 3747TIP3   OH211246   4.959   3.024   0.168  0.2807 -0.4061  0.3210
 3747TIP3    H111247   4.934   3.016   0.260  0.8888  1.8172  0.7514
 3747TIP3    H211248   4.894   3.084   0.130  0.1956 -1.0814 -0.6322
 3748TIP3   OH211249   3.038   2.573   3.583  0.0953  0.2052  0.7521
 3748TIP3    H111250   3.024   2.479   3.575 -3.5338  0.7525 -1.3793
 3748TIP3    H211251   3.056   2.587   3.676 -1.5813 -2.3965  1.5680
 3749TIP3   OH211252   4.523   3.487   0.126  0.4444  0.4649  0.3375
 3749TIP3    H111253   4.606   3.512   0.085  0.7995  0.0444  0.7809
 3749TIP3    H211254   4.523   3.533   0.209 -1.4577  3.4053 -1.1188
 3750TIP3   OH211255   4.901   0.569   1.544  0.0533 -0.1946  0.4287
 3750TIP3    H111256   4.929   0.483   1.514 -1.9164 -0.5284 -0.6512
 3750TIP3    H211257   4.826   0.551   1.602  1.1769  0.6899  2.2320
 3751TIP3   OH211258   0.901   3.557   4.281 -0.1393 -0.0677 -0.4863
 3751TIP3    H111259   0.807   3.540   4.281 -0.1678  0.0825 -0.7216
 3751TIP3    H211260   0.924   3.566   4.188  0.0322  0.3010 -0.4114
 3752TIP3   OH211261   4.875   2.006   4.330  0.1721 -0.1708 -0.3411
 3752TIP3    H111262   4.880   2.070   4.259 -1.5207 -0.9644 -1.2243
 3752TIP3    H211263   4.798   2.031   4.380 -0.0829 -1.0668 -0.2603
 3753TIP3   OH211264   5.239   0.531   2.527  0.1202  0.2630 -0.2317
 3753TIP3    H111265   5.323   0.523   2.573  0.5678 -3.2837 -1.3467
 3753TIP3    H211266   5.263   0.552   2.437 -0.3693  1.4018 -0.1106
 3754TIP3   OH211267   2.189   5.017   3.900  0.3505 -0.2078 -0.0391
 3754TIP3    H111268   2.181   4.989   3.808  1.6075  0.1226 -0.2772
 3754TIP3    H211269   2.283   5.025   3.914  0.1681 -0.1174  1.2530
 3755TIP3   OH211270   4.035   0.449   1.577  0.2453  0.2546  0.0363
 3755TIP3    H111271   4.026   0.508   1.502 -0.1399 -2.1135 -1.9143
 3755TIP3    H211272   4.129   0.430   1.580  0.2851  0.4868  0.2787
 3756TIP3   OH211273   6.072   0.549   3.076 -0.0098  0.5363 -0.0356
 3756TIP3    H111274   6.089   0.466   3.119  0.5907  0.0157 -1.2428
 3756TIP3    H211275   5.996   0.585   3.121 -0.1208 -0.5506  0.6548
 3757TIP3   OH211276   2.090   3.938   2.467  0.2721 -0.2856 -0.6282
 3757TIP3    H111277   2.034   3.961   2.541  0.2053 -0.4901 -0.6135
 3757TIP3    H211278   2.135   3.858   2.495  1.9448  0.8389  0.0893
 3758TIP3   OH211279   1.322   0.994   4.169  0.2520  0.3068  0.0614
 3758TIP3    H111280   1.330   1.046   4.089 -0.9904  0.0687 -0.2422
 3758TIP3    H211281   1.412   0.983   4.199  0.7320  0.5613 -1.1986
 3759TIP3   OH211282   2.443   1.711   2.069 -0.2863  0.3694  0.0637
 3759TIP3    H111283   2.447   1.617   2.087  0.6950  0.1021 -1.3954
 3759TIP3    H211284   2.488   1.751   2.143  1.4394 -0.5009 -0.4527
 3760TIP3   OH211285   3.596   0.335   2.803 -0.2320  0.6643 -0.2487
 3760TIP3    H111286   3.626   0.349   2.894  0.4273 -2.0007  0.0298
 3760TIP3    H211287   3.513   0.288   2.812 -1.1155  2.0037 -1.0719
 3761TIP3   OH211288   4.736   3.379   2.287  0.7243 -0.1170  0.6644
 3761TIP3    H111289   4.734   3.297   2.336  1.2964  0.5978  1.9375
 3761TIP3    H211290   4.649   3.416   2.298  0.6105 -0.3278  0.4800
 3762TIP3   OH211291   4.634   4.701   3.387 -0.3339 -0.1473 -0.7080
 3762TIP3    H111292   4.538   4.699   3.397 -0.3485  1.9238  0.1040
 3762TIP3    H211293   4.648   4.713   3.293 -1.0114  1.9741 -0.5988
 3763TIP3   OH211294   5.894   1.429   1.557  0.1735  0.2637 -0.4303
 3763TIP3    H111295   5.828   1.359   1.555  0.2279 -0.0236  2.5829
 3763TIP3    H211296   5.978   1.383   1.547  0.1893 -0.1351  1.2297
 3764TIP3   OH211297   4.743   3.267   1.833 -0.2585 -0.5799 -0.1592
 3764TIP3    H111298   4.802   3.335   1.802 -0.0061 -0.1409  1.2216
 3764TIP3    H211299   4.692   3.308   1.902 -0.7358 -1.5344  0.0786
 3765TIP3   OH211300   1.979   5.370   1.865  0.1436 -0.3998 -0.2784
 3765TIP3    H111301   1.968   5.463   1.847 -0.6307 -0.2917  0.6847
 3765TIP3    H211302   2.032   5.367   1.945 -2.0879 -0.6910  1.2678
 3766TIP3   OH211303   3.414   4.334   3.729  0.2812 -0.0417  0.0849
 3766TIP3    H111304   3.467   4.258   3.751  0.8040 -0.0111 -1.0036
 3766TIP3    H211305   3.373   4.360   3.811  0.7605 -0.9857  0.6312
 3767TIP3   OH211306   4.259   3.674   0.791 -0.7753 -0.2614 -0.1627
 3767TIP3    H111307   4.206   3.605   0.832 -1.8468  0.5753 -0.0887
 3767TIP3    H211308   4.308   3.713   0.863 -1.8691  0.5161  0.1888
 3768TIP3   OH211309   5.417   1.173   4.918 -0.5770  0.2046 -0.1910
 3768TIP3    H111310   5.360   1.097   4.933 -0.5770 -0.0699 -1.4539
 3768TIP3    H211311   5.459   1.188   5.002  0.8560 -2.3899 -0.3531
 3769TIP3   OH211312   0.942   4.893   3.804  0.4647  0.2097  0.1021
 3769TIP3    H111313   1.030   4.915   3.773  0.3867  0.1896 -0.1334
 3769TIP3    H211314   0.884   4.933   3.739  0.3179 -0.8421 -0.4254
 3770TIP3   OH211315   0.662   1.021   4.169 -0.2386  0.7251  0.2462
 3770TIP3    H111316   0.681   1.050   4.080  0.3854 -1.3472 -0.3562
 3770TIP3    H211317   0.744   1.035   4.216 -0.8148  2.6111  0.7699
 3771TIP3   OH211318   0.630   0.700   4.659  0.3518 -0.4109  0.3134
 3771TIP3    H111319   0.696   0.699   4.590 -1.0288 -0.1175 -1.0751
 3771TIP3    H211320   0.550   0.671   4.615 -0.2459 -1.6796  2.1673
 3772TIP3   OH211321   6.154   5.444   2.371  0.5062  0.4329 -0.0830
 3772TIP3    H111322   6.114   5.450   2.458  0.4479 -1.2351  0.0246
 3772TIP3    H211323   6.114   5.368   2.331  1.5442  0.3716 -1.0540
 3773TIP3   OH211324   4.623   1.569   3.755 -0.2265  0.0759 -0.2884
 3773TIP3    H111325   4.641   1.619   3.835  0.5761 -0.5180 -0.0915
 3773TIP3    H211326   4.552   1.617   3.713  0.0318  0.9751  0.2704
 3774TIP3   OH211327   4.095   0.276   2.406 -0.0777 -0.4781  0.0806
 3774TIP3    H111328   4.147   0.331   2.465 -0.0116  1.1234 -1.3975
 3774TIP3    H211329   4.004   0.298   2.426 -0.1027 -0.9672  0.5229
 3775TIP3   OH211330   5.728   0.803   4.067  0.2217 -0.8798 -0.3272
 3775TIP3    H111331   5.645   0.798   4.114  0.5268  0.8774  0.4795
 3775TIP3    H211332   5.723   0.885   4.018  1.6631 -0.5011  0.1087
 3776TIP3   OH211333   3.182   5.527   3.870 -0.3060  0.4295 -0.3461
 3776TIP3    H111334   3.088   5.524   3.890 -0.2866  1.2635 -0.0982
 3776TIP3    H211335   3.187   5.556   3.779 -0.2889  0.1940 -0.4220
 3777TIP3   OH211336   5.247   4.752   4.172  0.7035  0.3828 -0.4418
 3777TIP3    H111337   5.224   4.841   4.147  0.8283  0.0438 -1.8491
 3777TIP3    H211338   5.249   4.704   4.089 -2.3953 -1.6588  0.5226
 3778TIP3   OH211339   2.905   0.993   1.994 -0.1804 -0.0673 -0.3457
 3778TIP3    H111340   2.845   1.061   2.024  0.0710  0.6084 -1.3612
 3778TIP3    H211341   2.987   1.012   2.038  0.4561  1.4737 -2.0742
 3779TIP3   OH211342   2.459   2.317   4.026  0.7435  0.1278  0.0883
 3779TIP3    H111343   2.380   2.274   4.059  0.7497  0.7309  0.9336
 3779TIP3    H211344   2.502   2.251   3.973 -0.3112 -0.2250 -0.3589
 3780TIP3   OH211345   5.317   5.842   3.440 -0.5883  0.3445  0.4725
 3780TIP3    H111346   5.317   5.781   3.514 -1.7336 -0.9753 -0.5703
 3780TIP3    H211347   5.234   5.890   3.448 -0.7688  0.1186 -0.0057
 3781TIP3   OH211348   4.704   1.887   2.583 -0.5756 -0.2963 -0.0049
 3781TIP3    H111349   4.669   1.898   2.671 -0.0115 -0.0564  0.1933
 3781TIP3    H211350   4.798   1.897   2.593 -0.4093 -1.2267 -0.4792
 3782TIP3   OH211351   3.965   3.744   2.907 -0.4763 -0.1079 -0.1642
 3782TIP3    H111352   3.874   3.720   2.922 -0.0788 -1.7215 -0.1797
 3782TIP3    H211353   4.008   3.662   2.884  0.8043  0.7771 -1.0495
 3783TIP3   OH211354   1.829   3.458   4.614 -0.0247  0.2624 -0.4182
 3783TIP3    H111355   1.777   3.504   4.548 -1.2834  0.4930  0.6860
 3783TIP3    H211356   1.852   3.374   4.572 -0.7757  0.4074 -1.1513
 3784TIP3   OH211357   1.009   1.692   0.884  0.0184  0.4619  0.6925
 3784TIP3    H111358   1.082   1.636   0.857 -1.9136 -2.1043  0.4129
 3784TIP3    H211359   1.001   1.676   0.979 -0.6785  0.0326  0.5724
 3785TIP3   OH211360   0.203   1.113   2.154  0.1969 -0.2016 -0.0954
 3785TIP3    H111361   0.254   1.138   2.077  1.1595 -1.3784  0.1263
 3785TIP3    H211362   0.260   1.053   2.202  0.0683  1.3236  2.1246
 3786TIP3   OH211363   2.153   1.609   4.920 -0.2698 -0.0759 -0.0722
 3786TIP3    H111364   2.091   1.627   4.991 -0.9423  4.3504 -1.4885
 3786TIP3    H211365   2.238   1.632   4.956  0.3024 -3.1243  0.8486
 3787TIP3   OH211366   0.558   1.211   0.452 -0.4546  0.2508  0.5699
 3787TIP3    H111367   0.604   1.248   0.377 -2.0818 -0.5484 -0.9130
 3787TIP3    H211368   0.625   1.160   0.498  0.2506 -0.7660 -1.4188
 3788TIP3   OH211369   1.076   3.639   2.574 -0.4697  0.0257  0.6119
 3788TIP3    H111370   1.005   3.584   2.540  1.1496 -0.4804 -2.3859
 3788TIP3    H211371   1.145   3.577   2.599  0.1540  0.5718  0.2903
 3789TIP3   OH211372   4.530   2.861   0.175 -0.0813 -0.3143 -0.2390
 3789TIP3    H111373   4.564   2.947   0.200 -0.8272  0.2561 -1.0924
 3789TIP3    H211374   4.602   2.819   0.128  0.0825  0.1127 -0.3803
 3790TIP3   OH211375   5.498   3.547   2.708 -0.6014  0.2240  0.0045
 3790TIP3    H111376   5.461   3.500   2.633 -1.1017  0.8652 -0.1650
 3790TIP3    H211377   5.587   3.571   2.679  0.8157 -3.1204  1.1884
 3791TIP3   OH211378   3.223   2.275   0.928 -0.0262 -0.2502 -0.9650
 3791TIP3    H111379   3.205   2.275   1.022 -1.1865  1.4685 -1.1508
 3791TIP3    H211380   3.300   2.218   0.919 -0.8900 -1.8353  0.8009
 3792TIP3   OH211381   1.905   1.654   3.945 -0.5555  0.5275  0.3983
 3792TIP3    H111382   1.822   1.687   3.912  0.9760  1.2943 -3.2512
 3792TIP3    H211383   1.954   1.732   3.970  0.6836  0.6449 -2.0420
 3793TIP3   OH211384   1.008   1.699   2.719 -0.4298 -0.5988 -0.9890
 3793TIP3    H111385   1.064   1.769   2.752  2.2935 -1.4798 -3.3045
 3793TIP3    H211386   0.981   1.729   2.632 -0.5496 -1.7487 -1.3620
 3794TIP3   OH211387   1.007   3.855   1.638  0.5097 -0.8398 -0.8346
 3794TIP3    H111388   0.950   3.912   1.586 -1.0506 -0.4254  1.2040
 3794TIP3    H211389   1.044   3.794   1.574 -0.6903  0.1241 -2.5315
 3795TIP3   OH211390   5.626   4.758   4.053 -0.4722 -0.1776 -0.4710
 3795TIP3    H111391   5.577   4.822   4.105 -1.4980  0.7003 -2.4121
 3795TIP3    H211392   5.696   4.809   4.012 -0.2763 -0.6427 -0.7242
 3796TIP3   OH211393   1.694   2.403   1.578 -0.1023  0.5475  0.6466
 3796TIP3    H111394   1.710   2.345   1.652  1.2813 -1.8740 -1.3701
 3796TIP3    H211395   1.607   2.378   1.547 -0.1352  0.6293  0.6727
 3797TIP3   OH211396   1.161   5.238   1.747  0.1363  0.7942  0.2754
 3797TIP3    H111397   1.159   5.143   1.764 -0.8248  1.0609  1.8318
 3797TIP3    H211398   1.222   5.247   1.673  0.3700 -1.0156  0.1834
 3798TIP3   OH211399   5.818   2.378   4.396  0.1148 -0.3241 -0.2670
 3798TIP3    H111400   5.741   2.323   4.380 -0.5086  0.7238 -0.9614
 3798TIP3    H211401   5.803   2.456   4.343  1.8018 -0.2201 -0.6429
 3799TIP3   OH211402   2.144   3.204   2.836 -0.1121  0.1904 -0.8620
 3799TIP3    H111403   2.216   3.237   2.890 -0.6541  1.2205 -0.7361
 3799TIP3    H211404   2.168   3.228   2.747  0.7674 -1.4829 -1.1219
 3800TIP3   OH211405   5.086   0.156   4.064 -0.0668 -0.2264 -0.0626
 3800TIP3    H111406   5.029   0.081   4.080 -1.1473  0.3503 -1.0746
 3800TIP3    H211407   5.048   0.200   3.989  2.2685 -0.3496 -1.4284
 3801TIP3   OH211408   5.066   4.484   3.606 -0.5572 -0.0706 -0.1196
 3801TIP3    H111409   5.055   4.512   3.515  1.0215  1.1398  0.0117
 3801TIP3    H211410   5.038   4.559   3.658  1.5533  0.5223  0.2875
 3802TIP3   OH211411   6.022   3.226   2.026  0.1275  0.3868  0.6686
 3802TIP3    H111412   5.938   3.257   1.992  0.3868  1.4823  0.9832
 3802TIP3    H211413   6.039   3.146   1.977 -0.3742  0.9555 -0.4904
 3803TIP3   OH211414   1.187   4.571   2.247 -0.0673 -0.2474  0.3976
 3803TIP3    H111415   1.191   4.489   2.198  1.5270  1.3228 -2.4020
 3803TIP3    H211416   1.118   4.621   2.203  0.1346  0.5498  0.9746
 3804TIP3   OH211417   2.233   4.364   4.245 -0.3730 -0.1570 -0.1690
 3804TIP3    H111418   2.243   4.347   4.151  0.6728 -0.7684  0.0293
 3804TIP3    H211419   2.186   4.287   4.278 -0.8656  0.1240 -0.2091
 3805TIP3   OH211420   6.226   1.214   0.312 -0.0462 -0.0157  0.2050
 3805TIP3    H111421   6.291   1.177   0.372 -0.4061  1.9241  1.9109
 3805TIP3    H211422   6.147   1.223   0.365 -0.7661  0.6046 -0.9272
 3806TIP3   OH211423   2.422   1.327   2.362 -0.0439 -0.2881 -0.6404
 3806TIP3    H111424   2.446   1.348   2.271  1.2054 -2.5075 -0.9026
 3806TIP3    H211425   2.489   1.370   2.415  1.1930 -1.6235 -1.0332
 3807TIP3   OH211426   0.028   1.719   1.835 -0.1933 -0.1690 -0.2329
 3807TIP3    H111427   0.051   1.772   1.758  0.7852  1.5606  1.1676
 3807TIP3    H211428   0.109   1.675   1.859 -0.5672 -0.9320 -0.3251
 3808TIP3   OH211429   3.917   3.934   2.603 -0.3592  0.8426 -0.2556
 3808TIP3    H111430   3.879   4.010   2.559 -0.2835  1.1788  0.2599
 3808TIP3    H211431   3.949   3.967   2.686  0.2279  0.3701 -0.2861
 3809TIP3   OH211432   0.393   2.744   4.971 -0.4378 -0.4474 -0.0424
 3809TIP3    H111433   0.381   2.778   4.883 -0.4162 -0.0565  0.1050
 3809TIP3    H211434   0.484   2.715   4.974  0.0898  1.1480  0.3906
 3810TIP3   OH211435   0.898   2.743   2.566  0.2984 -0.4696  0.2846
 3810TIP3    H111436   0.917   2.677   2.633 -0.3470  0.6001  1.5669
 3810TIP3    H211437   0.971   2.804   2.571  0.8397 -0.9984 -0.8265
 3811TIP3   OH211438   5.647   5.545   2.373  0.0093 -0.1024  0.0923
 3811TIP3    H111439   5.651   5.543   2.468 -1.6560  3.0739  0.3702
 3811TIP3    H211440   5.616   5.458   2.348  0.9933 -1.1679  2.3571
 3812TIP3   OH211441   5.127   1.608   1.067  1.2453  0.5357  0.5021
 3812TIP3    H111442   5.078   1.674   1.018 -1.4816 -1.3509  0.4632
 3812TIP3    H211443   5.125   1.530   1.012  0.3325 -0.9079  2.4526
 3813TIP3   OH211444   2.455   3.084   2.706 -0.0110 -0.1312 -0.4805
 3813TIP3    H111445   2.519   3.152   2.686  0.6517 -1.0904 -1.8402
 3813TIP3    H211446   2.376   3.111   2.659 -0.3027  0.5582  0.3949
 3814TIP3   OH211447   3.931   1.921   4.441 -0.4050 -0.4379 -0.2584
 3814TIP3    H111448   3.947   1.871   4.361 -0.3502 -1.6833  0.5132
 3814TIP3    H211449   3.836   1.932   4.444 -0.5267 -1.4712  0.1216
 3815TIP3   OH211450   1.572   4.604   4.370  0.1173 -0.1307 -0.2320
 3815TIP3    H111451   1.601   4.694   4.378  2.8722 -0.9166 -0.5158
 3815TIP3    H211452   1.549   4.594   4.277 -0.7897  0.4030 -0.0764
 3816TIP3   OH211453   5.847   0.500   0.168  0.2503  0.2366  0.3396
 3816TIP3    H111454   5.752   0.513   0.179 -0.0139  0.0972 -1.5627
 3816TIP3    H211455   5.882   0.512   0.256 -1.5278  0.3410  1.0850
 3817TIP3   OH211456   4.688   2.501   4.542 -0.1074 -0.9382 -0.1182
 3817TIP3    H111457   4.623   2.442   4.581 -0.2244 -0.1341  0.9347
 3817TIP3    H211458   4.763   2.445   4.524  0.0642 -1.2958  1.5591
 3818TIP3   OH211459   0.328   0.830   0.337 -0.3097 -0.4583  0.2061
 3818TIP3    H111460   0.416   0.793   0.339  0.0581  0.3481 -0.5318
 3818TIP3    H211461   0.299   0.819   0.247 -1.4767 -1.8244  0.7096
 3819TIP3   OH211462   1.994   2.825   2.945 -0.1477  0.2681 -0.0650
 3819TIP3    H111463   2.009   2.872   2.863  0.0038 -2.2162 -1.5727
 3819TIP3    H211464   1.901   2.800   2.941 -0.3220  0.7192  0.8877
 3820TIP3   OH211465   4.614   1.018   2.902 -0.0751  0.1734 -0.5417
 3820TIP3    H111466   4.623   1.103   2.944  0.0498 -0.1065  0.0146
 3820TIP3    H211467   4.605   0.956   2.975  0.5004 -0.3665 -0.9119
 3821TIP3   OH211468   5.432   4.827   0.610  0.1803 -0.3218  0.4724
 3821TIP3    H111469   5.489   4.801   0.683  1.5178 -0.3682 -0.5410
 3821TIP3    H211470   5.421   4.747   0.559 -0.2011 -0.1374  0.2570
 3822TIP3   OH211471   5.086   3.119   1.287  0.2102 -0.4129  0.0425
 3822TIP3    H111472   5.134   3.193   1.250 -0.8382  0.4709  0.4049
 3822TIP3    H211473   4.994   3.144   1.281 -0.0929 -1.0374  1.5496
 3823TIP3   OH211474   2.957   3.956   2.928  0.1719  0.2662 -0.2407
 3823TIP3    H111475   2.918   3.967   2.841  0.2633  0.9624 -0.1923
 3823TIP3    H211476   2.920   4.026   2.981  1.3253  0.8273 -0.1388
 3824TIP3   OH211477   5.594   2.260   2.165 -0.4251  0.1260  0.1636
 3824TIP3    H111478   5.523   2.319   2.190 -2.3075 -1.4797 -1.1250
 3824TIP3    H211479   5.579   2.181   2.216 -0.4496 -0.7730 -1.1924
 3825TIP3   OH211480   3.054   0.915   3.574 -0.4758 -0.9440 -0.0845
 3825TIP3    H111481   3.061   0.852   3.502  0.2505 -0.4292 -0.4776
 3825TIP3    H211482   3.057   1.001   3.531 -2.2560 -0.6162  0.3654
 3826TIP3   OH211483   2.250   2.075   4.900 -0.0922  0.0436 -0.0464
 3826TIP3    H111484   2.157   2.059   4.916  0.2443 -1.0936  0.9909
 3826TIP3    H211485   2.254   2.164   4.867 -1.3803  0.8702  1.8425
 3827TIP3   OH211486   3.132   0.799   2.369 -0.2604 -0.3908  0.1976
 3827TIP3    H111487   3.211   0.842   2.402  1.3085 -0.8947 -2.5788
 3827TIP3    H211488   3.126   0.718   2.419  0.6723 -0.1150  0.7880
 3828TIP3   OH211489   5.176   2.383   1.398 -0.0941 -0.1853  0.1624
 3828TIP3    H111490   5.199   2.362   1.307  2.1436 -2.9150  1.2290
 3828TIP3    H211491   5.139   2.303   1.433 -2.0517  1.1857  1.4088
 3829TIP3   OH211492   5.592   1.457   1.204  0.3896  0.4311  0.3906
 3829TIP3    H111493   5.550   1.534   1.241  0.1333  0.0558  0.9058
 3829TIP3    H211494   5.668   1.442   1.262 -0.5500 -0.7249  1.3890
 3830TIP3   OH211495   3.474   1.869   2.794 -0.0280 -0.9410 -0.1853
 3830TIP3    H111496   3.545   1.806   2.780  1.1813  0.5136 -0.9096
 3830TIP3    H211497   3.514   1.954   2.776 -2.0125 -0.0749 -0.7844
 3831TIP3   OH211498   4.190   0.429   3.732  0.3269  0.5720  0.7320
 3831TIP3    H111499   4.117   0.367   3.739  1.2740 -0.7289 -0.3771
 3831TIP3    H211500   4.242   0.396   3.659 -0.3977  4.0282 -1.5398
 3832TIP3   OH211501   2.517   0.795   2.852 -0.1414 -0.3705  0.1185
 3832TIP3    H111502   2.457   0.744   2.906  0.6506  0.2709  1.6519
 3832TIP3    H211503   2.481   0.788   2.763 -1.4551 -1.4748  0.7017
 3833TIP3   OH211504   6.320   1.496   0.502  0.1797 -0.3733 -0.1568
 3833TIP3    H111505   6.306   1.566   0.438  0.5487 -0.1560 -0.0014
 3833TIP3    H211506   6.393   1.446   0.467 -0.9917 -1.5604 -1.0097
 3834TIP3   OH211507   1.737   1.221   3.541 -0.1745  0.5463  0.1657
 3834TIP3    H111508   1.813   1.200   3.596  0.8407  0.4086 -1.2267
 3834TIP3    H211509   1.662   1.185   3.588  0.8806 -1.2882  0.5236
 3835TIP3   OH211510   3.098   2.227   4.122 -0.2068  0.1873  0.3234
 3835TIP3    H111511   3.182   2.211   4.166 -0.2258 -0.0762  0.2679
 3835TIP3    H211512   3.032   2.194   4.184 -0.2159 -0.5218 -0.0444
 3836TIP3   OH211513   4.667   1.712   3.984 -0.6537 -0.2567  0.1982
 3836TIP3    H111514   4.742   1.766   3.959 -1.1379 -0.5139 -2.0957
 3836TIP3    H211515   4.608   1.773   4.029  0.8305 -0.0397  1.9728
 3837TIP3   OH211516   2.983   1.822   1.662 -0.3598 -0.1304  0.7235
 3837TIP3    H111517   2.935   1.770   1.726  0.1564  0.8999  1.9874
 3837TIP3    H211518   2.978   1.912   1.696 -0.6518  0.5640 -1.0328
 3838TIP3   OH211519   5.998   2.059   1.284 -0.1186 -0.4241 -0.1841
 3838TIP3    H111520   5.987   1.991   1.351  0.2933  0.4557  0.8143
 3838TIP3    H211521   5.914   2.105   1.283 -0.3205 -0.8058 -0.6932
 3839TIP3   OH211522   6.306   3.200   1.384 -0.0116  0.2891  0.2558
 3839TIP3    H111523   6.359   3.246   1.449 -0.1195 -0.4955  0.9165
 3839TIP3    H211524   6.361   3.128   1.354 -0.7050 -0.5748  0.9977
 3840TIP3   OH211525   6.307   1.488   2.410 -0.1054  0.0457 -0.0939
 3840TIP3    H111526   6.212   1.495   2.423 -0.1419  0.0552 -0.3583
 3840TIP3    H211527   6.320   1.509   2.318  0.0221 -1.1138 -0.3548
 3841TIP3   OH211528   5.098   3.057   2.525  0.0500  0.0143  0.0574
 3841TIP3    H111529   5.118   3.130   2.466  0.2864 -0.1972 -0.1240
 3841TIP3    H211530   5.182   3.029   2.559 -0.0500 -0.1099  0.2028
 3842TIP3   OH211531   5.829   5.107   1.733  0.2271 -0.0086  0.0198
 3842TIP3    H111532   5.782   5.106   1.817  2.2090  0.5347  1.1956
 3842TIP3    H211533   5.879   5.025   1.732  0.7142  0.2869 -0.3262
 3843TIP3   OH211534   1.260   4.483   3.418 -0.3600 -0.3267  0.3119
 3843TIP3    H111535   1.313   4.407   3.442 -0.7921 -0.5639  0.5293
 3843TIP3    H211536   1.170   4.456   3.436 -0.3667  1.1450  3.0290
 3844TIP3   OH211537   1.235   3.657   1.024 -0.2538 -0.3683  0.5113
 3844TIP3    H111538   1.274   3.583   0.977 -1.6915 -1.0333  0.3276
 3844TIP3    H211539   1.163   3.619   1.073 -1.3318  0.9838  0.0345
 3845TIP3   OH211540   4.691   2.290   2.613  0.3757  0.1689 -0.6931
 3845TIP3    H111541   4.748   2.314   2.540  0.1886 -0.9885 -1.2524
 3845TIP3    H211542   4.728   2.335   2.689  1.0934  0.6922 -1.3407
 3846TIP3   OH211543   0.650   2.735   1.921 -0.2142 -0.0832 -0.2515
 3846TIP3    H111544   0.693   2.655   1.892 -1.1859 -0.3464 -0.9865
 3846TIP3    H211545   0.715   2.804   1.903  1.0452 -0.7814  1.3493
 3847TIP3   OH211546   3.571   0.413   3.756 -0.5387 -0.2966 -0.7021
 3847TIP3    H111547   3.564   0.481   3.690 -1.0899 -0.9296 -1.3068
 3847TIP3    H211548   3.660   0.379   3.745 -0.6946 -0.5334 -1.2566
 3848TIP3   OH211549   1.946   1.172   0.568 -0.1903 -0.1268  0.5032
 3848TIP3    H111550   1.965   1.104   0.632 -0.8642 -0.2424  0.5855
 3848TIP3    H211551   1.943   1.126   0.484  1.3534  0.1261  0.2769
 3849TIP3   OH211552   2.588   5.932   4.892  0.2453  0.2203  0.3150
 3849TIP3    H111553   2.553   5.988   4.822  1.1225 -0.2738 -0.5545
 3849TIP3    H211554   2.563   5.843   4.866 -0.8142  0.1466  1.4910
 3850TIP3   OH211555   4.028   0.862   4.357 -0.2600 -0.6442 -0.4169
 3850TIP3    H111556   4.090   0.911   4.411  1.2447 -1.9001 -0.9331
 3850TIP3    H211557   3.956   0.924   4.341  0.9455  0.9432  0.0124
 3851TIP3   OH211558   3.546   5.436   2.051  0.5112  0.0832 -0.3414
 3851TIP3    H111559   3.535   5.341   2.048 -0.1372  0.1775 -2.6023
 3851TIP3    H211560   3.641   5.449   2.055  0.6620 -0.6679 -1.2682
 3852TIP3   OH211561   3.275   4.398   0.086 -0.3707  1.0416 -0.1228
 3852TIP3    H111562   3.358   4.375   0.127 -0.7683  1.4153  0.9141
 3852TIP3    H211563   3.238   4.314   0.057  0.1837  0.8382 -0.2505
 3853TIP3   OH211564   1.613   4.262   4.799 -0.7582 -0.5476  0.0030
 3853TIP3    H111565   1.575   4.236   4.884 -0.4203  1.6019  0.8753
 3853TIP3    H211566   1.702   4.290   4.821 -0.9355  0.7900 -0.9217
 3854TIP3   OH211567   2.922   5.580   0.642  0.0695  0.4960 -0.7138
 3854TIP3    H111568   2.832   5.595   0.669  0.2371  0.3184 -0.0272
 3854TIP3    H211569   2.974   5.635   0.700  0.5783 -1.3559  0.7143
 3855TIP3   OH211570   0.147   0.492   0.492 -0.2343  0.2556  0.5357
 3855TIP3    H111571   0.195   0.462   0.415 -0.6173 -2.1933  1.1631
 3855TIP3    H211572   0.180   0.437   0.564 -3.0914 -0.7768  1.2123
 3856TIP3   OH211573   4.959   1.886   0.585  0.1363  0.1543 -0.2641
 3856TIP3    H111574   4.942   1.956   0.521  0.5118  0.0254 -0.5040
 3856TIP3    H211575   5.054   1.883   0.592  0.1371 -0.6218 -0.5719
 3857TIP3   OH211576   5.817   3.128   3.270  0.4925 -0.7441  0.3946
 3857TIP3    H111577   5.734   3.118   3.318  0.7771  0.7604  1.2976
 3857TIP3    H211578   5.792   3.163   3.185  0.0360 -2.6625 -0.2886
 3858TIP3   OH211579   0.445   2.898   1.589  0.0877  0.0727 -0.1589
 3858TIP3    H111580   0.368   2.955   1.590 -1.1253 -1.5075  1.1870
 3858TIP3    H211581   0.519   2.959   1.601 -1.1172  1.4402  0.7583
 3859TIP3   OH211582   3.345   5.345   4.229  0.5707  0.2071  0.0096
 3859TIP3    H111583   3.380   5.347   4.318  0.8362 -1.7956 -0.0046
 3859TIP3    H211584   3.251   5.360   4.239  0.4513 -0.8990  0.7579
 3860TIP3   OH211585   5.082   0.692   0.095  0.2857 -0.3057  0.2069
 3860TIP3    H111586   5.146   0.669   0.028  0.5441 -0.3189  0.4594
 3860TIP3    H211587   5.120   0.766   0.141 -0.1248  0.0316  0.0055
 3861TIP3   OH211588   0.493   3.233   1.956  0.3546 -0.2517 -0.7409
 3861TIP3    H111589   0.540   3.159   1.917  1.1418  0.0553 -0.3970
 3861TIP3    H211590   0.561   3.298   1.974 -0.5135  1.3576 -2.7784
 3862TIP3   OH211591   6.173   1.472   1.059 -0.1622 -0.0435 -0.1876
 3862TIP3    H111592   6.208   1.449   1.145 -0.4846 -0.4232 -0.1509
 3862TIP3    H211593   6.190   1.395   1.005  0.6628  0.4568 -0.6625
 3863TIP3   OH211594   5.181   3.171   3.955 -0.4504  0.1906  0.3649
 3863TIP3    H111595   5.260   3.122   3.977 -0.6212 -0.0376  0.4785
 3863TIP3    H211596   5.212   3.247   3.905 -0.3446 -1.2030 -1.8124
 3864TIP3   OH211597   2.608   1.886   2.225  0.4777  0.0740  0.2637
 3864TIP3    H111598   2.669   1.891   2.150  0.8188 -1.9983  0.3408
 3864TIP3    H211599   2.666   1.882   2.302  0.2332 -0.7983  0.4116
 3865TIP3   OH211600   6.069   4.879   0.319  0.3158 -0.5933  0.0832
 3865TIP3    H111601   6.154   4.924   0.320  0.8276 -1.4941  2.3097
 3865TIP3    H211602   6.010   4.942   0.278  1.9119  0.3046 -0.9563
 3866TIP3   OH211603   5.859   4.334   1.415  0.3735  0.0528  0.1262
 3866TIP3    H111604   5.913   4.257   1.432  0.1122 -0.0276  0.5907
 3866TIP3    H211605   5.802   4.342   1.492  0.5538  0.8384  0.1883
 3867TIP3   OH211606   1.900   1.671   0.844  0.3846 -0.0841 -0.2484
 3867TIP3    H111607   1.936   1.601   0.789 -2.2618 -0.6148 -1.4464
 3867TIP3    H211608   1.937   1.751   0.808  1.9591 -0.6798 -0.0647
 3868TIP3   OH211609   0.387   0.490   4.639  0.5170  0.1490 -0.4828
 3868TIP3    H111610   0.375   0.562   4.577 -4.3238 -0.5572 -0.7506
 3868TIP3    H211611   0.331   0.512   4.713 -0.8152 -3.0055 -0.3654
 3869TIP3   OH211612   0.514   5.099   1.764 -1.0034 -0.3618 -0.0441
 3869TIP3    H111613   0.537   5.108   1.672  0.7234  0.9807  0.4623
 3869TIP3    H211614   0.454   5.172   1.781 -1.4954 -0.7376 -0.1320
 3870TIP3   OH211615   5.809   5.094   2.774  0.2082  0.3637  0.4101
 3870TIP3    H111616   5.754   5.016   2.777  0.1649  0.3650 -0.3069
 3870TIP3    H211617   5.770   5.149   2.706  2.4574 -0.6994 -1.9148
 3871TIP3   OH211618   2.236   5.844   0.384 -0.8814  0.1628 -0.0217
 3871TIP3    H111619   2.236   5.891   0.301  0.5529 -0.9929 -0.7183
 3871TIP3    H211620   2.195   5.760   0.365 -0.9019  0.0432  0.5353
 3872TIP3   OH211621   2.588   0.404   2.190 -0.5461  1.1757  0.5395
 3872TIP3    H111622   2.618   0.489   2.223  2.0545  0.5481  0.0726
 3872TIP3    H211623   2.629   0.340   2.248 -1.1793  0.2108 -0.0538
 3873TIP3   OH211624   4.242   3.695   3.971 -0.7368  0.0385 -0.6501
 3873TIP3    H111625   4.284   3.610   3.975 -0.2712  0.3049  1.1152
 3873TIP3    H211626   4.149   3.677   3.985 -0.2929 -0.0317  4.0419
 3874TIP3   OH211627   3.321   0.167   1.361 -0.4400 -0.4158  0.0862
 3874TIP3    H111628   3.256   0.108   1.321  0.2271  0.3185 -2.2660
 3874TIP3    H211629   3.270   0.221   1.421 -1.4161 -1.9917  0.7296
 3875TIP3   OH211630   2.286   2.576   3.780 -0.3217  0.3854  0.0386
 3875TIP3    H111631   2.198   2.563   3.815 -0.9464 -2.0560 -2.1212
 3875TIP3    H211632   2.285   2.531   3.695  2.8301  0.8425 -0.3673
 3876TIP3   OH211633   1.500   0.029   3.199  0.6693 -0.1749 -0.0294
 3876TIP3    H111634   1.435   0.001   3.263  0.4042 -1.7974 -0.9331
 3876TIP3    H211635   1.584   0.019   3.243  0.4600 -0.8174  0.2366
 3877TIP3   OH211636   3.747   4.498   2.799  0.8241 -0.0342 -0.3059
 3877TIP3    H111637   3.669   4.484   2.851 -0.5759 -1.1980 -2.5415
 3877TIP3    H211638   3.716   4.544   2.721  2.5971  0.5651 -0.7054
 3878TIP3   OH211639   0.096   1.555   3.504 -0.3852 -0.2891  0.3102
 3878TIP3    H111640   0.016   1.551   3.556 -0.7955  2.4031  0.0732
 3878TIP3    H211641   0.146   1.627   3.542  0.8480 -0.4170 -0.9591
 3879TIP3   OH211642   2.136   0.916   3.283 -0.3687  0.4970 -0.3185
 3879TIP3    H111643   2.079   0.862   3.337 -1.6614  2.6696  0.6216
 3879TIP3    H211644   2.098   0.910   3.195 -0.5583 -0.0435 -0.1999
 3880TIP3   OH211645   5.799   0.438   2.774  0.4849  0.1444  0.4337
 3880TIP3    H111646   5.707   0.441   2.800  0.8832  0.1806  1.9045
 3880TIP3    H211647   5.796   0.420   2.680 -1.0103 -0.0941  0.4960
 3881TIP3   OH211648   1.443   0.767   3.767 -0.4222 -0.5060 -0.7020
 3881TIP3    H111649   1.523   0.793   3.812 -1.2697 -0.0364  0.5997
 3881TIP3    H211650   1.399   0.708   3.828 -0.6093 -1.5722 -1.8180
 3882TIP3   OH211651   0.305   1.331   3.476 -0.6372  0.5172  0.4845
 3882TIP3    H111652   0.279   1.418   3.506 -1.4777 -0.4311  2.6682
 3882TIP3    H211653   0.398   1.325   3.498 -1.0020  0.2229  2.0290
 3883TIP3   OH211654   3.596   0.510   2.393 -0.4750 -0.1846  0.3588
 3883TIP3    H111655   3.674   0.496   2.341 -2.0105 -0.2513 -2.0629
 3883TIP3    H211656   3.619   0.582   2.452  1.5252 -0.5414  0.0789
 3884TIP3   OH211657   3.927   2.743   2.973 -0.0668 -0.4921 -0.0955
 3884TIP3    H111658   4.020   2.764   2.959 -0.1816  0.0582 -0.0584
 3884TIP3    H211659   3.893   2.723   2.886 -0.0384 -0.1610 -0.1842
 3885TIP3   OH211660   6.042   1.197   0.579  0.2965  0.5592  0.3976
 3885TIP3    H111661   5.955   1.173   0.546  1.7339 -2.1477 -1.8003
 3885TIP3    H211662   6.064   1.277   0.530  0.1828 -0.3816 -1.2429
 3886TIP3   OH211663   1.080   4.630   5.067  0.2565 -0.1540 -0.4495
 3886TIP3    H111664   1.144   4.575   5.022 -0.2897 -0.1181 -1.2829
 3886TIP3    H211665   1.003   4.574   5.076  0.1685  0.0265 -0.0578
 3887TIP3   OH211666   2.728   2.293   0.772  0.4688  0.1398 -0.4335
 3887TIP3    H111667   2.642   2.300   0.730 -0.6343  1.3718  1.8317
 3887TIP3    H211668   2.713   2.325   0.861  2.9939 -0.9362  0.4545
 3888TIP3   OH211669   4.599   4.571   2.718 -0.2636  1.1747  0.8674
 3888TIP3    H111670   4.626   4.659   2.692 -1.6256  1.3799  0.0441
 3888TIP3    H211671   4.638   4.514   2.652 -0.6252  1.3204  0.5253
 3889TIP3   OH211672   4.852   1.584   1.940  0.4085  0.3471  0.2017
 3889TIP3    H111673   4.827   1.676   1.953  0.1801  0.4326 -0.7741
 3889TIP3    H211674   4.921   1.587   1.875 -0.7495 -0.2751 -1.1086
 3890TIP3   OH211675   2.387   1.796   1.595  0.0229 -0.3278 -0.0810
 3890TIP3    H111676   2.462   1.745   1.625 -0.0360 -0.5603 -0.3238
 3890TIP3    H211677   2.370   1.858   1.666  0.5958 -0.1068 -0.1323
 3891TIP3   OH211678   0.783   2.890   0.134  0.0439  0.4314 -0.8010
 3891TIP3    H111679   0.812   2.850   0.216 -1.8995 -1.8714 -1.1191
 3891TIP3    H211680   0.704   2.937   0.158  0.3599  1.1170 -1.0874
 3892TIP3   OH211681   6.150   3.004   2.876 -0.0775 -0.4529  0.0270
 3892TIP3    H111682   6.177   2.913   2.889  0.9029 -0.1872 -0.0864
 3892TIP3    H211683   6.229   3.048   2.843 -1.3000 -0.1720 -2.7524
 3893TIP3   OH211684   5.828   2.926   5.167  0.2409 -0.0139 -0.4903
 3893TIP3    H111685   5.877   2.875   5.102  0.5873  1.1048 -1.1316
 3893TIP3    H211686   5.865   2.899   5.251  1.6253  0.4240 -0.9235
 3894TIP3   OH211687   3.450   6.027   4.784  0.5454 -0.8545 -0.0733
 3894TIP3    H111688   3.387   5.957   4.801  1.6820 -1.7357  0.6161
 3894TIP3    H211689   3.535   5.990   4.806  1.1390  0.9061  0.8600
 3895TIP3   OH211690   1.014   5.899   0.400  0.0588  0.0189  0.5561
 3895TIP3    H111691   0.999   5.913   0.494  1.4402  1.9074  0.5433
 3895TIP3    H211692   1.108   5.889   0.392  0.3551  3.0172 -0.9366
 3896TIP3   OH211693   1.976   1.247   1.897  0.1363  0.1972  0.2024
 3896TIP3    H111694   2.057   1.261   1.849 -0.4393 -0.9122 -1.1552
 3896TIP3    H211695   1.907   1.282   1.841 -0.4084  0.3848  0.9631
 3897TIP3   OH211696   5.484   1.560   3.598 -0.4580  0.1445  0.0758
 3897TIP3    H111697   5.450   1.501   3.531  0.7689 -0.8762  0.3101
 3897TIP3    H211698   5.416   1.562   3.665  0.3740 -2.9895  1.2217
 3898TIP3   OH211699   0.293   2.310   3.764  0.6785 -0.0931 -0.0032
 3898TIP3    H111700   0.239   2.290   3.840 -1.6824  0.7333 -1.3881
 3898TIP3    H211701   0.383   2.291   3.794 -0.2141 -0.5615  2.6884
 3899TIP3   OH211702   5.911   1.232   4.592  0.5550  0.5522 -0.3505
 3899TIP3    H111703   5.910   1.140   4.617  0.2095  0.3079 -1.2061
 3899TIP3    H211704   5.822   1.249   4.560  0.7814  1.0089 -0.7650
 3900TIP3   OH211705   3.162   2.895   1.498 -0.1240  0.1587 -0.8265
 3900TIP3    H111706   3.119   2.837   1.561  1.0183 -0.3834 -0.5241
 3900TIP3    H211707   3.212   2.957   1.552  2.7906 -1.7412 -1.0858
 3901TIP3   OH211708   5.775   2.056   1.804 -0.1672 -0.6085 -0.0740
 3901TIP3    H111709   5.850   2.001   1.822 -0.6535 -0.9873  0.8438
 3901TIP3    H211710   5.809   2.145   1.807 -0.0493 -0.6652  2.0798
 3902TIP3   OH211711   0.192   4.024   1.225 -0.0793  0.1996  1.0081
 3902TIP3    H111712   0.254   4.094   1.244  0.7829 -0.2396 -0.0956
 3902TIP3    H211713   0.198   4.012   1.130  0.0815 -1.6381  1.2226
 3903TIP3   OH211714   2.246   0.594   4.697 -0.4831 -0.0718 -0.6754
 3903TIP3    H111715   2.318   0.566   4.753  2.1818  2.2993 -2.6314
 3903TIP3    H211716   2.167   0.558   4.738  1.5090 -0.5157  3.1286
 3904TIP3   OH211717   3.697   4.346   4.228  0.2752 -0.1047  0.1907
 3904TIP3    H111718   3.725   4.382   4.312  2.2583 -3.2522  1.0454
 3904TIP3    H211719   3.601   4.343   4.234  0.2865  1.1559  1.6488
 3905TIP3   OH211720   2.408   0.489   2.561  0.3507 -0.0760 -0.3074
 3905TIP3    H111721   2.405   0.580   2.589  1.1979 -0.2972  0.5339
 3905TIP3    H211722   2.429   0.494   2.467 -0.3052  0.5983 -0.4307
 3906TIP3   OH211723   5.097   0.847   3.279  0.3195 -0.5729 -0.6165
 3906TIP3    H111724   5.109   0.828   3.372 -0.4920  0.8593 -0.1851
 3906TIP3    H211725   5.185   0.870   3.248  0.4865 -0.4072 -0.0422
 3907TIP3   OH211726   1.138   0.155   0.170  0.5140  0.1062 -0.6990
 3907TIP3    H111727   1.174   0.070   0.194  0.9335 -0.0963 -1.9530
 3907TIP3    H211728   1.173   0.172   0.083  0.2939  1.4857 -0.5499
 3908TIP3   OH211729   2.100   1.339   3.623 -0.2498  0.5555 -0.2476
 3908TIP3    H111730   2.135   1.378   3.542 -1.3363 -0.4950 -1.2522
 3908TIP3    H211731   2.172   1.285   3.656 -0.6524 -1.1774 -2.0247
 3909TIP3   OH211732   1.511   3.345   0.876 -0.1289  0.2747 -0.5264
 3909TIP3    H111733   1.554   3.271   0.835 -0.0887  0.2719 -0.4780
 3909TIP3    H211734   1.419   3.338   0.847 -0.2547 -0.1378 -0.0328
 3910TIP3   OH211735   5.354   4.668   0.941  0.7134 -0.1688 -0.0961
 3910TIP3    H111736   5.448   4.652   0.955  0.9882  1.4722  0.1947
 3910TIP3    H211737   5.331   4.612   0.867  2.1551  0.0694 -0.7617
 3911TIP3   OH211738   1.222   5.640   3.773  0.2946 -0.0553  0.2293
 3911TIP3    H111739   1.197   5.549   3.790  1.0874 -0.2926  0.1366
 3911TIP3    H211740   1.306   5.651   3.816 -0.5691  1.1496  1.7160
 3912TIP3   OH211741   5.130   5.642   2.826  0.1943 -0.0166 -0.1231
 3912TIP3    H111742   5.061   5.679   2.881 -0.4952 -0.2008 -0.8433
 3912TIP3    H211743   5.205   5.633   2.885 -0.4816 -0.0924  0.7496
 3913TIP3   OH211744   0.192   4.714   4.295  0.3308 -0.0057 -0.2035
 3913TIP3    H111745   0.192   4.786   4.231 -0.1093 -0.4773 -0.7479
 3913TIP3    H211746   0.246   4.746   4.367 -0.2179  1.0538 -0.2355
 3914TIP3   OH211747   0.150   4.516   1.199  0.0957 -0.1820  0.2760
 3914TIP3    H111748   0.181   4.591   1.148 -0.2314  0.1952  0.6360
 3914TIP3    H211749   0.056   4.514   1.184  0.1173 -0.5991  0.1711
 3915TIP3   OH211750   0.552   5.335   4.999 -0.2437 -0.5844 -0.8501
 3915TIP3    H111751   0.495   5.261   5.019 -0.2337 -0.3058  0.2507
 3915TIP3    H211752   0.504   5.412   5.031  1.9495 -0.5815  2.9523
 3916TIP3   OH211753   0.536   1.107   3.349  0.4540  0.3602 -0.1536
 3916TIP3    H111754   0.502   1.085   3.435  1.8491 -1.3597  0.0126
 3916TIP3    H211755   0.570   1.196   3.359  0.3838  0.2696  1.0004
 3917TIP3   OH211756   6.323   5.004   0.241 -0.1412  0.0737 -0.4567
 3917TIP3    H111757   6.303   5.075   0.179 -0.6398  0.5121  0.2003
 3917TIP3    H211758   6.362   4.936   0.186 -0.0892  0.6630 -1.1764
 3918TIP3   OH211759   1.767   3.758   4.972  0.3263  0.4325 -0.0548
 3918TIP3    H111760   1.718   3.819   4.916  2.8426  1.4035 -1.3585
 3918TIP3    H211761   1.749   3.672   4.934 -1.0161  0.6517  0.0392
 3919TIP3   OH211762   5.230   4.923   1.711  0.3759 -0.2601 -0.3105
 3919TIP3    H111763   5.242   4.948   1.803 -0.7061 -0.9078  0.0253
 3919TIP3    H211764   5.278   4.989   1.662 -0.3457  1.0494  0.6656
 3920TIP3   OH211765   3.150   4.909   3.663 -0.0757  0.0146 -0.4278
 3920TIP3    H111766   3.068   4.944   3.697  0.5835 -0.1676  1.4452
 3920TIP3    H211767   3.218   4.964   3.701  0.9437 -2.6392  1.9337
 3921TIP3   OH211768   2.544   0.517   1.463 -0.1621 -0.1313  0.2337
 3921TIP3    H111769   2.639   0.532   1.469 -0.2439  0.4316  0.2000
 3921TIP3    H211770   2.533   0.467   1.382  0.2235 -1.3484  0.8979
 3922TIP3   OH211771   5.577   4.145   0.285  0.6759  0.2359  0.3453
 3922TIP3    H111772   5.488   4.116   0.269  0.8626 -0.4865  0.5909
 3922TIP3    H211773   5.614   4.080   0.345  0.9053  1.3104  1.4174
 3923TIP3   OH211774   4.850   5.498   2.442  0.2082 -0.2003  0.5239
 3923TIP3    H111775   4.933   5.511   2.487  1.0319 -0.9323 -0.7031
 3923TIP3    H211776   4.828   5.584   2.406 -0.2623  0.2947  1.9337
 3924TIP3   OH211777   1.538   5.310   1.954 -0.5216  0.6877  0.8672
 3924TIP3    H111778   1.536   5.318   1.859 -0.0593 -0.0099  0.7940
 3924TIP3    H211779   1.487   5.231   1.973  1.3713 -0.5696  1.0037
 3925TIP3   OH211780   4.046   4.276   4.792 -0.2261 -0.0271  0.4357
 3925TIP3    H111781   4.092   4.360   4.801  0.1733 -0.2015  0.0856
 3925TIP3    H211782   4.021   4.273   4.699  0.9363 -0.8841  0.1355
 3926TIP3   OH211783   2.895   4.970   1.143  0.1075 -0.4459  0.5699
 3926TIP3    H111784   2.989   4.984   1.129 -0.3545  0.6658 -2.1970
 3926TIP3    H211785   2.884   4.875   1.144  1.1415 -0.5970 -0.4335
 3927TIP3   OH211786   4.813   0.227   0.398 -0.0019  0.2047  0.1908
 3927TIP3    H111787   4.831   0.133   0.401 -0.6692  0.0499 -0.4213
 3927TIP3    H211788   4.890   0.265   0.358 -0.2224 -0.2216 -0.6561
 3928TIP3   OH211789   0.462   1.346   1.768  0.2289  0.1292  0.1166
 3928TIP3    H111790   0.402   1.334   1.842  0.4405  0.8798  0.4134
 3928TIP3    H211791   0.429   1.287   1.701  0.4449 -1.0953  1.0540
 3929TIP3   OH211792   1.517   5.424   3.998  1.0363  0.1574 -0.2961
 3929TIP3    H111793   1.453   5.486   4.032  1.4495  0.7233 -0.5466
 3929TIP3    H211794   1.545   5.375   4.076 -0.2158 -0.5981 -0.2867
 3930TIP3   OH211795   4.031   1.651   1.719  0.3309 -0.1556 -0.1583
 3930TIP3    H111796   4.002   1.667   1.630  1.0046 -0.4994 -0.4524
 3930TIP3    H211797   4.034   1.737   1.760  0.1722  0.0196 -0.5140
 3931TIP3   OH211798   3.231   1.654   4.135 -0.3559 -0.1063  0.1403
 3931TIP3    H111799   3.158   1.610   4.180 -0.5300 -0.4704 -0.4890
 3931TIP3    H211800   3.202   1.662   4.045  1.0337 -1.7785 -0.5158
 3932TIP3   OH211801   1.038   3.582   2.013 -0.1077 -0.5702  0.3223
 3932TIP3    H111802   1.119   3.632   2.017 -0.1170 -0.5801  0.6884
 3932TIP3    H211803   0.983   3.621   2.081 -1.0746  0.5750 -1.0615
 3933TIP3   OH211804   1.835   3.890   3.394 -0.2872  0.2525  0.0520
 3933TIP3    H111805   1.832   3.795   3.405  0.2421  0.1037 -0.9288
 3933TIP3    H211806   1.885   3.903   3.313  1.6530  1.4482  1.3346
 3934TIP3   OH211807   0.915   1.034   4.921  0.3358  0.0071 -0.7281
 3934TIP3    H111808   0.837   0.994   4.882  0.2745 -1.6372  0.9216
 3934TIP3    H211809   0.985   1.018   4.858  0.1741 -2.2397 -0.4162
 3935TIP3   OH211810   4.600   4.762   1.523 -1.4354  0.3185 -0.3300
 3935TIP3    H111811   4.553   4.681   1.508 -0.3249 -0.7076  1.3467
 3935TIP3    H211812   4.536   4.819   1.565 -1.3570 -0.9510  1.6522
 3936TIP3   OH211813   1.912   3.538   2.268  0.2696  0.0397  0.2366
 3936TIP3    H111814   1.921   3.604   2.336 -0.7021 -0.3374  0.7406
 3936TIP3    H211815   1.819   3.518   2.265  0.2625  0.1184 -1.2741
 3937TIP3   OH211816   5.635   3.672   4.082  0.0275 -0.1056 -0.0256
 3937TIP3    H111817   5.554   3.700   4.126 -0.3167 -0.1464 -0.6162
 3937TIP3    H211818   5.701   3.672   4.151 -0.7488 -1.2973  0.7650
 3938TIP3   OH211819   5.056   3.876   0.393 -0.1863 -0.0129 -0.3238
 3938TIP3    H111820   5.047   3.788   0.358  0.0717 -0.5358  0.8719
 3938TIP3    H211821   5.052   3.933   0.317 -0.8662 -1.0231 -1.0577
 3939TIP3   OH211822   5.627   4.422   0.227  0.0916  0.3602  0.2394
 3939TIP3    H111823   5.611   4.328   0.235  2.6664 -0.3641 -1.9483
 3939TIP3    H211824   5.639   4.437   0.133 -0.0284  2.8631  0.5484
 3940TIP3   OH211825   5.805   3.263   3.036  1.1208 -0.0426 -0.5945
 3940TIP3    H111826   5.883   3.310   3.007  0.6413 -0.4196 -2.6862
 3940TIP3    H211827   5.736   3.291   2.976 -0.4073  0.3366  1.2385
 3941TIP3   OH211828   4.724   2.397   0.142 -0.0864  0.7084 -0.2720
 3941TIP3    H111829   4.681   2.334   0.200  0.7902 -0.7737 -1.1705
 3941TIP3    H211830   4.728   2.478   0.193  0.4210 -0.4590  1.6489
 3942TIP3   OH211831   4.477   2.343   0.590 -0.7267 -0.0866  0.1676
 3942TIP3    H111832   4.514   2.270   0.640 -2.6405 -0.8259  0.5976
 3942TIP3    H211833   4.405   2.375   0.645 -0.7609  1.2684 -0.6282
 3943TIP3   OH211834   2.619   5.515   4.459  0.4479  0.3101  0.7034
 3943TIP3    H111835   2.695   5.572   4.444  0.3457  0.0116 -1.2042
 3943TIP3    H211836   2.546   5.562   4.419  0.4977 -1.4444 -1.6514
 3944TIP3   OH211837   3.622   2.089   4.835  0.0731  0.5043  0.1516
 3944TIP3    H111838   3.673   2.145   4.894  0.1568 -0.4323  0.9930
 3944TIP3    H211839   3.685   2.025   4.804 -0.2980  0.1372  0.1565
 3945TIP3   OH211840   4.416   1.089   4.353 -0.2251 -0.5578  0.0074
 3945TIP3    H111841   4.500   1.134   4.347  0.6480 -1.8950  1.5362
 3945TIP3    H211842   4.357   1.153   4.393  0.1774  0.2158 -0.6115
 3946TIP3   OH211843   3.613   2.180   4.384 -0.3178 -0.4202  0.5832
 3946TIP3    H111844   3.690   2.170   4.441 -0.5572  0.3421  1.0578
 3946TIP3    H211845   3.635   2.253   4.326 -0.9915  0.3348  1.2585
 3947TIP3   OH211846   4.123   2.478   1.407  0.2615 -0.3220 -0.1847
 3947TIP3    H111847   4.171   2.555   1.378  1.5201 -1.2833 -0.7750
 3947TIP3    H211848   4.172   2.446   1.483 -0.4150 -0.4031  0.2362
 3948TIP3   OH211849   2.197   2.386   1.743  0.3629 -0.0824  0.3135
 3948TIP3    H111850   2.210   2.437   1.823  1.0774  0.0924  0.0961
 3948TIP3    H211851   2.165   2.450   1.679 -1.9209 -0.5472  0.8984
 3949TIP3   OH211852   1.178   3.042   1.390  0.2606  0.9353 -0.0147
 3949TIP3    H111853   1.162   3.106   1.320 -2.0825  0.5636  0.1213
 3949TIP3    H211854   1.171   3.093   1.471 -1.5118  0.5814  0.0896
 3950TIP3   OH211855   2.115   2.734   5.220  0.4246  0.3198 -0.3821
 3950TIP3    H111856   2.083   2.659   5.169 -0.5436  0.3622  0.1340
 3950TIP3    H211857   2.187   2.769   5.168  1.3925 -1.4065 -0.2931
 3951TIP3   OH211858   0.158   2.364   3.190 -0.0492  0.3943 -0.1332
 3951TIP3    H111859   0.234   2.356   3.247 -1.9077 -1.2343  2.2872
 3951TIP3    H211860   0.139   2.275   3.162 -0.8840  0.8230 -1.0002
 3952TIP3   OH211861   2.810   1.894   2.038  0.2213  0.6357  0.5044
 3952TIP3    H111862   2.863   1.816   2.020  0.8942  1.3137 -0.5011
 3952TIP3    H211863   2.736   1.888   1.977 -0.0058  0.5320  0.7846
 3953TIP3   OH211864   3.978   0.255   3.125  0.1074 -0.0787  0.1121
 3953TIP3    H111865   4.004   0.194   3.194 -1.3321 -1.4652 -0.5059
 3953TIP3    H211866   4.053   0.259   3.066  0.7299 -0.1590  0.8847
 3954TIP3   OH211867   0.674   3.186   3.459 -0.5355  0.1756  0.5334
 3954TIP3    H111868   0.640   3.127   3.527  0.7129  0.1976  1.2085
 3954TIP3    H211869   0.730   3.247   3.507  0.5463  0.0601 -0.5486
 3955TIP3   OH211870   5.967   4.141   4.297 -0.2731 -0.0753  0.3324
 3955TIP3    H111871   5.961   4.046   4.290  0.7074 -0.0632 -1.1694
 3955TIP3    H211872   5.958   4.159   4.391  0.3858 -1.7154  0.7498
 3956TIP3   OH211873   0.972   5.963   4.728 -0.7875  0.1510  0.0881
 3956TIP3    H111874   0.966   5.928   4.639 -0.5214 -0.2205  0.2112
 3956TIP3    H211875   0.902   5.918   4.776 -0.9554  0.3795  0.0580
 3957TIP3   OH211876   3.730   2.461   0.368  0.2165 -0.3218  0.7451
 3957TIP3    H111877   3.709   2.554   0.359 -3.1867 -1.0200 -0.0411
 3957TIP3    H211878   3.753   2.450   0.460 -1.7005  0.9657  1.4485
 3958TIP3   OH211879   0.332   4.470   1.608  0.2603  0.3857 -0.0383
 3958TIP3    H111880   0.311   4.378   1.594  2.9307 -0.2157 -0.7066
 3958TIP3    H211881   0.254   4.508   1.647 -0.6812 -2.2983  0.8347
 3959TIP3   OH211882   0.118   4.689   3.857  0.4131 -0.0251  0.5013
 3959TIP3    H111883   0.038   4.695   3.805  0.5763 -0.1669  0.2339
 3959TIP3    H211884   0.144   4.597   3.851  0.4003 -0.0575  0.8849
 3960TIP3   OH211885   2.600   1.672   1.704  0.8580  0.3384  0.6531
 3960TIP3    H111886   2.639   1.706   1.623  0.8868  0.8038  0.8652
 3960TIP3    H211887   2.673   1.630   1.750  0.1692 -3.8095 -1.5082
 3961TIP3   OH211888   4.818   2.624   0.269  0.6553  0.5490 -0.1561
 3961TIP3    H111889   4.792   2.636   0.361  0.7306  1.0415 -0.1983
 3961TIP3    H211890   4.911   2.648   0.267  1.8030 -3.1882  0.4244
 3962TIP3   OH211891   1.838   1.652   3.089 -0.4643  0.1128 -0.1967
 3962TIP3    H111892   1.931   1.636   3.103 -0.5183  1.4882  2.0890
 3962TIP3    H211893   1.801   1.565   3.072  0.7209 -0.9417  2.2264
 3963TIP3   OH211894   3.709   5.657   5.149  0.3603 -0.0907  0.4071
 3963TIP3    H111895   3.798   5.651   5.115  0.6830  0.1179  1.1866
 3963TIP3    H211896   3.697   5.576   5.198 -0.8953 -1.4411 -1.9769
 3964TIP3   OH211897   2.100   5.561   4.432 -0.1211  1.0429 -0.1432
 3964TIP3    H111898   2.137   5.526   4.351  0.4777  0.6793  0.2777
 3964TIP3    H211899   2.041   5.631   4.403  0.1287  0.9583 -0.8862
 3965TIP3   OH211900   1.139   3.432   1.323 -0.3917 -1.0592  0.6720
 3965TIP3    H111901   1.085   3.406   1.248  0.4130  0.4984 -0.4989
 3965TIP3    H211902   1.229   3.420   1.293 -0.0614 -0.2617  1.3195
 3966TIP3   OH211903   4.495   4.530   3.069 -0.3103 -0.0007 -0.1557
 3966TIP3    H111904   4.402   4.512   3.084 -0.8965  0.9126 -2.2621
 3966TIP3    H211905   4.498   4.624   3.049  1.3248  0.3434  1.4374
 3967TIP3   OH211906   5.052   4.608   4.301  0.1271 -0.2906  0.4103
 3967TIP3    H111907   5.135   4.637   4.264 -0.0220  1.5306  1.4120
 3967TIP3    H211908   4.991   4.610   4.227  0.8463 -1.2611 -0.2393
 3968TIP3   OH211909   5.766   0.992   3.303 -0.0350 -0.5293  0.3482
 3968TIP3    H111910   5.853   1.032   3.294 -0.6121  0.4441 -1.7115
 3968TIP3    H211911   5.773   0.908   3.258 -0.3221 -0.0727 -0.6044
 3969TIP3   OH211912   4.207   4.212   1.863  0.4099 -0.3041  0.4254
 3969TIP3    H111913   4.166   4.153   1.926  2.3492 -1.9454  0.2780
 3969TIP3    H211914   4.246   4.154   1.798  0.4911  1.2637 -1.0023
 3970TIP3   OH211915   3.192   1.120   1.164 -0.0539 -0.2002  0.1472
 3970TIP3    H111916   3.230   1.088   1.246 -1.4140  0.9760  1.2844
 3970TIP3    H211917   3.120   1.059   1.146 -0.1597 -0.0867  0.1838
 3971TIP3   OH211918   4.572   2.344   3.717 -0.0423 -0.5890 -0.2325
 3971TIP3    H111919   4.572   2.389   3.801 -0.5132  2.3949 -1.7132
 3971TIP3    H211920   4.660   2.307   3.709  0.2269 -0.3175  1.2250
 3972TIP3   OH211921   3.433   4.874   1.613 -0.0280 -0.2987  0.0183
 3972TIP3    H111922   3.445   4.930   1.537  2.5570 -1.4417 -0.5298
 3972TIP3    H211923   3.410   4.788   1.576 -1.3081 -0.2882  0.7102
 3973TIP3   OH211924   4.268   0.919   3.686  0.1353  0.1292  0.1396
 3973TIP3    H111925   4.266   0.888   3.595 -1.1780 -0.0211  0.1966
 3973TIP3    H211926   4.232   1.008   3.682  0.2141  0.1769  0.4846
 3974TIP3   OH211927   1.345   1.278   4.380 -0.3741  0.1181 -0.0931
 3974TIP3    H111928   1.379   1.307   4.295  0.7456 -0.7927  0.0151
 3974TIP3    H211929   1.366   1.350   4.439  2.2790 -0.7440  0.1499
 3975TIP3   OH211930   2.900   4.909   2.251  0.2985 -0.4644  0.0863
 3975TIP3    H111931   2.841   4.983   2.239  1.7404  1.1406  2.0912
 3975TIP3    H211932   2.871   4.868   2.332  0.6210 -0.9919 -0.0598
 3976TIP3   OH211933   5.124   0.742   2.671  0.5128  0.1334  0.2101
 3976TIP3    H111934   5.177   0.726   2.750  0.6606 -1.9085 -0.2279
 3976TIP3    H211935   5.165   0.687   2.604 -1.6931 -0.9380 -0.3407
 3977TIP3   OH211936   6.272   2.462   4.231 -0.0636  0.0692 -0.4645
 3977TIP3    H111937   6.263   2.480   4.325  2.2812  1.4197 -0.4344
 3977TIP3    H211938   6.253   2.368   4.224 -0.8405  0.0454  1.2377
 3978TIP3   OH211939   3.966   3.803   0.925  0.3875 -0.5097 -0.2402
 3978TIP3    H111940   3.876   3.771   0.928 -0.1453  0.8553 -0.9868
 3978TIP3    H211941   4.014   3.735   0.876 -0.5634 -0.5230 -1.1948
 3979TIP3   OH211942   5.259   4.198   1.029  0.1611  0.3252  0.1369
 3979TIP3    H111943   5.340   4.249   1.032 -0.9309  2.0905  2.1082
 3979TIP3    H211944   5.218   4.223   0.946  2.1830 -1.6539 -1.5771
 3980TIP3   OH211945   3.546   2.246   1.795  0.7148  0.0041 -0.0500
 3980TIP3    H111946   3.625   2.267   1.745 -0.0817 -0.5690 -1.5985
 3980TIP3    H211947   3.540   2.151   1.790  0.3745 -0.0213  0.7849
 3981TIP3   OH211948   3.581   4.485   1.471  0.1854 -0.2463  0.4160
 3981TIP3    H111949   3.627   4.458   1.550 -0.4192 -1.1897  0.4618
 3981TIP3    H211950   3.597   4.415   1.408 -1.2237 -0.6269  0.4544
 3982TIP3   OH211951   4.846   3.222   1.299 -0.1128  0.3873  0.8851
 3982TIP3    H111952   4.792   3.297   1.323 -0.3523  1.2891 -2.0221
 3982TIP3    H211953   4.794   3.145   1.324 -1.8420  1.2422  0.0790
 3983TIP3   OH211954   1.236   3.336   2.120 -0.6279 -0.2053  0.0230
 3983TIP3    H111955   1.269   3.266   2.176 -2.2487 -0.8773  0.2085
 3983TIP3    H211956   1.224   3.410   2.179 -0.0795 -0.1611  0.0794
 3984TIP3   OH211957   5.405   1.723   1.094  0.0681  0.5459  0.4452
 3984TIP3    H111958   5.354   1.653   1.056 -0.7046  0.9884  0.6438
 3984TIP3    H211959   5.490   1.718   1.050 -0.3452  0.1815 -0.3208
 3985TIP3   OH211960   1.772   3.619   4.219 -0.2320 -0.4196 -0.0188
 3985TIP3    H111961   1.818   3.703   4.213  0.5110 -0.8469 -0.4450
 3985TIP3    H211962   1.706   3.633   4.287  0.6010  0.1791  0.6897
 3986TIP3   OH211963   2.498   1.415   1.788  0.2566 -0.4104 -0.0895
 3986TIP3    H111964   2.531   1.492   1.742  2.4921 -1.2567 -0.0654
 3986TIP3    H211965   2.496   1.347   1.721 -3.3744 -0.0192 -0.5412
 3987TIP3   OH211966   1.372   5.108   2.057  0.4694 -0.6094 -0.7703
 3987TIP3    H111967   1.347   5.017   2.071  0.0684 -0.3684  0.1962
 3987TIP3    H211968   1.292   5.158   2.075  1.0254  0.0178  0.0767
 3988TIP3   OH211969   5.012   0.657   5.130 -0.4315 -0.4440 -1.1372
 3988TIP3    H111970   4.976   0.668   5.218 -1.5929 -3.3732 -1.1076
 3988TIP3    H211971   4.935   0.654   5.073  0.3167  1.7053 -2.3501
 3989TIP3   OH211972   5.878   5.814   0.060 -0.0642 -0.2266  0.1711
 3989TIP3    H111973   5.846   5.904   0.051  1.7738  0.5528  0.9385
 3989TIP3    H211974   5.822   5.776   0.127 -0.8508  0.3392 -0.1418
 3990TIP3   OH211975   3.074   1.025   2.773 -0.2507 -0.3729  0.3813
 3990TIP3    H111976   3.117   1.075   2.842 -1.1963  1.1270 -0.0697
 3990TIP3    H211977   3.047   0.944   2.815  0.3750 -0.0690  1.4143
 3991TIP3   OH211978   5.230   2.361   0.014 -0.1612 -0.0359  0.2760
 3991TIP3    H111979   5.167   2.362   0.086  0.9882 -0.7540  1.3243
 3991TIP3    H211980   5.280   2.280   0.027  0.9277  0.4814 -0.5683
 3992TIP3   OH211981   5.611   3.977   2.779 -0.0480 -0.0546 -0.0981
 3992TIP3    H111982   5.530   3.935   2.807  0.0719 -0.4810 -0.3813
 3992TIP3    H211983   5.673   3.905   2.770  0.8018  0.4065  1.5606
 3993TIP3   OH211984   1.345   2.737   4.582  0.1037  0.6819 -0.5265
 3993TIP3    H111985   1.300   2.655   4.600  0.6288  0.4008 -0.4618
 3993TIP3    H211986   1.389   2.759   4.664  2.3011 -0.4762 -1.3096
 3994TIP3   OH211987   5.387   3.694   4.230  0.5418 -0.6847 -0.3973
 3994TIP3    H111988   5.294   3.680   4.215  0.2197  0.6483  0.2355
 3994TIP3    H211989   5.392   3.732   4.318  1.4901  1.1353 -1.1900
 3995TIP3   OH211990   6.303   2.468   3.469 -0.3083  0.1479 -0.4321
 3995TIP3    H111991   6.245   2.474   3.544 -2.1098  0.9782 -1.7997
 3995TIP3    H211992   6.359   2.392   3.487  0.3320  1.2011  2.3583
 3996TIP3   OH211993   5.891   1.231   2.425 -0.4997  0.6661  0.3185
 3996TIP3    H111994   5.877   1.284   2.346  0.7770  0.9838  0.2894
 3996TIP3    H211995   5.815   1.251   2.480 -3.0517 -1.7935 -1.9613
 3997TIP3   OH211996   6.055   2.118   4.357  0.0114  0.0594 -0.3822
 3997TIP3    H111997   6.077   2.122   4.450  0.6924 -0.4986 -0.5107
 3997TIP3    H211998   5.966   2.153   4.351 -0.2491 -0.4274  0.5498
 3998TIP3   OH211999   4.131   3.868   0.227  0.5183 -0.2178  0.7825
 3998TIP3    H112000   4.180   3.803   0.277 -0.2761 -1.2013  0.3124
 3998TIP3    H212001   4.087   3.818   0.159 -1.0231  0.6571  1.1001
 3999TIP3   OH212002   5.204   0.289   0.652 -0.1381 -0.7445  0.0388
 3999TIP3    H112003   5.293   0.292   0.617  0.1809  2.3535  0.8541
 3999TIP3    H212004   5.159   0.225   0.596  2.4539 -2.1562 -0.6087
 4000TIP3   OH212005   3.671   5.883   4.569 -0.1150 -0.3194 -0.5013
 4000TIP3    H112006   3.663   5.875   4.664 -2.3655  0.9558 -0.5158
 4000TIP3    H212007   3.725   5.962   4.557 -0.7377  0.1577 -0.2494
 4001TIP3   OH212008   0.108   0.427   0.090 -0.1891 -0.1726 -0.1818
 4001TIP3    H112009   0.024   0.409   0.047  0.0901  0.8101 -1.1952
 4001TIP3    H212010   0.152   0.342   0.092 -1.2094 -0.6959  0.3728
 4002TIP3   OH212011   0.627   3.727   1.944 -0.0858 -0.0203 -0.1635
 4002TIP3    H112012   0.591   3.791   2.006 -1.4978  0.1059 -1.0676
 4002TIP3    H212013   0.719   3.751   1.935 -0.2530  0.9888  0.5965
 4003TIP3   OH212014   5.834   0.165   1.821 -0.4752 -0.7098  0.7339
 4003TIP3    H112015   5.897   0.094   1.836  0.7827  0.3059  0.4073
 4003TIP3    H212016   5.786   0.138   1.743  0.4451 -0.9199  0.2211
 4004TIP3   OH212017   1.841   2.400   1.990 -0.7995  0.2606  0.4088
 4004TIP3    H112018   1.877   2.478   2.031 -1.8194  0.7076  0.4633
 4004TIP3    H212019   1.762   2.379   2.040 -0.7002 -0.6319  0.2130
 4005TIP3   OH212020   6.364   1.861   0.121  0.4221  0.2031  0.0729
 4005TIP3    H112021   6.282   1.832   0.083 -0.1507 -0.1850  1.5156
 4005TIP3    H212022   6.411   1.903   0.049 -0.6430 -0.3672 -0.9910
 4006TIP3   OH212023   3.785   3.848   4.795 -0.1259 -0.3765  0.0191
 4006TIP3    H112024   3.702   3.891   4.775 -0.0215  0.6644  1.6434
 4006TIP3    H212025   3.827   3.836   4.710 -1.9188 -0.9344 -0.8321
 4007TIP3   OH212026   5.697   0.752   1.646 -0.0542 -0.2651  0.5833
 4007TIP3    H112027   5.690   0.666   1.604 -0.6686  0.6766 -1.3769
 4007TIP3    H212028   5.773   0.792   1.604  1.6684 -0.6201  3.1089
 4008TIP3   OH212029   5.669   0.352   4.534  0.2102 -0.1024 -0.6294
 4008TIP3    H112030   5.725   0.338   4.458  1.8856 -1.5413  0.7659
 4008TIP3    H212031   5.594   0.294   4.519  0.7499 -0.7231 -0.9990
 4009TIP3   OH212032   1.107   1.942   2.491  0.2736  0.1716 -0.0138
 4009TIP3    H112033   1.108   1.846   2.486 -0.4368  0.2078 -1.4068
 4009TIP3    H212034   1.191   1.965   2.531  0.4360 -1.0301  0.3708
 4010TIP3   OH212035   3.479   4.364   4.740 -0.4200 -0.8380 -0.1453
 4010TIP3    H112036   3.415   4.413   4.792  0.9591 -0.2295  1.0190
 4010TIP3    H212037   3.487   4.280   4.784 -0.3860 -0.9058 -0.2787
 4011TIP3   OH212038   2.312   4.400   0.704 -0.0164  0.1301  0.0915
 4011TIP3    H112039   2.359   4.484   0.700  0.3163 -0.0878 -1.0025
 4011TIP3    H212040   2.259   4.406   0.783  1.7501  0.4549  1.3294
 4012TIP3   OH212041   4.835   4.199   2.007  0.7952  0.4257 -0.3571
 4012TIP3    H112042   4.871   4.201   2.096  1.2910  2.1731 -0.5554
 4012TIP3    H212043   4.813   4.107   1.992  1.4523 -0.0346  1.2697
 4013TIP3   OH212044   2.460   3.602   3.329 -0.3484  0.2682 -0.4440
 4013TIP3    H112045   2.386   3.558   3.370 -0.6427  0.5060 -0.7093
 4013TIP3    H212046   2.479   3.550   3.251  0.0482 -0.0414 -0.1439
 4014TIP3   OH212047   0.635   3.336   0.214 -0.6954 -0.2043  0.6113
 4014TIP3    H112048   0.563   3.395   0.237 -0.4270  0.7115 -0.7454
 4014TIP3    H212049   0.640   3.340   0.119  0.3328 -1.2534  0.5938
 4015TIP3   OH212050   6.195   4.383   2.342 -0.6017  0.1664 -0.3580
 4015TIP3    H112051   6.106   4.376   2.379  0.0447 -0.7700  1.1446
 4015TIP3    H212052   6.231   4.463   2.380 -0.8269  0.6198 -1.0748
 4016TIP3   OH212053   4.044   3.094   3.403 -0.0219  0.0468  0.1454
 4016TIP3    H112054   4.025   3.032   3.474  1.9648  0.0676  0.7594
 4016TIP3    H212055   4.024   3.180   3.441 -0.5004 -0.0541  0.1217
 4017TIP3   OH212056   2.376   1.548   4.759 -0.2404 -0.1588  0.2756
 4017TIP3    H112057   2.408   1.623   4.710 -0.0807 -0.3289  0.1185
 4017TIP3    H212058   2.299   1.581   4.806 -0.0032  0.1745  0.4336
 4018TIP3   OH212059   2.486   2.299   0.131 -0.2041  0.8987  0.2896
 4018TIP3    H112060   2.500   2.246   0.052  0.2705  1.2369  0.1417
 4018TIP3    H212061   2.415   2.359   0.107 -0.8840  0.2140  0.5238
 4019TIP3   OH212062   0.802   5.340   4.587  0.2531  0.3235 -0.3240
 4019TIP3    H112063   0.754   5.412   4.627  0.3978  0.6989 -0.8115
 4019TIP3    H212064   0.739   5.298   4.528  0.6423  1.1315 -1.3519
 4020TIP3   OH212065   1.476   0.513   0.441  0.0325 -0.2483  0.5200
 4020TIP3    H112066   1.565   0.522   0.409  0.5507  1.4292  2.2479
 4020TIP3    H212067   1.429   0.588   0.404 -0.6831 -1.0450 -0.2735
 4021TIP3   OH212068   1.681   4.720   3.795  0.2671 -0.1251  0.1474
 4021TIP3    H112069   1.767   4.763   3.786 -0.2842  0.7494 -1.3015
 4021TIP3    H212070   1.665   4.681   3.709 -0.9157 -0.0178  0.3066
 4022TIP3   OH212071   1.511   5.687   2.434 -0.4705  0.3249 -0.1536
 4022TIP3    H112072   1.466   5.754   2.485 -0.3849  0.3426 -0.1022
 4022TIP3    H212073   1.538   5.733   2.354  2.2120  1.1772  1.1096
 4023TIP3   OH212074   4.014   0.882   1.418  0.0384  0.6026 -0.2892
 4023TIP3    H112075   4.010   0.977   1.426  2.0933  0.7091  0.1961
 4023TIP3    H212076   4.063   0.867   1.337  0.4735 -0.0057  0.0753
 4024TIP3   OH212077   3.662   2.880   3.895  0.0973  0.3909  0.2155
 4024TIP3    H112078   3.749   2.865   3.858  0.4915 -0.1963  1.3301
 4024TIP3    H212079   3.677   2.883   3.990 -0.8904  1.7677  0.3479
 4025TIP3   OH212080   3.483   2.986   4.255 -0.3978 -0.1819  0.0717
 4025TIP3    H112081   3.441   3.016   4.174 -1.1951  1.2328  0.9728
 4025TIP3    H212082   3.558   2.933   4.225 -1.1984 -0.4487 -1.5696
 4026TIP3   OH212083   2.223   4.584   1.574  0.7864  0.2107  0.1946
 4026TIP3    H112084   2.216   4.542   1.659  1.2615 -0.2732  0.0015
 4026TIP3    H212085   2.143   4.636   1.566 -0.7502 -2.0780 -0.3425
 4027TIP3   OH212086   5.351   3.420   3.963  0.2939 -0.2111  0.9170
 4027TIP3    H112087   5.420   3.400   4.026  1.2255  0.2374  0.0639
 4027TIP3    H212088   5.298   3.487   4.006  2.3691  1.9562  0.3228
 4028TIP3   OH212089   5.163   5.191   3.153 -0.2658  0.6706  0.0796
 4028TIP3    H112090   5.192   5.207   3.243  1.7044 -0.0277 -0.3786
 4028TIP3    H212091   5.190   5.268   3.105  1.1300 -0.0764 -0.3942
 4029TIP3   OH212092   0.613   2.458   2.139  0.8246  0.2923  0.0717
 4029TIP3    H112093   0.535   2.513   2.143 -0.4802 -1.5533  3.2350
 4029TIP3    H212094   0.674   2.497   2.202  1.0731 -0.1797  0.1315
 4030TIP3   OH212095   3.456   5.386   4.468  0.0536 -0.5032 -0.1655
 4030TIP3    H112096   3.408   5.372   4.550 -2.0243  1.7903 -0.8821
 4030TIP3    H212097   3.502   5.469   4.482  0.0913 -0.3587 -1.1254
 4031TIP3   OH212098   5.044   3.344   3.577 -0.1570  0.0097  0.5824
 4031TIP3    H112099   5.009   3.363   3.490 -0.6861  2.2074  1.2221
 4031TIP3    H212100   5.010   3.258   3.598 -0.0366 -0.5699 -1.3585
 4032TIP3   OH212101   6.302   4.122   0.371 -0.0058 -0.0903  0.0233
 4032TIP3    H112102   6.361   4.168   0.311 -0.9597 -0.9143 -1.6198
 4032TIP3    H212103   6.243   4.190   0.404 -0.4599  0.1286 -1.2083
 4033TIP3   OH212104   3.761   1.510   4.972  0.0577  0.0540 -0.0121
 4033TIP3    H112105   3.844   1.529   4.929 -0.5725  0.3682 -1.1574
 4033TIP3    H212106   3.695   1.532   4.906 -0.9476  0.1572  0.9976
 4034TIP3   OH212107   4.524   2.468   4.941 -0.0445  0.1886 -0.3463
 4034TIP3    H112108   4.575   2.427   4.871  1.2976 -0.8596  1.1950
 4034TIP3    H212109   4.569   2.444   5.022 -1.2687  1.7759  0.8789
 4035TIP3   OH212110   4.555   0.281   1.381  0.1615  0.5850  0.5064
 4035TIP3    H112111   4.632   0.248   1.335 -0.5338  1.5285 -1.4212
 4035TIP3    H212112   4.529   0.359   1.332 -2.3384 -0.0074  0.7753
 4036TIP3   OH212113   6.155   2.148   0.303  0.4300 -0.1356  0.7719
 4036TIP3    H112114   6.064   2.160   0.276  0.5192  0.3536  0.6805
 4036TIP3    H212115   6.206   2.172   0.226  0.6947  1.4710  1.4043
 4037TIP3   OH212116   1.220   1.469   2.533  0.3423  0.4112 -0.4835
 4037TIP3    H112117   1.259   1.522   2.463 -0.7789  1.7776 -0.1173
 4037TIP3    H212118   1.157   1.413   2.488  1.1753 -0.2990 -0.8094
 4038TIP3   OH212119   6.066   4.966   0.764  0.3165  0.5221 -0.0980
 4038TIP3    H112120   6.071   5.041   0.823  1.3597  0.3239  0.0934
 4038TIP3    H212121   5.976   4.966   0.732 -0.4498  0.3231  1.8987
 4039TIP3   OH212122   5.555   4.203   2.988  0.6063 -0.0611 -0.2320
 4039TIP3    H112123   5.587   4.234   3.072  0.3311 -2.1881  0.7273
 4039TIP3    H212124   5.628   4.155   2.950  0.0808 -0.8650 -0.2454
 4040TIP3   OH212125   1.593   5.814   0.236 -0.0061 -0.3600  0.0483
 4040TIP3    H112126   1.666   5.752   0.245  0.2353 -0.0082  0.5858
 4040TIP3    H212127   1.571   5.838   0.326 -0.6547 -0.3081 -0.1243
 4041TIP3   OH212128   5.874   3.523   0.713  0.4823 -0.2495 -0.2282
 4041TIP3    H112129   5.957   3.509   0.668 -0.0624 -0.0575 -1.3318
 4041TIP3    H212130   5.859   3.618   0.707  0.2733 -0.2592  0.1160
 4042TIP3   OH212131   4.227   4.492   1.847  0.2255 -0.9555 -0.6006
 4042TIP3    H112132   4.137   4.525   1.843 -0.0166 -1.6528 -3.6918
 4042TIP3    H212133   4.217   4.397   1.850  0.8724 -0.9983  0.3193
 4043TIP3   OH212134   3.570   2.129   2.135 -0.0230 -0.3974 -0.0316
 4043TIP3    H112135   3.494   2.122   2.076  1.2683  0.8131 -1.9369
 4043TIP3    H212136   3.533   2.114   2.222 -2.1931 -1.3216 -1.0217
 4044TIP3   OH212137   2.468   2.004   0.585  0.0727  0.1408  0.2112
 4044TIP3    H112138   2.523   1.942   0.633  0.0100  1.5518  2.2217
 4044TIP3    H212139   2.516   2.020   0.504  1.1492 -0.8824  0.6074
 4045TIP3   OH212140   0.509   4.494   0.384 -0.1392 -0.2614 -0.2187
 4045TIP3    H112141   0.559   4.495   0.303  2.6217 -1.4716  1.3040
 4045TIP3    H212142   0.440   4.429   0.370  1.4357 -1.8401 -1.0469
 4046TIP3   OH212143   1.364   1.600   5.048  0.0707  0.1025 -0.1236
 4046TIP3    H112144   1.351   1.505   5.055 -0.9320  0.2085 -0.4001
 4046TIP3    H212145   1.285   1.632   5.005  0.1303  1.1469  0.5031
 4047TIP3   OH212146   1.304   1.777   2.142  0.0300 -0.1586  0.1184
 4047TIP3    H112147   1.374   1.716   2.117  0.5229 -0.3251  1.7980
 4047TIP3    H212148   1.348   1.842   2.196 -0.8053  0.7564 -0.2768
 4048TIP3   OH212149   2.876   2.906   2.702  0.7016 -0.0657  0.9703
 4048TIP3    H112150   2.957   2.886   2.655  0.4040  0.7337  0.0868
 4048TIP3    H212151   2.899   2.979   2.760  0.2379  1.3598 -0.5476
 4049TIP3   OH212152   1.075   4.679   1.831 -0.0568  0.3485 -0.1362
 4049TIP3    H112153   1.016   4.752   1.852 -1.8953 -1.3640  1.0716
 4049TIP3    H212154   1.060   4.662   1.738 -1.5045 -0.0123  0.1356
 4050TIP3   OH212155   1.358   2.714   4.297  0.4696  0.9188  0.4150
 4050TIP3    H112156   1.292   2.645   4.301  2.8607 -1.5219  0.3000
 4050TIP3    H212157   1.384   2.728   4.388  2.5158 -1.0207  0.1934
 4051TIP3   OH212158   5.373   1.024   2.647 -0.4263 -0.0772  0.0719
 4051TIP3    H112159   5.314   1.097   2.661 -1.8055 -1.2079  0.4124
 4051TIP3    H212160   5.394   1.027   2.553  0.0318  1.0761  0.1908
 4052TIP3   OH212161   1.753   3.252   4.023 -0.3887 -0.1934  0.0809
 4052TIP3    H112162   1.657   3.250   4.028 -0.3890 -2.2546 -0.0319
 4052TIP3    H212163   1.781   3.180   4.079  1.1621  0.9121  0.8060
 4053TIP3   OH212164   3.961   4.346   2.851 -0.4708 -0.4455  0.1227
 4053TIP3    H112165   3.885   4.398   2.824 -1.6385 -2.5814 -0.9662
 4053TIP3    H212166   4.006   4.326   2.769 -0.1919 -1.3155  0.4784
 4054TIP3   OH212167   5.766   0.728   3.486 -0.1752  0.0956  0.1629
 4054TIP3    H112168   5.672   0.714   3.472 -0.3036  0.0164  1.0562
 4054TIP3    H212169   5.808   0.671   3.422 -0.7395 -0.0666 -0.0679
 4055TIP3   OH212170   2.539   1.765   4.705 -0.4954 -0.8720 -0.0124
 4055TIP3    H112171   2.519   1.819   4.781 -1.5107 -3.5454  1.7775
 4055TIP3    H212172   2.614   1.711   4.732  1.6108  0.6833 -2.3508
 4056TIP3   OH212173   4.063   3.798   0.550  0.4200  0.5839 -0.0198
 4056TIP3    H112174   3.986   3.769   0.502  0.6575  0.1495 -0.1423
 4056TIP3    H212175   4.105   3.717   0.580 -0.1686  0.8482  1.6352
 4057TIP3   OH212176   1.024   0.510   0.293 -0.5633  0.2614 -0.3599
 4057TIP3    H112177   1.066   0.425   0.307 -2.9455 -1.3715 -2.2395
 4057TIP3    H212178   1.072   0.549   0.220 -2.5497 -1.9941 -3.1036
 4058TIP3   OH212179   0.891   1.281   4.154  0.1491 -0.4102 -0.0745
 4058TIP3    H112180   0.955   1.240   4.213  0.1064  0.3681  0.5414
 4058TIP3    H212181   0.944   1.331   4.092  0.1890 -1.1106 -0.6125
 4059TIP3   OH212182   1.396   1.455   2.293  0.3094  0.3052  0.0746
 4059TIP3    H112183   1.418   1.484   2.204  0.2890 -0.7199 -0.2713
 4059TIP3    H212184   1.473   1.407   2.322 -0.7808 -1.9201 -0.5281
 4060TIP3   OH212185   0.612   0.098   4.753 -0.1175 -0.7893 -0.6647
 4060TIP3    H112186   0.685   0.044   4.785  0.6873  0.8572  0.4488
 4060TIP3    H212187   0.537   0.039   4.752  0.8877 -2.1322 -0.2919
 4061TIP3   OH212188   0.551   2.130   3.600 -0.3271  0.5947 -0.1859
 4061TIP3    H112189   0.625   2.096   3.651  0.9335  0.2418 -2.1616
 4061TIP3    H212190   0.536   2.218   3.636 -0.6084 -0.2289  1.8756
 4062TIP3   OH212191   6.009   0.539   3.740  0.1420  0.1285 -0.1496
 4062TIP3    H112192   6.047   0.505   3.659  0.8885 -1.6845  0.9290
 4062TIP3    H212193   5.966   0.464   3.781  0.1311  0.9146  1.3561
 4063TIP3   OH212194   1.774   1.533   2.100  0.5557 -0.4705 -0.4031
 4063TIP3    H112195   1.838   1.564   2.037 -0.3034  1.4451 -0.3962
 4063TIP3    H212196   1.824   1.518   2.180  1.2901 -0.8826 -0.9229
 4064TIP3   OH212197   5.146   1.945   4.406  0.1652  0.0973 -0.3051
 4064TIP3    H112198   5.119   2.019   4.352 -1.9633  0.0585  0.6119
 4064TIP3    H212199   5.065   1.912   4.445  1.2423 -1.7874  0.5045
 4065TIP3   OH212200   4.977   4.534   2.219  0.4682  0.1218 -0.7261
 4065TIP3    H112201   5.022   4.452   2.240  2.5812  1.3881  0.0343
 4065TIP3    H212202   4.926   4.514   2.140 -1.2096 -2.5942  0.8892
 4066TIP3   OH212203   1.504   5.381   1.044 -0.1117  0.1265  0.2796
 4066TIP3    H112204   1.547   5.399   0.961  0.3165  0.0651  0.4857
 4066TIP3    H212205   1.530   5.454   1.101 -0.1573  0.0109  0.4497
 4067TIP3   OH212206   0.590   5.512   2.639 -0.1419 -0.8842 -0.0959
 4067TIP3    H112207   0.496   5.518   2.623 -0.0371 -0.2175 -0.5258
 4067TIP3    H212208   0.610   5.586   2.696  0.4335  0.2075 -1.6404
 4068TIP3   OH212209   1.860   5.540   0.777  0.6962  0.7623  0.5405
 4068TIP3    H112210   1.912   5.487   0.837  2.1846  1.4724 -0.0784
 4068TIP3    H212211   1.922   5.568   0.710  0.1365  3.8019  1.1586
 4069TIP3   OH212212   0.329   0.462   1.969 -0.3811  0.2592  0.4634
 4069TIP3    H112213   0.401   0.445   2.030 -0.8236 -0.1883  0.8667
 4069TIP3    H212214   0.333   0.556   1.953  2.3891 -0.1061 -2.1308
 4070TIP3   OH212215   5.450   4.754   2.830 -0.2510 -0.6851  0.2641
 4070TIP3    H112216   5.488   4.825   2.880  1.3187 -1.7549  0.6657
 4070TIP3    H212217   5.417   4.693   2.896 -2.3612  0.0141 -0.0739
 4071TIP3   OH212218   3.419   4.082   2.049  0.2495 -0.4794  0.7915
 4071TIP3    H112219   3.407   4.163   2.000 -0.8872 -0.9967  0.1680
 4071TIP3    H212220   3.360   4.090   2.124  1.3065 -0.0790  1.5987
 4072TIP3   OH212221   3.937   2.670   3.468 -0.3626  0.0672  0.0980
 4072TIP3    H112222   3.913   2.650   3.377  0.7370 -0.2658 -0.1268
 4072TIP3    H212223   3.884   2.610   3.520 -0.2773 -0.4232 -0.3742
 4073TIP3   OH212224   2.912   1.916   4.888 -0.5862  0.2393 -0.1335
 4073TIP3    H112225   2.919   1.860   4.811  0.4514  0.5961 -0.3129
 4073TIP3    H212226   2.948   2.001   4.859 -1.7893  0.8955  0.2371
 4074TIP3   OH212227   2.308   0.220   1.295  0.2574 -0.0531  0.1359
 4074TIP3    H112228   2.219   0.233   1.326 -0.1435 -0.5855 -0.7814
 4074TIP3    H212229   2.340   0.308   1.277 -1.2092  0.0219 -2.5945
 4075TIP3   OH212230   5.647   0.976   4.393 -0.2135 -0.1435 -0.2514
 4075TIP3    H112231   5.590   0.947   4.465 -1.0711  2.7952  0.3847
 4075TIP3    H212232   5.608   0.937   4.315 -1.0376 -1.0034  0.5637
 4076TIP3   OH212233   3.842   3.524   3.322  0.1488 -0.2314 -0.2554
 4076TIP3    H112234   3.747   3.526   3.312 -0.0189 -0.4338  1.0521
 4076TIP3    H212235   3.866   3.432   3.310  0.1612 -0.1944 -0.5007
 4077TIP3   OH212236   1.092   4.194   0.595 -0.1230 -0.5635  0.2075
 4077TIP3    H112237   1.026   4.205   0.664  0.0957 -0.6385  0.4322
 4077TIP3    H212238   1.161   4.257   0.618  0.1299 -0.8631  0.2754
 4078TIP3   OH212239   2.788   2.573   2.827  0.5128  0.0989  0.0108
 4078TIP3    H112240   2.881   2.585   2.843  0.3802 -0.7189  1.5501
 4078TIP3    H212241   2.746   2.649   2.867  0.5155  0.6860 -1.0479
 4079TIP3   OH212242   3.705   3.268   0.071  0.5032 -0.1589 -0.3515
 4079TIP3    H112243   3.772   3.252   0.137  2.2113  0.2540 -1.8975
 4079TIP3    H212244   3.674   3.181   0.046 -2.1678 -0.2837  2.8146
 4080TIP3   OH212245   6.212   0.720   1.818 -0.3371  0.6051  0.0338
 4080TIP3    H112246   6.266   0.787   1.776 -1.2813  0.9665 -0.6334
 4080TIP3    H212247   6.173   0.765   1.893 -0.0922  0.4765  0.2407
 4081TIP3   OH212248   1.427   4.119   3.778 -0.3583 -0.3193  0.8137
 4081TIP3    H112249   1.468   4.033   3.768  1.6881  0.7046 -0.2695
 4081TIP3    H212250   1.501   4.180   3.784 -1.7053  1.6998 -1.5468
 4082TIP3   OH212251   5.649   3.174   4.455 -0.2790 -0.3003 -0.0378
 4082TIP3    H112252   5.742   3.150   4.458 -0.4517 -0.9565  1.8829
 4082TIP3    H212253   5.647   3.266   4.482 -0.2104 -0.4052  0.3297
 4083TIP3   OH212254   0.637   5.914   0.655  0.0622  0.3258 -0.2845
 4083TIP3    H112255   0.570   5.871   0.601  1.2655 -1.0381 -0.7441
 4083TIP3    H212256   0.669   5.986   0.600 -1.2935  1.2692  0.1109
 4084TIP3   OH212257   3.992   0.408   0.850 -0.3891  0.1095 -0.3011
 4084TIP3    H112258   4.073   0.373   0.887 -0.1209  0.5006 -0.5075
 4084TIP3    H212259   3.996   0.502   0.868 -0.8000  0.1328 -0.3107
 4085TIP3   OH212260   0.210   5.595   2.909 -0.6310 -0.1876  0.1807
 4085TIP3    H112261   0.172   5.509   2.924 -3.1966  0.7951 -0.1973
 4085TIP3    H212262   0.154   5.655   2.958  2.2357  1.1637  2.0809
 4086TIP3   OH212263   1.425   5.936   3.835 -0.1165 -0.2578 -0.1046
 4086TIP3    H112264   1.484   5.915   3.763  0.1892 -0.2871  0.1526
 4086TIP3    H212265   1.339   5.946   3.793  0.1873  0.4781 -0.5889
 4087TIP3   OH212266   1.231   3.722   5.144 -0.2033  0.3208 -0.2856
 4087TIP3    H112267   1.147   3.677   5.134  0.5392 -0.6657 -3.0904
 4087TIP3    H212268   1.296   3.660   5.113  1.1825  2.2571 -1.5322
 4088TIP3   OH212269   2.878   2.939   3.630  0.1339  0.1417 -0.3664
 4088TIP3    H112270   2.857   2.846   3.623  1.6541 -0.2332 -0.3037
 4088TIP3    H212271   2.839   2.966   3.713 -0.1203 -0.5080 -0.2693
 4089TIP3   OH212272   2.113   0.998   1.774 -0.4118 -0.3505  0.5817
 4089TIP3    H112273   2.144   1.033   1.858 -0.4897 -0.2009  0.5488
 4089TIP3    H212274   2.044   0.937   1.798  1.2542 -2.2792  0.8081
 4090TIP3   OH212275   3.387   3.801   3.352  0.5433 -0.1835  0.4707
 4090TIP3    H112276   3.423   3.889   3.338  0.4848 -0.1809  0.3363
 4090TIP3    H212277   3.294   3.815   3.367  0.4626 -0.2540  0.0559
 4091TIP3   OH212278   5.384   5.781   1.034 -0.1841 -0.0565  0.2900
 4091TIP3    H112279   5.339   5.717   1.089  0.5120 -0.6869  0.1403
 4091TIP3    H212280   5.427   5.728   0.966  0.4404  0.5590  0.1944
 4092TIP3   OH212281   1.913   0.646   3.912  0.1447  0.7295 -0.3349
 4092TIP3    H112282   1.914   0.604   3.999 -0.2066  0.6201 -0.3825
 4092TIP3    H212283   1.983   0.711   3.917  1.2311 -0.3874 -0.5237
 4093TIP3   OH212284   4.270   1.583   4.928 -0.7120 -0.0164 -0.2589
 4093TIP3    H112285   4.348   1.545   4.888 -0.4339  0.9386 -0.6623
 4093TIP3    H212286   4.255   1.531   5.006 -0.2562 -0.8426 -0.7035
 4094TIP3   OH212287   5.043   5.682   1.903 -0.2007 -0.7662 -0.0364
 4094TIP3    H112288   5.043   5.776   1.886 -0.1754 -0.9381 -1.0425
 4094TIP3    H212289   5.133   5.654   1.883 -0.2395 -1.0239  0.1380
 4095TIP3   OH212290   4.043   4.751   4.934  0.0451 -0.0843 -0.0741
 4095TIP3    H112291   4.113   4.796   4.887 -1.0465 -0.1412 -1.8418
 4095TIP3    H212292   3.965   4.804   4.918 -0.5991 -0.7743  0.6748
 4096TIP3   OH212293   4.994  -0.025   1.246  0.4270 -0.3578 -0.4640
 4096TIP3    H112294   4.916   0.029   1.262 -0.4870 -1.1832 -1.9083
 4096TIP3    H212295   5.049   0.028   1.188  1.2179  0.4263  0.9426
 4097TIP3   OH212296   6.259   5.921   0.970  0.1860  0.2474 -0.0912
 4097TIP3    H112297   6.189   5.986   0.959  1.0370  1.3068  0.5773
 4097TIP3    H212298   6.293   5.906   0.881 -0.5165  0.1272 -0.3462
 4098TIP3   OH212299   4.235   3.490   0.046  0.3564 -0.1710  0.5940
 4098TIP3    H112300   4.196   3.577   0.050  0.6955  0.0727 -0.9120
 4098TIP3    H212301   4.317   3.498   0.095  0.3978  0.3596  0.4443
 4099TIP3   OH212302   5.697   3.681   1.656  0.3789  0.2579  0.3556
 4099TIP3    H112303   5.645   3.760   1.638  2.8192  1.5321 -1.9329
 4099TIP3    H212304   5.704   3.638   1.571  1.0526 -1.1645  1.1058
 4100TIP3   OH212305   3.947   0.831   3.987 -0.0624 -0.1529  0.0688
 4100TIP3    H112306   3.920   0.745   3.956 -0.6341 -0.2618  0.8548
 4100TIP3    H212307   3.878   0.859   4.047  0.1092  0.8605 -0.1798
 4101TIP3   OH212308   0.908   3.850   4.217 -0.1911  0.2622 -0.1882
 4101TIP3    H112309   0.928   3.757   4.228  0.1145  0.0205 -2.3547
 4101TIP3    H212310   0.954   3.875   4.137 -1.3101  1.9694 -0.3498
 4102TIP3   OH212311   6.294   1.688   0.321 -0.0530  0.1539  0.5187
 4102TIP3    H112312   6.241   1.759   0.358 -1.1273 -0.1404 -0.3936
 4102TIP3    H212313   6.319   1.720   0.234 -1.3203 -0.9186 -0.2772
 4103TIP3   OH212314   3.664   2.718   4.460 -0.1552  0.2023  0.2325
 4103TIP3    H112315   3.633   2.723   4.370  0.5964 -0.9238 -0.1098
 4103TIP3    H212316   3.601   2.771   4.510 -2.1390 -1.2872 -0.5597
 4104TIP3   OH212317   4.964   0.743   3.000 -0.2348 -0.8035 -0.0488
 4104TIP3    H112318   4.988   0.723   3.091 -2.3286  0.6578  0.9023
 4104TIP3    H212319   5.009   0.826   2.981  0.7128 -1.4339 -0.5829
 4105TIP3   OH212320   3.553   0.061   2.090 -0.6871 -0.5462 -0.1187
 4105TIP3    H112321   3.584   0.056   2.000  1.5969  0.3053  0.5313
 4105TIP3    H212322   3.492   0.134   2.091 -0.8915 -0.7014 -1.0138
 4106TIP3   OH212323   3.475   0.497   0.056  0.1671 -0.5188  0.3864
 4106TIP3    H112324   3.562   0.464   0.030  0.4672  0.0402  0.6632
 4106TIP3    H212325   3.466   0.580   0.009  0.2856  0.0012  1.2706
 4107TIP3   OH212326   2.632   2.806   2.824  0.2617 -0.2979  0.3800
 4107TIP3    H112327   2.594   2.811   2.736  0.7830  0.9899  0.1962
 4107TIP3    H212328   2.712   2.859   2.818 -0.7772  1.6096  2.1382
 4108TIP3   OH212329   4.170   3.915   4.159 -0.1650 -0.2613  0.0314
 4108TIP3    H112330   4.251   3.962   4.176  0.1510 -1.3256  1.7271
 4108TIP3    H212331   4.196   3.843   4.101 -0.1862  0.2266 -0.5917
 4109TIP3   OH212332   2.399   1.177   0.056 -0.3479  0.4034 -0.4805
 4109TIP3    H112333   2.399   1.233   0.133  1.5724 -0.2827  0.0684
 4109TIP3    H212334   2.309   1.143   0.052 -0.2228 -0.4935  2.1945
 4110TIP3   OH212335   4.311   2.177   3.972  0.3469 -0.2108 -0.2519
 4110TIP3    H112336   4.289   2.122   3.897  0.6582 -0.2300 -0.3307
 4110TIP3    H212337   4.400   2.151   3.995  0.1748 -0.3557  0.2562
 4111TIP3   OH212338   5.180   3.418   1.727 -0.2243 -0.1057 -0.1094
 4111TIP3    H112339   5.257   3.450   1.679 -0.2055 -0.2483 -0.1748
 4111TIP3    H212340   5.216   3.354   1.789 -0.3089 -0.2894 -0.2488
 4112TIP3   OH212341   5.109   3.708   1.111  0.2592  0.0842 -0.4127
 4112TIP3    H112342   5.155   3.775   1.061  0.2906  1.0537  0.8596
 4112TIP3    H212343   5.028   3.694   1.063  0.2116  1.1107 -0.6561
 4113TIP3   OH212344   0.669   1.741   1.320 -0.4859  0.1040  0.2242
 4113TIP3    H112345   0.677   1.830   1.353 -1.1735  0.0200  0.6502
 4113TIP3    H212346   0.663   1.687   1.399  1.3367 -0.4765  0.0019
 4114TIP3   OH212347   2.673   1.999   3.066  0.4734  0.5108 -0.2133
 4114TIP3    H112348   2.580   2.000   3.087  0.3242 -0.6044 -0.7594
 4114TIP3    H212349   2.705   2.086   3.093 -0.4856  0.5171  0.9841
 4115TIP3   OH212350   5.208   2.421   2.856  0.1002  0.3264  0.1979
 4115TIP3    H112351   5.296   2.447   2.882  0.8221 -0.1296 -1.6540
 4115TIP3    H212352   5.213   2.326   2.846 -0.6573  0.2706  0.2622
 4116TIP3   OH212353   4.604   3.786   3.756  0.0130 -0.2580 -0.1179
 4116TIP3    H112354   4.685   3.754   3.716 -0.9541 -0.5756 -1.9197
 4116TIP3    H212355   4.607   3.753   3.845  1.7039 -0.5478 -0.2401
 4117TIP3   OH212356   3.576   5.891   3.996 -0.0041  0.1783 -0.5618
 4117TIP3    H112357   3.485   5.866   3.977 -0.3194  1.2783 -0.5972
 4117TIP3    H212358   3.569   5.981   4.027  0.9251 -0.2190  0.8724
 4118TIP3   OH212359   2.691   0.653   4.539  0.2460 -0.0036  0.2925
 4118TIP3    H112360   2.650   0.727   4.585  0.3492  0.7431 -0.7596
 4118TIP3    H212361   2.777   0.686   4.513  1.0121 -1.1124  1.3323
 4119TIP3   OH212362   4.693   4.976   2.386  0.6560  0.1703 -0.4149
 4119TIP3    H112363   4.612   5.027   2.392  0.5788 -0.0501  0.4383
 4119TIP3    H212364   4.752   5.031   2.334  0.6223  1.1888  0.6051
 4120TIP3   OH212365   5.755   5.186   1.472  0.1823 -0.4797  0.3450
 4120TIP3    H112366   5.772   5.156   1.562 -0.1708  1.0470  0.9676
 4120TIP3    H212367   5.810   5.264   1.463 -1.0295  0.3497 -0.1670
 4121TIP3   OH212368   6.171   4.263   2.025  0.0753  0.5356 -0.0244
 4121TIP3    H112369   6.248   4.313   1.999  1.3522 -1.2587  0.0902
 4121TIP3    H212370   6.204   4.200   2.089 -1.5404 -0.1282  0.2023
 4122TIP3   OH212371   5.879   0.359   4.776 -0.2931 -0.5772 -0.4392
 4122TIP3    H112372   5.812   0.330   4.713  0.4454 -1.3760 -0.8748
 4122TIP3    H212373   5.863   0.453   4.785 -3.3673 -1.1345  1.7259
 4123TIP3   OH212374   1.627   1.546   4.131  0.1626  0.3755  0.1543
 4123TIP3    H112375   1.672   1.509   4.055 -0.0064 -0.7461  0.5893
 4123TIP3    H212376   1.587   1.627   4.098  0.8717  0.3836 -0.7086
 4124TIP3   OH212377   5.894   1.051   2.141 -0.0237  0.8830 -0.6679
 4124TIP3    H112378   5.893   1.144   2.165  0.6957  0.6241  0.4643
 4124TIP3    H212379   5.986   1.032   2.122  0.1240  0.0314  0.7588
 4125TIP3   OH212380   4.383   1.314   2.327 -0.2924  0.4335  0.4010
 4125TIP3    H112381   4.357   1.300   2.419 -0.2951 -1.4242  0.1554
 4125TIP3    H212382   4.344   1.399   2.304 -2.9763 -0.4587  1.2123
 4126TIP3   OH212383   4.373   2.230   0.121 -0.5237 -0.8197 -0.2649
 4126TIP3    H112384   4.298   2.253   0.176  0.1279  0.5189  0.1072
 4126TIP3    H212385   4.410   2.152   0.161 -1.1530 -0.9269  0.1071
 4127TIP3   OH212386   2.152   1.435   2.424 -0.3191 -0.2318  0.0136
 4127TIP3    H112387   2.231   1.382   2.412 -0.3916 -0.0803 -1.2850
 4127TIP3    H212388   2.181   1.525   2.410 -0.8961 -0.2583 -1.5927
 4128TIP3   OH212389   0.185   0.096   1.455 -0.5220 -0.3140  0.0530
 4128TIP3    H112390   0.099   0.137   1.447  0.0626  1.3715  1.5777
 4128TIP3    H212391   0.241   0.147   1.397 -0.6105 -1.7374 -1.3433
 4129TIP3   OH212392   5.452   3.922   3.237  0.9960 -0.1451  0.3306
 4129TIP3    H112393   5.362   3.911   3.269  0.2037  1.6896 -1.1371
 4129TIP3    H212394   5.505   3.876   3.302 -0.9857 -1.4262  1.1622
 4130TIP3   OH212395   3.091   0.823   4.178 -0.2358 -0.0013 -0.0528
 4130TIP3    H112396   3.077   0.734   4.146 -0.0592 -0.9513  2.3270
 4130TIP3    H212397   3.178   0.847   4.144 -0.4235 -0.5858 -0.9892
 4131TIP3   OH212398   1.064   2.557   5.007  0.2900  0.0739 -0.4588
 4131TIP3    H112399   1.063   2.530   4.915  1.0430 -1.8861  0.0516
 4131TIP3    H212400   1.102   2.482   5.053  0.3531  1.1978  1.4027
 4132TIP3   OH212401   3.532   2.037   5.166  0.0875  0.6153 -0.3660
 4132TIP3    H112402   3.520   2.123   5.127  0.1753  1.0065  0.4440
 4132TIP3    H212403   3.627   2.025   5.169  0.0673  0.2038 -1.0641
 4133TIP3   OH212404   4.046   5.236   5.061 -0.7633  0.6671 -0.0839
 4133TIP3    H112405   3.988   5.235   4.985 -1.2678 -1.9651  0.2687
 4133TIP3    H212406   3.987   5.244   5.136 -0.4889  0.3678  0.1644
 4134TIP3   OH212407   3.559   0.703   1.325  0.1472 -0.4969  0.2426
 4134TIP3    H112408   3.502   0.694   1.402  0.0828  0.3907  0.3036
 4134TIP3    H212409   3.500   0.727   1.254  0.4694  0.7419  0.3739
 4135TIP3   OH212410   6.325   3.404   3.334  0.6529 -0.2486  0.1109
 4135TIP3    H112411   6.370   3.426   3.416 -0.2752  0.9322  0.3382
 4135TIP3    H212412   6.234   3.391   3.359  0.6791 -1.7490 -0.4741
 4136TIP3   OH212413   0.641   4.408   3.186 -0.2782  0.1516  0.1331
 4136TIP3    H112414   0.733   4.402   3.161 -0.5245 -0.9397 -0.5878
 4136TIP3    H212415   0.594   4.366   3.114 -1.2576 -0.1736  0.9443
 4137TIP3   OH212416  -0.027   3.068   4.749 -0.1688 -0.1720  0.2404
 4137TIP3    H112417   0.027   3.000   4.789  0.2407 -0.2646 -0.4525
 4137TIP3    H212418   0.008   3.077   4.660 -2.0046 -1.0082 -0.6108
 4138TIP3   OH212419   4.167   3.249   2.285  0.0117 -0.2286 -0.4070
 4138TIP3    H112420   4.239   3.311   2.293 -1.3651  1.3720  0.0497
 4138TIP3    H212421   4.102   3.293   2.230 -0.7715 -1.5033 -0.5664
 4139TIP3   OH212422   3.115   3.957   3.461 -0.2712  0.2177  0.2314
 4139TIP3    H112423   3.104   3.893   3.531  0.5860 -0.8856 -0.6034
 4139TIP3    H212424   3.034   3.951   3.410 -0.4437  0.2216  0.5069
 4140TIP3   OH212425   1.419   2.114   3.526 -0.5030  0.0371  0.8544
 4140TIP3    H112426   1.355   2.069   3.470 -0.1047 -2.0539  1.9513
 4140TIP3    H212427   1.466   2.173   3.467 -2.9081  1.0912 -0.1215
 4141TIP3   OH212428   4.352   3.767   1.022  0.2668 -0.1946 -0.2011
 4141TIP3    H112429   4.364   3.855   1.059  1.2286 -0.1369 -0.6242
 4141TIP3    H212430   4.310   3.717   1.092  0.5248  0.3669  0.3685
 4142TIP3   OH212431   2.014   3.451   0.688 -0.1478 -0.2337 -0.2797
 4142TIP3    H112432   2.057   3.512   0.628 -0.3840  0.8443  0.6124
 4142TIP3    H212433   2.019   3.366   0.644  3.6421 -0.3770  0.1482
 4143TIP3   OH212434   4.994   1.518   4.455 -0.3106 -0.2129  0.7334
 4143TIP3    H112435   5.085   1.531   4.427  0.1043 -1.0511  1.6494
 4143TIP3    H212436   4.943   1.577   4.399  0.9284  1.3192  1.1608
 4144TIP3   OH212437   5.173   2.648   1.300  0.4231  0.3452 -0.1172
 4144TIP3    H112438   5.218   2.726   1.330 -1.1359  0.5917  1.7852
 4144TIP3    H212439   5.209   2.577   1.354  0.1230  0.1826 -0.1244
 4145TIP3   OH212440   3.957   1.429   0.750 -0.0274 -0.1441  0.0696
 4145TIP3    H112441   3.941   1.519   0.778 -0.7001 -0.6892  1.5511
 4145TIP3    H212442   3.922   1.424   0.662  0.1447  1.0833 -0.0851
 4146TIP3   OH212443   1.354   2.529   1.753  0.3822  0.1070  0.2889
 4146TIP3    H112444   1.374   2.609   1.802  0.2123 -0.9041  2.1065
 4146TIP3    H212445   1.377   2.458   1.813 -0.1903 -1.2058 -0.9855
 4147TIP3   OH212446   0.103   3.066   0.628  0.0464  0.0059  0.1905
 4147TIP3    H112447   0.109   2.974   0.601 -0.2796  0.1793 -0.4931
 4147TIP3    H212448   0.174   3.077   0.691 -0.8467 -1.1230  1.4658
 4148TIP3   OH212449   0.562   5.668   4.883  0.2907 -0.7916  0.0710
 4148TIP3    H112450   0.646   5.623   4.882  1.4531  1.1533  1.6835
 4148TIP3    H212451   0.555   5.709   4.797  0.8434 -1.2513 -0.1959
 4149TIP3   OH212452   3.808   4.935   4.882 -0.4494  0.1103  0.2221
 4149TIP3    H112453   3.818   5.027   4.903 -0.7865  0.0255  0.7626
 4149TIP3    H212454   3.733   4.906   4.934 -0.1616 -0.5335  0.2888
 4150TIP3   OH212455   6.023   0.113   4.325  0.5792  0.1261  0.4435
 4150TIP3    H112456   6.058   0.027   4.350 -0.1726 -0.2169  0.3245
 4150TIP3    H212457   6.080   0.175   4.371  0.9665 -0.4367  0.7451
 4151TIP3   OH212458   4.649   2.058   4.488  0.2993  0.6671  0.4282
 4151TIP3    H112459   4.567   2.053   4.441  0.7985 -0.0556 -0.3896
 4151TIP3    H212460   4.636   2.004   4.566  0.3852 -0.4745 -0.3235
 4152TIP3   OH212461   1.003   1.405   2.067 -0.0123 -0.1261 -0.0010
 4152TIP3    H112462   1.001   1.491   2.025 -0.1764  0.0062  0.2788
 4152TIP3    H212463   0.984   1.344   1.996  1.6110 -0.0609 -0.5319
 4153TIP3   OH212464   1.397   1.315   5.106  0.0672  0.1225  0.0164
 4153TIP3    H112465   1.374   1.242   5.049 -0.2391  1.5397 -1.7792
 4153TIP3    H212466   1.425   1.274   5.188  0.8172 -2.0356 -1.2416
 4154TIP3   OH212467   3.729   2.374   4.245  0.0686  0.3592  0.7179
 4154TIP3    H112468   3.743   2.332   4.160 -0.4355  3.0145 -0.7912
 4154TIP3    H212469   3.817   2.394   4.277  0.2927 -1.3524  1.2472
 4155TIP3   OH212470   2.869   1.552   3.766 -0.8526  0.4408  0.5067
 4155TIP3    H112471   2.868   1.459   3.741  0.9713  0.6836 -0.6555
 4155TIP3    H212472   2.777   1.579   3.761 -1.2893 -1.0517 -0.1342
 4156TIP3   OH212473   2.047   1.900   0.726 -0.5269  0.1529 -0.0476
 4156TIP3    H112474   2.085   1.865   0.645 -0.0865  1.2041 -0.3176
 4156TIP3    H212475   2.098   1.980   0.743  0.1746 -0.6640  1.9219
 4157TIP3   OH212476   1.496   0.055   0.151 -0.0047  0.1577  0.4619
 4157TIP3    H112477   1.426   0.006   0.194 -0.2077  1.4683  1.6819
 4157TIP3    H212478   1.466   0.145   0.151  0.9447  0.5025 -0.5684
 4158TIP3   OH212479   0.212   2.321   2.484 -0.3389  1.3174  0.0780
 4158TIP3    H112480   0.194   2.233   2.452 -2.0093  1.4019  0.6853
 4158TIP3    H212481   0.214   2.375   2.405 -2.6076  1.2251 -0.1090
 4159TIP3   OH212482   1.324   0.627   2.227 -0.1607 -0.3453 -0.3069
 4159TIP3    H112483   1.262   0.568   2.269 -2.0014  0.7991 -1.2783
 4159TIP3    H212484   1.285   0.714   2.237  1.1037  0.3730 -1.2814
 4160TIP3   OH212485   0.018   5.823   3.771 -0.2718  0.1539 -0.3149
 4160TIP3    H112486   0.108   5.819   3.738  0.1578  1.0538  0.6760
 4160TIP3    H212487   0.027   5.804   3.865 -1.2179 -0.5105 -0.3503
 4161TIP3   OH212488   5.827   3.890   4.071  0.7575 -0.1445 -0.5291
 4161TIP3    H112489   5.783   3.817   4.027  0.1147 -0.2896  0.3135
 4161TIP3    H212490   5.805   3.967   4.019  0.3307 -0.3688 -0.6871
 4162TIP3   OH212491   5.956   4.687   0.955  0.2230 -0.3936 -0.2163
 4162TIP3    H112492   6.049   4.688   0.978  0.5360 -1.2050 -1.3458
 4162TIP3    H212493   5.954   4.652   0.866 -0.8983  3.0203 -1.6736
 4163TIP3   OH212494   1.993   3.738   2.065 -0.1286 -0.3844  0.1230
 4163TIP3    H112495   2.075   3.690   2.066 -0.3446 -0.7460  0.9762
 4163TIP3    H212496   1.929   3.678   2.102 -0.1801  0.9145  2.2710
 4164TIP3   OH212497   0.751   5.514   3.960  0.3086  0.4870 -0.2444
 4164TIP3    H112498   0.726   5.472   4.043  1.4389  1.3398  0.5425
 4164TIP3    H212499   0.777   5.441   3.904 -1.7536 -0.2397 -0.3671
 4165TIP3   OH212500   1.586   2.536   0.683  0.2021  0.3922 -0.5206
 4165TIP3    H112501   1.540   2.619   0.693 -0.1070  0.5318 -2.6568
 4165TIP3    H212502   1.533   2.472   0.731 -0.3045  1.1630 -0.0386
 4166TIP3   OH212503   0.971   4.155   2.293 -0.6840 -0.1765  0.0847
 4166TIP3    H112504   1.022   4.098   2.351 -1.5448 -0.2934  0.7584
 4166TIP3    H212505   0.969   4.240   2.337 -1.3545 -0.2676  0.2467
 4167TIP3   OH212506   3.152   2.812   3.401  0.1980  0.2935  0.3151
 4167TIP3    H112507   3.222   2.758   3.438  1.0800 -0.5573 -2.3379
 4167TIP3    H212508   3.072   2.764   3.421  0.8725 -1.5497 -1.0300
 4168TIP3   OH212509   5.234   1.612   4.357 -0.5782  0.2373  0.1067
 4168TIP3    H112510   5.217   1.644   4.268 -0.8907  0.3736  0.2141
 4168TIP3    H212511   5.313   1.660   4.385  0.4531 -0.9569 -0.6739
 4169TIP3   OH212512   5.255   2.471   4.106  0.3042 -0.8751  0.1945
 4169TIP3    H112513   5.234   2.564   4.114 -0.3833 -1.1477  2.0746
 4169TIP3    H212514   5.350   2.466   4.121  0.1237 -0.5902  1.5407
 4170TIP3   OH212515   4.517   5.439   4.819  0.1200 -0.2995 -0.5856
 4170TIP3    H112516   4.476   5.441   4.905 -1.7109 -2.2280 -1.3278
 4170TIP3    H212517   4.461   5.496   4.765  1.8935  1.8197 -0.3392
 4171TIP3   OH212518   5.496   1.535   2.242 -0.0055 -0.1721  0.0425
 4171TIP3    H112519   5.480   1.538   2.148 -0.0574 -0.3521  0.0465
 4171TIP3    H212520   5.420   1.577   2.281 -0.2832 -0.6730  0.0402
 4172TIP3   OH212521   5.488   1.353   1.998 -0.3283  0.4762 -0.2076
 4172TIP3    H112522   5.416   1.359   1.935  0.3669 -0.9241 -1.1940
 4172TIP3    H212523   5.567   1.362   1.945  0.2612 -0.1113  0.5423
 4173TIP3   OH212524   5.081   2.627   0.052 -0.1522  0.1326 -0.1841
 4173TIP3    H112525   5.015   2.569   0.013 -1.0249  0.7333  0.3802
 4173TIP3    H212526   5.159   2.572   0.059  0.7305  0.4369 -4.5172
 4174TIP3   OH212527   0.328   1.738   5.141 -0.2333  0.4172  0.8745
 4174TIP3    H112528   0.365   1.816   5.183  1.3617 -0.5071  1.2791
 4174TIP3    H212529   0.250   1.717   5.192 -0.6422  1.6858  0.8027
 4175TIP3   OH212530   0.882   3.875   1.903  0.1719  0.1570 -0.3224
 4175TIP3    H112531   0.843   3.957   1.873 -0.7863 -0.3847 -0.6073
 4175TIP3    H212532   0.920   3.836   1.824  1.2519  0.6441 -0.0600
 4176TIP3   OH212533   2.062   5.807   2.620  0.1667 -0.2916  0.2611
 4176TIP3    H112534   2.029   5.720   2.596  0.1948  0.1740 -1.5728
 4176TIP3    H212535   2.155   5.793   2.640  0.0775 -0.7420  0.3644
 4177TIP3   OH212536   2.217   5.023   0.477 -0.0433 -0.0261  0.0077
 4177TIP3    H112537   2.192   4.932   0.459 -0.6547 -0.3656  2.2295
 4177TIP3    H212538   2.213   5.066   0.392 -1.5323 -1.6747 -0.8287
 4178TIP3   OH212539   5.259   0.468   3.124  0.4495 -0.1268 -0.1877
 4178TIP3    H112540   5.257   0.373   3.139 -2.5074  0.0388  1.2612
 4178TIP3    H212541   5.247   0.478   3.030 -0.5001 -1.2232 -0.2095
 4179TIP3   OH212542   2.126   1.585   1.051  0.0997  0.9620  0.8265
 4179TIP3    H112543   2.172   1.624   0.976  0.4569 -0.4772  0.2541
 4179TIP3    H212544   2.197   1.551   1.106 -0.2209 -1.2655 -0.0520
 4180TIP3   OH212545   1.682   1.652   4.406 -0.1083  0.3302  0.0700
 4180TIP3    H112546   1.710   1.736   4.369 -0.9853  0.3618 -0.5616
 4180TIP3    H212547   1.685   1.592   4.332  1.6157 -0.4910  0.7653
 4181TIP3   OH212548   4.981   5.599   5.043 -0.4596 -0.0805  0.0650
 4181TIP3    H112549   4.897   5.568   5.009 -0.3100  0.3441 -0.6960
 4181TIP3    H212550   4.964   5.615   5.136 -0.9151 -1.0743  0.1703
 4182TIP3   OH212551   3.100   3.326   4.122 -0.6301 -0.5003  0.6127
 4182TIP3    H112552   3.056   3.401   4.162 -0.4168  1.1020 -1.9413
 4182TIP3    H212553   3.037   3.291   4.060 -0.2236 -1.6347  0.8069
 4183TIP3   OH212554   5.576   2.502   0.394 -0.2509  0.0531 -0.4224
 4183TIP3    H112555   5.649   2.563   0.384  0.8398 -1.3224 -1.2802
 4183TIP3    H212556   5.524   2.516   0.315 -0.5193  0.5034 -0.1723
 4184TIP3   OH212557   3.855   3.170   2.067 -0.3276  0.0226 -0.8949
 4184TIP3    H112558   3.936   3.207   2.030  1.1533 -0.4828  1.6056
 4184TIP3    H212559   3.839   3.091   2.016  0.7187  0.1610 -1.4642
 4185TIP3   OH212560   6.109   0.390   4.004 -0.0053 -0.1173  0.3098
 4185TIP3    H112561   6.073   0.311   4.045 -1.1101  0.9749  1.5508
 4185TIP3    H212562   6.116   0.453   4.076 -0.1044  1.2393 -0.8222
 4186TIP3   OH212563   0.483   0.731   2.582 -0.2677  0.1116  0.1353
 4186TIP3    H112564   0.530   0.706   2.502 -1.1776 -0.6093 -0.1947
 4186TIP3    H212565   0.502   0.824   2.592 -1.4095  0.6305 -1.8552
 4187TIP3   OH212566   3.731   0.192   1.820 -0.3566  0.1434  0.0635
 4187TIP3    H112567   3.767   0.133   1.755  0.1643  1.7955 -1.2239
 4187TIP3    H212568   3.638   0.171   1.823 -0.3902  0.0310 -1.2273
 4188TIP3   OH212569   5.936   0.975   4.326  0.7387  0.1761  0.6449
 4188TIP3    H112570   6.004   1.017   4.379  0.4536  2.1158 -0.4466
 4188TIP3    H212571   5.894   1.047   4.279 -0.1533 -1.2912 -0.9149
 4189TIP3   OH212572   1.224   2.135   1.148 -0.4096  0.0103  0.2768
 4189TIP3    H112573   1.171   2.163   1.073 -1.6799  1.5263  1.6721
 4189TIP3    H212574   1.312   2.167   1.128 -0.6016 -0.0664 -0.7761
 4190TIP3   OH212575   3.950   0.117   5.086 -0.4448  0.2859 -0.0215
 4190TIP3    H112576   3.932   0.180   5.016 -2.0812 -0.2310 -0.1153
 4190TIP3    H212577   3.944   0.031   5.043  0.2659  0.0182  0.4027
 4191TIP3   OH212578   6.333   2.087   1.338  0.1927  0.5192  0.0096
 4191TIP3    H112579   6.263   2.036   1.297  1.2199 -0.4268 -0.6257
 4191TIP3    H212580   6.407   2.080   1.278  1.2897  0.2966  1.3268
 4192TIP3   OH212581   2.126   0.970   4.978 -0.4967 -0.1384 -0.4952
 4192TIP3    H112582   2.045   0.949   4.934  0.3551 -3.9834 -0.5297
 4192TIP3    H212583   2.184   1.002   4.909 -1.1054  0.0031 -0.9435
 4193TIP3   OH212584   5.592   1.459   5.203 -0.3220  0.4315 -0.3177
 4193TIP3    H112585   5.656   1.422   5.141 -0.1354 -0.4248  0.3656
 4193TIP3    H212586   5.528   1.390   5.216  0.8584 -0.3026  2.1662
 4194TIP3   OH212587   0.376   0.340   3.168  0.5185  0.1910  0.1890
 4194TIP3    H112588   0.340   0.251   3.175  0.3291  0.0247 -2.0377
 4194TIP3    H212589   0.367   0.361   3.075  1.7754  2.0475  0.4508
 4195TIP3   OH212590   6.275   5.148   0.659 -0.6688  0.5832  0.5900
 4195TIP3    H112591   6.180   5.157   0.670 -0.9330 -0.2640 -0.6565
 4195TIP3    H212592   6.297   5.070   0.710 -0.6536  0.7319  0.8121
 4196TIP3   OH212593   4.017   5.240   2.713 -0.1995  0.3129  0.2493
 4196TIP3    H112594   3.959   5.282   2.776 -0.7361 -1.3885  0.9545
 4196TIP3    H212595   4.001   5.286   2.631 -2.7895 -0.2469  0.3562
 4197TIP3   OH212596   4.105   5.040   3.047  0.0323  0.2489 -0.2323
 4197TIP3    H112597   4.074   5.008   2.962 -1.4175  0.9798  0.0019
 4197TIP3    H212598   4.065   4.982   3.111  0.2038  0.4064  0.0225
 4198TIP3   OH212599   5.723   3.111   0.595  0.5303  0.5150  0.0982
 4198TIP3    H112600   5.752   3.020   0.602  2.2268  0.9801 -0.5240
 4198TIP3    H212601   5.719   3.142   0.686 -1.6670 -0.6068  0.4552
 4199TIP3   OH212602   0.689   1.274   0.216 -0.4883  0.1388  0.2624
 4199TIP3    H112603   0.609   1.320   0.190 -0.0135  1.4070  0.9354
 4199TIP3    H212604   0.731   1.250   0.134 -2.4531 -2.2656 -0.1443
 4200TIP3   OH212605   2.616   2.946   3.422  0.2437 -0.3910  0.4418
 4200TIP3    H112606   2.522   2.957   3.408  0.3069 -0.6681 -0.2821
 4200TIP3    H212607   2.631   2.977   3.511 -0.1462  1.8340 -0.2056
 4201TIP3   OH212608   3.530   4.571   0.191 -0.2739 -0.3771  0.1450
 4201TIP3    H112609   3.546   4.558   0.097 -1.1273  0.3164 -0.1051
 4201TIP3    H212610   3.513   4.483   0.224 -0.0901 -0.6147 -0.3735
 4202TIP3   OH212611   1.990   1.977   4.512  0.3822 -0.2854 -0.2853
 4202TIP3    H112612   1.930   2.004   4.581  0.6357  1.8487 -0.8296
 4202TIP3    H212613   2.063   2.039   4.519  1.8028 -1.8646 -0.6178
 4203TIP3   OH212614   1.860   0.698   0.184  0.5841 -0.3780  0.3085
 4203TIP3    H112615   1.933   0.686   0.124  1.5224  0.7641  1.1873
 4203TIP3    H212616   1.890   0.764   0.246 -1.8078  1.4648 -0.3248
 4204TIP3   OH212617   3.783   1.973   2.007  0.6531 -0.6577  0.1493
 4204TIP3    H112618   3.727   2.015   2.073  0.4488  0.6953 -0.8396
 4204TIP3    H212619   3.739   1.890   1.987  0.2592 -0.6853  1.0793
 4205TIP3   OH212620   5.855   5.791   1.826  0.5418  0.4851 -0.2062
 4205TIP3    H112621   5.798   5.760   1.896  1.8097 -0.6018  0.3776
 4205TIP3    H212622   5.881   5.879   1.854  0.2073  0.4647  0.1818
 4206TIP3   OH212623   0.653   4.747   2.182 -0.0714 -0.1462  0.8394
 4206TIP3    H112624   0.647   4.652   2.168  2.0786 -0.0459 -1.3575
 4206TIP3    H212625   0.646   4.757   2.277  0.7503 -2.6176  1.2534
 4207TIP3   OH212626   5.861   2.365   2.945  0.2109 -0.6664  0.0500
 4207TIP3    H112627   5.866   2.280   2.989 -1.2871 -0.8736 -0.1421
 4207TIP3    H212628   5.917   2.355   2.868  2.1867 -0.5744  1.4037
 4208TIP3   OH212629   0.473   1.872   1.780 -0.5463  0.0031  0.7358
 4208TIP3    H112630   0.401   1.809   1.771 -0.3051 -0.8209  3.5605
 4208TIP3    H212631   0.536   1.847   1.712 -2.4806  0.1842 -1.2057
 4209TIP3   OH212632   1.982   5.731   0.093  0.1596 -0.4661  0.4082
 4209TIP3    H112633   1.948   5.685   0.170 -0.3739  0.8899  1.0176
 4209TIP3    H212634   1.918   5.713   0.024  0.1296 -0.8906  0.5436
 4210TIP3   OH212635   3.343   4.997   0.554  0.1665  0.1845  0.1340
 4210TIP3    H112636   3.399   4.967   0.482  0.2782 -0.9923  0.6875
 4210TIP3    H212637   3.379   5.082   0.578  0.5831  0.2600 -0.7123
 4211TIP3   OH212638   5.039   4.086   1.555 -0.3024  0.3555  0.3914
 4211TIP3    H112639   4.964   4.115   1.503  0.4292  0.4334 -0.6367
 4211TIP3    H212640   5.041   3.991   1.544 -1.2039  0.1404  1.7524
 4212TIP3   OH212641   0.676   1.997   0.939  0.2174  0.1843  0.2599
 4212TIP3    H112642   0.722   2.017   1.021 -0.7281  1.6450  0.4670
 4212TIP3    H212643   0.615   1.926   0.963 -0.4804  1.0083  0.9915
 4213TIP3   OH212644   5.670   3.623   1.924  0.3219  0.1914  0.6424
 4213TIP3    H112645   5.607   3.554   1.903 -0.0732 -0.1418  2.7906
 4213TIP3    H212646   5.703   3.650   1.838 -3.2102  0.8925 -0.6687
 4214TIP3   OH212647   4.984   5.452   1.713 -0.1247 -0.1222  0.1674
 4214TIP3    H112648   5.060   5.408   1.675 -0.0609  0.6986 -0.6994
 4214TIP3    H212649   5.019   5.502   1.787 -0.2600 -1.7868  1.4285
 4215TIP3   OH212650   3.815   1.305   4.753  0.2338  0.0166 -0.3655
 4215TIP3    H112651   3.722   1.304   4.773  0.2877 -2.2369  0.1138
 4215TIP3    H212652   3.858   1.317   4.837  0.3555 -1.8694 -0.1021
 4216TIP3   OH212653   4.805   4.978   0.367 -0.1525 -0.1253  0.5326
 4216TIP3    H112654   4.790   4.888   0.398  2.4933  0.3454  3.7495
 4216TIP3    H212655   4.868   4.969   0.296 -0.4011 -0.8357  0.3935
 4217TIP3   OH212656   3.762   5.034   3.775 -0.2502 -0.1028  0.7227
 4217TIP3    H112657   3.844   5.033   3.823  0.9888  1.6491 -1.2227
 4217TIP3    H212658   3.769   4.961   3.714 -0.1017  0.1057  0.4909
 4218TIP3   OH212659   3.782   0.550   2.772 -0.0177 -0.1215  0.6294
 4218TIP3    H112660   3.805   0.568   2.863 -0.8654 -0.4293  0.9158
 4218TIP3    H212661   3.706   0.491   2.777  0.2020 -0.5047 -0.2758
 4219TIP3   OH212662   4.991   3.746   3.632 -0.6278 -0.2657 -0.0137
 4219TIP3    H112663   5.015   3.718   3.720 -0.5722 -1.4200 -0.3845
 4219TIP3    H212664   5.059   3.809   3.608 -0.6060  0.0103  0.7310
 4220TIP3   OH212665   1.872   0.060   2.363  0.0372  0.1148  0.0926
 4220TIP3    H112666   1.834  -0.003   2.303 -0.1559 -0.2074  0.5497
 4220TIP3    H212667   1.897   0.134   2.308  2.6949 -1.3772 -0.9137
 4221TIP3   OH212668   3.315   3.444   4.471 -0.0180  0.0126  0.0500
 4221TIP3    H112669   3.371   3.475   4.399 -1.8761 -0.8411 -1.8886
 4221TIP3    H212670   3.259   3.519   4.492  0.2371  0.1297  0.3163
 4222TIP3   OH212671   0.208   3.983   4.984  0.4480  0.3322  0.7896
 4222TIP3    H112672   0.125   4.017   5.017 -0.9447 -0.0871 -1.9678
 4222TIP3    H212673   0.190   3.963   4.892  3.4726 -0.3227  0.2549
 4223TIP3   OH212674   1.716   4.788   0.563  0.1776  0.2135 -0.0876
 4223TIP3    H112675   1.712   4.701   0.603 -0.6267 -0.3363 -1.2902
 4223TIP3    H212676   1.793   4.829   0.601  0.3792 -0.9030  0.7508
 4224TIP3   OH212677   1.426   2.527   2.368 -0.0034 -0.2812 -0.3169
 4224TIP3    H112678   1.459   2.447   2.408 -1.0492 -0.6309 -0.1332
 4224TIP3    H212679   1.359   2.497   2.306  0.6514  0.3486 -1.3584
 4225TIP3   OH212680   2.847   0.587   4.289 -0.0002  0.6019  0.0889
 4225TIP3    H112681   2.924   0.588   4.345 -1.4957  0.7509  2.2828
 4225TIP3    H212682   2.828   0.495   4.275  0.1697  0.5582  0.1452
 4226TIP3   OH212683   0.114   4.576   2.216 -0.3776 -0.7596 -0.0977
 4226TIP3    H112684   0.188   4.533   2.173  1.3767  2.2607 -0.4723
 4226TIP3    H212685   0.086   4.515   2.284  0.2440 -3.4334 -2.0821
 4227TIP3   OH212686   1.651   1.216   1.951 -0.6443 -0.2720  0.1653
 4227TIP3    H112687   1.608   1.144   1.998  0.3594  0.2185  1.9483
 4227TIP3    H212688   1.708   1.256   2.017 -0.0217  1.1964 -1.2110
 4228TIP3   OH212689   1.647   4.907   2.787 -0.7073  0.0106 -0.1770
 4228TIP3    H112690   1.671   4.932   2.876 -1.2027  2.0140 -0.5534
 4228TIP3    H212691   1.557   4.938   2.776 -0.7125 -0.3471 -1.3094
 4229TIP3   OH212692   1.208   5.269   3.743 -0.4402 -0.1184 -0.1503
 4229TIP3    H112693   1.189   5.318   3.823  2.4315  0.7175  0.1393
 4229TIP3    H212694   1.122   5.257   3.702 -1.7524  1.3867  1.9086
 4230TIP3   OH212695   6.330   1.505   2.129 -0.2449  0.3681 -0.0257
 4230TIP3    H112696   6.335   1.428   2.073  0.5677  0.5841 -0.2649
 4230TIP3    H212697   6.417   1.544   2.124 -0.1066  0.3253  1.4964
 4231TIP3   OH212698   3.235   1.190   3.685  0.7744 -0.2727  0.0102
 4231TIP3    H112699   3.272   1.124   3.626 -0.3581 -0.1723 -0.8521
 4231TIP3    H212700   3.158   1.224   3.638  0.8423  1.0528  0.8142
 4232TIP3   OH212701   3.137   2.044   3.806 -0.3213  0.1212 -0.1833
 4232TIP3    H112702   3.219   2.091   3.790 -0.6140  0.3157 -1.2082
 4232TIP3    H212703   3.140   1.972   3.743 -1.4334  0.7731 -1.0107
 4233TIP3   OH212704   3.871   2.396   2.307  0.4578 -0.2660 -0.7063
 4233TIP3    H112705   3.840   2.333   2.373 -2.7488  0.9221 -0.8741
 4233TIP3    H212706   3.903   2.342   2.235  0.3671 -1.6414  0.2416
 4234TIP3   OH212707   1.346   1.361   4.769 -0.0619 -0.2236 -0.0819
 4234TIP3    H112708   1.411   1.296   4.797  1.1596 -0.3262 -2.8651
 4234TIP3    H212709   1.262   1.316   4.779  0.5304 -1.2365  0.5766
 4235TIP3   OH212710   0.995   5.511   3.017  0.2256  0.0520 -0.4710
 4235TIP3    H112711   0.933   5.470   2.957  0.2325 -0.2853 -0.2507
 4235TIP3    H212712   1.078   5.466   2.999  0.1042 -0.4430  0.1815
 4236TIP3   OH212713   4.888   4.367   0.820  0.4961 -0.3600  0.1557
 4236TIP3    H112714   4.975   4.332   0.805  0.2226 -1.4690  1.0230
 4236TIP3    H212715   4.855   4.319   0.896  0.4529  2.4355  2.0944
 4237TIP3   OH212716   5.598   3.481   0.740  0.1957 -1.0134  0.5106
 4237TIP3    H112717   5.690   3.506   0.734 -0.3041  1.1793  1.3138
 4237TIP3    H212718   5.588   3.448   0.829  0.1156 -0.8632  0.5573
 4238TIP3   OH212719   1.761   5.295   4.586 -0.4011  0.4815  0.0483
 4238TIP3    H112720   1.696   5.225   4.598  1.5407 -1.4360 -0.0166
 4238TIP3    H212721   1.714   5.375   4.610 -2.3752 -0.9536  1.3233
 4239TIP3   OH212722   2.262   3.274   3.783 -0.5105  0.6814  0.2460
 4239TIP3    H112723   2.325   3.334   3.742 -0.7191  1.3262  0.8349
 4239TIP3    H212724   2.190   3.331   3.811 -0.7299  0.1503  0.7904
 4240TIP3   OH212725   1.471   3.160   2.258 -0.0789  0.1012 -0.1673
 4240TIP3    H112726   1.542   3.143   2.196  0.7326  0.7293  0.5579
 4240TIP3    H212727   1.445   3.074   2.289  0.7714 -0.1076 -0.0176
 4241TIP3   OH212728   2.120   3.565   0.903  0.4838  0.1359  0.4101
 4241TIP3    H112729   2.081   3.500   0.845  1.1721  0.1297 -0.0606
 4241TIP3    H212730   2.084   3.545   0.989 -1.3150  0.7575 -0.1585
 4242TIP3   OH212731   3.650   2.758   4.153 -0.1713  0.2974  0.4408
 4242TIP3    H112732   3.734   2.713   4.145  0.0236  0.7483 -0.1434
 4242TIP3    H212733   3.588   2.700   4.109  0.3451  1.2772 -1.6938
 4243TIP3   OH212734   6.340   4.383   2.698 -0.0570  0.5334 -0.1798
 4243TIP3    H112735   6.252   4.346   2.709 -1.2148  2.9350 -0.6227
 4243TIP3    H212736   6.337   4.466   2.747  2.7828 -0.4036  1.8294
 4244TIP3   OH212737   0.097   2.233   3.569 -0.5716  0.1788 -0.3855
 4244TIP3    H112738   0.153   2.249   3.645  0.4938 -0.3653 -1.0450
 4244TIP3    H212739   0.029   2.174   3.602 -0.7628  0.8132  0.4036
 4245TIP3   OH212740   1.825   5.824   3.935 -0.2434 -0.2061  0.1139
 4245TIP3    H112741   1.806   5.880   3.860  1.8568  1.4336  0.6957
 4245TIP3    H212742   1.780   5.742   3.916 -0.2495  0.3465 -2.6626
 4246TIP3   OH212743   2.351   1.679   2.887 -0.3531  0.2030 -0.2268
 4246TIP3    H112744   2.307   1.693   2.971 -0.4154  0.4322 -0.2952
 4246TIP3    H212745   2.444   1.686   2.907 -0.2023 -2.3341  0.3077
 4247TIP3   OH212746   4.257   1.905   4.533 -0.0131  0.4782 -0.4569
 4247TIP3    H112747   4.288   1.845   4.600  0.8641  2.7745  1.3345
 4247TIP3    H212748   4.162   1.907   4.544  0.2343  2.3919  2.2948
 4248TIP3   OH212749   0.108   3.120   3.319  0.0655  0.1607 -0.3104
 4248TIP3    H112750   0.079   3.211   3.311  0.7127  0.5878  1.5042
 4248TIP3    H212751   0.160   3.104   3.241 -1.5526  0.7346 -1.5504
 4249TIP3   OH212752   1.965   2.823   0.032 -0.0097  0.2515  0.0422
 4249TIP3    H112753   1.955   2.850   0.123  1.7730 -0.1333  0.3911
 4249TIP3    H212754   1.987   2.903  -0.015  1.9005  0.0134  0.4774
 4250TIP3   OH212755   3.506   2.450   4.418  0.4507  0.0307 -0.2075
 4250TIP3    H112756   3.461   2.517   4.471 -0.1602  0.1748 -0.8935
 4250TIP3    H212757   3.575   2.498   4.372 -0.2116  0.2708 -0.9710
 4251TIP3   OH212758   2.729   4.064   1.421 -0.3661 -0.0187  0.1017
 4251TIP3    H112759   2.791   4.069   1.348 -1.2541  1.1514 -0.6042
 4251TIP3    H212760   2.645   4.090   1.384 -0.7256  1.2056  1.6661
 4252TIP3   OH212761   2.081   0.341   4.830  0.3419  0.4606 -0.2305
 4252TIP3    H112762   2.024   0.275   4.790  1.3796 -0.4093 -0.3334
 4252TIP3    H212763   2.167   0.325   4.791  0.9007  1.0116  0.7303
 4253TIP3   OH212764   6.314   4.661   3.363 -0.0996  0.1051 -0.0611
 4253TIP3    H112765   6.235   4.607   3.354  0.1284 -0.1124 -0.7869
 4253TIP3    H212766   6.321   4.708   3.280 -0.3102  1.3005  0.5637
 4254TIP3   OH212767   0.570   5.709   2.833  0.0838 -0.0440 -0.2709
 4254TIP3    H112768   0.573   5.740   2.923 -0.2573  0.5435 -0.4575
 4254TIP3    H212769   0.507   5.767   2.790  0.6538  0.0255 -1.0210
 4255TIP3   OH212770   2.079   6.018   0.941 -0.1601 -0.5868 -0.0577
 4255TIP3    H112771   2.132   5.943   0.915 -0.0807 -0.7390  0.5518
 4255TIP3    H212772   2.069   6.010   1.036  0.0685  0.3134  0.0498
 4256TIP3   OH212773   2.827   5.198   1.269  0.6273  0.1249  0.2730
 4256TIP3    H112774   2.814   5.111   1.231  1.0454  0.1279  0.1223
 4256TIP3    H212775   2.922   5.208   1.276  0.5885 -0.6594  3.1365
 4257TIP3   OH212776   4.023   1.166   4.656  0.1343  0.2861  0.4128
 4257TIP3    H112777   3.952   1.216   4.696  0.9046 -0.6306  3.2102
 4257TIP3    H212778   4.102   1.203   4.694  0.7796 -2.2084  1.6743
 4258TIP3   OH212779   5.170   5.061   1.980 -0.2267  0.3870 -0.1628
 4258TIP3    H112780   5.170   5.040   2.073 -1.3787 -0.3214 -0.3011
 4258TIP3    H212781   5.102   5.006   1.943  0.9693 -0.1693 -1.6378
 4259TIP3   OH212782   5.913   0.150   1.511  0.3623 -0.5654 -0.1181
 4259TIP3    H112783   6.005   0.126   1.501  0.2452 -0.2408 -3.1475
 4259TIP3    H212784   5.903   0.229   1.457 -1.7615 -0.8137 -0.1713
 4260TIP3   OH212785   2.161   3.809   3.295  0.3561  0.0557 -0.6286
 4260TIP3    H112786   2.093   3.833   3.232  1.0115  0.6304 -1.1303
 4260TIP3    H212787   2.123   3.737   3.345 -1.2106  1.3463  0.1182
 4261TIP3   OH212788   3.353   5.113   3.756  0.2059  0.2963 -0.0904
 4261TIP3    H112789   3.417   5.053   3.795 -1.0386 -0.7695  0.3992
 4261TIP3    H212790   3.348   5.186   3.817  0.3723  0.0137  0.2637
 4262TIP3   OH212791   4.207   2.764   1.380  0.2787  0.0075 -0.3312
 4262TIP3    H112792   4.118   2.759   1.344  0.3541 -0.5244 -0.4518
 4262TIP3    H212793   4.256   2.815   1.316 -0.6314  2.9449  1.1546
 4263TIP3   OH212794   3.980   4.189   2.448  0.0405 -0.3936  0.2679
 4263TIP3    H112795   4.059   4.139   2.470 -0.7908 -1.1368  1.7376
 4263TIP3    H212796   3.965   4.172   2.355  1.4677 -0.4197  0.0199
 4264TIP3   OH212797   5.269   4.281   3.661  0.3253 -0.5214 -0.2868
 4264TIP3    H112798   5.237   4.235   3.739 -0.5409 -1.4371 -1.1526
 4264TIP3    H212799   5.200   4.343   3.640  0.0937 -0.9792 -0.9003
 4265TIP3   OH212800   0.751   4.884   1.683 -0.1445 -0.1501 -0.5317
 4265TIP3    H112801   0.698   4.811   1.652 -2.0253 -0.2751  2.6038
 4265TIP3    H212802   0.712   4.961   1.642 -2.2603 -0.3467  0.9489
 4266TIP3   OH212803   5.896   0.334   3.379 -0.0136  0.1895 -0.4322
 4266TIP3    H112804   5.919   0.362   3.467 -0.6356 -1.4492  0.2861
 4266TIP3    H212805   5.895   0.239   3.383 -0.5759  0.0867 -2.0799
 4267TIP3   OH212806   2.883   3.475   0.300 -0.6094 -0.0245  0.6668
 4267TIP3    H112807   2.972   3.461   0.330 -0.0083  2.1978  0.0812
 4267TIP3    H212808   2.829   3.463   0.378  0.3621  0.1770  1.3874
 4268TIP3   OH212809   5.896   1.960   3.331 -0.3408  0.1041  0.2862
 4268TIP3    H112810   5.814   1.918   3.355 -1.1708  0.8522 -1.0963
 4268TIP3    H212811   5.951   1.953   3.409 -2.4345  1.3440  1.9600
 4269TIP3   OH212812   5.638   5.272   3.669  0.2271  0.2862  0.3914
 4269TIP3    H112813   5.734   5.266   3.669  0.2523 -0.5803 -1.8684
 4269TIP3    H212814   5.609   5.188   3.705  0.3370  0.3114  0.5383
 4270TIP3   OH212815   2.549   1.666   0.886  0.1034 -0.1708 -0.1540
 4270TIP3    H112816   2.454   1.652   0.895  0.0373 -0.1828 -0.8171
 4270TIP3    H212817   2.584   1.649   0.973 -0.5339  0.0449  0.1525
 4271TIP3   OH212818   1.231   4.134   3.282 -0.1620 -0.0746  0.4339
 4271TIP3    H112819   1.246   4.197   3.213 -0.4883 -3.4526 -3.0592
 4271TIP3    H212820   1.319   4.108   3.311  0.0501 -0.1505 -0.2624
 4272TIP3   OH212821   1.328   1.812   2.544  0.3187  0.0110  0.2194
 4272TIP3    H112822   1.283   1.818   2.628 -1.3466 -1.3384 -0.5224
 4272TIP3    H212823   1.390   1.741   2.555  0.0427 -0.2215  0.2896
 4273TIP3   OH212824   4.708   4.984   0.656 -0.1792 -0.5342 -0.4459
 4273TIP3    H112825   4.767   5.038   0.709 -0.8294  1.2961 -1.4941
 4273TIP3    H212826   4.763   4.911   0.627  2.0257  1.7075 -2.3673
 4274TIP3   OH212827   2.614   0.694   3.812  0.4552 -0.0753  0.1308
 4274TIP3    H112828   2.631   0.744   3.892 -0.8148 -1.1953  1.1453
 4274TIP3    H212829   2.695   0.648   3.795  1.5873  2.0749 -0.7013
 4275TIP3   OH212830   2.386   2.835   1.363 -0.0895  0.2588 -0.6313
 4275TIP3    H112831   2.353   2.788   1.440  0.1528 -1.9413 -1.7915
 4275TIP3    H212832   2.473   2.865   1.389 -0.4068  0.4240  0.2791
 4276TIP3   OH212833   0.870   2.445   3.797  0.4406  0.1381 -0.3809
 4276TIP3    H112834   0.879   2.485   3.711  0.4988  0.9157 -0.0309
 4276TIP3    H212835   0.942   2.483   3.849 -0.0795  0.3201  0.2265
 4277TIP3   OH212836   0.134   0.257   4.970 -0.5788  0.1655 -0.4220
 4277TIP3    H112837   0.101   0.316   4.902  0.6384  0.8183 -0.4781
 4277TIP3    H212838   0.228   0.250   4.952 -0.7231 -1.9909 -0.5512
 4278TIP3   OH212839   3.084   1.463   3.056  0.0121  0.0422  0.1790
 4278TIP3    H112840   3.097   1.502   2.970 -0.1936  0.5732  0.3875
 4278TIP3    H212841   3.069   1.370   3.038  0.6577  0.0244 -0.3095
 4279TIP3   OH212842   0.817   1.932   4.590 -0.2860 -0.3915  0.4702
 4279TIP3    H112843   0.833   2.024   4.609 -0.5978  0.0068 -1.0566
 4279TIP3    H212844   0.747   1.907   4.650  0.3038  0.1375  1.4100
 4280TIP3   OH212845   0.007   2.913   2.515  0.0474  0.0504  0.4588
 4280TIP3    H112846  -0.012   2.973   2.587  0.4652  0.5502  0.1679
 4280TIP3    H212847   0.102   2.906   2.514 -0.0053 -0.8044  0.6234
 4281TIP3   OH212848   5.376   4.436   1.758  0.1310 -0.1131  0.4945
 4281TIP3    H112849   5.421   4.357   1.728  0.1253  0.0860 -0.0299
 4281TIP3    H212850   5.289   4.431   1.720  0.1949  0.2450  0.2915
 4282TIP3   OH212851   5.727   0.374   1.025  0.1959 -0.0552 -0.2619
 4282TIP3    H112852   5.725   0.467   1.048  2.2802  0.7365 -2.7738
 4282TIP3    H212853   5.819   0.356   1.005  0.1227 -3.1064  1.5186
 4283TIP3   OH212854   5.869   1.736   0.506 -0.0632 -0.8734  0.2916
 4283TIP3    H112855   5.940   1.716   0.567  0.5965  3.7673  1.4255
 4283TIP3    H212856   5.912   1.775   0.431 -1.2473  1.9995  0.9738
 4284TIP3   OH212857   1.043   2.145   0.314 -0.3978  0.4897  0.3832
 4284TIP3    H112858   0.999   2.093   0.381 -1.4993 -1.1700 -1.5286
 4284TIP3    H212859   0.973   2.191   0.269  0.0310 -0.1789 -1.0447
 4285TIP3   OH212860   1.156   3.381   0.416  0.0455 -0.1517 -0.5688
 4285TIP3    H112861   1.099   3.332   0.358  0.9203 -0.6041 -1.0728
 4285TIP3    H212862   1.243   3.376   0.375  0.1919  1.7292 -0.5935
 4286TIP3   OH212863   3.454   3.833   4.175  0.1320 -0.2850  0.2215
 4286TIP3    H112864   3.361   3.833   4.153 -0.2326  3.7151  1.0775
 4286TIP3    H212865   3.492   3.903   4.122  2.0681 -0.0002  1.8538
 4287TIP3   OH212866   2.050   3.086   3.434  0.4775 -0.5511 -0.1434
 4287TIP3    H112867   2.052   3.000   3.477 -1.2374 -0.0441  1.0436
 4287TIP3    H212868   1.990   3.074   3.360  0.1572 -0.3682  0.0830
 4288TIP3   OH212869   2.720   5.227   3.358  0.3517  0.4813 -0.1900
 4288TIP3    H112870   2.814   5.220   3.374  0.1800  0.3407  0.8781
 4288TIP3    H212871   2.712   5.232   3.263  1.3604 -0.8340 -0.3756
 4289TIP3   OH212872   3.682   3.611   3.957  0.3865  0.8574 -0.1654
 4289TIP3    H112873   3.608   3.669   3.975  0.1273  1.7983 -3.6536
 4289TIP3    H212874   3.641   3.530   3.927  0.8072 -0.3998  2.3708
 4290TIP3   OH212875   3.426   2.332   3.026 -0.1422  0.0867 -0.0001
 4290TIP3    H112876   3.431   2.248   3.071  1.8290  0.6545  0.9662
 4290TIP3    H212877   3.513   2.370   3.037 -0.4012  1.4367 -2.0524
 4291TIP3   OH212878   0.407   2.395   0.882  0.0554  0.5437 -0.0569
 4291TIP3    H112879   0.368   2.343   0.812 -0.7219 -0.8794  1.3744
 4291TIP3    H212880   0.337   2.454   0.911 -0.1029  0.1012  0.4843
 4292TIP3   OH212881   4.371   3.800   3.000 -0.5205 -0.4547  0.5629
 4292TIP3    H112882   4.425   3.878   2.991 -0.5566 -0.5419 -0.5069
 4292TIP3    H212883   4.302   3.825   3.061  0.3712 -0.1544  1.4666
 4293TIP3   OH212884   2.808   5.299   1.693 -0.6372  0.1034  0.1362
 4293TIP3    H112885   2.717   5.269   1.701 -0.9204  1.2771  2.0082
 4293TIP3    H212886   2.833   5.323   1.782  0.9322  1.4712 -0.6243
 4294TIP3   OH212887   0.712   0.445   1.468  0.2795  0.0059 -0.4859
 4294TIP3    H112888   0.757   0.483   1.543  0.8693  0.5545 -1.1061
 4294TIP3    H212889   0.620   0.440   1.494  0.1227  2.1368 -0.4777
 4295TIP3   OH212890   5.337   0.758   1.392 -0.1393  0.6334  0.1272
 4295TIP3    H112891   5.280   0.714   1.455 -0.0560 -0.1119 -0.3077
 4295TIP3    H212892   5.347   0.846   1.427  1.3262 -0.2418  2.1031
 4296TIP3   OH212893   1.454   4.522   0.291  0.1727  0.2576 -0.0445
 4296TIP3    H112894   1.393   4.514   0.218 -0.6820 -0.3579  0.7018
 4296TIP3    H212895   1.498   4.606   0.278  0.8406 -0.3268 -1.8401
 4297TIP3   OH212896   4.475   1.857   3.473 -0.6173 -0.2274 -0.1403
 4297TIP3    H112897   4.483   1.798   3.399 -0.0502 -0.4464  0.0908
 4297TIP3    H212898   4.454   1.942   3.435 -0.3682 -0.3494 -0.5483
 4298TIP3   OH212899   6.391   0.677   2.164  0.2682  0.3661  0.4258
 4298TIP3    H112900   6.304   0.654   2.131  0.0313 -0.4337  1.5570
 4298TIP3    H212901   6.376   0.702   2.256  1.1977  0.4562  0.5637
 4299TIP3   OH212902   0.366   5.144   2.320 -0.3002  0.1874  0.2967
 4299TIP3    H112903   0.299   5.211   2.331  0.1091  0.5996  0.2830
 4299TIP3    H212904   0.426   5.180   2.255 -0.3064 -0.3731 -0.0308
 4300TIP3   OH212905   0.105   0.839   3.178  0.5599  0.1781 -0.1318
 4300TIP3    H112906   0.140   0.915   3.225  1.2342  0.7793 -1.5553
 4300TIP3    H212907   0.173   0.817   3.115 -0.5005 -0.3194 -1.1314
 4301TIP3   OH212908   0.847   4.644   4.659 -0.4259 -0.1301 -0.1207
 4301TIP3    H112909   0.873   4.735   4.660 -0.3022 -0.1600 -0.6956
 4301TIP3    H212910   0.793   4.634   4.581  0.2781 -0.7466 -0.5455
 4302TIP3   OH212911   0.067   0.142   3.411  0.2309 -0.5204  0.0747
 4302TIP3    H112912   0.151   0.142   3.365 -0.1793  0.8051 -0.7375
 4302TIP3    H212913   0.032   0.230   3.398 -1.0762 -0.8902  0.8096
 4303TIP3   OH212914   0.275   3.129   2.428  0.3323 -0.8563  0.4529
 4303TIP3    H112915   0.349   3.151   2.372  1.2067 -0.2887  1.7713
 4303TIP3    H212916   0.294   3.041   2.460  0.3863 -0.7535  0.7079
 4304TIP3   OH212917   5.962   4.629   2.851  0.0648  0.1099  0.0892
 4304TIP3    H112918   5.928   4.613   2.939 -1.3466 -0.9258 -0.6068
 4304TIP3    H212919   6.056   4.608   2.857  0.2406  1.1705  1.5941
 4305TIP3   OH212920   0.721   0.324   4.848 -0.1462  0.2987 -0.2872
 4305TIP3    H112921   0.679   0.251   4.804 -1.4724  2.4251 -2.8524
 4305TIP3    H212922   0.800   0.341   4.798  0.4848  0.2742  0.6665
 4306TIP3   OH212923   4.888   2.423   5.091 -0.4909 -0.2343 -0.4977
 4306TIP3    H112924   4.798   2.393   5.106  0.5523 -4.4180 -1.4117
 4306TIP3    H212925   4.914   2.463   5.174 -2.5558 -0.7460  0.4646
 4307TIP3   OH212926   2.135   5.672   2.321  0.6006  0.7275  0.1653
 4307TIP3    H112927   2.065   5.736   2.305  2.0369  2.2027 -0.4446
 4307TIP3    H212928   2.096   5.609   2.383 -1.7825  0.5780 -1.3371
 4308TIP3   OH212929   3.071   1.969   0.177  0.2222  0.0421  0.5896
 4308TIP3    H112930   3.042   1.963   0.268  1.4264 -1.7209  0.9179
 4308TIP3    H212931   3.164   1.989   0.183 -0.1172  2.1562 -0.3502
 4309TIP3   OH212932   1.006   3.795   3.437 -0.3343 -0.0157  0.8340
 4309TIP3    H112933   1.034   3.745   3.361 -0.0621 -0.1623  1.0261
 4309TIP3    H212934   0.912   3.806   3.426 -0.2745  0.0755  0.4135
 4310TIP3   OH212935   4.207   0.907   3.995  0.1232 -0.0506 -0.8590
 4310TIP3    H112936   4.128   0.858   4.019  0.6948 -0.5008  0.2116
 4310TIP3    H212937   4.240   0.863   3.917 -0.0624 -0.6070 -0.6334
 4311TIP3   OH212938   5.518   0.975   1.457  0.1579  0.0110  0.2416
 4311TIP3    H112939   5.498   1.005   1.368  2.1672 -1.0823 -0.6395
 4311TIP3    H212940   5.613   0.966   1.459  0.0128 -1.8071  1.9098
 4312TIP3   OH212941   5.435   1.985   1.216  0.4399 -0.1570  0.6522
 4312TIP3    H112942   5.406   1.910   1.164 -1.2015  0.1266  1.0944
 4312TIP3    H212943   5.528   1.970   1.231  0.8753 -0.4724 -1.9716
 4313TIP3   OH212944   1.156   4.903   5.011  0.0932  0.3401 -0.3401
 4313TIP3    H112945   1.132   4.884   4.921 -1.7332  1.0024 -0.0436
 4313TIP3    H212946   1.141   4.821   5.058  1.5759 -0.1675 -0.6892
 4314TIP3   OH212947   5.915   4.785   3.961 -0.1971 -0.3393  0.2698
 4314TIP3    H112948   5.933   4.779   4.055 -0.5101 -2.4485  0.2409
 4314TIP3    H212949   5.888   4.697   3.936 -1.4353  0.4965 -1.5504
 4315TIP3   OH212950   4.467   5.956   3.836  0.5699 -0.2781  0.1272
 4315TIP3    H112951   4.425   6.008   3.767  1.7271  0.0999 -0.3236
 4315TIP3    H212952   4.434   5.867   3.822  0.6140 -0.1650 -0.7744
 4316TIP3   OH212953   0.907   3.168   3.637  0.4673 -0.2639 -0.0593
 4316TIP3    H112954   0.878   3.088   3.593  1.3469 -0.1452 -0.9114
 4316TIP3    H212955   0.924   3.141   3.727  1.2275 -1.1677 -0.4553
 4317TIP3   OH212956   4.690   3.050   0.278  0.1299 -0.3845  0.2216
 4317TIP3    H112957   4.706   3.144   0.272  1.2468 -0.5922 -0.5394
 4317TIP3    H212958   4.687   3.032   0.372  1.9109  0.1287  0.4150
 4318TIP3   OH212959   5.822   0.242   2.297 -0.1803 -0.1845  0.0145
 4318TIP3    H112960   5.742   0.189   2.294  1.2040 -2.3218 -0.7139
 4318TIP3    H212961   5.818   0.296   2.218 -0.4676 -0.9587 -0.5098
 4319TIP3   OH212962   0.849   4.697   3.994 -0.0847  0.0050  0.3814
 4319TIP3    H112963   0.803   4.618   3.966  0.9086 -0.6984  0.6865
 4319TIP3    H212964   0.836   4.759   3.923  0.0007 -0.7854 -0.3333
 4320TIP3   OH212965   5.807   5.039   4.461  0.1590  0.6704  0.5262
 4320TIP3    H112966   5.882   5.013   4.514 -1.1049 -0.6342  1.7876
 4320TIP3    H212967   5.767   4.956   4.435 -2.3933  1.2561  2.2390
 4321TIP3   OH212968   1.245   4.747   3.275 -0.2673 -0.4148 -0.1053
 4321TIP3    H112969   1.151   4.764   3.281 -0.0839  0.4210  0.5030
 4321TIP3    H212970   1.272   4.789   3.193 -0.0685  1.1333  0.7163
 4322TIP3   OH212971   5.671   3.775   4.646 -0.0959  0.0011  0.2486
 4322TIP3    H112972   5.765   3.761   4.633  0.3503  2.4200  0.3969
 4322TIP3    H212973   5.641   3.818   4.566 -0.3399  2.0706  1.3620
 4323TIP3   OH212974   2.396   1.339   1.292  1.0505  0.3842  0.3680
 4323TIP3    H112975   2.395   1.325   1.197 -1.2444 -0.1870  0.3990
 4323TIP3    H212976   2.359   1.426   1.304  0.5947  0.1468  0.7424
 4324TIP3   OH212977   5.556   3.394   0.483  0.6835  0.0799  0.1507
 4324TIP3    H112978   5.623   3.334   0.448 -0.7533 -2.2071  1.0770
 4324TIP3    H212979   5.581   3.408   0.574  0.9049  0.7668 -0.0103
 4325TIP3   OH212980   0.193   3.707   1.035 -0.0247 -0.0325 -0.2796
 4325TIP3    H112981   0.163   3.785   0.989  1.6792  0.1669 -1.1224
 4325TIP3    H212982   0.115   3.675   1.082 -1.8544 -0.2595 -3.2448
 4326TIP3   OH212983   6.302   1.286   0.813 -0.1942  0.6471  0.4855
 4326TIP3    H112984   6.293   1.381   0.802 -0.5903  0.5191 -0.3148
 4326TIP3    H212985   6.334   1.254   0.729 -2.1432 -0.1931  0.0068
 4327TIP3   OH212986   4.945   3.742   1.645 -0.5252  0.3233  0.6168
 4327TIP3    H112987   4.925   3.809   1.579  1.7260 -0.1832 -0.6911
 4327TIP3    H212988   4.912   3.661   1.607 -1.7258  0.4152  1.4275
 4328TIP3   OH212989   5.330   4.542   2.039 -0.0489 -0.4704 -0.0713
 4328TIP3    H112990   5.378   4.603   2.094 -0.3784 -0.5558  0.3161
 4328TIP3    H212991   5.363   4.558   1.951 -0.0337  0.1677  0.0454
 4329TIP3   OH212992   1.316   0.195   2.423 -0.1206 -0.1466 -0.2340
 4329TIP3    H112993   1.247   0.257   2.398 -0.2407  0.1141  0.6948
 4329TIP3    H212994   1.269   0.113   2.441  0.2195 -1.1457 -3.3246
 4330TIP3   OH212995   1.248   2.384   2.223  0.2300 -0.1559 -0.7041
 4330TIP3    H112996   1.213   2.378   2.134 -0.8592 -1.1785 -0.2390
 4330TIP3    H212997   1.242   2.294   2.257  0.9814  0.1439  0.2768
 4331TIP3   OH212998   5.007   3.064   3.445  0.1725  0.7992 -0.0093
 4331TIP3    H112999   5.066   3.001   3.487  0.3299  0.7902 -0.2393
 4331TIP3    H213000   4.998   3.032   3.355 -0.3299  0.7029  0.0740
 4332TIP3   OH213001   1.292   3.981   5.061 -0.3443 -0.1735 -0.1167
 4332TIP3    H113002   1.288   3.985   4.965 -0.5361  0.1493 -0.0954
 4332TIP3    H213003   1.266   3.891   5.082 -1.0704 -0.0151 -0.3239
 4333TIP3   OH213004   3.381   1.092   4.879  0.6854  0.5707  0.1659
 4333TIP3    H113005   3.398   1.126   4.967  1.5498  2.9279 -0.8244
 4333TIP3    H213006   3.463   1.048   4.854  1.3522  1.9762 -0.2854
 4334TIP3   OH213007   5.769   5.693   3.010 -0.1013 -0.3639 -0.0417
 4334TIP3    H113008   5.740   5.603   2.996 -1.0133  0.1828 -1.9857
 4334TIP3    H213009   5.704   5.730   3.070  0.4171 -1.0272  0.9708
 4335TIP3   OH213010   4.847   0.294   3.951  0.1407  0.7000 -0.1730
 4335TIP3    H113011   4.780   0.264   3.889 -1.6037  2.2518  0.8476
 4335TIP3    H213012   4.799   0.309   4.032  1.9138  1.1274  0.8396
 4336TIP3   OH213013   4.176   0.072   3.797  0.1126  0.1581 -0.1567
 4336TIP3    H113014   4.243   0.007   3.774  0.9249  1.1581 -0.7273
 4336TIP3    H213015   4.224   0.140   3.845 -0.6833  0.4175  0.2773
 4337TIP3   OH213016   5.175   5.967   0.938  0.6060 -0.4634 -0.2085
 4337TIP3    H113017   5.207   6.050   0.974 -2.2175  0.3924  0.5784
 4337TIP3    H213018   5.237   5.901   0.969  1.8209  1.1059  0.8061
 4338TIP3   OH213019   5.730   5.799   4.214 -0.4547  0.3687  0.2044
 4338TIP3    H113020   5.655   5.752   4.178  0.1779  0.5928 -1.5446
 4338TIP3    H213021   5.748   5.868   4.150  1.9906 -0.4482 -0.1165
 4339TIP3   OH213022   0.734   4.462   0.846  0.5153  0.5749  0.0259
 4339TIP3    H113023   0.814   4.515   0.854 -0.4242  2.1372 -0.4532
 4339TIP3    H213024   0.689   4.498   0.770 -0.5717 -0.3983  0.1801
 4340TIP3   OH213025   4.135   1.979   0.401 -0.3807  0.3613 -0.2428
 4340TIP3    H113026   4.103   2.068   0.418  1.8044  1.2980 -0.6313
 4340TIP3    H213027   4.183   1.955   0.480  0.2047  0.1211 -0.6574
 4341TIP3   OH213028   5.568   1.105   4.696  0.4549  0.1330 -0.6491
 4341TIP3    H113029   5.514   1.139   4.767  1.2456 -1.5764  0.8572
 4341TIP3    H213030   5.507   1.089   4.624 -0.6754  0.2981  0.2502
 4342TIP3   OH213031   2.864   5.333   3.020  0.2263  0.0460 -0.2377
 4342TIP3    H113032   2.926   5.284   2.966  2.0934 -1.6464  3.1433
 4342TIP3    H213033   2.917   5.376   3.086 -2.0117  1.0240  1.0570
 4343TIP3   OH213034   3.502   0.205   4.773 -0.0695  0.3576  0.3762
 4343TIP3    H113035   3.444   0.152   4.827 -0.6572  0.9977  0.3778
 4343TIP3    H213036   3.586   0.158   4.776 -0.9706 -1.4822 -0.9565
 4344TIP3   OH213037   4.956   2.684   3.604 -0.2269 -0.2269  0.1090
 4344TIP3    H113038   4.870   2.722   3.622  0.8337  2.2986  0.2351
 4344TIP3    H213039   4.944   2.631   3.526 -1.9693 -0.2875  0.3854
 4345TIP3   OH213040   3.065   4.437   0.282 -0.1975 -0.2685  0.4445
 4345TIP3    H113041   3.112   4.363   0.322  1.0748  0.2307 -0.0575
 4345TIP3    H213042   3.131   4.479   0.226 -0.9231  1.1712  0.6327
 4346TIP3   OH213043   1.119   0.146   0.558  0.0870  0.5809  0.3687
 4346TIP3    H113044   1.058   0.206   0.601  1.7496  1.3476  1.7772
 4346TIP3    H213045   1.156   0.196   0.486  0.6321  0.8926  0.8519
 4347TIP3   OH213046   2.071   5.273   2.546  0.5846 -0.3608  0.1683
 4347TIP3    H113047   2.121   5.193   2.528 -0.0342 -0.4751 -1.0971
 4347TIP3    H213048   1.988   5.262   2.500  0.5386  1.0718 -0.1521
 4348TIP3   OH213049   5.911   2.639   4.792 -0.3696  0.4196 -0.4651
 4348TIP3    H113050   5.859   2.715   4.765 -1.2518  0.4274  1.1099
 4348TIP3    H213051   5.927   2.654   4.885  0.6991 -0.6256 -0.4646
 4349TIP3   OH213052   3.476   2.534   1.114  0.6717  0.4381 -0.8037
 4349TIP3    H113053   3.445   2.543   1.024 -1.4226  1.1674 -0.0684
 4349TIP3    H213054   3.569   2.514   1.105  0.3494 -0.3612 -3.1378
 4350TIP3   OH213055   2.205   2.346   4.841 -0.2704  0.4273  0.0610
 4350TIP3    H113056   2.176   2.437   4.832  2.7317  1.5396  0.4471
 4350TIP3    H213057   2.249   2.342   4.926  0.5968 -1.0714 -0.4066
 4351TIP3   OH213058   0.201   1.037   0.623 -0.0494  0.5810 -0.4875
 4351TIP3    H113059   0.173   0.946   0.624 -0.6446  0.7544 -0.6907
 4351TIP3    H213060   0.242   1.050   0.708 -0.3300  0.2336 -0.2943
 4352TIP3   OH213061   5.548   5.663   4.760 -0.5189  0.2950  0.2956
 4352TIP3    H113062   5.515   5.651   4.671 -0.1133  0.3852  0.1318
 4352TIP3    H213063   5.565   5.574   4.790 -1.0246  0.2373  0.4296
 4353TIP3   OH213064   4.316   1.871   2.872  0.0166  0.0363 -0.1277
 4353TIP3    H113065   4.317   1.954   2.825  1.7497  1.2186  1.8181
 4353TIP3    H213066   4.225   1.861   2.901 -0.6002  0.3282 -1.8049
 4354TIP3   OH213067   3.611   3.017   3.178 -0.3743  0.2314 -0.2873
 4354TIP3    H113068   3.573   2.950   3.235  0.1974 -0.2095 -0.4131
 4354TIP3    H213069   3.558   3.014   3.098 -0.0294 -0.4444 -0.5011
 4355TIP3   OH213070   4.108   2.207   0.536  0.3567 -0.5180 -0.1980
 4355TIP3    H113071   4.154   2.270   0.591  1.7777 -2.4610  0.9809
 4355TIP3    H213072   4.062   2.150   0.598 -0.3984 -1.0094 -1.1803
 4356TIP3   OH213073   3.938   3.681   1.569 -0.0981  0.2680 -0.3715
 4356TIP3    H113074   3.960   3.750   1.505 -0.4252  1.8817  1.1711
 4356TIP3    H213075   3.847   3.659   1.550 -0.5431  1.5286  0.1853
 4357TIP3   OH213076   5.287   3.214   3.373  0.2746 -0.1172 -0.8515
 4357TIP3    H113077   5.277   3.301   3.334 -0.5958  0.1195 -0.1570
 4357TIP3    H213078   5.210   3.166   3.343 -0.1266 -0.0991  0.1093
 4358TIP3   OH213079   5.986   3.342   2.732 -0.3011 -0.0286  0.1861
 4358TIP3    H113080   6.019   3.325   2.820 -0.4912 -1.6172 -0.0200
 4358TIP3    H213081   6.037   3.284   2.676 -2.0135 -1.0468 -0.3974
 4359TIP3   OH213082   1.114   5.100   4.708  0.0606 -0.3104 -0.2096
 4359TIP3    H113083   1.199   5.086   4.751  0.0265  3.0760  1.2164
 4359TIP3    H213084   1.136   5.142   4.625 -0.1425  2.6238  1.1003
 4360TIP3   OH213085   3.460   2.636   4.005  0.0088  0.3401 -0.3406
 4360TIP3    H113086   3.381   2.685   3.983  0.4050  1.5819  0.8247
 4360TIP3    H213087   3.428   2.553   4.039 -0.7159  0.0688 -1.6550
 4361TIP3   OH213088   1.409   2.747   1.092  0.2068  0.1429 -0.6209
 4361TIP3    H113089   1.375   2.773   1.178 -0.5209  1.2909 -1.2239
 4361TIP3    H213090   1.362   2.667   1.071  2.6858 -2.0246  1.4068
 4362TIP3   OH213091   4.922   3.427   3.331  0.1384  0.1227 -0.0387
 4362TIP3    H113092   4.842   3.375   3.330  0.9506 -1.2110  0.7200
 4362TIP3    H213093   4.972   3.395   3.256  0.2994  0.3904 -0.0445
 4363TIP3   OH213094   3.691   4.820   2.816 -0.4518 -0.8382  0.0985
 4363TIP3    H113095   3.616   4.772   2.781 -0.7028 -0.7794  0.5464
 4363TIP3    H213096   3.660   4.853   2.901  0.4198 -1.7017  0.7709
 4364TIP3   OH213097   5.435   1.780   0.784  0.0663 -0.5550  0.4569
 4364TIP3    H113098   5.466   1.782   0.694 -0.3656 -0.3521  0.3115
 4364TIP3    H213099   5.503   1.732   0.832  0.3414 -0.5799  0.0439
 4365TIP3   OH213100   1.461   1.786   4.044 -0.2381 -0.0168  0.2306
 4365TIP3    H113101   1.446   1.873   4.008 -0.2831  0.3149  1.0449
 4365TIP3    H213102   1.392   1.774   4.108 -2.2831 -1.9681 -2.1197
 4366TIP3   OH213103   2.435   3.332   4.770 -1.0586 -0.4016  0.1801
 4366TIP3    H113104   2.397   3.352   4.855 -1.2804  2.1227 -0.4413
 4366TIP3    H213105   2.522   3.371   4.772 -1.3660  0.3906 -1.0162
 4367TIP3   OH213106   4.520   5.673   2.858  0.1568  0.0644  0.0502
 4367TIP3    H113107   4.450   5.723   2.899 -0.2421 -1.7286  1.7270
 4367TIP3    H213108   4.597   5.729   2.864 -0.9858  1.8828 -1.4201
 4368TIP3   OH213109   3.562   1.334   4.805  0.9211 -0.1387 -0.1246
 4368TIP3    H113110   3.568   1.427   4.784 -0.2929  0.1952  0.9247
 4368TIP3    H213111   3.492   1.301   4.749 -1.2253  0.4161  2.1039
 4369TIP3   OH213112   3.593   2.031   0.832  0.1787 -0.1823 -0.1647
 4369TIP3    H113113   3.557   2.073   0.754  0.7375  0.1470 -0.2495
 4369TIP3    H213114   3.572   1.938   0.821 -0.3466 -0.0453 -0.3711
 4370TIP3   OH213115   2.687   5.782   0.241 -0.4068  0.6045  0.3375
 4370TIP3    H113116   2.697   5.689   0.258  1.7240  0.5095 -0.9903
 4370TIP3    H213117   2.637   5.786   0.160 -0.1265  0.5825  0.1611
 4371TIP3   OH213118   4.488   5.028   1.366  0.4564  0.1942 -0.7071
 4371TIP3    H113119   4.471   5.074   1.448  1.5263 -1.1050  0.3047
 4371TIP3    H213120   4.408   5.037   1.316 -1.0597 -0.8108  1.3933
 4372TIP3   OH213121   1.100   2.964   5.061 -0.1143  0.1428  0.3154
 4372TIP3    H113122   1.069   3.016   5.136 -0.6210 -0.1779  0.3354
 4372TIP3    H213123   1.117   3.029   4.993  0.9149  0.4997  0.8875
 4373TIP3   OH213124   4.634   3.446   2.831 -0.0834  0.5078 -0.3443
 4373TIP3    H113125   4.603   3.427   2.919  1.2608 -1.0182 -0.1529
 4373TIP3    H213126   4.677   3.531   2.838  1.2271 -0.2067  0.8318
 4374TIP3   OH213127   0.696   0.778   3.667  0.3646 -0.1855 -0.2147
 4374TIP3    H113128   0.615   0.820   3.638  0.3701  0.0038  0.0353
 4374TIP3    H213129   0.701   0.697   3.618 -0.0870 -0.3012 -0.0707
 4375TIP3   OH213130   1.631   5.645   2.067 -0.3295 -0.5893  0.4118
 4375TIP3    H113131   1.726   5.653   2.052 -0.4454 -1.1132 -0.7053
 4375TIP3    H213132   1.608   5.724   2.115  0.6254 -0.2861  0.3948
 4376TIP3   OH213133   0.344   4.557  -0.003  0.2344 -0.0983  0.0570
 4376TIP3    H113134   0.250   4.544  -0.013  0.3972 -1.2681 -0.1031
 4376TIP3    H213135   0.353   4.604   0.080 -0.4331 -1.0620  0.6924
 4377TIP3   OH213136   4.891   3.522   1.353 -0.1011 -0.1873  0.3987
 4377TIP3    H113137   4.867   3.561   1.269  0.4259  0.5730  0.5963
 4377TIP3    H213138   4.818   3.542   1.411 -0.3037 -0.4038  0.2224
 4378TIP3   OH213139   2.858   4.631   1.524 -0.1169  0.0514 -0.2444
 4378TIP3    H113140   2.772   4.669   1.508 -0.9419 -1.2148  1.0306
 4378TIP3    H213141   2.840   4.544   1.559  1.6543  0.3351  1.5140
 4379TIP3   OH213142   0.310   0.420   0.289  0.4277 -0.0216  0.1631
 4379TIP3    H113143   0.397   0.409   0.252  0.4350  1.7220 -0.4803
 4379TIP3    H213144   0.251   0.418   0.213  0.1470  0.8165  0.3370
 4380TIP3   OH213145   3.642   0.786   2.479 -0.0897  0.0184  0.2487
 4380TIP3    H113146   3.686   0.839   2.544 -0.0025  0.3219 -0.0540
 4380TIP3    H213147   3.669   0.823   2.395 -1.7786  0.9151  0.0645
 4381TIP3   OH213148   5.310   1.705   2.409  0.3711 -0.5595 -0.7281
 4381TIP3    H113149   5.244   1.774   2.413 -0.5980 -1.5014  0.8108
 4381TIP3    H213150   5.390   1.745   2.444  0.3074  0.2502 -1.4805
 4382TIP3   OH213151   2.846   4.139   0.658  0.2948  0.1781 -0.3765
 4382TIP3    H113152   2.873   4.130   0.750  1.0935 -2.0808 -0.7702
 4382TIP3    H213153   2.862   4.052   0.620 -1.1154  0.7346 -2.3745
 4383TIP3   OH213154   1.777   0.053   4.545  0.2804 -0.2503 -0.1341
 4383TIP3    H113155   1.727  -0.018   4.584 -2.1767  1.4452 -0.0193
 4383TIP3    H213156   1.769   0.039   4.451 -0.2406 -0.1192 -0.1123
 4384TIP3   OH213157   2.056   5.575   3.941  0.0836  0.0018 -0.2997
 4384TIP3    H113158   2.057   5.618   3.855  1.5899 -1.2460 -0.9597
 4384TIP3    H213159   1.972   5.529   3.942 -0.4083  0.8574 -0.6554
 4385TIP3   OH213160   4.503   5.124   3.008 -0.0509 -0.2981 -0.4255
 4385TIP3    H113161   4.535   5.211   2.984 -0.4312 -0.3270 -1.0700
 4385TIP3    H213162   4.446   5.138   3.083  2.0683 -0.3369  1.2767
 4386TIP3   OH213163   1.572   1.210   4.849  0.0812  0.2522  1.2263
 4386TIP3    H113164   1.640   1.208   4.916  0.6862 -1.0567  0.6076
 4386TIP3    H213165   1.600   1.278   4.788  1.1261 -0.6218  0.7059
 4387TIP3   OH213166   3.828   3.797   2.390 -0.3968  0.5978  0.5324
 4387TIP3    H113167   3.880   3.826   2.465  1.1696 -1.5304  0.3591
 4387TIP3    H213168   3.836   3.867   2.326  1.8737  0.5665  0.7195
 4388TIP3   OH213169   2.348   0.898   3.569 -0.2991 -0.1195  0.1912
 4388TIP3    H113170   2.266   0.941   3.596 -0.2426 -0.5014  0.9861
 4388TIP3    H213171   2.416   0.961   3.592 -0.0332 -1.3237  3.1503
 4389TIP3   OH213172   2.113   3.717   0.108 -0.1203  0.1930  0.0927
 4389TIP3    H113173   2.098   3.786   0.044  0.3520 -0.2208 -0.4813
 4389TIP3    H213174   2.143   3.642   0.056  0.3123 -0.1427  0.8000
 4390TIP3   OH213175   1.154   4.742   3.943  0.5537 -0.1534 -1.0398
 4390TIP3    H113176   1.059   4.751   3.951  0.5139 -0.4036 -1.2008
 4390TIP3    H213177   1.188   4.830   3.960  0.3192 -0.1451 -0.6023
 4391TIP3   OH213178   3.051   2.925   4.320 -0.2872 -0.1227  0.0357
 4391TIP3    H113179   3.103   2.851   4.288 -1.0206  0.1397 -1.8538
 4391TIP3    H213180   3.109   3.000   4.311 -0.2135 -0.1707  0.1057
 4392TIP3   OH213181   1.634   1.440   3.058  0.2007 -0.1920 -0.4050
 4392TIP3    H113182   1.613   1.350   3.033 -0.0994 -0.1437 -0.3310
 4392TIP3    H213183   1.677   1.431   3.143  0.1440 -0.2636 -0.3832
 4393TIP3   OH213184   5.817   3.409   3.669 -0.1365  0.0138  0.1045
 4393TIP3    H113185   5.843   3.323   3.701 -2.1095 -1.2127 -1.3631
 4393TIP3    H213186   5.728   3.421   3.704 -0.2099  1.0830 -0.4161
 4394TIP3   OH213187   5.877   4.075   4.757 -0.0134 -0.3594 -0.1077
 4394TIP3    H113188   5.951   4.035   4.712 -0.4974 -0.5785 -0.7178
 4394TIP3    H213189   5.902   4.074   4.849  1.7909  1.7307 -0.4788
 4395TIP3   OH213190   3.716   5.816   1.499  0.0026 -0.1037 -0.8665
 4395TIP3    H113191   3.723   5.909   1.520 -3.6940  0.0944  0.2016
 4395TIP3    H213192   3.684   5.815   1.409 -2.6085 -0.1006 -0.0248
 4396TIP3   OH213193   1.809   1.507   2.801 -0.4330 -0.2336  0.3016
 4396TIP3    H113194   1.737   1.515   2.863 -0.7313  0.0261 -0.0732
 4396TIP3    H213195   1.768   1.474   2.721  0.2108 -2.2575  0.7437
 4397TIP3   OH213196   3.853   2.005   0.660  0.5716  0.2998  0.1253
 4397TIP3    H113197   3.794   2.022   0.586 -0.2392 -0.1469  0.6568
 4397TIP3    H213198   3.859   1.910   0.665 -0.3443  0.2790  1.3565
 4398TIP3   OH213199   4.546   2.299   0.327  0.0243 -0.1148 -0.1072
 4398TIP3    H113200   4.521   2.330   0.414 -0.8871 -1.4997  0.1568
 4398TIP3    H213201   4.464   2.278   0.285  0.4220  1.0036 -1.5295
 4399TIP3   OH213202   6.206   2.697   1.551  0.3787  0.2879 -0.1667
 4399TIP3    H113203   6.201   2.769   1.615  0.6303  0.1975 -0.0445
 4399TIP3    H213204   6.291   2.709   1.509  0.6932 -0.3118  0.2925
 4400TIP3   OH213205   0.137   5.750   1.472 -0.4456  0.3125  0.0099
 4400TIP3    H113206   0.202   5.788   1.531 -1.1365 -0.4729  1.3129
 4400TIP3    H213207   0.161   5.783   1.385  0.1960  2.0531  0.8063
 4401TIP3   OH213208   4.361   4.838   2.763 -0.0468  0.2020 -0.2617
 4401TIP3    H113209   4.378   4.794   2.846 -1.5523  0.9404  0.4899
 4401TIP3    H213210   4.319   4.772   2.709  1.0595 -0.3213 -0.4949
 4402TIP3   OH213211   5.800   1.767   2.116  0.0325 -0.2785  0.0571
 4402TIP3    H113212   5.743   1.820   2.060 -1.0453 -1.8682 -0.4169
 4402TIP3    H213213   5.874   1.745   2.060  0.0210 -0.0603 -0.0459
 4403TIP3   OH213214   2.551   2.124   0.333  0.2466 -0.7726  0.7073
 4403TIP3    H113215   2.525   2.042   0.290 -0.2832  0.2090 -0.9793
 4403TIP3    H213216   2.533   2.191   0.267  0.3718  0.7420  2.1563
 4404TIP3   OH213217   3.973   5.019   0.880  0.1896 -0.1074 -0.6009
 4404TIP3    H113218   3.949   5.077   0.952  1.7122  1.5612 -1.3456
 4404TIP3    H213219   3.902   4.955   0.875  0.6025 -1.1465  3.1891
 4405TIP3   OH213220   3.318   0.270   0.114  0.2973 -0.3815 -0.1422
 4405TIP3    H113221   3.324   0.203   0.045  1.7656 -0.9095  0.4433
 4405TIP3    H213222   3.373   0.342   0.082  0.2150 -0.2322  0.0519
 4406TIP3   OH213223   2.316   3.443   2.619 -0.1096 -0.0074 -0.0972
 4406TIP3    H113224   2.253   3.429   2.548  0.3388  0.6559 -0.6381
 4406TIP3    H213225   2.396   3.401   2.588  0.6830  1.9615 -0.9010
 4407TIP3   OH213226   5.663   0.076   0.367  0.5962  0.2258 -0.7639
 4407TIP3    H113227   5.570   0.091   0.389  0.0975 -2.4392 -0.8076
 4407TIP3    H213228   5.660   0.020   0.289  2.2575 -0.2377 -0.5162
 4408TIP3   OH213229   4.692   1.727   0.020 -0.1524 -0.3425 -0.0131
 4408TIP3    H113230   4.766   1.704   0.077 -1.6871 -0.5872  1.9813
 4408TIP3    H213231   4.669   1.816   0.045 -0.9319 -0.4925 -0.1794
 4409TIP3   OH213232   3.238   2.286  -0.007  0.1675 -0.0537 -0.1176
 4409TIP3    H113233   3.205   2.329   0.072 -0.4915  0.0692 -0.4498
 4409TIP3    H213234   3.317   2.335  -0.029  2.0819 -1.9181  2.1079
 4410TIP3   OH213235   1.281   0.032   5.065 -0.0136 -0.7398  0.2109
 4410TIP3    H113236   1.292  -0.000   4.976  1.0034 -0.6091  0.2767
 4410TIP3    H213237   1.244   0.119   5.055  1.8285  0.0509 -0.1970
 4411TIP3   OH213238   1.195   4.874   2.056 -0.4960 -0.4481  0.0127
 4411TIP3    H113239   1.172   4.905   1.969 -0.9091  1.3202  0.7123
 4411TIP3    H213240   1.117   4.826   2.086 -0.8769  0.1187 -0.0616
 4412TIP3   OH213241   5.353   5.994   1.329  0.2117  0.7480  0.4858
 4412TIP3    H113242   5.338   6.051   1.405  0.3822 -0.2430  1.2985
 4412TIP3    H213243   5.273   5.941   1.323  0.0024  1.1445 -0.3311
 4413TIP3   OH213244   3.254   2.574   3.766  0.3035 -0.2020 -0.5157
 4413TIP3    H113245   3.232   2.660   3.802 -1.0155 -0.0643 -1.5640
 4413TIP3    H213246   3.216   2.511   3.827 -0.5972  0.0040 -0.8525
 4414TIP3   OH213247   3.966   2.089   3.402 -0.8109 -0.6474 -0.0757
 4414TIP3    H113248   3.979   2.070   3.309 -1.9815 -0.1562 -0.3569
 4414TIP3    H213249   3.955   2.184   3.406 -0.6582 -0.6527  0.5772
 4415TIP3   OH213250   4.536   1.325   1.041  0.2535 -0.0630  0.1366
 4415TIP3    H113251   4.596   1.340   1.114  1.8488 -1.0175 -0.9227
 4415TIP3    H213252   4.500   1.411   1.021  0.7776  0.4228  1.2103
 4416TIP3   OH213253   3.543   4.025   3.621 -0.2653  0.1325  0.3049
 4416TIP3    H113254   3.453   4.024   3.589 -0.9704  0.6071  2.1174
 4416TIP3    H213255   3.545   3.959   3.690  1.0565 -0.5605 -0.3685
 4417TIP3   OH213256   1.416   2.855   0.117 -0.4260  0.3278 -0.7943
 4417TIP3    H113257   1.403   2.785   0.181  1.2704 -0.8811 -1.7033
 4417TIP3    H213258   1.458   2.812   0.042  0.4198  2.2637 -1.4958
 4418TIP3   OH213259   1.686   0.998   3.235  0.3168 -0.0398 -0.2859
 4418TIP3    H113260   1.722   0.912   3.259  1.5876  0.3965 -0.5694
 4418TIP3    H213261   1.678   1.045   3.319 -0.1731 -0.3476 -0.1557
 4419TIP3   OH213262   5.438   5.667   0.403 -0.0084  0.3728  0.7368
 4419TIP3    H113263   5.345   5.672   0.380  0.6016 -0.2376 -2.1848
 4419TIP3    H213264   5.458   5.574   0.404  0.8708  0.5386 -0.1004
 4420TIP3   OH213265   3.051   0.678   3.410  0.4472  0.3378  0.1287
 4420TIP3    H113266   3.026   0.601   3.359  0.7493  0.7932 -0.7397
 4420TIP3    H213267   2.970   0.708   3.450 -0.4586  1.7273 -2.5478
 4421TIP3   OH213268   3.439   1.529   0.657 -0.6658 -0.6176  0.1610
 4421TIP3    H113269   3.422   1.532   0.751  0.4713 -3.7196  0.5935
 4421TIP3    H213270   3.517   1.583   0.645 -1.7131  1.0981  0.6578
 4422TIP3   OH213271   3.221   3.601   2.643 -0.2678  0.2826 -0.5263
 4422TIP3    H113272   3.263   3.570   2.723  3.8508  0.5421 -2.3323
 4422TIP3    H213273   3.208   3.695   2.658  1.7986  0.6200 -0.5582
 4423TIP3   OH213274   1.089   5.073   0.750  0.7082 -0.3343 -0.0665
 4423TIP3    H113275   1.136   5.079   0.833 -1.6818  1.0313  1.2693
 4423TIP3    H213276   1.149   5.113   0.687  2.2926 -0.7741  1.0892
 4424TIP3   OH213277   6.212   3.743   1.026  0.1714 -0.5703  0.3108
 4424TIP3    H113278   6.195   3.749   1.120 -3.8237 -2.1640 -0.0918
 4424TIP3    H213279   6.173   3.823   0.989  2.1785  0.3116 -0.0570
 4425TIP3   OH213280   0.489   0.058   1.884 -0.1514 -0.5622  0.1783
 4425TIP3    H113281   0.439   0.016   1.814  1.1623 -2.1075  0.1270
 4425TIP3    H213282   0.513   0.144   1.848 -0.2427 -0.9869 -0.9224
 4426TIP3   OH213283   3.047   1.168   3.075 -0.3354 -0.4289 -0.3794
 4426TIP3    H113284   2.957   1.192   3.051 -0.5926 -0.9832  0.0147
 4426TIP3    H213285   3.037   1.094   3.135  0.2718  0.9153  1.4743
 4427TIP3   OH213286   3.858   1.030   0.705  0.4383 -0.1041  0.3547
 4427TIP3    H113287   3.873   0.950   0.756 -0.2750  0.3949  1.3687
 4427TIP3    H213288   3.856   1.000   0.614  2.9743 -0.8507  0.4693
 4428TIP3   OH213289   2.398   1.395   4.456  0.0573  0.4651  0.3729
 4428TIP3    H113290   2.334   1.461   4.483  0.5607  1.1461 -0.0861
 4428TIP3    H213291   2.355   1.347   4.386  0.3047  1.3966 -0.4402
 4429TIP3   OH213292   4.081   0.780   1.649  0.1799  0.2721 -0.4683
 4429TIP3    H113293   4.148   0.844   1.674 -1.0114  0.6341  2.0870
 4429TIP3    H213294   4.045   0.814   1.567  1.6874  1.1850 -0.7878
 4430TIP3   OH213295   2.629   4.986   4.513 -0.5589  0.0459  0.6368
 4430TIP3    H113296   2.645   5.064   4.459  0.4855 -0.3128  0.4133
 4430TIP3    H213297   2.571   5.017   4.583 -0.5743  0.9020  0.2547
 4431TIP3   OH213298   1.013   5.071   2.521 -0.2988 -0.3301 -0.1242
 4431TIP3    H113299   0.952   5.042   2.453  0.6365 -1.8168 -0.3773
 4431TIP3    H213300   1.097   5.076   2.477  0.5331 -2.3228  1.0970
 4432TIP3   OH213301   6.228   1.216   2.226  0.2988 -0.0433  0.2653
 4432TIP3    H113302   6.146   1.263   2.209  0.6705 -0.0187 -1.7391
 4432TIP3    H213303   6.281   1.231   2.148  1.9577 -0.6353  1.2282
 4433TIP3   OH213304   4.041   5.335   2.268  0.3695  0.4647 -0.1167
 4433TIP3    H113305   3.987   5.370   2.339  1.2336  1.2987  0.1449
 4433TIP3    H213306   4.073   5.413   2.222  0.4600 -0.0504 -0.9419
 4434TIP3   OH213307   5.676   5.529   3.502 -0.4426 -0.0114  0.2009
 4434TIP3    H113308   5.611   5.466   3.532  0.3636 -1.2883 -0.6214
 4434TIP3    H213309   5.665   5.604   3.559 -3.0680  0.0974 -0.3153
 4435TIP3   OH213310   0.457   5.234   1.120 -0.0872 -0.0798  0.1962
 4435TIP3    H113311   0.552   5.242   1.128 -0.1658  1.7351 -0.2126
 4435TIP3    H213312   0.435   5.289   1.045 -1.4639 -0.4415  0.3192
 4436TIP3   OH213313   1.905   3.049   1.966 -0.6496 -0.1280 -0.1143
 4436TIP3    H113314   1.994   3.015   1.957 -0.4940  0.2642 -0.0807
 4436TIP3    H213315   1.890   3.099   1.886 -0.7118  0.0959  0.0353
 4437TIP3   OH213316   5.281   2.018   0.343  0.2859  0.1202 -0.5329
 4437TIP3    H113317   5.262   1.925   0.356  1.5811 -0.0821  0.1509
 4437TIP3    H213318   5.345   2.039   0.411  0.1023  1.4896 -0.7539
 4438TIP3   OH213319   3.340   5.417   1.571 -0.1475  0.0154  0.0421
 4438TIP3    H113320   3.407   5.482   1.548  0.3491 -0.4063  0.2791
 4438TIP3    H213321   3.359   5.395   1.662  1.5960 -2.6947 -0.8688
 4439TIP3   OH213322   0.120   5.724   5.121  0.5531 -0.2271  0.3809
 4439TIP3    H113323   0.101   5.660   5.190  1.6921  0.4652  1.3992
 4439TIP3    H213324   0.167   5.674   5.055 -0.2894 -0.8444  0.2333
 4440TIP3   OH213325   5.574   2.906   0.191 -0.0743  0.2878  0.3798
 4440TIP3    H113326   5.643   2.860   0.239 -0.3787 -0.3891  0.1715
 4440TIP3    H213327   5.609   2.995   0.178  0.9374 -0.1634 -0.0813
 4441TIP3   OH213328   4.821   2.727   3.042  0.2069  0.0393  0.2495
 4441TIP3    H113329   4.904   2.682   3.026  0.4874  0.6843 -0.1859
 4441TIP3    H213330   4.828   2.760   3.131  0.5904  0.4215  0.0858
 4442TIP3   OH213331   0.917   4.434   3.126  0.2012 -0.1777  0.0276
 4442TIP3    H113332   0.901   4.525   3.101 -0.8518 -0.3895 -0.1068
 4442TIP3    H213333   0.926   4.388   3.043  0.5899 -0.2298  0.0957
 4443TIP3   OH213334   4.709   3.673   2.652  0.3410  0.2193  0.0260
 4443TIP3    H113335   4.613   3.671   2.648  0.2543  0.9416  1.3022
 4443TIP3    H213336   4.737   3.646   2.564 -1.0101 -0.7663 -0.1293
 4444TIP3   OH213337   2.671   4.876   3.769 -0.0716 -0.2163  0.0322
 4444TIP3    H113338   2.690   4.820   3.844 -0.5313 -0.6710 -0.1780
 4444TIP3    H213339   2.747   4.934   3.762 -0.3299  0.2808  1.2405
 4445TIP3   OH213340   5.382   4.626   2.319  0.8974 -0.8538  0.2781
 4445TIP3    H113341   5.412   4.536   2.326  1.0900 -0.8072  0.0833
 4445TIP3    H213342   5.462   4.678   2.312  0.7791 -0.8159 -1.2206
 4446TIP3   OH213343   1.745   1.334   4.278 -0.1352 -0.2174  0.1798
 4446TIP3    H113344   1.841   1.343   4.275 -0.1390  0.1463  0.8488
 4446TIP3    H213345   1.712   1.410   4.231 -0.0950 -0.3415 -0.0491
 4447TIP3   OH213346   1.890   3.663   0.264  0.1814 -0.3293 -0.4042
 4447TIP3    H113347   1.980   3.674   0.232 -0.2601 -0.3281 -1.6989
 4447TIP3    H213348   1.836   3.701   0.195 -0.7900  0.3050  0.6787
 4448TIP3   OH213349   5.464   0.025   1.581 -0.2476 -0.4214  0.1014
 4448TIP3    H113350   5.451   0.065   1.495 -0.3531  2.5257  1.3957
 4448TIP3    H213351   5.398  -0.044   1.586 -1.1585  0.2689 -1.6399
 4449TIP3   OH213352   5.887   4.181   0.334  0.3156 -0.1349 -0.1215
 4449TIP3    H113353   5.872   4.087   0.344 -1.0908  0.0227 -0.4375
 4449TIP3    H213354   5.943   4.189   0.257  0.5828 -0.7127  0.0110
 4450TIP3   OH213355   0.993   3.375   3.453  0.2797 -0.0822 -0.3870
 4450TIP3    H113356   0.969   3.303   3.511  0.5892 -0.4705 -0.7296
 4450TIP3    H213357   1.085   3.358   3.431  0.0146 -0.2483 -1.4184
 4451TIP3   OH213358   3.096   4.264   1.594  0.8318  0.3391 -0.0507
 4451TIP3    H113359   3.004   4.292   1.589  0.5653 -0.0927  1.6418
 4451TIP3    H213360   3.112   4.254   1.688  3.0595  1.8228 -0.2001
 4452TIP3   OH213361   0.538   3.777   5.062 -0.0429 -0.0830  0.1242
 4452TIP3    H113362   0.602   3.718   5.021 -0.3664 -0.4067  0.0758
 4452TIP3    H213363   0.501   3.826   4.989  0.1319  0.0855  0.1492
 4453TIP3   OH213364   4.764   2.770   3.340  0.4615  0.2660 -0.1930
 4453TIP3    H113365   4.733   2.861   3.330 -2.2497 -0.6743 -1.3119
 4453TIP3    H213366   4.687   2.722   3.370  1.3335 -1.9827 -1.3323
 4454TIP3   OH213367   4.434   1.616   2.952 -0.0849 -0.1770  0.6989
 4454TIP3    H113368   4.435   1.529   2.991  0.0890 -0.2802  0.4656
 4454TIP3    H213369   4.510   1.660   2.991 -1.9091  0.9525  3.2382
 4455TIP3   OH213370   3.199   0.591   1.635  0.5104 -0.3748  0.3400
 4455TIP3    H113371   3.273   0.578   1.693  1.3338 -0.0481 -0.6057
 4455TIP3    H213372   3.238   0.599   1.548 -0.6491 -0.3713 -0.1947
 4456TIP3   OH213373   5.829   0.816   3.107 -0.7815 -0.0902 -0.1911
 4456TIP3    H113374   5.833   0.781   3.018 -1.4883 -1.3759  0.2461
 4456TIP3    H213375   5.828   0.738   3.163 -0.7481  0.6842  0.9219
 4457TIP3   OH213376   0.945   2.558   3.126  0.0047  0.1600 -0.0207
 4457TIP3    H113377   0.980   2.470   3.114  0.2551  0.2222  0.2454
 4457TIP3    H213378   0.862   2.558   3.078 -0.2740 -0.3903  0.4625
 4458TIP3   OH213379   3.948   5.255   3.018  0.6545  0.4674 -0.7489
 4458TIP3    H113380   4.017   5.319   3.040 -0.4731  0.4535  4.0499
 4458TIP3    H213381   3.987   5.170   3.039 -0.3898  0.3964  1.1598
 4459TIP3   OH213382   0.165   5.076   3.063 -0.2058  0.3129 -0.2422
 4459TIP3    H113383   0.260   5.063   3.067 -0.1425 -0.1698 -2.1846
 4459TIP3    H213384   0.139   5.092   3.154  1.7509  0.6473  0.3077
 4460TIP3   OH213385   1.411   1.820   3.066  0.0217  0.3248 -0.5719
 4460TIP3    H113386   1.488   1.784   3.110  0.0243 -1.3646 -1.8702
 4460TIP3    H213387   1.368   1.873   3.133  1.3849 -0.1147  0.6943
 4461TIP3   OH213388   0.938   1.504   4.995  0.2885  0.7673  0.0077
 4461TIP3    H113389   0.983   1.421   5.007 -1.6664 -0.5448 -1.0530
 4461TIP3    H213390   0.864   1.500   5.055  0.0770  1.6552 -0.1793
 4462TIP3   OH213391   0.829   2.520   4.375  0.0775  0.0157  0.6415
 4462TIP3    H113392   0.814   2.613   4.387  2.1033  0.4553  0.1221
 4462TIP3    H213393   0.808   2.503   4.284 -0.1137  0.0135  0.6873
 4463TIP3   OH213394   5.849   2.482   1.541  0.1817  0.0796 -0.4102
 4463TIP3    H113395   5.855   2.554   1.604 -0.4927 -0.5894  0.4550
 4463TIP3    H213396   5.939   2.450   1.533  0.0297 -1.2353  1.9733
 4464TIP3   OH213397   3.179   3.780   4.170 -0.2715  0.2581 -0.1599
 4464TIP3    H113398   3.112   3.847   4.155 -0.3774  0.1920  0.0136
 4464TIP3    H213399   3.183   3.731   4.088  1.0214  1.5383 -0.9085
 4465TIP3   OH213400   2.432   4.552   4.220 -0.0539 -0.2031  0.0428
 4465TIP3    H113401   2.365   4.495   4.257  0.0125  0.3305  1.0363
 4465TIP3    H213402   2.489   4.493   4.170  0.0001 -1.0141  1.0210
 4466TIP3   OH213403   3.296   5.546   4.994  0.3403  0.0317  0.1435
 4466TIP3    H113404   3.380   5.592   4.987  0.0480  0.4345 -0.9605
 4466TIP3    H213405   3.235   5.599   4.942 -0.5774 -0.3067  0.8518
 4467TIP3   OH213406   0.383   2.395   4.298  0.5746 -0.0184 -0.0250
 4467TIP3    H113407   0.368   2.481   4.338 -0.9063 -1.1695  2.0973
 4467TIP3    H213408   0.335   2.398   4.215 -0.3873  0.8397  0.5440
 4468TIP3   OH213409   3.616   0.896   4.887 -0.2732 -0.4549  0.6531
 4468TIP3    H113410   3.647   0.962   4.824 -2.1447 -0.6110 -0.5005
 4468TIP3    H213411   3.668   0.818   4.867  1.4049  0.3910  1.5013
 4469TIP3   OH213412   4.423   3.188   4.372 -0.8334  0.3647 -0.6276
 4469TIP3    H113413   4.460   3.207   4.458 -0.6111 -0.4216 -0.5402
 4469TIP3    H213414   4.359   3.257   4.357 -1.8944 -0.2803  0.7979
 4470TIP3   OH213415   3.916   3.916   3.993 -0.3163 -0.3889  0.6695
 4470TIP3    H113416   3.891   3.982   4.058  1.3569  0.6103  0.3685
 4470TIP3    H213417   4.010   3.905   4.006  0.3155  0.7016 -2.2841
 4471TIP3   OH213418   4.801   2.149   3.602  0.0242 -0.0618 -0.1893
 4471TIP3    H113419   4.761   2.102   3.675 -0.1194  0.5174  0.1136
 4471TIP3    H213420   4.775   2.099   3.524  1.7136 -1.7605  0.2707
 4472TIP3   OH213421   1.584   0.807   3.063  0.4016  0.4943  0.3624
 4472TIP3    H113422   1.557   0.883   3.114 -1.5393 -0.1064  0.2909
 4472TIP3    H213423   1.545   0.732   3.109  1.0519 -0.3261 -0.3882
 4473TIP3   OH213424   4.571   4.045   1.361 -0.3825 -0.8394  0.3406
 4473TIP3    H113425   4.536   4.134   1.371 -1.0621 -1.0576 -0.0274
 4473TIP3    H213426   4.494   3.991   1.346  0.0872 -1.3992 -0.0719
 4474TIP3   OH213427   1.808   3.874   4.552 -0.0169  0.3775 -0.5832
 4474TIP3    H113428   1.888   3.876   4.604 -0.6652  1.0483  0.4389
 4474TIP3    H213429   1.761   3.954   4.577 -1.0801 -0.0832 -1.0342
 4475TIP3   OH213430   4.705   0.195   2.749  0.0552 -0.1297  0.3372
 4475TIP3    H113431   4.645   0.161   2.815 -0.4181  0.6121  0.2977
 4475TIP3    H213432   4.649   0.241   2.687  0.6629  0.5731  0.2997
 4476TIP3   OH213433   1.313   5.109   3.100 -0.4408  0.1531  0.6474
 4476TIP3    H113434   1.324   5.139   3.190  0.8042  1.0771  0.2149
 4476TIP3    H213435   1.376   5.038   3.091  0.7431  1.2392  0.0165
 4477TIP3   OH213436   2.810   4.213   1.196  0.2004 -0.7536  0.4869
 4477TIP3    H113437   2.747   4.277   1.229  0.9591  1.0621 -1.3621
 4477TIP3    H213438   2.892   4.236   1.239  0.3118 -0.9893  0.4032
 4478TIP3   OH213439   4.248   0.944   0.730  0.3318  0.0800 -0.0373
 4478TIP3    H113440   4.341   0.923   0.737  0.6312  1.3250  0.0415
 4478TIP3    H213441   4.234   1.010   0.799 -0.4469  0.4038 -0.4976
 4479TIP3   OH213442   4.050   2.256   1.829  0.3699 -0.3536 -0.0597
 4479TIP3    H113443   4.049   2.283   1.921 -0.2812 -1.1644  0.1892
 4479TIP3    H213444   4.142   2.237   1.811  0.3595 -1.3171  0.7875
 4480TIP3   OH213445   0.569   2.783   1.109 -0.0930  0.3313  0.0931
 4480TIP3    H113446   0.632   2.762   1.040 -1.1479  0.8679 -1.0782
 4480TIP3    H213447   0.550   2.876   1.096 -0.5862  0.3459  0.8865
 4481TIP3   OH213448   4.279   1.953   5.057  0.0393  0.2130 -0.1680
 4481TIP3    H113449   4.211   1.901   5.099  1.6314 -0.6406  1.5695
 4481TIP3    H213450   4.361   1.908   5.081  1.3759  2.5577 -0.0125
 4482TIP3   OH213451   4.576   4.164   4.680 -0.7708  1.0326 -0.1583
 4482TIP3    H113452   4.551   4.072   4.672  0.4214  0.7816 -1.2899
 4482TIP3    H213453   4.505   4.204   4.730 -1.7706 -0.3098 -0.4541
 4483TIP3   OH213454   5.750   0.695   2.879  0.5832  0.2908 -0.0145
 4483TIP3    H113455   5.675   0.725   2.827 -0.8612  0.1164  1.8360
 4483TIP3    H213456   5.784   0.619   2.832 -0.6535  0.1546 -0.7236
 4484TIP3   OH213457   0.882   4.492   1.491 -0.1331 -0.7063 -0.0622
 4484TIP3    H113458   0.960   4.492   1.547  0.2860 -0.3338 -0.6316
 4484TIP3    H213459   0.916   4.507   1.403 -0.9487  0.8393 -0.1560
 4485TIP3   OH213460   0.245   0.083   3.166  0.1701  0.1011  0.4501
 4485TIP3    H113461   0.281   0.040   3.244 -1.4104  0.5547  1.4732
 4485TIP3    H213462   0.188   0.017   3.126 -0.3688  0.4338  0.6608
 4486TIP3   OH213463   3.491   5.464   4.723 -0.0803  0.2095 -0.5701
 4486TIP3    H113464   3.500   5.546   4.772  1.0916  0.6151 -1.4120
 4486TIP3    H213465   3.442   5.406   4.782 -0.7903  1.4497  0.1013
 4487TIP3   OH213466   5.370   1.911   1.672  0.3454  0.1971 -0.2013
 4487TIP3    H113467   5.343   1.942   1.586 -1.8051 -0.7477  0.0549
 4487TIP3    H213468   5.377   1.990   1.725 -0.0632  0.6465 -0.8045
 4488TIP3   OH213469   4.792   3.168   3.614  0.4964  0.2124  0.4315
 4488TIP3    H113470   4.742   3.087   3.623 -0.8861  0.9820  0.1519
 4488TIP3    H213471   4.871   3.143   3.567 -1.1335 -0.5671 -2.1161
 4489TIP3   OH213472   2.219   3.887   1.826 -0.0742  0.0617 -0.2929
 4489TIP3    H113473   2.235   3.856   1.916 -1.8031 -0.1389 -0.0194
 4489TIP3    H213474   2.274   3.965   1.818  4.7976 -3.0149 -1.1360
 4490TIP3   OH213475   6.085   5.625   3.674  0.1424  0.3493  0.3133
 4490TIP3    H113476   6.014   5.569   3.643 -1.2783  2.0720  0.3457
 4490TIP3    H213477   6.118   5.580   3.752 -1.3273 -0.1734  0.6655
 4491TIP3   OH213478   5.593   0.819   1.924  0.5607  0.1772  0.1868
 4491TIP3    H113479   5.625   0.809   1.834  1.5479  1.5961  0.3359
 4491TIP3    H213480   5.501   0.844   1.915  0.2175 -1.2220 -0.3574
 4492TIP3   OH213481   3.854   4.779   0.687  0.7386  0.4647 -0.0114
 4492TIP3    H113482   3.760   4.781   0.668  0.6839  1.7887  0.2760
 4492TIP3    H213483   3.863   4.712   0.754 -0.1485  0.9153  0.5851
 4493TIP3   OH213484   3.217   4.114   0.064  0.1157  0.7092 -0.0803
 4493TIP3    H113485   3.147   4.051   0.048 -0.6075  1.8181 -1.5463
 4493TIP3    H213486   3.298   4.064   0.051 -0.4314 -0.0171 -0.8227
 4494TIP3   OH213487   3.348   1.591   2.250  0.5214 -0.4148  0.5731
 4494TIP3    H113488   3.252   1.593   2.247  0.5530  0.4245  0.0827
 4494TIP3    H213489   3.370   1.503   2.219 -0.0064  0.2640 -1.9420
 4495TIP3   OH213490   2.508   3.637   4.320 -0.2068 -0.3776 -0.3267
 4495TIP3    H113491   2.496   3.691   4.241  0.6335  0.0675 -0.1581
 4495TIP3    H213492   2.422   3.637   4.362 -0.1434  1.1184 -0.1522
 4496TIP3   OH213493   3.394   5.243   1.343 -0.1454  1.3432  0.0077
 4496TIP3    H113494   3.390   5.304   1.416  2.4829  0.7221  0.7479
 4496TIP3    H213495   3.449   5.286   1.277 -0.3888  0.8390 -0.5445
 4497TIP3   OH213496   5.512   3.008   5.156 -0.1737  0.0387 -0.6019
 4497TIP3    H113497   5.499   2.971   5.243 -0.6925  0.0633 -0.6662
 4497TIP3    H213498   5.606   3.001   5.141  0.1285  1.2522  0.5111
 4498TIP3   OH213499   2.854   2.959   2.210  0.1709 -0.3090 -0.4053
 4498TIP3    H113500   2.890   2.874   2.185  1.4674 -0.1839  0.8520
 4498TIP3    H213501   2.873   2.966   2.304 -1.2971  0.7142 -0.1466
 4499TIP3   OH213502   6.307   4.955   4.514  0.3792  0.1410 -0.3451
 4499TIP3    H113503   6.362   4.877   4.516 -0.0461 -0.2449 -2.0146
 4499TIP3    H213504   6.355   5.020   4.565  1.7291 -0.5904 -0.6498
 4500TIP3   OH213505   1.658   1.429   1.131  0.1083 -0.0007 -0.1948
 4500TIP3    H113506   1.704   1.513   1.137 -0.8069  0.4674  0.5516
 4500TIP3    H213507   1.634   1.408   1.221  0.3276 -1.0744 -0.3727
 4501TIP3   OH213508   1.728   0.381   4.528  0.5477  0.5647  0.4655
 4501TIP3    H113509   1.641   0.399   4.491 -0.0624 -0.6373  1.2529
 4501TIP3    H213510   1.776   0.463   4.517 -0.8014  1.3629  0.3277
 4502TIP3   OH213511   3.110   5.572   1.533  0.0033  0.2266 -0.0104
 4502TIP3    H113512   3.165   5.495   1.517 -2.1822 -1.6114  0.7907
 4502TIP3    H213513   3.021   5.543   1.510 -0.7636  2.8444 -0.6144
 4503TIP3   OH213514   0.580   5.173   4.162 -0.2223 -0.2712  0.5458
 4503TIP3    H113515   0.662   5.146   4.120 -0.2885 -0.1445  0.3352
 4503TIP3    H213516   0.585   5.135   4.250  0.0410 -0.3058  0.5177
 4504TIP3   OH213517   4.824   2.069   1.793  0.4417  0.2343 -0.7321
 4504TIP3    H113518   4.919   2.057   1.781  0.2561 -1.5925 -0.6514
 4504TIP3    H213519   4.784   2.020   1.721 -0.4505  0.2147 -0.2394
 4505TIP3   OH213520   3.111   1.800   2.967  0.4089  0.7521 -0.4820
 4505TIP3    H113521   3.056   1.793   2.889 -0.1101 -0.4022 -0.0402
 4505TIP3    H213522   3.179   1.734   2.954  1.2980  1.6872 -0.6958
 4506TIP3   OH213523   0.790   3.573   2.711 -0.2379  0.3586  0.3836
 4506TIP3    H113524   0.857   3.545   2.773 -0.8816  2.5747  2.2337
 4506TIP3    H213525   0.800   3.668   2.707  0.5995  0.2995 -3.9748
 4507TIP3   OH213526   0.914   0.327   1.323 -0.0605 -0.1533  0.1354
 4507TIP3    H113527   0.977   0.295   1.388  0.4381 -0.0665 -0.3025
 4507TIP3    H213528   0.852   0.380   1.374 -0.4775 -1.2028  0.7569
 4508TIP3   OH213529   0.944   4.393   4.370  0.4489  0.8471 -0.4520
 4508TIP3    H113530   1.010   4.339   4.327  0.1896 -0.0738  0.2689
 4508TIP3    H213531   0.918   4.457   4.304  0.5400 -0.1170 -1.4426
 4509TIP3   OH213532   5.480   5.732   1.591 -0.2122  0.2770 -0.2988
 4509TIP3    H113533   5.573   5.752   1.579  0.1394  0.0007  1.5947
 4509TIP3    H213534   5.449   5.798   1.654 -1.9539  1.8620 -2.6444
 4510TIP3   OH213535   3.099   5.108   1.734 -0.4319 -0.1612  0.5797
 4510TIP3    H113536   3.024   5.049   1.743 -0.0138 -0.5904  1.2537
 4510TIP3    H213537   3.095   5.137   1.643 -2.2739  0.9637  0.9611
 4511TIP3   OH213538   3.341   0.607   3.209 -0.2179  0.0451 -0.1000
 4511TIP3    H113539   3.419   0.566   3.245 -0.1296 -0.8916 -1.3174
 4511TIP3    H213540   3.285   0.534   3.183 -0.8438  0.7002 -0.6404
 4512TIP3   OH213541   6.321   1.580   4.145  0.4189 -0.2792 -0.1036
 4512TIP3    H113542   6.235   1.616   4.121 -0.3875 -1.6801  0.5924
 4512TIP3    H213543   6.371   1.582   4.063 -1.0688 -1.5733 -1.1092
 4513TIP3   OH213544   1.791   5.189   1.483 -0.0782  0.6603 -0.1643
 4513TIP3    H113545   1.854   5.242   1.434  1.5278 -1.8423 -0.9858
 4513TIP3    H213546   1.825   5.189   1.573 -0.1111  1.0363 -0.1492
 4514TIP3   OH213547   1.132   4.129   1.443  0.7383 -0.0407 -0.2784
 4514TIP3    H113548   1.044   4.092   1.434  1.5870 -2.1831 -0.3284
 4514TIP3    H213549   1.128   4.180   1.524  0.4324 -3.4882  2.1350
 4515TIP3   OH213550   1.626   1.878   2.134 -0.1309 -0.6509 -0.2701
 4515TIP3    H113551   1.684   1.820   2.084  0.3928 -0.1748 -0.2282
 4515TIP3    H213552   1.618   1.835   2.219 -0.4580 -1.1073 -0.5280
 4516TIP3   OH213553   1.669   3.404   2.221  0.2521 -0.2196  0.4143
 4516TIP3    H113554   1.620   3.404   2.304  0.3750  0.7267  0.5010
 4516TIP3    H213555   1.606   3.435   2.156  0.7583  1.2057  0.5636
 4517TIP3   OH213556   5.507   4.690   4.816  0.3759  0.1494 -0.3569
 4517TIP3    H113557   5.602   4.678   4.807  0.2427  0.6228 -3.4195
 4517TIP3    H213558   5.481   4.736   4.736 -2.3865  0.5248  0.6519
 4518TIP3   OH213559   2.366   2.423   1.457 -0.6400 -0.2105 -0.4731
 4518TIP3    H113560   2.318   2.344   1.483 -0.2743  0.0196  0.9720
 4518TIP3    H213561   2.335   2.491   1.516  1.4444 -0.0519  0.5064
 4519TIP3   OH213562   5.565   5.271   1.722 -0.4359 -0.7010  0.6848
 4519TIP3    H113563   5.649   5.311   1.747 -0.0165  0.5859 -2.3964
 4519TIP3    H213564   5.561   5.191   1.774  2.7775 -0.9012  0.8564
 4520TIP3   OH213565   2.800   5.698   5.117  0.0200 -0.1861  0.3321
 4520TIP3    H113566   2.724   5.659   5.159  1.2101 -0.3900  2.4196
 4520TIP3    H213567   2.767   5.781   5.082 -0.4505  1.7473  4.7078
 4521TIP3   OH213568   2.331   4.186   3.382 -0.2309  0.3814  0.0624
 4521TIP3    H113569   2.350   4.241   3.305  0.5674 -1.1176 -0.8444
 4521TIP3    H213570   2.262   4.127   3.352 -0.0952 -0.0505  0.5967
 4522TIP3   OH213571   5.151   2.879   3.652  0.3289 -0.6318  0.3939
 4522TIP3    H113572   5.073   2.826   3.632 -0.3773  0.7258 -0.6343
 4522TIP3    H213573   5.119   2.945   3.715  0.3586  0.5519 -0.7915
 4523TIP3   OH213574   4.439   0.198   4.627  0.1964 -0.5645 -1.1339
 4523TIP3    H113575   4.481   0.152   4.700  0.3519 -1.5243 -1.8168
 4523TIP3    H213576   4.465   0.149   4.550  0.1435  0.5239 -1.8625
 4524TIP3   OH213577   6.001   4.590   4.952 -0.3286 -1.1372  0.4354
 4524TIP3    H113578   5.937   4.662   4.952  0.7413 -0.1473  0.8451
 4524TIP3    H213579   5.951   4.513   4.978 -1.3748 -0.4099  0.6411
 4525TIP3   OH213580   5.673   4.691   0.998 -0.1666 -0.3200  0.2795
 4525TIP3    H113581   5.658   4.695   1.093 -0.3080 -0.7972  0.2790
 4525TIP3    H213582   5.766   4.667   0.990 -0.2547 -0.6796  0.3034
 4526TIP3   OH213583   0.091   1.976   0.347 -0.0586 -0.7879 -0.2972
 4526TIP3    H113584   0.089   2.070   0.330 -1.6326 -0.2957  2.0043
 4526TIP3    H213585   0.056   1.935   0.268  1.3135  0.4776 -1.5942
 4527TIP3   OH213586   5.917   2.643   2.045 -0.2397 -0.2236 -0.3946
 4527TIP3    H113587   5.980   2.571   2.045 -1.5688 -1.4410 -0.8250
 4527TIP3    H213588   5.918   2.676   2.135  1.7865  0.5522 -0.6361
 4528TIP3   OH213589   3.139   4.027   2.118 -0.1466  0.2929  0.3917
 4528TIP3    H113590   3.115   3.936   2.132  0.7103  0.0239  0.1102
 4528TIP3    H213591   3.075   4.077   2.170 -0.2297 -0.4812  1.0347
 4529TIP3   OH213592   2.446   2.982   1.735  0.6114  0.2328 -0.1248
 4529TIP3    H113593   2.463   2.940   1.820 -0.3955 -0.3329 -0.1880
 4529TIP3    H213594   2.383   2.924   1.692  0.7590  0.7617 -1.0721
 4530TIP3   OH213595   3.222  -0.003   0.995 -0.2632  0.4328 -0.1751
 4530TIP3    H113596   3.160   0.069   0.986  0.4706  1.0028 -0.8291
 4530TIP3    H213597   3.258  -0.015   0.907  1.1940  0.7117  0.3496
 4531TIP3   OH213598   2.342   2.942   0.698 -0.8873  0.6269  0.1139
 4531TIP3    H113599   2.336   2.984   0.612 -1.2607  1.9101  0.7409
 4531TIP3    H213600   2.399   2.999   0.749  0.7657 -1.0330  0.2332
 4532TIP3   OH213601   5.251   3.944   2.213  0.0979 -0.1842  0.2648
 4532TIP3    H113602   5.262   3.894   2.132  0.0988  0.3343 -0.0621
 4532TIP3    H213603   5.248   4.036   2.184  0.4190  0.0282  0.8815
 4533TIP3   OH213604   3.459   5.843   1.909 -0.0016  0.4348 -0.7897
 4533TIP3    H113605   3.541   5.810   1.871  0.0652  1.3882 -1.5075
 4533TIP3    H213606   3.394   5.776   1.886  0.5937 -0.4460 -0.0153
 4534TIP3   OH213607   1.746   4.760   2.392 -0.7297 -0.2538 -0.1724
 4534TIP3    H113608   1.800   4.682   2.401  2.9760  1.8338 -2.0157
 4534TIP3    H213609   1.700   4.748   2.308  0.6852 -0.0840 -1.0101
 4535TIP3   OH213610   3.978   3.442   2.893 -0.1680 -0.6841 -0.4788
 4535TIP3    H113611   3.985   3.351   2.922 -0.5464  0.1801  2.5910
 4535TIP3    H213612   4.066   3.463   2.861 -0.0741 -2.0652 -1.2393
 4536TIP3   OH213613   2.291   0.494   4.229 -0.3355  0.3296  0.1043
 4536TIP3    H113614   2.378   0.509   4.266 -0.0886  0.2370 -0.4354
 4536TIP3    H213615   2.297   0.408   4.186 -0.4197  0.7254 -0.7230
 4537TIP3   OH213616   5.599   2.042   0.891 -0.2878  0.2317  0.9376
 4537TIP3    H113617   5.534   2.112   0.882  0.8390  1.1869 -0.3911
 4537TIP3    H213618   5.554   1.963   0.863 -1.0254  0.7692  0.5679
 4538TIP3   OH213619   1.167   2.137   4.770  0.1219 -0.0318 -0.2917
 4538TIP3    H113620   1.248   2.114   4.816  1.0469  3.2064 -0.0880
 4538TIP3    H213621   1.193   2.151   4.679 -0.7320 -1.2537 -0.7666
 4539TIP3   OH213622   1.765   2.197   1.197 -0.2523 -0.0619 -0.4312
 4539TIP3    H113623   1.702   2.199   1.269 -1.5095  0.3619 -1.5104
 4539TIP3    H213624   1.759   2.108   1.162  0.6102 -0.3741  0.1773
 4540TIP3   OH213625   6.309   5.854   2.421 -0.2297  0.6894 -0.7945
 4540TIP3    H113626   6.280   5.942   2.397  0.8722  1.8809  1.8759
 4540TIP3    H213627   6.236   5.816   2.470  0.0640  0.9567 -0.1384
 4541TIP3   OH213628   6.035   3.634   2.761 -0.0286  0.2303 -0.2838
 4541TIP3    H113629   6.080   3.640   2.845 -1.8588 -2.2955  1.0089
 4541TIP3    H213630   6.099   3.595   2.702  0.6669  0.1792  0.4793
 4542TIP3   OH213631   1.168   0.218   1.150 -0.1311 -0.3896 -0.4260
 4542TIP3    H113632   1.167   0.277   1.226  0.2470 -0.7697 -0.1229
 4542TIP3    H213633   1.150   0.131   1.187  0.8821 -0.7076 -0.6461
 4543TIP3   OH213634   0.985   2.450   3.551 -0.2841  0.0485 -0.2361
 4543TIP3    H113635   0.961   2.362   3.520 -2.0119  0.3761  0.1079
 4543TIP3    H213636   1.076   2.440   3.579  0.6605 -0.8126 -3.2420
 4544TIP3   OH213637   3.029   1.332   1.122 -0.2196  0.8281 -0.0348
 4544TIP3    H113638   3.103   1.272   1.110 -1.2732 -0.6660  0.5777
 4544TIP3    H213639   3.069   1.419   1.129  1.4333  0.1131 -0.1286
 4545TIP3   OH213640   5.035   5.229   2.441  0.0865 -0.0498  0.0672
 4545TIP3    H113641   5.025   5.145   2.396  0.7127  0.2264 -0.6081
 4545TIP3    H213642   4.983   5.291   2.390 -0.4348 -0.0286  0.6047
 4546TIP3   OH213643   2.188   0.453   3.793  0.8530  0.1865  0.2243
 4546TIP3    H113644   2.250   0.525   3.786 -1.4496  2.2351 -0.1955
 4546TIP3    H213645   2.138   0.456   3.711  0.9393 -2.1893 -0.0015
 4547TIP3   OH213646   0.307   2.887   4.429  0.2696  0.3565  0.4408
 4547TIP3    H113647   0.313   2.791   4.426 -0.9891  0.2251  1.3236
 4547TIP3    H213648   0.305   2.913   4.337 -0.7921 -0.5931  0.1690
 4548TIP3   OH213649   1.345   0.451   3.249  0.8879  0.2199 -0.2130
 4548TIP3    H113650   1.350   0.384   3.317  2.0159 -0.4652 -0.9435
 4548TIP3    H213651   1.254   0.448   3.219  0.6847 -0.2880  0.4348
 4549TIP3   OH213652   5.265   3.259   1.914  0.2209 -0.4872 -0.1173
 4549TIP3    H113653   5.339   3.218   1.960 -0.9160  0.2870  2.5713
 4549TIP3    H213654   5.202   3.279   1.983 -1.8432  0.3414 -2.1273
 4550TIP3   OH213655   0.188   3.984   0.951 -0.2895 -0.0012 -0.3906
 4550TIP3    H113656   0.139   4.054   0.908 -1.3188 -0.6247 -0.2738
 4550TIP3    H213657   0.278   3.996   0.922 -0.6609  0.6498 -1.3166
 4551TIP3   OH213658   3.091   1.144   0.251 -0.2557 -0.5891 -0.4843
 4551TIP3    H113659   3.021   1.205   0.275 -0.1332 -0.7798  0.3856
 4551TIP3    H213660   3.044   1.064   0.224 -0.4795 -2.0563  3.4960
 4552TIP3   OH213661   1.300   0.571   1.956 -0.4161  0.3931  0.0532
 4552TIP3    H113662   1.380   0.610   1.922 -1.0494  0.3401 -1.6005
 4552TIP3    H213663   1.299   0.595   2.049  1.2314  0.8331 -0.0190
 4553TIP3   OH213664   0.216   3.067   3.072  0.2786 -0.5164  0.5528
 4553TIP3    H113665   0.148   3.002   3.051  0.6697 -0.1735 -2.1132
 4553TIP3    H213666   0.296   3.030   3.035  0.6340  1.1539 -0.4562
 4554TIP3   OH213667   1.406   5.071   2.782 -0.4289  0.2327  0.0124
 4554TIP3    H113668   1.426   5.153   2.827 -1.2330  0.9274 -0.8420
 4554TIP3    H213669   1.411   5.093   2.689 -2.2143 -0.2602 -0.2370
 4555TIP3   OH213670   2.001   4.858   4.034 -0.1912 -0.0732  0.1781
 4555TIP3    H113671   2.088   4.895   4.013 -0.1144 -0.7695 -0.7919
 4555TIP3    H213672   1.981   4.892   4.121  0.8280  0.5242  0.1955
 4556TIP3   OH213673   3.264   5.623   3.593 -0.2987 -0.2507 -0.4535
 4556TIP3    H113674   3.356   5.635   3.613  0.0342 -0.2874 -1.8837
 4556TIP3    H213675   3.225   5.710   3.604 -0.0211 -0.1450 -0.2914
 4557TIP3   OH213676   3.886   0.808   0.871 -0.2544 -0.0662 -0.4179
 4557TIP3    H113677   3.887   0.757   0.953  0.3397  0.5663 -0.0146
 4557TIP3    H213678   3.942   0.758   0.812  1.4888  0.7941  0.4294
 4558TIP3   OH213679   5.636   4.439   4.481  0.2488  0.2176  0.1127
 4558TIP3    H113680   5.552   4.415   4.519  0.4510  0.0036  0.4268
 4558TIP3    H213681   5.618   4.449   4.387  0.6604 -3.7598 -0.5446
 4559TIP3   OH213682   5.648   1.347   0.021 -0.0355  0.0498  0.1323
 4559TIP3    H113683   5.555   1.349  -0.002 -0.0145 -0.8407 -0.0660
 4559TIP3    H213684   5.656   1.410   0.093 -1.2483 -1.5339  1.7484
 4560TIP3   OH213685   3.515   5.609   1.489  0.2438 -0.3650  0.1822
 4560TIP3    H113686   3.485   5.669   1.422  0.9942  2.0625  1.8849
 4560TIP3    H213687   3.580   5.659   1.539  3.4098 -3.6654 -0.2419
 4561TIP3   OH213688   4.348   1.540   0.015  0.3933  0.3281 -0.3980
 4561TIP3    H113689   4.289   1.594  -0.038 -1.3218 -0.3398  0.7280
 4561TIP3    H213690   4.352   1.584   0.100 -0.4396 -0.8456  0.2962
 4562TIP3   OH213691   1.155   5.144   4.424 -0.3970  0.2034  0.4025
 4562TIP3    H113692   1.131   5.126   4.333 -1.1981  0.4769  0.5491
 4562TIP3    H213693   1.247   5.121   4.430 -0.5372 -0.5545 -0.2795
 4563TIP3   OH213694   0.838   2.576   0.123  0.1524 -0.0582  0.3002
 4563TIP3    H113695   0.893   2.638   0.170 -0.8821  1.2454 -0.1591
 4563TIP3    H213696   0.795   2.628   0.054 -0.2201 -1.4136 -0.5434
 4564TIP3   OH213697   4.718   0.891   4.147 -0.1364 -0.1451 -0.2669
 4564TIP3    H113698   4.703   0.823   4.213  0.9239  0.4616  0.6315
 4564TIP3    H213699   4.638   0.891   4.094 -2.0302  0.8398  2.3635
 4565TIP3   OH213700   5.825   2.082   1.532  0.1902  0.5552  0.2947
 4565TIP3    H113701   5.913   2.052   1.556  0.6340 -0.2659 -2.1255
 4565TIP3    H213702   5.768   2.043   1.598  1.2138 -2.3467 -0.4010
 4566TIP3   OH213703   0.389   3.275   4.636 -0.1618 -0.7469 -0.4626
 4566TIP3    H113704   0.331   3.199   4.633  0.1329 -0.9472 -1.2821
 4566TIP3    H213705   0.476   3.238   4.655  0.2767 -0.8156 -2.4043
 4567TIP3   OH213706   2.104   0.260   0.638 -0.2157  0.0971  0.1026
 4567TIP3    H113707   2.096   0.342   0.589  0.3878  0.2612  0.2631
 4567TIP3    H213708   2.026   0.257   0.694 -0.6165  0.1911 -0.4474
 4568TIP3   OH213709   1.133   2.758   2.451  0.1277  0.7839 -0.1510
 4568TIP3    H113710   1.110   2.666   2.453  2.4038  0.1422  0.3826
 4568TIP3    H213711   1.143   2.782   2.543  2.5489  0.6266 -0.2844
 4569TIP3   OH213712   5.519   5.296   2.379  0.0606 -0.0023 -0.2389
 4569TIP3    H113713   5.465   5.371   2.354 -0.3366  0.8191  2.7461
 4569TIP3    H213714   5.475   5.259   2.455  2.4671 -0.6988  0.9115
 4570TIP3   OH213715   2.131   4.464   0.262  0.3075 -0.1626 -0.0042
 4570TIP3    H113716   2.098   4.377   0.242 -1.1536  0.4450 -0.3689
 4570TIP3    H213717   2.120   4.473   0.357  0.5930 -0.4273  0.0537
 4571TIP3   OH213718   1.265   3.201   5.109  0.0436  0.2228 -0.1802
 4571TIP3    H113719   1.197   3.260   5.144  0.9254  0.1442  1.8357
 4571TIP3    H213720   1.342   3.219   5.164  1.3998 -0.3328 -1.8218
 4572TIP3   OH213721   4.003   4.016   2.856 -0.1255 -0.0462  0.7005
 4572TIP3    H113722   3.932   4.063   2.899 -1.7936 -0.4092 -1.5303
 4572TIP3    H213723   3.986   3.923   2.875  0.7467 -0.0554  1.5439
 4573TIP3   OH213724   6.350   0.248   1.346  0.4127  0.4753  0.4070
 4573TIP3    H113725   6.314   0.258   1.435 -2.5169  1.2465 -0.7572
 4573TIP3    H213726   6.352   0.337   1.311 -0.4240 -0.0415 -0.9879
 4574TIP3   OH213727   0.600   0.359   0.965  0.7204  0.2582 -0.0545
 4574TIP3    H113728   0.606   0.453   0.981  0.7674  0.3116 -0.3809
 4574TIP3    H213729   0.684   0.324   0.994  0.8039  0.3551 -0.1756
 4575TIP3   OH213730   2.228   4.035   3.171 -0.3402  0.1102  0.2752
 4575TIP3    H113731   2.323   4.021   3.162 -0.2879  1.2799 -1.5320
 4575TIP3    H213732   2.197   3.958   3.218  1.4393 -0.5432  0.4731
 4576TIP3   OH213733   1.197   4.673   0.282  0.4328  0.7889  0.2092
 4576TIP3    H113734   1.276   4.720   0.255 -0.1914  2.2546  0.8199
 4576TIP3    H213735   1.213   4.650   0.374  1.2939 -1.4696 -0.4498
 4577TIP3   OH213736   3.721   1.898   2.493 -0.0021 -1.0294 -0.3137
 4577TIP3    H113737   3.749   1.891   2.584 -0.7837 -0.8852 -0.0566
 4577TIP3    H213738   3.727   1.809   2.459  3.5966 -0.6043 -1.1484
 4578TIP3   OH213739   2.216   4.970   3.252 -0.2062 -0.0516 -0.4746
 4578TIP3    H113740   2.252   5.003   3.169  0.1824 -1.3664 -0.8644
 4578TIP3    H213741   2.291   4.971   3.312  0.2683 -1.8064 -0.9877
 4579TIP3   OH213742   4.530   4.146   2.409 -0.1059 -0.3052  1.0689
 4579TIP3    H113743   4.503   4.078   2.472 -0.4993 -0.3949  0.8060
 4579TIP3    H213744   4.586   4.099   2.347  0.9106 -0.0643  1.7687
 4580TIP3   OH213745   1.526   4.149   5.069 -0.4645 -0.4452 -0.1062
 4580TIP3    H113746   1.530   4.208   5.144  2.8103  0.6335 -0.9402
 4580TIP3    H213747   1.468   4.078   5.097 -3.6536  2.4673  1.3793
 4581TIP3   OH213748   5.947   0.046   3.443  0.2678 -0.0285  0.5803
 4581TIP3    H113749   5.889  -0.031   3.445  0.4235 -0.1482  0.4182
 4581TIP3    H213750   6.026   0.016   3.399  0.5110  0.0976  0.9255
 4582TIP3   OH213751   0.188   3.593   1.922 -0.3954 -0.1296 -0.1584
 4582TIP3    H113752   0.257   3.658   1.906  0.8687 -0.7326  2.3592
 4582TIP3    H213753   0.227   3.510   1.894 -1.0745 -0.1735 -1.0320
 4583TIP3   OH213754   0.069   5.603   1.946  0.6948 -0.1709 -0.1213
 4583TIP3    H113755   0.044   5.515   1.975 -0.9170 -0.3913 -2.0227
 4583TIP3    H213756   0.039   5.660   2.017 -1.5285 -0.8426 -0.4526
 4584TIP3   OH213757   0.640   4.494   2.106 -0.0697  0.5460  0.2721
 4584TIP3    H113758   0.706   4.427   2.091 -1.2233 -0.3852 -0.7902
 4584TIP3    H213759   0.582   4.488   2.031 -0.0577  2.9457 -0.0098
 4585TIP3   OH213760   3.991   0.722   2.710 -0.3472 -0.1145  0.0754
 4585TIP3    H113761   3.925   0.653   2.721 -0.5166 -0.0487 -0.5203
 4585TIP3    H213762   4.003   0.757   2.798  0.2355 -1.3523  0.5250
 4586TIP3   OH213763   1.254   1.042   3.121 -0.7154 -0.8858  0.3810
 4586TIP3    H113764   1.216   0.997   3.046 -1.5747 -0.7882  0.7407
 4586TIP3    H213765   1.267   0.972   3.186 -0.1017 -0.9482  0.1940
 4587TIP3   OH213766   1.453   3.898   2.092 -0.2823 -0.1811  0.3891
 4587TIP3    H113767   1.435   3.905   2.186  1.3709 -0.0306  0.7248
 4587TIP3    H213768   1.548   3.891   2.086 -0.2220  1.4461 -1.3946
 4588TIP3   OH213769   6.174   1.424   4.343  0.1072 -0.1910 -0.3862
 4588TIP3    H113770   6.199   1.471   4.264 -1.8965 -0.8044 -1.4426
 4588TIP3    H213771   6.166   1.333   4.316  1.7852 -0.8347  1.1259
 4589TIP3   OH213772   6.144   0.129   2.802  0.3926 -0.5391 -0.3451
 4589TIP3    H113773   6.177   0.131   2.892  1.4391 -0.3208 -0.7210
 4589TIP3    H213774   6.135   0.221   2.777 -2.5708 -0.5179  0.4462
 4590TIP3   OH213775   4.312   5.154   4.485 -0.2192  0.1087  0.1314
 4590TIP3    H113776   4.309   5.135   4.391 -0.7391  1.5503 -0.1622
 4590TIP3    H213777   4.404   5.171   4.504 -0.0989 -0.2858 -0.0886
 4591TIP3   OH213778   5.674   2.243   3.976 -0.9640 -0.2522 -0.4583
 4591TIP3    H113779   5.600   2.207   3.927 -1.6654 -1.0279  1.0831
 4591TIP3    H213780   5.670   2.198   4.061  0.5400  0.6097  0.1054
 4592TIP3   OH213781   0.768   5.853   4.914  0.1601  0.2180  0.0501
 4592TIP3    H113782   0.692   5.799   4.935  1.0565 -1.1960 -0.2021
 4592TIP3    H213783   0.786   5.902   4.994 -0.0256 -0.6875  0.6638
 4593TIP3   OH213784   3.414   4.520   1.100  0.7125  0.5547  0.1934
 4593TIP3    H113785   3.425   4.614   1.112  0.8862  0.4264  1.1093
 4593TIP3    H213786   3.471   4.498   1.027  0.5884  1.1777 -0.0967
 4594TIP3   OH213787   0.496   0.631   0.515 -0.1999 -0.0228  0.2434
 4594TIP3    H113788   0.493   0.665   0.604  0.8869 -0.6298  0.5280
 4594TIP3    H213789   0.422   0.571   0.510 -0.6608  0.5183  0.5153
 4595TIP3   OH213790   4.301   5.091   0.935  0.0579  0.8133  0.2864
 4595TIP3    H113791   4.339   5.053   0.856 -0.4435 -1.0261  0.8760
 4595TIP3    H213792   4.333   5.182   0.936  3.8878 -0.3488  0.3651
 4596TIP3   OH213793   3.229   4.612   1.942 -0.0056  0.0034  0.6363
 4596TIP3    H113794   3.255   4.520   1.946 -0.2481 -0.1500 -0.8220
 4596TIP3    H213795   3.169   4.617   1.868  0.6001  1.4863  0.2147
 4597TIP3   OH213796   2.630   4.654   1.776  0.4347  0.0282  0.5309
 4597TIP3    H113797   2.566   4.676   1.844  0.3368  0.7872  0.1981
 4597TIP3    H213798   2.699   4.720   1.786  0.0986  0.5509 -0.5363
 4598TIP3   OH213799   1.771   2.282   4.365 -0.1172 -0.4989 -0.2314
 4598TIP3    H113800   1.699   2.293   4.302  1.2448 -1.0850 -1.9548
 4598TIP3    H213801   1.764   2.191   4.392  0.0641 -0.5935 -0.5040
 4599TIP3   OH213802   2.899   1.244   4.371 -0.1114  0.7977  0.2767
 4599TIP3    H113803   2.969   1.281   4.424 -0.3040 -0.5778  1.5457
 4599TIP3    H213804   2.886   1.156   4.405 -1.8619  0.6989 -0.5054
 4600TIP3   OH213805   0.828   5.036   2.325  0.8791 -0.3788  0.2786
 4600TIP3    H113806   0.809   4.949   2.361  0.6485 -0.8006 -0.8333
 4600TIP3    H213807   0.777   5.040   2.244  0.4465  1.0212  0.6008
 4601TIP3   OH213808   0.613   4.099   2.877 -0.5002 -0.1581  0.2193
 4601TIP3    H113809   0.661   4.051   2.944  0.3213 -0.8810 -0.8521
 4601TIP3    H213810   0.574   4.032   2.822  0.3365  0.3721 -1.0687
 4602TIP3   OH213811   4.715   4.508   1.338 -0.2610  0.1047 -0.2896
 4602TIP3    H113812   4.687   4.581   1.393 -0.0362 -0.0709  0.0612
 4602TIP3    H213813   4.658   4.512   1.261 -0.1017  0.7795 -0.3733
 4603TIP3   OH213814   1.977   5.563   2.563  0.4079 -0.4908 -0.4931
 4603TIP3    H113815   2.020   5.478   2.564  2.1379  0.3245 -1.6129
 4603TIP3    H213816   1.883   5.543   2.566  0.8068 -2.3232  1.7729
 4604TIP3   OH213817   1.786   0.290   1.194 -0.3214 -0.0135 -0.6681
 4604TIP3    H113818   1.755   0.245   1.115  0.7385  1.5772 -2.0599
 4604TIP3    H213819   1.714   0.348   1.219 -1.0953 -1.2991  0.2506
 4605TIP3   OH213820   3.282   5.354   0.372 -0.0177 -0.3290  0.2058
 4605TIP3    H113821   3.280   5.313   0.286  0.2752 -0.5089  0.2814
 4605TIP3    H213822   3.198   5.398   0.380  0.6735  1.3489 -0.9853
 4606TIP3   OH213823   4.107   1.710   2.139 -0.0074 -0.5080 -0.3503
 4606TIP3    H113824   4.165   1.724   2.214  0.4429  0.2444 -0.8287
 4606TIP3    H213825   4.054   1.789   2.133  1.7676  0.6591 -2.3789
 4607TIP3   OH213826   1.505   4.012   3.255 -0.0726  0.4268  0.3670
 4607TIP3    H113827   1.580   3.997   3.199 -0.9967  0.6045 -0.9603
 4607TIP3    H213828   1.441   3.946   3.230 -1.0427  1.3893  0.1827
 4608TIP3   OH213829   4.158   4.750   3.831  0.6589  1.0345  0.1218
 4608TIP3    H113830   4.227   4.691   3.799 -0.1298  0.5540 -0.7581
 4608TIP3    H213831   4.077   4.707   3.804 -0.0153  1.2233  1.7785
 4609TIP3   OH213832   0.654   1.735   1.015  0.0350 -0.1908  0.6618
 4609TIP3    H113833   0.739   1.702   0.986 -0.5502 -0.7927 -0.4488
 4609TIP3    H213834   0.655   1.725   1.110  1.4164  0.3514  0.7339
 4610TIP3   OH213835   2.478   4.632   3.877 -0.5673  0.2910 -0.7396
 4610TIP3    H113836   2.566   4.598   3.862 -1.0276 -1.6772  0.5838
 4610TIP3    H213837   2.483   4.676   3.961 -0.8210  0.2396 -0.6958
 4611TIP3   OH213838   2.888   5.589   3.869  0.2857  0.6064 -0.1937
 4611TIP3    H113839   2.883   5.597   3.773  1.5221 -0.4924 -0.3777
 4611TIP3    H213840   2.879   5.678   3.901  4.3825  1.7777 -1.6133
 4612TIP3   OH213841   1.842   5.727   4.415 -0.6488 -0.0246 -0.4295
 4612TIP3    H113842   1.822   5.728   4.509  1.4976 -0.2379  0.1039
 4612TIP3    H213843   1.825   5.638   4.387  1.2594 -0.7432  0.4675
 4613TIP3   OH213844   2.654   0.896   4.691 -0.0843  0.2228  0.3909
 4613TIP3    H113845   2.597   0.891   4.768  0.2892  1.8032  0.7959
 4613TIP3    H213846   2.725   0.954   4.717  1.9262 -1.9197 -0.0170
 4614TIP3   OH213847   3.141   2.826   4.563 -0.3334  0.5284  0.6982
 4614TIP3    H113848   3.203   2.897   4.581  0.3841 -0.0096  0.4292
 4614TIP3    H213849   3.086   2.859   4.491  1.3159  0.0840 -0.8508
 4615TIP3   OH213850   1.246   1.603   0.505 -0.3988  0.0864  0.1365
 4615TIP3    H113851   1.229   1.550   0.583 -0.1122  0.6869  0.6197
 4615TIP3    H213852   1.176   1.669   0.505 -0.9348 -0.4645 -0.6286
 4616TIP3   OH213853   3.428   2.088   0.614 -0.1079  0.6534 -0.4260
 4616TIP3    H113854   3.339   2.106   0.585 -0.7724  1.7488  2.0333
 4616TIP3    H213855   3.475   2.170   0.598 -0.1072  0.7798  0.1915
 4617TIP3   OH213856   2.519   2.249   2.800  0.6142  0.4543  0.0118
 4617TIP3    H113857   2.609   2.226   2.825  0.7050 -0.1301 -0.7872
 4617TIP3    H213858   2.490   2.309   2.868  1.7209  0.8927  0.1270
 4618TIP3   OH213859   3.820   2.549   4.764 -0.3186 -0.1653  0.1387
 4618TIP3    H113860   3.759   2.496   4.713 -0.4058 -0.0042  0.0792
 4618TIP3    H213861   3.768   2.582   4.837  0.2313 -1.9664  1.4298
 4619TIP3   OH213862   4.130   5.057   0.343  0.0973 -0.4579  0.4181
 4619TIP3    H113863   4.174   5.000   0.280 -1.6854 -1.6588  0.1702
 4619TIP3    H213864   4.046   5.014   0.359 -0.2862  0.8236  2.1687
 4620TIP3   OH213865   5.186   2.550   4.828  0.3476 -0.4407  0.0345
 4620TIP3    H113866   5.115   2.497   4.867  0.5652 -1.0007 -0.3125
 4620TIP3    H213867   5.145   2.635   4.810 -0.1308 -0.6288  0.2034
 4621TIP3   OH213868   2.771   0.164   4.057 -0.4626 -0.2221 -0.4933
 4621TIP3    H113869   2.801   0.172   3.967 -1.8206  1.7181 -0.8558
 4621TIP3    H213870   2.680   0.134   4.049  0.1595 -2.5375  0.3930
 4622TIP3   OH213871   2.380   5.277   3.847  0.1750 -0.1460  0.3450
 4622TIP3    H113872   2.416   5.192   3.872 -0.2048 -0.1097  1.0349
 4622TIP3    H213873   2.457   5.332   3.832  0.4264 -0.6886 -0.3979
 4623TIP3   OH213874   2.715   1.912   4.428  0.5947  0.2724  0.7665
 4623TIP3    H113875   2.765   1.840   4.467  0.0538  0.3372  1.6045
 4623TIP3    H213876   2.664   1.871   4.358  1.6650  0.1733  0.0254
 4624TIP3   OH213877   0.921   5.010   0.304  0.0910  0.6668 -0.2001
 4624TIP3    H113878   1.014   5.016   0.283  0.1572 -1.3774 -0.6614
 4624TIP3    H213879   0.918   5.021   0.400  0.5938  2.2720 -0.3289
 4625TIP3   OH213880   5.606   3.341   0.967 -0.1660 -0.0799  0.0872
 4625TIP3    H113881   5.545   3.346   1.041  0.5280 -3.2649  1.0264
 4625TIP3    H213882   5.684   3.388   0.997 -1.3020  2.1860 -0.3019
 4626TIP3   OH213883   1.234   0.290   5.019 -0.0613 -0.0828  0.3532
 4626TIP3    H113884   1.159   0.334   4.980 -0.0479 -0.0246  0.3928
 4626TIP3    H213885   1.282   0.360   5.064  0.4852  0.0464 -0.4046
 4627TIP3   OH213886   2.690   0.779   0.490  0.2599  0.0831  0.3698
 4627TIP3    H113887   2.617   0.841   0.492  0.9896  0.9474  2.4414
 4627TIP3    H213888   2.767   0.832   0.506  1.3247 -0.9029 -1.2395
 4628TIP3   OH213889   1.391   4.913   3.576 -0.1192 -0.0769 -0.1484
 4628TIP3    H113890   1.484   4.929   3.592 -0.4946  0.7809  1.3192
 4628TIP3    H213891   1.353   4.905   3.663 -1.2514 -1.5836 -0.7492
 4629TIP3   OH213892   1.567   3.857   4.778 -0.1123  0.5747 -0.5102
 4629TIP3    H113893   1.488   3.910   4.793 -1.4060 -0.6957 -2.3649
 4629TIP3    H213894   1.592   3.876   4.687  1.1326  0.1821 -0.2687
 4630TIP3   OH213895   1.184   5.742   3.518 -0.2197 -0.4446  0.0557
 4630TIP3    H113896   1.200   5.725   3.611 -1.4416 -0.1687  0.3274
 4630TIP3    H213897   1.246   5.811   3.496  0.9104 -1.3171  0.3470
 4631TIP3   OH213898   2.808   5.493   4.789 -0.6540  0.2085  0.8308
 4631TIP3    H113899   2.836   5.501   4.698 -2.6627  0.3617  0.1717
 4631TIP3    H213900   2.774   5.403   4.796 -0.4875  0.1867  1.4475
 4632TIP3   OH213901   4.226   1.109   1.281  0.1110 -0.3501  1.0905
 4632TIP3    H113902   4.148   1.157   1.308  0.3195  0.1869  0.7615
 4632TIP3    H213903   4.293   1.132   1.346  0.5495  0.7695  0.2795
 4633TIP3   OH213904   5.430   3.002   2.871 -0.1596 -0.4268  0.8864
 4633TIP3    H113905   5.516   2.985   2.908 -0.0383 -0.5113  0.5696
 4633TIP3    H213906   5.412   3.094   2.894  0.4772 -0.0784  0.0557
 4634TIP3   OH213907   0.669   1.084   0.959  0.1613  0.5210 -0.0027
 4634TIP3    H113908   0.680   1.015   0.893 -2.3737 -0.6149  0.6373
 4634TIP3    H213909   0.755   1.089   1.002  1.4299  0.2387 -2.3200
 4635TIP3   OH213910   3.777   0.365   1.600 -0.1232  0.0038 -0.8052
 4635TIP3    H113911   3.872   0.364   1.583  0.3781 -0.5302  1.6147
 4635TIP3    H213912   3.767   0.310   1.677 -2.4431  0.0941 -0.9942
 4636TIP3   OH213913   2.898   2.562   1.549 -0.2436  0.3176  0.5843
 4636TIP3    H113914   2.810   2.582   1.518 -0.3592 -1.1552 -0.1064
 4636TIP3    H213915   2.888   2.482   1.599  0.6754  0.2402  0.6587
 4637TIP3   OH213916   0.865   5.546   2.578 -0.0002 -0.6997  0.2753
 4637TIP3    H113917   0.893   5.466   2.623  2.4248 -0.6132 -0.8816
 4637TIP3    H213918   0.775   5.530   2.553 -0.1144 -2.3652  1.5723
 4638TIP3   OH213919   1.703   3.006   5.121  0.2220 -0.0516  0.3224
 4638TIP3    H113920   1.719   3.059   5.043  1.4779  0.4578  0.8933
 4638TIP3    H213921   1.789   2.997   5.162 -0.3517 -0.6143  1.4545
 4639TIP3   OH213922   4.636   1.307   5.130 -0.3233 -0.2263 -0.3478
 4639TIP3    H113923   4.624   1.397   5.160  2.2163  0.3038 -0.7407
 4639TIP3    H213924   4.637   1.255   5.210 -0.1690  0.2995 -0.0024
 4640TIP3   OH213925   5.801   2.885   4.730  0.5873 -0.0843 -0.1158
 4640TIP3    H113926   5.758   2.970   4.738  0.0844 -0.2705 -0.7540
 4640TIP3    H213927   5.894   2.905   4.731  0.5472  0.2299  2.3846
 4641TIP3   OH213928   2.413   1.665   5.052  0.2660 -0.0836  0.5449
 4641TIP3    H113929   2.434   1.729   5.121  1.1114  2.2980 -1.7512
 4641TIP3    H213930   2.480   1.598   5.060  0.5855  0.3498  1.7558
 4642TIP3   OH213931   1.044   2.472   2.456  0.3111 -0.1072 -0.4980
 4642TIP3    H113932   1.087   2.389   2.479  2.2981  1.2667  1.0536
 4642TIP3    H213933   1.036   2.468   2.361 -0.1052 -2.2582 -0.4427
 4643TIP3   OH213934   5.117   2.838   3.188  0.9716  0.1431  0.3180
 4643TIP3    H113935   5.152   2.802   3.269  0.7958 -0.0752  0.2981
 4643TIP3    H213936   5.183   2.816   3.122  0.6184 -0.6272  0.2053
 4644TIP3   OH213937   2.665   2.605   1.432  0.0853  0.4886 -0.4281
 4644TIP3    H113938   2.575   2.637   1.433 -1.3950 -3.1403  0.5882
 4644TIP3    H213939   2.670   2.547   1.356  0.2317 -2.3082  1.5565
 4645TIP3   OH213940   5.605   3.099   2.638  0.0774  0.2192  0.4590
 4645TIP3    H113941   5.688   3.095   2.686 -0.3025  1.0835  1.2241
 4645TIP3    H213942   5.621   3.160   2.566 -0.7958  3.2007  2.5934
 4646TIP3   OH213943   1.605   3.541   1.026  0.6480  0.0022  0.3931
 4646TIP3    H113944   1.694   3.507   1.020  0.6540  0.1002 -0.1839
 4646TIP3    H213945   1.556   3.491   0.961  0.3250  0.0716  0.5817
 4647TIP3   OH213946   0.525   4.758   0.794  0.4238 -0.8794  0.3352
 4647TIP3    H113947   0.437   4.720   0.793  0.1466 -0.3633 -2.3932
 4647TIP3    H213948   0.570   4.715   0.721  1.4430  1.0479 -0.2269
 4648TIP3   OH213949   4.634   2.483   4.241 -0.2097 -0.3373  0.6239
 4648TIP3    H113950   4.713   2.429   4.242 -0.3124 -0.4814  1.1538
 4648TIP3    H213951   4.603   2.484   4.331 -1.0064 -0.5599  0.3695
 4649TIP3   OH213952   3.253   1.883   3.609 -0.2120  0.0087  0.1660
 4649TIP3    H113953   3.343   1.888   3.576  0.2541  0.1604  1.3979
 4649TIP3    H213954   3.201   1.858   3.533  0.7496  0.7608 -0.7732
 4650TIP3   OH213955   6.168   0.800   4.681  0.5423  0.2935 -0.1541
 4650TIP3    H113956   6.089   0.850   4.662  0.4828  0.5771  0.7972
 4650TIP3    H213957   6.206   0.843   4.757  0.4803 -1.0890  0.6982
 4651TIP3   OH213958   4.821   5.167   4.762  0.4606 -0.4034 -0.3312
 4651TIP3    H113959   4.844   5.217   4.840 -1.0289 -1.1604  0.6435
 4651TIP3    H213960   4.892   5.103   4.752  0.8444 -0.0682  0.1925
 4652TIP3   OH213961   0.335   4.623   1.388  0.6710 -0.4491 -0.3214
 4652TIP3    H113962   0.355   4.560   1.457 -0.2109  0.2537  0.6051
 4652TIP3    H213963   0.272   4.578   1.331 -1.5224  0.2066  1.4423
 4653TIP3   OH213964   5.947   1.813   1.420  0.4109  0.2033 -0.4521
 4653TIP3    H113965   5.935   1.763   1.502  0.5765 -0.4209 -0.8033
 4653TIP3    H213966   5.960   1.746   1.353  3.6174  0.7450 -0.5014
 4654TIP3   OH213967   2.763   4.016   4.043 -0.0337  0.2549  0.0871
 4654TIP3    H113968   2.701   4.059   3.983 -1.0037  0.5326  1.2514
 4654TIP3    H213969   2.786   3.934   3.999 -1.5767 -0.0644 -0.1828
 4655TIP3   OH213970   2.793   2.990   4.263  0.7732  0.3878 -0.3192
 4655TIP3    H113971   2.829   3.079   4.265 -1.2492  1.2915 -1.3170
 4655TIP3    H213972   2.870   2.933   4.271  2.2621  2.1991 -0.9274
 4656TIP3   OH213973   3.656  -0.007   2.742  0.6518  0.2685 -0.9714
 4656TIP3    H113974   3.610   0.077   2.743  0.1705  0.0144 -1.2404
 4656TIP3    H213975   3.610  -0.058   2.676  0.3066 -0.5630 -0.0938
 4657TIP3   OH213976   5.523   0.980   3.458 -0.4302  0.3355  0.7517
 4657TIP3    H113977   5.608   0.972   3.415 -2.1277 -1.0308 -2.8483
 4657TIP3    H213978   5.529   1.060   3.510  2.2556  1.7193 -1.4021
 4658TIP3   OH213979   2.713   5.281   3.739  0.0429  0.1445  0.3498
 4658TIP3    H113980   2.652   5.331   3.686  0.4130 -0.6809 -0.8876
 4658TIP3    H213981   2.764   5.348   3.786  0.4272  0.9343 -1.1437
 4659TIP3   OH213982   1.615   0.958   4.799 -0.6125 -0.0272  0.2415
 4659TIP3    H113983   1.598   1.052   4.808  1.2897  0.2107  1.8795
 4659TIP3    H213984   1.600   0.922   4.886  0.1221 -0.9869 -0.0040
 4660TIP3   OH213985   1.180   2.424   4.780  0.5490 -0.3243 -0.8533
 4660TIP3    H113986   1.274   2.433   4.796  0.5683 -0.9467 -0.5668
 4660TIP3    H213987   1.165   2.329   4.782  0.5066 -0.5006 -4.3131
 4661TIP3   OH213988   1.636   2.940   0.475 -0.1415  0.4205  0.0260
 4661TIP3    H113989   1.574   2.904   0.539 -2.1083  2.9082 -0.3527
 4661TIP3    H213990   1.678   2.862   0.437 -0.9909 -1.2422  2.2553
 4662TIP3   OH213991   2.592   1.107   3.585  0.6602 -0.3243  0.0839
 4662TIP3    H113992   2.661   1.050   3.618  1.6129  0.9591  0.3711
 4662TIP3    H213993   2.638   1.176   3.537 -0.4578  0.2846 -0.1568
 4663TIP3   OH213994   0.828   5.039   3.012  0.0978  0.5985 -0.4834
 4663TIP3    H113995   0.916   5.001   3.019 -0.9247 -2.4340 -2.4165
 4663TIP3    H213996   0.819   5.092   3.092  2.4133 -1.7772  1.5580
 4664TIP3   OH213997   3.636   1.732   4.526 -0.2565 -0.0677 -0.2986
 4664TIP3    H113998   3.560   1.785   4.500 -1.3781 -1.0591  0.7735
 4664TIP3    H213999   3.631   1.655   4.469  0.8627  0.5612 -1.2686
 4665TIP3   OH214000   1.415   4.538   1.556 -0.4068 -0.1310 -0.0301
 4665TIP3    H114001   1.421   4.633   1.567  0.2278  0.1514 -2.3986
 4665TIP3    H214002   1.504   4.511   1.532 -1.0413 -1.0002 -1.4762
 4666TIP3   OH214003   2.060   1.127   1.391  0.0999 -0.0050 -0.6514
 4666TIP3    H114004   1.977   1.165   1.420  0.1777 -0.1485 -0.2388
 4666TIP3    H214005   2.127   1.176   1.439  0.1677 -1.3865  0.7700
 4667TIP3   OH214006   3.914   3.995   0.328  0.0188 -0.1318 -0.0619
 4667TIP3    H114007   3.899   3.901   0.322 -0.3619 -0.0001 -1.5236
 4667TIP3    H214008   4.009   4.004   0.339 -0.0719 -0.7091  1.3226
 4668TIP3   OH214009   3.582   0.543   3.312  0.3378 -1.1369  0.2139
 4668TIP3    H114010   3.568   0.562   3.405 -0.2522 -0.9540  0.0910
 4668TIP3    H214011   3.676   0.527   3.305  1.1575  2.7240  0.1677
 4669TIP3   OH214012   1.276   4.955   2.465 -0.2105 -0.0415  0.2654
 4669TIP3    H114013   1.320   5.040   2.468 -0.1896 -0.0773  1.2839
 4669TIP3    H214014   1.346   4.891   2.477 -0.4440 -0.1232  1.2627
 4670TIP3   OH214015   0.525   2.033   0.581  0.0609  0.0362 -0.0041
 4670TIP3    H114016   0.554   2.027   0.490  0.6388 -1.6979  0.2625
 4670TIP3    H214017   0.525   1.943   0.613 -2.4534  0.3176  1.0404
 4671TIP3   OH214018   5.355   2.676   1.901  0.1602  0.2257 -0.1025
 4671TIP3    H114019   5.438   2.698   1.859  1.2856 -0.2799  1.7147
 4671TIP3    H214020   5.327   2.758   1.943  1.1005 -0.1866  1.4072
 4672TIP3   OH214021   1.837   5.962   4.167  0.5008  0.4403  0.0640
 4672TIP3    H114022   1.811   6.051   4.143 -1.7016 -0.0294  0.4391
 4672TIP3    H214023   1.810   5.908   4.092 -0.3789 -0.1786  0.7875
 4673TIP3   OH214024   3.504   0.466   4.449  0.2105  0.0061 -0.3268
 4673TIP3    H114025   3.516   0.540   4.390 -0.6393  0.8536  0.5073
 4673TIP3    H214026   3.524   0.502   4.536 -1.3779 -0.3898  0.2391
 4674TIP3   OH214027   0.264   5.507   3.608  0.1854 -0.1530 -0.1527
 4674TIP3    H114028   0.209   5.577   3.572 -1.3501 -0.7044  1.0266
 4674TIP3    H214029   0.210   5.428   3.602  0.6433 -0.6346  1.4925
 4675TIP3   OH214030   3.894   4.468   4.039  0.3866  0.1271 -0.5708
 4675TIP3    H114031   3.987   4.453   4.053  0.2845 -0.1208 -0.1143
 4675TIP3    H214032   3.853   4.447   4.123  0.0293  1.2778 -0.4365
 4676TIP3   OH214033   2.976   2.704   2.182  0.0082  0.1836 -0.2128
 4676TIP3    H114034   2.961   2.642   2.110  0.0668 -0.7765  0.5784
 4676TIP3    H214035   3.070   2.723   2.177 -0.1742  0.9016 -0.9985
 4677TIP3   OH214036   2.825   0.573   1.403 -0.0825 -0.3105 -0.1539
 4677TIP3    H114037   2.774   0.640   1.357 -2.1585 -0.3449  1.8566
 4677TIP3    H214038   2.916   0.593   1.383 -0.6994  2.3073 -0.7090
 4678TIP3   OH214039   5.874   4.888   3.163  0.0711 -0.0299  0.2436
 4678TIP3    H114040   5.944   4.823   3.172  0.6551  0.5174 -0.2658
 4678TIP3    H214041   5.823   4.858   3.088  1.1065  0.7708 -0.8178
 4679TIP3   OH214042   0.765   2.974   2.486 -0.0016  0.6393  0.4678
 4679TIP3    H114043   0.816   3.041   2.534  0.4034  0.8039 -0.1835
 4679TIP3    H214044   0.809   2.892   2.507 -0.0482  0.6662  0.6740
 4680TIP3   OH214045   2.983   1.672   2.053 -0.2051 -0.6058 -0.4059
 4680TIP3    H114046   2.995   1.598   2.113  1.3665  0.7949  1.0989
 4680TIP3    H214047   3.070   1.688   2.017 -0.4049  0.8189 -0.3159
 4681TIP3   OH214048   2.532   2.898   3.746 -0.4227 -0.0085  0.1344
 4681TIP3    H114049   2.438   2.901   3.766 -0.3036  1.0235  0.6236
 4681TIP3    H214050   2.564   2.986   3.768  1.1839 -1.1182  2.7124
 4682TIP3   OH214051   1.611   1.942   1.626  0.3452  0.2905 -0.9226
 4682TIP3    H114052   1.685   1.911   1.678  0.1177  0.3157 -0.5797
 4682TIP3    H214053   1.555   1.988   1.689  1.0034  1.9953 -1.5183
 4683TIP3   OH214054   5.564   1.920   0.071  0.0335 -0.1083 -0.1092
 4683TIP3    H114055   5.483   1.971   0.063  0.1751 -0.0829 -1.7017
 4683TIP3    H214056   5.634   1.983   0.054  0.5056  0.0647  2.0870
 4684TIP3   OH214057   3.201   1.291   2.734 -0.3514  0.2564  0.1175
 4684TIP3    H114058   3.254   1.308   2.656 -1.4580  0.0755 -0.6952
 4684TIP3    H214059   3.167   1.377   2.759 -1.7718  0.0339 -0.9304
 4685TIP3   OH214060   1.040   1.091   2.233  0.0938  0.2949  0.9576
 4685TIP3    H114061   0.957   1.051   2.204  0.0664  0.0961  1.3038
 4685TIP3    H214062   1.016   1.139   2.313  0.1258  1.0133  0.5454
 4686TIP3   OH214063   4.850   4.635   4.078  0.3378 -0.1610 -0.1127
 4686TIP3    H114064   4.829   4.542   4.088  0.1028  0.1464  3.1015
 4686TIP3    H214065   4.768   4.680   4.098  0.5376  0.7943 -1.3256
 4687TIP3   OH214066   2.331   0.855   0.082 -0.1522  0.9256  0.4356
 4687TIP3    H114067   2.345   0.920   0.013  0.4004 -0.2693 -0.6209
 4687TIP3    H214068   2.418   0.840   0.118  0.2368 -1.1994 -1.2062
 4688TIP3   OH214069   0.012   3.752   2.495 -0.1104 -0.4534  0.0926
 4688TIP3    H114070   0.094   3.761   2.446 -0.2418 -0.2114 -0.0811
 4688TIP3    H214071  -0.001   3.837   2.536  0.4195 -0.8895  1.2116
 4689TIP3   OH214072   1.370   3.526   5.069 -0.1798  0.0104 -0.1316
 4689TIP3    H114073   1.442   3.473   5.037  0.0539 -0.1521  0.6356
 4689TIP3    H214074   1.294   3.495   5.020  0.3887  0.7010 -1.4830
 4690TIP3   OH214075   4.329   0.861   2.208 -0.0081  0.3047 -0.2638
 4690TIP3    H114076   4.408   0.901   2.171  2.0288 -2.5123  0.7374
 4690TIP3    H214077   4.303   0.795   2.143  1.0893 -1.7446  1.2928
 4691TIP3   OH214078   5.384   2.249   0.848 -0.6115 -0.4021  0.2007
 4691TIP3    H114079   5.406   2.327   0.898  1.6018  0.1148 -1.4397
 4691TIP3    H214080   5.304   2.273   0.801 -1.3428 -0.0468  1.5607
 4692TIP3   OH214081   4.033   4.091   0.964 -0.3609 -0.2340  0.9555
 4692TIP3    H114082   4.049   3.996   0.967 -0.7386 -0.3386  0.0262
 4692TIP3    H214083   4.119   4.130   0.952 -0.3905 -0.5905 -0.6413
 4693TIP3   OH214084   3.363   1.017   1.919  0.0357 -0.2993 -0.0720
 4693TIP3    H114085   3.304   0.942   1.925 -0.4747  0.2139  2.1944
 4693TIP3    H214086   3.411   1.016   2.002  1.1079  1.0169 -0.6408
 4694TIP3   OH214087   3.245   1.315   0.718  0.2078 -0.8959  0.2397
 4694TIP3    H114088   3.310   1.373   0.679 -0.6324  1.0077  1.5369
 4694TIP3    H214089   3.295   1.259   0.777  0.8044  0.0042  0.6158
 4695TIP3   OH214090   5.441   2.798  -0.027  0.1785 -0.3500  0.2966
 4695TIP3    H114091   5.489   2.831   0.049  0.1033  1.2963 -0.3263
 4695TIP3    H214092   5.362   2.758   0.009  0.0529  0.5778  1.0746
 4696TIP3   OH214093   3.375   5.885   4.337  0.1434 -1.1455  0.4237
 4696TIP3    H114094   3.361   5.800   4.296  1.3744 -0.6824 -1.0550
 4696TIP3    H214095   3.302   5.939   4.306  0.4722 -1.1064 -0.3002
 4697TIP3   OH214096   4.374   0.408   2.502  0.3872  0.6444 -0.3106
 4697TIP3    H114097   4.379   0.312   2.505 -0.7925  0.5928  0.3170
 4697TIP3    H214098   4.464   0.435   2.481  0.8619 -0.5746  0.0296
 4698TIP3   OH214099   5.150   2.440   0.873 -0.1705  0.3342  0.0329
 4698TIP3    H114100   5.057   2.446   0.893  0.0061 -0.3024  1.1169
 4698TIP3    H214101   5.192   2.506   0.929  0.0214  0.7406 -0.5760
 4699TIP3   OH214102   1.894   0.881   4.769  0.4758 -0.0164  0.5952
 4699TIP3    H114103   1.799   0.878   4.780  0.2358  3.3730  0.4365
 4699TIP3    H214104   1.907   0.938   4.693  2.6666 -2.6325 -1.2102
 4700TIP3   OH214105   2.013   1.995   3.373  0.0421  0.0230 -0.6894
 4700TIP3    H114106   2.042   2.040   3.294  0.0428 -0.0636 -0.7382
 4700TIP3    H214107   1.924   1.966   3.353  0.3061 -0.6370 -0.9241
 4701TIP3   OH214108   0.428   3.162   3.678 -0.3979  0.0425  0.4140
 4701TIP3    H114109   0.401   3.099   3.745  0.7631 -1.2183 -0.2407
 4701TIP3    H214110   0.446   3.109   3.600  3.9073  0.6229  0.7665
 4702TIP3   OH214111   3.996   5.177   1.106  0.2759  0.0188  0.1847
 4702TIP3    H114112   4.070   5.217   1.059 -0.3037  0.1979 -0.5854
 4702TIP3    H214113   3.942   5.251   1.132 -1.5994 -0.2506 -2.5649
 4703TIP3   OH214114   4.144   3.565   4.285 -0.0907  0.5174  0.0135
 4703TIP3    H114115   4.084   3.637   4.305 -1.4395 -0.2055 -1.2323
 4703TIP3    H214116   4.091   3.504   4.234  0.2340 -2.6359  3.0754
 4704TIP3   OH214117   3.839   4.885   4.252  0.6838 -0.0283 -0.3697
 4704TIP3    H114118   3.759   4.925   4.288  0.0793 -0.6620 -0.9949
 4704TIP3    H214119   3.840   4.797   4.289  0.9082 -0.1411 -0.6474
 4705TIP3   OH214120   2.756   3.113   2.004 -0.6152 -0.3827 -0.1588
 4705TIP3    H114121   2.665   3.087   1.985 -0.0893 -0.6732 -2.5100
 4705TIP3    H214122   2.786   3.048   2.068 -1.4044 -1.6303 -1.0008
 4706TIP3   OH214123   4.875   4.457   2.658 -0.2194  0.2869 -0.1786
 4706TIP3    H114124   4.912   4.541   2.632 -1.1500  0.3128 -1.5281
 4706TIP3    H214125   4.806   4.440   2.594 -1.3086 -0.6227  1.1517
 4707TIP3   OH214126   3.316   0.280   3.335  0.0421  0.2898  0.1435
 4707TIP3    H114127   3.270   0.296   3.253  1.1961 -0.2636 -0.6308
 4707TIP3    H214128   3.291   0.353   3.391  0.0654  1.2508 -1.0605
 4708TIP3   OH214129   5.014   4.574   1.094 -0.4001 -0.1668 -0.2700
 4708TIP3    H114130   4.926   4.590   1.061 -0.7315 -1.3403  0.0030
 4708TIP3    H214131   5.070   4.578   1.016 -0.9571 -1.2831 -0.7527
 4709TIP3   OH214132   3.975   4.665   2.912 -0.1843 -0.3306  0.0010
 4709TIP3    H114133   3.889   4.633   2.885 -0.2803 -0.2052  0.1586
 4709TIP3    H214134   4.035   4.633   2.844 -0.6451  1.3132 -1.2556
 4710TIP3   OH214135   4.275   5.106   2.719  0.0133 -0.5265 -0.3482
 4710TIP3    H114136   4.291   5.024   2.766  0.3758  0.8882  2.1720
 4710TIP3    H214137   4.194   5.139   2.757  0.8926  1.2052  0.1150
 4711TIP3   OH214138   2.107   3.138   1.451 -0.3308  0.3508  0.2758
 4711TIP3    H114139   2.023   3.169   1.418 -0.8597 -0.3309  0.9465
 4711TIP3    H214140   2.149   3.216   1.489 -1.8216  0.2240  2.3338
 4712TIP3   OH214141   3.008   2.155   4.774 -0.3048  0.0539 -0.4319
 4712TIP3    H114142   3.079   2.107   4.730  1.3089  2.2480 -0.3601
 4712TIP3    H214143   2.976   2.216   4.708 -2.2642 -0.9411 -0.4805
 4713TIP3   OH214144   1.446   0.467   0.710  0.8584  0.2765  0.3146
 4713TIP3    H114145   1.479   0.485   0.622  3.2913  0.1368  1.1315
 4713TIP3    H214146   1.523   0.439   0.759 -0.9918 -3.1717  1.5971
 4714TIP3   OH214147   5.882   2.137   0.254 -0.0417  0.1292 -0.3430
 4714TIP3    H114148   5.834   2.173   0.328  1.3986  0.4191  0.4906
 4714TIP3    H214149   5.859   2.195   0.180  0.8587  1.7426  0.5768
 4715TIP3   OH214150   3.957   5.732   3.553 -0.8895 -0.2133 -0.1470
 4715TIP3    H114151   4.028   5.768   3.500 -2.5360  1.9827 -0.9870
 4715TIP3    H214152   3.960   5.638   3.535  0.4383  0.0997 -1.8386
 4716TIP3   OH214153   5.489   3.382   4.194 -0.1661 -0.1393 -0.7105
 4716TIP3    H114154   5.578   3.388   4.158 -0.1779  0.3534 -0.6691
 4716TIP3    H214155   5.485   3.454   4.257 -0.8285  0.2932 -1.2316
 4717TIP3   OH214156   4.712   3.188   4.343 -0.4655  0.4756 -0.3106
 4717TIP3    H114157   4.687   3.127   4.413  1.2359 -0.3417 -0.3700
 4717TIP3    H214158   4.775   3.139   4.290  1.8162  2.5948  0.2741
 4718TIP3   OH214159   2.317   5.727   2.664 -0.1511  0.0357 -0.0674
 4718TIP3    H114160   2.306   5.639   2.700 -2.0510  0.0659 -0.4565
 4718TIP3    H214161   2.408   5.730   2.634  0.3932 -1.2399  1.3565
 4719TIP3   OH214162   3.817   4.290   2.160 -0.2404  0.6090 -0.0257
 4719TIP3    H114163   3.875   4.365   2.161  0.0562  0.3731  0.3648
 4719TIP3    H214164   3.776   4.293   2.073  1.2742  0.0689 -0.7851
 4720TIP3   OH214165   3.356   1.986   0.261  0.4456 -0.8859  0.6651
 4720TIP3    H114166   3.337   1.956   0.350  0.3679  0.7929  1.2497
 4720TIP3    H214167   3.418   2.058   0.272 -1.0393  0.6691 -0.4314
 4721TIP3   OH214168   1.414   1.314   2.711  0.1406 -0.2266  0.0621
 4721TIP3    H114169   1.427   1.265   2.630 -1.9743  0.3652 -0.7194
 4721TIP3    H214170   1.340   1.372   2.692 -1.2827 -0.9704  2.8160
 4722TIP3   OH214171   5.005   3.975   3.075  0.1674 -0.3900  0.6504
 4722TIP3    H114172   5.028   3.883   3.057 -0.2205 -0.5719  1.0480
 4722TIP3    H214173   4.918   3.970   3.114 -0.4741  0.2675 -0.6336
 4723TIP3   OH214174   1.592   4.518   4.983  0.5658 -0.1212 -0.1327
 4723TIP3    H114175   1.531   4.456   5.021 -0.3205 -0.0488 -1.3724
 4723TIP3    H214176   1.592   4.593   5.043  3.1934 -2.0102  2.5061
 4724TIP3   OH214177   5.032   0.494   2.902  0.4788 -0.0428  0.9770
 4724TIP3    H114178   4.970   0.563   2.927  0.7859 -0.0935  1.8832
 4724TIP3    H214179   5.117   0.537   2.900  0.2778  0.4386 -1.8843
 4725TIP3   OH214180   1.571   5.627   1.781  0.3398 -0.6897  0.2915
 4725TIP3    H114181   1.509   5.553   1.776  1.5134 -1.7444  0.7728
 4725TIP3    H214182   1.602   5.625   1.872 -2.2498  2.6617  1.4737
 4726TIP3   OH214183   2.595   3.698   1.951 -0.5428 -0.7377  0.0045
 4726TIP3    H114184   2.658   3.671   1.883 -0.3913  0.6246 -0.4150
 4726TIP3    H214185   2.545   3.618   1.969  1.1344 -1.7942  0.1804
 4727TIP3   OH214186   0.186   2.627   3.471  0.1160 -0.0746 -0.1410
 4727TIP3    H114187   0.127   2.702   3.471 -0.7169 -0.7110 -1.0199
 4727TIP3    H214188   0.128   2.552   3.482  0.8240 -0.6725 -0.4508
 4728TIP3   OH214189   4.420   3.913   3.584 -0.0394  0.2216  0.4442
 4728TIP3    H114190   4.479   3.903   3.659 -1.4541  0.4090  1.6517
 4728TIP3    H214191   4.427   3.830   3.537  0.8075  0.0557  0.8392
 4729TIP3   OH214192   0.657   1.660   5.026  0.1384  0.1776 -0.1651
 4729TIP3    H114193   0.572   1.690   5.058  0.0140  1.5805 -1.6615
 4729TIP3    H214194   0.687   1.597   5.091  0.0771  3.0311  2.8979
 4730TIP3   OH214195   2.106   5.518   3.211  0.0176 -0.3955 -0.0199
 4730TIP3    H114196   2.106   5.541   3.119  0.6562  0.4324  0.1733
 4730TIP3    H214197   2.029   5.562   3.247 -1.6305 -2.6314 -0.5693
 4731TIP3   OH214198   5.865   3.043   1.585  0.0816 -0.2792  0.1950
 4731TIP3    H114199   5.910   3.019   1.505  1.9143 -0.4924  1.2450
 4731TIP3    H214200   5.776   3.007   1.574  0.6277 -1.2749 -1.2467
 4732TIP3   OH214201   6.312   3.777   4.846  0.1453 -0.2544 -0.0864
 4732TIP3    H114202   6.317   3.721   4.769  0.2568 -1.6001  0.8736
 4732TIP3    H214203   6.386   3.837   4.837 -0.4621  0.3211 -1.5415
 4733TIP3   OH214204   0.502   2.132   4.232  0.0590  0.3608 -0.5380
 4733TIP3    H114205   0.482   2.221   4.263  0.0566  0.1878 -0.0350
 4733TIP3    H214206   0.463   2.075   4.298  0.0634 -0.0145 -0.8608
 4734TIP3   OH214207   5.468   3.460   1.826  0.1881  0.3086  0.3007
 4734TIP3    H114208   5.442   3.509   1.747  0.6331  1.2642  0.7326
 4734TIP3    H214209   5.424   3.376   1.816  0.8801  0.0991 -1.3709
 4735TIP3   OH214210   3.126   4.118   2.508 -0.0774  1.0978 -0.5342
 4735TIP3    H114211   3.214   4.143   2.479 -0.0154 -0.4656 -1.8441
 4735TIP3    H214212   3.070   4.141   2.434 -0.3265 -0.4844 -0.8729
 4736TIP3   OH214213   2.478   5.012   3.935 -0.6853  0.1666  0.3726
 4736TIP3    H114214   2.550   4.992   3.875 -0.8889  0.1793  0.1274
 4736TIP3    H214215   2.468   4.932   3.987 -1.3103 -0.2768 -0.4164
 4737TIP3   OH214216   4.178   5.285   0.198  0.0396  0.1109 -0.0255
 4737TIP3    H114217   4.147   5.223   0.263 -4.3035  1.7616 -0.2413
 4737TIP3    H214218   4.196   5.232   0.120 -0.2954 -1.1999  0.7710
 4738TIP3   OH214219   2.107   2.454   3.354 -0.0378 -0.3904 -0.7447
 4738TIP3    H114220   2.179   2.448   3.417 -0.7695  1.6216  0.3608
 4738TIP3    H214221   2.043   2.390   3.386  0.5041 -0.9308 -0.7223
 4739TIP3   OH214222   0.436   4.960   0.118 -0.0569 -0.2427  0.2844
 4739TIP3    H114223   0.382   4.961   0.198  1.0624  3.4203  1.1859
 4739TIP3    H214224   0.506   4.898   0.138 -0.9020 -0.9334  1.2783
 4740TIP3   OH214225   3.213   3.441   4.966 -0.3569 -0.3116 -0.2098
 4740TIP3    H114226   3.140   3.441   5.028 -1.2533 -0.6483 -1.2263
 4740TIP3    H214227   3.201   3.521   4.916 -0.0142 -0.3637 -0.3748
 4741TIP3   OH214228   4.826   0.172   0.015  0.0378 -0.2020 -0.4339
 4741TIP3    H114229   4.844   0.089  -0.028  3.2512 -0.2788  0.7772
 4741TIP3    H214230   4.838   0.153   0.109  3.3009  1.9861 -0.2524
 4742TIP3   OH214231   4.260   0.293   0.970 -0.3027 -0.1321 -0.0962
 4742TIP3    H114232   4.206   0.219   0.944 -2.0578  0.8210  0.6738
 4742TIP3    H214233   4.338   0.254   1.009 -1.3162 -1.5805  0.5389
 4743TIP3   OH214234   5.552   6.003   3.426  0.1345 -0.0741 -0.3327
 4743TIP3    H114235   5.613   5.976   3.495  1.2751  0.8592 -0.9335
 4743TIP3    H214236   5.469   5.964   3.451  0.2769  0.9906  2.0933
 4744TIP3   OH214237   2.335   4.263   0.058  0.3852 -0.2852  0.9340
 4744TIP3    H114238   2.349   4.242   0.150  2.6415 -0.1549  0.6688
 4744TIP3    H214239   2.405   4.324   0.036  1.1155 -1.8333 -1.3616
 4745TIP3   OH214240   4.355   3.374   0.847 -0.8505 -0.7392 -0.0802
 4745TIP3    H114241   4.299   3.305   0.811 -0.6651 -1.3546  0.7797
 4745TIP3    H214242   4.317   3.393   0.933 -0.1248 -0.7244  0.2482
 4746TIP3   OH214243   2.510   0.814   4.953  0.0496 -0.2418  0.1028
 4746TIP3    H114244   2.540   0.884   5.011  0.9402 -0.8181  0.3565
 4746TIP3    H214245   2.417   0.802   4.976  0.6131 -1.1361  2.1631
 4747TIP3   OH214246   2.965   1.371   0.684 -0.2909 -0.2738  0.1519
 4747TIP3    H114247   3.054   1.342   0.704 -0.7652 -0.2805  2.6163
 4747TIP3    H214248   2.930   1.399   0.769 -1.7152  2.3682 -1.1890
 4748TIP3   OH214249   1.376   0.353   2.103 -0.1148  0.0620 -0.1701
 4748TIP3    H114250   1.305   0.390   2.156  0.0337 -0.1526  0.1842
 4748TIP3    H214251   1.357   0.381   2.014 -0.3378  0.4785  0.0072
 4749TIP3   OH214252   2.429   4.076   0.853 -0.2438  0.3756 -0.1685
 4749TIP3    H114253   2.435   4.147   0.917 -0.3283  0.1933  0.0428
 4749TIP3    H214254   2.343   4.036   0.869  0.5382 -0.9403  0.9536
 4750TIP3   OH214255   3.381   4.249   1.582  0.3203 -0.2782 -0.8699
 4750TIP3    H114256   3.297   4.271   1.622  0.4261 -0.9419 -0.2666
 4750TIP3    H214257   3.392   4.315   1.514 -0.4125  0.1707 -0.5755
 4751TIP3   OH214258   2.447   5.533   0.001 -0.5318 -0.0719  0.1339
 4751TIP3    H114259   2.470   5.626  -0.009 -0.8818 -0.0208 -0.2101
 4751TIP3    H214260   2.473   5.511   0.090  0.2857  0.1503 -0.0417
 4752TIP3   OH214261   0.425   4.866   1.416 -0.2476 -0.0660 -0.0460
 4752TIP3    H114262   0.383   4.924   1.352  0.5563 -0.6328 -1.1233
 4752TIP3    H214263   0.369   4.789   1.419 -0.9164  0.4383  0.8310
 4753TIP3   OH214264   3.955   5.673   4.088  0.2236  0.0560  0.0079
 4753TIP3    H114265   3.891   5.737   4.118 -1.7836 -2.0554  0.4847
 4753TIP3    H214266   3.975   5.621   4.166  1.6967 -0.0390 -0.3995
 4754TIP3   OH214267   1.353   3.381   0.633  0.4460  0.0189 -0.0997
 4754TIP3    H114268   1.284   3.375   0.566  0.1492 -1.1228  0.2942
 4754TIP3    H214269   1.430   3.412   0.585 -0.1327  0.5905 -0.6904
 4755TIP3   OH214270   0.816   0.180   5.079  0.9342 -0.2380  0.5444
 4755TIP3    H114271   0.791   0.236   5.153  0.4893  1.2566 -0.6797
 4755TIP3    H214272   0.809   0.238   5.002  3.8434 -0.9888 -0.4046
 4756TIP3   OH214273   4.765   4.152   0.319  0.5189 -0.4984  0.2205
 4756TIP3    H114274   4.782   4.154   0.225 -0.4489  2.1580  0.0329
 4756TIP3    H214275   4.852   4.161   0.359  0.9294 -1.6085 -0.3641
 4757TIP3   OH214276   4.487   1.870   4.183  0.4648 -0.3894  0.2002
 4757TIP3    H114277   4.392   1.877   4.176  0.6194  2.3234 -0.2499
 4757TIP3    H214278   4.514   1.949   4.228  2.5754 -0.8406 -0.1484
 4758TIP3   OH214279   1.408   3.630   4.721 -0.6428  0.1850  0.0310
 4758TIP3    H114280   1.458   3.709   4.738  0.4710 -0.1522 -1.4292
 4758TIP3    H214281   1.389   3.633   4.627 -1.3605 -0.8436  0.1227
 4759TIP3   OH214282   0.428   4.902   2.440 -0.8671 -0.2049  0.0238
 4759TIP3    H114283   0.472   4.916   2.524  1.0009 -0.1253 -0.9157
 4759TIP3    H214284   0.405   4.989   2.409 -0.9929 -0.1844  0.1797
 4760TIP3   OH214285   2.052   3.560   2.788  0.4596 -0.5462 -0.2799
 4760TIP3    H114286   2.014   3.558   2.876 -0.2574 -0.3797 -0.5865
 4760TIP3    H214287   1.979   3.542   2.729  0.8436 -0.1818 -0.8757
 4761TIP3   OH214288   5.949   1.174   2.847 -0.6027 -0.1280 -0.1794
 4761TIP3    H114289   5.944   1.264   2.879  0.0449  0.6229 -2.0057
 4761TIP3    H214290   5.865   1.135   2.869 -0.7945  0.8449  0.8685
 4762TIP3   OH214291   0.763   5.570   1.741  0.1608  0.2484  0.0664
 4762TIP3    H114292   0.681   5.563   1.693  1.8208  0.5131 -3.0904
 4762TIP3    H214293   0.800   5.481   1.737  1.0074  0.6078 -0.5896
 4763TIP3   OH214294   4.221   5.316   3.536 -0.4053 -0.5752 -0.0630
 4763TIP3    H114295   4.292   5.330   3.599  2.0754  0.1108 -2.8049
 4763TIP3    H214296   4.227   5.224   3.513 -0.0193 -0.3958 -0.6987
 4764TIP3   OH214297   4.723   4.401   4.048  0.1387 -0.4375  0.2121
 4764TIP3    H114298   4.677   4.345   3.985  1.5592 -0.3343 -0.9624
 4764TIP3    H214299   4.776   4.340   4.100  0.7212 -0.3127 -0.2292
 4765TIP3   OH214300   0.458   4.280   3.013 -0.4771 -0.1985 -0.3317
 4765TIP3    H114301   0.513   4.246   2.943 -1.0390  0.7317 -1.2628
 4765TIP3    H214302   0.388   4.215   3.023  0.7850 -1.4118  0.8953
 4766TIP3   OH214303   1.509   2.460   3.563  0.3832  0.2390  0.0625
 4766TIP3    H114304   1.552   2.393   3.509 -0.2965 -3.0454  3.2475
 4766TIP3    H214305   1.421   2.427   3.578  0.4073  1.1478  2.8065
 4767TIP3   OH214306   5.655   5.751   3.673  0.3778  0.1595  0.2929
 4767TIP3    H114307   5.645   5.774   3.765 -0.0395 -1.5074  0.6850
 4767TIP3    H214308   5.678   5.834   3.630 -2.8073  1.6956  1.3029
 4768TIP3   OH214309   1.627   4.122   1.734  0.3847  0.6860  0.0759
 4768TIP3    H114310   1.667   4.129   1.647 -0.1986  0.6704 -0.2017
 4768TIP3    H214311   1.585   4.036   1.734  0.0974  0.8246  0.2474
 4769TIP3   OH214312   2.291   5.147   0.036  0.0724  0.2158  0.1332
 4769TIP3    H114313   2.350   5.183  -0.029 -0.4884 -2.1613 -1.8215
 4769TIP3    H214314   2.344   5.085   0.086 -0.4814 -1.2435 -1.0260
 4770TIP3   OH214315   5.333   1.190   3.943 -0.6769  0.0005  0.2266
 4770TIP3    H114316   5.353   1.232   3.859 -0.8343 -0.0402  0.1675
 4770TIP3    H214317   5.284   1.112   3.919 -3.1567  1.3888  0.4467
 4771TIP3   OH214318   3.352   2.783   4.888  0.0309  0.6156 -0.1860
 4771TIP3    H114319   3.267   2.746   4.864 -0.4880  0.4436  1.7714
 4771TIP3    H214320   3.345   2.799   4.982  1.1873  3.2200 -0.4720
 4772TIP3   OH214321   5.670   1.253   4.353 -0.2671  0.1691  0.3529
 4772TIP3    H114322   5.745   1.263   4.295  0.3593  0.3328  1.1703
 4772TIP3    H214323   5.676   1.162   4.384 -2.0302 -0.7540 -1.7386
 4773TIP3   OH214324   5.122   4.569   1.341 -0.5805 -0.3439  0.0904
 4773TIP3    H114325   5.139   4.662   1.325  0.9284 -0.6841 -0.4168
 4773TIP3    H214326   5.061   4.544   1.271  1.0294 -0.3155 -1.3914
 4774TIP3   OH214327   4.584   3.634   0.364  0.0571 -0.2295 -0.3436
 4774TIP3    H114328   4.652   3.608   0.427 -0.3669 -1.2399 -0.2738
 4774TIP3    H214329   4.588   3.729   0.362  0.7788 -0.2296  0.4418
 4775TIP3   OH214330   0.521   3.982   1.114 -0.1592  0.3299  0.5721
 4775TIP3    H114331   0.487   4.071   1.123  0.8853  0.7252  0.7278
 4775TIP3    H214332   0.525   3.967   1.019  3.0736  1.8487  0.3499
 4776TIP3   OH214333   0.386   1.986   1.357  0.4471  0.2261 -0.1508
 4776TIP3    H114334   0.326   2.006   1.429 -0.3087 -1.2713 -0.3096
 4776TIP3    H214335   0.363   2.048   1.288  0.5442  1.0581  0.5534
 4777TIP3   OH214336   2.749   2.130   4.582 -0.0588 -0.3740 -0.2020
 4777TIP3    H114337   2.734   2.042   4.550  2.7130 -0.6072 -1.1893
 4777TIP3    H214338   2.836   2.153   4.549  1.0653  1.1966  3.2763
 4778TIP3   OH214339   1.645   1.746   4.667 -0.3969  0.2776  0.2697
 4778TIP3    H114340   1.573   1.688   4.694  0.0206  0.1600  1.1649
 4778TIP3    H214341   1.669   1.715   4.580  2.5522 -3.6745  2.1919
 4779TIP3   OH214342   1.243   2.344   3.644  0.2373 -0.2245  0.0026
 4779TIP3    H114343   1.302   2.295   3.702  0.5547 -0.6512 -0.6754
 4779TIP3    H214344   1.210   2.279   3.582 -0.6837  0.0793  0.1469
 4780TIP3   OH214345   3.289   4.926   0.849  0.1973 -0.4146  0.3227
 4780TIP3    H114346   3.256   4.981   0.777 -2.6822 -0.6804  1.3135
 4780TIP3    H214347   3.259   4.971   0.928  0.0724 -2.0445  1.2295
 4781TIP3   OH214348   1.008   4.498   3.726 -0.0465  0.1231  0.0518
 4781TIP3    H114349   1.013   4.473   3.819  0.7976 -2.1774 -0.5538
 4781TIP3    H214350   0.921   4.468   3.699 -0.5612  1.3893  0.2041
 4782TIP3   OH214351   1.403   4.315   4.065  0.4206 -0.1153 -0.1264
 4782TIP3    H114352   1.418   4.335   3.973 -0.9961  1.2482 -0.0962
 4782TIP3    H214353   1.363   4.394   4.101 -1.4037 -1.4954  1.0754
 4783TIP3   OH214354   4.366   5.809   3.526 -0.0803  0.4449  0.2775
 4783TIP3    H114355   4.350   5.771   3.440  0.3543  1.0736 -0.0911
 4783TIP3    H214356   4.398   5.736   3.579 -2.6305 -0.5214  0.6316
 4784TIP3   OH214357   5.990   3.323   1.600  0.1406 -0.2873 -0.4093
 4784TIP3    H114358   5.963   3.279   1.681  0.4534 -0.2366 -0.2758
 4784TIP3    H214359   6.065   3.376   1.625  0.0684 -0.0549 -0.6758
 4785TIP3   OH214360   3.631   0.831   1.898  0.0204 -0.0101  0.0441
 4785TIP3    H114361   3.646   0.750   1.849  0.3920  1.0917 -1.7202
 4785TIP3    H214362   3.545   0.818   1.939 -0.2978 -0.9697 -0.8877
 4786TIP3   OH214363   3.069   1.913   1.376 -0.1673  0.0184  0.3301
 4786TIP3    H114364   3.025   1.871   1.450  0.4749  1.2774  1.4662
 4786TIP3    H214365   3.149   1.863   1.363 -0.2633 -0.1828  0.5201
 4787TIP3   OH214366   1.665   0.789   3.936 -0.5006  0.3731 -0.0989
 4787TIP3    H114367   1.692   0.867   3.985  1.9169 -0.3771 -0.0879
 4787TIP3    H214368   1.744   0.735   3.932 -1.8901 -1.7362 -0.7933
 4788TIP3   OH214369   5.918   2.481   3.742 -0.3387  0.0710  0.1496
 4788TIP3    H114370   5.918   2.431   3.660 -0.9532 -0.8704  0.6990
 4788TIP3    H214371   6.010   2.507   3.754 -0.3707  0.8202 -1.1809
 4789TIP3   OH214372   5.178   1.476   2.366 -0.4305  0.6090  0.0821
 4789TIP3    H114373   5.240   1.548   2.375 -0.0625  0.1527  1.3730
 4789TIP3    H214374   5.137   1.490   2.280  1.0104  1.2540 -0.5229
 4790TIP3   OH214375   0.614   1.912   4.759 -0.2174  0.0922  0.6119
 4790TIP3    H114376   0.536   1.938   4.711 -0.2645 -1.0637  0.0210
 4790TIP3    H214377   0.581   1.875   4.841 -0.2503  0.1238  0.6130
 4791TIP3   OH214378   0.819   2.223   2.660  0.7608  0.0823 -0.1017
 4791TIP3    H114379   0.726   2.209   2.641  0.3678  1.2086  0.9016
 4791TIP3    H214380   0.837   2.166   2.735  1.2001 -1.0204 -1.0144
 4792TIP3   OH214381   1.456   2.197   0.344 -0.0044  0.3515  0.1474
 4792TIP3    H114382   1.443   2.232   0.432 -0.1238 -0.1934  0.3494
 4792TIP3    H214383   1.537   2.147   0.350  0.8843  1.6630 -0.4740
 4793TIP3   OH214384   1.369   2.286   4.481  0.2775  0.6369 -0.2070
 4793TIP3    H114385   1.415   2.314   4.402  0.1553  0.9566 -0.1637
 4793TIP3    H214386   1.285   2.251   4.449  0.5593  0.0187 -0.2889
 4794TIP3   OH214387   2.436   4.175   1.503  0.1192  0.2779 -0.4130
 4794TIP3    H114388   2.481   4.258   1.484 -1.8856  1.1237 -1.8327
 4794TIP3    H214389   2.364   4.200   1.562 -0.8127 -0.3311 -1.2709
 4795TIP3   OH214390   3.230   4.222   0.391 -0.3714  0.1425  0.0323
 4795TIP3    H114391   3.220   4.171   0.311  2.2644  0.6662 -0.7240
 4795TIP3    H214392   3.267   4.160   0.455  3.9188  1.0961 -1.2098
 4796TIP3   OH214393   5.126   5.946   0.252  0.5390  0.2977  0.1504
 4796TIP3    H114394   5.196   5.939   0.317  1.5825  1.1718 -0.8315
 4796TIP3    H214395   5.156   5.894   0.177 -0.0589  0.3343 -0.1258
 4797TIP3   OH214396   2.242   1.834   4.779  0.0555 -0.4735  0.2044
 4797TIP3    H114397   2.241   1.919   4.823 -1.1217  0.7649 -2.0350
 4797TIP3    H214398   2.154   1.799   4.793 -0.3102 -0.1000 -0.9752
 4798TIP3   OH214399   2.547   4.261   0.673 -0.0230 -0.7340 -0.3750
 4798TIP3    H114400   2.533   4.180   0.721 -1.5043  0.3101  1.0815
 4798TIP3    H214401   2.462   4.306   0.676  0.8139  0.9937 -0.9076
 4799TIP3   OH214402   0.093   5.851   4.052 -0.4475 -0.6663  0.0989
 4799TIP3    H114403   0.153   5.838   4.125 -1.0025 -0.1777  0.6687
 4799TIP3    H214404   0.036   5.923   4.082 -1.7018 -1.5183 -0.1494
 4800TIP3   OH214405   1.448   3.798   1.150  0.6483  0.1521  0.0790
 4800TIP3    H114406   1.500   3.735   1.101 -0.2095 -0.6050  0.1052
 4800TIP3    H214407   1.364   3.801   1.103  0.1895  0.2181  0.8794
 4801TIP3   OH214408   5.933   1.079   1.714 -0.0008  0.0347  0.2367
 4801TIP3    H114409   6.000   1.011   1.717  0.1158  0.0084 -1.7101
 4801TIP3    H214410   5.963   1.145   1.775  1.4370 -0.3191 -0.0543
 4802TIP3   OH214411   6.025   5.400   2.605 -0.1456 -0.1536  0.4790
 4802TIP3    H114412   5.934   5.372   2.597 -0.5558  0.6611  1.9239
 4802TIP3    H214413   6.075   5.318   2.607 -0.5221 -0.6057 -2.8744
 4803TIP3   OH214414   6.095   2.878   2.096 -0.0436  0.0278  0.2611
 4803TIP3    H114415   6.002   2.856   2.093 -0.2579  0.9341 -0.4268
 4803TIP3    H214416   6.106   2.928   2.177 -0.0424 -0.5406  0.6130
 4804TIP3   OH214417   2.444   5.406   2.146  0.1835 -0.7174 -0.1113
 4804TIP3    H114418   2.481   5.439   2.064 -3.4394 -2.2824 -2.6734
 4804TIP3    H214419   2.460   5.311   2.142  0.1208 -0.7899  1.1353
 4805TIP3   OH214420   5.375   4.615   1.502  0.0811 -0.6229 -0.5932
 4805TIP3    H114421   5.339   4.693   1.461 -0.0857 -0.4822 -0.1822
 4805TIP3    H214422   5.299   4.567   1.534  0.1515 -1.1499 -1.1751
 4806TIP3   OH214423   1.791   3.090   0.115  0.8025 -0.4920 -0.2407
 4806TIP3    H114424   1.749   3.143   0.184  1.5429  0.2047 -0.3119
 4806TIP3    H214425   1.829   3.016   0.161  2.0952  0.4397  0.2649
 4807TIP3   OH214426   0.230   5.704   0.659 -0.0302 -0.2508 -0.4947
 4807TIP3    H114427   0.271   5.751   0.731  1.4652 -2.5424  0.2568
 4807TIP3    H214428   0.140   5.734   0.658 -0.4866 -1.0741  3.2567
 4808TIP3   OH214429   0.225   4.919   1.674  0.3010  0.4035  0.3895
 4808TIP3    H114430   0.312   4.923   1.634  0.2263  1.7043  0.3073
 4808TIP3    H214431   0.239   4.875   1.758  1.0378  0.6205  0.3893
 4809TIP3   OH214432   0.618   3.001   0.756  0.0820  0.2443 -0.3162
 4809TIP3    H114433   0.534   2.954   0.751  0.4839 -0.4313 -0.9719
 4809TIP3    H214434   0.678   2.937   0.796  0.2008  0.8581  0.5079
 4810TIP3   OH214435   5.633   2.870   1.055  0.0122 -0.4223  0.0964
 4810TIP3    H114436   5.655   2.944   0.999  1.3464 -0.5942  0.3583
 4810TIP3    H214437   5.604   2.909   1.137  0.0840 -0.1812  0.0068
 4811TIP3   OH214438   3.691   5.505   0.459 -0.2025  0.3986 -0.5686
 4811TIP3    H114439   3.605   5.479   0.491  0.9361 -2.1779  0.7158
 4811TIP3    H214440   3.741   5.526   0.539  0.7955  0.3453 -1.1629
 4812TIP3   OH214441   3.512   1.874   3.511 -0.0980  0.0382 -0.1053
 4812TIP3    H114442   3.525   1.780   3.527  0.1635  0.4712  2.6921
 4812TIP3    H214443   3.601   1.908   3.499  0.1209  0.3439  1.9846
 4813TIP3   OH214444   5.025   0.203   2.441 -0.2831 -0.2049  0.7609
 4813TIP3    H114445   5.077   0.150   2.380 -0.6849 -1.0304  1.1200
 4813TIP3    H214446   5.085   0.224   2.512  0.0078  0.2272  0.3965
 4814TIP3   OH214447   4.893   2.569   1.953  0.0208  0.0027  0.0150
 4814TIP3    H114448   4.972   2.564   2.007  1.0572 -0.4481 -1.4776
 4814TIP3    H214449   4.861   2.480   1.949 -0.5999  0.1939  0.6543
 4815TIP3   OH214450   4.555   2.606   0.756  0.0470  0.2569  0.3697
 4815TIP3    H114451   4.535   2.517   0.785  1.6974 -0.3306 -0.2128
 4815TIP3    H214452   4.590   2.649   0.834 -0.3357  0.2672  0.5385
 4816TIP3   OH214453   6.236   5.436   1.233  0.2072  0.3247  0.8404
 4816TIP3    H114454   6.251   5.347   1.264 -0.2882  0.3461  1.1549
 4816TIP3    H214455   6.225   5.488   1.313 -0.3742  0.5099  0.6437
 4817TIP3   OH214456   2.753   4.760   4.456  0.4909  0.0588 -0.0260
 4817TIP3    H114457   2.743   4.700   4.530 -0.5160  0.3782  0.1180
 4817TIP3    H214458   2.716   4.843   4.488  0.0184  0.1902 -0.9049
 4818TIP3   OH214459   0.256   3.489   0.807 -0.0192  0.4012  0.2893
 4818TIP3    H114460   0.214   3.547   0.871  0.5288 -0.6971  1.6958
 4818TIP3    H214461   0.188   3.426   0.783  0.1914 -0.0838  0.9400
 4819TIP3   OH214462   4.908   0.430   1.071  0.2581  0.2974 -0.1788
 4819TIP3    H114463   4.853   0.357   1.044 -1.4089  0.9873  1.1968
 4819TIP3    H214464   4.992   0.415   1.027 -0.8750 -1.0141 -1.9776
 4820TIP3   OH214465   3.970   3.778   4.270  0.7584  0.2869 -0.3374
 4820TIP3    H114466   4.025   3.844   4.229 -0.6170  0.8981 -1.2914
 4820TIP3    H214467   3.881   3.808   4.254  0.1281 -0.1962  1.9494
 4821TIP3   OH214468   6.122   4.299   0.496  0.5696  0.4192  0.2383
 4821TIP3    H114469   6.030   4.306   0.471  0.4761  1.7997  0.9070
 4821TIP3    H214470   6.123   4.233   0.565 -0.0643  1.0318  0.8487
 4822TIP3   OH214471   2.948   5.052   3.382  0.0236  0.6238  0.6549
 4822TIP3    H114472   2.898   4.988   3.433 -0.1059  0.3355  0.1710
 4822TIP3    H214473   3.005   5.094   3.446  0.2854 -0.1429  0.9353
 4823TIP3   OH214474   2.539   4.858   2.589 -0.2982 -0.2049 -0.2039
 4823TIP3    H114475   2.576   4.896   2.670  0.1122  0.7332 -0.8126
 4823TIP3    H214476   2.482   4.788   2.620 -0.8366  0.7069  0.9664
 4824TIP3   OH214477   0.747   0.205   2.469  0.0936 -0.2437 -0.1339
 4824TIP3    H114478   0.779   0.115   2.456  0.2412 -0.1293 -0.5506
 4824TIP3    H214479   0.826   0.255   2.490  0.1489 -0.0143 -0.8915
 4825TIP3   OH214480   1.813   2.739   3.424 -0.6626 -0.9040  0.2104
 4825TIP3    H114481   1.781   2.803   3.360 -1.2914 -1.0046  0.4161
 4825TIP3    H214482   1.847   2.667   3.371  2.0141  0.4689 -0.0958
 4826TIP3   OH214483   3.581   0.403   1.399  0.3982 -0.1607  0.2130
 4826TIP3    H114484   3.530   0.480   1.422  0.8561  0.9941 -2.2994
 4826TIP3    H214485   3.633   0.385   1.478  1.6777  3.2831  0.3466
 4827TIP3   OH214486   3.858   0.067   0.368 -0.2955  0.3995  0.2807
 4827TIP3    H114487   3.866   0.160   0.386  0.0968  0.3374  0.4409
 4827TIP3    H214488   3.883   0.057   0.276  1.0014  0.2771  0.6318
 4828TIP3   OH214489   0.368   3.581   2.793 -0.2382  0.1283  0.2450
 4828TIP3    H114490   0.387   3.488   2.800  0.9640  0.2345 -1.1123
 4828TIP3    H214491   0.361   3.597   2.699  0.8988  1.6261  0.3730
 4829TIP3   OH214492   2.992   2.080   3.397  0.3764  1.2002  0.2641
 4829TIP3    H114493   2.942   2.003   3.423 -2.4069  2.2269 -1.6287
 4829TIP3    H214494   3.073   2.046   3.360  0.3947 -0.6159  1.8329
 4830TIP3   OH214495   4.571   1.062   0.935 -0.6519  0.1078 -0.1859
 4830TIP3    H114496   4.510   1.124   0.974  0.0278 -0.4794  1.9261
 4830TIP3    H214497   4.656   1.105   0.941 -0.2625 -0.7471  0.7680
 4831TIP3   OH214498   5.184   1.305   4.310 -0.0622  0.0732 -0.0601
 4831TIP3    H114499   5.099   1.334   4.278  0.7557  1.5752 -1.0025
 4831TIP3    H214500   5.241   1.381   4.300  1.5377 -1.0598 -0.0099
 4832TIP3   OH214501   5.166   2.441   5.145 -0.2807 -0.7209 -0.4499
 4832TIP3    H114502   5.195   2.350   5.157 -2.8519 -1.2640  3.5321
 4832TIP3    H214503   5.080   2.434   5.104 -0.9776 -0.2024  0.8834
 4833TIP3   OH214504   0.962   2.312   0.701  0.0661 -0.7221 -0.1022
 4833TIP3    H114505   0.876   2.300   0.741  0.1062 -1.6965 -0.2627
 4833TIP3    H214506   0.948   2.379   0.634 -0.0098  0.8807  1.4780
 4834TIP3   OH214507   4.918   5.088   4.267  0.0129 -0.0922 -0.4980
 4834TIP3    H114508   4.949   5.027   4.200 -0.0346 -0.3447 -0.2925
 4834TIP3    H214509   4.908   5.034   4.346  0.4968  0.2926 -0.1694
 4835TIP3   OH214510   3.905   3.404   1.369  0.3334 -0.1959  1.3071
 4835TIP3    H114511   3.975   3.345   1.395  0.3682  0.0351  1.7586
 4835TIP3    H214512   3.857   3.421   1.450  0.4458  0.5526  1.2309
 4836TIP3   OH214513   2.509   2.336   3.136 -0.0202  0.4548  0.4398
 4836TIP3    H114514   2.531   2.400   3.204  0.8827 -0.6886  1.2623
 4836TIP3    H214515   2.586   2.334   3.079  1.0665 -1.7060  1.8720
 4837TIP3   OH214516   4.543   3.072   1.253  0.0135  0.5295  0.1303
 4837TIP3    H114517   4.566   3.002   1.313 -3.0914  0.1980  1.0926
 4837TIP3    H214518   4.469   3.116   1.294 -0.9918  1.5455 -2.5345
 4838TIP3   OH214519   3.912   3.351   2.500  0.3096  0.8420  0.2751
 4838TIP3    H114520   3.860   3.356   2.420  1.1858 -1.7002 -0.5528
 4838TIP3    H214521   3.866   3.287   2.554  1.1430  0.5822  0.6801
 4839TIP3   OH214522   0.976   3.930   3.946  0.0417  0.6015  0.3432
 4839TIP3    H114523   0.953   3.982   3.869 -0.0178  0.3825  0.2111
 4839TIP3    H214524   1.065   3.899   3.929  0.5626  1.6809  0.9804
 4840TIP3   OH214525   1.029   0.185   1.527 -0.0132 -0.2038 -0.0061
 4840TIP3    H114526   0.936   0.174   1.548  0.1407 -2.4105 -0.2210
 4840TIP3    H214527   1.055   0.265   1.574 -1.8383  0.0551  0.6399
 4841TIP3   OH214528   0.196   5.701   4.713 -0.0112 -0.0591 -0.1808
 4841TIP3    H114529   0.227   5.791   4.712  0.4773 -0.2140  0.2713
 4841TIP3    H214530   0.241   5.661   4.788 -1.3339 -0.2854  0.5096
 4842TIP3   OH214531   3.352   5.666   2.122 -0.0281  0.4579 -0.1140
 4842TIP3    H114532   3.269   5.628   2.095 -0.0816 -0.6191  1.3645
 4842TIP3    H214533   3.418   5.604   2.090  0.1161  0.7102 -0.3052
 4843TIP3   OH214534   2.641   4.920   2.852 -0.0979  0.0868  0.4204
 4843TIP3    H114535   2.674   5.003   2.818  0.0764 -0.2355 -0.2112
 4843TIP3    H214536   2.589   4.944   2.928  0.5671  0.7118  0.6942
 4844TIP3   OH214537   4.943   5.564   0.527 -0.5029 -0.2344 -0.1250
 4844TIP3    H114538   4.868   5.571   0.586  1.7996 -0.6457  3.0884
 4844TIP3    H214539   4.935   5.477   0.488 -1.3000 -0.5720  0.7658
 4845TIP3   OH214540   5.969   0.979   4.656  0.0781  0.3973  0.1378
 4845TIP3    H114541   5.950   0.979   4.750 -3.2371  3.1688 -0.3225
 4845TIP3    H214542   5.905   0.918   4.619  1.1355 -0.4140 -0.3854
 4846TIP3   OH214543   4.283   1.931   2.550  0.5652  0.3822 -0.2637
 4846TIP3    H114544   4.201   1.970   2.581  0.7039 -0.5079  1.3254
 4846TIP3    H214545   4.351   1.977   2.599  0.8031 -0.9547  0.6966
 4847TIP3   OH214546   4.393   1.888   2.173  0.2052  0.2085  0.0200
 4847TIP3    H114547   4.477   1.862   2.137  1.0802  2.4117  0.2987
 4847TIP3    H214548   4.407   1.978   2.204 -1.8062  0.0712  1.5372
 4848TIP3   OH214549   1.726   1.690   5.155 -0.0182  0.3796 -0.4475
 4848TIP3    H114550   1.686   1.607   5.181  0.1051  0.9035  1.6316
 4848TIP3    H214551   1.674   1.720   5.081 -1.4909 -0.4857  0.1981
 4849TIP3   OH214552   0.652   0.558   4.950  0.2031  0.1449  0.4547
 4849TIP3    H114553   0.669   0.604   4.867  0.2331  0.5491  0.6809
 4849TIP3    H214554   0.647   0.466   4.925 -1.0200  0.3550 -0.2018
 4850TIP3   OH214555   1.467   1.742   0.340  0.6732  0.0219  0.1897
 4850TIP3    H114556   1.423   1.683   0.401 -3.3116  0.5718 -1.8759
 4850TIP3    H214557   1.536   1.688   0.301  0.4205 -1.6742  1.9421
 4851TIP3   OH214558   4.976   2.343   4.780 -0.2529 -0.4607  0.0289
 4851TIP3    H114559   4.953   2.368   4.691  0.4445 -0.9691 -0.3045
 4851TIP3    H214560   5.062   2.301   4.772 -0.3783 -0.9035  0.8803
 4852TIP3   OH214561   0.507   0.590   1.715 -0.2479  0.3807 -0.2831
 4852TIP3    H114562   0.438   0.655   1.699 -1.5388 -0.1291  2.6146
 4852TIP3    H214563   0.482   0.515   1.661 -2.9074 -0.3313  1.7019
 4853TIP3   OH214564   4.218   1.315   0.871  0.1885  0.2661 -0.0345
 4853TIP3    H114565   4.133   1.356   0.860  0.1810  0.4995  0.7687
 4853TIP3    H214566   4.278   1.388   0.888  0.5541  0.1070 -0.5919
 4854TIP3   OH214567   5.933   4.414   2.391  0.3858 -0.3594  0.5143
 4854TIP3    H114568   5.921   4.334   2.443  3.0110 -1.1730  0.0200
 4854TIP3    H214569   5.937   4.484   2.456 -0.8119 -0.7668  1.0502
 4855TIP3   OH214570   2.401   0.482   1.182  0.1945 -0.7222  0.2494
 4855TIP3    H114571   2.390   0.486   1.087  0.6174 -2.2578  0.1049
 4855TIP3    H214572   2.400   0.573   1.210 -1.6532 -0.2995 -1.0134
 4856TIP3   OH214573   1.167   4.449   4.875  0.0402 -0.8456  0.1125
 4856TIP3    H114574   1.094   4.442   4.815 -0.7428  1.0534  0.7640
 4856TIP3    H214575   1.157   4.374   4.934 -0.0522 -1.8608 -1.1530
 4857TIP3   OH214576   5.713   2.953   4.160  0.2268 -0.2104  0.3381
 4857TIP3    H114577   5.760   2.908   4.090 -0.8198  0.2672 -0.7068
 4857TIP3    H214578   5.731   2.902   4.239 -0.6049 -2.2129 -0.7249
 4858TIP3   OH214579   6.203   2.038   4.142  0.0082  0.1122  0.2319
 4858TIP3    H114580   6.135   2.044   4.209 -0.5892 -0.3753 -0.3154
 4858TIP3    H214581   6.269   1.980   4.180 -0.2432 -0.0259  0.4650
 4859TIP3   OH214582   1.531   0.433   3.043 -0.0248  0.0108  0.0820
 4859TIP3    H114583   1.502   0.468   3.127  0.1896  0.6240 -0.0929
 4859TIP3    H214584   1.456   0.442   2.985  0.1660  0.5980 -0.0805
 4860TIP3   OH214585   1.954   5.232   0.006  1.0720  0.8767 -0.0615
 4860TIP3    H114586   1.975   5.280   0.085 -2.4525  0.2518  1.4345
 4860TIP3    H214587   1.927   5.145   0.037  1.8177 -0.1946 -2.1886
 4861TIP3   OH214588   1.142   3.262   1.534  0.4617 -0.5480  0.3216
 4861TIP3    H114589   1.146   3.306   1.619 -0.7165 -1.2529  0.7523
 4861TIP3    H214590   1.143   3.334   1.471 -0.4715  0.0706  0.9865
 4862TIP3   OH214591   5.579   2.303   2.904 -0.2286 -0.1094  0.1074
 4862TIP3    H114592   5.669   2.331   2.893 -0.7214  0.8618 -2.2343
 4862TIP3    H214593   5.536   2.376   2.948 -0.2285  0.2092 -0.4116
 4863TIP3   OH214594   2.972   4.181   2.269 -0.2024  0.0215  0.6755
 4863TIP3    H114595   2.919   4.197   2.191 -0.3625 -1.5453  0.4245
 4863TIP3    H214596   2.908   4.169   2.339 -0.1860 -1.1137  0.5206
 4864TIP3   OH214597   4.300   0.928   1.728 -0.6727  0.1739  0.0282
 4864TIP3    H114598   4.322   1.013   1.767 -0.2017 -0.7940  1.9890
 4864TIP3    H214599   4.385   0.892   1.701 -0.8849  0.3615 -0.9043
 4865TIP3   OH214600   3.818   3.563   2.685  0.5402  0.1053 -0.3011
 4865TIP3    H114601   3.859   3.526   2.607  0.0020 -1.1716 -0.0119
 4865TIP3    H214602   3.874   3.536   2.758  0.2752  0.0613 -0.1096
 4866TIP3   OH214603   3.685   4.266   3.657 -1.1101  0.0979 -0.2498
 4866TIP3    H114604   3.662   4.173   3.654 -1.9947  0.3172 -0.5655
 4866TIP3    H214605   3.780   4.267   3.642 -1.3872 -0.6289 -2.4196
 4867TIP3   OH214606   5.668   1.950   0.508 -0.3454  0.5372 -0.3118
 4867TIP3    H114607   5.746   1.902   0.478 -0.3006  0.6031 -0.3016
 4867TIP3    H214608   5.685   2.041   0.483  0.8765  1.0922  2.1302
 4868TIP3   OH214609   0.273   5.159   0.868 -0.4029  0.0064 -0.2706
 4868TIP3    H114610   0.218   5.083   0.883  0.9466 -0.8405  0.6115
 4868TIP3    H214611   0.356   5.122   0.837  0.7158  0.9990  1.4101
 4869TIP3   OH214612   3.090   1.643   2.480  0.4856  0.6335  0.0973
 4869TIP3    H114613   3.042   1.721   2.453  0.8783  0.1949 -2.0286
 4869TIP3    H214614   3.145   1.673   2.552 -0.3615  1.9797  0.2246
 4870TIP3   OH214615   2.200   3.021   1.970 -0.0769  0.5958 -0.1723
 4870TIP3    H114616   2.186   3.016   1.875 -1.8887 -0.0433  0.1042
 4870TIP3    H214617   2.287   2.984   1.983  0.2444  0.7849 -1.5855
 4871TIP3   OH214618   1.587   0.318   1.494 -0.1345  1.0274 -0.7851
 4871TIP3    H114619   1.680   0.331   1.511 -0.0634  0.1751 -0.4798
 4871TIP3    H214620   1.576   0.340   1.401  0.2514  1.7124 -0.6731
 4872TIP3   OH214621   2.954   1.588   4.249  0.0182 -0.0538 -0.5156
 4872TIP3    H114622   2.881   1.529   4.270 -0.8654  0.9165 -0.7522
 4872TIP3    H214623   2.914   1.675   4.248  1.5595  0.7339  1.2022
 4873TIP3   OH214624   4.431   5.245   3.710  0.2117 -0.2348  0.0381
 4873TIP3    H114625   4.519   5.268   3.739  0.9797 -1.6265 -1.0724
 4873TIP3    H214626   4.441   5.159   3.669 -1.2341  0.5630 -2.1505
 4874TIP3   OH214627   5.325   1.893   2.631  0.2601 -0.0197  0.2044
 4874TIP3    H114628   5.265   1.853   2.693 -0.6379  0.4312 -0.3583
 4874TIP3    H214629   5.335   1.984   2.662  0.4894 -0.0319  0.1730
 4875TIP3   OH214630   5.322   0.283   0.257  0.1355 -0.4187  0.2085
 4875TIP3    H114631   5.384   0.284   0.329  0.3323 -0.2851  0.0374
 4875TIP3    H214632   5.321   0.192   0.227 -0.8570 -0.7442  1.1603
 4876TIP3   OH214633   4.940   0.408   1.945 -0.0392 -0.5118  0.0295
 4876TIP3    H114634   4.958   0.362   1.862 -1.8140 -0.0326 -0.6726
 4876TIP3    H214635   5.024   0.406   1.992  1.0337 -0.7785 -1.7808
 4877TIP3   OH214636   5.559   2.258   4.294  0.0432  0.2477  0.1084
 4877TIP3    H114637   5.571   2.164   4.281  1.3682  0.1357  1.7575
 4877TIP3    H214638   5.501   2.265   4.370 -0.6867  0.7755 -0.4884
 4878TIP3   OH214639   2.816   1.735   0.380  0.8236 -0.1846  0.5613
 4878TIP3    H114640   2.886   1.686   0.423  0.0216 -1.1073  0.8383
 4878TIP3    H214641   2.828   1.826   0.410 -0.8088 -1.0212  4.2803
 4879TIP3   OH214642   0.205   1.726   0.399  0.2549  0.5864 -0.0039
 4879TIP3    H114643   0.115   1.696   0.410  0.4332  0.5509  1.7065
 4879TIP3    H214644   0.198   1.818   0.375 -0.2392  0.5478 -0.0104
 4880TIP3   OH214645   0.165   4.293   1.436  0.1672  0.9919 -0.0750
 4880TIP3    H114646   0.085   4.345   1.447  0.0712  0.8146  0.0644
 4880TIP3    H214647   0.186   4.301   1.342 -1.5804 -1.2289 -0.7423
 4881TIP3   OH214648   5.458   5.293   2.090 -0.3560  0.0852 -0.4268
 4881TIP3    H114649   5.409   5.215   2.115 -1.1464  1.0698  1.2950
 4881TIP3    H214650   5.540   5.260   2.054 -0.9516 -1.5348 -0.3789
 4882TIP3   OH214651   1.072   3.776   2.826  0.2437 -0.2402 -0.0414
 4882TIP3    H114652   1.061   3.744   2.737  1.2846 -0.6140 -0.0538
 4882TIP3    H214653   1.009   3.847   2.834  1.2488  0.9027 -1.6312
 4883TIP3   OH214654   1.744   2.471   1.226  0.1126  0.1531 -0.4473
 4883TIP3    H114655   1.768   2.379   1.230 -0.8530 -0.1188  3.3612
 4883TIP3    H214656   1.650   2.472   1.247 -0.2213  1.9510 -1.7858
 4884TIP3   OH214657   1.666   2.682   2.297 -0.2071  0.0980  0.4659
 4884TIP3    H114658   1.706   2.611   2.248 -1.0678  1.4044 -2.3694
 4884TIP3    H214659   1.589   2.642   2.338  1.0505 -1.2515  1.5943
 4885TIP3   OH214660   3.639   5.893   2.900  0.7521 -0.0085  1.0743
 4885TIP3    H114661   3.687   5.944   2.834 -0.0713  0.7822  1.0666
 4885TIP3    H214662   3.707   5.843   2.945  1.3828 -0.1875 -0.0413
 4886TIP3   OH214663   5.198   1.059   3.647 -0.1279 -0.2520  0.5572
 4886TIP3    H114664   5.178   0.975   3.605  0.2325  0.3972 -0.9857
 4886TIP3    H214665   5.120   1.078   3.699 -1.2144 -0.4468 -0.9297
 4887TIP3   OH214666   4.865   3.383   4.982  0.0680  0.1203  0.2986
 4887TIP3    H114667   4.946   3.402   4.936 -0.0885  1.0206  0.3780
 4887TIP3    H214668   4.872   3.290   5.005  1.0666  0.1852  0.3065
 4888TIP3   OH214669   3.887   1.203   2.935 -0.0714  0.0317  0.1167
 4888TIP3    H114670   3.923   1.225   3.021 -0.3287  1.2729 -0.0767
 4888TIP3    H214671   3.961   1.169   2.886  0.2241 -0.0554  0.6141
 4889TIP3   OH214672   4.010   5.879   0.978  0.8537 -0.0536 -0.7617
 4889TIP3    H114673   4.091   5.837   0.951  0.8546 -0.5406 -0.0134
 4889TIP3    H214674   4.020   5.970   0.948  1.4857 -0.2125 -1.0589
 4890TIP3   OH214675   1.463   5.528   0.291  0.7813  0.1143  0.0155
 4890TIP3    H114676   1.527   5.509   0.360  2.0266 -0.8250 -1.3337
 4890TIP3    H214677   1.412   5.448   0.284  1.2164 -0.1126 -0.6966
 4891TIP3   OH214678   4.339   4.635   3.458  0.1496  0.5042 -0.2450
 4891TIP3    H114679   4.331   4.647   3.553  0.0488  2.1176 -0.4405
 4891TIP3    H214680   4.252   4.652   3.424  0.6008  1.8008 -0.7975
 4892TIP3   OH214681   0.280   2.199   2.149  0.1000 -0.3850 -0.0422
 4892TIP3    H114682   0.329   2.179   2.069  1.6010  1.5271  0.3378
 4892TIP3    H214683   0.340   2.176   2.220  0.1398  1.1966  0.4528
 4893TIP3   OH214684   0.931   5.731   3.454  0.2295  0.5002  0.2212
 4893TIP3    H114685   1.022   5.762   3.458  0.9647 -1.6025  2.0680
 4893TIP3    H214686   0.918   5.705   3.363  1.5630  0.6165 -0.0209
 4894TIP3   OH214687   3.053   0.266   0.479 -0.5045  0.2480 -0.0129
 4894TIP3    H114688   2.968   0.227   0.498 -0.3094  0.1473  0.6665
 4894TIP3    H214689   3.069   0.245   0.387 -1.0491 -0.0365 -0.0455
 4895TIP3   OH214690   3.451   0.101   1.800 -0.1222  0.1637 -0.2938
 4895TIP3    H114691   3.373   0.135   1.757 -0.2494  0.4377  0.1432
 4895TIP3    H214692   3.439   0.006   1.799  0.3368  0.1010 -1.7058
 4896TIP3   OH214693   2.012   3.142   4.811 -0.2369 -0.0814 -0.0377
 4896TIP3    H114694   2.071   3.150   4.735  0.6470  0.2590  0.6659
 4896TIP3    H214695   1.925   3.140   4.772  0.1642  0.6188 -1.0493
 4897TIP3   OH214696   5.088   0.923   1.332  0.7954  0.0438 -0.2779
 4897TIP3    H114697   5.020   0.967   1.280 -0.2018 -0.2066  0.7868
 4897TIP3    H214698   5.086   0.832   1.303  0.2486 -0.0931  0.1798
 4898TIP3   OH214699   3.285   0.544   0.235 -0.6644  0.1241  0.3218
 4898TIP3    H114700   3.298   0.487   0.311 -1.4884  2.9239  2.7281
 4898TIP3    H214701   3.368   0.539   0.187 -0.9222 -3.5302 -0.0590
 4899TIP3   OH214702   0.929   3.668   4.534  1.0935  0.5271 -0.2799
 4899TIP3    H114703   1.020   3.697   4.535  0.9937  0.8489 -0.4153
 4899TIP3    H214704   0.917   3.627   4.449  1.0080  0.8235 -0.4118
 4900TIP3   OH214705   1.110   2.589   4.333 -0.2259  0.0701 -0.5357
 4900TIP3    H114706   1.030   2.539   4.322 -0.0935 -0.7030  1.6884
 4900TIP3    H214707   1.103   2.629   4.420  1.4763  0.5907 -0.5945
 4901TIP3   OH214708   1.772   3.489   3.857  0.3305 -0.2835 -0.4082
 4901TIP3    H114709   1.769   3.416   3.919  1.8161 -0.8529 -0.9536
 4901TIP3    H214710   1.681   3.503   3.832 -0.1354 -1.0090  0.7867
 4902TIP3   OH214711   1.080   4.091   2.922  0.3062  0.2927  0.0574
 4902TIP3    H114712   1.021   4.115   2.850 -0.6548  1.7675  1.2795
 4902TIP3    H214713   1.163   4.073   2.879  0.0997  2.3449 -1.3662
 4903TIP3   OH214714   1.818   4.182   5.057  0.2147 -0.2002 -0.1886
 4903TIP3    H114715   1.738   4.129   5.060  1.2417 -1.8500 -0.5056
 4903TIP3    H214716   1.877   4.140   5.120  0.6310  1.4043  0.5582
 4904TIP3   OH214717   6.067   4.871   2.083 -0.3372 -0.2178 -0.4548
 4904TIP3    H114718   6.161   4.866   2.065  0.3648 -0.6856  2.7910
 4904TIP3    H214719   6.060   4.931   2.157 -2.6623  0.0430 -0.8109
 4905TIP3   OH214720   0.344   2.540   2.658 -0.7767  0.4458  0.5133
 4905TIP3    H114721   0.266   2.489   2.637 -0.4130  0.1379 -0.1297
 4905TIP3    H214722   0.364   2.587   2.577  0.0300  0.0725  0.4887
 4906TIP3   OH214723   2.492   2.597   3.963 -0.3088  0.2899 -0.4702
 4906TIP3    H114724   2.430   2.617   3.893 -0.6821 -1.2712 -0.6069
 4906TIP3    H214725   2.477   2.505   3.984 -0.5361  0.8170  2.0060
 4907TIP3   OH214726   4.045   5.487   3.419  0.1578  1.0005  0.7223
 4907TIP3    H114727   3.970   5.428   3.420  0.0894  0.8968 -2.2346
 4907TIP3    H214728   4.116   5.437   3.460 -0.5320 -0.1948  0.4928
 4908TIP3   OH214729   5.839   0.690   5.177 -0.2683  0.2396 -0.0470
 4908TIP3    H114730   5.862   0.641   5.098 -0.2763 -0.3660  0.3182
 4908TIP3    H214731   5.766   0.642   5.214  0.6998 -0.3732  1.1384
 4909TIP3   OH214732   0.435   2.819   4.105  0.1092  0.9332 -0.2273
 4909TIP3    H114733   0.355   2.792   4.151 -0.2806  0.9749 -0.8583
 4909TIP3    H214734   0.432   2.771   4.023  1.7195 -0.5122  0.5176
 4910TIP3   OH214735   2.174   4.064   1.194  0.4999  0.2114  0.4785
 4910TIP3    H114736   2.197   4.151   1.224  1.1647 -0.4243  1.8889
 4910TIP3    H214737   2.257   4.016   1.192  0.0161 -0.6650  0.6624
 4911TIP3   OH214738   4.884   0.345   5.133  0.5532  0.0046 -0.0295
 4911TIP3    H114739   4.820   0.376   5.069  0.5023 -2.3951 -1.2394
 4911TIP3    H214740   4.968   0.375   5.100  0.6082 -1.7853 -1.7126
 4912TIP3   OH214741   2.238   0.084   0.478 -1.0743  0.6290  0.5280
 4912TIP3    H114742   2.169   0.021   0.457  0.3190 -1.0267  0.7069
 4912TIP3    H214743   2.192   0.157   0.519 -3.1753  1.3082 -2.6688
 4913TIP3   OH214744   5.516   1.671   1.411 -0.0687 -0.1125  0.2644
 4913TIP3    H114745   5.535   1.741   1.348  0.2949  0.2587  0.7798
 4913TIP3    H214746   5.426   1.644   1.391 -0.9737  1.9205  1.3945
 4914TIP3   OH214747   0.682   0.816   3.030 -0.2261 -0.0694 -0.0142
 4914TIP3    H114748   0.749   0.853   2.971 -0.6967  0.2830 -0.3353
 4914TIP3    H214749   0.623   0.768   2.972  0.1573 -1.0075  0.3575
 4915TIP3   OH214750   0.693   2.211   0.762  0.4460  0.7967  0.4910
 4915TIP3    H114751   0.654   2.182   0.680  1.9107  0.2130 -0.0418
 4915TIP3    H214752   0.680   2.138   0.823  2.6678 -0.4137 -0.3684
 4916TIP3   OH214753   5.778   1.829   4.628 -0.2689 -0.3172  1.0063
 4916TIP3    H114754   5.716   1.900   4.614  1.0089  1.0028  1.7815
 4916TIP3    H214755   5.864   1.872   4.634  0.9647 -2.1632 -1.3129
 4917TIP3   OH214756   3.704   0.678   4.461  0.3271  0.0642 -0.4909
 4917TIP3    H114757   3.631   0.700   4.404  0.5491  0.4769 -0.6197
 4917TIP3    H214758   3.680   0.714   4.546  0.7458  0.9603 -0.7298
 4918TIP3   OH214759   1.749   0.974   1.603  0.1440  0.2989  0.6529
 4918TIP3    H114760   1.795   0.916   1.542  0.9586  0.5369  1.0351
 4918TIP3    H214761   1.657   0.970   1.575  0.3953 -0.1666 -0.1261
 4919TIP3   OH214762   0.088   3.416   3.841 -0.2316  0.5624  0.1936
 4919TIP3    H114763   0.021   3.349   3.857  0.8234 -0.5075  0.2958
 4919TIP3    H214764   0.111   3.447   3.929  0.4138 -0.1228  0.2849
 4920TIP3   OH214765   2.351   2.037   5.162  0.1523 -0.1928  0.3396
 4920TIP3    H114766   2.366   2.008   5.072  1.4630  0.0620  0.4547
 4920TIP3    H214767   2.432   2.016   5.208 -1.0758 -1.8158  1.8946
 4921TIP3   OH214768   0.326   5.253   2.604  0.3632  0.0985  0.3104
 4921TIP3    H114769   0.386   5.249   2.529  0.0611 -1.3053  0.1002
 4921TIP3    H214770   0.292   5.342   2.603 -0.6222 -0.2264 -2.0536
 4922TIP3   OH214771   6.151   2.807   4.887  0.0096  0.3373  0.7106
 4922TIP3    H114772   6.232   2.835   4.929 -0.6585  1.1421  1.4896
 4922TIP3    H214773   6.095   2.778   4.959 -0.4605 -0.0507  0.1979
 4923TIP3   OH214774   3.372   3.462   4.093  0.2958  0.0048 -0.2076
 4923TIP3    H114775   3.438   3.446   4.025  1.3104 -1.8760  1.1496
 4923TIP3    H214776   3.316   3.385   4.090 -0.7990  0.7778 -0.1327
 4924TIP3   OH214777   4.957   3.212   0.967 -0.2012  0.2026 -0.8313
 4924TIP3    H114778   4.949   3.236   1.060  2.2285 -0.1889 -0.4364
 4924TIP3    H214779   4.935   3.292   0.919  0.1978  0.9404  0.1696
 4925TIP3   OH214780   0.713   4.515   2.700 -0.3054 -0.4548 -0.2454
 4925TIP3    H114781   0.700   4.591   2.644 -0.5183 -1.1678 -1.1791
 4925TIP3    H214782   0.653   4.449   2.666 -0.1995 -1.0205  0.6163
 4926TIP3   OH214783   0.381   0.091   4.031  0.0692 -0.2760 -0.2393
 4926TIP3    H114784   0.380   0.021   4.096 -1.1016 -0.7925 -0.8009
 4926TIP3    H214785   0.341   0.053   3.953  0.5868  0.6297 -0.9771
 4927TIP3   OH214786   0.828   4.032   4.649 -0.0468 -0.2084  0.5911
 4927TIP3    H114787   0.890   4.041   4.721  1.8613 -1.5978 -0.7810
 4927TIP3    H214788   0.883   4.029   4.570 -2.0238  0.9736 -0.9402
 4928TIP3   OH214789   1.308   3.245   4.636  0.0588  1.1329  0.2693
 4928TIP3    H114790   1.232   3.281   4.680 -0.2388  2.5218 -1.2758
 4928TIP3    H214791   1.272   3.182   4.574  0.0667  2.2242 -0.8869
 4929TIP3   OH214792   5.316   3.919   1.928 -0.3807  0.3426 -0.1285
 4929TIP3    H114793   5.306   3.975   1.851  0.2459  0.8124  0.1245
 4929TIP3    H214794   5.405   3.937   1.959 -0.1657 -0.7969 -0.0515
 4930TIP3   OH214795   1.760   4.194   2.178  0.2996 -0.1045 -0.1990
 4930TIP3    H114796   1.757   4.194   2.083  0.2453 -1.3576 -0.2157
 4930TIP3    H214797   1.847   4.229   2.200  0.1344  0.6254 -0.6851
 4931TIP3   OH214798   0.786   3.529   3.847  0.4792  0.0458 -0.0157
 4931TIP3    H114799   0.746   3.606   3.889 -1.3221 -0.0020 -1.5058
 4931TIP3    H214800   0.870   3.561   3.813  0.0610  1.1968 -0.0296
 4932TIP3   OH214801   4.462   3.033   3.474  0.0672 -0.1734 -0.1864
 4932TIP3    H114802   4.417   3.103   3.428  2.0147  0.4567 -1.2799
 4932TIP3    H214803   4.513   2.989   3.405  0.2863 -1.5116  0.7917
 4933TIP3   OH214804   1.182   5.038   0.199  0.0934  0.2099  0.0426
 4933TIP3    H114805   1.222   4.952   0.184 -0.2108 -0.1168  0.9841
 4933TIP3    H214806   1.238   5.078   0.265 -1.6398 -0.6867  2.2031
 4934TIP3   OH214807   2.641   0.165   4.846 -0.8457 -0.0326 -0.1662
 4934TIP3    H114808   2.697   0.122   4.782 -0.4485  1.3528 -0.7897
 4934TIP3    H214809   2.624   0.098   4.912  1.1404 -0.6471 -0.2182
 4935TIP3   OH214810   5.728   5.161   4.724  0.4110 -0.7043 -0.4599
 4935TIP3    H114811   5.640   5.154   4.686 -0.7203  0.7617  1.6674
 4935TIP3    H214812   5.787   5.130   4.655 -1.4473  1.8697 -3.4871
 4936TIP3   OH214813   5.815   0.783   4.505 -0.6379 -0.2398 -0.8175
 4936TIP3    H114814   5.729   0.820   4.523  0.0903  0.8367  0.6425
 4936TIP3    H214815   5.849   0.835   4.432 -0.4857  0.6228 -0.1561
 4937TIP3   OH214816   4.840   5.078   3.684  0.3236  0.1392  0.1658
 4937TIP3    H114817   4.914   5.027   3.719  0.8995  0.9424  0.1467
 4937TIP3    H214818   4.820   5.037   3.600  0.9739  0.1214  0.0147
 4938TIP3   OH214819   2.094   0.493   3.225 -0.0276 -0.2435 -0.7286
 4938TIP3    H114820   2.136   0.493   3.311 -1.5913 -2.3893  0.1268
 4938TIP3    H214821   2.144   0.428   3.175 -0.7844 -1.0039 -0.5125
 4939TIP3   OH214822   3.487   1.840   0.056  0.7096 -0.1065 -0.0696
 4939TIP3    H114823   3.426   1.877   0.120  0.2177 -3.1672  1.4071
 4939TIP3    H214824   3.568   1.827   0.105 -0.0954 -3.8247  0.5616
 4940TIP3   OH214825   2.217   1.810   3.444  0.2086 -0.1722 -0.6488
 4940TIP3    H114826   2.140   1.755   3.451 -0.0650  0.2203 -0.5404
 4940TIP3    H214827   2.183   1.899   3.433  0.6251  0.1179  0.2390
 4941TIP3   OH214828   3.353   0.187   2.899  0.4534  0.8854  0.0396
 4941TIP3    H114829   3.298   0.200   2.823  0.2804  0.4309  0.0817
 4941TIP3    H214830   3.359   0.092   2.908  3.2079  0.7985 -1.4192
 4942TIP3   OH214831   4.123   0.452   2.669 -0.7916 -0.0075  0.0459
 4942TIP3    H114832   4.217   0.449   2.651 -0.5568 -0.3686  1.2415
 4942TIP3    H214833   4.100   0.544   2.665 -0.6838 -0.0246 -1.6130
 4943TIP3   OH214834   5.789   0.238   4.313 -0.2065 -0.3816 -0.1587
 4943TIP3    H114835   5.870   0.186   4.318 -0.2277 -0.3663  0.4240
 4943TIP3    H214836   5.819   0.325   4.289 -0.1254 -0.5477 -0.6829
 4944TIP3   OH214837   1.801   3.750   1.004  0.3824  0.0798  0.1627
 4944TIP3    H114838   1.868   3.741   1.072  0.7603 -0.8123 -0.3133
 4944TIP3    H214839   1.732   3.689   1.031 -0.3954  1.1981  0.8010
 4945TIP3   OH214840   1.126   4.839   2.773 -0.2101 -0.0488 -0.5508
 4945TIP3    H114841   1.100   4.896   2.701 -1.2604  2.4986  1.6784
 4945TIP3    H214842   1.057   4.772   2.776 -1.4545  1.2037 -0.4804
 4946TIP3   OH214843   4.420   0.480   4.727  0.7682 -0.3559 -0.0241
 4946TIP3    H114844   4.392   0.475   4.818 -1.6806 -1.1356 -0.7394
 4946TIP3    H214845   4.412   0.391   4.694  0.3395  0.1323 -1.3184
 4947TIP3   OH214846   4.153   0.688   3.367 -0.2091 -0.3255  0.1386
 4947TIP3    H114847   4.231   0.640   3.337 -0.4885 -0.1998 -0.8406
 4947TIP3    H214848   4.186   0.776   3.385 -0.1722 -0.1655 -0.6390
 4948TIP3   OH214849   4.456   5.445   5.103 -0.1015  0.2274  0.1639
 4948TIP3    H114850   4.398   5.494   5.161  0.2124  0.7025  0.0831
 4948TIP3    H214851   4.397   5.388   5.053 -0.3559 -0.2973  1.0545
 4949TIP3   OH214852   5.482   4.820   4.556  0.4684 -0.9708 -0.4677
 4949TIP3    H114853   5.466   4.743   4.502 -0.0878  0.5684 -2.5853
 4949TIP3    H214854   5.411   4.880   4.535  1.4912  0.5767  0.2797
 4950TIP3   OH214855   5.276   2.141   2.368 -0.0563 -0.2222  0.0769
 4950TIP3    H114856   5.273   2.197   2.446  0.1492 -0.8909  0.5753
 4950TIP3    H214857   5.354   2.086   2.382  0.3813  0.1244 -0.9292
 4951TIP3   OH214858   2.123   2.677   4.317 -0.1039  0.2813 -0.4047
 4951TIP3    H114859   2.170   2.630   4.248 -0.8225 -0.9179 -0.1039
 4951TIP3    H214860   2.141   2.770   4.299  0.3067 -0.0332 -1.7789
 4952TIP3   OH214861   3.048   5.075   1.470  0.0599 -0.4300  0.4244
 4952TIP3    H114862   3.032   5.149   1.411  1.4321 -0.4435  0.0023
 4952TIP3    H214863   3.091   5.009   1.416 -1.1880 -1.6012  0.7827
 4953TIP3   OH214864   4.612   4.842   2.607 -0.3029  0.5099 -0.2094
 4953TIP3    H114865   4.526   4.871   2.637  0.7848  2.1091  1.6405
 4953TIP3    H214866   4.624   4.885   2.523 -0.0018  3.1083  1.0630
 4954TIP3   OH214867   3.828   2.456   0.628  0.6381  0.5499  0.1285
 4954TIP3    H114868   3.903   2.397   0.632  0.8722  0.6090 -2.0541
 4954TIP3    H214869   3.864   2.541   0.602 -0.1755  0.4864 -1.3432
 4955TIP3   OH214870   0.415   0.260   4.972  1.0478 -0.3473 -0.6290
 4955TIP3    H114871   0.494   0.287   4.925  2.8945 -0.1701  2.3478
 4955TIP3    H214872   0.439   0.176   5.012  0.2428  0.3580  1.4258
 4956TIP3   OH214873   4.030   3.516   3.779 -0.1004 -0.6896 -0.3584
 4956TIP3    H114874   3.952   3.524   3.834  1.2289  0.4624  1.4593
 4956TIP3    H214875   4.059   3.606   3.763  2.1675 -1.0632  1.0750
 4957TIP3   OH214876   4.320   3.117   3.699 -0.2963 -0.3157 -0.8370
 4957TIP3    H114877   4.357   3.074   3.622  0.7141 -0.1501 -0.4465
 4957TIP3    H214878   4.293   3.203   3.668 -2.4615 -1.1923 -1.6623
 4958TIP3   OH214879   5.430   2.415   1.057 -0.1625 -0.5772 -0.3784
 4958TIP3    H114880   5.363   2.483   1.049  0.7961  0.7074  1.6104
 4958TIP3    H214881   5.513   2.463   1.060  0.8540 -2.0740 -1.9847
 4959TIP3   OH214882   0.783   3.955   1.212  0.2450 -0.1180  0.0529
 4959TIP3    H114883   0.830   3.947   1.129  0.0692  0.7405 -0.1354
 4959TIP3    H214884   0.693   3.930   1.191  0.3278 -0.4987  0.1307
 4960TIP3   OH214885   6.252   0.343   2.332  0.4721 -0.0574  0.5653
 4960TIP3    H114886   6.304   0.390   2.268 -2.2188  0.3789 -1.5037
 4960TIP3    H214887   6.175   0.399   2.346 -0.3715 -1.4741  2.0082
 4961TIP3   OH214888   3.327   0.908   0.534  0.2741  0.1672  0.4899
 4961TIP3    H114889   3.242   0.909   0.579  0.5448 -0.6677  1.0560
 4961TIP3    H214890   3.346   0.815   0.521  1.7075  0.2696  1.5578
 4962TIP3   OH214891   3.697   1.066   3.129  0.4193 -1.0569  0.2596
 4962TIP3    H114892   3.783   1.053   3.089  0.8438 -1.9999  1.4207
 4962TIP3    H214893   3.715   1.111   3.212 -0.2984 -0.4803  0.1152
 4963TIP3   OH214894   0.573   4.947   4.371 -0.2949  0.1526  0.2468
 4963TIP3    H114895   0.609   4.993   4.447  1.9363 -0.7789 -0.1625
 4963TIP3    H214896   0.629   4.870   4.361 -1.1045 -0.2297 -1.8023
 4964TIP3   OH214897   5.166   4.469   5.038 -0.3325  0.0898  0.2492
 4964TIP3    H114898   5.155   4.476   5.132  2.0606 -1.4707  0.7428
 4964TIP3    H214899   5.180   4.375   5.022 -0.6966  0.3060 -1.6688
 4965TIP3   OH214900   4.768   5.748   0.196  0.6081 -0.2232 -0.2386
 4965TIP3    H114901   4.845   5.763   0.250  1.4560 -1.7648 -0.9664
 4965TIP3    H214902   4.760   5.653   0.191 -0.5449 -0.0937 -1.2965
 4966TIP3   OH214903   3.531   0.667   2.153  0.7288  0.3482  0.9524
 4966TIP3    H114904   3.609   0.717   2.127 -0.4666  1.4252 -0.7438
 4966TIP3    H214905   3.507   0.702   2.239  0.1061  2.5505 -0.0608
 4967TIP3   OH214906   3.675   0.272   4.314  0.3262 -0.7248  0.3565
 4967TIP3    H114907   3.632   0.271   4.228  0.1886  0.2813  0.3940
 4967TIP3    H214908   3.605   0.297   4.374  0.7829  0.1663  0.5284
 4968TIP3   OH214909   5.948   4.586   3.123  0.4476  0.2686  0.6163
 4968TIP3    H114910   5.997   4.586   3.205  0.2888 -3.7248  0.9018
 4968TIP3    H214911   5.864   4.545   3.146 -0.1739  0.4170 -1.2532
 4969TIP3   OH214912   4.719   4.945   4.020  0.1872  0.1861 -0.4248
 4969TIP3    H114913   4.671   5.026   4.036  0.0586 -0.3733  2.5224
 4969TIP3    H214914   4.671   4.878   4.068  0.9205 -1.4640 -1.8709
 4970TIP3   OH214915   5.736   3.268   4.152 -0.3444 -0.0803 -0.5034
 4970TIP3    H114916   5.825   3.278   4.186 -0.1655  0.1409 -1.0350
 4970TIP3    H214917   5.712   3.178   4.174  0.2605 -0.3548 -0.9555
 4971TIP3   OH214918   3.245   0.851   3.271 -0.0098 -0.1629 -0.1930
 4971TIP3    H114919   3.320   0.795   3.250  0.5974 -0.4522  2.4271
 4971TIP3    H214920   3.189   0.797   3.326 -1.6091  0.4399 -1.1605
 4972TIP3   OH214921   6.086   1.009   0.087 -0.0831 -0.1081  0.3820
 4972TIP3    H114922   6.112   1.039   0.174  0.1733 -0.0228  0.2768
 4972TIP3    H214923   6.018   0.943   0.104 -0.2844  0.1615  0.6318
 4973TIP3   OH214924   2.126   3.364   2.383  0.3343  0.2840  0.0987
 4973TIP3    H114925   2.107   3.444   2.335 -1.0958 -0.0776  0.0327
 4973TIP3    H214926   2.136   3.297   2.316  2.0254  0.4594  0.1206
 4974TIP3   OH214927   4.637   1.945   3.736 -0.1400 -0.1134 -0.2503
 4974TIP3    H114928   4.697   1.889   3.687  0.0856  0.7749 -1.0150
 4974TIP3    H214929   4.686   1.967   3.816 -0.1525 -0.8272 -0.0377
 4975TIP3   OH214930   3.916   0.660   2.052  0.1186  0.2684 -0.5610
 4975TIP3    H114931   3.961   0.738   2.019 -0.8334  1.0263 -0.1167
 4975TIP3    H214932   3.925   0.596   1.981  0.3373  0.9978 -1.2067
 4976TIP3   OH214933   3.941   0.715   3.199 -0.3199  0.8399 -0.0648
 4976TIP3    H114934   4.010   0.685   3.258 -0.4862  1.4000  0.4222
 4976TIP3    H214935   3.942   0.652   3.127 -0.6833 -0.3737  0.9433
 4977TIP3   OH214936   1.886   1.700   2.468 -0.3383  0.9780 -0.1676
 4977TIP3    H114937   1.917   1.707   2.558  3.3117 -0.8717 -1.1055
 4977TIP3    H214938   1.922   1.776   2.424  0.5954  0.2349 -0.7055
 4978TIP3   OH214939   5.797   0.123   2.708  0.6318  0.3552  0.0544
 4978TIP3    H114940   5.760   0.184   2.772  0.3192  0.3107 -0.0834
 4978TIP3    H214941   5.869   0.172   2.667 -0.2016  0.9759 -0.7140
 4979TIP3   OH214942   0.744   2.628   2.345 -0.0058 -0.0673  0.2006
 4979TIP3    H114943   0.819   2.579   2.311  0.2727  1.2414 -1.1696
 4979TIP3    H214944   0.763   2.638   2.438  0.3005 -1.8412  0.3692
 4980TIP3   OH214945   1.813   3.256   1.723  0.3486 -0.0909  0.2590
 4980TIP3    H114946   1.734   3.257   1.669 -1.4032  0.9503  2.6937
 4980TIP3    H214947   1.833   3.348   1.738  2.5758 -0.3053 -0.9594
 4981TIP3   OH214948   2.421   2.675   0.675 -0.0869 -0.1447 -0.1430
 4981TIP3    H114949   2.386   2.756   0.640 -0.7135 -0.7248 -0.8749
 4981TIP3    H214950   2.510   2.669   0.638  0.3906  0.7533  0.8124
 4982TIP3   OH214951   1.616   3.489   2.517 -0.3616  0.1729 -0.0066
 4982TIP3    H114952   1.592   3.436   2.593  2.2181  0.3846  1.0448
 4982TIP3    H214953   1.558   3.565   2.521 -1.9049 -0.9731  0.3088
 4983TIP3   OH214954   3.057   4.264   1.310 -0.1609  0.6060 -0.1782
 4983TIP3    H114955   3.077   4.315   1.389 -0.0153 -1.4951  1.2285
 4983TIP3    H214956   3.138   4.264   1.260  1.0785 -1.2986  1.6587
 4984TIP3   OH214957   4.914   5.160   3.262  0.7476 -0.7261 -0.0808
 4984TIP3    H114958   4.854   5.227   3.293  1.6010 -0.4332  1.0398
 4984TIP3    H214959   4.964   5.203   3.192  1.2050 -0.2105  0.5455
 4985TIP3   OH214960   1.144   4.329   5.121 -0.2900  0.3047 -0.2318
 4985TIP3    H114961   1.127   4.241   5.155  0.2412  0.6113  0.8789
 4985TIP3    H214962   1.062   4.376   5.135  0.5536  1.1239  3.0088
 4986TIP3   OH214963   4.976   5.771   3.027  0.2850  0.2750  0.2051
 4986TIP3    H114964   4.881   5.761   3.017  0.1489  1.0937  0.5985
 4986TIP3    H214965   4.989   5.865   3.043  1.2982  0.4494 -1.3422
 4987TIP3   OH214966   4.423   5.068   2.065  0.6398 -0.4857  0.1307
 4987TIP3    H114967   4.368   5.027   1.998  0.5123 -2.3693  1.3237
 4987TIP3    H214968   4.370   5.067   2.144  1.3354  0.3517  0.6243
 4988TIP3   OH214969   1.913   1.246   2.846 -0.3949 -0.0436 -0.2949
 4988TIP3    H114970   1.830   1.209   2.876  0.7990 -0.2235  3.2716
 4988TIP3    H214971   1.888   1.325   2.798 -2.6165 -0.5801 -0.1471
 4989TIP3   OH214972   2.119   5.044   2.777 -0.3167  0.4915  0.3041
 4989TIP3    H114973   2.057   5.062   2.847  0.8473 -2.9925  2.4872
 4989TIP3    H214974   2.073   4.985   2.718  1.0186 -3.1096  2.5792
 4990TIP3   OH214975   6.147   3.685   3.005 -0.3867  0.1230  0.2777
 4990TIP3    H114976   6.074   3.671   3.064 -0.3941 -1.1617 -0.0066
 4990TIP3    H214977   6.215   3.624   3.035 -0.1796 -0.1448 -0.6721
 4991TIP3   OH214978   0.569   2.480   4.804 -0.0372 -0.2272 -0.2812
 4991TIP3    H114979   0.568   2.502   4.897 -1.7882  0.6594 -0.4656
 4991TIP3    H214980   0.566   2.384   4.803 -1.1888 -0.2205  0.5863
 4992TIP3   OH214981   2.980   0.413   2.741  0.5532 -0.0486 -0.0989
 4992TIP3    H114982   2.946   0.452   2.660  0.8300 -1.2363 -0.8167
 4992TIP3    H214983   3.034   0.482   2.779 -1.8734  1.5699  0.6265
 4993TIP3   OH214984   0.061   3.547   0.509 -0.7741 -0.3171 -0.4413
 4993TIP3    H114985   0.087   3.456   0.493 -1.2350 -0.7139  0.9309
 4993TIP3    H214986   0.140   3.598   0.494 -0.5471 -0.9188 -1.3768
 4994TIP3   OH214987   1.711   4.305   1.148  0.7850  0.4113 -0.0087
 4994TIP3    H114988   1.694   4.327   1.057 -2.1991 -1.5905 -0.1038
 4994TIP3    H214989   1.769   4.229   1.145 -0.3555 -0.4886 -0.3977
 4995TIP3   OH214990   1.473   5.081   4.852 -0.7029  0.0175 -0.0343
 4995TIP3    H114991   1.537   5.054   4.917 -1.0864 -1.6740 -0.3131
 4995TIP3    H214992   1.395   5.104   4.903 -0.9270 -1.0837  0.1598
 4996TIP3   OH214993   1.486   0.701   1.376 -0.0084  0.0870  0.4958
 4996TIP3    H114994   1.552   0.653   1.326  1.5912  1.1482  1.5065
 4996TIP3    H214995   1.485   0.658   1.462 -1.1279 -0.3192  0.3032
 4997TIP3   OH214996   4.266   1.626   4.543  0.0325 -0.1303 -0.2391
 4997TIP3    H114997   4.175   1.608   4.568 -0.4242  1.2657 -0.7663
 4997TIP3    H214998   4.317   1.608   4.622 -0.5829 -1.6918 -0.1620
 4998TIP3   OH214999   5.163   0.453   1.311 -0.5775 -0.7350 -0.6148
 4998TIP3    H115000   5.231   0.401   1.268 -0.5616 -2.0997  0.9552
 4998TIP3    H215001   5.188   0.453   1.404 -0.3587  2.4567 -0.5479
 4999TIP3   OH215002   1.134   5.135   2.238  0.2206 -0.2086  0.2701
 4999TIP3    H115003   1.146   5.044   2.209  0.3488  0.5174 -2.0941
 4999TIP3    H215004   1.049   5.161   2.202  1.1634  1.2764 -0.9850
 5000TIP3   OH215005   5.508   0.263   1.718 -0.0986  0.1318  0.3793
 5000TIP3    H115006   5.530   0.223   1.802  1.8745 -0.7389 -0.4831
 5000TIP3    H215007   5.490   0.189   1.661 -0.7247  0.6840 -0.1472
 5001TIP3   OH215008   4.344   2.607   1.059 -0.3076 -0.3448  0.4830
 5001TIP3    H115009   4.358   2.625   0.966 -0.7429 -0.2127  0.4425
 5001TIP3    H215010   4.296   2.524   1.060 -2.0466  0.6240  0.5070
 5002TIP3   OH215011   0.577   3.623   3.598  0.1172  0.1339  0.4562
 5002TIP3    H115012   0.601   3.671   3.519 -0.8336 -0.3468 -0.1517
 5002TIP3    H215013   0.632   3.545   3.597 -0.0125  0.0461  0.1742
 5003TIP3   OH215014   2.150   1.348   2.957  0.7624 -0.4770  0.4218
 5003TIP3    H115015   2.069   1.305   2.927 -0.9312  1.4870  1.9108
 5003TIP3    H215016   2.124   1.397   3.034  3.2575  0.8389  0.5204
 5004TIP3   OH215017   5.243   5.596   5.122  0.5013 -0.2439  0.5700
 5004TIP3    H115018   5.256   5.652   5.045  1.2665 -1.8086 -0.4780
 5004TIP3    H215019   5.161   5.551   5.105 -0.9898  1.6726  2.1827
 5005TIP3   OH215020   5.589   2.115   5.027  0.1557 -0.6033  0.2110
 5005TIP3    H115021   5.641   2.177   4.976  1.0697 -1.3189  0.2424
 5005TIP3    H215022   5.506   2.107   4.980  0.6132 -0.5002 -0.6143
 5006TIP3   OH215023   3.520   3.948   5.043  0.1463  0.1871 -0.2980
 5006TIP3    H115024   3.614   3.963   5.054 -0.0186  0.3837  1.0829
 5006TIP3    H215025   3.511   3.853   5.035  0.5684  0.2617 -1.7740
 5007TIP3   OH215026   6.173   1.424   4.724 -0.3786 -0.3196 -0.1053
 5007TIP3    H115027   6.258   1.414   4.682 -0.3203 -0.7679  0.1111
 5007TIP3    H215028   6.123   1.479   4.664  0.3453  0.6792  0.1824
 5008TIP3   OH215029   4.456   2.370   1.486  0.1333 -0.0154 -0.0216
 5008TIP3    H115030   4.473   2.350   1.394 -3.8543 -0.9821 -0.7618
 5008TIP3    H215031   4.464   2.286   1.531  1.5552  0.3604  0.4790
 5009TIP3   OH215032   3.703   2.337   5.131 -0.2984  0.2322  0.4829
 5009TIP3    H115033   3.715   2.385   5.213 -0.5968 -0.7255  1.1155
 5009TIP3    H215034   3.783   2.285   5.122  0.2077  1.1401 -0.4166
 5010TIP3   OH215035   4.246   2.490   4.962  0.1690  0.2335  0.4136
 5010TIP3    H115036   4.325   2.535   4.932  0.5021  0.6203  1.7919
 5010TIP3    H215037   4.279   2.415   5.012 -0.3701 -0.6020 -0.4578
 5011TIP3   OH215038   4.437   2.813   0.609  0.2186 -0.0595 -0.1712
 5011TIP3    H115039   4.374   2.843   0.674  0.5100  0.9650 -0.3382
 5011TIP3    H215040   4.478   2.736   0.648  0.1917  0.3792  0.7384
 5012TIP3   OH215041   0.767   3.743   3.354  0.0236  0.5069  1.1095
 5012TIP3    H115042   0.696   3.775   3.299  0.6969  0.9514  0.4893
 5012TIP3    H215043   0.796   3.662   3.311 -0.4742  0.0149  1.6774
 5013TIP3   OH215044   0.447   2.895   5.187 -0.3818 -0.2333  0.2038
 5013TIP3    H115045   0.386   2.969   5.189  1.2873  1.1980  0.6408
 5013TIP3    H215046   0.430   2.852   5.104 -1.6339  0.4293  0.0911
 5014TIP3   OH215047   3.444   3.006   2.964 -0.1934 -0.6048  0.9274
 5014TIP3    H115048   3.386   2.931   2.975 -0.2443 -1.2282 -2.5666
 5014TIP3    H215049   3.408   3.054   2.890  2.2963  0.4074  0.2654
 5015TIP3   OH215050   4.614   0.534   4.539 -0.3685 -0.1492  0.0582
 5015TIP3    H115051   4.671   0.527   4.616 -0.2236  0.0908 -0.0250
 5015TIP3    H215052   4.526   0.519   4.574 -0.3142  0.0493  0.2886
 5016TIP3   OH215053   2.416   4.549   1.018  0.5487  0.7457 -0.3435
 5016TIP3    H115054   2.368   4.562   0.936  0.8911 -2.9231 -1.2892
 5016TIP3    H215055   2.353   4.571   1.087 -1.9767 -2.0615 -1.5644
 5017TIP3   OH215056   1.799   0.017   1.485 -0.1673 -0.2076 -0.2026
 5017TIP3    H115057   1.886  -0.004   1.519  1.4695  0.8604 -3.3372
 5017TIP3    H215058   1.803  -0.009   1.392 -3.9242 -1.9995 -0.0515
 5018TIP3   OH215059   4.094   5.437   3.135 -0.0481  0.6898  0.1422
 5018TIP3    H115060   4.178   5.392   3.143 -0.3780 -0.2934 -1.5641
 5018TIP3    H215061   4.065   5.448   3.226 -0.3289 -3.3286  0.7259
 5019TIP3   OH215062   0.286   5.577   4.949  0.3141 -0.0750 -0.3429
 5019TIP3    H115063   0.272   5.489   4.985  0.7555 -1.1841 -2.6591
 5019TIP3    H215064   0.368   5.607   4.989 -0.1991 -0.4044  0.9954
 5020TIP3   OH215065   1.947   1.505   4.765 -0.5044 -0.2715 -0.1190
 5020TIP3    H115066   2.011   1.522   4.834  0.5538  0.7037 -1.2937
 5020TIP3    H215067   1.944   1.409   4.758 -0.0975 -0.3584  0.7724
 5021TIP3   OH215068   2.969   3.357   0.869  0.2710  0.4632 -0.0748
 5021TIP3    H115069   2.919   3.276   0.857 -0.5679  0.7297  1.3118
 5021TIP3    H215070   2.905   3.427   0.853  0.5670  0.8306  0.3206
 5022TIP3   OH215071   5.739   5.794   1.562  0.1402 -0.1433  0.0760
 5022TIP3    H115072   5.782   5.775   1.645 -0.2861  1.1341  0.6148
 5022TIP3    H215073   5.749   5.888   1.551 -2.2237  0.1768  0.1056
 5023TIP3   OH215074   1.927   1.076   2.108 -0.0276  0.0024  1.1245
 5023TIP3    H115075   1.935   1.143   2.041 -1.7466  0.5793  1.4532
 5023TIP3    H215076   1.981   1.107   2.180  0.4149  0.2528  0.6894
 5024TIP3   OH215077   3.927   1.711   4.031  0.1855  0.3207  0.3361
 5024TIP3    H115078   3.942   1.801   4.058  2.0024  1.0791 -2.6931
 5024TIP3    H215079   3.833   1.707   4.013  0.3577  2.3224 -1.4244
 5025TIP3   OH215080   4.253   4.297   3.836  0.3337 -0.0461 -0.1332
 5025TIP3    H115081   4.290   4.232   3.776  1.9909  0.4573  0.2878
 5025TIP3    H215082   4.264   4.259   3.923 -1.5086 -0.5117 -0.0746
 5026TIP3   OH215083   1.636   3.552   3.557 -0.1018  0.1232  0.9150
 5026TIP3    H115084   1.706   3.601   3.601 -0.2970  0.7324  0.5612
 5026TIP3    H215085   1.682   3.496   3.494  0.0854  0.3928  0.8083
 5027TIP3   OH215086   2.091   4.403   0.530 -0.0368 -0.2792 -0.5642
 5027TIP3    H115087   2.028   4.426   0.599 -0.4839 -0.3837 -0.9374
 5027TIP3    H215088   2.176   4.421   0.570 -0.3426  1.5896 -0.6639
 5028TIP3   OH215089   4.863   2.834   1.833 -0.7094 -0.3164 -0.1803
 5028TIP3    H115090   4.953   2.839   1.800  0.4102 -1.2954  2.5203
 5028TIP3    H215091   4.837   2.743   1.820 -0.7218 -0.4090  0.4683
 5029TIP3   OH215092   0.234   3.714   5.133 -0.1127  0.0437 -0.5078
 5029TIP3    H115093   0.244   3.800   5.091  2.1752  0.3608  0.5606
 5029TIP3    H215094   0.174   3.730   5.206 -0.1545  0.6087 -0.6593
 5030TIP3   OH215095   4.997   2.333   4.018  0.2867  0.1985 -0.5269
 5030TIP3    H115096   5.062   2.403   4.028  0.2897  0.1436 -0.1588
 5030TIP3    H215097   4.943   2.360   3.943  0.5911  0.3542 -0.6926
 5031TIP3   OH215098   0.293   3.329   3.994 -0.1355  0.4575 -0.2296
 5031TIP3    H115099   0.360   3.355   3.930  1.1800  3.2235  2.0365
 5031TIP3    H215100   0.231   3.402   3.993 -1.7378 -0.8513 -0.3808
 5032TIP3   OH215101   5.735   5.141   2.251  0.5243  0.1651 -0.0698
 5032TIP3    H115102   5.661   5.166   2.306  0.9123  1.0185  0.0815
 5032TIP3    H215103   5.766   5.058   2.288 -0.9362 -0.7019 -0.7226
 5033TIP3   OH215104   4.694   2.869   2.217 -0.3290  0.1645 -0.8476
 5033TIP3    H115105   4.715   2.948   2.268  1.7343 -0.8227 -0.0553
 5033TIP3    H215106   4.667   2.805   2.282  0.1272 -0.4440 -1.2522
 5034TIP3   OH215107   0.682   0.533   0.104  0.0457  0.3780  0.6858
 5034TIP3    H115108   0.708   0.496   0.189 -1.0734 -0.3419  0.7275
 5034TIP3    H215109   0.633   0.612   0.126 -1.0578 -0.3110  0.7662
 5035TIP3   OH215110   1.675   2.680   1.015  0.4924 -0.1328  0.2872
 5035TIP3    H115111   1.585   2.696   1.042  0.3219 -1.9345  0.9276
 5035TIP3    H215112   1.712   2.626   1.085  0.8896 -2.6043 -1.6798
 5036TIP3   OH215113   4.074   5.962   3.331 -0.0955  0.0135  0.7206
 5036TIP3    H115114   4.153   6.000   3.371  1.4532 -1.6002 -0.6448
 5036TIP3    H215115   4.101   5.940   3.242 -2.0557 -0.7785  0.2792
 5037TIP3   OH215116   2.038   0.314   1.312 -0.2188 -0.3341  0.1176
 5037TIP3    H115117   2.018   0.352   1.397 -0.7020 -1.7506  0.6660
 5037TIP3    H215118   1.952   0.294   1.274 -0.0267  0.6104 -0.8781
 5038TIP3   OH215119   2.763   4.889   4.800 -0.1733  0.1446 -0.4918
 5038TIP3    H115120   2.684   4.932   4.835 -0.6060 -0.4440 -0.7333
 5038TIP3    H215121   2.779   4.933   4.717 -1.0026 -0.5748 -1.0583
 5039TIP3   OH215122   5.731   4.788   2.959  0.1315  0.2788  0.0517
 5039TIP3    H115123   5.699   4.815   2.873 -0.6409  0.2778  0.3342
 5039TIP3    H215124   5.751   4.695   2.949 -0.7224  0.0860  0.0881
 5040TIP3   OH215125   5.183   4.396   0.464  0.0880 -0.7266 -0.3110
 5040TIP3    H115126   5.139   4.311   0.456 -0.4316 -0.5307  0.3570
 5040TIP3    H215127   5.205   4.420   0.374  1.9033 -2.4066 -0.3755
 5041TIP3   OH215128   4.130   4.035   4.695 -0.3316 -0.2618 -0.0004
 5041TIP3    H115129   4.179   4.000   4.769 -0.3010  1.3763  0.8069
 5041TIP3    H215130   4.095   4.119   4.726 -0.9134  0.1407 -1.6064
 5042TIP3   OH215131   5.668   3.841   2.116  0.6914  0.6212 -0.2035
 5042TIP3    H115132   5.677   3.746   2.110 -0.3630  0.4746  0.2253
 5042TIP3    H215133   5.740   3.869   2.171  1.0763  0.0824 -0.4271
 5043TIP3   OH215134   2.755   0.763   4.084  0.0908  0.0973  0.4356
 5043TIP3    H115135   2.777   0.691   4.143  1.2113 -0.4359 -0.5870
 5043TIP3    H215136   2.838   0.808   4.069 -0.4324  1.0505  0.3317
 5044TIP3   OH215137   2.565   1.452   2.554  0.5411  0.1770 -0.2555
 5044TIP3    H115138   2.565   1.392   2.628  1.5324 -0.0770 -0.4472
 5044TIP3    H215139   2.487   1.507   2.567 -0.2137 -0.9467  0.0735
 5045TIP3   OH215140   6.143   0.613   4.160  0.0572 -1.2666  0.4106
 5045TIP3    H115141   6.165   0.625   4.252 -1.8152 -0.1658  0.7580
 5045TIP3    H215142   6.071   0.674   4.144 -0.0319 -1.8355 -1.6483
 5046TIP3   OH215143   0.180   2.782   4.208  0.0182 -0.5895  0.5633
 5046TIP3    H115144   0.186   2.857   4.149  1.5440  0.2053  1.6488
 5046TIP3    H215145   0.166   2.707   4.151  0.3516  0.2875 -0.7087
 5047TIP3   OH215146   0.332   1.322   0.915 -0.3218 -0.1408  0.7260
 5047TIP3    H115147   0.392   1.379   0.962 -0.9162  0.4520  0.7817
 5047TIP3    H215148   0.280   1.381   0.860 -1.5662 -0.4972  1.4646
 5048TIP3   OH215149   2.495   0.979   1.340  0.1443 -0.4343 -0.6422
 5048TIP3    H115150   2.569   0.950   1.392  0.4231  0.3426 -0.5815
 5048TIP3    H215151   2.419   0.964   1.396  0.3141 -0.7649 -0.5025
 5049TIP3   OH215152   0.799   0.690   5.173  0.1600  0.3370  0.0502
 5049TIP3    H115153   0.871   0.627   5.176  1.5591  1.8768 -0.3142
 5049TIP3    H215154   0.751   0.668   5.093  0.0391 -0.8604  0.4274
 5050TIP3   OH215155   0.628   3.044   1.813 -0.7811 -0.3402  0.2609
 5050TIP3    H115156   0.716   3.036   1.850  0.1523  2.0469 -1.1999
 5050TIP3    H215157   0.643   3.065   1.721 -2.8995 -0.2877 -0.1135
 5051TIP3   OH215158   3.121   4.141   1.051  0.3606 -0.0459  0.1016
 5051TIP3    H115159   3.065   4.201   1.002  0.2230  0.4250  0.8192
 5051TIP3    H215160   3.062   4.071   1.079  0.6999 -1.0058 -1.5007
 5052TIP3   OH215161   1.923   4.300   3.724  0.4017 -0.0990 -0.0113
 5052TIP3    H115162   1.961   4.334   3.643 -0.3006  1.9045  0.4446
 5052TIP3    H215163   1.974   4.342   3.794 -0.6669  0.2384  0.5796
 5053TIP3   OH215164   2.966   5.021   0.748 -0.6509 -0.1528 -0.2725
 5053TIP3    H115165   2.897   5.028   0.814 -0.7918 -0.6050 -0.3717
 5053TIP3    H215166   2.991   5.112   0.730 -1.1194  0.0064 -0.1355
 5054TIP3   OH215167   5.979   2.961   1.355 -0.3371 -0.4297 -0.1385
 5054TIP3    H115168   5.956   3.042   1.309  1.2381  0.6253  0.8654
 5054TIP3    H215169   5.949   2.891   1.296 -0.2023  0.8723 -1.8265
 5055TIP3   OH215170   4.953   2.959   0.459  0.7695 -0.4090 -0.2727
 5055TIP3    H115171   4.867   2.934   0.493  1.8368 -1.1290  2.0891
 5055TIP3    H215172   4.982   3.030   0.517  1.7868 -0.1959 -1.0141
 5056TIP3   OH215173   0.842   0.572   2.714 -0.2749 -0.3922  0.1377
 5056TIP3    H115174   0.808   0.516   2.784 -1.1940 -2.3270 -1.7535
 5056TIP3    H215175   0.897   0.514   2.661 -0.3015  0.7952 -1.2364
 5057TIP3   OH215176   2.312   1.003   1.574  0.9979  0.5288  0.0766
 5057TIP3    H115177   2.291   1.094   1.556 -1.3102 -0.2488 -1.7208
 5057TIP3    H215178   2.265   0.983   1.655 -1.3115  0.1804 -1.2352
 5058TIP3   OH215179   4.393   2.363   4.246 -0.4322  0.2977 -0.7061
 5058TIP3    H115180   4.394   2.269   4.262  0.4191  0.4181  0.0084
 5058TIP3    H215181   4.479   2.382   4.206 -0.7844  0.6986 -1.2993
 5059TIP3   OH215182   0.344   0.173   1.010 -0.6059  0.3217  0.4495
 5059TIP3    H115183   0.427   0.220   1.008 -1.8821  2.7222 -1.1548
 5059TIP3    H215184   0.347   0.116   0.933 -1.3168  2.2551 -1.1115
 5060TIP3   OH215185   2.725   5.859   0.995  0.0416 -0.2151  0.1584
 5060TIP3    H115186   2.766   5.811   1.067 -0.0665 -1.8292 -0.8209
 5060TIP3    H215187   2.632   5.864   1.019 -0.0524 -1.0402  0.0002
 5061TIP3   OH215188   0.348   4.844   2.730  0.3024  0.0642  0.4009
 5061TIP3    H115189   0.424   4.793   2.756 -0.7570 -2.1009 -0.4819
 5061TIP3    H215190   0.343   4.915   2.794  1.4172 -1.3966  2.1992
 5062TIP3   OH215191   1.693   1.105   2.981  0.3995  0.2558  0.3199
 5062TIP3    H115192   1.697   1.067   3.069  0.6878 -1.3831 -0.3699
 5062TIP3    H215193   1.605   1.143   2.975  0.3029  0.1932  1.2304
 5063TIP3   OH215194   0.273   1.581   0.058 -0.4569 -0.2019  0.1811
 5063TIP3    H115195   0.210   1.592  -0.013  0.0534 -0.4921 -0.3269
 5063TIP3    H215196   0.345   1.639   0.034  0.2144 -1.1476 -0.1271
 5064TIP3   OH215197   3.843   0.012   1.626  0.5837  0.2083 -0.4614
 5064TIP3    H115198   3.922   0.034   1.577  0.4639  0.9522 -0.3370
 5064TIP3    H215199   3.780  -0.015   1.559  0.8667 -0.1807 -0.5792
 5065TIP3   OH215200   5.408   5.112   0.074 -0.0638 -0.1159  0.8852
 5065TIP3    H115201   5.495   5.081   0.050 -0.6537 -0.6152 -0.7452
 5065TIP3    H215202   5.419   5.206   0.087  0.8363 -0.2755  1.3619
 5066TIP3   OH215203   2.579   3.474   4.114  0.0186  0.1225 -0.1075
 5066TIP3    H115204   2.567   3.551   4.169 -1.3875  1.5356 -2.2280
 5066TIP3    H215205   2.517   3.410   4.148  0.4605  0.2825  1.0395
 5067TIP3   OH215206   4.929   1.056   4.269  0.1880 -0.0644 -0.3636
 5067TIP3    H115207   4.863   1.000   4.228 -0.4619  0.8654 -0.6348
 5067TIP3    H215208   5.008   1.003   4.271 -0.0469 -0.5280 -1.8556
 5068TIP3   OH215209   4.878   5.322   2.675 -0.4946  0.0425  0.3780
 5068TIP3    H115210   4.958   5.277   2.646 -0.8893 -1.0974  1.0135
 5068TIP3    H215211   4.841   5.359   2.595  0.6704  0.6151  0.0697
 5069TIP3   OH215212   5.419   5.843   1.982  0.1154  0.4651  0.0601
 5069TIP3    H115213   5.433   5.813   2.072  0.8562 -2.6696 -0.9619
 5069TIP3    H215214   5.366   5.774   1.942  1.4723  0.7666 -2.4386
 5070TIP3   OH215215   0.546   4.122   3.598  0.2272  0.7055  0.0640
 5070TIP3    H115216   0.558   4.029   3.615 -1.5292 -0.0044 -2.1353
 5070TIP3    H215217   0.474   4.127   3.535 -1.4034  3.6946  1.8762
 5071TIP3   OH215218   6.192   0.597   0.693 -0.5954 -0.0057  0.6007
 5071TIP3    H115219   6.187   0.551   0.609  1.0405  0.2626  0.3318
 5071TIP3    H215220   6.168   0.688   0.672 -3.6564 -0.5780  1.1020
 5072TIP3   OH215221   0.577   3.487   2.082 -0.1730  0.2105 -0.4703
 5072TIP3    H115222   0.581   3.561   2.021 -0.1341  0.2007 -0.4794
 5072TIP3    H215223   0.556   3.526   2.166  0.7821  0.3406 -0.2810
 5073TIP3   OH215224   4.290   0.312   2.221  0.2959 -0.1578  0.1422
 5073TIP3    H115225   4.220   0.280   2.278  0.0269  1.2943  0.6749
 5073TIP3    H215226   4.325   0.389   2.267  0.7785  0.4205 -1.1453
 5074TIP3   OH215227   5.856   4.289   4.093  0.5405  0.0103  0.4056
 5074TIP3    H115228   5.898   4.240   4.164  0.8596 -0.8716 -0.3742
 5074TIP3    H215229   5.910   4.270   4.016 -0.1993  0.4028 -0.2204
 5075TIP3   OH215230   1.025   0.886   3.236 -0.4774  0.0104 -0.2264
 5075TIP3    H115231   1.009   0.946   3.163 -0.3947  1.7707  1.1474
 5075TIP3    H215232   0.938   0.861   3.266 -0.5632  1.0306  0.4262
 5076TIP3   OH215233   2.206   5.309   1.711 -0.0315  0.2404 -0.0852
 5076TIP3    H115234   2.138   5.321   1.777 -0.1482  0.5117 -0.2559
 5076TIP3    H215235   2.189   5.376   1.645  0.7008  0.6468  0.1229
 5077TIP3   OH215236   0.969   0.259   2.200  0.0084  0.0544  0.6524
 5077TIP3    H115237   0.920   0.240   2.120  1.6404  1.1959 -0.6838
 5077TIP3    H215238   0.948   0.187   2.259  0.7024 -2.2032 -1.7167
 5078TIP3   OH215239   1.924   2.554   4.909 -0.4786  0.5790  0.2875
 5078TIP3    H115240   1.919   2.554   4.813 -0.3328 -0.4554  0.2700
 5078TIP3    H215241   1.857   2.616   4.936 -0.6671  0.7239 -0.4797
 5079TIP3   OH215242   0.594   4.601   1.272 -0.1012 -0.0375  0.3862
 5079TIP3    H115243   0.667   4.631   1.217  0.4320 -2.3167 -0.2620
 5079TIP3    H215244   0.517   4.639   1.230  0.6319  2.2256  0.9446
 5080TIP3   OH215245   3.425   1.445   4.145  0.0701 -0.4469 -0.2183
 5080TIP3    H115246   3.357   1.378   4.152 -1.6397  1.3671  3.1678
 5080TIP3    H215247   3.377   1.528   4.148  2.2576  0.9904 -1.6966
 5081TIP3   OH215248   4.592   3.767   4.887  0.0979  0.0170  0.3209
 5081TIP3    H115249   4.604   3.850   4.934 -0.9511 -0.5529  1.6449
 5081TIP3    H215250   4.671   3.717   4.906  0.3654  0.3816  0.1910
 5082TIP3   OH215251   0.160   1.315   0.490  0.0218 -0.4305 -0.0191
 5082TIP3    H115252   0.178   1.224   0.515 -1.0349 -0.7916 -0.5283
 5082TIP3    H215253   0.160   1.315   0.395 -1.0011 -0.1128 -0.0283
 5083TIP3   OH215254   1.480   5.295   3.566 -0.4383  0.2888  0.4156
 5083TIP3    H115255   1.398   5.271   3.609 -0.3820  1.9225  1.5053
 5083TIP3    H215256   1.548   5.255   3.619 -0.4899 -0.7742 -0.2908
 5084TIP3   OH215257   0.407   0.407   1.541  0.4414 -0.3189 -0.0614
 5084TIP3    H115258   0.314   0.430   1.536  0.2509 -0.6861  1.2380
 5084TIP3    H215259   0.412   0.321   1.498 -0.0635 -0.8668  0.9278
 5085TIP3   OH215260   2.622   0.146   1.739 -0.2030 -0.9444  0.0874
 5085TIP3    H115261   2.677   0.152   1.817 -1.6839 -1.3662  1.1958
 5085TIP3    H215262   2.683   0.160   1.666  0.8884  1.5695  1.3614
 5086TIP3   OH215263   6.225   0.636   3.329 -0.4286 -0.6312 -0.0908
 5086TIP3    H115264   6.213   0.730   3.344 -1.6413 -1.1150  2.5693
 5086TIP3    H215265   6.178   0.618   3.248 -3.6699  0.4706  1.3883
 5087TIP3   OH215266   5.992   5.385   3.261 -0.5079  0.4200  0.1261
 5087TIP3    H115267   5.970   5.368   3.352 -1.7381  0.2623 -0.1716
 5087TIP3    H215268   6.006   5.479   3.256 -0.9796  0.5042  0.3752
 5088TIP3   OH215269   1.452   4.414   2.065 -0.1214  0.5350 -0.1908
 5088TIP3    H115270   1.446   4.324   2.031 -0.4752  0.3284  0.4112
 5088TIP3    H215271   1.405   4.467   2.001 -1.4203  0.0474  0.3210
 5089TIP3   OH215272   6.068   1.002   2.650 -0.4402 -0.0189  0.0756
 5089TIP3    H115273   6.054   1.064   2.722 -1.4875 -0.6618  0.4671
 5089TIP3    H215274   5.985   1.004   2.601  0.1928  0.2618 -1.0075
 5090TIP3   OH215275   6.264   3.344   4.685 -0.2863  0.6180  0.2215
 5090TIP3    H115276   6.322   3.403   4.637 -1.3025  0.7168 -0.9461
 5090TIP3    H215277   6.277   3.259   4.643 -1.3386  0.7474 -0.4040
 5091TIP3   OH215278   1.307   5.909   0.218  0.1215  0.0768  0.1713
 5091TIP3    H115279   1.299   5.814   0.209  2.3357 -0.1143 -0.3379
 5091TIP3    H215280   1.383   5.921   0.274  2.1007  1.5190 -2.6213
 5092TIP3   OH215281   2.170   4.101   5.082  0.4539  0.3615  0.3435
 5092TIP3    H115282   2.245   4.124   5.137  0.6757  1.2007 -0.2855
 5092TIP3    H215283   2.206   4.097   4.993 -0.3170  1.1558 -0.0176
 5093TIP3   OH215284   1.521   0.133   4.401 -0.2084 -0.9110  0.1211
 5093TIP3    H115285   1.605   0.090   4.387 -0.9661 -2.4306  0.0500
 5093TIP3    H215286   1.502   0.119   4.494 -1.2087 -2.2005 -0.2455
 5094TIP3   OH215287   5.004   0.738   0.783  0.0198  0.0656  0.2900
 5094TIP3    H115288   5.001   0.798   0.708 -0.9095  0.6280  0.7614
 5094TIP3    H215289   5.018   0.652   0.745 -4.7858 -0.4049 -0.9927
 5095TIP3   OH215290   2.347   5.749   5.136 -0.1848  0.0062  0.4600
 5095TIP3    H115291   2.265   5.783   5.102 -0.3515 -0.3880  0.4602
 5095TIP3    H215292   2.387   5.823   5.182  0.6402  0.9349 -1.6082
 5096TIP3   OH215293   0.661   5.394   0.182 -0.1220  0.3960 -0.4321
 5096TIP3    H115294   0.671   5.306   0.144 -0.6544 -0.4130  1.2266
 5096TIP3    H215295   0.595   5.384   0.250  0.0159  2.0417 -0.0105
 5097TIP3   OH215296   0.476   5.322   0.373 -0.0434 -0.0512 -0.5245
 5097TIP3    H115297   0.477   5.372   0.454  0.5145 -0.2314 -0.4152
 5097TIP3    H215298   0.385   5.295   0.363 -0.8261  2.6790 -1.6645
 5098TIP3   OH215299   2.805   4.058   2.447  0.0984  0.1492  0.0939
 5098TIP3    H115300   2.723   4.016   2.422 -0.6607  2.0757 -0.8839
 5098TIP3    H215301   2.831   4.015   2.528 -1.3091 -1.2269 -0.1451
 5099TIP3   OH215302   5.976   3.556   2.171  0.3651  0.5535  0.1903
 5099TIP3    H115303   5.979   3.543   2.266 -0.5569  1.0221  0.2891
 5099TIP3    H215304   6.053   3.508   2.138 -0.1210 -0.8496  1.0183
 5100TIP3   OH215305   2.886   1.321   1.880  0.3015 -0.4932 -0.4213
 5100TIP3    H115306   2.973   1.282   1.889 -0.0426 -0.9549  1.0594
 5100TIP3    H215307   2.826   1.255   1.916 -0.5370  0.4004 -0.1479
 5101TIP3   OH215308   1.838   1.327   0.910 -0.3464 -0.2065  0.1092
 5101TIP3    H115309   1.769   1.386   0.940 -0.8070 -0.5043 -0.3616
 5101TIP3    H215310   1.806   1.239   0.930  0.6951 -0.2905  1.5568
 5102TIP3   OH215311   4.073   4.096   3.189  0.1552 -0.2458  0.4815
 5102TIP3    H115312   4.087   4.031   3.121 -2.7086 -1.1931  0.6636
 5102TIP3    H215313   4.108   4.056   3.269  1.2826 -0.1732  0.0366
 5103TIP3   OH215314   3.635   1.789   3.160 -0.2031 -0.3229 -0.0482
 5103TIP3    H115315   3.571   1.720   3.174 -0.7879  0.1860 -0.1649
 5103TIP3    H215316   3.643   1.795   3.064  1.4660 -1.6869 -0.0293
 5104TIP3   OH215317   4.238   5.260   1.958 -0.0392 -0.0271  0.6295
 5104TIP3    H115318   4.293   5.303   1.892  1.0096 -0.0185  1.4888
 5104TIP3    H215319   4.293   5.256   2.036 -2.1533  2.4775  2.4277
 5105TIP3   OH215320   5.287   2.637   1.029 -0.2259  0.1892 -0.2072
 5105TIP3    H115321   5.321   2.708   0.974  2.2573  0.1428  1.0989
 5105TIP3    H215322   5.249   2.681   1.105  1.3838  0.1969  0.6404
 5106TIP3   OH215323   5.944   2.766   3.452  0.6388 -0.5258 -0.1103
 5106TIP3    H115324   5.883   2.692   3.448 -0.9353  0.7245 -0.1596
 5106TIP3    H215325   5.975   2.777   3.362 -1.4953  0.7189 -0.7735
 5107TIP3   OH215326   1.070   0.034   3.717 -0.0726 -0.1639  0.3412
 5107TIP3    H115327   1.096   0.052   3.808 -0.7901 -2.3438  1.0447
 5107TIP3    H215328   1.090  -0.059   3.705 -0.7724 -0.1079 -1.4753
 5108TIP3   OH215329   2.771   3.825   3.683 -0.3395 -0.6634  0.2263
 5108TIP3    H115330   2.735   3.784   3.604  1.0252 -0.2873 -0.6315
 5108TIP3    H215331   2.846   3.770   3.707 -0.2466 -0.3071  0.7812
 5109TIP3   OH215332   3.588   2.976   0.907  0.1743 -0.0674 -0.2791
 5109TIP3    H115333   3.617   2.951   0.995  0.4501  0.1812 -0.3000
 5109TIP3    H215334   3.518   2.913   0.887  0.0453 -0.0667  0.1542
 5110TIP3   OH215335   1.880   3.764   3.668 -0.0070 -0.7313 -0.8648
 5110TIP3    H115336   1.931   3.700   3.617  2.6798  0.5896 -0.0220
 5110TIP3    H215337   1.921   3.848   3.649 -0.7190  0.1759  1.3135
 5111TIP3   OH215338   6.276   3.685   1.915 -0.0326 -0.4930 -0.5214
 5111TIP3    H115339   6.268   3.621   1.985 -2.0063  0.0463 -0.1991
 5111TIP3    H215340   6.366   3.674   1.883  1.0316 -0.6236  2.2003
 5112TIP3   OH215341   1.767   2.678   0.318  0.3906 -0.2130 -0.7843
 5112TIP3    H115342   1.687   2.625   0.322  0.2283  0.0910  1.1714
 5112TIP3    H215343   1.816   2.642   0.244 -0.6723 -1.6852 -0.8255
 5113TIP3   OH215344   0.708   3.772   3.985 -0.5318  0.2417 -0.0176
 5113TIP3    H115345   0.672   3.787   4.072 -2.5558  2.7356 -1.1675
 5113TIP3    H215346   0.803   3.784   3.996 -0.4916 -1.4542  2.1307
 5114TIP3   OH215347   3.525   1.597   3.590  0.0550 -0.7711  0.0746
 5114TIP3    H115348   3.555   1.569   3.677  0.5887 -1.7117 -0.4042
 5114TIP3    H215349   3.470   1.525   3.560 -1.0064  0.0306  0.0718
 5115TIP3   OH215350   3.371   1.169   0.907 -0.4009 -0.5424 -0.8225
 5115TIP3    H115351   3.308   1.142   0.973  0.8395 -0.5842  0.3914
 5115TIP3    H215352   3.428   1.092   0.895 -0.0309 -0.2116 -1.2284
 5116TIP3   OH215353   3.414   3.208   1.022 -0.0971  0.4411 -0.1307
 5116TIP3    H115354   3.399   3.130   1.076  0.1759 -1.8087 -3.0537
 5116TIP3    H215355   3.509   3.220   1.021 -0.0979  0.4481 -0.1393
 5117TIP3   OH215356   1.920   3.890   3.140  0.2870  0.6275 -0.1160
 5117TIP3    H115357   1.879   3.819   3.091  0.9910  0.0304  0.1532
 5117TIP3    H215358   1.882   3.970   3.102 -2.2438  0.0886  1.1281
 5118TIP3   OH215359   4.940   2.339   4.482  0.2819  0.3668 -0.1732
 5118TIP3    H115360   4.986   2.416   4.449 -0.2977  0.7258 -0.1648
 5118TIP3    H215361   5.007   2.270   4.486  1.4598  1.5201  2.2039
 5119TIP3   OH215362   4.350   5.414   4.318  0.0330 -0.3534 -0.1929
 5119TIP3    H115363   4.355   5.502   4.353 -1.0580 -0.5117  0.4212
 5119TIP3    H215364   4.439   5.380   4.323  0.3394  0.4889  0.1410
 5120TIP3   OH215365   4.838   1.009   0.284  0.2559  0.2114 -0.4481
 5120TIP3    H115366   4.773   0.941   0.303 -1.5523  1.4418 -1.8730
 5120TIP3    H215367   4.786   1.089   0.273  2.2564  1.7133  0.5111
 5121TIP3   OH215368   4.716   3.104   2.402 -0.2247 -0.1052  0.3413
 5121TIP3    H115369   4.623   3.121   2.419 -0.3108 -0.8219  0.6057
 5121TIP3    H215370   4.762   3.147   2.474 -0.4001 -0.3679  0.6147
 5122TIP3   OH215371   4.609   0.783   4.782  0.3908  0.6529 -0.2725
 5122TIP3    H115372   4.519   0.753   4.772  0.1612  1.3080 -0.2278
 5122TIP3    H215373   4.610   0.870   4.742  0.6268  1.2869  1.0529
 5123TIP3   OH215374   0.282   1.252   4.514  0.4794 -0.2347 -0.0934
 5123TIP3    H115375   0.284   1.335   4.467  1.3624  0.1255  0.5637
 5123TIP3    H215376   0.355   1.202   4.478 -1.6147 -1.8688 -2.4440
 5124TIP3   OH215377   5.901   3.676   1.315  0.2444 -0.2464 -0.3042
 5124TIP3    H115378   5.982   3.723   1.298  0.9621 -1.2272  0.3033
 5124TIP3    H215379   5.833   3.744   1.314  1.0836  0.6062 -0.6702
 5125TIP3   OH215380   1.539   4.994   1.071  0.3172 -0.6681  0.6063
 5125TIP3    H115381   1.533   5.049   0.993 -2.5303 -2.9703 -0.9700
 5125TIP3    H215382   1.633   4.973   1.078  0.8667  0.9284 -1.1728
 5126TIP3   OH215383   5.683   1.941   3.885 -0.2969  0.2463  0.5340
 5126TIP3    H115384   5.638   1.877   3.941 -1.0546 -1.3904 -1.7799
 5126TIP3    H215385   5.613   1.979   3.832  0.5779  0.4395 -0.5144
 5127TIP3   OH215386   5.313   3.802   0.521  0.0284  0.1581  0.2481
 5127TIP3    H115387   5.356   3.744   0.458  2.2265  3.4589 -1.6627
 5127TIP3    H215388   5.223   3.810   0.489 -0.0814 -1.4651  0.0759
 5128TIP3   OH215389   4.400   3.174   3.058 -0.0157  0.1055  0.0665
 5128TIP3    H115390   4.459   3.100   3.046  2.0124  1.8196 -1.5607
 5128TIP3    H215391   4.459   3.248   3.078 -1.7222  1.6967 -0.4719
 5129TIP3   OH215392   5.958   0.224   3.665  0.8450 -0.2776 -0.1422
 5129TIP3    H115393   5.874   0.214   3.710  0.5650 -1.0007 -0.8240
 5129TIP3    H215394   5.955   0.162   3.592  2.0564 -0.4677 -0.0539
 5130TIP3   OH215395   3.487   0.731   4.313  0.4657  0.1573  0.1648
 5130TIP3    H115396   3.456   0.709   4.225  1.2845  0.2744 -0.1631
 5130TIP3    H215397   3.429   0.802   4.341 -0.5290 -0.6430  0.1895
 5131TIP3   OH215398   4.181   3.967   1.701  0.5769  0.3662 -1.0699
 5131TIP3    H115399   4.090   3.941   1.719  0.7948  0.3158  0.0144
 5131TIP3    H215400   4.183   3.981   1.606 -0.6975  0.8879 -1.0476
 5132TIP3   OH215401   1.686   2.093   0.041 -0.0320 -0.2403  0.3212
 5132TIP3    H115402   1.766   2.040   0.029  1.3416  1.6435  0.7200
 5132TIP3    H215403   1.661   2.077   0.132 -2.4044 -3.7317 -0.7212
 5133TIP3   OH215404   5.474   5.124   4.688  0.8309  0.0100 -0.2295
 5133TIP3    H115405   5.425   5.146   4.767  0.5924  0.0407 -0.3849
 5133TIP3    H215406   5.466   5.029   4.680  0.1896  0.0866 -0.6431
 5134TIP3   OH215407   5.373   1.445   1.591  0.2968  0.1496  0.4307
 5134TIP3    H115408   5.464   1.473   1.592  0.3626  0.0683  3.2116
 5134TIP3    H215409   5.375   1.354   1.618 -0.6448  0.3712  1.3262
 5135TIP3   OH215410   2.945   1.441   0.097 -0.2109 -0.1913  0.1366
 5135TIP3    H115411   2.857   1.403   0.100  0.0056 -0.6793  0.5825
 5135TIP3    H215412   2.976   1.436   0.188 -0.2043  1.1394  0.2376
 5136TIP3   OH215413   2.480   3.826   3.016 -0.4047 -0.3558 -0.1828
 5136TIP3    H115414   2.520   3.890   3.075 -0.8832 -0.2841  0.0703
 5136TIP3    H215415   2.404   3.872   2.980  1.2039  0.4952 -2.7597
 5137TIP3   OH215416   0.869   1.861   4.956 -0.3678  0.0686 -0.8770
 5137TIP3    H115417   0.822   1.779   4.972 -2.2186  1.0832 -0.8724
 5137TIP3    H215418   0.804   1.920   4.920  1.0800  1.3677 -1.4946
 5138TIP3   OH215419   2.448   4.825   4.137  0.7449 -0.1970 -0.6670
 5138TIP3    H115420   2.529   4.853   4.181 -0.6022  1.7141  0.7716
 5138TIP3    H215421   2.414   4.755   4.192 -0.1181  1.1188  0.5597
 5139TIP3   OH215422   0.850   2.154   1.467 -0.1747 -0.2318  0.0903
 5139TIP3    H115423   0.779   2.093   1.445 -0.2794 -0.2489  0.4584
 5139TIP3    H215424   0.930   2.105   1.450 -0.2587 -0.4137  0.2085
 5140TIP3   OH215425   5.135   4.112   3.837 -0.2620 -0.6114  0.3919
 5140TIP3    H115426   5.045   4.106   3.868 -0.5588  0.7340 -0.1367
 5140TIP3    H215427   5.188   4.084   3.911 -1.0452  0.4359  1.3851
 5141TIP3   OH215428   5.522   5.944   4.809  0.5152  0.0336  0.0989
 5141TIP3    H115429   5.545   6.007   4.742  0.7948  0.3910  0.5266
 5141TIP3    H215430   5.557   5.861   4.778 -0.3482 -0.0311 -0.7384
 5142TIP3   OH215431   5.705   1.297   4.966  0.3268  0.5038  0.6621
 5142TIP3    H115432   5.795   1.291   4.935  0.2054 -0.7309  0.4948
 5142TIP3    H215433   5.668   1.371   4.918  0.8325  0.1070 -0.3646
 5143TIP3   OH215434   3.339   1.163   0.388 -0.1006 -0.3100 -0.1584
 5143TIP3    H115435   3.258   1.140   0.343  0.0829 -0.0999 -0.6089
 5143TIP3    H215436   3.354   1.091   0.449  1.3571 -2.3413 -2.6815
 5144TIP3   OH215437   0.294   0.132   2.703  0.0096  0.6235 -0.4459
 5144TIP3    H115438   0.351   0.145   2.628  0.0113 -3.2858 -1.3607
 5144TIP3    H215439   0.222   0.079   2.670 -0.9661  0.3181  1.9237
 5145TIP3   OH215440   3.897   2.670   4.123  0.5813  0.3398 -0.5857
 5145TIP3    H115441   3.921   2.614   4.198 -1.8582  0.7145  0.5796
 5145TIP3    H215442   3.941   2.630   4.048  3.1082 -0.0774  0.9905
 5146TIP3   OH215443   3.706   1.513   1.504 -0.0015 -0.3356  0.0562
 5146TIP3    H115444   3.795   1.511   1.469 -0.8902 -1.1595 -2.3339
 5146TIP3    H215445   3.718   1.525   1.599  2.5334  2.5267 -0.4886
 5147TIP3   OH215446   6.156   0.420   3.541  0.3919 -0.0204 -0.2364
 5147TIP3    H115447   6.141   0.491   3.479 -0.9781 -2.3885 -2.8385
 5147TIP3    H215448   6.243   0.387   3.518 -0.0767 -0.8386 -0.8935
 5148TIP3   OH215449   0.973   4.743   2.146  0.3374  0.3331 -0.3427
 5148TIP3    H115450   0.913   4.773   2.078  2.7000  2.4317 -1.7015
 5148TIP3    H215451   0.932   4.769   2.228 -1.7508 -0.6505 -1.0128
 5149TIP3   OH215452   1.559   2.378   4.248 -0.0357 -0.2918  0.5025
 5149TIP3    H115453   1.628   2.424   4.200 -0.0782  0.7341  1.4146
 5149TIP3    H215454   1.486   2.373   4.185 -0.2023  1.3125  0.5423
 5150TIP3   OH215455   0.234   4.648   0.784  0.1672  0.5379  0.6157
 5150TIP3    H115456   0.174   4.653   0.858 -0.7913  0.3116 -0.1321
 5150TIP3    H215457   0.277   4.563   0.792 -1.7958 -0.6158 -0.4673
 5151TIP3   OH215458   5.976   1.845   1.901 -0.0464 -0.2133  0.1892
 5151TIP3    H115459   6.069   1.855   1.922  0.0168  0.0226 -0.1953
 5151TIP3    H215460   5.975   1.812   1.811 -0.3719  3.0747 -1.1461
 5152TIP3   OH215461   3.892   4.460   1.635  0.2052 -0.1455  0.0841
 5152TIP3    H115462   3.970   4.457   1.581  0.9379 -1.3495  1.1577
 5152TIP3    H215463   3.841   4.383   1.611 -1.4583  1.3750 -1.6634
 5153TIP3   OH215464   2.076   4.580   2.550  0.3041  0.9024  0.3135
 5153TIP3    H115465   2.016   4.553   2.480  0.0061  0.6358  0.6703
 5153TIP3    H215466   2.049   4.529   2.626  2.5485 -1.1010 -0.1171
 5154TIP3   OH215467   5.229   1.261   2.532  0.1849 -0.3318 -0.2618
 5154TIP3    H115468   5.228   1.328   2.463  0.6561 -0.3153 -0.2591
 5154TIP3    H215469   5.142   1.222   2.529 -0.4413  0.9546  0.4142
 5155TIP3   OH215470   2.485   0.244   0.092  0.5891 -0.1494  0.5267
 5155TIP3    H115471   2.569   0.213   0.057  0.0933 -1.0269  0.1081
 5155TIP3    H215472   2.432   0.165   0.103 -0.0600  0.3587  1.1470
 5156TIP3   OH215473   4.529   2.750   2.441 -0.3509  0.3250 -0.3018
 5156TIP3    H115474   4.473   2.791   2.507 -1.2525 -0.9211 -0.2501
 5156TIP3    H215475   4.601   2.712   2.491 -0.9442 -0.4685 -0.0187
 5157TIP3   OH215476   3.196   4.381   2.200 -0.1805 -0.0898  0.2067
 5157TIP3    H115477   3.130   4.315   2.220 -1.6653  0.5803 -2.1415
 5157TIP3    H215478   3.193   4.441   2.274 -0.2779 -1.4973  1.3823
 5158TIP3   OH215479   2.583   4.347   0.416  0.4392 -0.0892 -0.2976
 5158TIP3    H115480   2.587   4.317   0.507  1.1324  2.4357  0.5641
 5158TIP3    H215481   2.528   4.281   0.372  0.6657 -1.7597  1.7462
 5159TIP3   OH215482   0.305   1.060   0.893 -0.0200  0.2839  0.0655
 5159TIP3    H115483   0.301   1.155   0.906  1.1630  0.1540  1.7530
 5159TIP3    H215484   0.398   1.039   0.900 -0.3311 -1.0884  0.4429
 5160TIP3   OH215485   5.424   3.483   1.310 -0.4476 -0.6570 -0.2793
 5160TIP3    H115486   5.500   3.429   1.291  0.8961  1.0413 -0.0052
 5160TIP3    H215487   5.409   3.532   1.229 -0.2575  0.1315  0.1489
 5161TIP3   OH215488   0.560   0.315   0.698 -0.4468 -0.7090  0.2184
 5161TIP3    H115489   0.591   0.332   0.787 -0.1457 -0.4219  0.0605
 5161TIP3    H215490   0.615   0.243   0.667  0.4597  0.1666 -0.2616
 5162TIP3   OH215491   0.083   4.132   4.533 -0.4265 -0.0156 -0.1058
 5162TIP3    H115492   0.045   4.148   4.447 -1.3784 -0.9828  0.1162
 5162TIP3    H215493   0.068   4.214   4.581 -0.6730  0.2221 -0.5843
 5163TIP3   OH215494   4.051   3.407   2.047  0.0362  0.6171 -0.0576
 5163TIP3    H115495   4.006   3.422   1.964  1.5096  1.7112 -0.7175
 5163TIP3    H215496   4.036   3.487   2.097 -0.8867 -0.0589  0.7738
 5164TIP3   OH215497   0.407   5.524   3.991 -0.7724 -0.1793 -0.2261
 5164TIP3    H115498   0.399   5.456   3.925 -2.0182 -0.6297  0.3673
 5164TIP3    H215499   0.491   5.506   4.034 -0.9147 -1.1241 -0.3212
 5165TIP3   OH215500   4.323   5.792   1.262 -0.3011  0.3939 -0.4150
 5165TIP3    H115501   4.383   5.731   1.219 -0.7255  0.9322 -1.8308
 5165TIP3    H215502   4.341   5.782   1.356  0.0893 -1.4112 -0.6536
 5166TIP3   OH215503   1.514   1.490   0.731  0.0690  0.3970 -0.1736
 5166TIP3    H115504   1.553   1.545   0.799  0.3025  2.2060 -1.6945
 5166TIP3    H215505   1.587   1.435   0.700  0.0917 -0.0322  0.6116
 5167TIP3   OH215506   5.537   2.281   4.787 -0.4217  0.8665 -0.1222
 5167TIP3    H115507   5.500   2.358   4.830  0.2817  0.9508  0.3470
 5167TIP3    H215508   5.625   2.307   4.761 -1.1203  1.1170 -2.4738
 5168TIP3   OH215509   1.397   2.298   4.037  0.3312  0.5328 -0.2218
 5168TIP3    H115510   1.371   2.377   3.991 -3.2869  0.3242  1.1490
 5168TIP3    H215511   1.390   2.229   3.971  0.2228  0.8953 -0.5962
 5169TIP3   OH215512   2.166   1.015   2.923  0.2434  0.1284  0.6125
 5169TIP3    H115513   2.125   0.939   2.964  0.4698 -0.1130  0.3975
 5169TIP3    H215514   2.121   1.025   2.840  0.9930 -0.4935  0.1126
 5170TIP3   OH215515   3.457   4.651   2.792 -0.3133 -0.2725 -0.3466
 5170TIP3    H115516   3.426   4.564   2.817  1.6231 -1.3513 -1.4260
 5170TIP3    H215517   3.473   4.644   2.698  3.9656 -0.2135  0.1863
 5171TIP3   OH215518   3.387   1.543   4.492 -0.7314  0.1098  0.6853
 5171TIP3    H115519   3.348   1.524   4.577 -1.5032 -0.5873  0.1924
 5171TIP3    H215520   3.469   1.493   4.491 -0.9785 -0.3007  0.8151
 5172TIP3   OH215521   6.312   1.545   3.063 -0.2775  0.0692  0.0300
 5172TIP3    H115522   6.377   1.474   3.058  2.8235  2.6961 -0.3520
 5172TIP3    H215523   6.296   1.556   3.157  0.0431 -0.4463  0.1514
 5173TIP3   OH215524   5.729   5.185   5.015  0.0190 -0.6968 -0.5110
 5173TIP3    H115525   5.776   5.137   4.946  1.9288  1.9324 -1.1962
 5173TIP3    H215526   5.671   5.245   4.967 -0.5048 -0.5911  0.2486
 5174TIP3   OH215527   6.322   0.211   3.011 -0.6685  0.2632  0.4090
 5174TIP3    H115528   6.345   0.291   2.963 -0.5321 -1.6859 -3.0483
 5174TIP3    H215529   6.405   0.179   3.046 -0.4454  0.7018  0.2886
 5175TIP3   OH215530   0.864   4.921   5.162 -0.2427  0.0645  0.2068
 5175TIP3    H115531   0.857   4.841   5.110 -1.4443  0.2566  0.0252
 5175TIP3    H215532   0.819   4.987   5.109  0.2391  0.7197  0.6133
 5176TIP3   OH215533   4.724   5.856   2.870 -0.1075  0.3828  0.0929
 5176TIP3    H115534   4.762   5.868   2.783 -0.4742 -0.3443 -0.1792
 5176TIP3    H215535   4.692   5.943   2.895 -0.0087  0.5936 -0.5058
 5177TIP3   OH215536   0.983   3.529   2.899 -0.1656 -0.3824  0.0885
 5177TIP3    H115537   1.003   3.619   2.875 -1.0347 -0.4225 -0.8381
 5177TIP3    H215538   1.056   3.503   2.956  0.4054  0.6969 -0.1175
 5178TIP3   OH215539   3.405   4.879   2.507  0.0251  0.9782 -1.0294
 5178TIP3    H115540   3.403   4.940   2.581  1.9772  0.2557 -0.3385
 5178TIP3    H215541   3.328   4.903   2.456 -0.5607  2.4839  0.4381
 5179TIP3   OH215542   0.381   4.718   4.781 -0.1413 -0.0185 -0.2185
 5179TIP3    H115543   0.360   4.686   4.869 -0.9203 -0.4342 -0.5468
 5179TIP3    H215544   0.440   4.652   4.745  0.4635  0.3299  0.1112
 5180TIP3   OH215545   2.952   3.235   3.881  0.3904 -0.0539 -0.3861
 5180TIP3    H115546   2.895   3.161   3.860  0.3032 -0.3807  0.8742
 5180TIP3    H215547   2.897   3.292   3.936  0.3362  1.1510 -1.6563
 5181TIP3   OH215548   3.133   3.750   2.116  0.0681 -0.5060 -0.0219
 5181TIP3    H115549   3.071   3.721   2.050 -0.0877 -0.6317  0.1773
 5181TIP3    H215550   3.219   3.735   2.077  0.0218 -1.9428  0.3581
 5182TIP3   OH215551   6.142   5.500   0.687 -0.0092 -0.7927  0.4135
 5182TIP3    H115552   6.189   5.584   0.692 -1.6032  0.0692  2.5694
 5182TIP3    H215553   6.145   5.466   0.776 -1.3719 -1.8945  0.0763
 5183TIP3   OH215554   3.409   5.302   2.302  0.8304 -0.4116  0.3821
 5183TIP3    H115555   3.336   5.337   2.251  1.4533  1.5162  0.7488
 5183TIP3    H215556   3.456   5.245   2.242  0.2326  0.0057 -0.4910
 5184TIP3   OH215557   4.737   2.670   2.597 -0.1916 -0.1115  0.0374
 5184TIP3    H115558   4.740   2.587   2.644  0.1186 -0.2543 -0.2255
 5184TIP3    H215559   4.777   2.733   2.657  0.8228 -0.4278 -0.2882
 5185TIP3   OH215560   2.227   2.847   0.921  0.4711  0.1546 -0.2361
 5185TIP3    H115561   2.278   2.832   0.841 -1.8764  1.1958 -2.0519
 5185TIP3    H215562   2.195   2.937   0.913 -3.1359 -0.9422 -0.2628
 5186TIP3   OH215563   4.086   4.334   1.389 -0.1628 -0.4054  0.2125
 5186TIP3    H115564   4.034   4.304   1.315  0.5707 -0.5779 -0.2456
 5186TIP3    H215565   4.080   4.429   1.387 -0.7378 -0.4315  0.3794
 5187TIP3   OH215566   2.248   3.032   1.248  0.0719  0.5357 -0.1137
 5187TIP3    H115567   2.293   2.958   1.288 -0.7383  0.3350  0.4517
 5187TIP3    H215568   2.213   3.082   1.322  0.1221  1.1673 -0.5074
 5188TIP3   OH215569   5.709   3.087   0.887 -0.9659 -0.2512  0.0609
 5188TIP3    H115570   5.803   3.107   0.889 -0.6860 -1.2115  3.2674
 5188TIP3    H215571   5.666   3.170   0.906 -0.4624 -0.4228  2.2483
 5189TIP3   OH215572   0.199   2.419   0.089  0.2889  0.4155  0.1590
 5189TIP3    H115573   0.262   2.479   0.128 -0.0682  1.5865 -0.9828
 5189TIP3    H215574   0.222   2.417  -0.004 -2.2557  2.1547 -0.6271
 5190TIP3   OH215575   2.024   2.889   3.219  0.3473 -0.3981 -0.0762
 5190TIP3    H115576   2.013   2.890   3.124 -0.1859 -1.1593 -0.0325
 5190TIP3    H215577   1.943   2.851   3.252  0.1318  0.7242  0.7530
 5191TIP3   OH215578   0.696   2.378   4.013 -0.1280 -0.4414 -0.0040
 5191TIP3    H115579   0.609   2.340   3.995  0.1533 -1.6359  1.0244
 5191TIP3    H215580   0.680   2.471   4.024 -0.9262 -0.2633 -2.1793
 5192TIP3   OH215581   2.348   1.346   0.260 -0.1090  0.0190 -0.0758
 5192TIP3    H115582   2.254   1.332   0.272 -0.2436 -0.6287 -1.6314
 5192TIP3    H215583   2.389   1.306   0.336 -1.1051  0.7018  0.8381
 5193TIP3   OH215584   5.242   5.898   1.693  0.2812 -0.0359 -0.3278
 5193TIP3    H115585   5.283   5.974   1.735 -1.2705 -0.0540  1.3594
 5193TIP3    H215586   5.179   5.936   1.632 -0.4949  0.0728  0.5159
 5194TIP3   OH215587   3.902   1.063   5.025 -1.2893  0.0715  0.3041
 5194TIP3    H115588   3.924   0.998   4.958  2.1191 -0.0906  1.3637
 5194TIP3    H215589   3.821   1.030   5.064 -0.4956 -2.7935 -0.1904
 5195TIP3   OH215590   1.683   2.434   0.439  0.1482 -0.1649 -0.0088
 5195TIP3    H115591   1.599   2.433   0.483  0.1208 -0.6579 -0.0715
 5195TIP3    H215592   1.692   2.347   0.401 -0.2436  0.5204 -1.7557
 5196TIP3   OH215593   2.171   1.097   0.767 -0.7507  0.0128  0.1984
 5196TIP3    H115594   2.157   1.134   0.855 -3.2930  0.1209 -0.1590
 5196TIP3    H215595   2.097   1.036   0.755 -0.9345  0.6059 -2.1653
 5197TIP3   OH215596   4.018   0.001   0.729  0.1818  0.2800  0.5895
 5197TIP3    H115597   4.088   0.007   0.664  0.7944  2.2820  1.3715
 5197TIP3    H215598   4.056   0.037   0.809 -1.0260 -0.7882  1.6944
 5198TIP3   OH215599   0.275   3.660   0.021  0.2061  0.1132  0.1265
 5198TIP3    H115600   0.181   3.677   0.019  0.5135  2.2432  0.5685
 5198TIP3    H215601   0.315   3.747   0.027  2.2064 -0.7350  0.0905
 5199TIP3   OH215602   3.382   4.893   4.276 -0.3413  0.2591 -0.6319
 5199TIP3    H115603   3.477   4.907   4.278 -0.5110  1.5436  1.7117
 5199TIP3    H215604   3.346   4.979   4.252 -0.9670  0.2810  0.3710
 5200TIP3   OH215605   1.355   2.799   1.342 -0.2850  0.0372 -0.6133
 5200TIP3    H115606   1.312   2.882   1.362 -0.3498  0.1675 -1.2743
 5200TIP3    H215607   1.449   2.818   1.348 -0.2871  0.2899 -1.2211
 5201TIP3   OH215608   3.376   1.016   4.341  0.0639 -0.1576  0.0901
 5201TIP3    H115609   3.318   1.005   4.265  0.3828 -2.3948  0.1110
 5201TIP3    H215610   3.325   1.068   4.402  0.6345  3.8300 -2.4474
 5202TIP3   OH215611   2.041   3.925   0.510 -0.3156 -0.0654  0.2495
 5202TIP3    H115612   2.024   3.831   0.508  0.8727 -0.3180  0.9046
 5202TIP3    H215613   2.125   3.935   0.464 -1.4996  0.9720 -1.8346
 5203TIP3   OH215614   4.777   2.591   0.567  0.7035 -0.5033 -0.0621
 5203TIP3    H115615   4.698   2.570   0.616  0.9934  0.3602  0.7998
 5203TIP3    H215616   4.828   2.648   0.625  1.8014 -0.7644 -0.7342
 5204TIP3   OH215617   6.064   1.259   1.870 -0.3231  0.4633 -0.1886
 5204TIP3    H115618   6.031   1.299   1.950 -0.2234  0.6342 -0.2310
 5204TIP3    H215619   6.101   1.332   1.820  0.0455  0.2898 -0.1740
 5205TIP3   OH215620   2.844   0.240   2.881 -0.5638 -0.8357  0.1216
 5205TIP3    H115621   2.896   0.161   2.868  0.3515 -0.1158 -0.7827
 5205TIP3    H215622   2.884   0.305   2.823 -1.9079  0.0141  0.0966
 5206TIP3   OH215623   2.767   4.716   3.130 -0.6758 -0.2246 -0.0871
 5206TIP3    H115624   2.762   4.786   3.066  0.5115 -0.6576 -0.6869
 5206TIP3    H215625   2.860   4.708   3.150 -0.8053 -1.4909  0.1210
 5207TIP3   OH215626   5.944   3.259   0.873 -0.0034 -0.0680  0.1828
 5207TIP3    H115627   5.904   3.342   0.895  0.1485  0.3176 -0.9228
 5207TIP3    H215628   6.014   3.248   0.937  0.7642  1.2617 -0.3864
 5208TIP3   OH215629   1.135   2.791   0.914  0.2120 -0.4752 -0.0513
 5208TIP3    H115630   1.121   2.768   0.822  0.0044 -0.9543  0.0943
 5208TIP3    H215631   1.150   2.706   0.957 -1.5802 -0.4565  0.6895
 5209TIP3   OH215632   1.298   4.178   0.018  0.4843  0.1370  0.1560
 5209TIP3    H115633   1.225   4.122   0.041  1.5106 -1.2674  0.1034
 5209TIP3    H215634   1.376   4.127   0.040  1.4690  0.5904 -2.0204
 5210TIP3   OH215635   1.476   4.789   2.563 -0.4859 -0.3671 -0.1438
 5210TIP3    H115636   1.506   4.739   2.487 -0.0432 -1.6564  0.8321
 5210TIP3    H215637   1.556   4.806   2.613 -0.3915  2.6528 -1.1370
 5211TIP3   OH215638   1.735   5.100   4.069 -0.0855  0.2938  0.3320
 5211TIP3    H115639   1.785   5.135   3.995  0.8084 -0.9935  0.2966
 5211TIP3    H215640   1.800   5.082   4.136 -0.3751 -1.8315  0.1332
 5212TIP3   OH215641   1.395   5.508   2.078 -0.4310  0.3915  0.0164
 5212TIP3    H115642   1.446   5.437   2.039 -0.9798  1.1364 -2.1395
 5212TIP3    H215643   1.452   5.584   2.072 -0.9890  0.7764 -0.4847
 5213TIP3   OH215644   4.490   0.570   2.787 -0.0553 -0.1245  0.3380
 5213TIP3    H115645   4.539   0.506   2.736 -0.5263 -0.7829  0.6952
 5213TIP3    H215646   4.541   0.650   2.780 -0.3575 -0.0473 -1.5671
 5214TIP3   OH215647   0.241   3.087   5.051  0.0410 -0.4898  0.3494
 5214TIP3    H115648   0.194   3.162   5.014  0.9476  0.0033  0.1659
 5214TIP3    H215649   0.246   3.105   5.144  1.5074  0.4118  0.1226
 5215TIP3   OH215650   4.039   2.237   4.065  0.2192  0.3663  0.0837
 5215TIP3    H115651   4.127   2.219   4.033 -0.0083 -0.1328 -0.2919
 5215TIP3    H215652   4.050   2.306   4.130  1.1240 -0.9476  1.3981
 5216TIP3   OH215653   3.176   1.761   4.452  0.0039  0.1095 -0.1750
 5216TIP3    H115654   3.192   1.802   4.367  0.6865  0.7020  0.2224
 5216TIP3    H215655   3.250   1.702   4.464 -0.1385 -0.0413 -0.0367
 5217TIP3   OH215656   2.496   4.562   4.806 -0.0858  0.8319  0.3046
 5217TIP3    H115657   2.434   4.631   4.829 -1.5779 -0.6483  1.0016
 5217TIP3    H215658   2.487   4.497   4.876  0.7128 -0.4078 -0.6798
 5218TIP3   OH215659   3.055   0.461   1.281  0.3012  0.5151  0.0329
 5218TIP3    H115660   3.021   0.508   1.205 -0.2012  0.6558  0.3377
 5218TIP3    H215661   2.994   0.388   1.293  0.6507  0.2188  0.0127
 5219TIP3   OH215662   5.167   4.025   2.779  0.1219 -0.6464  0.0608
 5219TIP3    H115663   5.245   3.975   2.801  1.0138  0.6385 -0.0719
 5219TIP3    H215664   5.111   3.963   2.732  1.3817 -1.4066 -0.4861
 5220TIP3   OH215665   0.621   0.619   2.394 -0.4017 -0.0121 -0.3470
 5220TIP3    H115666   0.714   0.620   2.370 -0.5168 -0.2578 -0.8173
 5220TIP3    H215667   0.589   0.536   2.360 -0.7681  0.0176 -0.0752
 5221TIP3   OH215668   3.426   5.845   3.327 -0.4117 -0.5124  0.3534
 5221TIP3    H115669   3.384   5.922   3.365  0.5664 -0.2928  1.0084
 5221TIP3    H215670   3.421   5.859   3.232 -1.9183 -0.5578  0.4047
 5222TIP3   OH215671   2.570   4.755   1.377  0.1066  0.6942 -0.0394
 5222TIP3    H115672   2.592   4.721   1.290 -0.6004 -1.5049  0.5863
 5222TIP3    H215673   2.546   4.847   1.361 -0.8448  0.1192 -2.2972
 5223TIP3   OH215674   2.453   5.896   1.097  0.3096 -0.0261  0.5372
 5223TIP3    H115675   2.412   5.981   1.082  1.1359  0.1978 -0.5963
 5223TIP3    H215676   2.439   5.849   1.015  4.0113  0.7833 -0.7651
 5224TIP3   OH215677   5.604   3.289   1.260 -0.3079  0.3675  0.3116
 5224TIP3    H115678   5.583   3.197   1.274 -0.7422  0.1184 -1.6193
 5224TIP3    H215679   5.669   3.310   1.327 -0.9150 -1.0660  1.3910
 5225TIP3   OH215680   5.007   2.826   5.131 -0.0995  0.6175 -0.2881
 5225TIP3    H115681   5.092   2.823   5.088 -1.0936 -0.8167 -2.3382
 5225TIP3    H215682   5.017   2.770   5.208  0.6803  0.0572 -0.7807
 5226TIP3   OH215683   2.235   3.623   4.397  0.1465  0.5670  0.2780
 5226TIP3    H115684   2.218   3.562   4.469  0.7607 -0.3289 -0.3230
 5226TIP3    H215685   2.212   3.574   4.318  0.3591  1.2185 -0.1922
 5227TIP3   OH215686   2.241   2.452   3.116 -0.0642  0.0068 -0.2892
 5227TIP3    H115687   2.331   2.482   3.112 -0.9175  2.7629 -3.0328
 5227TIP3    H215688   2.210   2.478   3.202  1.4117  0.0224  0.2599
 5228TIP3   OH215689   1.015   2.383   1.543  0.0439 -0.1527  0.1378
 5228TIP3    H115690   0.973   2.332   1.474  0.4482 -0.2575 -0.0339
 5228TIP3    H215691   1.099   2.409   1.506  0.9462 -1.5010  1.1253
 5229TIP3   OH215692   3.620   3.950   1.581  0.0333 -0.4362  0.3291
 5229TIP3    H115693   3.586   3.944   1.492 -0.1844 -0.5497  0.4205
 5229TIP3    H215694   3.547   3.923   1.637 -0.6831  2.0159  0.7042
 5230TIP3   OH215695   3.550   1.715   1.736 -0.6234 -1.1187  0.0009
 5230TIP3    H115696   3.583   1.661   1.665  0.6403  0.2230 -0.4841
 5230TIP3    H215697   3.455   1.706   1.732 -0.6729 -0.0839 -2.6912
 5231TIP3   OH215698   3.559   1.516   3.239  0.1113  0.0502  0.8946
 5231TIP3    H115699   3.649   1.522   3.208  0.0242 -0.8887  0.4042
 5231TIP3    H215700   3.562   1.542   3.331  0.4527  2.5015  0.2510
 5232TIP3   OH215701   3.263   0.758   1.959 -0.4956  0.3686  0.4355
 5232TIP3    H115702   3.177   0.748   1.917 -0.2307  0.4436 -0.1426
 5232TIP3    H215703   3.306   0.674   1.946 -0.2776  0.5071  0.2412
 5233TIP3   OH215704   2.550   2.263   1.307 -0.3209 -0.1490 -0.5090
 5233TIP3    H115705   2.516   2.178   1.337 -0.8551 -0.2666 -1.4247
 5233TIP3    H215706   2.486   2.326   1.341  0.3346 -0.0504  0.5880
 5234TIP3   OH215707   3.915   4.651   3.702 -0.0601 -0.0104  0.2405
 5234TIP3    H115708   3.875   4.579   3.653  0.0482 -0.9338  1.4741
 5234TIP3    H215709   3.948   4.710   3.634  1.9725 -2.2708 -0.9056
 5235TIP3   OH215710   4.465   1.394   3.139  0.4855 -0.1461  0.1163
 5235TIP3    H115711   4.386   1.349   3.111 -0.4043  1.2847  0.2374
 5235TIP3    H215712   4.526   1.323   3.161 -1.1614 -1.3003  1.2387
 5236TIP3   OH215713   0.258   4.356   3.251  0.9341  0.3021 -0.0402
 5236TIP3    H115714   0.209   4.320   3.176 -0.1185  2.4340 -0.4417
 5236TIP3    H215715   0.334   4.398   3.212  0.0050  2.0624 -0.0552
 5237TIP3   OH215716   5.073   3.452   2.612  0.3158  0.2676 -0.6891
 5237TIP3    H115717   5.098   3.431   2.702  0.9412 -1.1880 -1.1765
 5237TIP3    H215718   5.155   3.446   2.562 -0.2454 -0.2893 -1.5783
 5238TIP3   OH215719   5.093   3.712   3.351  0.2905 -0.1803 -0.3688
 5238TIP3    H115720   5.014   3.720   3.406  0.4681  2.0168 -0.3071
 5238TIP3    H215721   5.070   3.648   3.284 -1.9953  1.1647 -0.9938
 5239TIP3   OH215722   4.591   4.221   3.867  0.2382  0.3605  0.0591
 5239TIP3    H115723   4.584   4.267   3.783 -0.1153  2.3962  1.1330
 5239TIP3    H215724   4.504   4.184   3.881  0.1084  0.5827 -0.1568
 5240TIP3   OH215725   0.174   0.740   0.080  0.3658 -0.2776  0.2512
 5240TIP3    H115726   0.106   0.804   0.103 -1.7425 -1.8258 -1.2959
 5240TIP3    H215727   0.131   0.655   0.087  2.7920 -1.5412  1.2096
 5241TIP3   OH215728   2.504   3.941   2.633  0.0917 -0.4100 -0.8182
 5241TIP3    H115729   2.439   3.917   2.699 -2.3791 -0.2787 -3.0402
 5241TIP3    H215730   2.515   3.861   2.581  1.5793 -0.3526 -0.6182
 5242TIP3   OH215731   5.964   4.518   0.717 -0.5040  0.4438  0.4829
 5242TIP3    H115732   5.906   4.470   0.658 -1.1033  1.3013  0.3585
 5242TIP3    H215733   6.050   4.477   0.705 -0.8076  0.0149 -0.3020
 5243TIP3   OH215734   5.003   1.233   1.963  0.4539  0.0551 -0.0858
 5243TIP3    H115735   4.993   1.257   1.871  0.1811 -0.8604 -0.3083
 5243TIP3    H215736   5.055   1.153   1.961 -0.1089 -0.3395  0.5082
 5244TIP3   OH215737   5.213   4.637   3.935 -0.0356  0.0655 -0.6308
 5244TIP3    H115738   5.268   4.647   3.858  0.5532  1.4098 -0.0682
 5244TIP3    H215739   5.126   4.615   3.900  0.3078  0.2650 -1.6491
 5245TIP3   OH215740   5.491   4.745   3.817 -0.0985 -0.0266 -0.6611
 5245TIP3    H115741   5.529   4.738   3.904  2.8953  1.1651 -1.7695
 5245TIP3    H215742   5.497   4.657   3.781  2.0156  0.1836 -0.9109
 5246TIP3   OH215743   0.741   3.008   5.023  0.0763 -0.1014  0.0939
 5246TIP3    H115744   0.786   2.926   5.046  1.3939  0.6797  0.3891
 5246TIP3    H215745   0.802   3.052   4.963 -0.6094  0.6849 -0.0380
 5247TIP3   OH215746   3.311   5.236   2.892 -0.2149 -0.6021 -0.4067
 5247TIP3    H115747   3.346   5.237   2.981 -0.5313  0.8258 -0.2787
 5247TIP3    H215748   3.223   5.201   2.901 -0.2056 -0.5653 -0.1670
 5248TIP3   OH215749   4.050   1.212   2.132  0.1576 -0.0955  0.0252
 5248TIP3    H115750   3.956   1.228   2.144 -0.0680 -0.1804 -1.4426
 5248TIP3    H215751   4.080   1.181   2.217 -1.1303  0.0005  0.5417
 5249TIP3   OH215752   3.966   4.901   1.172 -0.0012  0.5007  0.1855
 5249TIP3    H115753   3.984   4.994   1.157  0.9042  0.2635 -0.3099
 5249TIP3    H215754   4.007   4.883   1.257 -1.1029  0.7869  0.7916
 5250TIP3   OH215755   0.085   2.265   0.290 -0.2311 -0.0518 -0.3974
 5250TIP3    H115756   0.113   2.262   0.199  0.1016  2.3003 -0.4269
 5250TIP3    H215757   0.012   2.326   0.291  0.2731  0.5688  1.0240
 5251TIP3   OH215758   0.721   4.286   4.596 -0.9829 -0.1998 -0.4773
 5251TIP3    H115759   0.730   4.193   4.618  0.6614 -0.0009 -0.1025
 5251TIP3    H215760   0.794   4.328   4.642 -0.8516  1.0777 -1.7760
 5252TIP3   OH215761   2.367   5.222   4.347 -0.1784  0.1158  0.0388
 5252TIP3    H115762   2.435   5.213   4.280  0.7615 -0.3108  1.0175
 5252TIP3    H215763   2.309   5.291   4.313 -1.0753 -1.6297 -2.2805
 5253TIP3   OH215764   4.183   5.544   2.129  0.4604 -0.3468 -0.0848
 5253TIP3    H115765   4.239   5.607   2.174 -1.5096 -0.0348  2.1378
 5253TIP3    H215766   4.154   5.588   2.050  1.7071  0.2498 -0.2233
 5254TIP3   OH215767   5.519   1.154   0.500 -0.3883 -0.1125  0.2668
 5254TIP3    H115768   5.529   1.125   0.410  0.4347 -0.0371  0.3240
 5254TIP3    H215769   5.448   1.218   0.498  0.3211  0.6796 -0.5158
 5255TIP3   OH215770   4.243   2.460   4.027 -0.1414 -0.7096 -0.0663
 5255TIP3    H115771   4.301   2.459   4.104  0.4950  0.9768 -0.4886
 5255TIP3    H215772   4.264   2.379   3.981  0.7279 -0.9008  0.6247
 5256TIP3   OH215773   1.961   5.403   0.252 -0.1760 -0.0222  0.4951
 5256TIP3    H115774   1.875   5.439   0.273  0.2543  0.9505  0.6700
 5256TIP3    H215775   1.964   5.319   0.298 -0.2761  0.8347  2.1641
 5257TIP3   OH215776   4.991   4.890   4.061 -0.5627  0.3627  0.5185
 5257TIP3    H115777   4.982   4.797   4.081 -2.0699  0.5396  0.8143
 5257TIP3    H215778   4.902   4.919   4.039  0.1108  1.4231 -1.0015
 5258TIP3   OH215779   5.764   5.210   0.390 -0.2361 -0.6109 -0.3856
 5258TIP3    H115780   5.683   5.178   0.430  0.3479 -0.3563  1.0210
 5258TIP3    H215781   5.826   5.220   0.462 -0.3987  3.9264 -0.5690
 5259TIP3   OH215782   3.327   5.700   0.545  0.4476 -0.0546  0.6235
 5259TIP3    H115783   3.380   5.710   0.466  1.7679 -0.6319  1.3979
 5259TIP3    H215784   3.244   5.663   0.514  0.4412  0.9518 -0.6303
 5260TIP3   OH215785   1.746   0.644   2.217  0.0435  0.3148  0.3597
 5260TIP3    H115786   1.789   0.728   2.207 -1.5209  1.0161 -1.0987
 5260TIP3    H215787   1.817   0.581   2.227  1.3926  1.4439 -1.5023
 5261TIP3   OH215788   0.586   5.642   0.178  0.5026 -0.3283  0.5970
 5261TIP3    H115789   0.661   5.701   0.181 -0.2368  0.6222  0.8145
 5261TIP3    H215790   0.624   5.554   0.181  1.6007  0.1372  0.6307
 5262TIP3   OH215791   6.091   0.444   2.799 -0.4396 -0.6256 -0.1306
 5262TIP3    H115792   5.995   0.447   2.809 -0.2582  0.0869  1.9647
 5262TIP3    H215793   6.122   0.514   2.857  1.3418 -0.4442 -1.2498
 5263TIP3   OH215794   3.522   1.560   2.460 -0.5071  0.2674  0.2740
 5263TIP3    H115795   3.463   1.613   2.406 -0.3453  1.1288  0.9086
 5263TIP3    H215796   3.608   1.569   2.419 -0.9182 -1.6512 -1.1260
 5264TIP3   OH215797   3.518   4.856   0.048 -0.2796  0.0699  0.1037
 5264TIP3    H115798   3.531   4.762   0.036 -2.2909 -0.4605  1.5926
 5264TIP3    H215799   3.423   4.869   0.044 -0.0551  2.0311 -0.0283
 5265TIP3   OH215800   2.494   5.645   3.737 -0.0814  0.2522 -0.0296
 5265TIP3    H115801   2.498   5.564   3.685  3.7719  0.1988  0.0273
 5265TIP3    H215802   2.528   5.713   3.678  0.1716  1.0725  1.0231
 5266TIP3   OH215803   2.361   1.915   4.546  0.1239  0.2384 -0.1707
 5266TIP3    H115804   2.446   1.889   4.582 -0.0147  0.5398  0.3858
 5266TIP3    H215805   2.298   1.888   4.613 -0.1973  0.2189 -0.4822
 5267TIP3   OH215806   0.955   2.511   2.195 -0.2139  0.3068  0.6277
 5267TIP3    H115807   0.965   2.567   2.118 -0.9307  0.0314  0.3259
 5267TIP3    H215808   0.914   2.431   2.162  0.6342 -0.3396  1.0864
 5268TIP3   OH215809   3.317   4.659   0.847  0.3408  0.1394 -0.1031
 5268TIP3    H115810   3.315   4.754   0.862 -0.8227  0.5269 -2.2514
 5268TIP3    H215811   3.224   4.634   0.841  0.5920 -0.3493 -3.5076
 5269TIP3   OH215812   5.971   4.733   4.231 -0.5520 -0.5017 -0.1054
 5269TIP3    H115813   6.028   4.656   4.234  0.1329  0.0271  0.7406
 5269TIP3    H215814   6.029   4.807   4.249 -1.3173  0.1577 -0.2830
 5270TIP3   OH215815   6.115   5.757   0.204  0.4576 -0.0168 -0.1509
 5270TIP3    H115816   6.062   5.738   0.126  1.1698 -0.1115 -0.6179
 5270TIP3    H215817   6.067   5.828   0.249  0.8075  1.0854 -1.4590
 5271TIP3   OH215818   2.118   5.330   5.043  0.3877 -0.1756  0.0981
 5271TIP3    H115819   2.213   5.343   5.035  0.2826 -0.3575 -1.8344
 5271TIP3    H215820   2.081   5.415   5.018  0.0240 -0.1630  0.6750
 5272TIP3   OH215821   3.519   2.695   3.252 -0.0384 -0.0063  0.3830
 5272TIP3    H115822   3.505   2.612   3.298 -1.9796  0.6600  1.0472
 5272TIP3    H215823   3.528   2.760   3.322  0.8493  0.4678 -0.1506
 5273TIP3   OH215824   3.584   2.514   2.329  0.3657 -0.0968 -0.0440
 5273TIP3    H115825   3.654   2.568   2.367  0.0582 -1.1933  2.1979
 5273TIP3    H215826   3.630   2.447   2.279  0.8132  0.5372 -0.5107
 5274TIP3   OH215827   3.059   3.033   2.896  0.3588 -0.0405 -0.0786
 5274TIP3    H115828   3.024   2.991   2.975 -1.6198 -1.2155 -1.5187
 5274TIP3    H215829   3.087   3.120   2.926  0.9037 -0.9220  2.1618
 5275TIP3   OH215830   5.584   2.805   1.808 -0.0225  0.1457  0.4299
 5275TIP3    H115831   5.663   2.765   1.772 -0.7383 -0.6369 -0.3326
 5275TIP3    H215832   5.613   2.888   1.845  1.3980 -0.7685  1.4616
 5276TIP3   OH215833   5.647   1.638   0.943  0.4881 -0.4914 -0.8789
 5276TIP3    H115834   5.657   1.588   0.862  3.6314 -0.5704 -0.5692
 5276TIP3    H215835   5.709   1.598   1.003 -0.6156  0.5900  1.0680
 5277TIP3   OH215836   1.527   2.864   2.117  0.3276  0.4386 -0.4805
 5277TIP3    H115837   1.569   2.801   2.177 -1.0125  0.1941  0.2609
 5277TIP3    H215838   1.471   2.917   2.174 -1.3099 -0.0641 -1.5487
 5278TIP3   OH215839   5.336   3.940   1.080 -0.0074  0.1316 -0.3020
 5278TIP3    H115840   5.293   4.025   1.079  0.3768  0.3280 -0.1880
 5278TIP3    H215841   5.346   3.917   0.988 -0.8496 -0.1677 -0.3256
 5279TIP3   OH215842   5.365   0.675   3.240 -0.1570 -0.2020 -0.3165
 5279TIP3    H115843   5.349   0.758   3.195  0.0824  0.7201  1.2384
 5279TIP3    H215844   5.312   0.611   3.192 -2.7036  1.3672  0.2254
 5280TIP3   OH215845   3.112   2.050   2.536  0.4500 -0.2357 -0.1144
 5280TIP3    H115846   3.186   1.994   2.513  1.3094 -0.0456  1.9684
 5280TIP3    H215847   3.151   2.129   2.572 -0.7787  1.0638 -1.5018
 5281TIP3   OH215848   1.135   1.763   4.584 -0.1636  0.6532  0.0151
 5281TIP3    H115849   1.134   1.855   4.610  0.4260  0.8775 -0.7242
 5281TIP3    H215850   1.072   1.758   4.512 -0.5077  0.3925  0.3335
 5282TIP3   OH215851   3.281   0.796   3.747 -0.4438 -0.1976 -0.0599
 5282TIP3    H115852   3.187   0.806   3.734 -0.4565  1.7748  1.2548
 5282TIP3    H215853   3.320   0.859   3.686  0.0097 -0.4142  0.0042
 5283TIP3   OH215854   3.413   4.787   3.742  0.2689  0.1143 -0.2661
 5283TIP3    H115855   3.443   4.859   3.798  1.0581  1.1286 -1.9162
 5283TIP3    H215856   3.330   4.760   3.782  0.4006  1.3248  0.9281
 5284TIP3   OH215857   4.963   5.681   3.296  0.1805 -0.1503  0.8503
 5284TIP3    H115858   4.989   5.709   3.208 -0.4412 -1.2335  0.2992
 5284TIP3    H215859   4.995   5.751   3.354 -1.2765  1.6630 -0.4365
 5285TIP3   OH215860   3.300   1.015   1.410 -0.1097 -0.1756 -0.3226
 5285TIP3    H115861   3.294   1.103   1.448 -0.4619 -0.6017  0.6378
 5285TIP3    H215862   3.231   0.965   1.453  0.7869 -1.2117 -0.0236
 5286TIP3   OH215863   2.598   2.367   1.024 -0.4132  0.4076 -0.1828
 5286TIP3    H115864   2.559   2.451   1.000 -0.3556  0.4700 -0.0561
 5286TIP3    H215865   2.651   2.386   1.101  0.9453  0.6050 -1.1296
 5287TIP3   OH215866   5.659   2.622   3.432  0.1463 -0.2973  0.2513
 5287TIP3    H115867   5.597   2.575   3.487  0.0128  0.4337  0.7276
 5287TIP3    H215868   5.655   2.576   3.347 -0.9805 -0.3066  0.2998
 5288TIP3   OH215869   4.523   1.165   2.143  0.3397 -0.1008  0.2194
 5288TIP3    H115870   4.452   1.197   2.198  0.5238  0.0416  0.3788
 5288TIP3    H215871   4.582   1.240   2.136 -0.1291  0.1809 -0.9256
 5289TIP3   OH215872   4.941   1.335   3.460 -0.2284  0.6326  0.2545
 5289TIP3    H115873   4.858   1.382   3.474 -2.4795 -2.4363 -1.4241
 5289TIP3    H215874   4.931   1.253   3.508  2.8454  0.9803  1.7247
 5290TIP3   OH215875   2.470   0.515   0.905 -0.4183 -0.1366  0.1987
 5290TIP3    H115876   2.545   0.574   0.902 -0.8731  0.5808  1.7238
 5290TIP3    H215877   2.396   0.569   0.878 -0.5019 -0.6332 -0.5767
 5291TIP3   OH215878   5.437   0.156   2.779  0.1341 -0.2283 -0.3055
 5291TIP3    H115879   5.445   0.116   2.866  1.5359  0.1879 -0.2311
 5291TIP3    H215880   5.428   0.081   2.719  1.4744 -0.6286 -0.0355
 5292TIP3   OH215881   4.230   4.570   3.087  0.0572 -0.6372 -0.0924
 5292TIP3    H115882   4.176   4.612   3.021 -0.1717  0.2223  0.6248
 5292TIP3    H215883   4.178   4.497   3.119 -0.6614  0.1170  0.5153
 5293TIP3   OH215884   0.652   5.697   4.364 -0.6662  0.2479 -0.4063
 5293TIP3    H115885   0.641   5.788   4.339 -2.3158 -0.0744 -0.9261
 5293TIP3    H215886   0.565   5.659   4.359 -0.1217 -1.2119  0.4341
 5294TIP3   OH215887   5.322   3.263   2.849 -0.4573  0.0667 -0.1349
 5294TIP3    H115888   5.336   3.358   2.859  0.6672 -0.0972 -0.0052
 5294TIP3    H215889   5.237   3.247   2.888 -0.6203  1.0187 -0.0761
 5295TIP3   OH215890   6.188   5.969   1.928 -0.0248 -0.0800 -0.2651
 5295TIP3    H115891   6.200   6.063   1.913  0.6226 -0.2555 -0.9304
 5295TIP3    H215892   6.098   5.960   1.958  0.2174  0.8588  0.7814
 5296TIP3   OH215893   4.649   3.135   2.819  0.1322 -0.0922 -0.4615
 5296TIP3    H115894   4.730   3.180   2.795  0.8149 -0.8227  0.3999
 5296TIP3    H215895   4.579   3.191   2.784  1.0029  0.4926 -1.3115
 5297TIP3   OH215896   1.884   5.330   0.993  0.2846 -0.4132 -0.6619
 5297TIP3    H115897   1.797   5.339   1.031  1.1562  3.5022  0.8740
 5297TIP3    H215898   1.880   5.249   0.942 -4.3530 -0.1738 -1.0616
 5298TIP3   OH215899   1.944   0.906   0.791 -0.0859 -0.2106  0.5631
 5298TIP3    H115900   1.983   0.825   0.825 -1.4138 -1.2414 -0.2520
 5298TIP3    H215901   1.909   0.950   0.868  0.7942 -0.3091  1.0373
 5299TIP3   OH215902   2.997   0.437   2.106 -1.2269 -0.0677  0.2327
 5299TIP3    H115903   3.065   0.407   2.167 -0.0851 -1.4341 -1.6132
 5299TIP3    H215904   2.980   0.527   2.133  1.0630  0.2096  1.0289
 5300TIP3   OH215905   3.305   5.756   3.932 -0.3034  0.3052  0.1063
 5300TIP3    H115906   3.226   5.809   3.934 -0.4931  0.0902 -0.9033
 5300TIP3    H215907   3.274   5.667   3.917  0.1599  0.4528 -2.2283
 5301TIP3   OH215908   3.004   3.645   1.895 -0.2163  0.2614 -0.7520
 5301TIP3    H115909   3.039   3.556   1.900  0.2196  0.1522 -3.6869
 5301TIP3    H215910   2.921   3.636   1.848 -1.5526  1.1563  1.3224
 5302TIP3   OH215911   4.717   4.597   3.661 -0.2965  0.1355  0.3125
 5302TIP3    H115912   4.695   4.628   3.573  1.7193  1.3971  0.1774
 5302TIP3    H215913   4.740   4.505   3.649  0.3647  0.4037 -0.5775
 5303TIP3   OH215914   6.204   1.700   5.156 -0.2654 -0.0125 -0.3576
 5303TIP3    H115915   6.279   1.659   5.112 -0.5767  0.8216 -1.7278
 5303TIP3    H215916   6.131   1.690   5.095 -0.8833  0.5985  0.2558
 5304TIP3   OH215917   1.438   2.036   4.882  0.2896 -0.0013  0.3835
 5304TIP3    H115918   1.459   1.950   4.919  0.4998 -0.3270 -0.4703
 5304TIP3    H215919   1.478   2.035   4.795 -0.5613  0.5881 -0.0251
 5305TIP3   OH215920   3.635   1.580   1.169 -0.2568  0.7436  0.2770
 5305TIP3    H115921   3.576   1.527   1.114  0.7976  0.7170 -0.8668
 5305TIP3    H215922   3.588   1.588   1.252 -1.1838 -0.5990 -0.0684
 5306TIP3   OH215923   1.612   0.979   3.603 -0.3283  0.2591  0.2651
 5306TIP3    H115924   1.640   0.925   3.677  0.1950 -0.3274 -0.3414
 5306TIP3    H215925   1.563   0.919   3.547  0.1306  0.4414 -0.3452
 5307TIP3   OH215926   5.498   2.821   2.655 -0.0023  0.0945  0.1933
 5307TIP3    H115927   5.513   2.905   2.700  1.5097  0.0131 -0.0844
 5307TIP3    H215928   5.545   2.757   2.709  0.4148 -0.2641 -0.5879
 5308TIP3   OH215929   3.798   3.105   2.966  0.3330  0.3777  0.2446
 5308TIP3    H115930   3.734   3.090   3.035  0.3161  2.0919  0.6665
 5308TIP3    H215931   3.880   3.124   3.012  0.9393 -0.8944 -0.2734
 5309TIP3   OH215932   3.119   4.228   5.015  0.6055 -0.6010  0.2787
 5309TIP3    H115933   3.188   4.182   5.062 -0.6544 -1.1990  1.6216
 5309TIP3    H215934   3.141   4.320   5.022  1.0080 -0.7579  1.1087
 5310TIP3   OH215935   2.064   0.938   3.614  0.1084 -0.2732  0.5132
 5310TIP3    H115936   2.000   0.883   3.568  0.7470  1.2227 -2.3721
 5310TIP3    H215937   2.021   1.023   3.623  1.7271  0.9503 -2.0344
 5311TIP3   OH215938   3.648   3.243   4.227  0.2138  0.2789 -0.1397
 5311TIP3    H115939   3.688   3.203   4.150  0.0979 -1.2834  0.5858
 5311TIP3    H215940   3.568   3.193   4.241 -2.0765  3.2105 -1.4761
 5312TIP3   OH215941   6.299   1.142   2.480 -0.3996  0.1381 -0.0065
 5312TIP3    H115942   6.269   1.179   2.397  1.4891  0.5575 -0.5448
 5312TIP3    H215943   6.238   1.071   2.498  0.1231 -1.0839 -2.6508
 5313TIP3   OH215944   2.883   0.272   4.593  0.5463 -0.4391 -0.4611
 5313TIP3    H115945   2.849   0.277   4.504 -0.7254 -2.5143 -0.1643
 5313TIP3    H215946   2.862   0.183   4.622  1.8853 -0.1727  1.5426
 5314TIP3   OH215947   4.770   0.908   3.883 -0.0426  0.7157  0.1865
 5314TIP3    H115948   4.699   0.971   3.895 -0.4749  0.9455 -2.8796
 5314TIP3    H215949   4.812   0.903   3.969 -1.8264  2.9028  1.2897
 5315TIP3   OH215950   0.865   4.214   0.774 -0.0488  0.1240  0.5553
 5315TIP3    H115951   0.822   4.296   0.800  0.5153  0.5653  0.1268
 5315TIP3    H215952   0.793   4.154   0.757 -0.5386  0.9768 -0.5418
 5316TIP3   OH215953   5.726   4.748   4.376  0.2868  0.4072  0.1289
 5316TIP3    H115954   5.666   4.674   4.367  0.3778  0.3656 -0.1554
 5316TIP3    H215955   5.800   4.726   4.320 -1.2593  2.2881 -2.9370
 5317TIP3   OH215956   3.011   1.630   0.549  0.1822 -0.2007 -0.9201
 5317TIP3    H115957   2.999   1.679   0.630  0.1550 -0.4804 -0.7541
 5317TIP3    H215958   2.999   1.539   0.574  0.8033 -0.3396 -1.1105
 5318TIP3   OH215959   2.136   1.232   4.535 -0.4172 -0.1078 -0.2829
 5318TIP3    H115960   2.163   1.160   4.592 -0.6398 -1.4924 -1.8591
 5318TIP3    H215961   2.190   1.306   4.563  0.1744 -1.0033  1.0440
 5319TIP3   OH215962   2.212   1.760   1.908  0.1604  0.0266 -0.8606
 5319TIP3    H115963   2.294   1.754   1.956 -0.5315  1.0471  0.5194
 5319TIP3    H215964   2.228   1.828   1.841 -0.3240  2.3234  1.2011
 5320TIP3   OH215965   3.851   1.617   2.162 -0.5088  0.8094  0.5079
 5320TIP3    H115966   3.943   1.638   2.148 -0.6357  1.4890  0.6607
 5320TIP3    H215967   3.847   1.522   2.155 -0.0622  0.8743 -1.0374
 5321TIP3   OH215968   5.288   0.949   0.695 -0.3914  0.8845  0.4630
 5321TIP3    H115969   5.266   0.866   0.653 -1.5720  0.8379  1.1285
 5321TIP3    H215970   5.379   0.965   0.671 -0.1626 -0.5747  0.2866
 5322TIP3   OH215971   4.454   4.259   0.064 -0.4823 -0.5956  0.2307
 5322TIP3    H115972   4.510   4.333   0.039 -1.0520  0.0075  0.6930
 5322TIP3    H215973   4.389   4.298   0.122 -1.1580 -1.3528 -0.0104
 5323TIP3   OH215974   4.392   1.848   3.151 -0.0395 -0.2703 -0.0461
 5323TIP3    H115975   4.379   1.943   3.162  0.6219 -0.0798 -0.8353
 5323TIP3    H215976   4.385   1.834   3.057 -1.3823 -1.2100  0.1687
 5324TIP3   OH215977   3.128   1.060   2.141 -0.4768  0.0413  0.3354
 5324TIP3    H115978   3.106   1.102   2.224  1.6384  1.0544  0.4529
 5324TIP3    H215979   3.184   0.987   2.165 -1.3192 -0.7662 -0.1081
 5325TIP3   OH215980   3.756   1.262   0.344  0.1779  0.3678  0.1775
 5325TIP3    H115981   3.825   1.197   0.360  0.0190 -0.5506 -2.3853
 5325TIP3    H215982   3.797   1.326   0.285 -0.0154  2.0564  1.7892
 5326TIP3   OH215983   2.819   3.144   1.317 -0.2948  0.4032  0.0435
 5326TIP3    H115984   2.914   3.142   1.310 -0.2324 -1.2604  0.9875
 5326TIP3    H215985   2.801   3.200   1.393 -0.1882  1.9827 -1.0248
 5327TIP3   OH215986   5.669   1.854   3.523  0.3789 -0.0972  0.3953
 5327TIP3    H115987   5.615   1.864   3.601  1.3444  0.5222  1.0016
 5327TIP3    H215988   5.706   1.766   3.530 -0.7103 -0.6223 -0.1484
 5328TIP3   OH215989   6.262   5.187   4.245 -0.2364  0.0433  0.6040
 5328TIP3    H115990   6.339   5.149   4.202 -0.8775  0.6526 -1.1705
 5328TIP3    H215991   6.276   5.282   4.241 -1.3453  0.1910 -0.3190
 5329TIP3   OH215992   2.291   4.494   2.313 -0.5719 -0.1567 -0.1860
 5329TIP3    H115993   2.342   4.570   2.340 -0.3163  0.2149 -1.6311
 5329TIP3    H215994   2.211   4.531   2.275 -0.1878 -0.5452 -1.4451
 5330TIP3   OH215995   6.216   0.711   2.913 -0.1817 -0.0933 -0.5061
 5330TIP3    H115996   6.211   0.792   2.965  2.1038 -0.8189  1.0100
 5330TIP3    H215997   6.166   0.648   2.965  2.0084 -0.7892  0.8989
 5331TIP3   OH215998   5.376   5.527   4.149 -0.4169  1.0294 -0.4574
 5331TIP3    H115999   5.367   5.432   4.145 -1.3032  1.0120  1.2023
 5331TIP3    H216000   5.433   5.549   4.075 -1.2518 -0.6407 -1.6523
 5332TIP3   OH216001   4.650   1.774   0.872 -0.6662  1.7663  0.1220
 5332TIP3    H116002   4.567   1.726   0.875 -0.7437  1.7857 -1.1952
 5332TIP3    H216003   4.629   1.860   0.909 -0.9487  1.3833  0.8718
 5333TIP3   OH216004   0.368   3.636   4.201 -0.4417 -0.4473 -0.8133
 5333TIP3    H116005   0.462   3.650   4.190 -0.4238 -1.2050 -1.8168
 5333TIP3    H216006   0.327   3.715   4.168 -0.1281  1.1137  2.1878
 5334TIP3   OH216007   1.155   0.646   4.481 -0.5131  0.4554  0.3155
 5334TIP3    H116008   1.250   0.660   4.482 -0.2104 -0.9305 -1.8152
 5334TIP3    H216009   1.127   0.683   4.397 -1.3501 -1.7708 -0.4530
 5335TIP3   OH216010   3.102   3.547   4.301 -0.2989  0.1096  0.0575
 5335TIP3    H116011   3.140   3.630   4.272  0.2798 -0.1211  0.1452
 5335TIP3    H216012   3.103   3.552   4.396  1.2612 -0.6492  0.1203
 5336TIP3   OH216013   1.940   0.625   4.924 -0.0322 -0.1264 -0.1070
 5336TIP3    H116014   1.926   0.690   4.854 -1.2557 -0.0257  0.2130
 5336TIP3    H216015   1.957   0.543   4.877  2.1261  0.5010 -0.5222
 5337TIP3   OH216016   4.472   0.166   2.537 -0.0701 -0.2169 -0.4091
 5337TIP3    H116017   4.563   0.147   2.516 -0.7160 -0.7898 -3.0404
 5337TIP3    H216018   4.424   0.087   2.510 -1.3325 -0.0420  1.1949
 5338TIP3   OH216019   3.347   2.282   4.256  0.7973 -0.1162  0.2499
 5338TIP3    H116020   3.415   2.243   4.201  1.0448 -0.9867  1.1473
 5338TIP3    H216021   3.394   2.343   4.313  0.8636 -0.7936  0.9412
 5339TIP3   OH216022   3.320   1.305   1.697  0.0562 -0.4142 -0.0300
 5339TIP3    H116023   3.367   1.297   1.614  1.0533 -1.9822  0.6285
 5339TIP3    H216024   3.228   1.294   1.673  0.2982 -0.5345 -0.9591
 5340TIP3   OH216025   5.589   2.856   3.513 -0.4139  0.0347  0.5338
 5340TIP3    H116026   5.617   2.783   3.458  1.7107  1.1228  0.0832
 5340TIP3    H216027   5.588   2.821   3.602  0.4687 -0.5851  0.3073
 5341TIP3   OH216028   4.494   4.872   0.452 -0.2480 -0.3495  0.1122
 5341TIP3    H116029   4.441   4.935   0.501 -0.4888 -0.9247  0.6082
 5341TIP3    H216030   4.583   4.905   0.459 -0.7356  1.9786 -2.7705
 5342TIP3   OH216031   5.331   3.225   3.701 -0.3453  0.0009  0.1040
 5342TIP3    H116032   5.350   3.135   3.729  1.1842 -0.7552 -2.9289
 5342TIP3    H216033   5.300   3.216   3.610 -0.5064  2.5228 -0.1609
 5343TIP3   OH216034   2.989   1.360   2.451  0.2242 -0.2758  0.0040
 5343TIP3    H116035   2.942   1.361   2.534  0.2255 -1.5262  0.0355
 5343TIP3    H216036   3.013   1.451   2.436  1.4330 -0.1803  2.0615
 5344TIP3   OH216037   3.352   3.221   5.100  0.3940  0.1937 -0.3496
 5344TIP3    H116038   3.308   3.303   5.076 -0.0694  0.0318 -0.0724
 5344TIP3    H216039   3.386   3.187   5.018  0.5787  0.6598 -0.4685
 5345TIP3   OH216040   1.453   4.790   2.125 -0.5447 -0.5214 -0.0938
 5345TIP3    H116041   1.467   4.750   2.210 -0.1156 -0.4182 -0.1142
 5345TIP3    H216042   1.358   4.799   2.118 -0.6153 -1.0934  0.1096
 5346TIP3   OH216043   2.634   3.781   5.114  0.1690  0.1931  0.6876
 5346TIP3    H116044   2.552   3.795   5.065 -0.7764 -0.1650  2.1030
 5346TIP3    H216045   2.673   3.704   5.073  0.3866  1.0009 -0.7182
 5347TIP3   OH216046   2.672   2.360   5.158  0.1293  0.3717  0.0534
 5347TIP3    H116047   2.691   2.360   5.064 -0.8472  0.7354 -0.1537
 5347TIP3    H216048   2.701   2.274   5.189  1.9203  0.8289 -0.2655
 5348TIP3   OH216049   5.862   4.349   5.017  0.4480  0.4552  0.1983
 5348TIP3    H116050   5.767   4.349   5.025  0.1643  2.4958 -2.1324
 5348TIP3    H216051   5.888   4.259   5.035 -2.0170 -0.3585 -0.0447
 5349TIP3   OH216052   4.653   3.905   0.296  0.1299  0.0529 -0.0785
 5349TIP3    H116053   4.682   3.989   0.333 -2.3101 -0.2943  3.0891
 5349TIP3    H216054   4.569   3.924   0.255  0.0879 -0.6656 -0.3454
 5350TIP3   OH216055   0.302   1.108   0.346 -0.4005 -0.1877 -0.1458
 5350TIP3    H116056   0.369   1.156   0.395 -1.6994 -0.4136  1.9740
 5350TIP3    H216057   0.313   1.017   0.374 -1.5727 -0.2255  0.2354
 5351TIP3   OH216058   3.645   5.377   1.243  0.7769  0.2089  0.0545
 5351TIP3    H116059   3.701   5.368   1.320  1.2429  1.7332 -0.0827
 5351TIP3    H216060   3.690   5.327   1.174  0.4330 -1.0338  0.6972
 5352TIP3   OH216061   0.688   2.001   0.376 -0.3557 -0.2100  0.1360
 5352TIP3    H116062   0.742   2.051   0.437  0.5375 -1.2454  0.2295
 5352TIP3    H216063   0.744   1.929   0.348 -0.4743  0.6204 -2.4998
 5353TIP3   OH216064   3.587   3.383   1.350  0.3204  0.1172  0.8210
 5353TIP3    H116065   3.619   3.370   1.261 -0.7018 -0.2610  0.4972
 5353TIP3    H216066   3.600   3.477   1.366 -1.1025  0.5669 -0.4008
 5354TIP3   OH216067   3.697   1.617   0.035  0.3012  0.5948 -0.1585
 5354TIP3    H116068   3.719   1.668   0.113 -1.0853 -0.2545  0.8499
 5354TIP3    H216069   3.753   1.540   0.041 -1.1276 -0.4084  1.1037
 5355TIP3   OH216070   3.510   2.175   4.040  0.5571  0.2098  0.3234
 5355TIP3    H116071   3.602   2.194   4.021 -0.0551  2.5395 -0.6730
 5355TIP3    H216072   3.470   2.160   3.955  0.5472 -4.1712  0.9099
 5356TIP3   OH216073   3.095   1.704   3.461 -0.5393  0.3610  0.5883
 5356TIP3    H116074   3.130   1.664   3.381 -0.9524 -1.2649  1.1667
 5356TIP3    H216075   3.118   1.642   3.530  0.6902  2.2091  1.9292
 5357TIP3   OH216076   4.886   4.319   4.842  0.8970  0.1690  0.4831
 5357TIP3    H116077   4.900   4.407   4.876 -1.5817  0.9663 -0.3357
 5357TIP3    H216078   4.817   4.283   4.898 -0.6418  0.1273 -1.3563
 5358TIP3   OH216079   1.936   2.174   0.596  0.0142  0.4883 -0.0261
 5358TIP3    H116080   1.989   2.216   0.663  0.9259  1.7327 -1.4464
 5358TIP3    H216081   1.999   2.123   0.544 -0.6068 -0.1131 -0.2121
 5359TIP3   OH216082   6.318   5.842   2.823 -0.3655 -0.3105 -0.0862
 5359TIP3    H116083   6.325   5.778   2.893 -3.3233 -0.4747  0.1616
 5359TIP3    H216084   6.340   5.926   2.865  0.6788 -0.7413  0.2751
 5360TIP3   OH216085   2.767   5.903   3.288  0.2115 -0.2366  0.1977
 5360TIP3    H116086   2.757   5.972   3.222  1.7518  1.9765  2.1260
 5360TIP3    H216087   2.716   5.830   3.254  1.2806  0.5909 -3.6433
 5361TIP3   OH216088   4.726   1.563   3.496 -0.7710 -0.3152  0.0301
 5361TIP3    H116089   4.654   1.577   3.434 -1.3883  0.7370  0.9518
 5361TIP3    H216090   4.682   1.539   3.578  0.0239 -1.4674  0.1466
 5362TIP3   OH216091   1.655   1.812   2.676  0.3389 -0.0650 -0.0010
 5362TIP3    H116092   1.592   1.857   2.734  0.4547 -0.9703  0.8467
 5362TIP3    H216093   1.609   1.733   2.648  0.9629 -0.5571  0.3483
 5363TIP3   OH216094   6.179   1.734   2.873  0.1866  0.1019 -0.0764
 5363TIP3    H116095   6.157   1.660   2.930 -0.4899  0.9923  0.8651
 5363TIP3    H216096   6.190   1.808   2.933 -1.4496  1.2887 -1.1443
 5364TIP3   OH216097   2.085   5.966   1.203 -0.5206 -0.3949  0.1738
 5364TIP3    H116098   2.069   5.880   1.164  2.4225 -0.6769 -0.6406
 5364TIP3    H216099   2.136   5.947   1.281 -1.4480  0.5519  1.0380
 5365TIP3   OH216100   5.859   5.728   0.948 -0.1802 -0.4872  0.2687
 5365TIP3    H116101   5.833   5.802   0.893 -0.8533 -2.4144 -2.1510
 5365TIP3    H216102   5.937   5.693   0.907 -1.0966 -2.4102  0.0585
 5366TIP3   OH216103   5.478   0.438   0.858  0.0974  0.6424 -0.4621
 5366TIP3    H116104   5.543   0.385   0.812  0.2445 -1.7990  2.3051
 5366TIP3    H216105   5.519   0.525   0.864  2.5278 -0.4406 -0.0280
 5367TIP3   OH216106   3.174   2.730   0.589 -0.4740 -0.2999 -0.1938
 5367TIP3    H116107   3.259   2.690   0.609 -0.1895  0.2853 -0.2108
 5367TIP3    H216108   3.121   2.713   0.667 -0.1465 -0.1441  0.0678
 5368TIP3   OH216109   5.287   2.783   4.495 -0.1297 -0.4764 -0.2829
 5368TIP3    H116110   5.303   2.782   4.401 -0.2351  0.6335 -0.3209
 5368TIP3    H216111   5.374   2.794   4.534 -0.4109  3.4642 -0.4253
 5369TIP3   OH216112   0.528   0.145   0.093  0.0903  0.7698  0.2537
 5369TIP3    H116113   0.549   0.208   0.024  0.3870  1.5646  1.0443
 5369TIP3    H216114   0.552   0.190   0.174  2.1952 -1.1047  0.7535
 5370TIP3   OH216115   3.322   2.761   2.549  0.1448  0.2573 -0.2953
 5370TIP3    H116116   3.255   2.823   2.576  0.3895  0.0216  0.9269
 5370TIP3    H216117   3.397   2.815   2.524  0.3393  0.4815  0.7148
 5371TIP3   OH216118   4.947   2.569   3.317  0.9632 -0.3459 -0.6806
 5371TIP3    H116119   4.926   2.486   3.362  1.6266 -1.8974 -3.0524
 5371TIP3    H216120   4.864   2.616   3.315  0.2313 -1.5623 -0.4553
 5372TIP3   OH216121   0.572   1.338   3.872 -0.6343  0.6482  0.2097
 5372TIP3    H116122   0.538   1.249   3.879 -1.8033  1.0214 -0.5383
 5372TIP3    H216123   0.662   1.327   3.840 -1.2856 -0.2256 -1.4349
 5373TIP3   OH216124   0.133   3.267   0.439 -0.4860 -0.3334 -0.1273
 5373TIP3    H116125   0.217   3.241   0.401  0.0252  2.4068 -1.1233
 5373TIP3    H216126   0.117   3.204   0.509  2.0232 -1.3679 -0.3938
 5374TIP3   OH216127   1.991   0.555   1.461 -0.1253  0.3653 -0.1294
 5374TIP3    H116128   2.036   0.583   1.381  2.3058 -0.3193  0.9163
 5374TIP3    H216129   2.004   0.628   1.522  0.6169 -0.3184  0.5484
 5375TIP3   OH216130   0.061   0.915   1.257 -0.0058  0.2648 -0.4146
 5375TIP3    H116131   0.113   0.993   1.242 -0.4283  0.5409 -0.4724
 5375TIP3    H216132   0.031   0.922   1.347 -2.2042  1.5130 -1.1734
 5376TIP3   OH216133   5.925   2.462   1.230  0.5781  0.4623  0.4316
 5376TIP3    H116134   5.871   2.396   1.275 -1.0718  1.4230 -0.0378
 5376TIP3    H216135   5.970   2.508   1.301  0.6536 -0.2566  0.8582
 5377TIP3   OH216136   3.526   1.730   4.012 -0.2822 -0.3024 -0.4726
 5377TIP3    H116137   3.523   1.795   3.942  1.9987 -0.7884 -1.0978
 5377TIP3    H216138   3.549   1.648   3.967 -0.1275 -0.9073  0.6714
 5378TIP3   OH216139   2.208   4.915   3.638 -0.3807  0.0957  0.4125
 5378TIP3    H116140   2.286   4.862   3.654 -0.2796  0.5675  1.6050
 5378TIP3    H216141   2.163   4.871   3.566  1.1444 -0.0129 -0.5128
 5379TIP3   OH216142   0.406   5.111   2.833  0.2634  0.4877  0.1362
 5379TIP3    H116143   0.424   5.174   2.903 -1.5438  1.4491 -0.2013
 5379TIP3    H216144   0.361   5.163   2.766 -0.0057 -0.8843 -0.7735
 5380TIP3   OH216145   0.947   0.760   3.513  0.2164 -0.1230 -0.1763
 5380TIP3    H116146   0.999   0.707   3.573  1.5598  0.0644 -1.1437
 5380TIP3    H216147   0.878   0.701   3.483  1.2569 -1.1196 -0.6797
 5381TIP3   OH216148   4.824   3.454   1.634 -0.3486  1.2623 -0.5522
 5381TIP3    H116149   4.739   3.469   1.592 -1.7528 -2.1987  0.7138
 5381TIP3    H216150   4.876   3.408   1.568 -0.3952  1.1006 -0.4765
 5382TIP3   OH216151   2.906   5.702   1.305 -0.2290  0.3631 -0.1815
 5382TIP3    H116152   2.887   5.795   1.319  1.1949  0.6148  0.2553
 5382TIP3    H216153   2.895   5.662   1.392  0.8030  0.4440 -0.0062
 5383TIP3   OH216154   2.534   5.658   4.821  0.1236 -0.6438 -0.3344
 5383TIP3    H116155   2.469   5.598   4.786 -0.0541 -0.4469 -0.3413
 5383TIP3    H216156   2.617   5.610   4.815  0.1579 -0.4744 -1.3677
 5384TIP3   OH216157   1.410   3.862   2.353 -0.0293 -1.1659 -0.1371
 5384TIP3    H116158   1.500   3.886   2.373 -0.2040 -0.1285 -0.5445
 5384TIP3    H216159   1.389   3.793   2.417  0.8057 -0.8963  0.4458
 5385TIP3   OH216160   1.671   3.300   1.475 -0.0169 -0.1968  0.4553
 5385TIP3    H116161   1.599   3.243   1.446 -0.6538  0.4394  0.7376
 5385TIP3    H216162   1.630   3.386   1.485  0.6108  0.0028  1.4071
 5386TIP3   OH216163   1.064   2.768   4.126  0.5633  0.6579  0.0026
 5386TIP3    H116164   0.987   2.812   4.162  0.1895  0.0655 -0.0569
 5386TIP3    H216165   1.094   2.712   4.198  1.0531  1.0280  0.0883
 5387TIP3   OH216166   3.223   3.816   4.728 -0.4746 -0.5146 -0.3509
 5387TIP3    H116167   3.315   3.792   4.720 -0.7381 -1.4501 -0.8209
 5387TIP3    H216168   3.222   3.912   4.726  0.4688 -0.5007 -0.5296
 5388TIP3   OH216169   0.162   1.190   1.771 -0.0098 -0.1442 -0.1714
 5388TIP3    H116170   0.229   1.124   1.794  1.1408  0.8773 -0.4738
 5388TIP3    H216171   0.196   1.232   1.692  0.2490  2.0974  1.0537
 5389TIP3   OH216172   3.026   0.513  -0.003  0.1137 -1.1028 -0.6700
 5389TIP3    H116173   3.020   0.589   0.055 -0.7928 -0.8973 -1.0233
 5389TIP3    H216174   2.975   0.445   0.041 -1.0642 -0.7716 -1.4774
 5390TIP3   OH216175   6.295   0.405   2.592 -0.4051  0.1716  0.2671
 5390TIP3    H116176   6.250   0.367   2.516  0.2716 -1.5803  0.6916
 5390TIP3    H216177   6.227   0.412   2.658 -0.1175 -2.8288  1.0336
 5391TIP3   OH216178   6.312   1.060   0.514  0.4610  0.1307  0.3998
 5391TIP3    H116179   6.269   1.038   0.597 -1.6325  1.4886 -0.2557
 5391TIP3    H216180   6.405   1.061   0.536  0.0681 -0.8489  2.4101
 5392TIP3   OH216181   2.163   5.992   2.436 -0.1740 -0.5143  0.0061
 5392TIP3    H116182   2.096   5.966   2.499 -0.9745 -0.9247 -0.9811
 5392TIP3    H216183   2.114   6.012   2.356  0.4672  3.0978  0.3440
 5393TIP3   OH216184   2.272   5.513   1.124 -0.2580  0.2965 -0.2434
 5393TIP3    H116185   2.340   5.549   1.181 -0.3675  1.9826 -1.1351
 5393TIP3    H216186   2.192   5.560   1.149 -1.3182 -2.0235  1.1660
 5394TIP3   OH216187   5.107   4.613   2.884  0.2326 -0.5934  0.0908
 5394TIP3    H116188   5.065   4.661   2.813 -0.8192 -0.9514  0.4577
 5394TIP3    H216189   5.163   4.549   2.840  0.1538 -0.3291 -0.4026
 5395TIP3   OH216190   6.134   5.902   3.837 -0.1295  0.2504 -0.1441
 5395TIP3    H116191   6.091   5.843   3.899  1.0086  0.9059  1.3489
 5395TIP3    H216192   6.220   5.863   3.822  0.7208  1.5495  1.0241
 5396TIP3   OH216193   5.498   4.977   2.113  0.4102 -0.7686  0.0400
 5396TIP3    H116194   5.411   4.967   2.152  0.3413 -2.9272 -0.5616
 5396TIP3    H216195   5.553   5.007   2.185 -1.0480  2.0380  0.1180
 5397TIP3   OH216196   4.916   1.717   4.258  0.1672  0.2440 -0.2161
 5397TIP3    H116197   4.986   1.717   4.192 -0.6156 -1.5718 -1.1175
 5397TIP3    H216198   4.894   1.810   4.270 -0.1882  0.6244 -3.1121
 5398TIP3   OH216199   1.879   3.531   1.740 -0.5115  0.7479  0.2617
 5398TIP3    H116200   1.818   3.599   1.767 -1.7485 -1.1752  2.5965
 5398TIP3    H216201   1.908   3.489   1.821  1.0071 -0.8581 -1.0095
 5399TIP3   OH216202   5.858   3.451   4.835  0.0154  0.5805  0.0563
 5399TIP3    H116203   5.891   3.362   4.837  2.9209  1.4684 -2.1018
 5399TIP3    H216204   5.909   3.497   4.902 -0.3433  0.9631  0.0682
 5400TIP3   OH216205   0.348   1.578   1.942 -0.1829  0.3087 -0.3452
 5400TIP3    H116206   0.436   1.545   1.961 -1.3109 -3.6642 -1.0304
 5400TIP3    H216207   0.344   1.582   1.846 -0.8911 -0.2538 -0.3580
 5401TIP3   OH216208   2.268   0.318   0.973 -0.4066  0.3340  0.0074
 5401TIP3    H116209   2.268   0.330   1.068 -1.3592  0.4602 -0.0028
 5401TIP3    H216210   2.344   0.369   0.943 -0.9828  1.5668  0.5632
 5402TIP3   OH216211   6.317   0.990   1.790 -0.0913 -0.4533 -0.1821
 5402TIP3    H116212   6.346   1.081   1.781 -2.8962  0.5683  0.2571
 5402TIP3    H216213   6.329   0.970   1.883 -1.3843  0.2190  0.1486
 5403TIP3   OH216214   4.481   4.477   1.655 -0.3865 -0.0040  0.2826
 5403TIP3    H116215   4.398   4.466   1.702 -0.1777  4.1990  2.0250
 5403TIP3    H216216   4.544   4.500   1.723  1.3029  0.8069 -1.4696
 5404TIP3   OH216217   0.383   0.220   1.336 -0.0372  0.5852  0.1086
 5404TIP3    H116218   0.371   0.290   1.272  0.3388  1.0818  0.5697
 5404TIP3    H216219   0.471   0.187   1.319 -0.6286 -0.5727 -0.8645
 5405TIP3   OH216220   6.308   5.239   0.083  0.0268 -0.7072 -0.7624
 5405TIP3    H116221   6.317   5.247  -0.012 -1.1397 -0.3788 -0.8552
 5405TIP3    H216222   6.270   5.322   0.111  2.5484  0.1727  0.3243
 5406TIP3   OH216223   3.684   4.485   0.568 -0.3756 -0.1684  0.2075
 5406TIP3    H116224   3.703   4.556   0.507  0.7274 -0.8128 -0.2100
 5406TIP3    H216225   3.598   4.452   0.541 -0.2049  0.0078 -0.5616
 5407TIP3   OH216226   0.960   4.639   0.122 -0.1696  0.5437  0.3240
 5407TIP3    H116227   0.976   4.547   0.102  1.1311  1.0724 -1.3314
 5407TIP3    H216228   1.038   4.666   0.171 -0.0497  0.9930 -0.1035
 5408TIP3   OH216229   1.722   4.906   2.109  0.6343 -0.3222  0.0852
 5408TIP3    H116230   1.635   4.875   2.086  0.4403 -0.5385  1.0847
 5408TIP3    H216231   1.715   5.001   2.109  0.0891 -0.3553  1.3016
 5409TIP3   OH216232   3.252   2.775   2.208  0.5217 -0.1046 -0.2696
 5409TIP3    H116233   3.285   2.762   2.297  0.7925 -1.7880 -0.5679
 5409TIP3    H216234   3.327   2.756   2.152 -0.1032 -0.8377 -0.8885
 5410TIP3   OH216235   0.144   0.656   4.149  0.0150  0.1158 -0.2995
 5410TIP3    H116236   0.127   0.714   4.075  0.8782 -0.0263 -0.6172
 5410TIP3    H216237   0.057   0.632   4.182 -0.3671  2.3966  0.4931
 5411TIP3   OH216238   1.266   5.430   2.702  0.1128  0.1338 -0.0332
 5411TIP3    H116239   1.210   5.373   2.650 -0.8748  0.5922  0.4878
 5411TIP3    H216240   1.238   5.414   2.792  0.9908  0.2073  0.2621
 5412TIP3   OH216241   3.189   0.119   3.515  0.1435  0.5944  0.2933
 5412TIP3    H116242   3.245   0.179   3.466  2.4955 -1.8670 -0.2954
 5412TIP3    H216243   3.132   0.079   3.448 -0.5708  1.2485  0.4963
 5413TIP3   OH216244  -0.002   0.145   4.259  0.0451  0.1707  0.1585
 5413TIP3    H116245   0.090   0.160   4.281  0.2386 -1.4898  0.5835
 5413TIP3    H216246  -0.000   0.114   4.168  0.1347 -1.8044  0.7939
 5414TIP3   OH216247   4.365   5.730   0.536  0.4480  0.1049  0.4827
 5414TIP3    H116248   4.389   5.651   0.585  1.4812  0.2867  0.2954
 5414TIP3    H216249   4.287   5.705   0.486  0.5572 -0.6850  0.7024
 5415TIP3   OH216250   2.008   5.716   1.515 -0.0317 -0.0307  0.7997
 5415TIP3    H116251   2.008   5.777   1.588  2.3205  1.4527 -0.2997
 5415TIP3    H216252   1.934   5.743   1.461 -0.4745  0.2452  1.5329
 5416TIP3   OH216253   5.846   5.949   4.931 -0.0017 -0.8843  0.1546
 5416TIP3    H116254   5.816   5.971   5.019 -0.8568 -0.7129 -0.1647
 5416TIP3    H216255   5.939   5.972   4.930  0.0865 -1.1860  1.1051
 5417TIP3   OH216256   3.169   0.234   4.647  0.4296 -0.7307 -0.4406
 5417TIP3    H116257   3.146   0.154   4.695  0.2937 -1.2864 -1.4039
 5417TIP3    H216258   3.086   0.281   4.637  0.4776 -0.5561 -0.0413
 5418TIP3   OH216259   5.429   5.822   2.283 -0.4583 -0.3496  0.0080
 5418TIP3    H116260   5.401   5.770   2.359 -0.2222  1.3108  1.3024
 5418TIP3    H216261   5.522   5.837   2.297 -0.5384  0.4735 -0.2914
 5419TIP3   OH216262   5.200   3.188   0.156  0.3715 -0.0233  0.0205
 5419TIP3    H116263   5.116   3.144   0.165  0.5544 -0.5404 -0.7564
 5419TIP3    H216264   5.248   3.165   0.236  0.2542 -0.7706 -0.1229
 5420TIP3   OH216265   4.513   3.912   4.666  0.5873 -0.7989 -0.8167
 5420TIP3    H116266   4.478   3.861   4.593  0.6008 -1.0572 -0.6459
 5420TIP3    H216267   4.524   3.848   4.737 -1.4846 -0.1843  0.1358
 5421TIP3   OH216268   5.781   2.177   2.409 -0.5234  0.3661  0.2282
 5421TIP3    H116269   5.760   2.267   2.383 -1.6286  0.5323  1.5412
 5421TIP3    H216270   5.844   2.147   2.344 -1.0921  1.6540 -0.9765
 5422TIP3   OH216271   4.100   2.214  -0.020  0.1146  0.1651 -0.0091
 5422TIP3    H116272   4.121   2.217   0.074  0.8038  0.0694 -0.1553
 5422TIP3    H216273   4.118   2.303  -0.051  1.3896 -0.1982 -0.3565
 5423TIP3   OH216274   4.221   2.417   3.152 -0.1685 -0.0204  0.2005
 5423TIP3    H116275   4.187   2.445   3.237 -0.8042 -0.1324 -0.0108
 5423TIP3    H216276   4.287   2.482   3.130 -0.0270  0.0274  0.7670
 5424TIP3   OH216277   3.308   5.002   3.277  0.5099  0.0622  0.7146
 5424TIP3    H116278   3.288   4.916   3.314  1.3578  0.1868  1.5124
 5424TIP3    H216279   3.366   5.043   3.341  1.6080  0.4988 -0.4976
 5425TIP3   OH216280   6.188   5.419   4.397  0.4314 -0.5301  0.7366
 5425TIP3    H116281   6.148   5.371   4.469  0.3697  1.1450  1.8849
 5425TIP3    H216282   6.140   5.502   4.394  3.4703  1.4882  1.9961
 5426TIP3   OH216283   5.619   5.038   3.141 -0.1972 -0.2914 -0.6900
 5426TIP3    H116284   5.699   4.985   3.135  0.1234 -0.1620  1.4602
 5426TIP3    H216285   5.550   4.974   3.158  0.2484 -0.1323  2.3051
 5427TIP3   OH216286   4.519   0.813   1.042 -0.0279  0.8393  0.4269
 5427TIP3    H116287   4.537   0.897   1.000  0.9150  1.1258  1.3568
 5427TIP3    H216288   4.484   0.836   1.128 -3.4160  0.2852 -0.6320
 5428TIP3   OH216289   3.177   5.433   0.796 -0.0686  0.2292  0.1011
 5428TIP3    H116290   3.167   5.528   0.797  2.8624  0.6510  0.3844
 5428TIP3    H216291   3.226   5.413   0.876  1.5662 -1.1260 -1.1375
 5429TIP3   OH216292   4.899   1.602   2.883 -0.0115 -0.1459  0.4459
 5429TIP3    H116293   4.958   1.549   2.937 -0.6534 -2.0021 -0.5764
 5429TIP3    H216294   4.954   1.632   2.811 -0.1471 -1.4980 -0.2649
 5430TIP3   OH216295   2.202   5.273   4.074  0.3151  0.0763 -0.0532
 5430TIP3    H116296   2.203   5.179   4.060  0.4615  0.0473  0.1360
 5430TIP3    H216297   2.284   5.304   4.036  0.6344  0.0199  0.5718
 5431TIP3   OH216298   0.367   1.866   3.234 -0.2488  0.0871 -0.4634
 5431TIP3    H116299   0.363   1.895   3.325  0.3775  1.3209 -0.7969
 5431TIP3    H216300   0.447   1.906   3.200  0.5127 -1.8567 -1.0700
 5432TIP3   OH216301   1.708   2.871   3.216 -0.1838  0.0756  0.1763
 5432TIP3    H116302   1.743   2.959   3.213 -2.1916  0.9720  0.9463
 5432TIP3    H216303   1.617   2.880   3.188 -0.7854 -1.5271  1.4281
 5433TIP3   OH216304   2.597   4.042   3.107 -0.0417  0.4543 -0.2215
 5433TIP3    H116305   2.686   4.074   3.098  0.4760 -1.2834 -1.8896
 5433TIP3    H216306   2.552   4.111   3.156  2.7117  0.4104  2.6981
 5434TIP3   OH216307   3.605   1.055   2.173  0.2841  0.1696  0.6426
 5434TIP3    H116308   3.678   1.013   2.219 -0.7313 -0.3465  1.8662
 5434TIP3    H216309   3.636   1.066   2.083  1.3460 -1.3454  0.7851
 5435TIP3   OH216310   3.051   0.665   0.286  0.4598 -0.4402 -0.3552
 5435TIP3    H116311   3.048   0.638   0.378  1.0485  0.1603 -0.1551
 5435TIP3    H216312   3.130   0.624   0.251 -0.5007 -1.8702 -1.0058
 5436TIP3   OH216313   3.232   2.414   4.667  0.1287 -0.3065  0.1151
 5436TIP3    H116314   3.304   2.455   4.714  0.5118  0.0994 -0.8260
 5436TIP3    H216315   3.266   2.329   4.638 -0.0740 -0.5112  0.4645
 5437TIP3   OH216316   5.548   2.727   3.757  0.5406 -0.4096 -0.1549
 5437TIP3    H116317   5.524   2.748   3.847 -1.7250 -1.1294 -0.5299
 5437TIP3    H216318   5.578   2.636   3.761 -0.3732 -0.7191 -0.2488
 5438TIP3   OH216319   5.009   1.888   0.263 -0.0169 -0.1909 -0.1728
 5438TIP3    H116320   5.043   1.920   0.179 -0.8683  0.2279 -0.3616
 5438TIP3    H216321   4.991   1.966   0.314 -3.1072 -0.2116 -1.0291
 5439TIP3   OH216322   5.742   5.636   3.905 -0.3962 -0.4634 -0.7254
 5439TIP3    H116323   5.816   5.677   3.860 -1.1391  1.2625 -0.4535
 5439TIP3    H216324   5.782   5.577   3.968  0.7267 -0.3402 -1.2922
 5440TIP3   OH216325   2.250   3.560   4.139 -0.6123 -0.1194  0.5693
 5440TIP3    H116326   2.296   3.613   4.074  1.7263 -1.4645  1.0428
 5440TIP3    H216327   2.164   3.544   4.100  0.4602 -0.2928 -1.9029
 5441TIP3   OH216328   5.002   4.190   0.479 -0.0803  0.2394  0.0601
 5441TIP3    H116329   4.962   4.202   0.565 -1.8072 -1.2777 -0.4800
 5441TIP3    H216330   5.074   4.128   0.494 -0.6825 -0.3956  0.3294
 5442TIP3   OH216331   3.552   4.744   4.082  0.1151 -0.4291  0.1652
 5442TIP3    H116332   3.630   4.736   4.026  0.6038  1.6899  0.4585
 5442TIP3    H216333   3.478   4.734   4.022  0.6020 -1.4983 -0.2815
 5443TIP3   OH216334   3.630   1.986   1.789  0.0018 -0.2758  0.3588
 5443TIP3    H116335   3.702   2.008   1.849 -1.7228  1.1678  2.0141
 5443TIP3    H216336   3.612   1.893   1.805  0.2101 -0.1465  1.3674
 5444TIP3   OH216337   0.650   4.791   0.170  0.4957 -0.0689 -0.4673
 5444TIP3    H116338   0.725   4.795   0.110  1.9957  0.4050  1.3208
 5444TIP3    H216339   0.657   4.705   0.212 -1.0123 -0.7320 -1.4981
 5445TIP3   OH216340   0.348   1.743   1.243 -0.1541  0.1969 -0.1528
 5445TIP3    H116341   0.356   1.833   1.275 -0.6250  0.4231 -0.6376
 5445TIP3    H216342   0.291   1.751   1.166 -0.7087 -0.6034  0.1672
 5446TIP3   OH216343   5.610   1.920   5.227 -0.5059  0.2117 -0.2988
 5446TIP3    H116344   5.611   1.999   5.173 -1.3972  0.8750  0.6229
 5446TIP3    H216345   5.587   1.850   5.166 -1.3055  0.9108 -0.8214
 5447TIP3   OH216346   2.868   4.462   2.999  0.3206 -0.2401  0.1689
 5447TIP3    H116347   2.963   4.464   3.012  0.5438 -1.4482 -1.0519
 5447TIP3    H216348   2.833   4.523   3.064  1.8749 -0.3684  1.1581
 5448TIP3   OH216349   0.565   4.917   4.899 -0.6169 -0.1144  0.3147
 5448TIP3    H116350   0.520   4.842   4.860  0.5482  0.0818 -1.5507
 5448TIP3    H216351   0.653   4.884   4.918  0.2131  0.9868 -1.4223
 5449TIP3   OH216352   0.826   5.203   3.230  0.3686 -0.0384  0.3515
 5449TIP3    H116353   0.895   5.268   3.239 -1.5492  2.2490 -0.3434
 5449TIP3    H216354   0.774   5.211   3.310 -0.3486 -0.1382 -0.0933
 5450TIP3   OH216355   4.882   2.261   2.958 -0.0868 -0.5634 -0.4374
 5450TIP3    H116356   4.797   2.253   3.000 -1.0204  0.5969 -1.9802
 5450TIP3    H216357   4.922   2.174   2.966 -0.1999 -0.4254  2.6944
 5451TIP3   OH216358   0.048   1.632   4.756 -0.0330 -0.0271 -0.1439
 5451TIP3    H116359   0.037   1.565   4.824  0.2972  0.5711  0.5161
 5451TIP3    H216360   0.134   1.614   4.719  0.4501  0.5557  0.6499
 5452TIP3   OH216361   5.455   0.574   4.449 -0.3222  0.2246  0.2278
 5452TIP3    H116362   5.457   0.514   4.524 -0.9866 -0.6110 -0.3915
 5452TIP3    H216363   5.367   0.563   4.413  0.0777  0.3897 -0.8409
 5453TIP3   OH216364   1.796   5.835   1.368 -0.2149 -0.0368 -0.0326
 5453TIP3    H116365   1.723   5.798   1.418 -0.2687 -0.0418 -0.1151
 5453TIP3    H216366   1.757   5.861   1.284 -0.7301  2.5174  0.9204
 5454TIP3   OH216367   3.672   4.654   3.361 -0.2551 -0.1878  0.7662
 5454TIP3    H116368   3.754   4.653   3.312  0.5394 -2.0888  2.0141
 5454TIP3    H216369   3.604   4.657   3.293  0.8041  1.4533 -0.2823
 5455TIP3   OH216370   0.358   4.852   4.526 -0.1064  0.5790  0.2655
 5455TIP3    H116371   0.451   4.862   4.507 -0.3039  0.4262 -0.8818
 5455TIP3    H216372   0.355   4.816   4.615  1.0216 -1.3326 -0.3986
 5456TIP3   OH216373   0.523   1.666   2.216  0.6742  0.4243 -0.2670
 5456TIP3    H116374   0.525   1.643   2.123  2.2548 -1.5685  0.1949
 5456TIP3    H216375   0.607   1.708   2.232  0.8326 -0.1589  0.4617
 5457TIP3   OH216376   2.770   5.045   1.909 -0.3219 -0.2443  0.0165
 5457TIP3    H116377   2.787   5.009   1.822 -1.8582  0.5989 -0.6617
 5457TIP3    H216378   2.810   5.132   1.907 -0.0639 -0.3520  0.2930
 5458TIP3   OH216379   0.993   5.413   3.299 -0.8058 -0.4683 -0.1398
 5458TIP3    H116380   1.071   5.407   3.355  0.4753 -0.1380 -1.8007
 5458TIP3    H216381   1.027   5.443   3.215 -3.0515  1.9180 -0.3054
 5459TIP3   OH216382   4.638   0.154   3.819 -0.1655  0.2232 -0.3723
 5459TIP3    H116383   4.631   0.158   3.724  2.5832  1.1191 -0.6231
 5459TIP3    H216384   4.624   0.062   3.841 -0.7487 -0.0041 -1.6244
 5460TIP3   OH216385   4.286   4.261   0.875 -0.0163  0.0659  0.4840
 5460TIP3    H116386   4.247   4.310   0.802  1.6706  1.2239  0.2924
 5460TIP3    H216387   4.313   4.329   0.937 -1.2751 -0.8917  2.1411
 5461TIP3   OH216388   2.709   2.535   0.469 -0.1776  0.3728  0.5514
 5461TIP3    H116389   2.773   2.468   0.445 -0.8663  0.7721 -2.9423
 5461TIP3    H216390   2.758   2.617   0.468 -0.4030  0.5151 -0.7633
 5462TIP3   OH216391   1.085   3.216   0.209  0.1671 -0.3862 -0.5745
 5462TIP3    H116392   1.128   3.175   0.134  0.0804 -0.6072 -0.5056
 5462TIP3    H216393   1.010   3.262   0.171 -0.8744 -1.9088 -0.4486
 5463TIP3   OH216394   0.736   5.198   1.177 -0.1374 -0.0021  0.0932
 5463TIP3    H116395   0.724   5.255   1.254 -0.6209 -0.1662  0.1409
 5463TIP3    H216396   0.819   5.226   1.140  0.3692 -0.2718  0.9853
 5464TIP3   OH216397   3.971   3.589   1.840  0.1343 -0.5223 -0.2518
 5464TIP3    H116398   4.036   3.627   1.899 -1.7294  0.2994  1.3592
 5464TIP3    H216399   4.005   3.610   1.752  1.0645  1.6258  0.5457
 5465TIP3   OH216400  -0.006   3.147   2.318  0.2737 -0.7855  0.1175
 5465TIP3    H116401   0.061   3.102   2.370  0.0624 -1.6459 -0.3357
 5465TIP3    H216402   0.041   3.178   2.240  0.3398 -0.5343  0.2545
 5466TIP3   OH216403   1.260   5.255   0.896 -0.2082 -0.4156  0.4507
 5466TIP3    H116404   1.294   5.290   0.978 -2.8188  0.0589  1.4086
 5466TIP3    H216405   1.192   5.317   0.869  0.0637 -0.9585 -1.6946
 5467TIP3   OH216406   5.219   0.586   3.979 -0.8718 -0.4534  0.1482
 5467TIP3    H116407   5.134   0.563   4.017 -0.8471 -0.8529 -0.0242
 5467TIP3    H216408   5.266   0.631   4.049 -0.1078 -2.8013  1.2498
 5468TIP3   OH216409   4.568   1.016   2.577 -0.6460  0.6844 -0.2087
 5468TIP3    H116410   4.565   1.102   2.535 -0.2359  0.2469 -1.1682
 5468TIP3    H216411   4.515   0.960   2.520 -1.5614  0.4635  0.8261
 5469TIP3   OH216412   0.746   0.115   4.369 -0.2315  0.3586 -0.9154
 5469TIP3    H116413   0.663   0.143   4.407 -0.9660  0.1056 -2.2815
 5469TIP3    H216414   0.771   0.037   4.418  0.0403  1.3480  0.5687
 5470TIP3   OH216415   5.894   2.731   2.284  0.1377 -0.1370  0.0118
 5470TIP3    H116416   5.966   2.781   2.323  0.2588  0.3838 -0.8448
 5470TIP3    H216417   5.827   2.727   2.352  0.2230  1.0123  0.1793
 5471TIP3   OH216418   3.380   5.453   1.834 -0.6558  0.0870  0.5283
 5471TIP3    H116419   3.432   5.440   1.913  0.9633  0.2961 -0.4600
 5471TIP3    H216420   3.342   5.540   1.844 -1.0293 -0.1663  1.3776
 5472TIP3   OH216421   0.918   5.332   2.358  0.2638  0.0371 -0.5385
 5472TIP3    H116422   0.969   5.412   2.366  0.9580 -0.3694 -0.7516
 5472TIP3    H216423   0.932   5.286   2.440  0.0116  0.0532 -0.4866
 5473TIP3   OH216424   4.113   1.990   0.947  0.3108  0.5755 -0.3696
 5473TIP3    H116425   4.142   1.934   0.876 -0.4057  0.4550 -0.5775
 5473TIP3    H216426   4.021   1.966   0.960 -0.0739  1.8496 -0.6133
 5474TIP3   OH216427   2.808   0.940   3.684  0.0036  0.1253 -0.1914
 5474TIP3    H116428   2.899   0.927   3.657  0.4207  1.4379  0.5100
 5474TIP3    H216429   2.814   0.973   3.774 -1.1889 -0.2146  0.0324
 5475TIP3   OH216430   2.351   3.844   4.992  0.8513  0.9124 -0.4962
 5475TIP3    H116431   2.343   3.939   4.986 -3.1035  0.8281  0.6503
 5475TIP3    H216432   2.309   3.822   5.075  1.5611 -1.8682 -0.7942
 5476TIP3   OH216433   0.223   1.774   1.003  0.0570  0.4856 -0.2030
 5476TIP3    H116434   0.139   1.731   1.013  0.5548 -0.3829  0.3793
 5476TIP3    H216435   0.247   1.761   0.911 -0.1108  0.1147 -0.1926
 5477TIP3   OH216436   1.921   0.279   3.197  0.2565 -0.1706 -0.2011
 5477TIP3    H116437   1.953   0.362   3.230 -1.5945  0.8427 -0.8030
 5477TIP3    H216438   1.918   0.222   3.274  1.8714  0.1778  0.1511
 5478TIP3   OH216439   4.669   3.424   4.684 -0.4595  0.8128  0.2302
 5478TIP3    H116440   4.730   3.496   4.667  0.3312  0.2111  0.4600
 5478TIP3    H216441   4.614   3.420   4.606 -1.9214  3.0223  1.0747
 5479TIP3   OH216442   2.841   5.525   1.546 -0.5384  0.2678  0.2944
 5479TIP3    H116443   2.748   5.532   1.523 -0.1368  0.7522 -1.3431
 5479TIP3    H216444   2.847   5.446   1.599 -1.9115  0.3325  0.5785
 5480TIP3   OH216445   1.162   2.528   0.751  0.0073  0.0254  0.0774
 5480TIP3    H116446   1.217   2.457   0.717  0.6102  0.4495  0.1487
 5480TIP3    H216447   1.121   2.491   0.829 -1.0703 -0.8283 -0.8482
 5481TIP3   OH216448   5.015   3.081   3.782 -0.3392  0.1832  0.2031
 5481TIP3    H116449   5.083   3.102   3.846 -0.0184  2.6222 -0.7938
 5481TIP3    H216450   4.935   3.119   3.819 -0.3272  0.8201 -0.4002
 5482TIP3   OH216451   6.166   5.186   2.765  0.2308  0.6224 -0.5040
 5482TIP3    H116452   6.115   5.203   2.843 -1.5906 -1.3965 -1.1460
 5482TIP3    H216453   6.229   5.118   2.791 -1.4418 -1.2380 -1.0816
 5483TIP3   OH216454   4.926   0.254   2.902  0.2400  0.1935  0.0344
 5483TIP3    H116455   4.853   0.261   2.840 -1.7394 -0.2933  2.1438
 5483TIP3    H216456   4.954   0.344   2.916 -1.3138  0.6391  0.5905
 5484TIP3   OH216457   3.417   4.587   3.489 -0.1226  0.1241 -0.2536
 5484TIP3    H116458   3.466   4.600   3.408  1.5219  0.1276  0.6953
 5484TIP3    H216459   3.483   4.595   3.558 -2.0373  4.6438  1.4419
 5485TIP3   OH216460   6.165   0.753   5.010 -0.3650  0.0647 -0.1154
 5485TIP3    H116461   6.105   0.778   5.081  1.1323  1.2769  0.7808
 5485TIP3    H216462   6.135   0.666   4.983 -0.0604 -1.1654  3.0705
 5486TIP3   OH216463   0.997   5.691   0.010  0.1019  0.6604  0.0699
 5486TIP3    H116464   1.085   5.677   0.044  0.7331  0.7405 -1.4448
 5486TIP3    H216465   0.967   5.605  -0.018 -0.0027  0.7523 -0.1039
 5487TIP3   OH216466   6.349   2.788   3.544  0.3725 -0.1485 -0.1076
 5487TIP3    H116467   6.263   2.808   3.581  0.8298  0.9163  0.4390
 5487TIP3    H216468   6.402   2.866   3.564  1.1430 -0.3066 -1.4399
 5488TIP3   OH216469   1.797   4.600   3.518 -0.0134  0.3286 -0.1044
 5488TIP3    H116470   1.882   4.555   3.524  0.5041  1.3996  0.9497
 5488TIP3    H216471   1.799   4.643   3.433  0.2984 -0.0617 -0.2982
 5489TIP3   OH216472   4.693   0.572   1.183  0.3050  0.0290 -0.3935
 5489TIP3    H116473   4.664   0.609   1.099  0.4592  1.2547  0.0743
 5489TIP3    H216474   4.772   0.522   1.161 -0.1953 -0.4731 -1.1178
 5490TIP3   OH216475   4.331   5.796   2.545  0.1289 -0.2262 -0.4022
 5490TIP3    H116476   4.425   5.796   2.566  0.0885  0.3054 -0.2152
 5490TIP3    H216477   4.300   5.881   2.574 -0.3763 -0.3254 -0.6457
 5491TIP3   OH216478   5.634   1.706   4.044 -0.0129 -0.4310  0.2820
 5491TIP3    H116479   5.721   1.705   4.003  1.5766  3.3426  2.9327
 5491TIP3    H216480   5.649   1.674   4.132 -1.4554 -0.3389  0.5830
 5492TIP3   OH216481   1.279   1.032   1.830  0.1056  0.4951 -0.6138
 5492TIP3    H116482   1.356   0.980   1.856 -0.2972 -0.9885 -2.2310
 5492TIP3    H216483   1.237   1.055   1.913  1.0587 -0.5817  0.2026
 5493TIP3   OH216484   5.321   3.497   3.034  0.4789 -0.4534 -0.4050
 5493TIP3    H116485   5.414   3.520   3.030  0.3082  0.4255  0.3156
 5493TIP3    H216486   5.275   3.581   3.039 -0.2025 -0.8803  1.8476
 5494TIP3   OH216487   2.937   5.981   0.470  0.4341 -0.2934  0.0060
 5494TIP3    H116488   3.032   5.971   0.483  0.2648 -1.8359  0.2661
 5494TIP3    H216489   2.899   5.953   0.553 -0.3291 -2.1019 -0.9008
 5495TIP3   OH216490   3.954   5.171   1.518  0.5819 -0.0838  0.5733
 5495TIP3    H116491   3.917   5.248   1.559  0.2516 -0.8279  1.7200
 5495TIP3    H216492   3.934   5.099   1.578 -0.0391 -1.2489 -0.9563
 5496TIP3   OH216493   2.973   2.370   0.877  0.0954  0.1200  0.2121
 5496TIP3    H116494   3.053   2.322   0.896  1.8618  2.5609 -0.4802
 5496TIP3    H216495   2.923   2.312   0.819  2.1212 -0.8678 -0.6461
 5497TIP3   OH216496   1.736   3.124   2.189  0.9671 -0.4524 -0.0064
 5497TIP3    H116497   1.785   3.095   2.112  0.2708  0.0710 -0.6597
 5497TIP3    H216498   1.761   3.215   2.201 -0.8486  0.2549 -1.1939
 5498TIP3   OH216499   5.059   2.379   3.174 -0.3861 -0.4363  0.1961
 5498TIP3    H116500   5.025   2.452   3.227 -0.6266 -0.6116  0.2904
 5498TIP3    H216501   4.994   2.368   3.105  1.4192  1.7938 -2.0229
 5499TIP3   OH216502   2.508   3.815   0.889  0.0130 -0.3134 -0.4289
 5499TIP3    H116503   2.520   3.909   0.876  1.4307 -0.2068  1.2829
 5499TIP3    H216504   2.476   3.807   0.979 -1.7995 -1.4024 -1.1117
 5500TIP3   OH216505   3.402   4.351   4.213 -0.2215 -0.1760 -0.3410
 5500TIP3    H116506   3.399   4.361   4.308 -1.4125 -0.7064 -0.3041
 5500TIP3    H216507   3.348   4.274   4.195  0.6781 -0.5852 -1.3839
 5501TIP3   OH216508   1.671   2.249   1.791 -0.0602 -0.5313  0.1375
 5501TIP3    H116509   1.648   2.159   1.812 -0.4935 -0.6572 -0.8298
 5501TIP3    H216510   1.730   2.276   1.862  1.2776 -2.0512 -0.3519
 5502TIP3   OH216511   2.355   2.925   4.547 -0.3928 -0.0296 -0.2565
 5502TIP3    H116512   2.438   2.887   4.519  0.6135  1.1477  1.0128
 5502TIP3    H216513   2.323   2.866   4.615  0.1145  0.2484  0.2315
 5503TIP3   OH216514   2.689   4.920   4.236  0.1883 -0.3949  0.0010
 5503TIP3    H116515   2.717   4.855   4.300  0.9147  1.7820  2.0165
 5503TIP3    H216516   2.770   4.956   4.200 -0.1529  0.5988  0.2016
 5504TIP3   OH216517   1.790   5.446   3.881 -0.1119 -0.5761 -0.1795
 5504TIP3    H116518   1.814   5.355   3.864 -0.6119 -0.2985 -2.7213
 5504TIP3    H216519   1.696   5.443   3.899 -0.3403 -0.4969 -1.2708
 5505TIP3   OH216520   4.357   2.284   1.813  0.4150 -0.0985  0.1319
 5505TIP3    H116521   4.412   2.361   1.828  1.3152 -0.6707 -0.1574
 5505TIP3    H216522   4.407   2.231   1.751 -0.5484 -0.5544 -0.2721
 5506TIP3   OH216523   1.133   1.222   2.887 -0.6447  0.4510 -0.0982
 5506TIP3    H116524   1.052   1.211   2.937  0.2140  0.3884  1.3353
 5506TIP3    H216525   1.147   1.316   2.883  0.0160  0.4120  1.0270
 5507TIP3   OH216526   3.526   4.094   4.068 -0.0528  0.0620 -0.1622
 5507TIP3    H116527   3.584   4.160   4.031 -0.5020  0.3617 -0.3417
 5507TIP3    H216528   3.439   4.119   4.038 -0.3891  0.1142  0.8280
 5508TIP3   OH216529   1.567   0.810   0.148  0.2712  0.3358  0.0264
 5508TIP3    H116530   1.643   0.773   0.192  0.6471  1.1279  0.0639
 5508TIP3    H216531   1.577   0.905   0.158 -1.6210  0.4240  1.5255
 5509TIP3   OH216532   2.563   2.086   3.712 -0.5974  0.0322  0.2527
 5509TIP3    H116533   2.472   2.060   3.726 -0.5785  1.1208  2.9440
 5509TIP3    H216534   2.565   2.117   3.621 -3.1459  0.8289  0.3854
 5510TIP3   OH216535   4.807   3.634   5.063 -0.2449  0.2464 -0.5017
 5510TIP3    H116536   4.784   3.596   5.148  0.0360 -1.3332 -1.0841
 5510TIP3    H216537   4.837   3.559   5.011 -0.0477  1.2345 -1.8747
 5511TIP3   OH216538   1.460   3.404   4.273  0.1113 -0.2511 -0.4782
 5511TIP3    H116539   1.459   3.335   4.207 -1.2163 -0.9592  0.2538
 5511TIP3    H216540   1.551   3.434   4.274  0.7952 -2.1599 -0.6311
 5512TIP3   OH216541   2.321   3.839   0.600  0.5345  0.2493  0.0049
 5512TIP3    H116542   2.325   3.927   0.562 -0.3153  0.2573 -0.0857
 5512TIP3    H216543   2.280   3.852   0.685 -3.6022 -0.5059 -1.6472
 5513TIP3   OH216544   5.474   0.156   4.534 -0.1473 -0.5336 -0.4316
 5513TIP3    H116545   5.515   0.115   4.610 -0.2537 -1.3710 -0.8100
 5513TIP3    H216546   5.482   0.090   4.465 -2.7790 -1.0465 -0.3369
 5514TIP3   OH216547   3.100   5.272   1.308 -0.4790  0.1738 -0.3495
 5514TIP3    H116548   3.106   5.364   1.283  1.2758  0.3749  0.6628
 5514TIP3    H216549   3.187   5.251   1.341 -1.3434 -1.3844  1.0360
 5515TIP3   OH216550   3.768   5.075   1.900 -0.8753 -0.1142 -0.0169
 5515TIP3    H116551   3.831   5.120   1.956 -1.2322  0.6192 -0.1993
 5515TIP3    H216552   3.818   5.048   1.823 -0.8597  0.7897 -0.3271
 5516TIP3   OH216553   4.390   6.023   0.556  0.2179 -0.4347  0.3784
 5516TIP3    H116554   4.362   6.022   0.464 -0.8918  0.6359  0.6766
 5516TIP3    H216555   4.410   5.932   0.576  1.6405 -0.5202 -1.2623
 5517TIP3   OH216556   3.043   3.720   0.718  0.6722 -0.0677  0.1277
 5517TIP3    H116557   3.120   3.679   0.759  1.2493  1.6827  0.9064
 5517TIP3    H216558   3.048   3.812   0.745 -2.5485 -0.1797  1.5167
 5518TIP3   OH216559   4.773   0.112   3.115 -0.5700 -0.0801  0.2931
 5518TIP3    H116560   4.763   0.181   3.180  1.2239 -0.0222  0.5809
 5518TIP3    H216561   4.821   0.154   3.044  1.1933 -1.1584  0.7834
 5519TIP3   OH216562   2.405   0.196   2.377  0.0305 -0.4150  0.2546
 5519TIP3    H116563   2.335   0.261   2.365  0.2823  0.2528  2.1173
 5519TIP3    H216564   2.358   0.114   2.389 -0.4069 -0.1136  0.6567
 5520TIP3   OH216565   0.332   3.108   0.353 -0.1474 -0.1990 -0.0970
 5520TIP3    H116566   0.288   3.027   0.329  0.4336 -0.5526  0.0208
 5520TIP3    H216567   0.366   3.092   0.441 -1.1944  0.6475  0.4929
 5521TIP3   OH216568   2.559   4.944   3.118 -0.1262  0.7477 -0.0441
 5521TIP3    H116569   2.580   5.037   3.117 -0.9145  0.9483  1.0809
 5521TIP3    H216570   2.599   4.911   3.199 -4.8908  1.4092  2.9996
 5522TIP3   OH216571   2.747   2.591   0.168 -0.0057  0.4106  0.2558
 5522TIP3    H116572   2.685   2.627   0.105  0.9591 -0.3360 -1.1850
 5522TIP3    H216573   2.720   2.627   0.252 -1.4962  1.2396 -0.5398
 5523TIP3   OH216574   0.613   2.192   2.088 -0.5368 -0.5500  0.3410
 5523TIP3    H116575   0.582   2.283   2.089 -0.2787 -0.4443  2.2064
 5523TIP3    H216576   0.708   2.199   2.083 -0.5229 -0.7324  0.3435
 5524TIP3   OH216577   3.213   0.370   3.090  0.1111  0.5382  0.1036
 5524TIP3    H116578   3.259   0.316   3.025  0.7346  1.0784  0.0896
 5524TIP3    H216579   3.201   0.454   3.046  1.0590  1.0990  0.8943
 5525TIP3   OH216580   2.960   2.010   5.147  0.5968 -0.1708  0.3383
 5525TIP3    H116581   3.033   2.059   5.109  0.6876 -1.1755 -0.8606
 5525TIP3    H216582   2.932   1.951   5.077 -1.5268  0.3345  0.7090
 5526TIP3   OH216583   1.915   5.190   3.865  1.0692 -0.3362 -0.2331
 5526TIP3    H116584   2.002   5.169   3.900  1.8711 -1.3452 -2.5380
 5526TIP3    H216585   1.913   5.144   3.780 -1.8012 -0.4847 -0.1739
 5527TIP3   OH216586   1.767   4.848   1.070  0.5285  0.2477 -0.2103
 5527TIP3    H116587   1.814   4.790   1.129  2.3862  0.6736 -1.1736
 5527TIP3    H216588   1.707   4.791   1.022  1.6057 -0.7243 -0.4441
 5528TIP3   OH216589   3.271   1.807   1.704 -1.1772 -0.2195  0.8542
 5528TIP3    H116590   3.185   1.790   1.667 -1.3066  0.6662  0.7086
 5528TIP3    H216591   3.284   1.901   1.691  0.0608 -0.4402  0.3331
 5529TIP3   OH216592   5.530   2.398   5.232  0.0159  0.2764  0.8661
 5529TIP3    H116593   5.451   2.376   5.182  0.1802 -1.3614  1.2746
 5529TIP3    H216594   5.597   2.412   5.166 -0.5238  1.3832  0.5269
 5530TIP3   OH216595   5.944   1.786   2.457 -0.4167 -0.1163 -0.1586
 5530TIP3    H116596   5.999   1.827   2.390 -0.4439 -1.0794 -0.7837
 5530TIP3    H216597   5.865   1.759   2.410  0.4430 -2.7470 -0.2539
 5531TIP3   OH216598   0.301   2.609   0.360  0.1160  0.2392 -0.0729
 5531TIP3    H116599   0.219   2.592   0.408 -0.6197  1.5738 -0.8138
 5531TIP3    H216600   0.352   2.664   0.419 -0.0187  0.3943 -0.1020
 5532TIP3   OH216601   4.403   4.322   1.152 -0.3917 -0.1232  0.5615
 5532TIP3    H116602   4.425   4.345   1.243 -0.5802  0.0026  0.5755
 5532TIP3    H216603   4.312   4.350   1.142 -0.4295 -0.3085  0.3906
 5533TIP3   OH216604   4.345   2.226   3.599 -0.1737  0.1604 -0.3025
 5533TIP3    H116605   4.405   2.278   3.653 -0.5063  1.4201 -1.1127
 5533TIP3    H216606   4.362   2.136   3.626  2.6220  0.3941 -0.9962
 5534TIP3   OH216607   2.480   1.580   4.210 -0.0035  0.5081 -0.3821
 5534TIP3    H116608   2.403   1.626   4.244 -0.9410 -0.0681 -1.6281
 5534TIP3    H216609   2.547   1.648   4.202  0.4604  0.6096  2.9450
 5535TIP3   OH216610   4.911   3.908   4.431 -0.6862 -0.3086 -0.1868
 5535TIP3    H116611   4.998   3.887   4.465 -0.1133  0.7398 -0.9379
 5535TIP3    H216612   4.883   3.984   4.481 -0.8587 -0.2085 -0.4312
 5536TIP3   OH216613   1.461   0.625   4.010  0.2275 -0.4381 -0.5044
 5536TIP3    H116614   1.445   0.614   4.104  2.2205 -1.6819 -0.2390
 5536TIP3    H216615   1.524   0.698   4.006  0.2574 -0.4832 -0.8581
 5537TIP3   OH216616   5.906   0.212   0.303 -0.0328  0.1075  0.5194
 5537TIP3    H116617   5.918   0.301   0.337  0.9602 -0.5235  1.8765
 5537TIP3    H216618   5.836   0.175   0.358 -0.5589  0.0784 -0.1486
 5538TIP3   OH216619   5.051   1.953   4.923 -1.2014  0.0622 -0.8775
 5538TIP3    H116620   5.040   1.871   4.971  0.6890 -0.3289 -1.0190
 5538TIP3    H216621   4.978   2.007   4.951 -0.8448 -0.5977  1.5494
 5539TIP3   OH216622   6.238   4.686   1.281  0.3243 -0.0204 -0.0005
 5539TIP3    H116623   6.148   4.708   1.306  0.6156  2.2490 -0.7621
 5539TIP3    H216624   6.292   4.723   1.350  0.7566 -0.0939 -0.2963
 5540TIP3   OH216625   1.158   3.455   1.716  0.1735 -0.0017 -0.1224
 5540TIP3    H116626   1.249   3.451   1.745 -0.0063  0.7803  0.5625
 5540TIP3    H216627   1.111   3.497   1.788 -0.1333  2.8673 -1.8493
 5541TIP3   OH216628   4.633   2.361   5.154 -0.4248  0.6123  0.4336
 5541TIP3    H116629   4.599   2.366   5.244  2.1625 -0.8891  1.6044
 5541TIP3    H216630   4.627   2.269   5.131  3.1626  0.0800  0.9989
 5542TIP3   OH216631   1.728   5.048   2.426  0.1792 -0.1285  0.3231
 5542TIP3    H116632   1.804   5.106   2.423 -0.1078  0.2430  0.3183
 5542TIP3    H216633   1.756   4.971   2.376  0.7345 -0.2104  0.7477
 5543TIP3   OH216634   1.222   1.863   2.796 -0.0352 -0.5913 -0.2293
 5543TIP3    H116635   1.214   1.955   2.819 -0.4571 -0.9481  1.1091
 5543TIP3    H216636   1.300   1.833   2.841 -0.6986 -1.2282  0.5139
 5544TIP3   OH216637   5.141   1.118   0.509 -0.5736  0.0011  0.2690
 5544TIP3    H116638   5.056   1.155   0.536 -0.9685 -1.2261  0.7665
 5544TIP3    H216639   5.156   1.046   0.570  1.3971  0.8848  0.9168
 5545TIP3   OH216640   3.289   3.328   0.566  0.0458 -0.3980 -0.1422
 5545TIP3    H116641   3.355   3.261   0.585 -0.4989 -1.3959 -1.5398
 5545TIP3    H216642   3.245   3.344   0.649  0.3774 -1.5900  0.2806
 5546TIP3   OH216643   0.785   0.518   1.731 -0.0934  0.1703  0.4796
 5546TIP3    H116644   0.696   0.552   1.740  1.0417  3.4897  0.3261
 5546TIP3    H216645   0.841   0.592   1.752  2.6649 -0.9918 -2.1245
 5547TIP3   OH216646   1.198   0.506   3.822  0.3685 -0.3201 -0.3684
 5547TIP3    H116647   1.149   0.557   3.757  0.7636  0.3995 -0.1122
 5547TIP3    H216648   1.132   0.476   3.884  0.1016 -0.3214 -0.6485
 5548TIP3   OH216649   2.218   0.873   2.494 -0.3011 -0.3881  0.0135
 5548TIP3    H116650   2.260   0.952   2.527 -0.2454 -0.5033  0.2240
 5548TIP3    H216651   2.162   0.844   2.566 -0.2525 -0.5903 -0.0287
 5549TIP3   OH216652   0.923   2.941   1.336  0.8288  0.0253  0.0893
 5549TIP3    H116653   0.898   3.022   1.290  0.6851  1.3952  2.4027
 5549TIP3    H216654   1.019   2.941   1.332  0.8036 -0.3305 -0.8835
 5550TIP3   OH216655   4.339   1.179   1.758 -0.4666  0.2655  0.0477
 5550TIP3    H116656   4.359   1.259   1.807 -0.0842 -0.0517  0.4154
 5550TIP3    H216657   4.247   1.163   1.776  0.1057 -0.9225  2.2944
 5551TIP3   OH216658   4.031   3.644   1.308 -0.0350 -0.1897 -0.0276
 5551TIP3    H116659   3.982   3.566   1.333  0.5143 -0.6865 -0.4743
 5551TIP3    H216660   4.123   3.622   1.327  0.2005  0.0673 -0.8449
 5552TIP3   OH216661   1.241   1.288   2.050  0.0632  0.0699  0.7789
 5552TIP3    H116662   1.180   1.331   2.110  0.3850 -0.2622  1.3470
 5552TIP3    H216663   1.288   1.225   2.104  0.4317 -0.1608  0.1988
 5553TIP3   OH216664   2.916   0.171   3.771 -0.0717 -0.3111 -0.4252
 5553TIP3    H116665   2.975   0.127   3.832  0.8714  1.1682 -0.2119
 5553TIP3    H216666   2.955   0.258   3.758  0.4287 -0.9048 -4.0286
 5554TIP3   OH216667   2.562   4.427   2.697  0.1204  0.3178  0.4969
 5554TIP3    H116668   2.601   4.515   2.704  1.3161 -0.2498  1.3605
 5554TIP3    H216669   2.607   4.376   2.765 -2.7833 -0.1725  2.2188
 5555TIP3   OH216670   0.955   1.497   4.708 -0.1516 -0.4407  0.1013
 5555TIP3    H116671   1.021   1.427   4.713  0.7326  0.4034  0.9149
 5555TIP3    H216672   0.943   1.524   4.799 -1.3683 -0.3240 -0.0807
 5556TIP3   OH216673   1.852   3.749   2.437 -0.2051 -0.0444  0.7467
 5556TIP3    H116674   1.834   3.842   2.424  1.2395  0.2803  0.8346
 5556TIP3    H216675   1.840   3.735   2.531 -0.6368  0.0046  0.6987
 5557TIP3   OH216676   3.945   5.370   0.615  0.0167  0.1608 -0.2573
 5557TIP3    H116677   3.911   5.281   0.604  2.0623 -0.8256  0.7917
 5557TIP3    H216678   4.039   5.362   0.596  0.3253  2.0213  0.2897
 5558TIP3   OH216679   4.888   1.041   3.202 -0.3789  1.3423  0.8766
 5558TIP3    H116680   4.848   1.036   3.290  1.1765  1.8452  1.6454
 5558TIP3    H216681   4.975   1.002   3.213 -0.2622  1.1772 -0.5217
 5559TIP3   OH216682   0.595   4.642   3.325  0.2746  0.3573  0.6833
 5559TIP3    H116683   0.531   4.606   3.387  0.8599 -0.2912  0.9270
 5559TIP3    H216684   0.607   4.572   3.261  0.9690  0.3576  0.8111
 5560TIP3   OH216685   2.673   4.800   0.594  0.0004  0.0958 -0.6573
 5560TIP3    H116686   2.762   4.830   0.575  0.1711  1.1233  1.4896
 5560TIP3    H216687   2.619   4.878   0.584 -0.3134 -0.0063  0.1597
 5561TIP3   OH216688   3.683   3.666   1.863  0.2123  0.0638  0.4445
 5561TIP3    H116689   3.771   3.638   1.888 -0.0490  0.0613  1.3742
 5561TIP3    H216690   3.680   3.759   1.884 -1.0530 -0.5565  3.5898
 5562TIP3   OH216691   2.273   4.573   3.367 -0.0308  0.5210 -0.4187
 5562TIP3    H116692   2.290   4.593   3.275  0.0230 -0.3705 -0.6187
 5562TIP3    H216693   2.211   4.640   3.395  0.0090  0.8487 -1.0821
 5563TIP3   OH216694   2.872   0.026   3.534 -0.1266  0.3464  0.4695
 5563TIP3    H116695   2.860  -0.068   3.551 -2.3541  0.5164  0.0927
 5563TIP3    H216696   2.905   0.061   3.617 -1.1129 -0.4792  1.2407
 5564TIP3   OH216697   4.567   3.393   2.026  0.0741 -0.0466  0.5691
 5564TIP3    H116698   4.497   3.404   1.962 -1.2413  2.3866  2.2458
 5564TIP3    H216699   4.537   3.321   2.082 -1.8482  1.7304  2.0009
 5565TIP3   OH216700   1.823   3.910   2.683 -0.3414 -0.0517  0.2751
 5565TIP3    H116701   1.788   3.875   2.765 -0.4503  0.1090  0.2976
 5565TIP3    H216702   1.912   3.939   2.706 -0.6507  0.7272  0.5363
 5566TIP3   OH216703   3.772   4.685   2.128 -0.1598  0.1494 -0.0495
 5566TIP3    H116704   3.747   4.702   2.219 -1.5721 -2.3005  0.1040
 5566TIP3    H216705   3.696   4.641   2.090  0.5418  0.7991 -2.3507
 5567TIP3   OH216706   4.006   4.893   2.099 -0.1321  0.2933  0.0750
 5567TIP3    H116707   3.987   4.802   2.123  0.5889  0.2662  0.5928
 5567TIP3    H216708   3.930   4.942   2.131 -1.3958 -0.3250 -1.8314
 5568TIP3   OH216709   3.546   0.959   0.940  0.1491 -0.6077  0.2350
 5568TIP3    H116710   3.623   1.014   0.927 -1.7512  2.6025  1.5201
 5568TIP3    H216711   3.545   0.939   1.034 -0.3211 -1.0651  0.1405
 5569TIP3   OH216712   6.281   0.078   4.992 -0.4152 -0.1442 -0.3878
 5569TIP3    H116713   6.335   0.158   4.994 -0.2701 -0.2172  1.8952
 5569TIP3    H216714   6.252   0.070   4.901  2.8931  0.2518 -1.6001
 5570TIP3   OH216715   3.876   3.723   0.307 -0.4344  0.5388  0.2481
 5570TIP3    H116716   3.895   3.643   0.257  1.4799  0.8028  0.5016
 5570TIP3    H216717   3.805   3.698   0.366  0.2415 -1.0510  0.4386
 5571TIP3   OH216718   0.398   2.791   1.828  0.3996 -0.6129 -0.7357
 5571TIP3    H116719   0.418   2.841   1.748 -0.5823 -0.6489 -1.0119
 5571TIP3    H216720   0.484   2.773   1.867  0.8232  0.3930 -1.1791
 5572TIP3   OH216721   0.257   0.230   4.233  0.0669  0.4708 -0.4117
 5572TIP3    H116722   0.304   0.314   4.231 -0.0463  0.5229 -1.6438
 5572TIP3    H216723   0.267   0.194   4.145 -0.6147 -0.4104 -0.1523
 5573TIP3   OH216724   6.251   5.494   0.247  0.1939 -0.1072  0.1263
 5573TIP3    H116725   6.206   5.576   0.267 -2.8915 -1.5280 -0.5583
 5573TIP3    H216726   6.328   5.521   0.197  0.8212  2.4926  2.2423
 5574TIP3   OH216727   1.042   1.290   0.489  0.0271  0.4128 -0.8153
 5574TIP3    H116728   1.112   1.254   0.544 -0.3830  1.0109  0.1362
 5574TIP3    H216729   0.975   1.222   0.487 -0.0295  0.4523 -0.4134
 5575TIP3   OH216730   1.430   1.948   4.386 -0.0459  0.6236  0.1397
 5575TIP3    H116731   1.385   2.026   4.355 -0.3473  0.1683 -0.6044
 5575TIP3    H216732   1.370   1.876   4.366  0.5426  0.1227  0.1302
 5576TIP3   OH216733   2.085   4.359  -0.015  0.2488 -0.3530  0.1178
 5576TIP3    H116734   2.165   4.330   0.030 -0.3400  0.5547  1.8422
 5576TIP3    H216735   2.027   4.386   0.056 -1.2570 -0.1305 -1.1611
 5577TIP3   OH216736   4.671   3.921   0.681  0.4338 -0.3202 -0.7480
 5577TIP3    H116737   4.716   3.909   0.764 -1.1907 -2.7193 -0.1189
 5577TIP3    H216738   4.600   3.982   0.700 -0.9420 -2.0925  0.1427
 5578TIP3   OH216739   3.891   1.506   4.243 -0.0882 -0.1413  0.5530
 5578TIP3    H116740   3.916   1.588   4.199 -0.0339  0.3044  1.3948
 5578TIP3    H216741   3.973   1.459   4.254 -0.1294 -0.3451  0.0008
 5579TIP3   OH216742   1.748   0.543   1.337 -0.1671 -0.1712  0.3899
 5579TIP3    H116743   1.811   0.591   1.284  0.8227 -2.1438 -0.2992
 5579TIP3    H216744   1.782   0.550   1.426 -0.4514  0.9865  0.4338
 5580TIP3   OH216745   2.035   5.349   3.413 -0.5399  0.4563 -0.1546
 5580TIP3    H116746   2.015   5.435   3.451 -1.8357  1.0705 -2.0750
 5580TIP3    H216747   2.101   5.367   3.347 -1.2819  0.1170 -1.0140
 5581TIP3   OH216748   3.479   2.926   4.524 -0.3137  0.3778  0.0205
 5581TIP3    H116749   3.475   2.940   4.429 -1.6857  0.4663  0.0635
 5581TIP3    H216750   3.411   2.984   4.559  1.2164  1.5330  1.2261
 5582TIP3   OH216751   3.267   2.056   2.957 -0.1180 -0.1129  0.2942
 5582TIP3    H116752   3.180   2.022   2.937  0.1118 -0.0637 -0.8467
 5582TIP3    H216753   3.324   2.016   2.892  0.6467  0.2030  0.7524
 5583TIP3   OH216754   1.744   2.711   2.994  0.0506 -0.2852 -0.3825
 5583TIP3    H116755   1.686   2.767   3.045  1.8899  1.2252  0.1636
 5583TIP3    H216756   1.793   2.660   3.059  0.7725 -0.0426 -0.7187
 5584TIP3   OH216757   5.599   1.804   2.468 -0.4708 -0.3604  0.0302
 5584TIP3    H116758   5.644   1.726   2.434  1.9175  0.7250  0.4808
 5584TIP3    H216759   5.613   1.799   2.562 -1.3348  0.0131  0.1782
 5585TIP3   OH216760   3.474   2.999   2.518  0.0890 -0.1378  0.2914
 5585TIP3    H116761   3.419   3.073   2.544  0.7432 -0.3314  2.3257
 5585TIP3    H216762   3.541   2.992   2.586  1.6247 -0.9903 -1.2197
 5586TIP3   OH216763   5.485   4.357   2.294 -0.3841 -0.1633  0.4006
 5586TIP3    H116764   5.429   4.342   2.218  2.4181 -0.6512 -1.7149
 5586TIP3    H216765   5.476   4.277   2.346 -2.3084  0.1660  0.6537
 5587TIP3   OH216766   1.449   4.247   0.898 -0.5916  0.6905  0.0009
 5587TIP3    H116767   1.530   4.208   0.864 -0.6381 -0.0575  0.7198
 5587TIP3    H216768   1.477   4.329   0.938 -0.1460  0.3211  0.4558
 5588TIP3   OH216769   1.984   5.475   4.667 -0.6481 -0.7461 -0.2700
 5588TIP3    H116770   1.904   5.515   4.635  0.0135  0.3129 -0.6509
 5588TIP3    H216771   2.051   5.501   4.604  0.5147  0.6523  1.4508
 5589TIP3   OH216772   4.851   4.582   3.013  0.6186  0.3232 -0.6201
 5589TIP3    H116773   4.937   4.608   2.981  0.9817 -0.1440 -0.0518
 5589TIP3    H216774   4.845   4.488   2.993  0.6234  0.1504  0.1453
 5590TIP3   OH216775   2.341   5.187   4.856  0.0209 -0.2998  0.2926
 5590TIP3    H116776   2.384   5.209   4.774 -0.8458  0.5019  0.0359
 5590TIP3    H216777   2.272   5.125   4.831 -1.5121  1.3966  0.0757
 5591TIP3   OH216778   2.210   1.022   4.144  0.1422  0.1156  0.7915
 5591TIP3    H116779   2.219   0.928   4.135  0.7151  0.1487  1.0021
 5591TIP3    H216780   2.246   1.058   4.063 -0.7560  0.1309  0.3806
 5592TIP3   OH216781   3.502   3.978   4.535  0.5149  0.2786  0.1313
 5592TIP3    H116782   3.433   4.034   4.498  1.2644  1.3987  0.3664
 5592TIP3    H216783   3.578   4.036   4.541  0.9402 -0.3978  1.6634
 5593TIP3   OH216784   5.196   0.312   4.248 -0.5401 -0.0745  0.4690
 5593TIP3    H116785   5.123   0.270   4.203 -2.0579  2.0033  0.8312
 5593TIP3    H216786   5.260   0.329   4.179 -0.3708 -1.8670  0.1382
 5594TIP3   OH216787   1.941   5.878   2.285 -0.3039  0.8141 -0.7800
 5594TIP3    H116788   1.861   5.925   2.261 -1.0093  0.3993  0.6652
 5594TIP3    H216789   1.958   5.904   2.376 -1.3665 -2.5309  0.4885
 5595TIP3   OH216790   2.456   3.270   4.464 -0.8069 -0.3004 -0.5923
 5595TIP3    H116791   2.509   3.349   4.475 -2.9112  1.0551  0.4217
 5595TIP3    H216792   2.434   3.268   4.370  1.1224 -1.0041 -1.0699
 5596TIP3   OH216793   0.884   0.949   5.176  1.1060  0.0217 -0.1721
 5596TIP3    H116794   0.827   0.876   5.152  0.1149  0.2633  1.3176
 5596TIP3    H216795   0.902   0.993   5.093 -1.0777  0.0567 -0.7005
 5597TIP3   OH216796   3.957   2.733   1.288 -0.0984  0.3949 -0.4144
 5597TIP3    H116797   3.944   2.742   1.193 -0.0367 -1.3163 -0.6119
 5597TIP3    H216798   3.872   2.707   1.322  0.4010 -1.2743 -0.3506
 5598TIP3   OH216799   0.273   1.349   4.773 -0.0235 -0.6867  0.1608
 5598TIP3    H116800   0.286   1.306   4.689 -0.7599  1.8258 -1.3347
 5598TIP3    H216801   0.353   1.399   4.788 -0.5227  0.1654  0.0925
 5599TIP3   OH216802   4.788   0.707   0.380 -0.0505  0.1945  0.0955
 5599TIP3    H116803   4.724   0.644   0.413 -0.5030  0.9319  0.6504
 5599TIP3    H216804   4.798   0.685   0.287 -0.4868 -0.4476  0.1956
 5600TIP3   OH216805   2.265   0.661   2.326 -0.3978  0.1889  0.6026
 5600TIP3    H116806   2.259   0.718   2.403 -0.2519 -1.2179  1.6862
 5600TIP3    H216807   2.246   0.719   2.252 -0.4672  1.5917  1.6781
 5601TIP3   OH216808   3.477   1.691   0.343  0.0910 -0.0131 -0.2243
 5601TIP3    H116809   3.477   1.597   0.327 -0.7457  0.1362 -1.1856
 5601TIP3    H216810   3.397   1.708   0.392  0.1278  0.2323 -0.2450
 5602TIP3   OH216811   4.563   2.462   1.924  0.4019  0.1868  0.6069
 5602TIP3    H116812   4.652   2.434   1.904 -0.0046 -2.4517  2.1339
 5602TIP3    H216813   4.556   2.456   2.019 -0.1659  4.5594  1.0728
 5603TIP3   OH216814   2.263   3.874   3.721 -0.3885  0.2146 -0.0626
 5603TIP3    H116815   2.185   3.922   3.692  0.7107  1.7872 -0.5347
 5603TIP3    H216816   2.305   3.847   3.640 -0.3335 -0.4936  0.1927
 5604TIP3   OH216817   0.493   2.667   2.857  0.6390 -0.5270  0.0530
 5604TIP3    H116818   0.470   2.612   2.783  1.2808 -0.1736 -0.4205
 5604TIP3    H216819   0.530   2.746   2.818 -0.0854  0.1735  0.7177
 5605TIP3   OH216820   3.231   4.665   0.157 -0.1692  0.6077 -0.2370
 5605TIP3    H116821   3.245   4.588   0.102 -0.4806  0.9797 -0.8407
 5605TIP3    H216822   3.223   4.738   0.096  0.1631  1.1330  0.3343
 5606TIP3   OH216823   0.731   3.317   0.460  0.5223  0.1799 -0.0148
 5606TIP3    H116824   0.709   3.308   0.367 -0.9176 -0.9097  0.3887
 5606TIP3    H216825   0.820   3.282   0.468  1.2039  1.5707 -1.1842
 5607TIP3   OH216826   1.418   1.850   0.708  0.3895 -0.3751  0.6321
 5607TIP3    H116827   1.447   1.868   0.619 -0.2748 -1.0375  0.2709
 5607TIP3    H216828   1.429   1.756   0.719 -2.1637 -0.7918  0.2486
 5608TIP3   OH216829   2.744   2.374   3.642 -0.0584 -0.2290 -0.5270
 5608TIP3    H116830   2.711   2.457   3.676 -0.8013 -1.9435  3.6299
 5608TIP3    H216831   2.666   2.320   3.629  0.5535 -1.3934  0.4103
 5609TIP3   OH216832   4.620   1.832   1.312  0.2525  0.0287  0.4693
 5609TIP3    H116833   4.715   1.837   1.312  0.2029  1.4703  0.5377
 5609TIP3    H216834   4.591   1.924   1.304 -1.1228 -0.5022 -1.9162
 5610TIP3   OH216835   2.822   2.150   2.088 -0.5719 -0.3327 -0.7127
 5610TIP3    H116836   2.735   2.170   2.123 -0.4071 -0.5988 -0.1355
 5610TIP3    H216837   2.825   2.055   2.083  0.6508 -0.5373  1.9092
 5611TIP3   OH216838   1.086   1.489   1.724  0.0386  0.2057  0.0303
 5611TIP3    H116839   1.083   1.420   1.658 -1.5703 -1.1842  1.4601
 5611TIP3    H216840   1.173   1.482   1.763  1.4982  1.8480 -2.6274
 5612TIP3   OH216841   0.129   5.344   2.971  0.0640 -0.9373 -0.1397
 5612TIP3    H116842   0.039   5.368   2.993  0.3877  1.0702 -0.7638
 5612TIP3    H216843   0.149   5.271   3.029 -1.8192 -1.1600  0.3060
 5613TIP3   OH216844   5.436   1.427   0.965  0.1722  0.2200  0.1983
 5613TIP3    H116845   5.499   1.443   1.036  1.2234 -0.0868 -0.6517
 5613TIP3    H216846   5.395   1.344   0.988 -0.9039  1.0342  1.4312
 5614TIP3   OH216847   4.171   1.683   4.300  0.2818  0.1255 -0.1510
 5614TIP3    H116848   4.173   1.590   4.278 -0.1900  0.2663 -0.7941
 5614TIP3    H216849   4.184   1.684   4.395 -1.8089 -0.7358  0.1981
 5615TIP3   OH216850   0.335   3.722   0.407 -0.2548  0.0610 -0.3565
 5615TIP3    H116851   0.392   3.798   0.418  0.8064 -0.8017  0.3534
 5615TIP3    H216852   0.277   3.745   0.335  1.8109  0.4897 -1.9611
 5616TIP3   OH216853   3.915   4.610   4.384 -0.5156 -0.3009  0.1440
 5616TIP3    H116854   3.905   4.551   4.459 -0.5669 -0.9902 -0.4050
 5616TIP3    H216855   4.000   4.586   4.346 -0.0511  0.6760  0.5151
 5617TIP3   OH216856   5.994   2.668   1.066  0.0561 -0.1725 -0.6775
 5617TIP3    H116857   5.978   2.587   1.114  1.6597 -0.1984 -0.1381
 5617TIP3    H216858   6.063   2.712   1.115 -0.6654  1.4582 -1.0572
 5618TIP3   OH216859   6.025   3.735   0.078 -0.8458 -0.1260 -0.3215
 5618TIP3    H116860   5.982   3.808   0.032 -0.6710  1.1019  1.3703
 5618TIP3    H216861   5.966   3.661   0.065 -0.6463  0.0374 -2.7646
 5619TIP3   OH216862   0.242   3.487   1.380  0.4531 -0.1043 -0.1906
 5619TIP3    H116863   0.317   3.446   1.337  0.2922 -1.3764  0.6916
 5619TIP3    H216864   0.278   3.566   1.420  1.0263  0.0121 -0.9009
 5620TIP3   OH216865   4.634   3.441   4.426  0.5062  0.1411 -0.4037
 5620TIP3    H116866   4.658   3.351   4.405 -1.4611 -1.3159  2.7943
 5620TIP3    H216867   4.557   3.459   4.373  0.4951 -0.3102 -0.5453
 5621TIP3   OH216868   2.799   0.155   0.481 -0.8828  0.1685 -0.1736
 5621TIP3    H116869   2.737   0.214   0.525 -1.3280 -0.9873  0.8144
 5621TIP3    H216870   2.745   0.101   0.424 -0.4610  0.7544 -1.1579
 5622TIP3   OH216871   2.933   5.921   4.675 -0.0393 -0.2708  0.0983
 5622TIP3    H116872   2.924   5.952   4.765  0.4048 -1.8794  0.7207
 5622TIP3    H216873   3.019   5.953   4.647  0.4535 -0.9774  0.7606
 5623TIP3   OH216874   4.617   5.201   2.701  0.9094  0.2718 -0.4653
 5623TIP3    H116875   4.709   5.225   2.699  1.0297 -0.2212 -1.2249
 5623TIP3    H216876   4.605   5.156   2.785  1.0275  1.5577  0.2684
 5624TIP3   OH216877   1.414   2.304   1.562  0.3887 -0.6953 -0.0967
 5624TIP3    H116878   1.378   2.369   1.622  1.4691 -0.2300  0.0612
 5624TIP3    H216879   1.341   2.244   1.545 -0.5445  0.4001 -0.0471
 5625TIP3   OH216880   2.627   0.110   4.451 -0.3296 -0.0474 -0.7683
 5625TIP3    H116881   2.598   0.197   4.423 -1.2240 -0.4906 -1.2835
 5625TIP3    H216882   2.677   0.076   4.377 -0.3147 -0.1301 -0.7205
 5626TIP3   OH216883   2.560   1.921   0.161  0.2476 -0.3353 -0.1883
 5626TIP3    H116884   2.643   1.944   0.120 -0.1661  0.2282 -0.7528
 5626TIP3    H216885   2.552   1.826   0.149  1.2055 -0.5269  0.6572
 5627TIP3   OH216886   6.279   1.321   0.042 -0.2445 -0.3330 -0.4508
 5627TIP3    H116887   6.259   1.289   0.131 -0.9089  0.0834 -0.4433
 5627TIP3    H216888   6.305   1.243  -0.006 -1.3566 -0.8239 -0.2924
 5628TIP3   OH216889   3.872   5.050   2.518  0.2712  0.4892 -0.1364
 5628TIP3    H116890   3.967   5.063   2.512  0.4830  0.0631  1.5700
 5628TIP3    H216891   3.839   5.135   2.549  0.3711  0.0791  1.1613
 5629TIP3   OH216892   4.023   4.002   1.991 -0.0057  0.1847  0.5020
 5629TIP3    H116893   4.055   3.911   1.988  0.8967  0.5047 -0.0372
 5629TIP3    H216894   3.966   4.010   1.915 -0.6952 -0.1437  0.9793
 5630TIP3   OH216895   4.425   1.130   1.484 -0.0554  0.2288 -0.2637
 5630TIP3    H116896   4.428   1.222   1.459 -0.0118  0.1798 -0.4426
 5630TIP3    H216897   4.459   1.128   1.574  1.0155  0.2532 -0.6448
 5631TIP3   OH216898   3.546   5.675   4.904 -0.1389 -0.1739 -0.0155
 5631TIP3    H116899   3.573   5.766   4.891  2.4566 -0.9898 -0.9327
 5631TIP3    H216900   3.606   5.641   4.970 -0.7745 -1.3432 -0.0174
 5632TIP3   OH216901   6.094   1.616   2.123  0.2318 -0.1249 -0.3731
 5632TIP3    H116902   6.095   1.711   2.117 -0.8976 -0.0751  0.0018
 5632TIP3    H216903   6.184   1.592   2.147  0.3935  0.8734  0.0408
 5633TIP3   OH216904   3.742   1.076   1.930  0.4313  0.1768  0.5336
 5633TIP3    H116905   3.830   1.062   1.894  0.3778  0.5554  0.2558
 5633TIP3    H216906   3.701   0.989   1.927  0.4021  0.2110 -0.3861
 5634TIP3   OH216907   2.502   5.265   0.397 -0.0050 -0.0183 -0.3626
 5634TIP3    H116908   2.509   5.191   0.457 -1.2641 -0.1583 -0.3606
 5634TIP3    H216909   2.593   5.290   0.379  0.4074 -0.1763  1.3374
 5635TIP3   OH216910   3.605   0.231   3.307  0.3957 -0.7209 -0.2261
 5635TIP3    H116911   3.515   0.258   3.328  0.2622 -0.2635 -1.3255
 5635TIP3    H216912   3.595   0.145   3.267  0.5953 -1.3336  1.0109
 5636TIP3   OH216913   4.166   3.066   4.898  0.0135  0.1364  0.5998
 5636TIP3    H116914   4.189   3.157   4.880  0.5700  0.1475  1.3158
 5636TIP3    H216915   4.180   3.055   4.992 -2.3882 -0.0269  1.0073
 5637TIP3   OH216916   3.345   0.021   4.882  0.1578  0.2496  0.6763
 5637TIP3    H116917   3.265   0.005   4.831 -0.1627  0.9456  0.9471
 5637TIP3    H216918   3.313   0.058   4.965  0.8217  1.7589  0.2862
 5638TIP3   OH216919   1.210   4.689   3.675  0.1254 -0.0124 -0.1871
 5638TIP3    H116920   1.199   4.716   3.766  0.5303  0.5296 -0.2915
 5638TIP3    H216921   1.147   4.619   3.662  0.3958 -0.4142  0.6498
 5639TIP3   OH216922   3.193   4.507   3.265 -0.1807 -0.1123 -0.3334
 5639TIP3    H116923   3.236   4.557   3.335  0.3918 -1.3967  0.2650
 5639TIP3    H216924   3.146   4.438   3.311 -2.0557  0.6368 -1.0564
 5640TIP3   OH216925   3.774   1.623   2.427 -0.1354 -0.4966  0.2849
 5640TIP3    H116926   3.822   1.616   2.344  1.5664 -0.7937  1.2398
 5640TIP3    H216927   3.835   1.587   2.492 -0.7887  1.1727  1.8835
 5641TIP3   OH216928   6.043   1.518   2.435 -0.0431 -0.2396 -0.0579
 5641TIP3    H116929   5.977   1.464   2.391 -1.5567  0.3862  1.3660
 5641TIP3    H216930   6.011   1.608   2.426  0.0090 -0.0207  1.5971
 5642TIP3   OH216931   4.677   1.445   2.159 -0.3874 -0.1975  0.3307
 5642TIP3    H116932   4.720   1.444   2.245  0.1148  2.0159  0.1578
 5642TIP3    H216933   4.719   1.516   2.112 -0.6368 -1.3820 -1.8099
 5643TIP3   OH216934   5.688   3.267   2.416  0.2380 -0.3630 -0.1503
 5643TIP3    H116935   5.618   3.270   2.351  0.6844 -1.1857 -0.6980
 5643TIP3    H216936   5.767   3.246   2.364  0.9168  0.6935  0.4233
 5644TIP3   OH216937   4.397   0.144   2.827  0.1335  0.0174  0.3589
 5644TIP3    H116938   4.402   0.170   2.735  1.3356  0.2664  0.4813
 5644TIP3    H216939   4.315   0.182   2.858 -0.2053  0.0727 -0.5586
 5645TIP3   OH216940   4.095   2.994   2.372 -0.1837 -0.4000 -0.1494
 5645TIP3    H116941   4.077   3.038   2.455 -0.7737 -0.3820 -0.2837
 5645TIP3    H216942   4.137   3.061   2.318 -2.2633  0.4290 -0.8185
 5646TIP3   OH216943   5.365   2.908   4.248 -0.9664  0.7175  0.1687
 5646TIP3    H116944   5.402   2.930   4.162  2.9043  0.0567  1.4738
 5646TIP3    H216945   5.394   2.979   4.305  0.6540 -1.1396  1.8026
 5647TIP3   OH216946   5.774   5.717   1.210 -0.6807  0.0979 -0.3915
 5647TIP3    H116947   5.713   5.787   1.234 -1.2323 -0.9961  1.5638
 5647TIP3    H216948   5.806   5.742   1.123 -2.1661  1.8762 -0.4789
 5648TIP3   OH216949   3.534   1.610   4.760  0.7177 -0.1956 -0.4320
 5648TIP3    H116950   3.480   1.673   4.808  1.6348  0.2746  0.0148
 5648TIP3    H216951   3.588   1.664   4.702 -0.1218 -0.7370 -1.7428
 5649TIP3   OH216952   3.615   4.863   2.331 -0.0026  0.5796 -0.2118
 5649TIP3    H116953   3.574   4.853   2.245  0.5418  1.1626 -0.5467
 5649TIP3    H216954   3.544   4.847   2.394 -0.4197  0.2142 -0.7655
 5650TIP3   OH216955   0.626   2.884   2.768 -0.2895  0.3576  0.8235
 5650TIP3    H116956   0.713   2.918   2.786  0.8202 -2.2787  0.9722
 5650TIP3    H216957   0.596   2.934   2.692  1.5870  0.9670  0.4155
 5651TIP3   OH216958   1.365   5.798   4.935  0.2049 -0.3778 -0.3816
 5651TIP3    H116959   1.321   5.876   4.900 -1.1298 -0.3829  1.1995
 5651TIP3    H216960   1.414   5.830   5.010  0.0811 -0.9735 -0.0423
 5652TIP3   OH216961   1.239   4.329   3.073 -0.5660  0.3451  0.2560
 5652TIP3    H116962   1.216   4.322   2.980 -0.1446 -0.0277  0.1801
 5652TIP3    H216963   1.240   4.423   3.090  1.4485  0.5256 -0.6459
 5653TIP3   OH216964   5.639   1.030   3.756 -0.8728 -0.3576  0.9503
 5653TIP3    H116965   5.576   1.102   3.751 -0.5298 -0.1332 -1.8636
 5653TIP3    H216966   5.722   1.070   3.731 -0.6342 -1.6351 -0.4739
 5654TIP3   OH216967   2.727   2.570   4.095 -0.6896  0.0879 -0.0449
 5654TIP3    H116968   2.712   2.493   4.149 -0.2923  0.0137 -0.0398
 5654TIP3    H216969   2.651   2.574   4.037 -0.6057 -0.4288 -0.1927
 5655TIP3   OH216970   6.153   1.893   0.470  0.3796 -0.1366 -0.2390
 5655TIP3    H116971   6.177   1.986   0.469 -2.2213  0.6052 -0.9572
 5655TIP3    H216972   6.131   1.875   0.561  1.6718 -0.3073  0.0588
 5656TIP3   OH216973   5.281   2.196   1.134 -0.3925 -0.1547  0.4195
 5656TIP3    H116974   5.335   2.121   1.160 -1.0847 -0.0742  2.2365
 5656TIP3    H216975   5.341   2.253   1.085  1.0468 -0.3592  1.8460
 5657TIP3   OH216976   1.168   1.582   3.893 -0.1458 -0.4083  0.2052
 5657TIP3    H116977   1.133   1.670   3.907 -0.0163 -0.2591 -0.4092
 5657TIP3    H216978   1.150   1.536   3.976 -1.7436 -0.3337 -0.0641
 5658TIP3   OH216979   2.480   1.297   4.812 -0.2945  0.2704 -0.5110
 5658TIP3    H116980   2.449   1.387   4.801 -0.6411  0.0260 -1.6206
 5658TIP3    H216981   2.527   1.277   4.731 -1.9653 -1.2328 -1.1726
 5659TIP3   OH216982   1.648   4.117   4.558 -0.1489 -0.5582 -0.3662
 5659TIP3    H116983   1.663   4.177   4.631 -1.5644 -0.9705  0.2924
 5659TIP3    H216984   1.619   4.173   4.486  0.8215 -0.2051 -0.5023
 5660TIP3   OH216985   5.129   3.612   4.510 -0.3293 -0.2653 -0.1064
 5660TIP3    H116986   5.096   3.670   4.578 -0.5517  0.1752 -0.5830
 5660TIP3    H216987   5.210   3.654   4.479 -1.2238  0.5625 -1.4324
 5661TIP3   OH216988   2.299   5.930   3.531  0.1670 -0.5056 -0.3434
 5661TIP3    H116989   2.280   5.921   3.625  0.9641  0.6758 -0.0386
 5661TIP3    H216990   2.375   5.989   3.528  2.4786 -3.3157 -1.5684
 5662TIP3   OH216991   5.111   0.776   1.043 -0.0409 -0.6868 -0.1790
 5662TIP3    H116992   5.077   0.734   1.123 -0.7485 -0.2422 -0.2352
 5662TIP3    H216993   5.045   0.757   0.976 -0.4623  0.6237 -0.1717
 5663TIP3   OH216994   3.021   0.506   0.593 -0.7613  0.2524 -0.0989
 5663TIP3    H116995   3.031   0.417   0.561 -1.5911  0.4523 -0.9610
 5663TIP3    H216996   3.108   0.545   0.586 -0.0058 -0.9610  1.8348
 5664TIP3   OH216997   2.185   1.160   3.845 -0.1917  0.1313  0.0044
 5664TIP3    H116998   2.243   1.189   3.775 -0.9132  0.3560 -0.5203
 5664TIP3    H216999   2.215   1.072   3.867  0.1323  0.1143 -0.4926
 5665TIP3   OH217000   2.941   4.661   2.656 -0.3529 -0.7139 -0.0606
 5665TIP3    H117001   3.006   4.596   2.684  0.5736  0.2102  0.0308
 5665TIP3    H217002   2.862   4.640   2.705 -0.3106 -2.2300 -0.6113
 5666TIP3   OH217003   3.995   1.739   0.390 -0.5609  0.4211  0.0216
 5666TIP3    H117004   4.031   1.691   0.316 -0.3811 -0.0306  0.3959
 5666TIP3    H217005   4.052   1.815   0.400  0.2453 -0.2349  0.5481
 5667TIP3   OH217006   3.939   3.063   4.520  1.1337 -0.3886  0.3445
 5667TIP3    H117007   3.952   3.080   4.614  0.3457 -0.5447  0.4962
 5667TIP3    H217008   3.861   3.115   4.498  3.1118  2.1966 -0.9918
 5668TIP3   OH217009   3.286   3.730   5.160 -0.5751  0.0482  0.3060
 5668TIP3    H117010   3.194   3.750   5.144 -0.2602  1.5590  0.2632
 5668TIP3    H217011   3.309   3.784   5.235  0.2817 -0.3330  0.3250
 5669TIP3   OH217012   5.532   3.384   3.534  0.0671  0.1391 -0.2581
 5669TIP3    H117013   5.568   3.295   3.538 -0.1218  0.0976  0.8801
 5669TIP3    H217014   5.520   3.401   3.441  4.8484  0.8936 -0.9998
 5670TIP3   OH217015   1.901   3.389   4.314 -0.2966 -0.2106  0.3583
 5670TIP3    H117016   1.962   3.347   4.253 -0.3731 -0.0369  0.1626
 5670TIP3    H217017   1.863   3.461   4.264 -0.7230 -0.3679  0.4528
 5671TIP3   OH217018   6.105   4.059   0.149 -0.1014  0.0261 -0.1843
 5671TIP3    H117019   6.098   4.022   0.060 -0.8932 -1.5476  0.4858
 5671TIP3    H217020   6.172   4.005   0.191  0.1500  0.6629  0.2310
 5672TIP3   OH217021   1.606   1.038   2.396  0.4241  0.0070 -0.1269
 5672TIP3    H117022   1.578   0.950   2.371 -0.4877  0.6922 -1.6486
 5672TIP3    H217023   1.702   1.031   2.402  0.3067 -1.2711  0.6369
 5673TIP3   OH217024   4.207   4.494   1.012  0.4662  0.1582 -0.1464
 5673TIP3    H117025   4.197   4.541   0.928 -3.3156 -0.5280 -0.2312
 5673TIP3    H217026   4.190   4.561   1.078 -4.2365 -0.6002 -0.2569
 5674TIP3   OH217027   5.102   2.137   1.757 -0.6943  0.0738  0.0283
 5674TIP3    H117028   5.081   2.229   1.745  0.0730  0.1046 -1.2045
 5674TIP3    H217029   5.194   2.136   1.784 -0.6134 -0.3375 -0.2483
 5675TIP3   OH217030   2.316   1.409   0.652 -0.1854  0.4636 -0.2880
 5675TIP3    H117031   2.410   1.423   0.639 -0.4618  3.0063 -0.0181
 5675TIP3    H217032   2.306   1.314   0.656  2.7365  0.1230  2.1747
 5676TIP3   OH217033   2.929   2.345   2.632 -0.1970 -0.0774 -0.2849
 5676TIP3    H117034   3.024   2.344   2.619 -0.0753  0.8594  0.4911
 5676TIP3    H217035   2.917   2.369   2.724 -1.2148  1.0299 -0.6921
 5677TIP3   OH217036   3.932   1.771   1.477  0.1087  0.3264  0.3086
 5677TIP3    H117037   3.933   1.714   1.399  0.1380 -1.3102  1.4512
 5677TIP3    H217038   3.840   1.795   1.487 -0.0016 -0.0098  0.1349
 5678TIP3   OH217039   5.476   2.273   3.733 -0.0085 -0.1490 -0.0693
 5678TIP3    H117040   5.454   2.335   3.664  0.5545 -0.6395 -0.7108
 5678TIP3    H217041   5.544   2.218   3.694 -1.3855 -2.0046 -0.0200
 5679TIP3   OH217042   1.913   0.861   2.259 -0.4202 -0.3812  0.1663
 5679TIP3    H117043   1.884   0.877   2.348 -0.0467 -0.1151  0.2408
 5679TIP3    H217044   1.901   0.945   2.214  0.3860 -0.2230  0.2410
 5680TIP3   OH217045   5.113   2.927  -0.022 -0.2084  0.4134  0.6587
 5680TIP3    H117046   5.082   2.971   0.057  2.3874  0.7448  1.6090
 5680TIP3    H217047   5.130   2.837   0.006 -3.4125 -0.7735 -0.7305
 5681TIP3   OH217048   2.063   4.698   2.960 -0.0700  0.6115 -0.5792
 5681TIP3    H117049   2.093   4.612   2.929 -0.2262  0.0036  0.9091
 5681TIP3    H217050   1.979   4.711   2.915 -0.1957 -0.1532 -0.5835
 5682TIP3   OH217051   3.372   3.628   3.600  0.5105 -0.2293  0.3234
 5682TIP3    H117052   3.435   3.557   3.610 -0.4832 -1.4089 -1.2245
 5682TIP3    H217053   3.396   3.671   3.519 -0.5221 -0.5632 -0.1791
 5683TIP3   OH217054   4.504   2.102   0.712 -0.2314 -0.7648  0.1494
 5683TIP3    H117055   4.594   2.069   0.713 -0.5049 -1.5341  0.1290
 5683TIP3    H217056   4.480   2.106   0.805  0.0282  0.0351  0.1891
 5684TIP3   OH217057   2.400   5.643   2.280  0.7075 -0.3909 -0.4793
 5684TIP3    H117058   2.316   5.646   2.325  2.0499 -0.2466  2.2261
 5684TIP3    H217059   2.404   5.555   2.243 -0.7917 -0.2397 -1.0797
 5685TIP3   OH217060   1.364   0.038   0.689  0.0173 -0.3975  0.3147
 5685TIP3    H117061   1.342  -0.053   0.668  0.4466 -0.6184  0.8046
 5685TIP3    H217062   1.281   0.085   0.682 -0.1314 -0.7455 -0.3623
 5686TIP3   OH217063   1.234   0.889   2.296  0.1084  0.5286  0.1573
 5686TIP3    H117064   1.172   0.859   2.363  0.2085 -1.4092 -0.5458
 5686TIP3    H217065   1.193   0.967   2.259 -2.1427 -0.8567 -0.4994
 5687TIP3   OH217066   0.422   4.537   3.521 -0.0147  0.2013 -0.0871
 5687TIP3    H117067   0.380   4.466   3.569 -0.0845 -0.0039 -0.4497
 5687TIP3    H217068   0.349   4.588   3.484  0.0456 -0.0677 -0.5907
 5688TIP3   OH217069   5.082   1.455   3.028  0.4827  0.0650 -0.3856
 5688TIP3    H117070   5.121   1.398   3.094  0.2749  0.2640 -0.0884
 5688TIP3    H217071   5.131   1.537   3.034  1.9088 -0.6076 -1.9584
 5689TIP3   OH217072   2.737   4.505   5.087 -0.3251  0.4487  0.1768
 5689TIP3    H117073   2.677   4.566   5.044 -2.1927 -0.8970  0.7676
 5689TIP3    H217074   2.777   4.555   5.158 -1.8456  0.9922  0.6734
 5690TIP3   OH217075   0.597   4.229   0.628  0.2532 -0.1393  0.1672
 5690TIP3    H117076   0.661   4.237   0.557  0.6150 -0.5316  0.4472
 5690TIP3    H217077   0.561   4.141   0.619  0.5376 -0.3131  0.6650
 5691TIP3   OH217078   4.713   1.501   4.185 -0.2396 -0.3796 -0.1387
 5691TIP3    H117079   4.666   1.553   4.119 -0.2922  1.6604  1.3977
 5691TIP3    H217080   4.792   1.552   4.203  0.7336 -1.8881  0.0187
 5692TIP3   OH217081   5.548   4.956   1.147  0.4297  0.3448  0.3017
 5692TIP3    H117082   5.565   4.869   1.183  0.2837  0.8987  1.7730
 5692TIP3    H217083   5.628   4.979   1.099  0.6111 -0.4313  0.2265
 5693TIP3   OH217084   0.362   5.833   2.092 -0.4477 -0.1338 -0.3581
 5693TIP3    H117085   0.314   5.794   2.166 -0.0958 -0.7009 -0.4180
 5693TIP3    H217086   0.339   5.925   2.095 -0.1235 -0.0667  0.7174
 5694TIP3   OH217087   1.999   2.502   1.095  0.6252  0.0618 -0.2223
 5694TIP3    H117088   1.998   2.591   1.060 -2.5199 -0.5642 -2.1111
 5694TIP3    H217089   1.922   2.498   1.152  2.3179 -0.7128  2.1636
 5695TIP3   OH217090   4.942   4.861   0.781  0.7147  0.0550 -0.5424
 5695TIP3    H117091   4.964   4.770   0.761  0.3050 -1.0081  3.1534
 5695TIP3    H217092   5.026   4.907   0.781  1.2957 -0.9734  0.3246
 5696TIP3   OH217093   6.285   4.052   1.237  0.3962  0.4566 -0.0887
 5696TIP3    H117094   6.268   4.144   1.218 -0.1635 -0.1731 -3.1794
 5696TIP3    H217095   6.380   4.046   1.249  0.6869  1.1673 -1.8424
 5697TIP3   OH217096   2.820   0.061   2.558  0.3469  0.0002  0.0887
 5697TIP3    H117097   2.832   0.060   2.652 -1.8149  1.9144  0.4754
 5697TIP3    H217098   2.801  -0.030   2.534  1.8915 -0.6792  1.2826
 5698TIP3   OH217099   4.437   0.829   4.234 -0.3131 -0.2623  0.4923
 5698TIP3    H117100   4.438   0.918   4.270  1.3650  0.8622 -2.0558
 5698TIP3    H217101   4.356   0.825   4.183 -0.3635 -0.1922  0.5656
 5699TIP3   OH217102   4.183   1.436   1.508 -0.1532  0.0513 -0.2603
 5699TIP3    H117103   4.222   1.495   1.572 -0.3757  1.3080 -1.2498
 5699TIP3    H217104   4.251   1.426   1.440  0.1613 -1.4249  0.2183
 5700TIP3   OH217105   1.722   3.147   4.859 -0.8689  0.5637  0.8181
 5700TIP3    H117106   1.647   3.201   4.835 -0.0385  1.0086 -0.8847
 5700TIP3    H217107   1.782   3.207   4.902 -0.1567  0.9310 -0.6391
 5701TIP3   OH217108   6.121   0.314   3.230 -0.1242 -1.0506  0.3956
 5701TIP3    H117109   6.032   0.331   3.263 -0.6049 -0.3314 -1.1397
 5701TIP3    H217110   6.125   0.219   3.218 -0.5272 -1.1337  0.8843
 5702TIP3   OH217111   1.664   1.907   4.254  0.6818 -0.2215  0.0458
 5702TIP3    H117112   1.647   1.968   4.183 -1.1220 -1.4317 -0.6428
 5702TIP3    H217113   1.594   1.922   4.317  0.6445 -1.0403  0.2184
 5703TIP3   OH217114   2.669   2.318   4.217 -0.4845  0.5680 -0.6637
 5703TIP3    H117115   2.606   2.307   4.145  0.5562  0.4393 -1.5711
 5703TIP3    H217116   2.661   2.237   4.268 -0.9913  0.5214 -0.8041
 5704TIP3   OH217117   1.442   0.838   3.456  0.5335  0.4200 -0.6272
 5704TIP3    H117118   1.425   0.805   3.368  1.4653  0.3571 -0.7881
 5704TIP3    H217119   1.369   0.898   3.473  0.8489  1.1629 -1.8149
 5705TIP3   OH217120   0.122   5.758   0.401 -0.1281  0.0364 -0.1897
 5705TIP3    H117121   0.153   5.713   0.322  1.1283 -1.1972  0.9539
 5705TIP3    H217122   0.176   5.722   0.472 -2.3487 -0.1615  1.4985
 5706TIP3   OH217123   3.600   4.768   1.829 -0.2431 -0.6995 -0.2692
 5706TIP3    H117124   3.692   4.772   1.805  0.4882 -1.1689  2.1545
 5706TIP3    H217125   3.555   4.821   1.763  1.7746 -0.2241 -1.3320
 5707TIP3   OH217126   3.787   5.433   1.490  0.2026 -0.0277 -0.0544
 5707TIP3    H117127   3.701   5.464   1.462 -1.4381 -3.1470  0.9799
 5707TIP3    H217128   3.790   5.453   1.583  0.7918  0.4020 -0.1605
 5708TIP3   OH217129   1.314   4.129   2.752  0.0107  0.4281  0.0873
 5708TIP3    H117130   1.260   4.133   2.673 -0.8674 -0.7370  0.6126
 5708TIP3    H217131   1.326   4.220   2.777 -1.4771  0.7194 -0.1948
 5709TIP3   OH217132   5.176   2.186   4.675 -0.3600 -0.0392  0.1315
 5709TIP3    H117133   5.105   2.124   4.661  1.2711 -2.1451  0.6110
 5709TIP3    H217134   5.233   2.143   4.739  2.3233  0.6331 -1.6273
 5710TIP3   OH217135   4.399   4.184   3.642 -0.2687 -0.6138  0.5509
 5710TIP3    H117136   4.421   4.092   3.626 -2.0869 -1.0501  0.3482
 5710TIP3    H217137   4.400   4.224   3.556 -3.6525 -1.4818 -0.0350
 5711TIP3   OH217138   1.386   1.623   4.747  0.2268  0.2865 -0.2882
 5711TIP3    H117139   1.353   1.537   4.772 -0.4591  0.6967  0.2371
 5711TIP3    H217140   1.309   1.671   4.717  0.4984  0.9424  0.0465
 5712TIP3   OH217141   5.957   1.019   0.783 -0.0091  0.1167 -0.2990
 5712TIP3    H117142   6.045   0.996   0.814 -0.0909  2.1084  1.6595
 5712TIP3    H217143   5.973   1.074   0.706  0.3470 -1.4299 -1.3658
 5713TIP3   OH217144   4.971   1.915   2.579 -0.3019 -0.3324  0.0944
 5713TIP3    H117145   5.022   1.892   2.502  0.2071  0.1019  0.2992
 5713TIP3    H217146   5.020   1.877   2.652  0.2920  0.9681  0.3935
 5714TIP3   OH217147   3.631   1.199   3.652  0.5055 -0.1668 -0.2232
 5714TIP3    H117148   3.643   1.150   3.733 -1.4485 -0.1266  0.1440
 5714TIP3    H217149   3.719   1.220   3.623  1.2781 -1.1370  1.3030
 5715TIP3   OH217150   3.806   1.785   5.014  0.4591 -0.1428 -0.1137
 5715TIP3    H117151   3.828   1.870   5.053  1.9171 -0.4673 -0.1606
 5715TIP3    H217152   3.733   1.753   5.066  1.7868 -0.1720  1.8491
 5716TIP3   OH217153   5.451   5.229   3.004  0.1312 -0.6397  0.2996
 5716TIP3    H117154   5.424   5.309   3.049  0.1725 -1.1208  1.1986
 5716TIP3    H217155   5.504   5.182   3.068 -2.4686 -2.8746  0.9790
 5717TIP3   OH217156   2.504   4.347   5.061 -0.2854 -0.0227  0.5224
 5717TIP3    H117157   2.452   4.377   5.136  0.2961 -0.3511  1.0698
 5717TIP3    H217158   2.593   4.376   5.081  0.1849 -1.5352  0.7625
 5718TIP3   OH217159   3.235   2.559   2.010 -0.3160 -0.1362 -0.0954
 5718TIP3    H117160   3.265   2.471   1.984 -0.6062 -0.1464 -0.4016
 5718TIP3    H217161   3.314   2.602   2.044  0.3461  0.2401 -1.9694
 5719TIP3   OH217162   0.926   5.527   2.104  0.1691 -0.2022 -0.3452
 5719TIP3    H117163   0.865   5.493   2.038 -0.2172  1.9093 -1.1406
 5719TIP3    H217164   0.884   5.606   2.137  1.9841  0.7318 -0.1470
 5720TIP3   OH217165   0.482   3.914   2.105  1.0690 -0.3008 -0.4956
 5720TIP3    H117166   0.474   4.005   2.134 -2.2475 -0.6162 -0.0559
 5720TIP3    H217167   0.525   3.870   2.178  0.9943  0.5770  0.1026
 5721TIP3   OH217168   0.922   1.029   4.599  0.0400 -0.6260 -0.1009
 5721TIP3    H117169   0.829   1.055   4.605 -0.5512 -2.5360 -0.4285
 5721TIP3    H217170   0.925   0.969   4.524  1.5481 -0.6630 -0.0373
 5722TIP3   OH217171   4.863   0.798   2.575  0.3610 -0.3828 -0.1425
 5722TIP3    H117172   4.939   0.777   2.628  0.6435  1.3421  0.1897
 5722TIP3    H217173   4.898   0.846   2.500 -0.3187 -0.3222 -0.4374
 5723TIP3   OH217174   4.770   5.498   4.880  0.1758  0.9389  0.0374
 5723TIP3    H117175   4.805   5.487   4.792 -1.2646  1.2661 -0.6099
 5723TIP3    H217176   4.677   5.475   4.871  0.0432  0.8438  1.5061
 5724TIP3   OH217177   3.471   2.674   2.089 -0.3398 -0.9571 -0.3686
 5724TIP3    H117178   3.539   2.736   2.062 -1.4521 -0.0801 -1.2822
 5724TIP3    H217179   3.518   2.606   2.138  0.9258  0.6098  0.6964
 5725TIP3   OH217180   0.140   5.640   0.145  0.5896  0.4199  0.0635
 5725TIP3    H117181   0.177   5.553   0.158  1.1021  0.9945  3.0082
 5725TIP3    H217182   0.203   5.685   0.089  2.5632  0.2348  2.0422
 5726TIP3   OH217183   3.988   0.442   0.033  0.4218  0.0526  0.0945
 5726TIP3    H117184   4.072   0.454  -0.012  1.2108 -1.3062  1.1243
 5726TIP3    H217185   3.991   0.503   0.106 -0.2155  1.1845 -0.8038
 5727TIP3   OH217186   2.549   2.805   0.452 -0.0316  0.6064  0.3987
 5727TIP3    H117187   2.551   2.876   0.388 -1.2212  0.7462  0.4874
 5727TIP3    H217188   2.496   2.737   0.411  0.2898  0.1567  0.7106
 5728TIP3   OH217189   5.606   2.641   0.777 -0.0562 -0.1062 -0.4984
 5728TIP3    H117190   5.580   2.605   0.862 -0.2936 -4.5561 -2.1601
 5728TIP3    H217191   5.691   2.601   0.759  0.3823  1.3999 -2.0614
 5729TIP3   OH217192   2.586   4.127   2.142  0.4725  0.3198 -0.2204
 5729TIP3    H117193   2.543   4.056   2.095  0.4715  0.6230 -0.6800
 5729TIP3    H217194   2.582   4.100   2.234  0.6646 -0.3737 -0.4084
 5730TIP3   OH217195   3.180   4.505   2.729  0.4599 -0.5094  0.5942
 5730TIP3    H117196   3.159   4.507   2.822 -0.1164 -2.6623  0.5742
 5730TIP3    H217197   3.254   4.445   2.723  0.6285 -0.2248 -0.3173
 5731TIP3   OH217198   4.775   5.057   1.648  0.5478  0.2742  0.0574
 5731TIP3    H117199   4.870   5.074   1.650  0.8833 -1.5332  1.0922
 5731TIP3    H217200   4.739   5.118   1.713  1.1297  0.3381  0.3285
 5732TIP3   OH217201   3.833   2.649   3.219 -0.2012  0.0118 -0.0967
 5732TIP3    H117202   3.880   2.691   3.147  0.0053  0.3844  0.2495
 5732TIP3    H217203   3.766   2.712   3.244 -0.4910 -0.2589 -0.1831
 5733TIP3   OH217204   1.163   5.664   1.932 -0.3937  0.5359 -0.0124
 5733TIP3    H117205   1.118   5.663   1.848 -1.5017  1.4825  0.5523
 5733TIP3    H217206   1.241   5.718   1.917 -0.6293  0.7706 -0.3930
 5734TIP3   OH217207   4.916   3.101   4.608 -0.3960  0.2853 -0.0258
 5734TIP3    H117208   4.877   3.131   4.690  0.0496 -1.0017  0.6811
 5734TIP3    H217209   4.942   3.182   4.563 -2.0350  1.0758  0.3761
 5735TIP3   OH217210   1.226   1.027   1.457 -0.7121  0.4712 -0.6196
 5735TIP3    H117211   1.166   1.013   1.530 -0.8552 -1.1395 -1.0123
 5735TIP3    H217212   1.172   1.064   1.388 -0.7658  1.1354 -0.2313
 5736TIP3   OH217213   0.214   5.068   4.419  0.0309 -0.2979  0.4038
 5736TIP3    H117214   0.273   4.997   4.440 -1.5476 -1.6468  0.4928
 5736TIP3    H217215   0.186   5.102   4.504 -0.4319 -0.6400  0.3929
 5737TIP3   OH217216   1.903   3.242   5.046 -0.0531 -0.2126 -0.0481
 5737TIP3    H117217   1.950   3.255   5.128  1.3627  0.6509 -0.9694
 5737TIP3    H217218   1.967   3.202   4.987 -0.7829  0.0071 -1.0142
 5738TIP3   OH217219   0.739   4.043   4.303  0.0106 -0.6801  0.0959
 5738TIP3    H117220   0.720   4.056   4.211  0.3956  1.1668  0.2289
 5738TIP3    H217221   0.822   3.995   4.305  0.1108 -0.5322 -0.5304
 5739TIP3   OH217222   6.270   5.924   0.398 -0.3092 -0.2897  0.5747
 5739TIP3    H117223   6.330   5.853   0.376  1.2264  1.3734 -0.9577
 5739TIP3    H217224   6.204   5.921   0.329  0.0164  0.0250  0.2424
 5740TIP3   OH217225   2.187   5.382   3.677 -0.2365  0.3527 -0.2418
 5740TIP3    H117226   2.230   5.326   3.741 -0.6929  1.7592  1.3769
 5740TIP3    H217227   2.189   5.332   3.596 -0.1697 -1.7789  0.9935
 5741TIP3   OH217228   4.318   1.815   4.813 -0.2260  0.0997  0.2085
 5741TIP3    H117229   4.311   1.734   4.864  0.4613 -0.5819 -0.7507
 5741TIP3    H217230   4.249   1.872   4.848 -2.2420 -1.7144 -0.6328
 5742TIP3   OH217231   5.424   4.620   4.389  0.0208 -0.6512  0.2755
 5742TIP3    H117232   5.371   4.561   4.442 -0.6315 -0.4817 -0.1885
 5742TIP3    H217233   5.378   4.627   4.306  1.1731 -1.1131 -0.4201
 5743TIP3   OH217234   4.851   4.458   1.987  0.0639  0.0653 -0.0903
 5743TIP3    H117235   4.903   4.477   1.909  0.7166 -0.4686  0.2061
 5743TIP3    H217236   4.837   4.363   1.983  0.4416 -0.0235  0.6537
 5744TIP3   OH217237   4.376   4.895   1.717  0.0775  0.3965 -0.5057
 5744TIP3    H117238   4.402   4.855   1.800  0.8473 -0.1078 -0.9756
 5744TIP3    H217239   4.287   4.928   1.732 -0.6192 -1.5524 -0.1254
 5745TIP3   OH217240   2.918   3.541   3.720  0.0076  0.1716 -0.4228
 5745TIP3    H117241   2.979   3.502   3.782 -0.5266  1.9061  1.2942
 5745TIP3    H217242   2.831   3.514   3.751 -0.3292  1.9633  0.3268
 5746TIP3   OH217243   4.976   2.294   2.228 -0.0171  0.7440  0.0960
 5746TIP3    H117244   4.957   2.200   2.235 -1.1127  0.9526  0.0041
 5746TIP3    H217245   4.999   2.307   2.136 -1.5323  0.8478 -0.2891
 5747TIP3   OH217246   1.569   4.766   3.369 -0.0978  0.5517  0.4344
 5747TIP3    H117247   1.589   4.694   3.308 -0.4792  0.8596 -0.0567
 5747TIP3    H217248   1.614   4.842   3.332  0.3590  0.5596  0.9893
 5748TIP3   OH217249   0.908   5.251   4.834  0.0580  0.0609  0.0027
 5748TIP3    H117250   0.861   5.296   4.764 -0.9773  0.0158  0.6433
 5748TIP3    H217251   0.974   5.199   4.789 -0.6093  0.0123 -0.9549
 5749TIP3   OH217252   1.398   0.531   1.604 -0.4183  0.2265 -0.2355
 5749TIP3    H117253   1.397   0.441   1.637  0.1958  0.2125 -0.2436
 5749TIP3    H217254   1.310   0.564   1.621 -0.1573  0.1815  1.2950
 5750TIP3   OH217255   4.943   3.979   2.587 -0.2387  0.0120 -0.2505
 5750TIP3    H117256   4.976   3.973   2.497  0.6128 -1.1285  0.1182
 5750TIP3    H217257   4.858   4.021   2.578  0.1238  0.5257 -1.5206
 5751TIP3   OH217258   4.760   0.885   2.248 -0.1660  0.0870 -0.0210
 5751TIP3    H117259   4.797   0.830   2.179 -0.1877  0.5948 -0.4431
 5751TIP3    H217260   4.775   0.975   2.219  0.6549  0.3300  1.0836
 5752TIP3   OH217261   2.009   4.341   4.586  0.1007 -0.0184 -0.1004
 5752TIP3    H117262   2.024   4.248   4.607 -1.7712 -0.3192  0.1037
 5752TIP3    H217263   1.955   4.372   4.659 -0.9665  0.6886 -1.1693
 5753TIP3   OH217264   6.306   3.997   2.627  0.3759 -0.0006 -0.3402
 5753TIP3    H117265   6.368   4.031   2.691  1.6701 -0.8164 -1.1123
 5753TIP3    H217266   6.223   4.042   2.647  0.8780  0.1792  1.5138
 5754TIP3   OH217267   3.309   0.453   2.452 -0.0368  0.0114  0.4755
 5754TIP3    H117268   3.264   0.412   2.378 -0.2706  1.6677 -0.3716
 5754TIP3    H217269   3.399   0.466   2.420 -0.0598  0.4573  0.5842
 5755TIP3   OH217270   6.220   3.251   1.716  0.2496  0.0383  0.0443
 5755TIP3    H117271   6.245   3.162   1.741  0.6843  0.0676 -0.2574
 5755TIP3    H217272   6.301   3.289   1.681  0.3528  0.9403  1.2243
 5756TIP3   OH217273   3.133   4.927   4.673 -0.8411 -0.2165  0.2807
 5756TIP3    H117274   3.209   4.890   4.719 -0.9437  0.6473  1.1925
 5756TIP3    H217275   3.104   4.858   4.615  1.3927 -0.1822 -1.0173
 5757TIP3   OH217276   5.273   5.779   4.901 -0.4378  0.3093  0.0058
 5757TIP3    H117277   5.354   5.830   4.896 -0.1406 -0.2252 -0.8869
 5757TIP3    H217278   5.268   5.735   4.816 -1.3646 -0.1194  0.2780
 5758TIP3   OH217279   1.649   0.694   2.796  0.2568  0.0419  0.4705
 5758TIP3    H117280   1.625   0.603   2.775 -0.5397  0.0371  1.3572
 5758TIP3    H217281   1.612   0.709   2.883 -0.8288  1.6678 -0.2271
 5759TIP3   OH217282   1.577   2.412   0.061 -0.0522 -0.1533 -0.1832
 5759TIP3    H117283   1.527   2.357   0.000  0.3186 -0.7146  0.0078
 5759TIP3    H217284   1.649   2.356   0.089 -0.1883  0.1194  0.7328
 5760TIP3   OH217285   4.983   0.516   4.146 -0.0488  0.3125 -0.4453
 5760TIP3    H117286   4.932   0.527   4.225  1.4236 -0.4317  0.6519
 5760TIP3    H217287   4.932   0.456   4.092  0.6296 -2.2967  1.5995
 5761TIP3   OH217288   6.002   0.526   2.439  0.1386 -0.4280 -0.4719
 5761TIP3    H117289   6.031   0.610   2.473 -1.7438 -0.2296  0.7916
 5761TIP3    H217290   6.007   0.535   2.344  2.4493  0.1428 -0.3496
 5762TIP3   OH217291   0.218   4.867   4.058 -0.8544 -0.1025 -0.1344
 5762TIP3    H117292   0.309   4.897   4.061 -0.8069 -0.1470 -0.8601
 5762TIP3    H217293   0.214   4.811   3.980 -1.6243  0.3216 -0.4133
 5763TIP3   OH217294   3.052   5.683   4.912  0.0868  0.0828  0.0692
 5763TIP3    H117295   2.982   5.620   4.890 -0.5112  0.4300  0.9530
 5763TIP3    H217296   3.027   5.719   4.996  2.3679 -1.2753  1.4493
 5764TIP3   OH217297   2.583   2.590   1.977 -0.1084 -0.3353 -0.2667
 5764TIP3    H117298   2.560   2.627   2.062 -0.6203  1.5025 -1.1518
 5764TIP3    H217299   2.640   2.655   1.937 -1.5867 -0.1239 -2.1720
 5765TIP3   OH217300   5.215   2.671   3.859 -0.1755  0.6327  0.1214
 5765TIP3    H117301   5.301   2.654   3.897 -1.0696 -1.3742  1.3902
 5765TIP3    H217302   5.179   2.742   3.912  0.8033  1.7745 -0.6778
 5766TIP3   OH217303   5.141   2.725   4.154  0.1403  0.0149  0.2525
 5766TIP3    H117304   5.067   2.766   4.109  0.0062 -0.0076  0.4536
 5766TIP3    H217305   5.176   2.794   4.210 -0.6183 -0.3884  1.2464
 5767TIP3   OH217306   6.336   3.688   4.266  0.3500 -0.0920 -0.3615
 5767TIP3    H117307   6.278   3.700   4.191 -0.0506  0.0943 -0.0254
 5767TIP3    H217308   6.383   3.771   4.273 -0.2943  0.2422  0.1619
 5768TIP3   OH217309   0.276   4.715   3.148 -0.4089 -0.1739 -0.0515
 5768TIP3    H117310   0.280   4.683   3.238 -2.3485 -1.1657 -0.2748
 5768TIP3    H217311   0.296   4.637   3.095 -0.4852  0.1138 -0.5030
 5769TIP3   OH217312   5.696   2.993   2.940 -0.6880 -0.0503  0.5776
 5769TIP3    H117313   5.775   2.980   2.889 -1.6129 -1.0218 -0.6779
 5769TIP3    H217314   5.725   3.038   3.019  0.7115  2.1753 -1.0827
 5770TIP3   OH217315   1.979   4.490   2.003 -0.0358 -0.0305 -0.3465
 5770TIP3    H117316   1.889   4.460   2.012 -0.4836  1.6734  1.5922
 5770TIP3    H217317   2.032   4.417   2.036 -0.6387 -1.0820 -1.5991
 5771TIP3   OH217318   3.882   1.268   3.564 -0.8032  0.1000 -0.1012
 5771TIP3    H117319   3.961   1.214   3.566 -1.3745 -0.8205 -1.2545
 5771TIP3    H217320   3.894   1.330   3.635  0.4472 -0.7510  0.4707
 5772TIP3   OH217321   3.799   2.507   3.616  0.2438  0.2657  0.2804
 5772TIP3    H117322   3.726   2.485   3.558  0.3532  2.0909 -0.6502
 5772TIP3    H217323   3.764   2.495   3.704 -0.8839  0.2023 -0.1524
 5773TIP3   OH217324   2.257   5.447   2.667 -0.3665 -0.4060  0.4746
 5773TIP3    H117325   2.219   5.372   2.622  0.1773 -0.7253  0.5476
 5773TIP3    H217326   2.325   5.410   2.722 -0.8389  0.0116  1.3598
 5774TIP3   OH217327   0.969   2.252   1.812  0.0922 -0.5592  0.5476
 5774TIP3    H117328   0.962   2.282   1.721 -0.4388  1.3854  1.1724
 5774TIP3    H217329   0.924   2.168   1.813 -0.8652 -0.0931 -0.7615
 5775TIP3   OH217330   3.140   5.398   3.149  0.5383 -0.3069  0.8435
 5775TIP3    H117331   3.194   5.475   3.129 -1.8942  1.0991 -0.9060
 5775TIP3    H217332   3.203   5.332   3.178  3.3202  0.9379 -1.7219
 5776TIP3   OH217333   2.752   4.211   3.545 -0.4387  0.0759 -0.4048
 5776TIP3    H117334   2.717   4.290   3.586 -1.2851  1.2574 -3.1170
 5776TIP3    H217335   2.675   4.157   3.526 -0.3451  0.4125 -1.9446
 5777TIP3   OH217336   5.365   3.758   2.768 -0.1729 -0.2586  0.1448
 5777TIP3    H117337   5.403   3.674   2.742 -0.8605 -0.3483 -0.6174
 5777TIP3    H217338   5.350   3.749   2.862  0.9424 -0.5044  0.3151
 5778TIP3   OH217339   4.931   3.797   0.621  0.0956  0.1606 -0.7518
 5778TIP3    H117340   4.963   3.834   0.539 -1.0746 -1.2017 -1.8832
 5778TIP3    H217341   4.843   3.832   0.630  0.4098  0.7406  0.2518
 5779TIP3   OH217342   3.109   4.478   3.846  0.7460 -0.3637  0.3575
 5779TIP3    H117343   3.125   4.540   3.917  2.3603  0.2683 -0.5105
 5779TIP3    H217344   3.106   4.392   3.889 -1.4385  0.2176  1.5623
 5780TIP3   OH217345   5.172   1.728   4.124 -0.6484  0.0237 -0.3015
 5780TIP3    H117346   5.229   1.680   4.064  0.5900 -0.1437  0.9817
 5780TIP3    H217347   5.217   1.812   4.138 -1.8324  0.8086 -1.0013
 5781TIP3   OH217348   0.727   1.237   5.022 -0.0280 -0.1593  0.7619
 5781TIP3    H117349   0.637   1.249   4.990 -0.1483  2.6813  1.8623
 5781TIP3    H217350   0.759   1.160   4.975 -1.9916  0.5521 -2.0062
 5782TIP3   OH217351   3.089   3.167   1.177 -0.0793  0.2092  0.2917
 5782TIP3    H117352   3.104   3.194   1.087  0.9066  0.0778  0.4047
 5782TIP3    H217353   3.133   3.082   1.184 -0.2936  0.1378  0.8433
 5783TIP3   OH217354   4.819   0.043   4.583  0.4818  0.1931 -0.3764
 5783TIP3    H117355   4.910   0.012   4.587  0.3475 -0.2737 -0.8310
 5783TIP3    H217356   4.815   0.113   4.648  1.0551 -0.0714 -0.0463
 5784TIP3   OH217357   4.595   2.081   2.455  0.0978  0.0101  0.0342
 5784TIP3    H117358   4.623   2.155   2.509  0.6986 -0.8460  0.9424
 5784TIP3    H217359   4.631   2.004   2.500 -2.5457 -1.0695  0.4828
 5785TIP3   OH217360   3.200   4.941   1.289 -0.1314 -0.0624  0.2595
 5785TIP3    H117361   3.201   4.847   1.271 -0.0978  0.2741 -1.8146
 5785TIP3    H217362   3.289   4.960   1.320  0.0440 -0.6159  0.1119
 5786TIP3   OH217363   3.771   3.166   3.540  0.0240 -0.6616 -0.0197
 5786TIP3    H117364   3.714   3.155   3.617  0.1049  1.4638  0.3997
 5786TIP3    H217365   3.835   3.095   3.548 -0.4425 -0.9682  1.4357
 5787TIP3   OH217366   0.709   2.660   4.025  0.1655 -0.6190 -0.2013
 5787TIP3    H117367   0.650   2.661   3.950  1.3653  0.6610 -1.1806
 5787TIP3    H217368   0.724   2.753   4.045  2.1817 -0.8803 -0.2959
 5788TIP3   OH217369   2.485   5.431   2.907  0.0431  0.1238 -0.2570
 5788TIP3    H117370   2.577   5.416   2.927  0.6171  0.9629 -2.0457
 5788TIP3    H217371   2.452   5.481   2.982  1.6043  1.6305 -0.5115
 5789TIP3   OH217372   4.307   3.664   3.547 -0.4541  0.1761 -0.0750
 5789TIP3    H117373   4.250   3.679   3.471 -0.6813  0.8278  0.2200
 5789TIP3    H217374   4.262   3.707   3.620 -0.7988 -1.3659  0.6817
 5790TIP3   OH217375   2.745   0.429   3.899  0.1991  0.8847 -0.5632
 5790TIP3    H117376   2.693   0.375   3.839  1.5981 -1.3868  0.1400
 5790TIP3    H217377   2.833   0.428   3.861  0.4882  1.7449  0.0783
 5791TIP3   OH217378   0.801   3.338   5.172  0.3613  0.6330 -0.0163
 5791TIP3    H117379   0.784   3.376   5.086 -0.1486  0.8020  0.1561
 5791TIP3    H217380   0.736   3.269   5.182 -0.0212  1.0636  0.5085
 5792TIP3   OH217381   5.842   1.839   2.700  0.7433  0.1507 -0.7205
 5792TIP3    H117382   5.795   1.922   2.693  0.3966 -0.0162 -0.3767
 5792TIP3    H217383   5.884   1.828   2.615  0.3654  0.4228 -0.9450
 5793TIP3   OH217384   4.371   2.113   4.370  0.0029 -0.3365 -0.1044
 5793TIP3    H117385   4.319   2.073   4.301  0.1328 -1.8166  0.6301
 5793TIP3    H217386   4.337   2.075   4.451  0.9931  0.0800  0.5202
 5794TIP3   OH217387   2.623   0.540   0.114  0.4570 -0.3310 -0.0894
 5794TIP3    H117388   2.552   0.476   0.123 -0.2126  0.4108  0.0104
 5794TIP3    H217389   2.700   0.494   0.146 -0.0481 -1.0215  0.1739
 5795TIP3   OH217390   5.864   4.272   0.984  0.0179 -0.3875  0.5194
 5795TIP3    H117391   5.843   4.194   1.036 -1.0540 -0.8738 -0.5927
 5795TIP3    H217392   5.807   4.341   1.020 -0.4825 -0.6392  0.2268
 5796TIP3   OH217393   1.072   1.234   3.849 -0.0841  0.4030 -0.7244
 5796TIP3    H117394   1.057   1.156   3.903 -0.4858  2.3119  2.1700
 5796TIP3    H217395   1.108   1.299   3.910  2.4246  1.8467 -3.4794
 5797TIP3   OH217396   4.825   3.549   1.078  0.2147  0.0742  0.5441
 5797TIP3    H117397   4.769   3.476   1.103 -0.2619  0.0359 -0.5643
 5797TIP3    H217398   4.770   3.602   1.020  1.3322 -0.0364 -0.6705
 5798TIP3   OH217399   1.012   5.230   1.502 -0.1417  0.4734  0.0540
 5798TIP3    H117400   1.057   5.181   1.572 -1.3312 -0.6422  0.0621
 5798TIP3    H217401   1.082   5.280   1.459  1.5566 -2.7739 -1.2707
 5799TIP3   OH217402   4.542   5.969   0.810 -0.6273 -0.2591  0.0705
 5799TIP3    H117403   4.597   5.953   0.733 -0.0179 -2.0228  0.8276
 5799TIP3    H217404   4.459   5.927   0.789 -2.0300  2.8082 -1.2760
 5800TIP3   OH217405   2.192   5.509   1.521  0.6660 -0.0046 -0.1348
 5800TIP3    H117406   2.123   5.571   1.544  0.1302 -0.6053 -0.1010
 5800TIP3    H217407   2.158   5.462   1.445  1.1886 -0.0611 -0.3399
 5801TIP3   OH217408   4.575   3.414   4.948 -0.2885 -0.2516  0.0024
 5801TIP3    H117409   4.605   3.403   4.858 -0.5327 -1.0855  0.0108
 5801TIP3    H217410   4.655   3.422   5.000 -0.1348  2.7127 -0.5318
 5802TIP3   OH217411   0.230   4.127   1.976 -0.0100 -0.2898  0.7504
 5802TIP3    H117412   0.201   4.046   2.017 -1.8053  0.3981  0.9271
 5802TIP3    H217413   0.208   4.116   1.883 -0.7298  0.1904  0.8621
 5803TIP3   OH217414   5.531   5.150   0.509 -0.3491  0.0328  0.0396
 5803TIP3    H117415   5.501   5.078   0.453  1.1264 -0.3514 -0.2990
 5803TIP3    H217416   5.553   5.108   0.592 -2.9107  0.6556  1.1332
 5804TIP3   OH217417   5.725   0.356   2.031  0.4475 -0.3343  0.6246
 5804TIP3    H117418   5.757   0.288   1.971 -0.6763 -1.1361  0.8985
 5804TIP3    H217419   5.762   0.437   1.997  0.0223 -0.7877 -1.0488
 5805TIP3   OH217420   2.115   1.247   1.018 -0.0010 -0.0805  0.0589
 5805TIP3    H117421   2.029   1.259   0.976 -0.5640  0.2605  1.2669
 5805TIP3    H217422   2.098   1.258   1.111  1.6537  1.6032  0.2140
 5806TIP3   OH217423   4.614   5.564   1.625 -0.7602  0.0090  0.0626
 5806TIP3    H117424   4.619   5.657   1.646 -0.5493 -0.2283  1.1357
 5806TIP3    H217425   4.533   5.534   1.667 -1.7684  0.0584 -1.7731
 5807TIP3   OH217426   0.030   1.225   3.133 -0.0262 -0.3890 -0.2819
 5807TIP3    H117427  -0.023   1.203   3.057 -0.9352  0.3544  0.1057
 5807TIP3    H217428   0.089   1.151   3.145 -0.7168 -1.0584 -0.9694
 5808TIP3   OH217429   0.589   2.997   0.445 -0.7335 -0.0263  0.0165
 5808TIP3    H117430   0.677   2.970   0.416 -0.3529  2.4866 -1.5257
 5808TIP3    H217431   0.605   3.053   0.521 -1.0302  0.1502 -0.0511
 5809TIP3   OH217432   5.920   3.152   4.538  1.1936 -0.3749  0.5402
 5809TIP3    H117433   5.892   3.171   4.627 -1.4744  0.4298 -0.3764
 5809TIP3    H217434   5.972   3.072   4.546 -0.3675 -1.2691  2.6360
 5810TIP3   OH217435   0.254   2.037   2.499  0.0793  0.6453  0.1430
 5810TIP3    H117436   0.307   2.012   2.574  1.3703  1.6081 -0.4166
 5810TIP3    H217437   0.280   1.976   2.429 -1.9012 -0.9686  0.7086
 5811TIP3   OH217438   3.855   2.143   2.857  0.5111  0.7632  0.3377
 5811TIP3    H117439   3.815   2.143   2.945  1.3568  1.3058  0.7320
 5811TIP3    H217440   3.842   2.232   2.825 -0.2195  0.4418 -0.3046
 5812TIP3   OH217441   6.045   3.499   4.178 -0.0426  0.4738 -0.6187
 5812TIP3    H117442   6.077   3.451   4.102 -2.1399 -0.1061 -1.2226
 5812TIP3    H217443   5.965   3.453   4.203  0.3147  0.9539  1.6555
 5813TIP3   OH217444   4.077   3.382   3.533 -0.0396  0.0003  0.2002
 5813TIP3    H117445   4.021   3.401   3.607  0.4607 -1.6902  1.0542
 5813TIP3    H217446   4.166   3.398   3.565  0.0776  1.9606 -0.9188
 5814TIP3   OH217447   0.768   1.144   3.952 -0.1754 -0.0600  0.1311
 5814TIP3    H117448   0.833   1.116   3.889 -1.0813  1.2525 -1.4594
 5814TIP3    H217449   0.814   1.208   4.008 -0.2372  1.4528 -1.4673
 5815TIP3   OH217450   3.838   3.046   2.313 -0.1214  0.2685  0.2325
 5815TIP3    H117451   3.928   3.053   2.344 -0.2775  0.1139  0.7324
 5815TIP3    H217452   3.837   3.095   2.231  0.1600  1.1827  0.7593
 5816TIP3   OH217453   0.482   1.052   3.837 -0.1540  0.2280 -0.4098
 5816TIP3    H117454   0.457   1.033   3.746 -1.6414  0.3429 -0.0555
 5816TIP3    H217455   0.465   0.970   3.884  1.2591 -0.0460 -0.3290
 5817TIP3   OH217456   1.170   5.316   1.257  0.3377 -0.3484 -0.3383
 5817TIP3    H117457   1.114   5.290   1.183  0.5576  1.2357 -1.0957
 5817TIP3    H217458   1.256   5.278   1.237  0.1797 -0.6645 -0.4333
 5818TIP3   OH217459   2.745   2.048   0.912  0.5651 -0.1002  0.3870
 5818TIP3    H117460   2.701   2.120   0.867 -0.9665 -1.0168  0.3256
 5818TIP3    H217461   2.832   2.044   0.874  0.0297  0.5223 -0.9433
 5819TIP3   OH217462   2.705   4.300   0.894  0.7244  0.3844  0.0948
 5819TIP3    H117463   2.666   4.276   0.811 -0.3602 -0.1400  0.7350
 5819TIP3    H217464   2.663   4.242   0.958 -1.8576  3.7057  1.7303
 5820TIP3   OH217465   1.224   4.958   1.195  0.0849 -0.5209 -0.4169
 5820TIP3    H117466   1.147   4.972   1.250  0.0297 -1.0740 -0.3445
 5820TIP3    H217467   1.295   5.000   1.243  0.0701 -1.1481  0.1801
 5821TIP3   OH217468   1.028   3.879   0.584 -0.1045 -0.3836 -0.3202
 5821TIP3    H117469   1.028   3.975   0.586 -1.4962 -0.2848 -2.3123
 5821TIP3    H217470   1.098   3.857   0.522 -1.0254 -0.5298 -1.3511
 5822TIP3   OH217471   4.177   0.342   1.238  0.1442 -0.2558 -0.3041
 5822TIP3    H117472   4.146   0.423   1.278  3.6284  0.7358  0.7584
 5822TIP3    H217473   4.189   0.363   1.146 -0.1112  0.0492 -0.2695
 5823TIP3   OH217474   0.404   5.879   2.670 -0.0493 -0.5238  0.2549
 5823TIP3    H117475   0.356   5.927   2.603  0.3472  0.1174  0.4175
 5823TIP3    H217476   0.446   5.947   2.722  1.3372 -1.0722 -0.1017
 5824TIP3   OH217477   1.262   2.849   3.929  0.4844 -0.0633 -0.3455
 5824TIP3    H117478   1.342   2.849   3.981  0.2225  1.9907  0.1066
 5824TIP3    H217479   1.193   2.822   3.990  0.6266 -0.6207 -0.4243
 5825TIP3   OH217480   2.916   4.221   3.930  0.1919  0.4860  0.3134
 5825TIP3    H117481   2.917   4.183   3.842 -0.6923  1.0354  0.0464
 5825TIP3    H217482   2.846   4.173   3.976 -2.0150  2.7219 -0.5038
 5826TIP3   OH217483   6.259   4.041   1.722  0.4375 -0.1115 -0.7944
 5826TIP3    H117484   6.308   3.960   1.723  0.4688 -0.0991 -1.1219
 5826TIP3    H217485   6.191   4.029   1.788  0.0426 -0.6578 -1.2871
 5827TIP3   OH217486   4.282   1.390   0.332  0.3624  0.1552  0.0335
 5827TIP3    H117487   4.373   1.373   0.307  0.7048  1.7020  0.1530
 5827TIP3    H217488   4.281   1.382   0.428 -0.0454 -1.5972 -0.0711
 5828TIP3   OH217489   3.464   0.308   1.167  0.3460  0.0437 -0.3877
 5828TIP3    H117490   3.516   0.352   1.234  0.1734  1.7690 -1.3553
 5828TIP3    H217491   3.402   0.253   1.217  0.7794  0.6326  0.8301
 5829TIP3   OH217492   3.430   3.907   3.031 -0.1947  1.0729 -0.2213
 5829TIP3    H117493   3.412   3.829   2.979 -1.3714  0.8582  0.4741
 5829TIP3    H217494   3.356   3.914   3.091  0.7476  1.7366  0.9268
 5830TIP3   OH217495   4.575   5.235   4.389  0.5645  0.7668  0.1145
 5830TIP3    H117496   4.599   5.286   4.312  2.4177 -0.8176 -0.4492
 5830TIP3    H217497   4.655   5.232   4.442  1.4100 -3.3746 -1.0269
 5831TIP3   OH217498   0.005   4.021   0.738 -0.3030 -0.1561  0.0521
 5831TIP3    H117499   0.010   3.926   0.746 -2.6117 -0.5316 -1.8386
 5831TIP3    H217500   0.047   4.040   0.654 -0.9864  0.3425 -0.1820
 5832TIP3   OH217501   2.966   3.385   5.095  0.6291 -0.0979 -0.6976
 5832TIP3    H117502   2.910   3.452   5.134  1.5438  0.0245  0.4533
 5832TIP3    H217503   2.982   3.323   5.166  2.7840  0.4202 -0.6373
 5833TIP3   OH217504   4.942   5.388   1.391 -0.0294  0.0835 -0.0074
 5833TIP3    H117505   5.008   5.319   1.387  0.9573  0.9982  0.3107
 5833TIP3    H217506   4.900   5.375   1.477  2.5749  2.0012  1.7111
 5834TIP3   OH217507   3.649   2.971   2.727  0.2751 -0.1560 -0.0335
 5834TIP3    H117508   3.680   2.881   2.723 -1.7575 -0.9517  0.8701
 5834TIP3    H217509   3.673   3.001   2.815 -0.1202 -0.2281  0.0988
 5835TIP3   OH217510   5.243   0.823   4.447 -0.1663  0.1964 -0.3063
 5835TIP3    H117511   5.238   0.764   4.522  2.1102 -1.2940 -1.2165
 5835TIP3    H217512   5.285   0.902   4.481 -0.5886  0.1712  0.2957
 5836TIP3   OH217513   4.746   3.345   0.311  0.2379  0.3428  0.1454
 5836TIP3    H117514   4.778   3.420   0.360  0.0022  0.6367 -0.1478
 5836TIP3    H217515   4.756   3.369   0.219  1.1338 -0.4010  0.0347
 5837TIP3   OH217516   2.024   2.897   1.102  0.3990  0.1058  0.5180
 5837TIP3    H117517   2.081   2.871   1.029 -0.9841 -0.8547 -0.2508
 5837TIP3    H217518   2.071   2.969   1.144  1.5160  0.2752 -0.9471
 5838TIP3   OH217519   1.085   5.504   1.423  0.2770 -0.2924  0.0385
 5838TIP3    H117520   1.092   5.431   1.361 -1.4680 -1.7991  1.5019
 5838TIP3    H217521   1.062   5.579   1.369  0.2845 -1.2260 -1.3222
 5839TIP3   OH217522   3.423   4.798   1.103 -0.4277  0.3214 -0.2443
 5839TIP3    H117523   3.462   4.815   1.017 -1.5932  1.2665 -0.6139
 5839TIP3    H217524   3.417   4.885   1.143 -1.9686  0.1913 -0.1444
 5840TIP3   OH217525   1.462   5.476   1.483  0.3920 -0.1170 -0.0693
 5840TIP3    H117526   1.399   5.514   1.422  0.5343  0.4684  0.1462
 5840TIP3    H217527   1.539   5.532   1.476 -0.1104  0.8878  1.7399
 5841TIP3   OH217528   5.777   3.485   2.612  0.0821  0.1427  0.0789
 5841TIP3    H117529   5.734   3.422   2.555 -0.3098  0.8681 -0.4477
 5841TIP3    H217530   5.855   3.440   2.643 -0.6380 -0.9116  0.4219
 5842TIP3   OH217531   4.927   3.286   2.081  0.0791 -0.7311  0.4121
 5842TIP3    H117532   4.907   3.329   1.998  0.3532 -1.8950 -0.2756
 5842TIP3    H217533   4.873   3.332   2.146  0.6497  0.8944 -0.2050
 5843TIP3   OH217534   2.609   5.783   3.513 -0.5610 -0.5216 -0.3012
 5843TIP3    H117535   2.632   5.854   3.453 -1.1069  0.2612  0.3749
 5843TIP3    H217536   2.549   5.728   3.464 -1.4287  0.4068 -0.3287
 5844TIP3   OH217537   1.149   3.559   4.817 -0.1627  0.1971  0.2218
 5844TIP3    H117538   1.090   3.634   4.827 -0.7432  0.2715 -2.8954
 5844TIP3    H217539   1.218   3.591   4.759  1.2127 -0.8505  1.2359
 5845TIP3   OH217540   2.124   2.562   0.079 -0.1583 -0.2800 -0.0796
 5845TIP3    H117541   2.131   2.523   0.166 -2.7945  1.1377  0.8775
 5845TIP3    H217542   2.107   2.655   0.095  0.6618  0.2928 -2.1580
 5846TIP3   OH217543   6.019   4.223   3.887 -0.2020 -0.1750 -0.7121
 5846TIP3    H117544   5.976   4.192   3.808  0.8163  0.1410 -1.4091
 5846TIP3    H217545   6.105   4.180   3.887 -0.6957 -1.2752  0.9731
 5847TIP3   OH217546   6.170   5.539   2.806 -0.0772 -0.1618 -0.0875
 5847TIP3    H117547   6.138   5.470   2.748  0.2629 -0.6630  0.3130
 5847TIP3    H217548   6.177   5.497   2.892 -1.6468  0.8719  0.5836
 5848TIP3   OH217549   2.511   2.300   3.510  0.8936 -0.6046 -0.3876
 5848TIP3    H117550   2.540   2.371   3.452 -0.0488  0.2773  0.1819
 5848TIP3    H217551   2.528   2.220   3.461 -0.6238  0.1498 -2.2382
 5849TIP3   OH217552   3.304   5.380   1.045  0.1129 -0.1006  0.0285
 5849TIP3    H117553   3.385   5.429   1.058 -0.5025  1.0122 -0.1982
 5849TIP3    H217554   3.237   5.434   1.086 -0.5189 -1.0454  0.2830
 5850TIP3   OH217555   4.464   0.063   0.126 -0.4354 -0.0081  0.0029
 5850TIP3    H117556   4.481   0.095   0.214  0.9966  0.5470 -0.4529
 5850TIP3    H217557   4.369   0.051   0.123 -0.5280  0.1707  1.5378
 5851TIP3   OH217558   5.425   3.701   2.191 -0.2124  0.0598  0.7103
 5851TIP3    H117559   5.393   3.765   2.255  1.0785  0.9847  0.4618
 5851TIP3    H217560   5.504   3.740   2.155  0.1325 -1.3059 -0.0901
 5852TIP3   OH217561   0.159   2.419   1.549 -0.4699  0.1060  0.3471
 5852TIP3    H117562   0.253   2.408   1.563 -0.9086 -0.7631  3.1596
 5852TIP3    H217563   0.139   2.502   1.591 -1.1999 -0.4924  1.2045
 5853TIP3   OH217564   1.199   1.533   4.317 -0.5985 -0.0012 -0.0874
 5853TIP3    H117565   1.135   1.535   4.389 -0.5101  1.1277 -0.0288
 5853TIP3    H217566   1.283   1.516   4.361 -0.4900  1.0590  0.1221
 5854TIP3   OH217567   2.582   5.578   1.077  0.1953 -0.1008 -0.5757
 5854TIP3    H117568   2.585   5.501   1.133 -1.7297  0.7196  0.7419
 5854TIP3    H217569   2.491   5.585   1.049  0.3636  1.5533 -0.8570
 5855TIP3   OH217570   5.642   4.482   3.461  0.1416 -0.2237  0.0309
 5855TIP3    H117571   5.653   4.463   3.368  0.5021 -3.7694  0.6611
 5855TIP3    H217572   5.550   4.463   3.479  0.4253 -1.0874  0.6446
 5856TIP3   OH217573   3.982   0.605   1.033 -0.0474 -0.0073 -0.0736
 5856TIP3    H117574   4.076   0.617   1.047 -0.0749 -0.3267  0.4349
 5856TIP3    H217575   3.947   0.590   1.121 -0.3164 -1.6992 -0.4458
 5857TIP3   OH217576   1.100   4.808   0.682  0.2855 -0.0625 -0.0234
 5857TIP3    H117577   1.114   4.902   0.695  0.1407  0.1920 -1.5125
 5857TIP3    H217578   1.027   4.786   0.740 -0.3911  0.9841 -0.4548
 5858TIP3   OH217579   3.083   3.502   1.072  0.4401 -0.4779 -0.0024
 5858TIP3    H117580   3.054   3.460   0.991  0.5168  0.2021 -0.3883
 5858TIP3    H217581   3.007   3.494   1.130 -0.8419  1.8736 -1.2315
 5859TIP3   OH217582   6.235   2.180   4.864  0.0673 -0.2045 -0.0579
 5859TIP3    H117583   6.262   2.098   4.905 -0.2117 -0.1587  0.2149
 5859TIP3    H217584   6.224   2.241   4.937  1.2955  0.3753 -0.3245
 5860TIP3   OH217585   1.720   2.768   4.985  0.0099  0.1006  0.0343
 5860TIP3    H117586   1.655   2.703   5.012 -0.3071 -0.1116 -1.2020
 5860TIP3    H217587   1.724   2.830   5.058 -0.3771 -0.7806  0.8178
 5861TIP3   OH217588   3.951   4.717   0.943  0.7071  0.3180  0.0005
 5861TIP3    H117589   3.954   4.753   1.031  1.4200  4.7649 -1.5793
 5861TIP3    H217590   4.029   4.750   0.900 -0.7053  0.2234 -2.9256
 5862TIP3   OH217591   3.134   0.703   0.926 -0.4250  0.4933  0.0085
 5862TIP3    H117592   3.203   0.736   0.982  0.0525  1.8614 -1.3106
 5862TIP3    H217593   3.170   0.709   0.837 -1.2555 -1.3067 -0.4871
 5863TIP3   OH217594   2.342   5.492   4.739  0.5291  0.0880 -0.0614
 5863TIP3    H117595   2.382   5.427   4.681 -0.1820  0.2009 -0.6849
 5863TIP3    H217596   2.252   5.501   4.707  0.8370  1.9996 -0.5206
 5864TIP3   OH217597   5.522   1.065   2.431  0.4247  0.4877 -0.8326
 5864TIP3    H117598   5.582   1.030   2.365  1.5736 -0.5066  0.6528
 5864TIP3    H217599   5.555   1.152   2.451  1.8065 -0.2651  0.3851
 5865TIP3   OH217600   1.162   4.266   4.206 -0.2488  0.7573 -0.3301
 5865TIP3    H117601   1.172   4.241   4.114  0.6436 -0.4444  0.0673
 5865TIP3    H217602   1.246   4.246   4.246 -0.7251  0.9666  0.8190
 5866TIP3   OH217603   0.771   0.899   2.367 -0.0764  0.1205  0.2423
 5866TIP3    H117604   0.685   0.936   2.384  0.5642  1.2859  1.0867
 5866TIP3    H217605   0.832   0.961   2.406  1.0802 -1.6249  1.3884
 5867TIP3   OH217606   1.938   0.673   1.146  0.0274  0.3937 -0.2848
 5867TIP3    H117607   1.981   0.748   1.188  0.4315  0.4645 -0.8150
 5867TIP3    H217608   1.974   0.671   1.058  1.2778 -1.4430  0.2120
 5868TIP3   OH217609   2.436   3.148   0.525  0.8203 -0.1626 -0.2192
 5868TIP3    H117610   2.442   3.243   0.528  1.0466 -0.1930  0.5770
 5868TIP3    H217611   2.446   3.126   0.432  0.1049  0.6234 -0.4997
 5869TIP3   OH217612   2.735   0.955   1.788 -0.2664 -0.2766  0.5330
 5869TIP3    H117613   2.817   0.971   1.835  0.7585  0.3682 -1.3793
 5869TIP3    H217614   2.692   0.885   1.838  0.7237  0.3916  2.4129
 5870TIP3   OH217615   4.186   2.423   0.731 -0.5234  0.1150 -0.6582
 5870TIP3    H117616   4.116   2.386   0.785  1.0480  1.5702  2.7094
 5870TIP3    H217617   4.183   2.517   0.748  1.0422  0.4484 -1.9559
 5871TIP3   OH217618   2.247   3.882   0.307 -0.0649 -0.4340 -0.0696
 5871TIP3    H117619   2.293   3.813   0.355  0.0962 -0.7895 -0.7263
 5871TIP3    H217620   2.185   3.836   0.250 -0.9725  0.0245  0.5161
 5872TIP3   OH217621   2.502   3.898   0.113  0.0207  0.1429  0.3310
 5872TIP3    H117622   2.569   3.905   0.045  0.3711 -0.6093  0.5781
 5872TIP3    H217623   2.545   3.934   0.191 -1.3913  3.8994 -0.4288
 5873TIP3   OH217624   3.374   5.864   2.517  0.4899 -0.0336 -0.0522
 5873TIP3    H117625   3.302   5.927   2.508 -0.0582 -0.9389 -3.2892
 5873TIP3    H217626   3.369   5.836   2.608 -1.4976  1.9644  0.5673
 5874TIP3   OH217627   1.299   2.167   1.914 -0.2161 -0.4657 -0.6275
 5874TIP3    H117628   1.304   2.259   1.939  0.4320 -0.5782 -0.3134
 5874TIP3    H217629   1.246   2.126   1.982  0.7129 -0.5847  0.0506
 5875TIP3   OH217630   1.777   2.179   0.363 -0.0991 -0.6211 -0.5627
 5875TIP3    H117631   1.818   2.165   0.449 -0.6265 -0.6768 -0.3132
 5875TIP3    H217632   1.749   2.091   0.336 -0.1296 -0.5724 -0.6873
 5876TIP3   OH217633   5.282   1.645   3.002 -0.0637  0.7272 -0.1917
 5876TIP3    H117634   5.265   1.669   3.093 -0.3824  1.3689 -0.4091
 5876TIP3    H217635   5.368   1.682   2.982 -0.1854  0.9676 -0.2771
 5877TIP3   OH217636   3.897   0.634   3.488 -0.2032  0.0527 -0.2006
 5877TIP3    H117637   3.884   0.571   3.416  1.3459 -1.8579  1.0877
 5877TIP3    H217638   3.988   0.661   3.479 -0.1555  0.2157  0.6994
 5878TIP3   OH217639   0.214   2.608   0.980 -0.4144  0.5931 -0.0934
 5878TIP3    H117640   0.265   2.616   1.060 -0.2951 -1.2311  0.0613
 5878TIP3    H217641   0.168   2.691   0.972  1.3389  1.6823  0.6046
 5879TIP3   OH217642   5.597   3.410   3.260 -0.6553 -0.2503  0.1601
 5879TIP3    H117643   5.607   3.476   3.191  1.2842  0.9836  1.5062
 5879TIP3    H217644   5.576   3.330   3.213 -2.5724  1.1561 -1.5918
 5880TIP3   OH217645   5.527   4.160   1.334 -0.0543 -0.4022 -0.5752
 5880TIP3    H117646   5.560   4.151   1.245  2.7444 -1.6817  0.4541
 5880TIP3    H217647   5.545   4.251   1.358  1.5841 -0.6967 -0.5443
 5881TIP3   OH217648   0.655   1.353   3.104  0.0053  0.1150  0.3413
 5881TIP3    H117649   0.631   1.415   3.035 -0.4586 -0.5228 -0.0838
 5881TIP3    H217650   0.626   1.395   3.185 -1.4778 -0.0952 -0.0545
 5882TIP3   OH217651   4.379   3.997   0.226  0.0234  0.2557 -0.6128
 5882TIP3    H117652   4.329   4.045   0.292 -0.3124  1.6321 -1.8226
 5882TIP3    H217653   4.326   3.920   0.207 -0.2909  0.2879  0.1172
 5883TIP3   OH217654   2.375   5.653   3.043 -0.5727 -0.4039  0.1662
 5883TIP3    H117655   2.292   5.617   3.015 -0.6235  0.1187 -0.3857
 5883TIP3    H217656   2.389   5.728   2.985 -1.5786  1.8959  2.6921
 5884TIP3   OH217657   4.253   0.935   4.570 -0.3309 -0.1271 -0.7700
 5884TIP3    H117658   4.334   0.982   4.549 -0.2575 -0.6152 -1.6160
 5884TIP3    H217659   4.274   0.885   4.648 -0.0041  0.2212 -0.6300
 5885TIP3   OH217660   2.896   0.752   2.626  0.1918  0.1367 -0.1896
 5885TIP3    H117661   2.980   0.735   2.583  0.9484  1.0058  0.8765
 5885TIP3    H217662   2.839   0.681   2.597  1.5069 -0.8890 -0.3577
 5886TIP3   OH217663   0.306   2.487   4.047  0.2518  0.7562  0.3236
 5886TIP3    H117664   0.267   2.415   3.997 -1.1255  1.0797  0.8668
 5886TIP3    H217665   0.357   2.536   3.982 -1.3220  1.0477 -0.7662
 5887TIP3   OH217666   0.825   4.800   4.931  0.0900 -0.2448 -0.2420
 5887TIP3    H117667   0.896   4.835   4.877  0.3700  1.4780  1.1470
 5887TIP3    H217668   0.816   4.709   4.903  3.5942 -0.8876  0.2051
 5888TIP3   OH217669   5.048   0.493   3.334 -0.4064  0.2522 -0.2307
 5888TIP3    H117670   5.052   0.398   3.342 -2.9656  0.1269  0.1272
 5888TIP3    H217671   5.125   0.516   3.282  1.6679 -1.7234  1.7172
 5889TIP3   OH217672   5.758   3.794   2.403 -0.4056 -0.0910 -0.5277
 5889TIP3    H117673   5.690   3.860   2.385 -0.5448 -0.5651 -1.8552
 5889TIP3    H217674   5.753   3.780   2.497 -0.7361  1.4111 -0.2875
 5890TIP3   OH217675   0.132   3.394   2.685  0.3119 -0.5160  0.0572
 5890TIP3    H117676   0.162   3.412   2.595 -0.2005  1.5034  0.2341
 5890TIP3    H217677   0.212   3.373   2.733  0.9478  0.7947 -0.3651
 5891TIP3   OH217678   1.346   4.826   4.323  0.3459  0.7127  0.6127
 5891TIP3    H117679   1.272   4.797   4.377 -1.4213  3.3206 -0.1960
 5891TIP3    H217680   1.305   4.860   4.243  2.7109 -0.6332 -1.2979
 5892TIP3   OH217681   4.135   5.063   3.420  0.3134  0.0679  0.0349
 5892TIP3    H117682   4.143   5.031   3.510  0.6520 -1.7113 -0.5820
 5892TIP3    H217683   4.141   4.984   3.366 -1.2220  0.9337 -1.5005
 5893TIP3   OH217684   0.870   2.778   1.062 -0.1118 -0.0314  0.1808
 5893TIP3    H117685   0.871   2.803   0.969 -0.0305  0.8100  0.3996
 5893TIP3    H217686   0.958   2.799   1.093  0.2352 -1.4001  0.1837
 5894TIP3   OH217687   1.819   1.826   1.924  0.0746 -0.2962 -0.6392
 5894TIP3    H117688   1.878   1.757   1.893  0.2077 -0.0368 -0.9789
 5894TIP3    H217689   1.835   1.899   1.864  1.5986  0.8553  1.0796
 5895TIP3   OH217690   6.341   0.597   1.448 -0.6653 -0.0781 -0.2322
 5895TIP3    H117691   6.251   0.624   1.434  0.0285  1.0855 -3.0259
 5895TIP3    H217692   6.369   0.559   1.365  1.5614  0.0540  0.3865
 5896TIP3   OH217693   3.340   0.601   3.949 -0.1517 -0.6033 -0.2328
 5896TIP3    H117694   3.423   0.617   3.992  0.7862  1.0451 -2.4525
 5896TIP3    H217695   3.324   0.679   3.895 -2.0863 -1.7387 -1.4701
 5897TIP3   OH217696   0.746  -0.034   1.965  0.1112  0.2234  0.0892
 5897TIP3    H117697   0.807   0.037   1.946  0.1981 -0.0842 -0.8431
 5897TIP3    H217698   0.661  -0.001   1.936 -0.0297  0.3305  0.6091
 5898TIP3   OH217699   2.051   2.265   4.343  0.4671 -0.0353 -0.0527
 5898TIP3    H117700   2.076   2.222   4.425 -0.3036 -0.5447 -0.0776
 5898TIP3    H217701   1.961   2.293   4.357  0.4320  0.1442 -0.6199
 5899TIP3   OH217702   0.830   4.763   0.470 -0.0239  0.5303  0.3700
 5899TIP3    H117703   0.919   4.730   0.454 -0.4629 -0.3072 -0.4539
 5899TIP3    H217704   0.838   4.858   0.462  0.9874  0.5486  1.3117
 5900TIP3   OH217705   0.773   4.876   0.766 -0.3844 -0.0022 -0.1280
 5900TIP3    H117706   0.714   4.823   0.820 -0.5653  0.8430  0.5428
 5900TIP3    H217707   0.830   4.920   0.830 -0.0454  0.3744 -0.6803
 5901TIP3   OH217708   0.134   2.985   4.034 -0.3378  0.5802 -0.0007
 5901TIP3    H117709   0.212   3.012   3.985  1.0671  2.1433  2.8381
 5901TIP3    H217710   0.062   3.033   3.992  0.4875  0.5171 -1.5558
 5902TIP3   OH217711   5.174   2.794   0.700 -0.5518 -0.0936  0.2653
 5902TIP3    H117712   5.202   2.841   0.778  0.4960  0.3713 -0.3642
 5902TIP3    H217713   5.236   2.721   0.694 -1.6532 -1.0941  0.7738
 5903TIP3   OH217714   5.317   5.500   2.488  0.2542 -0.3567  0.3999
 5903TIP3    H117715   5.260   5.520   2.414  0.2678 -2.1414 -0.1462
 5903TIP3    H217716   5.317   5.404   2.493  2.4109 -0.3792  0.9851
 5904TIP3   OH217717   4.656   4.443   2.243  0.5501  0.3534  0.3514
 5904TIP3    H117718   4.748   4.441   2.217  0.5537 -0.7474  0.3804
 5904TIP3    H217719   4.613   4.385   2.180 -0.0026  0.3311  0.7508
 5905TIP3   OH217720   3.070   5.354   1.848  0.1763  0.3522  0.0138
 5905TIP3    H117721   3.065   5.277   1.791 -1.6434  1.8331 -2.0297
 5905TIP3    H217722   3.077   5.428   1.787 -0.8090  1.9787  1.7713
 5906TIP3   OH217723   0.210   3.757   2.260 -0.2232  0.2333  0.7546
 5906TIP3    H117724   0.164   3.700   2.198 -0.9811 -0.9019  2.3133
 5906TIP3    H217725   0.207   3.843   2.218 -1.0355 -0.4155 -0.6172
 5907TIP3   OH217726   0.667   1.876   2.391 -0.6746  0.0265 -0.1798
 5907TIP3    H117727   0.666   1.971   2.380  1.7305  0.3047  1.1900
 5907TIP3    H217728   0.619   1.860   2.472 -0.2203  0.2021  0.1294
 5908TIP3   OH217729   5.296   3.177   1.115  0.6218 -0.0688  0.0293
 5908TIP3    H117730   5.278   3.179   1.021  0.9868 -0.6916 -0.0590
 5908TIP3    H217731   5.308   3.269   1.139 -0.1947  0.1566 -0.3863
 5909TIP3   OH217732   2.873   4.889   0.391 -0.0455  0.3205  0.2984
 5909TIP3    H117733   2.959   4.923   0.369  0.4948 -1.6981 -1.0467
 5909TIP3    H217734   2.815   4.925   0.324  0.9148 -2.7886 -2.5217
 5910TIP3   OH217735   0.393   2.110   1.889  0.1043  0.0982  0.8145
 5910TIP3    H117736   0.467   2.171   1.891 -1.3626  1.9467  0.7912
 5910TIP3    H217737   0.424   2.038   1.834  1.0843  1.9501 -1.2202
 5911TIP3   OH217738   3.882   2.196   4.941  0.1079  0.5307  0.5527
 5911TIP3    H117739   3.902   2.216   4.850  0.1194 -1.2174  0.1314
 5911TIP3    H217740   3.932   2.261   4.991  2.3158 -0.1275 -0.6204
 5912TIP3   OH217741   0.036   2.101   2.022 -0.2930 -0.4202 -0.4731
 5912TIP3    H117742   0.114   2.088   2.075  1.0019  0.1045 -2.1506
 5912TIP3    H217743  -0.002   2.182   2.054  0.0476 -0.4977  0.1334
 5913TIP3   OH217744   2.760   3.381   1.167 -0.5007  0.3596 -0.3165
 5913TIP3    H117745   2.716   3.386   1.252  0.1733  0.4532  0.0317
 5913TIP3    H217746   2.780   3.288   1.156  2.3327  0.7136  1.1595
 5914TIP3   OH217747   4.625   3.951   2.605 -0.3240  0.1174  0.0165
 5914TIP3    H117748   4.645   4.045   2.608 -0.5334  0.1765 -0.3035
 5914TIP3    H217749   4.628   3.923   2.696  0.0988  0.3581  0.0796
 5915TIP3   OH217750   5.044   5.847   2.451 -0.9847  0.1902  0.1545
 5915TIP3    H117751   5.056   5.774   2.511  1.5233  0.9765  0.7314
 5915TIP3    H217752   5.061   5.811   2.364 -0.8830 -0.1407  0.3114
 5916TIP3   OH217753   2.221   1.568   0.091 -0.2888 -0.0473  0.0351
 5916TIP3    H117754   2.305   1.563   0.137 -0.3901  0.4092  0.2802
 5916TIP3    H217755   2.155   1.571   0.161 -0.4935 -0.1599 -0.1512
 5917TIP3   OH217756   1.413   5.406   5.039  0.0102 -0.2593 -0.6838
 5917TIP3    H117757   1.474   5.366   5.102 -2.9429 -0.3330  2.4309
 5917TIP3    H217758   1.364   5.332   5.003 -0.9830  0.0364  0.0238
 5918TIP3   OH217759   3.938   5.091   0.608  0.1601 -0.2660  0.0425
 5918TIP3    H117760   3.941   5.058   0.698  3.4840 -0.9516 -0.1897
 5918TIP3    H217761   3.929   5.012   0.554  1.2388 -0.1550 -0.3062
 5919TIP3   OH217762   1.976   4.721   5.120  0.1818  0.5812 -0.3350
 5919TIP3    H117763   2.049   4.662   5.100  0.3371 -0.1456  2.0631
 5919TIP3    H217764   1.899   4.664   5.118 -0.0758  0.9377 -0.8936
 5920TIP3   OH217765   4.278   1.833   1.146  0.4335 -0.4025 -0.2834
 5920TIP3    H117766   4.299   1.762   1.085 -0.4526 -1.2160  0.3411
 5920TIP3    H217767   4.198   1.872   1.110 -0.6046 -1.4586  0.8110
 5921TIP3   OH217768   4.288   4.093   2.196  0.2790 -0.1479 -0.0387
 5921TIP3    H117769   4.296   4.179   2.154  1.9142 -0.8965 -1.3926
 5921TIP3    H217770   4.270   4.112   2.288  2.6670  1.7155  0.1257
 5922TIP3   OH217771   0.046   4.429   0.307  0.5752 -0.0171  0.1894
 5922TIP3    H117772   0.032   4.451   0.215 -0.5104 -2.9982 -0.4915
 5922TIP3    H217773   0.138   4.402   0.312  0.9237  1.1575  0.2387
 5923TIP3   OH217774   3.873   0.042   2.153  0.1548 -0.2383 -0.5369
 5923TIP3    H117775   3.876  -0.018   2.079  0.1774 -1.8093  0.6987
 5923TIP3    H217776   3.854   0.128   2.113 -0.4834 -1.1377 -2.2778
 5924TIP3   OH217777   6.125   3.963   4.741  0.3355 -0.3053  0.0632
 5924TIP3    H117778   6.175   3.898   4.791  0.3214 -0.2538  0.1433
 5924TIP3    H217779   6.134   3.934   4.650  0.9345 -0.0058  0.0234
 5925TIP3   OH217780   5.909   4.978   2.513  0.2307  0.1300  0.0613
 5925TIP3    H117781   5.900   5.009   2.603  0.6175  0.0570  0.1255
 5925TIP3    H217782   5.997   5.004   2.487  0.1385  0.1057 -0.2808
 5926TIP3   OH217783   0.601   4.692   2.497 -0.6697  0.2267 -0.0229
 5926TIP3    H117784   0.561   4.778   2.491 -2.6423 -0.7278 -2.2843
 5926TIP3    H217785   0.539   4.640   2.548 -0.1024 -0.1881  0.2633
 5927TIP3   OH217786   5.047   3.774   2.731  0.0701 -0.6218 -0.0020
 5927TIP3    H117787   4.992   3.828   2.674  0.3520  0.9419  1.1515
 5927TIP3    H217788   5.081   3.706   2.673 -0.0214  0.6374 -1.6013
 5928TIP3   OH217789   0.969   3.661   3.720 -0.3331 -0.1782 -0.2881
 5928TIP3    H117790   0.982   3.726   3.651  1.3636 -0.2203 -0.0627
 5928TIP3    H217791   1.027   3.588   3.695  0.4440 -0.1217  1.2388
 5929TIP3   OH217792   3.289   4.642   4.331  0.1328 -0.3484  0.4415
 5929TIP3    H117793   3.361   4.581   4.347  0.8518  0.0141 -1.1699
 5929TIP3    H217794   3.330   4.728   4.336 -0.2305 -0.1322 -0.2074
 5930TIP3   OH217795   3.068   5.864   3.962  0.7439 -0.2506 -0.4625
 5930TIP3    H117796   3.054   5.833   4.051 -0.7233  1.5175 -0.0211
 5930TIP3    H217797   2.986   5.847   3.916  0.9681  0.2013 -1.0524
 5931TIP3   OH217798   5.407   2.430   2.234 -0.4182  0.5679 -0.0579
 5931TIP3    H117799   5.498   2.455   2.222  0.0753 -0.7266  0.7485
 5931TIP3    H217800   5.366   2.504   2.279  0.3226  1.0000 -0.0887
 5932TIP3   OH217801   2.973   5.778   2.896  0.6625 -0.4124  0.3329
 5932TIP3    H117802   2.944   5.860   2.936  0.7451 -0.1596 -0.1237
 5932TIP3    H217803   3.009   5.804   2.812  1.4536 -0.8184  0.5352
 5933TIP3   OH217804   3.813   1.256   3.292  0.4354 -0.4048 -0.1983
 5933TIP3    H117805   3.895   1.286   3.251  0.2709 -1.5028 -1.4242
 5933TIP3    H217806   3.817   1.288   3.382  0.7580  2.2620 -1.0900
 5934TIP3   OH217807   2.678   5.786   1.778  0.2970  0.4058  0.4904
 5934TIP3    H117808   2.646   5.803   1.867 -0.3062  0.6178  0.2364
 5934TIP3    H217809   2.600   5.764   1.728  0.2944  2.3733 -0.4916
 5935TIP3   OH217810   6.335   2.591   1.833 -0.3598 -0.1461  0.1314
 5935TIP3    H117811   6.320   2.499   1.814  0.5743 -1.0682  3.2011
 5935TIP3    H217812   6.383   2.624   1.757  0.0757 -2.4313 -0.6472
 5936TIP3   OH217813   2.012   3.597   5.100 -0.0746 -0.2884 -0.4532
 5936TIP3    H117814   2.021   3.692   5.093  1.1236 -0.3917 -0.5596
 5936TIP3    H217815   1.935   3.576   5.047  0.5278  0.4693 -1.6723
 5937TIP3   OH217816   0.183   3.921   4.262  0.3195 -0.2614 -0.1966
 5937TIP3    H117817   0.120   3.992   4.273 -0.8262 -1.4075  1.0560
 5937TIP3    H217818   0.266   3.957   4.292 -0.0292  0.8523 -0.5480
 5938TIP3   OH217819   0.558   0.938   5.107  0.1661 -0.3086 -0.4869
 5938TIP3    H117820   0.607   0.917   5.028  2.3314  1.2597  0.3233
 5938TIP3    H217821   0.576   1.031   5.122 -0.8435 -0.3654  1.4158
 5939TIP3   OH217822   5.000   1.290   5.211  0.1483 -0.1138  0.0891
 5939TIP3    H117823   4.988   1.195   5.212 -2.3183  0.0988 -1.2382
 5939TIP3    H217824   4.970   1.317   5.124  1.0153  1.8740  0.3461
 5940TIP3   OH217825   2.607   2.982   0.251 -0.5880 -0.5184 -0.2006
 5940TIP3    H117826   2.699   2.973   0.228 -0.3767  1.5140 -0.3712
 5940TIP3    H217827   2.585   3.072   0.227 -1.8847 -0.0611  2.3613
 5941TIP3   OH217828   6.300   5.401   1.683 -0.6099 -0.2795 -0.5512
 5941TIP3    H117829   6.290   5.458   1.606  0.9845 -2.2981 -2.3639
 5941TIP3    H217830   6.230   5.337   1.674 -0.4220 -0.5238 -0.2917
 5942TIP3   OH217831   4.354   4.359   2.112  0.2497  0.2950  0.0586
 5942TIP3    H117832   4.416   4.339   2.043 -0.7934  0.8762 -1.0896
 5942TIP3    H217833   4.275   4.388   2.066 -0.0996  1.8280  1.5082
 5943TIP3   OH217834   3.775   2.707   0.801 -0.6744 -0.3750 -0.4168
 5943TIP3    H117835   3.680   2.711   0.811 -0.7731  1.4543 -1.5477
 5943TIP3    H217836   3.788   2.674   0.712 -0.2234 -1.0518 -0.1094
 5944TIP3   OH217837   5.590   1.488   4.777  0.4818 -0.4338 -0.1255
 5944TIP3    H117838   5.560   1.424   4.712 -0.6254 -0.1819  0.1181
 5944TIP3    H217839   5.512   1.540   4.796  1.6279  1.8556 -1.2841
 5945TIP3   OH217840   0.033   0.066   2.670  0.2373 -0.0954  0.0860
 5945TIP3    H117841   0.003   0.091   2.757 -0.5647 -2.6321  0.6327
 5945TIP3    H217842  -0.030   0.107   2.610 -0.9468 -0.6534  0.9025
 5946TIP3   OH217843   2.907   3.759   2.608 -0.0594  0.2452  0.6955
 5946TIP3    H117844   2.855   3.755   2.688 -0.3497 -1.7999  0.4666
 5946TIP3    H217845   2.981   3.815   2.630  1.3989 -2.4556  3.3861
 5947TIP3   OH217846   2.624   4.839   3.395  0.0274  0.0152 -0.0022
 5947TIP3    H117847   2.625   4.749   3.361  1.2472  0.1235 -0.2971
 5947TIP3    H217848   2.713   4.853   3.427  0.0463  1.3482 -0.5750
 5948TIP3   OH217849   5.321   5.066   3.638  0.4779 -0.1427 -0.1444
 5948TIP3    H117850   5.298   4.974   3.650  0.8140 -0.0886  0.9733
 5948TIP3    H217851   5.416   5.064   3.624  0.4773  0.0323 -0.1654
 5949TIP3   OH217852   3.454   3.829   2.646 -0.3241 -0.1488  0.0764
 5949TIP3    H117853   3.509   3.765   2.601 -0.2059 -1.2794  1.7490
 5949TIP3    H217854   3.513   3.876   2.705 -0.9333 -0.6440  1.1126
 5950TIP3   OH217855   0.083   2.796   2.962  0.3551 -0.5799 -0.3268
 5950TIP3    H117856   0.113   2.736   3.030  0.7102 -0.8208 -0.6930
 5950TIP3    H217857  -0.013   2.794   2.969  0.3366 -1.7566 -0.8127
 5951TIP3   OH217858   3.044   4.795   0.612 -0.2248 -0.2074  0.1313
 5951TIP3    H117859   3.006   4.834   0.533 -1.6075 -2.1691 -0.2507
 5951TIP3    H217860   3.024   4.858   0.682 -3.2667 -0.5688 -0.2722
 5952TIP3   OH217861   5.435   0.576   5.121  0.1382 -0.5289  0.0898
 5952TIP3    H117862   5.432   0.543   5.031  2.0642 -0.0214 -0.2096
 5952TIP3    H217863   5.499   0.519   5.164 -0.6633 -0.6725  1.1154
 5953TIP3   OH217864   0.038   0.071   1.090 -0.1706  0.3603  0.4383
 5953TIP3    H117865   0.124   0.097   1.059 -0.2528  0.6034  0.4167
 5953TIP3    H217866   0.040   0.089   1.184 -0.0759  0.0386  0.4980
 5954TIP3   OH217867   4.264   5.000   1.199  0.3338  0.2668 -0.0584
 5954TIP3    H117868   4.291   4.914   1.165 -0.4662 -0.2244  0.5282
 5954TIP3    H217869   4.234   5.047   1.122  1.6825  0.3849 -0.5403
 5955TIP3   OH217870   4.502   2.282   1.246  0.0050  0.2012  0.5308
 5955TIP3    H117871   4.565   2.230   1.197  0.3069 -0.5573  1.6915
 5955TIP3    H217872   4.420   2.233   1.238 -0.2668  0.7780 -0.3213
 5956TIP3   OH217873   2.208   3.546   1.749 -0.1191  0.1410 -0.7040
 5956TIP3    H117874   2.191   3.463   1.705  0.4488 -0.4917  0.2258
 5956TIP3    H217875   2.290   3.576   1.711 -0.1507  0.1026 -0.8028
 5957TIP3   OH217876   1.863   0.349   1.575  0.3361 -0.9690 -0.2244
 5957TIP3    H117877   1.915   0.414   1.527 -1.5469 -0.2911 -1.5027
 5957TIP3    H217878   1.926   0.284   1.603  1.8202 -0.4652 -2.1268
 5958TIP3   OH217879   6.147   5.470   3.891 -0.1364  0.0288 -0.3297
 5958TIP3    H117880   6.116   5.380   3.896 -0.6173  0.2019 -0.1792
 5958TIP3    H217881   6.238   5.466   3.922 -0.5136 -0.2282  0.7640
 5959TIP3   OH217882   2.188   5.546   0.345  0.0424 -0.4251 -0.3595
 5959TIP3    H117883   2.104   5.510   0.316  0.7111 -1.3475 -1.2110
 5959TIP3    H217884   2.251   5.515   0.281  1.1405 -0.2246  0.5858
 5960TIP3   OH217885   3.391   3.773   1.490 -0.1427 -0.0483  0.0613
 5960TIP3    H117886   3.357   3.862   1.478  0.8643  0.3081 -0.2597
 5960TIP3    H217887   3.335   3.719   1.435 -0.7555  0.3889  0.2458
 5961TIP3   OH217888   1.343   0.594   0.161 -0.1926  0.4806  0.0965
 5961TIP3    H117889   1.277   0.610   0.093 -0.2510 -0.4506 -0.0871
 5961TIP3    H217890   1.396   0.674   0.163 -1.0865  1.0893 -0.0251
 5962TIP3   OH217891   0.658   4.659   1.542 -0.2601  0.5090 -0.4676
 5962TIP3    H117892   0.593   4.634   1.475  0.3279  2.4549 -1.8754
 5962TIP3    H217893   0.735   4.606   1.522 -0.2738  0.6887 -1.0445
 5963TIP3   OH217894   4.750   3.054   4.876 -0.2485  0.2842  0.0578
 5963TIP3    H117895   4.657   3.074   4.863 -0.9247 -1.2246  2.1628
 5963TIP3    H217896   4.764   2.975   4.824 -1.0583 -1.3987  2.2320
 5964TIP3   OH217897   1.064   5.404   4.473 -0.1149  0.0561  0.1601
 5964TIP3    H117898   0.977   5.380   4.506 -0.3789 -1.4707 -1.5087
 5964TIP3    H217899   1.115   5.324   4.478  0.9474  0.7203  0.2887
 5965TIP3   OH217900   4.759   3.866   4.190 -0.1746 -0.6079  0.4048
 5965TIP3    H117901   4.802   3.906   4.266  0.5854  0.5921 -0.6234
 5965TIP3    H217902   4.829   3.859   4.125 -1.6771  2.3952 -1.7262
 5966TIP3   OH217903   3.787   1.848   2.759 -0.6023  0.5307  0.2868
 5966TIP3    H117904   3.801   1.935   2.796  0.9496 -0.0565  1.1513
 5966TIP3    H217905   3.850   1.792   2.803 -0.2045 -0.6594 -1.6536
 5967TIP3   OH217906   3.342   2.619   2.850  0.1174 -0.0963 -0.0063
 5967TIP3    H117907   3.357   2.672   2.772 -2.6133 -1.1240 -1.3657
 5967TIP3    H217908   3.319   2.681   2.918  2.8179  0.8467  0.1656
 5968TIP3   OH217909   5.028   5.752   0.858 -0.2726 -0.2686  0.4791
 5968TIP3    H117910   5.046   5.759   0.765  0.8267 -2.3987  0.4875
 5968TIP3    H217911   5.080   5.822   0.898  0.6222 -0.4390 -0.3557
 5969TIP3   OH217912   4.205   0.824   1.170 -0.7730  0.3757 -0.1776
 5969TIP3    H117913   4.208   0.793   1.080  0.0191  1.1166 -0.4236
 5969TIP3    H217914   4.181   0.917   1.162  2.6370  1.3987  0.0842
 5970TIP3   OH217915   5.875   5.434   4.775  0.1091  0.1544  0.2447
 5970TIP3    H117916   5.959   5.387   4.777 -0.0305 -0.0844  0.8731
 5970TIP3    H217917   5.810   5.366   4.793 -0.3950  0.0064 -1.9660
 5971TIP3   OH217918   4.134   2.989   0.373 -0.1822 -0.0200 -0.6084
 5971TIP3    H117919   4.118   3.083   0.373 -1.8913 -0.2756 -1.2298
 5971TIP3    H217920   4.179   2.972   0.291 -1.4810  0.0434 -1.3581
 5972TIP3   OH217921   1.930   1.842   4.249 -0.0430  0.4051 -0.1888
 5972TIP3    H117922   1.840   1.873   4.248 -0.5831 -1.0616  0.7516
 5972TIP3    H217923   1.967   1.882   4.328 -0.1574  0.2035 -0.0343
 5973TIP3   OH217924   0.913   0.881   4.369 -0.2609 -0.6763 -0.4990
 5973TIP3    H117925   0.977   0.888   4.298  1.0465 -0.6820  0.6486
 5973TIP3    H217926   0.839   0.836   4.329  0.1668 -0.0956 -2.0354
 5974TIP3   OH217927   3.416   0.984   3.607 -0.4217 -0.2073  0.1899
 5974TIP3    H117928   3.461   1.058   3.647 -1.8619  0.0917  1.3195
 5974TIP3    H217929   3.479   0.950   3.543  1.0050  0.7905  1.0003
 5975TIP3   OH217930   4.592   1.887   2.836 -0.1446 -0.7814 -0.3670
 5975TIP3    H117931   4.497   1.874   2.840 -0.2457  0.0941  1.3035
 5975TIP3    H217932   4.628   1.820   2.894  0.2857 -1.2389 -1.1528
 5976TIP3   OH217933   1.519   1.176   0.522  0.3481 -0.0782  0.1477
 5976TIP3    H117934   1.526   1.086   0.491 -0.9094  0.0270 -0.5266
 5976TIP3    H217935   1.600   1.192   0.570  1.2651 -1.0820 -0.9949
 5977TIP3   OH217936   5.793   3.414   2.048 -0.4081 -1.0550  0.3335
 5977TIP3    H117937   5.757   3.495   2.013  1.0326 -0.2889  0.5602
 5977TIP3    H217938   5.864   3.442   2.106  2.5685 -2.4881 -2.3120
 5978TIP3   OH217939   2.822   3.352   0.054  0.1175 -0.0731  0.4728
 5978TIP3    H117940   2.794   3.418  -0.009 -1.3905  0.2300  1.3952
 5978TIP3    H217941   2.826   3.399   0.137  0.3846 -0.8382  0.9017
 5979TIP3   OH217942   0.947   2.103   2.313 -0.1696  0.0710 -0.1674
 5979TIP3    H117943   0.946   2.038   2.382 -0.4018 -0.1751 -0.3986
 5979TIP3    H217944   0.857   2.137   2.311 -0.1697  0.0616 -0.3617
 5980TIP3   OH217945   4.026   4.582   0.295 -0.5122  0.5085 -0.5790
 5980TIP3    H117946   4.048   4.535   0.214 -1.4500 -1.2544  0.1654
 5980TIP3    H217947   4.004   4.514   0.358  0.5039  1.8274  1.3016
 5981TIP3   OH217948   5.369   3.550   1.581  0.1184 -0.0415 -0.1191
 5981TIP3    H117949   5.398   3.533   1.492 -3.3118 -3.4355 -0.8329
 5981TIP3    H217950   5.311   3.626   1.573 -1.0843 -1.0265 -1.0651
 5982TIP3   OH217951   4.400   4.371   2.711  0.2660 -0.4347 -0.4474
 5982TIP3    H117952   4.373   4.366   2.620  2.1864 -0.5142 -1.0691
 5982TIP3    H217953   4.470   4.437   2.712 -0.4866  0.4085  1.1840
 5983TIP3   OH217954   1.889   3.094   0.496 -0.0340 -0.4563 -0.1315
 5983TIP3    H117955   1.925   3.139   0.573  0.2673 -0.0007 -0.5332
 5983TIP3    H217956   1.818   3.040   0.531  1.1275 -1.5078  0.7071
 5984TIP3   OH217957   2.472   5.057   0.581 -0.1566 -0.6704 -0.1503
 5984TIP3    H117958   2.392   5.029   0.536 -0.5308  0.6874 -0.3550
 5984TIP3    H217959   2.442   5.097   0.662  0.3932 -1.1024  0.2821
 5985TIP3   OH217960   1.590   5.264   4.232  0.4562 -0.5281 -0.1302
 5985TIP3    H117961   1.631   5.187   4.192 -1.2506 -1.5922  0.0567
 5985TIP3    H217962   1.562   5.233   4.319  0.7107  0.6420  0.3885
 5986TIP3   OH217963   3.819   0.400   3.328  0.0258  0.2577 -0.1571
 5986TIP3    H117964   3.753   0.332   3.346 -0.8763  0.8931 -0.9666
 5986TIP3    H217965   3.887   0.353   3.280 -0.7531 -0.0280 -1.0187
 5987TIP3   OH217966   6.312   5.660   3.032  0.0665  0.6606  0.1868
 5987TIP3    H117967   6.332   5.703   3.115  1.1874  0.0056  0.2657
 5987TIP3    H217968   6.266   5.580   3.057 -1.5209  1.4895  0.0618
 5988TIP3   OH217969   3.255   3.632   0.845  0.4479  0.3419  0.1077
 5988TIP3    H117970   3.251   3.616   0.939 -1.5988  1.9987  0.3774
 5988TIP3    H217971   3.274   3.546   0.807 -0.1590 -0.6621  1.9570
 5989TIP3   OH217972   2.000   5.600   1.759 -0.3342 -0.0208 -0.2875
 5989TIP3    H117973   1.989   5.628   1.669 -1.1858 -0.8785 -0.4620
 5989TIP3    H217974   1.930   5.644   1.808  0.2361  0.5871 -0.0028
 5990TIP3   OH217975   4.168   0.716   0.081  0.0862 -0.7927 -0.4706
 5990TIP3    H117976   4.187   0.801   0.121  0.9548 -0.0402 -2.3990
 5990TIP3    H217977   4.107   0.735   0.010  0.9917 -1.6381 -1.5056
 5991TIP3   OH217978   0.532   2.202   1.240 -0.4184  0.3494  0.5148
 5991TIP3    H117979   0.584   2.122   1.235  0.2530  0.7252  1.3140
 5991TIP3    H217980   0.547   2.245   1.156 -0.3840 -0.1150  0.2769
 5992TIP3   OH217981   4.900   0.708   4.674  0.2245  0.2566  0.4339
 5992TIP3    H117982   4.974   0.693   4.732  0.0915  0.9258  0.7859
 5992TIP3    H217983   4.828   0.733   4.733  0.0897  0.9525 -0.0158
 5993TIP3   OH217984   4.541   2.144   1.645  0.2388  0.2976  0.0603
 5993TIP3    H117985   4.601   2.219   1.652  0.6977 -0.1395  0.9177
 5993TIP3    H217986   4.592   2.077   1.599  0.8213 -0.4657  1.7519
 5994TIP3   OH217987   2.221   1.356   1.804 -0.3720  0.3860 -0.0581
 5994TIP3    H117988   2.302   1.365   1.854  0.2848 -0.1591 -1.0116
 5994TIP3    H217989   2.248   1.325   1.718 -1.4191  1.9340 -0.9940
 5995TIP3   OH217990   6.114   5.035   2.317 -0.1969 -0.6362 -0.0508
 5995TIP3    H117991   6.204   5.042   2.285 -1.0759 -1.6786 -3.1606
 5995TIP3    H217992   6.068   5.109   2.276 -1.2773 -1.6744 -0.7913
 5996TIP3   OH217993   2.671   0.154   5.190 -0.2839  0.2257 -0.1141
 5996TIP3    H117994   2.707   0.232   5.147  2.3045 -0.6741  0.2073
 5996TIP3    H217995   2.634   0.102   5.119 -1.3078  1.3406 -0.4307
 5997TIP3   OH217996   5.911   2.230   4.960 -0.3958  0.0974 -0.3255
 5997TIP3    H117997   5.999   2.193   4.966  0.4161  2.0578  0.7973
 5997TIP3    H217998   5.907   2.271   4.874  0.5792  1.7376  0.3597
 5998TIP3   OH217999   4.897   1.769   1.338 -0.2776 -0.2200 -0.0331
 5998TIP3    H118000   4.913   1.675   1.330 -1.5750 -0.5876  1.1778
 5998TIP3    H218001   4.943   1.808   1.264 -1.7075 -2.0472 -1.9914
 5999TIP3   OH218002   4.326   5.728   3.212  0.0694 -0.4603  0.0543
 5999TIP3    H118003   4.333   5.634   3.231  1.9629 -0.6983 -1.4858
 5999TIP3    H218004   4.233   5.747   3.221 -0.2544 -2.2654  1.2802
 6000TIP3   OH218005   3.686   5.915   4.886  0.1493 -0.0642 -0.5193
 6000TIP3    H118006   3.729   5.986   4.934  0.5358  1.0182 -2.3728
 6000TIP3    H218007   3.755   5.850   4.872 -0.8188 -2.3907  3.7160
 6001TIP3   OH218008   4.573   2.727   5.073 -0.0319  0.0637 -0.1078
 6001TIP3    H118009   4.542   2.788   5.005 -1.2776  0.3967  0.7096
 6001TIP3    H218010   4.583   2.643   5.028 -2.2355 -0.0727 -0.4458
 6002TIP3   OH218011   2.885   5.659   3.615 -0.2755  0.2861  0.1339
 6002TIP3    H118012   2.951   5.626   3.555  0.4627  0.1066  1.0186
 6002TIP3    H218013   2.842   5.730   3.567  1.8622  1.7377  0.1817
 6003TIP3   OH218014   4.547   4.935   4.914 -0.1075  0.0948 -0.0313
 6003TIP3    H118015   4.562   4.911   4.822  2.4693  0.1474  0.2987
 6003TIP3    H218016   4.474   4.880   4.941 -0.4428 -0.4729 -1.9155
 6004TIP3   OH218017   2.353   5.166   2.766  0.2070  0.3758 -0.4153
 6004TIP3    H118018   2.270   5.118   2.766  0.5960 -0.3210 -1.1538
 6004TIP3    H218019   2.354   5.212   2.851  0.6186 -2.2973  1.1300
 6005TIP3   OH218020   1.223   3.399   0.884  0.0873 -0.1809 -0.0244
 6005TIP3    H118021   1.252   3.388   0.794 -1.2392 -0.8929 -0.3845
 6005TIP3    H218022   1.128   3.392   0.880  0.0057 -0.2589  1.4428
 6006TIP3   OH218023   5.207   2.541   3.614  0.0781 -0.0688 -0.3759
 6006TIP3    H118024   5.154   2.592   3.553 -2.9017  1.0839  2.9001
 6006TIP3    H218025   5.200   2.586   3.697  0.9947 -3.4042  1.7245
 6007TIP3   OH218026   1.439   3.876   2.694 -0.6801  0.1424 -0.5558
 6007TIP3    H118027   1.391   3.956   2.718 -1.4632 -0.1371 -1.1605
 6007TIP3    H218028   1.507   3.869   2.760  0.4487  2.2049 -1.3958
 6008TIP3   OH218029   1.588   3.218   0.497 -0.0263  0.3277  0.3007
 6008TIP3    H118030   1.616   3.128   0.512  1.5741  0.5305 -1.1178
 6008TIP3    H218031   1.583   3.256   0.585  0.0916 -0.9014  0.8658
 6009TIP3   OH218032   4.291   3.007   0.139 -0.3444 -0.0363  0.2824
 6009TIP3    H118033   4.353   3.073   0.108 -1.6495  0.2286 -2.0131
 6009TIP3    H218034   4.342   2.925   0.139  0.2175  0.2863 -0.8558
 6010TIP3   OH218035   4.065   1.819   3.751 -0.3964 -0.0473 -0.1062
 6010TIP3    H118036   4.054   1.913   3.738 -1.8314 -0.1619  0.0992
 6010TIP3    H218037   3.995   1.794   3.812  0.1782 -1.1883  0.1291
 6011TIP3   OH218038   2.348   4.917   0.204 -0.2394 -0.0805  0.7908
 6011TIP3    H118039   2.278   4.854   0.185 -0.6700  0.4061  0.7622
 6011TIP3    H218040   2.407   4.870   0.264  0.7611 -1.3953 -1.1267
 6012TIP3   OH218041   4.346   3.392   3.565 -0.1762  0.0444 -0.2541
 6012TIP3    H118042   4.338   3.487   3.569 -3.3150 -0.1553  0.8737
 6012TIP3    H218043   4.440   3.376   3.556  0.3210  3.2542 -2.2687
 6013TIP3   OH218044   5.941   3.658   4.575 -0.0152 -0.2983 -0.1793
 6013TIP3    H118045   5.959   3.644   4.668  1.9959  2.1552 -0.0912
 6013TIP3    H218046   6.004   3.603   4.530  0.4329  0.0758 -0.0245
 6014TIP3   OH218047   6.335   3.951   0.067 -0.3913  0.4846 -0.3982
 6014TIP3    H118048   6.303   3.961  -0.022 -0.1896  0.4702 -0.4723
 6014TIP3    H218049   6.394   4.026   0.080  0.0455  0.1576 -0.4809
 6015TIP3   OH218050   3.973   0.311   0.383  0.1880 -0.0949  0.4068
 6015TIP3    H118051   4.069   0.309   0.387  0.1492 -0.9657  1.9107
 6015TIP3    H218052   3.946   0.325   0.474 -1.1133  0.1208  0.0046
 6016TIP3   OH218053   4.135   3.824   3.104  0.2103  0.7642  0.2072
 6016TIP3    H118054   4.120   3.782   3.189  1.6982 -3.3142 -1.3235
 6016TIP3    H218055   4.067   3.786   3.047  2.5881 -1.0086 -1.6294
 6017TIP3   OH218056   5.606   0.836   2.641 -0.1535 -0.1101  0.1821
 6017TIP3    H118057   5.548   0.900   2.599  0.7887  1.6288  1.4158
 6017TIP3    H218058   5.685   0.837   2.588 -0.2157 -0.4077  0.0843
 6018TIP3   OH218059   2.986   2.310   1.246 -0.0325 -0.1305  0.3175
 6018TIP3    H118060   3.073   2.348   1.229 -0.0768 -0.0678  0.2304
 6018TIP3    H218061   2.986   2.227   1.198 -0.1009 -0.0266  0.1362
 6019TIP3   OH218062   2.190   4.376   4.809  0.4082  0.1214 -0.1128
 6019TIP3    H118063   2.192   4.371   4.714  0.6344 -1.2208 -0.0605
 6019TIP3    H218064   2.256   4.313   4.837 -1.8689 -1.9367  0.9752
 6020TIP3   OH218065   1.805   5.843   3.275  0.1954 -0.3461  0.2308
 6020TIP3    H118066   1.742   5.771   3.272 -0.8598  0.5201  0.8098
 6020TIP3    H218067   1.778   5.901   3.204 -0.1153  0.3839  0.9363
 6021TIP3   OH218068   6.315   1.499   2.764 -0.0503 -0.2326 -0.0388
 6021TIP3    H118069   6.313   1.403   2.762 -0.4131 -0.2192 -0.8043
 6021TIP3    H218070   6.296   1.521   2.856 -2.5300 -0.8702 -0.3063
 6022TIP3   OH218071   1.291   4.798   4.677 -0.1441  0.7953 -0.2813
 6022TIP3    H118072   1.369   4.826   4.628  0.3583  0.1928  0.1704
 6022TIP3    H218073   1.314   4.712   4.711 -2.0845 -0.7994 -2.6334
 6023TIP3   OH218074   1.857   4.435   0.121 -0.2263  0.0440  0.0680
 6023TIP3    H118075   1.809   4.404   0.197 -1.3632 -0.8289 -0.9711
 6023TIP3    H218076   1.870   4.529   0.137 -0.9307 -0.0188  1.0616
 6024TIP3   OH218077   4.211   0.418   1.964  0.2407  0.0575  0.5703
 6024TIP3    H118078   4.213   0.403   2.058  4.5386 -0.7069  0.5573
 6024TIP3    H218079   4.240   0.509   1.954 -3.6075  1.3995 -0.0855
 6025TIP3   OH218080   5.838   4.968   3.451  0.3215 -0.3197 -0.2967
 6025TIP3    H118081   5.834   4.962   3.356 -2.9976 -1.2879 -0.2197
 6025TIP3    H218082   5.816   4.880   3.482  0.1403  0.2674  1.3613
 6026TIP3   OH218083   1.738   4.993   3.042 -0.0421 -0.2294  0.3306
 6026TIP3    H118084   1.738   4.987   3.138 -0.2235  0.7044  0.3987
 6026TIP3    H218085   1.826   5.023   3.020  0.1234 -0.8261  0.1750
 6027TIP3   OH218086   2.474   4.236   1.068  0.2596  0.2663 -0.1569
 6027TIP3    H118087   2.515   4.209   1.151  2.5433  0.0504 -1.2721
 6027TIP3    H218088   2.472   4.331   1.073  2.5884  0.4145 -0.7307
 6028TIP3   OH218089   1.430   0.709   4.836  0.2701 -0.1207 -0.2065
 6028TIP3    H118090   1.501   0.708   4.900  1.4144 -1.7528 -1.4359
 6028TIP3    H218091   1.360   0.759   4.879  2.5048  2.5848  0.6297
 6029TIP3   OH218092   1.438   4.639   1.206 -0.1886 -0.2677  0.8909
 6029TIP3    H118093   1.501   4.678   1.145  0.1967  0.2294  1.5876
 6029TIP3    H218094   1.457   4.545   1.203 -0.0156 -0.2225  0.4234
 6030TIP3   OH218095   1.343   1.251   1.675  0.0885 -0.1351  0.6779
 6030TIP3    H118096   1.332   1.189   1.746  2.1902 -0.9734  0.3465
 6030TIP3    H218097   1.328   1.200   1.595 -0.4680  0.3553  0.4616
 6031TIP3   OH218098   6.030   2.565   4.108  0.2709 -0.0522  0.1771
 6031TIP3    H118099   5.986   2.483   4.088 -0.4530  0.4645 -0.3714
 6031TIP3    H218100   6.121   2.539   4.126  0.7960 -0.6873 -2.8819
 6032TIP3   OH218101   2.073   1.470   1.337 -0.0693 -0.1866  0.6275
 6032TIP3    H118102   2.138   1.534   1.308  0.1110 -0.1456  1.1130
 6032TIP3    H218103   2.024   1.515   1.405 -1.3938  0.1944 -0.5319
 6033TIP3   OH218104   2.202   1.727   2.424 -0.0243 -0.3336 -0.2330
 6033TIP3    H118105   2.255   1.740   2.345  1.6931 -0.5607  0.8401
 6033TIP3    H218106   2.147   1.805   2.428  2.4158  1.4941  0.2428
 6034TIP3   OH218107   4.312   2.131   4.711 -0.3202 -0.4712  0.0301
 6034TIP3    H118108   4.233   2.157   4.759 -0.8326 -2.8538  0.5852
 6034TIP3    H218109   4.284   2.056   4.658  1.2260 -0.3843 -0.9788
 6035TIP3   OH218110   2.123   5.075   1.582  0.2704  0.1785 -0.2333
 6035TIP3    H118111   2.165   5.154   1.616  1.3563  0.8365 -2.8546
 6035TIP3    H218112   2.182   5.003   1.605 -0.0331  0.2958  0.9657
 6036TIP3   OH218113   2.330   0.047   0.201  0.2436  0.9063  0.3312
 6036TIP3    H118114   2.290   0.071   0.284  0.2676 -0.6029  0.8097
 6036TIP3    H218115   2.367  -0.040   0.216  0.0571  0.4972 -1.3247
 6037TIP3   OH218116   3.985   4.780   3.473  0.7510  0.7231 -0.8192
 6037TIP3    H118117   3.992   4.747   3.383  1.3180  0.6650 -0.7554
 6037TIP3    H218118   3.958   4.871   3.463  1.0659  0.7920 -1.0606
 6038TIP3   OH218119   1.387   3.670   1.398  0.1953  0.3624 -0.8636
 6038TIP3    H118120   1.307   3.696   1.444  1.3429  1.2462  0.6945
 6038TIP3    H218121   1.392   3.730   1.324  0.6909  1.9924  0.4395
 6039TIP3   OH218122   3.604   2.101   0.070 -0.2349 -0.4921  0.1643
 6039TIP3    H118123   3.632   2.012   0.049  0.0876 -0.8788  2.0525
 6039TIP3    H218124   3.608   2.147  -0.014  0.4334 -2.0242 -0.7009
 6040TIP3   OH218125   0.766   2.791   4.418 -0.2607  0.0654 -0.5863
 6040TIP3    H118126   0.732   2.873   4.383  2.4878  1.5664 -0.0664
 6040TIP3    H218127   0.743   2.792   4.510  0.0192  0.4335 -0.5171
 6041TIP3   OH218128   3.265   4.548   4.809  0.5723  0.1954  0.2277
 6041TIP3    H118129   3.240   4.512   4.724  1.4968  0.6203 -0.2385
 6041TIP3    H218130   3.182   4.556   4.856  0.2378 -1.8073  0.0890
 6042TIP3   OH218131   5.182   0.258   2.650 -0.3536  0.4534 -0.3573
 6042TIP3    H118132   5.142   0.330   2.700 -2.0848 -1.5930  1.4158
 6042TIP3    H218133   5.276   0.267   2.666 -0.5285  2.1877 -0.0693
 6043TIP3   OH218134   5.896   5.844   4.667 -0.1744  0.4998 -0.7017
 6043TIP3    H118135   5.878   5.894   4.746 -0.1536 -0.9588  0.2636
 6043TIP3    H218136   5.846   5.763   4.678  2.9540 -1.5215 -0.2609
 6044TIP3   OH218137   2.284   4.733   4.884 -0.5223  0.3546  0.7875
 6044TIP3    H118138   2.234   4.815   4.879  0.4580  0.9614  0.4657
 6044TIP3    H218139   2.236   4.679   4.946 -2.1695  0.4739 -0.3190
 6045TIP3   OH218140   3.647   3.998   1.896  0.2224 -0.3426  0.0434
 6045TIP3    H118141   3.568   4.014   1.947 -0.6841 -1.0788 -1.0677
 6045TIP3    H218142   3.688   4.084   1.887 -1.1204  0.2727 -0.4094
 6046TIP3   OH218143   4.051   1.503   3.681 -0.3745  0.5301  0.3301
 6046TIP3    H118144   3.982   1.560   3.647 -1.0666 -0.1050  0.6365
 6046TIP3    H218145   4.108   1.486   3.606 -1.1119  0.2473 -0.1749
 6047TIP3   OH218146   5.157   4.541   3.182 -0.1187 -0.0569 -0.3312
 6047TIP3    H118147   5.211   4.472   3.220  1.0803  0.4294 -1.0956
 6047TIP3    H218148   5.158   4.524   3.088 -1.4199 -0.1050 -0.3540
 6048TIP3   OH218149   0.619   1.768   4.367 -0.5743 -0.2975 -0.3759
 6048TIP3    H118150   0.684   1.830   4.334 -1.2406  1.3803  1.2564
 6048TIP3    H218151   0.548   1.770   4.303 -1.2729  1.8918  0.3882
 6049TIP3   OH218152   1.759   4.089   0.152 -0.1089 -0.0566  0.7283
 6049TIP3    H118153   1.794   4.166   0.108  2.2790 -1.6572 -0.3685
 6049TIP3    H218154   1.793   4.095   0.242 -1.1543  0.8598  1.0868
 6050TIP3   OH218155   5.206   5.632   1.453  0.2424 -0.4607  0.3358
 6050TIP3    H118156   5.223   5.560   1.514  2.5438 -0.1541  0.1331
 6050TIP3    H218157   5.255   5.706   1.489  0.6959  0.0533 -1.2486
 6051TIP3   OH218158   2.311   5.493   4.263 -0.4406  0.8915 -0.5277
 6051TIP3    H118159   2.316   5.543   4.344  1.7632  2.0883 -1.3050
 6051TIP3    H218160   2.308   5.560   4.194  0.1599 -0.0742 -1.5181
 6052TIP3   OH218161   4.814   4.938   3.473 -0.6953  0.0458 -0.0252
 6052TIP3    H118162   4.875   4.930   3.399  0.0329 -0.1914  0.5804
 6052TIP3    H218163   4.747   4.871   3.457 -0.0271 -0.6487 -0.0065
 6053TIP3   OH218164   4.208   2.360   4.461  0.2608 -0.3509 -0.2538
 6053TIP3    H118165   4.287   2.342   4.411  0.4121  0.2405 -0.2331
 6053TIP3    H218166   4.232   2.340   4.552  0.3080 -0.4114 -0.2801
 6054TIP3   OH218167   4.388   5.317   2.177 -0.3978  0.3657 -0.5861
 6054TIP3    H118168   4.296   5.332   2.199 -1.4608 -0.4836 -3.8909
 6054TIP3    H218169   4.425   5.405   2.170 -2.0742  0.9669 -3.0699
 6055TIP3   OH218170   3.314   0.767   2.733 -0.0472  0.2817 -0.1566
 6055TIP3    H118171   3.301   0.857   2.701  0.3341  0.1691 -0.6361
 6055TIP3    H218172   3.397   0.770   2.779 -1.0966  0.7074  1.8369
 6056TIP3   OH218173   3.725   1.481   1.774 -0.3857  0.0894 -0.1761
 6056TIP3    H118174   3.789   1.493   1.845 -0.6572  0.7777 -0.0416
 6056TIP3    H218175   3.654   1.431   1.814  0.1489 -0.8600 -0.3811
 6057TIP3   OH218176   1.314   3.570   2.231  0.7098  0.5922  0.6425
 6057TIP3    H118177   1.366   3.636   2.277  0.7019  0.8359  0.3122
 6057TIP3    H218178   1.271   3.619   2.160  2.8263 -0.2276 -1.3314
 6058TIP3   OH218179   3.772   0.889   1.224 -0.9941  0.5105 -0.6627
 6058TIP3    H118180   3.770   0.930   1.310 -0.6467  0.2153 -0.5085
 6058TIP3    H218181   3.687   0.845   1.216 -0.5811 -0.4613  0.0387
 6059TIP3   OH218182   3.477   3.497   1.746 -0.3365  0.2169 -0.5934
 6059TIP3    H118183   3.538   3.502   1.820 -1.7704  0.7690  0.5868
 6059TIP3    H218184   3.413   3.565   1.763 -0.1454  1.0533 -2.9121
 6060TIP3   OH218185   0.217   4.702   3.436  0.2122  0.5640 -0.4821
 6060TIP3    H118186   0.234   4.792   3.463  0.5265 -0.4395  3.1559
 6060TIP3    H218187   0.122   4.693   3.441  0.3136  0.1005  1.7418
 6061TIP3   OH218188   4.512   4.118   0.762 -0.5601  0.1817  0.4015
 6061TIP3    H118189   4.569   4.183   0.803 -1.1406  2.0240 -1.5746
 6061TIP3    H218190   4.435   4.115   0.819 -0.3630  0.9456  0.7235
 6062TIP3   OH218191   4.965   5.317   0.402 -0.0287 -0.6434 -0.4742
 6062TIP3    H118192   5.006   5.233   0.383 -0.3442 -0.9774  0.2940
 6062TIP3    H218193   4.871   5.297   0.406  0.0183 -0.6680  1.7075
 6063TIP3   OH218194   6.317   2.998   0.217  0.2037  0.0445  0.1210
 6063TIP3    H118195   6.282   2.929   0.162  0.3228  0.2608 -0.2326
 6063TIP3    H218196   6.401   2.964   0.247  0.1906 -0.0282  0.0766
 6064TIP3   OH218197   5.861   4.202   2.603 -0.0929  0.2971 -0.1654
 6064TIP3    H118198   5.771   4.221   2.631  0.0147  1.5060 -0.5849
 6064TIP3    H218199   5.856   4.114   2.566 -1.2574  0.5928 -0.7830
 6065TIP3   OH218200   1.190   4.569   0.550  0.0014 -0.1020 -0.0776
 6065TIP3    H118201   1.146   4.627   0.612 -0.0359 -1.1011  0.8608
 6065TIP3    H218202   1.214   4.492   0.602 -0.2508 -1.0838 -1.3667
 6066TIP3   OH218203   2.648   3.037   4.656 -0.4596  0.2182 -0.1433
 6066TIP3    H118204   2.643   2.991   4.740 -1.2417  0.8242  0.1466
 6066TIP3    H218205   2.670   2.968   4.592 -1.9475 -0.6400  0.2257
 6067TIP3   OH218206   0.318   4.236   4.913  0.1724  0.4728  0.3591
 6067TIP3    H118207   0.295   4.161   4.968 -0.4634 -0.8230 -1.5878
 6067TIP3    H218208   0.241   4.293   4.917  0.6433  1.0771  1.8135
 6068TIP3   OH218209   1.913   0.864   4.097 -0.2263  0.4981  0.0306
 6068TIP3    H118210   1.863   0.802   4.151  0.3921  1.3669  1.6918
 6068TIP3    H218211   2.003   0.853   4.126 -0.0484  1.8824  0.0953
 6069TIP3   OH218212   3.669   3.603   1.502  0.9616  0.1831  0.0575
 6069TIP3    H118213   3.701   3.521   1.539  3.0893  1.2377  0.6863
 6069TIP3    H218214   3.593   3.625   1.556  0.8051 -0.9894  0.3448
 6070TIP3   OH218215   2.698   1.793   4.995 -0.0736 -0.2307  0.4416
 6070TIP3    H118216   2.781   1.828   4.962 -0.3828  0.7292  0.6470
 6070TIP3    H218217   2.631   1.851   4.959 -0.5458 -0.1616  1.3893
 6071TIP3   OH218218   1.403   3.655   2.522 -0.5516  0.1431  0.6021
 6071TIP3    H118219   1.418   3.723   2.587  0.0727  0.0026  0.6058
 6071TIP3    H218220   1.344   3.593   2.565  1.7760 -1.2289  1.9547
 6072TIP3   OH218221   1.205   3.444   4.107 -0.5599  0.0509 -0.3483
 6072TIP3    H118222   1.148   3.369   4.125 -0.7468  0.6204  1.7529
 6072TIP3    H218223   1.292   3.406   4.094 -1.1262 -0.7134 -2.1055
 6073TIP3   OH218224   5.551   5.078   3.437  0.2644 -0.1474 -0.2009
 6073TIP3    H118225   5.578   5.098   3.348  0.8589 -0.2769 -0.0578
 6073TIP3    H218226   5.630   5.091   3.489 -0.4733  1.5170  0.5569
 6074TIP3   OH218227   5.925   2.286   0.999  0.1838 -0.3050  0.2843
 6074TIP3    H118228   5.897   2.288   1.090  1.3557 -1.7002  0.6978
 6074TIP3    H218229   5.914   2.377   0.969 -1.6822 -0.1375  1.3196
 6075TIP3   OH218230   4.392   1.987   0.281 -0.4787  0.4533 -0.5147
 6075TIP3    H118231   4.462   1.986   0.345  1.1869 -1.2709 -2.2278
 6075TIP3    H218232   4.312   1.990   0.333  0.7844 -0.9358  1.6570
 6076TIP3   OH218233   2.624   5.195   4.188  0.0045  0.0297 -0.5636
 6076TIP3    H118234   2.628   5.104   4.157  1.7831  0.3203 -1.2916
 6076TIP3    H218235   2.708   5.209   4.232 -1.7129  0.1771  3.0412
 6077TIP3   OH218236   2.532   0.362   5.013  0.1231  0.0613 -0.5232
 6077TIP3    H118237   2.600   0.379   5.079  0.9447 -1.5068 -0.9313
 6077TIP3    H218238   2.580   0.338   4.935 -0.8988 -1.0983 -0.8233
 6078TIP3   OH218239   4.708   4.447   3.242 -0.2190  0.2582  0.3888
 6078TIP3    H118240   4.642   4.440   3.312 -1.4549  1.8077 -0.5336
 6078TIP3    H218241   4.660   4.485   3.169  1.4347  0.2075 -0.7656
 6079TIP3   OH218242   2.934   0.503   1.655 -0.1865  1.0782  0.2436
 6079TIP3    H118243   2.899   0.499   1.567  0.0879 -0.6463  0.1817
 6079TIP3    H218244   3.024   0.534   1.644  0.2989 -0.4582 -0.2425
 6080TIP3   OH218245   5.085   5.908   1.297  0.0421 -0.3346  0.1736
 6080TIP3    H118246   5.027   5.838   1.268  1.8132 -1.3432 -1.2015
 6080TIP3    H218247   5.037   5.989   1.278 -0.0120 -1.0063 -3.4168
 6081TIP3   OH218248   3.747   2.811   0.317  0.6105 -0.4060  0.1846
 6081TIP3    H118249   3.705   2.891   0.287  3.3109  0.8654 -0.4675
 6081TIP3    H218250   3.773   2.766   0.237 -0.0201 -1.4756  0.5598
 6082TIP3   OH218251   3.623   3.012   0.022 -0.8337 -0.4938  0.2268
 6082TIP3    H118252   3.531   3.023  -0.002 -0.7705 -1.6858 -0.6781
 6082TIP3    H218253   3.631   2.919   0.043  0.1189 -0.3601  0.5179
 6083TIP3   OH218254   2.865   5.039   3.719  0.1202  0.2308 -0.2022
 6083TIP3    H118255   2.917   5.082   3.787  0.4777 -0.7920  0.1962
 6083TIP3    H218256   2.806   5.107   3.687 -0.7674  0.4832  1.8443
 6084TIP3   OH218257   2.995   5.855   3.406 -0.1107 -0.3672 -0.2489
 6084TIP3    H118258   3.060   5.815   3.348  0.0831 -0.3885 -0.0195
 6084TIP3    H218259   2.916   5.863   3.352  0.4456  0.8268 -0.9307
 6085TIP3   OH218260   4.132   1.485   3.420 -0.2906 -0.1672 -0.3140
 6085TIP3    H118261   4.154   1.569   3.380 -1.3543  1.1318  1.7106
 6085TIP3    H218262   4.215   1.437   3.423  0.9187  1.9139  1.0185
 6086TIP3   OH218263   0.902   5.228   2.104 -0.3485 -0.0250 -0.4862
 6086TIP3    H118264   0.883   5.281   2.181  1.3858  0.1199 -0.1331
 6086TIP3    H218265   0.828   5.167   2.099 -0.7896  0.3510  0.9262
 6087TIP3   OH218266   0.139   0.164   2.228  0.6912  0.1657  0.2194
 6087TIP3    H118267   0.139   0.258   2.243 -0.4496  0.6180 -2.1781
 6087TIP3    H218268   0.055   0.146   2.185  1.8094 -1.5387 -1.4521
 6088TIP3   OH218269   4.433   5.429   2.681  0.1419  0.0200  0.0753
 6088TIP3    H118270   4.376   5.505   2.683  1.1766  0.8248 -0.2822
 6088TIP3    H218271   4.475   5.427   2.767 -1.0241 -1.0721  0.6572
 6089TIP3   OH218272   4.791   0.278   4.735 -0.4941  0.6037 -0.5026
 6089TIP3    H118273   4.871   0.285   4.788 -1.1674  0.5075  0.5525
 6089TIP3    H218274   4.722   0.313   4.791 -1.1573  0.9571 -1.5150
 6090TIP3   OH218275   4.390   0.483   4.268  0.4770 -0.3182 -0.0184
 6090TIP3    H118276   4.342   0.481   4.185  0.7948 -0.2531 -0.2063
 6090TIP3    H218277   4.440   0.565   4.266  1.4371 -0.8852 -0.3142
 6091TIP3   OH218278   3.634   3.646   2.515 -0.2792  0.1149 -0.0579
 6091TIP3    H118279   3.688   3.711   2.471 -0.7228  0.6053  0.1154
 6091TIP3    H218280   3.694   3.603   2.576  0.3728 -0.6521 -1.1961
 6092TIP3   OH218281   4.485   2.342   4.646 -0.4794 -0.2215 -0.4883
 6092TIP3    H118282   4.424   2.272   4.666  0.4067 -0.2751  2.7259
 6092TIP3    H218283   4.568   2.313   4.684  0.6363  1.3790 -1.5414
 6093TIP3   OH218284   4.202   4.579   2.765 -0.4968 -0.4436 -0.3532
 6093TIP3    H118285   4.152   4.498   2.755 -0.1193 -0.7433  0.1538
 6093TIP3    H218286   4.292   4.550   2.782 -0.7234  0.0078  1.9843
 6094TIP3   OH218287   2.735   3.958   4.759  0.4956  0.6856  0.6293
 6094TIP3    H118288   2.643   3.980   4.774  0.2553 -0.1405  0.3852
 6094TIP3    H218289   2.778   4.043   4.753 -0.7436  1.2536 -2.2808
 6095TIP3   OH218290   2.003   2.110   1.317 -0.5768 -0.9444 -0.1251
 6095TIP3    H118291   1.955   2.079   1.393 -1.5496 -0.7272 -0.6371
 6095TIP3    H218292   1.939   2.159   1.266  0.2872 -0.3095 -0.6305
 6096TIP3   OH218293   6.002   1.466   0.465 -0.5203  0.0746  0.7066
 6096TIP3    H118294   6.087   1.487   0.428 -0.2083 -0.2257  1.2471
 6096TIP3    H218295   5.939   1.512   0.409  0.0111  0.5202  0.4750
 6097TIP3   OH218296   1.883   1.106   4.010 -0.0640  0.0417  0.1602
 6097TIP3    H118297   1.970   1.145   4.013 -0.0530  0.2001 -1.3776
 6097TIP3    H218298   1.897   1.013   4.026  0.4798 -0.0355 -0.6848
 6098TIP3   OH218299   0.535   5.835   1.055  0.7216 -0.0742 -0.3733
 6098TIP3    H118300   0.465   5.791   1.006 -0.6989 -0.1773  1.6630
 6098TIP3    H218301   0.546   5.919   1.010 -1.1211  0.1883 -0.3938
 6099TIP3   OH218302   3.137   5.550   1.223 -0.0873  0.4780  0.0173
 6099TIP3    H118303   3.062   5.602   1.253  0.5778  1.2555  0.3804
 6099TIP3    H218304   3.213   5.606   1.241  0.5178  0.0001 -1.0159
 6100TIP3   OH218305   0.399   5.983   3.997 -0.5486  0.0689  0.8525
 6100TIP3    H118306   0.326   6.044   4.001 -0.7603 -0.1743  0.7005
 6100TIP3    H218307   0.378   5.915   4.061 -0.3555  0.1084  0.9598
 6101TIP3   OH218308   0.998   3.703   0.110 -0.9243  0.5757 -0.1506
 6101TIP3    H118309   1.052   3.626   0.088 -1.8733 -0.1679  0.0395
 6101TIP3    H218310   0.912   3.682   0.074 -1.2912  1.4103  0.2200
 6102TIP3   OH218311   4.477   3.186   2.205 -0.2221  0.4678 -0.4038
 6102TIP3    H118312   4.506   3.170   2.295 -0.0014 -0.1292 -0.5726
 6102TIP3    H218313   4.423   3.110   2.184  0.1355  0.3608 -0.9418
 6103TIP3   OH218314   0.487   4.511   4.648 -0.1500 -0.0445  0.4469
 6103TIP3    H118315   0.556   4.536   4.586  0.3033 -2.0195  0.0782
 6103TIP3    H218316   0.411   4.493   4.592 -0.5808  0.8457  0.7348
 6104TIP3   OH218317   0.910   5.776   4.557  0.2106  0.1380  0.1482
 6104TIP3    H118318   0.979   5.715   4.584 -0.5803  0.1514  2.3840
 6104TIP3    H218319   0.923   5.786   4.462  1.8169 -1.6487  0.1143
 6105TIP3   OH218320   2.040   1.422   3.932 -0.2847 -0.0536  0.0018
 6105TIP3    H118321   2.102   1.426   3.858  1.5580  0.2383  1.4721
 6105TIP3    H218322   2.008   1.511   3.942 -1.0465 -0.2246 -0.8301
 6106TIP3   OH218323   6.133   3.901   1.986  0.6299 -0.3117 -0.3789
 6106TIP3    H118324   6.063   3.862   2.038  0.6045 -0.2526 -0.3685
 6106TIP3    H218325   6.171   3.827   1.938 -0.1002 -0.2033 -1.1683
 6107TIP3   OH218326   4.057   1.938   1.764 -0.1847 -0.2265  0.3595
 6107TIP3    H118327   3.984   1.992   1.794  0.2404  0.4583  0.1813
 6107TIP3    H218328   4.122   1.944   1.835  0.2134  0.1983 -0.0336
 6108TIP3   OH218329   1.676   4.157   2.607 -0.6982 -0.4993  0.4131
 6108TIP3    H118330   1.694   4.071   2.646  0.9638  0.0506  0.8977
 6108TIP3    H218331   1.606   4.193   2.660  0.1034 -0.6430  1.5922
 6109TIP3   OH218332   5.150   3.316   3.139 -0.3090  0.1469  0.1106
 6109TIP3    H118333   5.219   3.380   3.120  0.9112 -1.4188 -1.0356
 6109TIP3    H218334   5.091   3.321   3.064  0.0227 -0.3270 -0.1929
 6110TIP3   OH218335   4.683   0.398   4.145  0.5511  0.1690 -0.1852
 6110TIP3    H118336   4.689   0.464   4.214 -2.8136  0.2958  0.1743
 6110TIP3    H218337   4.606   0.346   4.168  1.0907 -1.7231 -2.2735
 6111TIP3   OH218338   2.458   3.334   2.292 -0.0239  0.2515  0.2787
 6111TIP3    H118339   2.504   3.352   2.373 -0.0886  0.9103  0.1738
 6111TIP3    H218340   2.442   3.240   2.293  0.3219  0.2005  0.8427
 6112TIP3   OH218341   1.393   3.768   3.201  0.4120  0.0168  0.3593
 6112TIP3    H118342   1.337   3.738   3.273 -1.7131 -0.5219 -1.4375
 6112TIP3    H218343   1.356   3.728   3.123  4.6875 -2.2612 -0.8067
 6113TIP3   OH218344   4.679   5.910  -0.012  0.4764  0.1943  0.6343
 6113TIP3    H118345   4.696   5.996   0.027  1.4780 -0.2265  1.1614
 6113TIP3    H218346   4.699   5.848   0.059 -0.2725 -0.4749  0.2748
 6114TIP3   OH218347   0.058   4.388   4.636  0.0794 -0.2708  0.3469
 6114TIP3    H118348  -0.035   4.378   4.618 -0.0383 -1.2731  1.4475
 6114TIP3    H218349   0.065   4.474   4.678 -0.4315 -0.4273  0.7631
 6115TIP3   OH218350   1.019   1.774   4.012 -0.4935  0.1471 -0.4170
 6115TIP3    H118351   0.973   1.729   4.083 -0.6934 -0.6532 -1.0385
 6115TIP3    H218352   0.950   1.806   3.955 -0.3620  1.5370  0.1717
 6116TIP3   OH218353   2.302   3.451   2.892 -0.0482 -0.2494 -0.2484
 6116TIP3    H118354   2.222   3.503   2.906 -1.9317 -2.1510 -2.8222
 6116TIP3    H218355   2.312   3.450   2.796  1.1166 -2.8500 -0.1608
 6117TIP3   OH218356   3.733   2.489   1.078 -0.3581  0.4490  0.4395
 6117TIP3    H118357   3.761   2.412   1.028  1.4068  1.9427 -1.0280
 6117TIP3    H218358   3.811   2.544   1.083 -1.5894  2.2320  1.2862
 6118TIP3   OH218359   5.756   3.243   0.344 -0.1074 -0.7589  0.0194
 6118TIP3    H118360   5.845   3.268   0.321 -0.1582  0.8147  1.3418
 6118TIP3    H218361   5.764   3.192   0.424 -0.3448 -1.2383 -0.2584
 6119TIP3   OH218362   1.783   5.270   3.165  0.3321 -0.2793  0.7693
 6119TIP3    H118363   1.748   5.266   3.077 -2.9403 -1.1006  1.9573
 6119TIP3    H218364   1.866   5.224   3.160  1.0332  1.0827 -2.1281
 6120TIP3   OH218365   3.815   5.042   2.259 -0.1370  0.0206 -0.0880
 6120TIP3    H118366   3.849   5.088   2.336 -0.4682 -0.0824  0.1277
 6120TIP3    H218367   3.752   4.980   2.296  0.1340 -0.4410 -0.3949
 6121TIP3   OH218368   3.164   3.876   2.638 -0.3761  0.2297  0.4633
 6121TIP3    H118369   3.260   3.872   2.633 -0.4372 -2.1914 -3.8270
 6121TIP3    H218370   3.143   3.964   2.608  0.4352  0.8751  1.6767
 6122TIP3   OH218371   5.592   2.166   3.294  0.3863  0.2294  0.3196
 6122TIP3    H118372   5.583   2.258   3.268 -0.9659  0.5810  1.8663
 6122TIP3    H218373   5.676   2.139   3.257  0.6224  1.9607 -0.5189
 6123TIP3   OH218374   2.275   1.709   4.327 -0.0862 -0.1668 -0.4600
 6123TIP3    H118375   2.286   1.788   4.380  1.6304 -0.3667 -0.4526
 6123TIP3    H218376   2.239   1.644   4.388 -0.3185  0.2584 -0.1410
 6124TIP3   OH218377   5.920   2.538   0.090  0.0671 -0.4088  0.0899
 6124TIP3    H118378   5.950   2.623   0.122  0.2416 -0.3348 -0.2667
 6124TIP3    H218379   5.829   2.553   0.062  0.5596  0.0350 -1.3697
 6125TIP3   OH218380   4.265   3.246   4.076 -0.4995  0.3149  0.3417
 6125TIP3    H118381   4.323   3.171   4.086  0.3739  0.6790 -1.6865
 6125TIP3    H218382   4.230   3.260   4.164  1.9781 -0.3176  1.5166
 6126TIP3   OH218383   1.687   4.912   1.432 -0.4145 -0.3678  0.4458
 6126TIP3    H118384   1.727   4.992   1.468  0.1069 -1.1349  1.6477
 6126TIP3    H218385   1.753   4.876   1.374 -1.0047  0.5302 -0.8296
 6127TIP3   OH218386   1.038   5.981   1.253 -0.1727 -0.8218 -0.2128
 6127TIP3    H118387   1.021   5.895   1.290 -0.3851 -0.6105  0.1887
 6127TIP3    H218388   1.058   5.964   1.161 -0.2504 -1.2936 -0.1456
 6128TIP3   OH218389   5.959   5.269   2.218 -0.1214 -0.1803 -0.1300
 6128TIP3    H118390   5.877   5.225   2.238 -0.9221  1.1389 -0.3747
 6128TIP3    H218391   5.935   5.339   2.157  0.8445  1.4753  1.2789
 6129TIP3   OH218392   0.541   3.361   3.296 -0.1555 -0.0835  0.0406
 6129TIP3    H118393   0.570   3.305   3.368 -0.2513  0.4552  0.5035
 6129TIP3    H218394   0.452   3.385   3.319 -1.7172 -3.0743 -2.1696
 6130TIP3   OH218395   4.062   5.883   4.737  0.0027 -0.1086 -0.1769
 6130TIP3    H118396   4.042   5.976   4.728 -0.3931 -0.2660 -1.0047
 6130TIP3    H218397   3.980   5.843   4.763 -0.2769 -0.4590 -1.5244
 6131TIP3   OH218398   3.131   3.761   3.667  0.1702 -0.3980 -0.5197
 6131TIP3    H118399   3.207   3.708   3.640 -0.7505 -1.7777 -0.5295
 6131TIP3    H218400   3.075   3.699   3.714 -1.3478  0.3607 -1.2549
 6132TIP3   OH218401   2.255   0.759   5.135 -0.0841 -0.6254  0.2300
 6132TIP3    H118402   2.187   0.823   5.112  0.3769 -0.1706  0.1126
 6132TIP3    H218403   2.237   0.684   5.077 -2.0566 -1.6001  1.9750
 6133TIP3   OH218404   0.954   4.462   2.071 -0.8732  0.7326  0.5769
 6133TIP3    H118405   0.983   4.552   2.056  1.4810 -0.1111 -0.5266
 6133TIP3    H218406   0.942   4.426   1.983  0.2679 -0.5935  0.9312
 6134TIP3   OH218407   0.721   2.656   0.592  0.3498  0.1667 -0.1418
 6134TIP3    H118408   0.776   2.584   0.561 -0.1141 -0.2150 -0.0864
 6134TIP3    H218409   0.632   2.622   0.587  0.2155  0.3169  1.0269
 6135TIP3   OH218410   3.480   3.591   4.302 -0.2277  0.0705 -0.2826
 6135TIP3    H118411   3.448   3.530   4.235  1.1142 -0.4590 -0.4885
 6135TIP3    H218412   3.454   3.677   4.271  1.2635 -0.0574 -2.0791
 6136TIP3   OH218413   5.351   5.616   4.391  0.2268 -0.5009 -0.0898
 6136TIP3    H118414   5.395   5.547   4.441  3.0170  0.4379 -1.1062
 6136TIP3    H218415   5.370   5.596   4.299  0.7291  1.3166 -0.4288
 6137TIP3   OH218416   4.922   3.031   3.169  0.0104  0.1053  0.4724
 6137TIP3    H118417   4.926   3.061   3.078  1.4807  2.0702  1.1408
 6137TIP3    H218418   4.995   2.970   3.177 -0.5027 -0.5643  0.2039
 6138TIP3   OH218419   5.204   0.538   0.364 -0.7777  0.0018  0.6726
 6138TIP3    H118420   5.126   0.539   0.308 -1.3138 -1.1725  1.3559
 6138TIP3    H218421   5.257   0.467   0.330  0.7628  1.7050 -0.7126
 6139TIP3   OH218422   5.860   5.383   0.775  0.0525 -0.3573  0.3062
 6139TIP3    H118423   5.829   5.423   0.856  0.5360 -1.3510  0.9911
 6139TIP3    H218424   5.793   5.407   0.710 -0.5940  0.0367  1.0968
 6140TIP3   OH218425   2.762   1.475   2.179  0.1099  0.2391 -0.6408
 6140TIP3    H118426   2.846   1.434   2.156  0.0003 -0.3472 -0.0317
 6140TIP3    H218427   2.784   1.536   2.249 -0.0043 -0.1043 -0.3004
 6141TIP3   OH218428   4.720   2.172   1.126 -0.5596  0.6666  0.2921
 6141TIP3    H118429   4.749   2.081   1.127 -2.3143  0.0127 -1.4092
 6141TIP3    H218430   4.762   2.210   1.049 -0.2517  1.1452  0.6937
 6142TIP3   OH218431   4.659   1.195   4.861  0.6055  0.0250 -0.4773
 6142TIP3    H118432   4.699   1.254   4.925  0.2090 -2.7103  2.4899
 6142TIP3    H218433   4.586   1.154   4.907 -0.4026 -1.3517 -3.0665
 6143TIP3   OH218434   3.611   4.507   4.986 -0.1121  0.3741 -0.1371
 6143TIP3    H118435   3.517   4.516   5.001 -0.1971  1.4656 -1.1999
 6143TIP3    H218436   3.626   4.412   4.984 -1.3048  0.1828 -0.6586
 6144TIP3   OH218437   3.657   2.364   1.431 -0.0134  0.6929 -0.6117
 6144TIP3    H118438   3.689   2.350   1.520  0.6384 -0.2371 -0.9824
 6144TIP3    H218439   3.729   2.338   1.374 -1.2296 -1.0350 -1.4655
 6145TIP3   OH218440   5.563   5.788  -0.008  0.4572  0.0026  0.2227
 6145TIP3    H118441   5.572   5.693  -0.004 -2.1067 -0.3016  0.8822
 6145TIP3    H218442   5.601   5.820   0.073 -1.0599 -0.7757  1.2934
 6146TIP3   OH218443   0.776   4.107   1.791 -0.1764 -0.0748  0.6374
 6146TIP3    H118444   0.712   4.169   1.757  0.8409  1.0712  0.7499
 6146TIP3    H218445   0.838   4.161   1.840 -0.0244 -1.3450  1.9255
 6147TIP3   OH218446   4.861   2.676   4.925 -0.0786 -0.1490 -0.2551
 6147TIP3    H118447   4.882   2.591   4.962  1.0741 -0.0133 -0.5804
 6147TIP3    H218448   4.884   2.739   4.993  1.0027  0.0285 -0.7795
 6148TIP3   OH218449   1.695   4.539   2.123  0.1513  0.2995 -0.2802
 6148TIP3    H118450   1.629   4.472   2.107  0.0169  0.8455 -2.2737
 6148TIP3    H218451   1.656   4.620   2.092  0.2547  1.4161  2.2283
 6149TIP3   OH218452   4.846   5.097   1.318  1.0071  0.4162  0.1072
 6149TIP3    H118453   4.834   5.159   1.246  1.1011 -0.7238 -0.9347
 6149TIP3    H218454   4.941   5.094   1.332  1.3126 -1.5233 -1.7890
 6150TIP3   OH218455   3.307   1.127   2.953  0.2006  0.6315  0.3292
 6150TIP3    H118456   3.371   1.196   2.965  0.6877  0.3001 -0.3041
 6150TIP3    H218457   3.231   1.155   3.004  0.4600  1.5307  0.2336
 6151TIP3   OH218458   1.132   3.429   3.731  0.1198  0.2297 -0.1592
 6151TIP3    H118459   1.226   3.442   3.719  0.2145  1.0676  1.1919
 6151TIP3    H218460   1.125   3.346   3.777  0.1895  0.0853 -0.4109
 6152TIP3   OH218461   1.943   3.198   4.494  0.0722  0.1948  0.1954
 6152TIP3    H118462   1.924   3.117   4.447 -1.9009  0.4635  0.4365
 6152TIP3    H218463   1.947   3.265   4.426  1.3285 -0.0314  0.0335
 6153TIP3   OH218464   5.407   2.603   0.605  0.2091  0.4105 -0.0332
 6153TIP3    H118465   5.484   2.591   0.662 -0.0281  0.3326  0.2756
 6153TIP3    H218466   5.431   2.559   0.524 -1.1570 -3.6967  1.5065
 6154TIP3   OH218467   2.038   1.151   2.345  0.1595 -0.4270  0.0079
 6154TIP3    H118468   2.077   1.079   2.394  0.4229 -1.1695 -1.2451
 6154TIP3    H218469   2.070   1.230   2.389 -0.1398 -1.0612  1.4078
 6155TIP3   OH218470   5.555   5.515   0.105 -0.4598 -0.1464 -0.3495
 6155TIP3    H118471   5.495   5.453   0.063  0.1163 -0.0376 -1.3546
 6155TIP3    H218472   5.638   5.468   0.111 -0.5047 -0.1197  0.5825
 6156TIP3   OH218473   3.404   1.662   3.005  0.6555  0.1339 -0.0555
 6156TIP3    H118474   3.449   1.579   2.986  1.0644  0.2845  0.2451
 6156TIP3    H218475   3.411   1.712   2.924 -1.2829 -0.8663 -0.9161
 6157TIP3   OH218476   4.238   1.969   1.967  0.3084 -0.1627 -0.3433
 6157TIP3    H118477   4.269   1.925   2.045  0.5570 -0.2549 -0.4916
 6157TIP3    H218478   4.317   2.009   1.929  0.5343 -1.5928 -1.5004
 6158TIP3   OH218479   3.732   3.520   5.112 -0.4663 -0.5420 -0.6876
 6158TIP3    H118480   3.680   3.557   5.041 -0.2325  0.1500 -0.5123
 6158TIP3    H218481   3.670   3.510   5.184  0.1299  3.3335  0.6458
 6159TIP3   OH218482   3.932   3.295   0.614 -0.5490  0.0319  0.4286
 6159TIP3    H118483   3.857   3.267   0.666 -0.1916 -0.3432  0.7574
 6159TIP3    H218484   3.904   3.375   0.572 -1.1763 -0.1680  0.4541
 6160TIP3   OH218485   0.265   5.884   3.691 -0.6107  0.0405  0.8127
 6160TIP3    H118486   0.276   5.937   3.770 -0.5990 -1.5975  1.9595
 6160TIP3    H218487   0.352   5.848   3.673 -0.9600 -1.0375  1.1554
 6161TIP3   OH218488   1.404   1.599   2.887  0.1727  0.4128 -0.6231
 6161TIP3    H118489   1.457   1.535   2.933 -1.9375 -0.9629  0.0466
 6161TIP3    H218490   1.409   1.678   2.942  0.8938  0.0748 -0.1900
 6162TIP3   OH218491   1.064   0.588   3.234  0.0241 -0.2009 -0.6680
 6162TIP3    H118492   1.053   0.682   3.222  1.6307  0.1005 -0.0166
 6162TIP3    H218493   1.054   0.575   3.329  0.3576 -0.6051 -0.6879
 6163TIP3   OH218494   5.190   3.764   1.561 -0.6552 -0.5299  0.0944
 6163TIP3    H118495   5.114   3.734   1.609 -0.0609 -0.6548  0.9785
 6163TIP3    H218496   5.154   3.809   1.484 -1.6418  0.4393  1.0975
 6164TIP3   OH218497   4.847   3.472   4.247 -0.3470  0.2647 -0.0281
 6164TIP3    H118498   4.758   3.491   4.276 -1.0208 -1.7502 -0.5998
 6164TIP3    H218499   4.872   3.392   4.293 -0.1275 -1.0430 -2.2338
 6165TIP3   OH218500   3.807   4.991   3.449  0.0169  0.0782 -0.3201
 6165TIP3    H118501   3.795   4.952   3.362 -1.4367  0.1682 -0.1723
 6165TIP3    H218502   3.747   4.944   3.506 -0.2011  1.0838  0.3089
 6166TIP3   OH218503   4.893   1.409   0.672 -0.0881  0.2045 -0.5956
 6166TIP3    H118504   4.843   1.488   0.651 -1.3665 -0.4267 -0.0271
 6166TIP3    H218505   4.898   1.408   0.768 -0.5027 -0.6323 -0.5685
 6167TIP3   OH218506   0.133   3.008   2.000 -0.2162 -0.3966  0.0601
 6167TIP3    H118507   0.122   2.920   2.036  0.2971 -0.0506  1.1051
 6167TIP3    H218508   0.102   3.001   1.909 -1.7410 -1.2510  0.6059
 6168TIP3   OH218509   2.579   3.325   2.587 -0.0432 -0.4502  0.7838
 6168TIP3    H118510   2.629   3.272   2.525 -1.7171 -1.0344 -0.0991
 6168TIP3    H218511   2.645   3.384   2.625  1.2650 -0.9896 -0.5349
 6169TIP3   OH218512   0.434   3.183   2.218 -0.4475  0.7556 -0.4050
 6169TIP3    H118513   0.433   3.230   2.134 -3.3675  0.1102 -0.8058
 6169TIP3    H218514   0.456   3.093   2.195  0.3122  0.8830 -0.2296
 6170TIP3   OH218515   1.329   5.814   4.487 -0.2159 -0.1145  0.0463
 6170TIP3    H118516   1.267   5.773   4.548 -0.9955  0.1446 -0.5591
 6170TIP3    H218517   1.289   5.804   4.401 -0.4324  1.9069 -0.1220
 6171TIP3   OH218518   5.646   0.962   1.108  0.0509  0.3498  0.0934
 6171TIP3    H118519   5.574   0.919   1.062  0.3676  1.7021 -1.8248
 6171TIP3    H218520   5.610   1.047   1.134  0.2708  0.1048  1.2301
 6172TIP3   OH218521   4.130   4.057   3.480 -0.3332 -0.1425 -0.0009
 6172TIP3    H118522   4.220   4.070   3.508 -0.2115 -1.6770  0.4690
 6172TIP3    H218523   4.079   4.064   3.561 -0.7867  1.6503 -0.3968
 6173TIP3   OH218524   1.947   0.389   2.778  0.0764 -0.1993 -0.5172
 6173TIP3    H118525   1.873   0.372   2.837 -0.7721  0.7140 -1.2956
 6173TIP3    H218526   1.916   0.361   2.692  0.5927  0.3008 -0.8697
 6174TIP3   OH218527   0.835   1.006   1.156 -0.2919  0.3643  0.1883
 6174TIP3    H118528   0.861   0.921   1.121 -1.4869  1.1562 -2.9548
 6174TIP3    H218529   0.791   0.986   1.238  1.8242 -1.7438  0.9327
 6175TIP3   OH218530   0.992   5.313   2.671  0.0557  0.1120  0.4559
 6175TIP3    H118531   0.934   5.309   2.747 -1.2722 -1.5173 -0.5923
 6175TIP3    H218532   1.001   5.222   2.642  0.4518  0.7014 -1.4064
 6176TIP3   OH218533   0.915   0.738   2.009  0.2051 -0.1792 -0.2917
 6176TIP3    H118534   0.834   0.788   2.011  1.0231  1.1800 -0.0216
 6176TIP3    H218535   0.907   0.678   2.083 -0.8081 -0.5021 -0.6451
 6177TIP3   OH218536   0.669   3.422   3.074  0.2060 -0.0048  0.1512
 6177TIP3    H118537   0.637   3.416   3.164  0.9880  0.2706  0.4573
 6177TIP3    H218538   0.590   3.422   3.020 -0.3286  1.0106  0.9017
 6178TIP3   OH218539   0.408   2.667   2.433 -0.1439  0.1313 -0.0963
 6178TIP3    H118540   0.501   2.663   2.409  0.3662  2.3529  1.1702
 6178TIP3    H218541   0.361   2.661   2.349  1.0182 -2.3241 -0.6569
 6179TIP3   OH218542   2.384   1.081   2.253  0.3250 -0.1659 -0.4781
 6179TIP3    H118543   2.424   1.005   2.295  0.5836 -0.7528 -1.7293
 6179TIP3    H218544   2.402   1.154   2.312  0.1827 -1.0474  0.6800
 6180TIP3   OH218545   0.453   2.938   2.082 -0.3505  0.3773 -0.2777
 6180TIP3    H118546   0.510   2.921   2.007  0.1158  1.1255 -0.1167
 6180TIP3    H218547   0.368   2.957   2.044 -0.5246 -0.8277 -0.5221
 6181TIP3   OH218548   0.613   3.866   3.696 -0.1750 -0.0857  0.4699
 6181TIP3    H118549   0.589   3.779   3.665 -0.0202  0.5403 -1.5800
 6181TIP3    H218550   0.644   3.852   3.785 -0.8683 -2.0104  0.4564
 6182TIP3   OH218551   3.577   5.623   4.024  0.8075  0.0272 -0.2382
 6182TIP3    H118552   3.564   5.716   4.006  1.6129  0.2027  0.0232
 6182TIP3    H218553   3.661   5.603   3.984  0.0534 -0.9040 -1.3922
 6183TIP3   OH218554   3.317   3.753   1.740  0.0356  0.2266  0.1854
 6183TIP3    H118555   3.359   3.779   1.658  0.5050  0.0766  0.3775
 6183TIP3    H218556   3.235   3.803   1.741  0.6665  1.2852  0.2802
 6184TIP3   OH218557   3.976   1.613   4.616  0.5663 -0.2154 -0.6911
 6184TIP3    H118558   3.903   1.674   4.602  1.0821  0.5958  0.0745
 6184TIP3    H218559   3.973   1.594   4.709  1.0690 -0.5391 -0.7401
 6185TIP3   OH218560   0.562   4.279   0.945  1.0467 -0.0867  0.2722
 6185TIP3    H118561   0.475   4.317   0.934  0.5452 -1.5333 -1.1552
 6185TIP3    H218562   0.622   4.350   0.922  0.3578  1.3554  2.5660
 6186TIP3   OH218563   1.654   4.828   0.051  0.6511  0.0696  0.0112
 6186TIP3    H118564   1.564   4.857   0.042  0.6605  1.0108  2.3078
 6186TIP3    H218565   1.666   4.764  -0.019 -1.4932  0.5943 -0.9051
 6187TIP3   OH218566   2.259   2.108   1.173  0.0229  0.0129 -0.1226
 6187TIP3    H118567   2.298   2.067   1.250  1.0386  0.5296 -0.3452
 6187TIP3    H218568   2.165   2.107   1.190 -0.0288 -2.4889 -0.1670
 6188TIP3   OH218569   5.327   0.790   4.773  0.9977 -0.6942  0.5424
 6188TIP3    H118570   5.261   0.722   4.766 -0.5036  0.6613  1.0651
 6188TIP3    H218571   5.350   0.792   4.866 -1.1116  1.4092  1.0888
 6189TIP3   OH218572   0.943   5.169   3.614  0.0656  0.6262  0.0358
 6189TIP3    H118573   0.886   5.092   3.620  0.0142  0.6323 -0.3453
 6189TIP3    H218574   0.928   5.203   3.526  0.8045  0.5110 -0.1427
 6190TIP3   OH218575   3.003   5.796   4.218  0.0475 -0.4907  0.2409
 6190TIP3    H118576   3.022   5.786   4.312  1.0855 -2.2287 -0.1018
 6190TIP3    H218577   2.911   5.819   4.214 -0.3324 -1.6119  1.6706
 6191TIP3   OH218578   3.807   2.169   2.455 -0.2648  0.1356  0.3035
 6191TIP3    H118579   3.780   2.172   2.547  0.6802 -0.5589  0.6111
 6191TIP3    H218580   3.800   2.077   2.431 -0.0203  0.2398 -0.1713
 6192TIP3   OH218581   3.946   1.050   3.798  0.2636 -0.0424  0.4696
 6192TIP3    H118582   3.964   1.052   3.704 -1.6492  0.1586  0.0687
 6192TIP3    H218583   4.005   0.983   3.832  3.2614  1.9897 -0.3059
 6193TIP3   OH218584   0.209   0.753   2.561 -0.1398 -0.3983 -0.2145
 6193TIP3    H118585   0.299   0.721   2.554 -0.3347 -0.9841 -0.0903
 6193TIP3    H218586   0.218   0.847   2.570  0.5177 -0.5569  0.9694
 6194TIP3   OH218587   4.401   1.098   0.078 -0.4931  0.5160 -0.2730
 6194TIP3    H118588   4.455   1.171   0.049  1.1212 -1.7364 -3.4727
 6194TIP3    H218589   4.464   1.029   0.102 -1.9331 -0.8068 -0.1107
 6195TIP3   OH218590   5.162   2.895   1.113 -0.0321  0.0687  0.0707
 6195TIP3    H118591   5.229   2.915   1.048 -1.1887  0.5480 -1.0033
 6195TIP3    H218592   5.169   2.966   1.177 -0.6734  1.1299 -0.9920
 6196TIP3   OH218593   2.129   2.435   2.878  0.5316 -0.4288  0.0809
 6196TIP3    H118594   2.099   2.344   2.876 -0.0112 -0.2504 -0.0585
 6196TIP3    H218595   2.163   2.447   2.967  0.2513 -0.6601  0.2221
 6197TIP3   OH218596   5.540   0.274   3.178  0.1706 -0.2853  0.5287
 6197TIP3    H118597   5.605   0.277   3.249 -1.1083 -0.6068  1.7434
 6197TIP3    H218598   5.468   0.329   3.208 -0.5570 -0.7084 -0.3732
 6198TIP3   OH218599   4.375   0.562   3.296 -0.0968  0.0466 -0.5452
 6198TIP3    H118600   4.350   0.490   3.238 -2.1731  0.6655 -0.4984
 6198TIP3    H218601   4.416   0.626   3.238 -1.0118  0.1236 -1.1204
 6199TIP3   OH218602   4.174   0.688   3.826  0.5974  1.2234  0.0190
 6199TIP3    H118603   4.152   0.601   3.792  0.3038  0.7260  1.4180
 6199TIP3    H218604   4.177   0.744   3.748 -1.7551  0.5047 -0.6558
 6200TIP3   OH218605   1.193   5.397   2.332 -0.4319  0.1462  0.3175
 6200TIP3    H118606   1.170   5.310   2.301 -2.1023  1.0085 -1.0400
 6200TIP3    H218607   1.287   5.392   2.350  0.6206 -0.7000 -4.2471
 6201TIP3   OH218608   5.453   3.047   0.675  0.3761  0.7194  0.6589
 6201TIP3    H118609   5.539   3.034   0.637  0.9991 -0.2693  2.2834
 6201TIP3    H218610   5.395   2.988   0.627  0.5331  1.5669 -0.5986
 6202TIP3   OH218611   2.440   0.288   2.730  0.0895  0.6259  0.0504
 6202TIP3    H118612   2.429   0.355   2.662 -0.2550 -0.8994 -1.4742
 6202TIP3    H218613   2.350   0.268   2.758  0.1782  0.6169  0.3344
 6203TIP3   OH218614   3.336   2.180   3.616 -0.1287 -0.3283 -0.1970
 6203TIP3    H118615   3.387   2.181   3.535 -0.7961 -0.3537 -0.6273
 6203TIP3    H218616   3.268   2.114   3.601 -0.1969 -0.4007  0.4178
 6204TIP3   OH218617   5.448   4.398   4.936  0.4742 -0.2857 -0.0624
 6204TIP3    H118618   5.470   4.305   4.923 -1.2614 -0.8476  0.7333
 6204TIP3    H218619   5.464   4.413   5.029 -0.9584 -0.2991  0.2028
 6205TIP3   OH218620   0.798   1.292   2.806 -0.0073  0.2016  0.0558
 6205TIP3    H118621   0.845   1.357   2.754  0.7234 -1.3918 -1.3608
 6205TIP3    H218622   0.707   1.322   2.805 -0.4039 -0.6283 -3.7565
 6206TIP3   OH218623   0.106   0.838   0.829 -0.0319  0.2514 -0.0880
 6206TIP3    H118624   0.188   0.851   0.878 -0.2954 -1.5842  0.9648
 6206TIP3    H218625   0.133   0.787   0.753 -0.1737 -0.3524  0.2586
 6207TIP3   OH218626   3.956   5.398   1.284 -0.4639  0.3598 -0.2855
 6207TIP3    H118627   3.888   5.421   1.347 -1.7024 -0.6958 -1.1931
 6207TIP3    H218628   3.998   5.321   1.321  1.2301  1.8003  0.9546
 6208TIP3   OH218629   2.236   5.862   3.796 -0.2423  0.5214  0.1699
 6208TIP3    H118630   2.173   5.858   3.868 -0.2958 -0.0806  0.0936
 6208TIP3    H218631   2.222   5.780   3.748  1.0100  0.0961  0.4954
 6209TIP3   OH218632   1.381   0.804   0.460  0.4403 -0.5070  0.2671
 6209TIP3    H118633   1.465   0.850   0.450 -0.0127  0.5869  1.2232
 6209TIP3    H218634   1.369   0.796   0.555 -0.3300 -1.0457  0.1321
 6210TIP3   OH218635   2.687   2.480   2.587  0.4396  0.3673 -0.1811
 6210TIP3    H118636   2.688   2.509   2.678  0.5423  0.9214 -0.3523
 6210TIP3    H218637   2.780   2.476   2.562  0.3763  1.9450 -0.7807
 6211TIP3   OH218638   0.935   4.650   2.834  0.4413 -0.2458 -0.1504
 6211TIP3    H118639   0.880   4.729   2.833  1.3506  0.4110 -1.1340
 6211TIP3    H218640   0.890   4.589   2.777  0.3000 -0.0131 -0.2904
 6212TIP3   OH218641   5.748   2.448   5.061  0.3845 -0.7429  0.1898
 6212TIP3    H118642   5.775   2.358   5.077 -0.4822 -0.7507  1.8218
 6212TIP3    H218643   5.827   2.500   5.076 -0.0606 -0.8395  4.0414
 6213TIP3   OH218644   0.526   1.490   4.799 -0.6525 -0.7320  0.0314
 6213TIP3    H118645   0.572   1.530   4.725  0.7607  0.1209  1.3185
 6213TIP3    H218646   0.556   1.538   4.875 -2.1469 -1.5255  1.1851
 6214TIP3   OH218647   1.789   4.897   4.770 -0.0546  0.4732 -0.5238
 6214TIP3    H118648   1.813   4.941   4.851 -2.7333 -0.9803  1.2126
 6214TIP3    H218649   1.815   4.806   4.784  0.4080  0.3900 -1.7737
 6215TIP3   OH218650   2.966   5.836   2.591  0.3418  0.1516 -0.0566
 6215TIP3    H118651   2.878   5.862   2.619  0.2125 -2.1393  2.1132
 6215TIP3    H218652   2.952   5.761   2.534  0.8668  0.6193 -0.8168
 6216TIP3   OH218653   1.172   0.125   1.839  0.0411  0.1172  0.0670
 6216TIP3    H118654   1.248   0.157   1.791 -0.2083 -2.2812 -2.0946
 6216TIP3    H218655   1.208   0.061   1.901 -0.0282  0.6487  0.6758
 6217TIP3   OH218656   6.268   4.628   4.680  0.5667  0.3209 -0.1776
 6217TIP3    H118657   6.175   4.639   4.701  0.6258 -0.5759  0.5929
 6217TIP3    H218658   6.271   4.634   4.584 -0.3175  0.1130 -0.2300
 6218TIP3   OH218659   5.685   1.131   2.818 -0.3508  0.0928  0.5589
 6218TIP3    H118660   5.627   1.067   2.777  0.8944 -0.0098 -1.1786
 6218TIP3    H218661   5.689   1.203   2.755  0.5955  0.5449  1.1083
 6219TIP3   OH218662   1.061   1.135   1.251  0.1589  0.8814  0.1835
 6219TIP3    H118663   1.029   1.215   1.293  0.4404  0.1645  1.8510
 6219TIP3    H218664   0.981   1.086   1.228 -0.0066  0.7478  1.0034
 6220TIP3   OH218665   2.260   4.126   0.519  0.3611  0.2509  0.1977
 6220TIP3    H118666   2.200   4.137   0.445 -1.8139 -1.2558  1.5931
 6220TIP3    H218667   2.258   4.210   0.564 -0.1547  0.4516 -0.1824
 6221TIP3   OH218668   1.044   5.432   0.783  0.2845  0.7175  0.2535
 6221TIP3    H118669   0.963   5.482   0.792  0.2203  0.5315  0.7746
 6221TIP3    H218670   1.022   5.361   0.723 -0.9086 -1.2462  2.8280
 6222TIP3   OH218671   3.775   5.316   4.401  0.1778  0.0932  0.1850
 6222TIP3    H118672   3.846   5.307   4.338  0.0940  2.0686 -0.2396
 6222TIP3    H218673   3.701   5.271   4.361  0.9563 -1.3972  0.3298
 6223TIP3   OH218674   4.546   2.962   3.021 -0.4248  0.3496  0.4978
 6223TIP3    H118675   4.581   3.014   2.949  1.8075  0.3175  1.4906
 6223TIP3    H218676   4.563   2.871   2.998  0.1067  0.3272  0.9571
 6224TIP3   OH218677   5.278   3.567   3.649 -0.2531  0.4397 -0.8721
 6224TIP3    H118678   5.189   3.582   3.618 -0.9415  1.1526  1.2793
 6224TIP3    H218679   5.326   3.645   3.621 -0.2612  0.0516 -2.0422
 6225TIP3   OH218680   5.230   4.926   0.198  0.0453 -0.0379  0.3646
 6225TIP3    H118681   5.243   5.015   0.166  1.1564  0.7066  2.6741
 6225TIP3    H218682   5.136   4.909   0.186 -0.2194  1.5124  0.0672
 6226TIP3   OH218683   5.107   1.509   0.531 -0.3903 -0.1678 -0.3524
 6226TIP3    H118684   5.042   1.457   0.580 -1.1654 -0.6901 -1.8753
 6226TIP3    H218685   5.181   1.517   0.591 -1.8039  0.3728  1.4163
 6227TIP3   OH218686   1.078   1.830   0.579 -0.1714  0.1949 -0.1287
 6227TIP3    H118687   1.088   1.921   0.550  1.1976  1.1159  2.8198
 6227TIP3    H218688   1.001   1.832   0.636  1.0755  0.0366  1.6256
 6228TIP3   OH218689   4.681   2.067   5.058  0.4361 -0.3781 -0.0050
 6228TIP3    H118690   4.701   1.985   5.015 -1.7988 -1.5105  0.9575
 6228TIP3    H218691   4.653   2.042   5.146 -0.9108  1.3274  0.1116
 6229TIP3   OH218692   5.309   1.293   0.414  0.1168 -0.2714 -0.0385
 6229TIP3    H118693   5.249   1.233   0.458 -1.7073  0.8464 -0.9063
 6229TIP3    H218694   5.253   1.351   0.364  1.8160  1.9918  0.4977
 6230TIP3   OH218695   0.791   4.652   3.605 -0.1834  0.4249 -0.5176
 6230TIP3    H118696   0.790   4.724   3.542  1.6486  1.1001  0.1569
 6230TIP3    H218697   0.870   4.667   3.657  0.2228 -2.0424 -0.3108
 6231TIP3   OH218698   3.347   4.209   2.705 -0.3119  0.0419 -0.0755
 6231TIP3    H118699   3.345   4.233   2.612 -1.3377  0.1887 -0.0214
 6231TIP3    H218700   3.427   4.157   2.714 -0.2076  0.0123 -1.0474
 6232TIP3   OH218701   4.166   5.398   1.004 -0.2350 -0.4673  0.8437
 6232TIP3    H118702   4.185   5.420   1.095 -1.3996  1.3317  0.7032
 6232TIP3    H218703   4.252   5.379   0.966  0.7820  2.3150  1.4678
 6233TIP3   OH218704   2.699   3.683   3.451 -0.0348 -0.6736 -0.0278
 6233TIP3    H118705   2.750   3.606   3.474 -0.2436 -0.7211  0.2733
 6233TIP3    H218706   2.635   3.651   3.388 -0.2938 -0.7966  0.3004
 6234TIP3   OH218707   4.515   3.185   0.054 -0.0299  0.3139  0.2349
 6234TIP3    H118708   4.521   3.281   0.054 -0.2408  0.3617 -1.6195
 6234TIP3    H218709   4.606   3.155   0.064  0.0698  0.6991  0.5108
 6235TIP3   OH218710   2.909   4.031   1.814  0.2421  0.2052 -0.0752
 6235TIP3    H118711   2.965   4.092   1.862 -1.8607  2.3902 -0.2672
 6235TIP3    H218712   2.872   3.974   1.882  0.3709  0.6983  0.4171
 6236TIP3   OH218713   1.686   5.895   1.863  0.4463  0.4113 -0.4456
 6236TIP3    H118714   1.702   5.931   1.776  1.0803 -0.9487 -0.9207
 6236TIP3    H218715   1.601   5.851   1.856  0.2305  0.7911 -0.2143
 6237TIP3   OH218716   3.096   0.681   4.900 -0.0836  0.4398 -0.3167
 6237TIP3    H118717   3.003   0.670   4.922 -0.6490  2.0655 -1.5850
 6237TIP3    H218718   3.096   0.752   4.835  1.9815 -0.0895 -0.9663
 6238TIP3   OH218719   4.101   2.172   2.541 -0.2053  0.2396 -0.3988
 6238TIP3    H118720   4.064   2.119   2.471  1.8596 -0.5337 -0.9804
 6238TIP3    H218721   4.149   2.242   2.495  0.4399  0.2370  0.2529
 6239TIP3   OH218722   5.719   5.433   3.139  0.2065  0.3785  0.1488
 6239TIP3    H118723   5.726   5.406   3.048 -0.1149 -0.3016  0.3219
 6239TIP3    H218724   5.761   5.363   3.188 -0.9024  0.0338  0.6252
 6240TIP3   OH218725   0.728   4.372   4.148 -0.1330 -0.3729 -0.6901
 6240TIP3    H118726   0.771   4.423   4.080 -1.5712 -1.3686 -2.4563
 6240TIP3    H218727   0.713   4.286   4.108  1.3403 -1.9325  1.8211
 6241TIP3   OH218728   2.556   4.782   2.235 -0.7078 -0.4452  0.4318
 6241TIP3    H118729   2.623   4.720   2.264  0.8445 -0.3721 -2.5988
 6241TIP3    H218730   2.598   4.868   2.242 -1.1448 -0.2046  0.1875
 6242TIP3   OH218731   5.819   3.443   1.099  0.2530  0.4352 -0.0207
 6242TIP3    H118732   5.792   3.458   1.190  1.1518 -0.3282  0.3934
 6242TIP3    H218733   5.894   3.500   1.087  0.6151 -0.0316 -0.0246
 6243TIP3   OH218734   0.161   2.459   1.276 -0.6466 -0.0550  0.1431
 6243TIP3    H118735   0.163   2.429   1.367  0.9302 -0.0231  0.1493
 6243TIP3    H218736   0.224   2.531   1.273 -2.4274  1.5372 -0.4752
 6244TIP3   OH218737   3.973   1.497   2.579 -0.7779  0.3172  0.0716
 6244TIP3    H118738   4.015   1.552   2.645 -1.6019  0.3285  0.6039
 6244TIP3    H218739   4.031   1.421   2.571 -0.8521  0.1395  1.0821
 6245TIP3   OH218740   6.034   5.567   1.702  0.4195 -0.2604  0.2932
 6245TIP3    H118741   6.113   5.617   1.683  0.4424 -1.6675 -4.5607
 6245TIP3    H218742   5.963   5.631   1.697  0.9135  0.3374  0.7580
 6246TIP3   OH218743   1.995   5.085   3.428  0.0216 -0.4809 -0.0344
 6246TIP3    H118744   2.081   5.068   3.390  1.3797  0.7895  2.2447
 6246TIP3    H218745   1.991   5.179   3.440 -1.8402 -0.4668 -0.3247
 6247TIP3   OH218746   5.192   3.177   4.710  0.7531  0.1947  0.1148
 6247TIP3    H118747   5.265   3.128   4.671 -0.7562  0.1139 -2.8792
 6247TIP3    H218748   5.122   3.112   4.718  0.0994  0.8997  0.2276
 6248TIP3   OH218749   2.244   2.463   2.197 -1.1538  0.2158 -0.6906
 6248TIP3    H118750   2.328   2.476   2.240 -1.1656 -0.0281 -0.5902
 6248TIP3    H218751   2.253   2.379   2.152 -1.6753 -0.2793  0.1204
 6249TIP3   OH218752   6.075   2.025   1.667 -0.1632 -0.1097  0.1317
 6249TIP3    H118753   6.135   1.950   1.662 -1.6938 -1.4074  0.4436
 6249TIP3    H218754   6.130   2.101   1.646  1.3084 -1.3730 -0.8088
 6250TIP3   OH218755   5.500   4.319   0.999  0.0998  0.1167 -0.2199
 6250TIP3    H118756   5.502   4.405   0.955 -0.3830  0.2095 -0.0599
 6250TIP3    H218757   5.514   4.339   1.091 -0.5030  0.0712 -0.1152
 6251TIP3   OH218758   5.514   3.225   4.893 -0.9857 -0.3583  0.4745
 6251TIP3    H118759   5.504   3.297   4.955 -0.2713 -0.2686  0.4953
 6251TIP3    H218760   5.428   3.218   4.850 -0.6629  1.5097 -0.6139
 6252TIP3   OH218761   4.955   0.873   0.533 -0.4438 -0.2465 -0.3094
 6252TIP3    H118762   4.945   0.954   0.484 -0.1741  1.5875  2.4667
 6252TIP3    H218763   4.882   0.819   0.504 -1.1281  1.2812 -1.6147
 6253TIP3   OH218764   1.746   4.226   0.854 -0.0002  0.0575 -0.1194
 6253TIP3    H118765   1.758   4.152   0.795 -0.5600  0.7254 -1.0971
 6253TIP3    H218766   1.804   4.207   0.928 -0.4194 -1.5356 -0.1628
 6254TIP3   OH218767   0.537   0.391   2.133 -0.2744  0.4722 -0.1030
 6254TIP3    H118768   0.632   0.399   2.133 -0.1222 -0.7118 -2.0167
 6254TIP3    H218769   0.519   0.315   2.189  0.1277 -0.7531 -1.5633
 6255TIP3   OH218770   6.093   1.908   2.230 -0.5156  0.2245  0.3103
 6255TIP3    H118771   6.142   1.904   2.147  1.3939 -0.3334  1.4079
 6255TIP3    H218772   6.021   1.968   2.212 -0.2474  0.0026 -1.8075
 6256TIP3   OH218773   2.929   4.767   1.946  0.4260 -0.0985 -0.4479
 6256TIP3    H118774   2.938   4.721   2.030 -0.3707 -1.9224 -1.3110
 6256TIP3    H218775   2.885   4.849   1.969  0.2068 -0.5639  0.9087
 6257TIP3   OH218776   2.891   0.817   3.180  0.9077 -0.1416 -0.5431
 6257TIP3    H118777   2.809   0.860   3.154  0.6150 -1.0279 -1.1423
 6257TIP3    H218778   2.874   0.787   3.269 -1.1069 -4.0904 -2.0074
 6258TIP3   OH218779   2.014   2.840   4.855 -0.0042 -0.7386  0.0024
 6258TIP3    H118780   1.930   2.847   4.809  1.8353  1.6359 -3.4826
 6258TIP3    H218781   2.030   2.928   4.888  0.9512 -1.2688  1.0081
 6259TIP3   OH218782   0.806   3.792   0.444  0.0066 -0.5852 -0.0264
 6259TIP3    H118783   0.896   3.806   0.473 -0.5598 -0.1456  1.6666
 6259TIP3    H218784   0.771   3.728   0.506 -1.4102  0.7498  0.6235
 6260TIP3   OH218785   3.527   5.704   2.354 -0.2437 -0.6238  0.0763
 6260TIP3    H118786   3.474   5.674   2.280  1.4364  0.4301 -1.6622
 6260TIP3    H218787   3.470   5.762   2.404 -0.7461  0.5819 -1.8073
 6261TIP3   OH218788   3.120   5.339   4.443  0.3562  0.0362  0.0523
 6261TIP3    H118789   3.073   5.398   4.501 -0.2640 -0.7238  0.3317
 6261TIP3    H218790   3.174   5.286   4.501 -1.3227 -1.7044  0.1182
 6262TIP3   OH218791   6.117   1.423   3.859  0.0800 -0.1234  0.0148
 6262TIP3    H118792   6.150   1.387   3.941  0.0053  0.9276  0.5233
 6262TIP3    H218793   6.116   1.349   3.799 -0.9642 -1.1706  1.2733
 6263TIP3   OH218794   4.896   1.143   0.008 -0.1411  0.3196 -0.1102
 6263TIP3    H118795   4.927   1.114   0.094 -1.1236  0.4561  0.2970
 6263TIP3    H218796   4.917   1.236   0.005 -1.3107  0.6180  0.5385
 6264TIP3   OH218797   5.285   2.197   2.086 -0.0724  0.5014  0.1545
 6264TIP3    H118798   5.310   2.205   2.178  0.0556  1.5449  0.0364
 6264TIP3    H218799   5.330   2.269   2.043 -2.1968  1.6246 -0.3014
 6265TIP3   OH218800   4.253   1.056   0.983  0.3323  0.3591 -0.1136
 6265TIP3    H118801   4.257   1.141   0.939  2.9302  0.1647 -0.4570
 6265TIP3    H218802   4.254   1.077   1.076  2.1197  0.7515 -0.1870
 6266TIP3   OH218803   1.102   4.268   1.680 -0.3613 -0.2030 -0.6110
 6266TIP3    H118804   1.040   4.278   1.752 -1.0129  0.3287 -1.2378
 6266TIP3    H218805   1.127   4.357   1.656  0.4580 -0.4002 -0.5438
 6267TIP3   OH218806   0.355   2.006   4.640 -0.0994 -0.4949 -0.1245
 6267TIP3    H118807   0.338   2.083   4.587  0.9553 -0.3598 -0.2952
 6267TIP3    H218808   0.271   1.984   4.679 -0.8754 -0.5408 -1.7539
 6268TIP3   OH218809   3.814   2.627   5.085 -0.0595 -0.4798  0.4736
 6268TIP3    H118810   3.758   2.636   5.008 -0.8148 -3.9268  0.4611
 6268TIP3    H218811   3.778   2.689   5.148 -3.7335 -2.2009  0.3031
 6269TIP3   OH218812   3.674   6.030   0.876  0.5330 -0.1567 -0.6559
 6269TIP3    H118813   3.659   6.008   0.784  0.4705 -1.1698 -0.4197
 6269TIP3    H218814   3.679   5.945   0.920 -2.1122  0.3176  0.7176
 6270TIP3   OH218815   0.104   2.744   1.435 -0.1991  0.1326  0.4746
 6270TIP3    H118816   0.094   2.826   1.387 -1.9893 -0.5901 -0.5052
 6270TIP3    H218817   0.133   2.682   1.368  1.3717  0.0007  1.2571
 6271TIP3   OH218818   4.899   1.646   0.218 -0.0089 -0.2728  0.5642
 6271TIP3    H118819   4.972   1.584   0.213 -0.2256 -0.4446 -1.9031
 6271TIP3    H218820   4.940   1.731   0.233  0.7070 -0.4106 -0.5151
 6272TIP3   OH218821   3.682   1.087   1.425 -0.0275 -0.2921  0.5368
 6272TIP3    H118822   3.737   1.155   1.464 -1.2141  1.7226 -1.1213
 6272TIP3    H218823   3.646   1.039   1.500  0.0389  1.5488  1.8111
 6273TIP3   OH218824   4.381   3.896   1.973  0.3396  0.1857 -0.0852
 6273TIP3    H118825   4.392   3.986   2.003 -0.3794  0.3868 -0.3902
 6273TIP3    H218826   4.356   3.904   1.881  0.9270 -0.3559 -0.2949
 6274TIP3   OH218827   4.575   0.758   2.410  0.2557 -0.2835  0.6786
 6274TIP3    H118828   4.617   0.753   2.324  0.6670 -0.2334  0.8739
 6274TIP3    H218829   4.638   0.805   2.465 -0.2883  0.2619  0.8404
 6275TIP3   OH218830   4.495   1.003   0.425  0.5158  0.3287  0.1480
 6275TIP3    H118831   4.520   1.090   0.395  0.7561  0.7387  1.4545
 6275TIP3    H218832   4.554   0.985   0.499 -0.2611 -0.4701  0.6063
 6276TIP3   OH218833   3.008   2.768   1.702  0.3050 -0.1332  0.0645
 6276TIP3    H118834   3.043   2.736   1.786 -2.7080 -1.3552  1.0012
 6276TIP3    H218835   2.972   2.690   1.660 -1.5295  1.0159 -0.6129
 6277TIP3   OH218836   0.961   3.407   0.843  0.5618  0.3476  0.5266
 6277TIP3    H118837   0.916   3.343   0.788 -1.3244  0.5605  1.7331
 6277TIP3    H218838   0.919   3.490   0.822 -0.1042  0.4556  2.1340
 6278TIP3   OH218839   5.361   2.936   0.408  0.0120 -0.4102  0.4213
 6278TIP3    H118840   5.284   2.880   0.402 -0.2545 -0.1609  1.4178
 6278TIP3    H218841   5.422   2.899   0.344 -0.7184 -0.9341  0.0095
 6279TIP3   OH218842   5.798   0.640   4.767 -0.1214  0.0481  0.5282
 6279TIP3    H118843   5.808   0.661   4.675 -2.8601 -0.7081 -0.0286
 6279TIP3    H218844   5.783   0.724   4.810  2.2736  0.5332  0.5312
 6280TIP3   OH218845   5.958   0.259   0.813  0.0437 -0.2818 -0.0632
 6280TIP3    H118846   6.047   0.233   0.835 -0.0188 -0.1887  0.3084
 6280TIP3    H218847   5.903   0.188   0.846  0.0605 -0.9328 -1.3754
 6281TIP3   OH218848   2.660   1.387   1.287 -0.4955 -0.0494  0.5708
 6281TIP3    H118849   2.631   1.468   1.245  0.4617 -1.1807 -2.5984
 6281TIP3    H218850   2.580   1.346   1.321 -1.4334  0.7276 -0.6544
 6282TIP3   OH218851   1.626   3.979   1.243 -0.1944  0.8079  0.1492
 6282TIP3    H118852   1.661   3.891   1.233  0.6342  1.0170  1.0804
 6282TIP3    H218853   1.543   3.977   1.196  0.3870 -0.1133 -0.8727
 6283TIP3   OH218854   2.920   4.805   5.042  0.3574 -0.2018 -0.2151
 6283TIP3    H118855   2.903   4.898   5.058  1.8634  0.3880 -1.7674
 6283TIP3    H218856   2.890   4.790   4.952  1.9374 -0.6967 -0.7000
 6284TIP3   OH218857   1.091   4.972   3.019  0.0468 -0.0840  0.0183
 6284TIP3    H118858   1.124   4.952   2.932 -1.8387  0.4122 -0.8744
 6284TIP3    H218859   1.157   5.029   3.058  1.3670 -1.0896 -0.6965
 6285TIP3   OH218860   6.003   4.578   0.236 -0.2481  0.8209  0.2522
 6285TIP3    H118861   6.028   4.487   0.221 -0.8594  0.5393  0.8928
 6285TIP3    H218862   6.056   4.606   0.311  0.0939  1.0681 -0.0741
 6286TIP3   OH218863   3.748   2.166   3.100  0.1838  0.1602  0.2758
 6286TIP3    H118864   3.724   2.079   3.131 -0.2196  0.1183 -0.1327
 6286TIP3    H218865   3.771   2.215   3.179  1.2027 -0.5476  0.4446
 6287TIP3   OH218866   3.026   1.662   4.996  0.8778  0.4438  0.5921
 6287TIP3    H118867   3.118   1.680   4.978  0.9829 -0.1114  0.5643
 6287TIP3    H218868   2.978   1.711   4.929  1.2533 -1.3162 -1.0467
 6288TIP3   OH218869   5.316   2.825   3.442 -0.4896 -0.0960 -0.4205
 6288TIP3    H118870   5.407   2.827   3.469 -0.7320 -2.7218  0.8598
 6288TIP3    H218871   5.266   2.844   3.522 -1.1257  0.7065 -0.9778
 6289TIP3   OH218872   5.880   1.145   3.638  0.0714  0.3076  0.2841
 6289TIP3    H118873   5.885   1.178   3.548 -0.5631  0.2268  0.2112
 6289TIP3    H218874   5.965   1.165   3.676  1.1999 -1.6725 -1.0224
 6290TIP3   OH218875   5.366   4.373   1.248 -0.3278  0.0217 -0.0996
 6290TIP3    H118876   5.357   4.283   1.279 -1.2547 -0.1075 -0.7043
 6290TIP3    H218877   5.282   4.414   1.270 -0.9547 -0.0273 -2.2103
 6291TIP3   OH218878   0.768   0.839   2.665 -0.6144  0.0287 -0.0822
 6291TIP3    H118879   0.768   0.847   2.570 -0.7039 -0.2445 -0.1064
 6291TIP3    H218880   0.791   0.747   2.682  0.1571  0.2562  0.1776
 6292TIP3   OH218881   1.011   2.591   1.719 -0.7913 -0.5438  0.9479
 6292TIP3    H118882   1.103   2.576   1.742  0.1210  0.5116 -1.6333
 6292TIP3    H218883   0.997   2.535   1.642 -1.4625  1.2453 -0.2994
 6293TIP3   OH218884   5.342   0.946   3.146  0.0485 -0.2419  0.3454
 6293TIP3    H118885   5.282   0.944   3.072 -1.7087 -0.1134  1.7169
 6293TIP3    H218886   5.425   0.975   3.108 -1.3697  2.1255 -1.1791
 6294TIP3   OH218887   1.383   2.155   3.802  0.2291  0.9915 -0.8278
 6294TIP3    H118888   1.412   2.128   3.715  1.6985  0.4833 -0.2064
 6294TIP3    H218889   1.330   2.081   3.833  0.7343  0.6345 -0.8046
 6295TIP3   OH218890   3.760   3.406   2.226 -0.3143  0.1965  0.1454
 6295TIP3    H118891   3.683   3.437   2.178 -0.4496  0.1430  0.3274
 6295TIP3    H218892   3.798   3.339   2.169  0.2005  0.9538 -0.4315
 6296TIP3   OH218893   5.353   3.242   1.489 -0.3520 -0.0593 -0.4254
 6296TIP3    H118894   5.338   3.335   1.473 -1.9970 -0.1261  0.6230
 6296TIP3    H218895   5.449   3.234   1.488 -0.1572  1.1040 -3.3513
 6297TIP3   OH218896   2.703   3.736   2.815  0.0390 -0.6489  0.7387
 6297TIP3    H118897   2.738   3.710   2.900 -1.7141 -0.7781  1.4718
 6297TIP3    H218898   2.610   3.753   2.832  0.0221  1.1060 -0.7796
 6298TIP3   OH218899   3.815   5.197   4.902 -0.5390  0.3514 -0.1131
 6298TIP3    H118900   3.825   5.258   4.829  1.2785 -0.5665 -0.6797
 6298TIP3    H218901   3.743   5.233   4.953 -0.3328  2.2836 -1.0949
 6299TIP3   OH218902   4.621   5.450   4.211  0.2247 -0.1087  0.1874
 6299TIP3    H118903   4.567   5.497   4.148 -1.7180 -0.5208  1.4335
 6299TIP3    H218904   4.664   5.518   4.262  1.1428  0.2255 -1.0095
 6300TIP3   OH218905   1.661   5.614   2.633 -0.8053 -0.0196 -0.1181
 6300TIP3    H118906   1.611   5.636   2.555  0.3696  0.6876 -0.6988
 6300TIP3    H218907   1.673   5.697   2.678 -1.6676 -0.4541  0.9592
 6301TIP3   OH218908   0.468   4.628   3.778  0.1306  0.3166 -0.0604
 6301TIP3    H118909   0.443   4.625   3.686 -1.6711  2.2793  0.3048
 6301TIP3    H218910   0.519   4.708   3.786  1.1272 -0.3501  0.4983
 6302TIP3   OH218911   4.835   5.804   4.742 -0.1519 -0.2363 -1.1565
 6302TIP3    H118912   4.748   5.837   4.763 -0.3623 -1.7430  0.5985
 6302TIP3    H218913   4.819   5.729   4.684 -0.2002 -1.5003  0.4130
 6303TIP3   OH218914   4.554   1.950   4.726 -0.6904 -0.2718  0.1752
 6303TIP3    H118915   4.574   1.903   4.806 -1.2074  1.0362  1.0970
 6303TIP3    H218916   4.459   1.949   4.719 -0.6112 -2.4431 -1.7326
 6304TIP3   OH218917   6.322   0.479   1.155 -0.5333 -0.1975  0.0850
 6304TIP3    H118918   6.366   0.416   1.098  1.0528  0.8303  0.1040
 6304TIP3    H218919   6.340   0.564   1.114  0.1332  0.5097  1.7780
 6305TIP3   OH218920   3.152   1.282   4.826 -0.4843  0.0738  0.2255
 6305TIP3    H118921   3.117   1.255   4.741  0.9445 -0.9714 -0.0622
 6305TIP3    H218922   3.207   1.209   4.854 -1.1269  0.2766  2.1889
 6306TIP3   OH218923   3.044   0.999   5.006 -0.1442  0.0642  0.3631
 6306TIP3    H118924   3.004   0.931   5.060 -0.8541 -0.1095 -0.3598
 6306TIP3    H218925   3.082   1.060   5.069 -2.6189  0.9045  1.1744
 6307TIP3   OH218926   0.630   1.549   1.999 -0.0397  1.1505 -0.1712
 6307TIP3    H118927   0.693   1.620   1.999  1.0180  0.2344  0.4341
 6307TIP3    H218928   0.666   1.485   1.938 -1.4779  1.5215 -1.4854
 6308TIP3   OH218929   5.535   0.808   4.577 -0.6271  0.1973 -0.2981
 6308TIP3    H118930   5.474   0.809   4.651 -0.0512 -3.4241  0.4309
 6308TIP3    H218931   5.517   0.725   4.533  0.8751  1.0455 -2.6746
 6309TIP3   OH218932   1.432   3.048   3.867 -0.2666  0.1341  0.0326
 6309TIP3    H118933   1.501   3.023   3.806  1.1307 -1.6589  2.1935
 6309TIP3    H218934   1.365   2.980   3.857 -0.4898  0.3828 -0.1763
 6310TIP3   OH218935   3.052   5.139   2.878 -0.0726 -0.1967  0.3146
 6310TIP3    H118936   3.055   5.113   2.970  0.6780 -0.0213  0.3476
 6310TIP3    H218937   3.049   5.057   2.830  0.1362 -0.3009  0.4788
 6311TIP3   OH218938   5.743   5.478   4.549 -0.6867 -0.2086  0.3123
 6311TIP3    H118939   5.807   5.435   4.493 -0.1772  1.8149 -0.7342
 6311TIP3    H218940   5.784   5.481   4.636  0.2185  0.1815 -0.1203
 6312TIP3   OH218941   2.811   5.869   3.865  0.2493 -0.2098 -0.3099
 6312TIP3    H118942   2.726   5.894   3.900  0.3097  0.9730 -0.9530
 6312TIP3    H218943   2.810   5.899   3.774  0.7833 -1.5672 -0.8037
 6313TIP3   OH218944   1.219   4.384   0.753  0.6801 -0.3523 -0.2949
 6313TIP3    H118945   1.261   4.309   0.795 -1.3810 -0.9694  0.7970
 6313TIP3    H218946   1.245   4.459   0.807  0.4151 -0.7222  0.3591
 6314TIP3   OH218947   4.754   0.129   2.415 -0.0805  0.0225  0.0655
 6314TIP3    H118948   4.752   0.057   2.352 -0.9941  1.2289 -1.3553
 6314TIP3    H218949   4.842   0.167   2.407 -0.2508  0.2820 -0.6476
 6315TIP3   OH218950   2.258   2.232   0.475 -0.0661 -0.3393 -0.2373
 6315TIP3    H118951   2.221   2.264   0.557 -1.0959 -0.7200 -0.5328
 6315TIP3    H218952   2.342   2.194   0.499  1.1012  2.2747  0.1729
 6316TIP3   OH218953   2.612   1.423   0.093 -0.2978  0.1010 -0.5520
 6316TIP3    H118954   2.545   1.414   0.161 -2.4833  2.0955 -2.3128
 6316TIP3    H218955   2.643   1.513   0.101  1.4820 -0.4804 -0.4514
 6317TIP3   OH218956   4.213   0.659   4.468  0.1850  0.2320 -0.1649
 6317TIP3    H118957   4.214   0.750   4.499  0.8963  0.6125 -1.2563
 6317TIP3    H218958   4.191   0.665   4.375  1.6170 -0.5759 -0.5876
 6318TIP3   OH218959   0.891   0.767   1.022 -0.6430 -0.0979 -0.2289
 6318TIP3    H118960   0.966   0.728   1.067  1.2291  0.0968 -2.8861
 6318TIP3    H218961   0.920   0.775   0.931 -2.9816  2.3885 -0.8930
 6319TIP3   OH218962   0.276   1.066   3.258 -0.1553  0.1771  0.2454
 6319TIP3    H118963   0.296   1.140   3.200 -0.9533  1.5568  1.6500
 6319TIP3    H218964   0.356   1.054   3.310  0.1199 -0.2362 -0.2654
 6320TIP3   OH218965   1.833   5.325   2.417 -0.8315  0.0514  0.5610
 6320TIP3    H118966   1.863   5.396   2.360  0.6607 -0.3182  0.8383
 6320TIP3    H218967   1.739   5.317   2.399 -0.3400 -0.3503 -2.1615
 6321TIP3   OH218968   1.584   5.477   0.786 -0.3564 -0.2141  0.0146
 6321TIP3    H118969   1.679   5.492   0.792 -0.2583 -0.6026 -0.4637
 6321TIP3    H218970   1.547   5.563   0.769 -0.0232 -0.1513 -0.4209
 6322TIP3   OH218971   0.545   5.154   3.214 -0.1841  0.2975 -0.4265
 6322TIP3    H118972   0.543   5.060   3.196  1.5524 -0.0300  0.8845
 6322TIP3    H218973   0.634   5.181   3.192  0.3603  0.9465  2.1931
 6323TIP3   OH218974   3.451   5.442   0.579 -0.0110  0.0286  0.7219
 6323TIP3    H118975   3.395   5.402   0.513 -0.6348  0.3775  1.0248
 6323TIP3    H218976   3.403   5.520   0.607  1.2891  1.1582 -0.0399
 6324TIP3   OH218977   4.799   3.150   3.923  0.0956 -0.5388  0.2309
 6324TIP3    H118978   4.762   3.226   3.967  0.1199 -0.3853 -0.0091
 6324TIP3    H218979   4.734   3.081   3.934  0.4471 -0.7256  1.1640
 6325TIP3   OH218980   6.078   2.479   3.107 -0.3712 -0.3897 -0.2842
 6325TIP3    H118981   6.028   2.457   3.028 -0.3524 -0.8828 -0.1604
 6325TIP3    H218982   6.131   2.401   3.124  0.7312  0.2519 -0.6338
 6326TIP3   OH218983   2.210   2.731   4.710  0.6943 -0.0413 -0.4608
 6326TIP3    H118984   2.159   2.662   4.668  1.7036 -1.3195  0.3352
 6326TIP3    H218985   2.151   2.768   4.776  0.7884 -1.5148  0.4713
 6327TIP3   OH218986   0.667   2.783   1.482  0.0342 -0.3116  0.4443
 6327TIP3    H118987   0.579   2.820   1.490  0.0661 -0.1185 -0.1077
 6327TIP3    H218988   0.719   2.830   1.548  0.1142  0.7638 -0.3559
 6328TIP3   OH218989   0.240   4.982   3.460  0.0692 -0.0486  0.2727
 6328TIP3    H118990   0.206   4.965   3.548  1.6859  2.1474  1.4124
 6328TIP3    H218991   0.170   5.030   3.416  0.2082  1.1288  1.2930
 6329TIP3   OH218992   4.896   1.758   4.756 -0.0721  0.5108  0.2474
 6329TIP3    H118993   4.845   1.760   4.674 -0.0630 -1.4862  0.1446
 6329TIP3    H218994   4.987   1.750   4.727  0.0180  0.8084  0.4487
 6330TIP3   OH218995   3.077   5.637   2.024  0.1237 -0.0870  0.0404
 6330TIP3    H118996   2.999   5.590   1.993  0.4744 -0.9552  0.4398
 6330TIP3    H218997   3.045   5.723   2.050 -0.6201 -0.2672 -0.2639
 6331TIP3   OH218998   4.191   0.886   2.436 -0.0743  0.4240  0.0851
 6331TIP3    H118999   4.244   0.880   2.356  0.7440  0.0320  0.6385
 6331TIP3    H219000   4.252   0.865   2.507 -0.8813  0.3626  0.7827
 6332TIP3   OH219001   2.485   2.448   0.364  0.1393  0.1733  0.2187
 6332TIP3    H119002   2.574   2.480   0.378  0.6711 -0.5269 -1.2811
 6332TIP3    H219003   2.493   2.390   0.288 -1.5836  0.0071  0.1350
 6333TIP3   OH219004   0.990   4.399   4.669  0.0367 -0.1493 -0.1889
 6333TIP3    H119005   0.966   4.491   4.659  0.0247 -0.2706 -1.3418
 6333TIP3    H219006   1.013   4.370   4.581  2.3936 -0.6093  0.4916
 6334TIP3   OH219007   3.619   5.042   4.309 -0.3110  0.0242 -0.4450
 6334TIP3    H119008   3.608   5.060   4.403  2.6086 -0.6006  0.1100
 6334TIP3    H219009   3.593   5.124   4.267 -0.3845  0.7924  1.0068
 6335TIP3   OH219010   4.660   1.371   1.458  0.1338 -0.1222 -0.1473
 6335TIP3    H119011   4.634   1.426   1.532  0.6740  0.5115 -0.4210
 6335TIP3    H219012   4.753   1.389   1.447  0.1483 -0.5361 -0.7090
 6336TIP3   OH219013   2.991   2.216   4.439 -0.0275  0.1080  0.2459
 6336TIP3    H119014   3.079   2.181   4.453  0.4117  1.0385 -0.0542
 6336TIP3    H219015   2.954   2.161   4.370  1.5715  1.6529 -2.0186
 6337TIP3   OH219016   0.604   3.823   4.252  0.3113 -0.2112  0.2597
 6337TIP3    H119017   0.559   3.797   4.332  0.8524 -0.3282  0.5323
 6337TIP3    H219018   0.654   3.901   4.277 -0.6488  0.6151 -0.3381
 6338TIP3   OH219019   2.912   1.919   2.387  0.0753 -0.9223 -0.1559
 6338TIP3    H119020   2.954   1.943   2.304 -0.1116  0.1793  0.0457
 6338TIP3    H219021   2.909   2.001   2.436 -0.3600 -1.4397  0.7013
 6339TIP3   OH219022   4.201   5.253   3.928  0.1207 -0.2239  0.1227
 6339TIP3    H119023   4.204   5.159   3.942 -0.2178 -0.4446 -1.1130
 6339TIP3    H219024   4.277   5.272   3.873 -0.7519 -0.0771 -1.0760
 6340TIP3   OH219025   1.533   0.396   3.847  0.5595 -0.2610 -0.0917
 6340TIP3    H119026   1.623   0.363   3.843  1.0969  1.0253  0.6946
 6340TIP3    H219027   1.538   0.471   3.907 -1.0017 -0.0454 -0.2000
 6341TIP3   OH219028   2.455   3.043   2.341 -0.0341  0.8644  0.0199
 6341TIP3    H119029   2.531   2.997   2.379 -0.0878  0.3844 -0.4403
 6341TIP3    H219030   2.381   2.984   2.358 -0.1144  0.8028 -0.5199
 6342TIP3   OH219031   1.430   5.620   5.197  0.2189 -0.2148  0.0662
 6342TIP3    H119032   1.399   5.548   5.142 -2.5615  0.4075  0.6742
 6342TIP3    H219033   1.375   5.694   5.172  0.9186  0.8677  1.6092
 6343TIP3   OH219034   2.560   4.977   1.678  0.0197  0.5135  0.2499
 6343TIP3    H119035   2.590   4.983   1.768  1.2379  0.3525 -0.1337
 6343TIP3    H219036   2.639   4.965   1.626 -0.6427  0.7814 -0.8666
 6344TIP3   OH219037   3.975   0.258   3.713  0.3465 -0.6256  0.0497
 6344TIP3    H119038   4.015   0.186   3.763  0.2196 -0.1881  0.8061
 6344TIP3    H219039   3.891   0.223   3.684 -0.3509 -0.3371  1.6310
 6345TIP3   OH219040   2.085   0.917   4.382  0.0110 -0.3436  0.6032
 6345TIP3    H119041   2.093   0.822   4.371  2.5288 -0.2649  1.2899
 6345TIP3    H219042   2.085   0.952   4.293  0.2245 -0.9067  0.3785
 6346TIP3   OH219043   2.375   0.675   1.886 -0.1603 -0.4407  0.5483
 6346TIP3    H119044   2.369   0.657   1.792  0.3414 -1.6518  0.7296
 6346TIP3    H219045   2.332   0.600   1.927  0.8510 -0.6154  1.3169
 6347TIP3   OH219046   3.787   5.733   3.065 -0.4176 -0.2067 -0.6793
 6347TIP3    H119047   3.780   5.645   3.028 -1.5402 -0.4230  0.0093
 6347TIP3    H219048   3.795   5.719   3.159  1.0855  0.3853 -0.6858
 6348TIP3   OH219049   3.068   1.429   2.178  0.1402 -0.1429  0.4520
 6348TIP3    H119050   3.056   1.383   2.261 -1.0617 -1.0436 -0.1890
 6348TIP3    H219051   3.136   1.381   2.132  0.4754  0.0779  0.7135
 6349TIP3   OH219052   6.240   0.481   0.415 -0.0390 -0.1624 -0.7970
 6349TIP3    H119053   6.333   0.465   0.432 -0.2117 -1.8229 -1.2516
 6349TIP3    H219054   6.240   0.535   0.336  0.5592  1.3761  0.2110
 6350TIP3   OH219055   0.890   2.866   3.791  0.0658 -0.1048 -0.3541
 6350TIP3    H119056   0.904   2.777   3.822 -0.5489 -0.8027 -1.9512
 6350TIP3    H219057   0.893   2.920   3.870  1.2618 -1.4263  0.5545
 6351TIP3   OH219058   1.166   4.191   2.532 -0.1155 -0.0678 -0.6290
 6351TIP3    H119059   1.227   4.198   2.459 -0.2428 -0.4858 -0.7782
 6351TIP3    H219060   1.137   4.281   2.548  0.8807  0.1988 -0.2543
 6352TIP3   OH219061   5.734   4.783   4.647  0.0343 -0.6056  0.1469
 6352TIP3    H119062   5.779   4.764   4.565  0.1399  0.0850  0.0435
 6352TIP3    H219063   5.642   4.788   4.623  0.2499  1.8918 -0.3808
 6353TIP3   OH219064   4.816   1.157   2.171 -0.0337  0.2643 -0.2924
 6353TIP3    H119065   4.855   1.179   2.087  0.0977 -0.0333 -0.3133
 6353TIP3    H219066   4.885   1.174   2.235 -0.5794  1.8301 -0.0768
 6354TIP3   OH219067   0.388   5.207   4.002  0.3399 -0.0009  0.4702
 6354TIP3    H119068   0.427   5.175   3.921 -0.7210 -1.7937  0.6039
 6354TIP3    H219069   0.449   5.181   4.071  0.8976  0.9022  0.3343
 6355TIP3   OH219070   1.010   4.572   4.180 -0.4407  0.0056  0.1906
 6355TIP3    H119071   0.960   4.635   4.127 -0.5670 -0.3023 -0.0574
 6355TIP3    H219072   1.100   4.581   4.150 -0.4368  0.1670  0.2509
 6356TIP3   OH219073   0.312   2.138   0.695 -0.1624  0.1566  0.6394
 6356TIP3    H119074   0.389   2.094   0.659  0.7991  0.9143  1.7106
 6356TIP3    H219075   0.300   2.100   0.782 -0.4179  0.7074  0.8545
 6357TIP3   OH219076   3.237   0.073   4.227  0.1586 -0.0695 -0.1071
 6357TIP3    H119077   3.227   0.125   4.147 -0.9985 -1.0186 -0.6014
 6357TIP3    H219078   3.315   0.110   4.269 -0.3802  1.8095 -0.6304
 6358TIP3   OH219079   3.275   2.177   4.504  0.2429  0.3694 -0.6033
 6358TIP3    H119080   3.321   2.094   4.504  0.5492  0.5271 -1.4063
 6358TIP3    H219081   3.296   2.216   4.419 -0.1966  1.0958 -0.3893
 6359TIP3   OH219082   4.180   3.323   4.817 -0.1108  0.4141  0.1715
 6359TIP3    H119083   4.153   3.348   4.728  1.0767  0.3317 -0.2306
 6359TIP3    H219084   4.209   3.405   4.856 -1.0280  0.5227  0.6405
 6360TIP3   OH219085   0.106   5.518   4.357 -0.4155  0.4622 -0.3399
 6360TIP3    H119086   0.019   5.486   4.334 -0.3236  1.5213 -2.3917
 6360TIP3    H219087   0.095   5.612   4.369  0.3520  0.5287 -0.0865
 6361TIP3   OH219088   5.333   2.482   1.658  0.7565  0.2809  0.3460
 6361TIP3    H119089   5.325   2.502   1.751 -1.2819  0.0567  0.2718
 6361TIP3    H219090   5.250   2.441   1.635  0.3244  2.1873 -1.9934
 6362TIP3   OH219091   1.851   0.304   0.074 -0.4902 -0.2292  0.0121
 6362TIP3    H119092   1.938   0.308   0.033  0.1678  0.5690  1.4254
 6362TIP3    H219093   1.791   0.288   0.001  0.7423  0.1726 -1.1314
 6363TIP3   OH219094   4.645   2.047   0.411 -0.1591  0.3034  0.0348
 6363TIP3    H119095   4.601   2.128   0.386 -0.6469 -0.0332 -0.1963
 6363TIP3    H219096   4.725   2.077   0.455  0.8613  0.9443 -2.0998
 6364TIP3   OH219097   4.930   1.825   3.967 -0.2251 -0.1192 -0.2252
 6364TIP3    H119098   4.977   1.756   3.920  0.6702  0.7181 -0.5856
 6364TIP3    H219099   4.998   1.886   3.995 -1.0604  1.0288 -0.6105
 6365TIP3   OH219100   5.300   0.580   2.864 -0.0809 -0.3110  0.3815
 6365TIP3    H119101   5.355   0.654   2.889 -1.8295  0.3385  2.7300
 6365TIP3    H219102   5.343   0.542   2.788  2.2076  1.6207  0.6003
 6366TIP3   OH219103   2.098   4.186   0.244 -0.1765 -0.3031 -0.0547
 6366TIP3    H119104   2.028   4.141   0.291 -0.8891 -0.0207 -0.8237
 6366TIP3    H219105   2.155   4.116   0.213  0.0718 -0.5146  0.8500
 6367TIP3   OH219106   4.811   4.186   3.182 -0.2056  0.1224 -0.3116
 6367TIP3    H119107   4.796   4.192   3.088  1.6313 -0.0730 -0.6619
 6367TIP3    H219108   4.736   4.229   3.222 -1.5274 -0.6853 -1.8230
 6368TIP3   OH219109   1.765  -0.007   1.208 -0.4664  1.1668  0.2427
 6368TIP3    H119110   1.670  -0.003   1.196 -0.3805 -0.3957 -1.4763
 6368TIP3    H219111   1.800   0.058   1.147 -0.3662 -0.7636 -1.9004
 6369TIP3   OH219112   0.430   2.766   0.528  0.4004 -0.0251  0.3398
 6369TIP3    H119113   0.407   2.778   0.620  0.9308 -1.3406  0.6677
 6369TIP3    H219114   0.483   2.842   0.506  1.5735 -0.4452  1.5889
 6370TIP3   OH219115   4.660   1.030   0.651 -0.3421  0.4245 -0.0095
 6370TIP3    H119116   4.637   1.065   0.737  1.4851  1.1578  0.2252
 6370TIP3    H219117   4.698   0.945   0.669  0.0176  0.5672 -0.0980
 6371TIP3   OH219118   0.466   3.401   1.623  0.0704 -0.5406  0.4186
 6371TIP3    H119119   0.481   3.489   1.658 -0.4747 -0.4587  0.4512
 6371TIP3    H219120   0.529   3.392   1.551  0.1606 -0.1478  0.4494
 6372TIP3   OH219121   2.648   4.042   5.197 -0.3450 -0.2196  0.1342
 6372TIP3    H119122   2.651   3.956   5.157  0.9137 -1.1679  2.1251
 6372TIP3    H219123   2.724   4.088   5.162 -0.6533 -0.1376 -0.4339
 6373TIP3   OH219124   6.088   0.338   1.981  0.4733 -0.1807 -0.2217
 6373TIP3    H119125   6.017   0.275   1.996  0.2930 -0.1970 -1.1112
 6373TIP3    H219126   6.152   0.318   2.049 -0.7814  0.4677  1.2397
 6374TIP3   OH219127   6.235   3.099   3.927  0.2320  0.1003  0.6970
 6374TIP3    H119128   6.207   3.059   3.845  1.0750  0.4569  0.2227
 6374TIP3    H219129   6.161   3.086   3.987 -0.8279  0.7339 -0.4123
 6375TIP3   OH219130   5.037   2.622   2.513 -0.4027  0.0680 -0.0071
 6375TIP3    H119131   5.054   2.705   2.468 -0.5324  0.0299 -0.1289
 6375TIP3    H219132   4.942   2.623   2.529 -0.4830 -0.2702 -0.4419
 6376TIP3   OH219133   5.628   0.989   2.187  0.2793 -0.3104 -0.3232
 6376TIP3    H119134   5.579   0.995   2.106 -0.5644 -0.1976  0.1857
 6376TIP3    H219135   5.717   0.968   2.160 -0.3398 -2.0200 -1.2043
 6377TIP3   OH219136   0.332   1.020   2.838 -0.7033  0.5523  0.1326
 6377TIP3    H119137   0.407   1.051   2.888 -0.1068 -0.3490 -0.1860
 6377TIP3    H219138   0.294   0.951   2.893 -1.1237  0.8045  0.1600
 6378TIP3   OH219139   1.918   5.695   2.999 -0.6394 -0.4509 -0.7429
 6378TIP3    H119140   1.914   5.791   2.999 -4.3234 -0.4431 -2.0191
 6378TIP3    H219141   1.855   5.669   3.067  1.9454 -2.1150  1.2268
 6379TIP3   OH219142   2.142   3.608   0.496  0.0215  0.5709 -0.1862
 6379TIP3    H119143   2.190   3.570   0.423  0.9539  0.0161  0.6817
 6379TIP3    H219144   2.201   3.675   0.531  0.0563  0.0937  0.7072
 6380TIP3   OH219145   2.270   1.698   4.016  0.2286 -0.0105 -0.2231
 6380TIP3    H119146   2.200   1.762   4.002 -2.0500 -2.0668  1.0094
 6380TIP3    H219147   2.274   1.686   4.111 -0.8719 -3.0797 -0.4550
 6381TIP3   OH219148   0.512   3.869   2.716 -0.0860  0.2653  0.1043
 6381TIP3    H119149   0.435   3.893   2.665  0.0476 -1.0344 -0.7689
 6381TIP3    H219150   0.482   3.801   2.777  0.2284  0.1777  0.1686
 6382TIP3   OH219151   6.356   0.903   1.522  0.1652  0.3204  0.5347
 6382TIP3    H119152   6.343   0.917   1.615 -1.3851 -0.2443  0.4214
 6382TIP3    H219153   6.371   0.808   1.513  0.0486  0.3336  0.1766
 6383TIP3   OH219154   4.564   5.596   3.415  0.8180 -0.1643  0.1083
 6383TIP3    H119155   4.622   5.567   3.486  2.2896  1.2256 -0.4765
 6383TIP3    H219156   4.604   5.676   3.382 -0.3076 -0.3045 -1.7359
 6384TIP3   OH219157   2.889   1.839   3.522 -0.0654 -0.1896  0.5913
 6384TIP3    H119158   2.849   1.827   3.436 -0.8822 -1.4583  1.1159
 6384TIP3    H219159   2.960   1.775   3.525  0.6851  0.6215  0.4539
 6385TIP3   OH219160   0.078   4.528   1.669 -0.6664  0.2260 -0.3256
 6385TIP3    H119161   0.060   4.566   1.755 -0.4988 -0.3726 -0.0117
 6385TIP3    H219162   0.003   4.552   1.615 -1.1916 -0.1100  0.2365
 6386TIP3   OH219163   6.159   1.750   4.802  0.0144  0.1659 -0.3301
 6386TIP3    H119164   6.121   1.695   4.871 -1.3684  1.3064 -0.1386
 6386TIP3    H219165   6.247   1.714   4.789 -0.6798 -1.8159  0.0689
 6387TIP3   OH219166   0.865   4.011   1.472 -0.3070 -0.5211  0.7560
 6387TIP3    H119167   0.831   3.971   1.392  0.5223  0.4400 -0.1017
 6387TIP3    H219168   0.808   4.087   1.487 -0.0314 -0.2994  0.6815
 6388TIP3   OH219169   0.517   3.816   3.222  0.0925  0.6008 -0.4444
 6388TIP3    H119170   0.446   3.813   3.285  1.0942 -1.9894  0.7485
 6388TIP3    H219171   0.476   3.843   3.140 -2.0864  0.0122  0.3802
 6389TIP3   OH219172   1.274   2.580   2.795 -0.4952  0.5062  0.0162
 6389TIP3    H119173   1.298   2.603   2.885  0.8521  2.7065 -0.8158
 6389TIP3    H219174   1.256   2.665   2.753 -0.5194 -0.4218 -1.9306
 6390TIP3   OH219175   3.454   1.597   1.417  0.0635  0.0650 -0.2364
 6390TIP3    H119176   3.548   1.602   1.434 -0.3472  1.6281  2.1898
 6390TIP3    H219177   3.427   1.513   1.453  0.6461 -0.9711 -2.0718
 6391TIP3   OH219178   0.650   4.611   0.599 -0.5700  0.2536 -0.3765
 6391TIP3    H119179   0.715   4.671   0.561  0.9088 -0.6509  0.5907
 6391TIP3    H219180   0.616   4.562   0.524  0.7595 -0.0525 -0.8111
 6392TIP3   OH219181   5.705   0.413   2.493 -0.5542 -0.2899 -0.4835
 6392TIP3    H119182   5.743   0.339   2.445 -0.0577 -1.4623  1.5957
 6392TIP3    H219183   5.716   0.487   2.434  0.9060 -1.4607 -1.7890
 6393TIP3   OH219184   0.505   5.319   1.526  0.1793  0.4477  1.0797
 6393TIP3    H119185   0.498   5.390   1.590  0.0666  0.3886  1.1328
 6393TIP3    H219186   0.454   5.350   1.451  1.0018  0.8837  0.6866
 6394TIP3   OH219187   2.644   3.976   0.354  0.1553  0.6777 -0.1861
 6394TIP3    H119188   2.649   3.924   0.434 -1.3663  3.1042  1.6416
 6394TIP3    H219189   2.731   3.968   0.315  0.4527 -1.8634  0.8262
 6395TIP3   OH219190   4.774   4.739   0.524  0.1108  0.4502  0.3755
 6395TIP3    H119191   4.724   4.665   0.491  1.3860  0.0658 -0.7982
 6395TIP3    H219192   4.842   4.699   0.579  0.8368  0.7190 -0.3040
 6396TIP3   OH219193   5.945   1.322   4.873  0.2314  0.6186 -0.0164
 6396TIP3    H119194   5.949   1.413   4.844  2.0361  0.6954  0.3774
 6396TIP3    H219195   5.986   1.273   4.802  1.9467  0.4751  1.0282
 6397TIP3   OH219196   4.164   4.968   1.895 -0.1551  0.1778  0.7835
 6397TIP3    H119197   4.170   5.061   1.916  2.2572  0.4753 -0.9162
 6397TIP3    H219198   4.117   4.930   1.970 -1.7185  2.8004  1.2508
 6398TIP3   OH219199   4.554   1.406   0.420  0.2523  0.0080  0.0831
 6398TIP3    H119200   4.558   1.400   0.515 -0.1271 -2.5399  0.0137
 6398TIP3    H219201   4.617   1.474   0.397  2.0831 -0.9341  2.0185
 6399TIP3   OH219202   4.570   0.462   0.816  1.0196  0.4528  0.7228
 6399TIP3    H119203   4.647   0.454   0.761  0.9029  1.2925  0.4270
 6399TIP3    H219204   4.543   0.554   0.808 -0.7238 -0.0890 -0.1473
 6400TIP3   OH219205   2.459   3.474   2.001 -0.2860  0.3426 -0.1503
 6400TIP3    H119206   2.486   3.439   2.085 -1.8316  2.2893  1.2405
 6400TIP3    H219207   2.515   3.429   1.937  2.2071  0.1274  2.0175
 6401TIP3   OH219208   4.106   4.921   1.400 -0.0099 -0.0671 -0.4777
 6401TIP3    H119209   4.186   4.951   1.355  1.0894 -1.4458  0.4962
 6401TIP3    H219210   4.073   5.000   1.443  3.1342 -0.1158  2.5128
 6402TIP3   OH219211   3.494   1.364  -0.019 -0.4756  0.0723 -1.0547
 6402TIP3    H119212   3.427   1.300   0.007 -1.8237  2.4018  1.8053
 6402TIP3    H219213   3.566   1.349   0.043 -0.4256  0.7021 -0.9556
 6403TIP3   OH219214   2.696   1.849   2.541 -0.0392  0.0671  0.3677
 6403TIP3    H119215   2.634   1.922   2.542  0.1518  0.2574 -0.5336
 6403TIP3    H219216   2.765   1.878   2.481 -0.1494 -1.0089 -0.3019
 6404TIP3   OH219217   5.226   1.112   1.865  0.1068 -0.2477  0.3782
 6404TIP3    H119218   5.234   1.058   1.787  0.7207 -1.6071  1.3506
 6404TIP3    H219219   5.244   1.201   1.834  1.4105 -0.8927 -0.8347
 6405TIP3   OH219220   5.645   0.396   5.134 -0.2135  0.3084  0.2021
 6405TIP3    H119221   5.739   0.396   5.119 -0.4121  0.5285 -1.2153
 6405TIP3    H219222   5.613   0.318   5.089 -0.8727  1.0525 -0.6843
 6406TIP3   OH219223   6.215   1.782   1.454  0.1643 -0.7795  0.5522
 6406TIP3    H119224   6.121   1.771   1.438 -0.4155  0.9665  2.3453
 6406TIP3    H219225   6.248   1.822   1.374 -0.7743 -0.7377  0.1756
 6407TIP3   OH219226   4.844   1.334   2.566  0.2177  0.8947  0.2518
 6407TIP3    H119227   4.842   1.267   2.634  0.4901 -1.9714 -2.3468
 6407TIP3    H219228   4.758   1.329   2.524  1.1306  0.1646 -1.6864
 6408TIP3   OH219229   0.681   1.157   1.561 -0.3035 -0.6493 -0.2008
 6408TIP3    H119230   0.670   1.078   1.509 -0.6156 -0.6506 -0.1384
 6408TIP3    H219231   0.657   1.131   1.650  0.4490 -0.7040 -0.0123
 6409TIP3   OH219232   2.667   2.623   3.703  0.3265 -0.2125 -0.2582
 6409TIP3    H119233   2.689   2.669   3.622 -0.5041 -0.7183 -0.7868
 6409TIP3    H219234   2.575   2.643   3.718 -0.3319 -2.4289 -1.0213
 6410TIP3   OH219235   2.050   4.042   2.745  0.3094 -0.2119 -0.1391
 6410TIP3    H119236   1.999   4.089   2.812 -0.9890 -0.1576 -1.1198
 6410TIP3    H219237   2.109   4.108   2.710 -0.5813  0.3834 -0.5808
 6411TIP3   OH219238   4.170   4.972   3.979 -0.4473  0.0590  0.2036
 6411TIP3    H119239   4.183   4.902   3.915  0.4016  0.6849 -0.3394
 6411TIP3    H219240   4.076   4.975   3.994 -0.4537 -1.5188  0.6140
 6412TIP3   OH219241   0.402   4.419   0.635  0.1149  0.0986  0.6235
 6412TIP3    H119242   0.453   4.339   0.647  0.9485  0.6967  1.1490
 6412TIP3    H219243   0.446   4.464   0.562 -1.4418 -0.7553 -0.9282
 6413TIP3   OH219244   0.590   5.448   4.168  0.9663  0.1746 -0.6026
 6413TIP3    H119245   0.581   5.353   4.165  1.2541  0.1208  0.1531
 6413TIP3    H219246   0.588   5.470   4.261  1.6210  0.8390 -0.7356
 6414TIP3   OH219247   0.469   1.532   1.044 -0.1447 -0.2006 -0.3495
 6414TIP3    H119248   0.391   1.573   1.081 -0.4706 -2.7026  2.0945
 6414TIP3    H219249   0.514   1.603   0.998 -1.0021  2.7459  2.8787
 6415TIP3   OH219250   4.647   0.384   0.128  0.5151 -0.1547  0.2602
 6415TIP3    H119251   4.700   0.462   0.112  1.4132 -0.9536 -0.7860
 6415TIP3    H219252   4.684   0.317   0.071 -1.6110 -0.7664 -0.5143
 6416TIP3   OH219253   3.798   4.218   1.859 -0.1348 -0.8742  0.1744
 6416TIP3    H119254   3.795   4.215   1.764  0.2320 -0.3577  0.1456
 6416TIP3    H219255   3.891   4.220   1.881 -0.2225  0.7256  0.4830
 6417TIP3   OH219256   5.462   3.281   2.265  0.0307  0.0060  0.4557
 6417TIP3    H119257   5.449   3.193   2.230  0.6167 -1.0137  2.6475
 6417TIP3    H219258   5.399   3.335   2.217 -1.4746 -1.8915  0.1613
 6418TIP3   OH219259   2.550   4.442   1.601 -0.2280  0.1587  0.2697
 6418TIP3    H119260   2.555   4.524   1.651  0.8455  1.1225 -1.3270
 6418TIP3    H219261   2.599   4.379   1.654  1.6730  1.3817  0.0582
 6419TIP3   OH219262   1.599   4.966   5.080 -0.2346  0.1888 -0.3662
 6419TIP3    H119263   1.692   4.961   5.059 -0.6566  0.1729 -2.4671
 6419TIP3    H219264   1.581   4.885   5.126  1.2920  1.3718  2.5776
 6420TIP3   OH219265   0.641   0.891   4.845  0.1939  0.5733 -0.1165
 6420TIP3    H119266   0.656   0.827   4.775 -1.2359 -0.3650  0.3867
 6420TIP3    H219267   0.578   0.952   4.808  0.2300  0.6802 -0.0009
 6421TIP3   OH219268   0.598   5.081   1.504  0.3898  0.1208  0.4154
 6421TIP3    H119269   0.554   5.165   1.489  1.7946  0.6235 -1.2873
 6421TIP3    H219270   0.544   5.018   1.456 -0.2476  0.1708  1.0557
 6422TIP3   OH219271   2.882   0.296   4.264  0.8775 -0.2036 -0.1907
 6422TIP3    H119272   2.844   0.249   4.190  1.1497 -1.3247  0.3575
 6422TIP3    H219273   2.973   0.311   4.239  1.4659 -2.1857  0.6178
 6423TIP3   OH219274   2.858   0.135   1.523  0.5995 -0.1432  0.0409
 6423TIP3    H119275   2.829   0.177   1.442 -2.8887 -2.0994  0.0965
 6423TIP3    H219276   2.876   0.045   1.498 -0.6624 -0.8128  1.4036
 6424TIP3   OH219277   2.660   1.697   3.731 -0.1450  0.9167 -0.4492
 6424TIP3    H119278   2.718   1.769   3.705 -0.2702  0.5752 -1.7519
 6424TIP3    H219279   2.608   1.733   3.803  2.6722  0.7564  1.8606
 6425TIP3   OH219280   2.538   4.579   0.679 -0.4132  0.4750  0.6343
 6425TIP3    H119281   2.589   4.511   0.723 -1.8396 -0.7024  0.5669
 6425TIP3    H219282   2.603   4.639   0.643  1.1310 -2.4509 -1.9769
 6426TIP3   OH219283   1.988   1.236   4.801  0.2073  0.1315 -0.2531
 6426TIP3    H119284   2.077   1.211   4.825 -0.4124 -1.3779  0.6233
 6426TIP3    H219285   1.963   1.175   4.731 -0.5106 -0.1975  0.2715
 6427TIP3   OH219286   1.632   2.605   2.685 -0.1647  0.7217 -1.2067
 6427TIP3    H119287   1.550   2.643   2.654  0.9379  1.8509 -2.8926
 6427TIP3    H219288   1.649   2.648   2.768  0.2089  2.7576 -2.2830
 6428TIP3   OH219289   4.795   4.179   4.466  0.2591 -0.6999  0.1492
 6428TIP3    H119290   4.802   4.271   4.491  1.8595 -0.3428 -1.4600
 6428TIP3    H219291   4.720   4.147   4.517 -0.4737  1.5149  0.6000
 6429TIP3   OH219292   6.167   5.576   4.894  0.2287 -0.7396 -0.4760
 6429TIP3    H119293   6.176   5.568   4.799  1.9146 -1.2353 -0.3057
 6429TIP3    H219294   6.254   5.557   4.929 -0.3625 -0.6330  1.1852
 6430TIP3   OH219295   0.420   2.363   2.987 -0.2360 -0.5583  0.0086
 6430TIP3    H119296   0.340   2.358   2.934 -1.2785 -2.4556  1.6071
 6430TIP3    H219297   0.421   2.280   3.036  2.4194 -0.3242  0.4906
 6431TIP3   OH219298   0.875   2.042   3.628 -0.3743  0.3811  0.6373
 6431TIP3    H119299   0.875   2.090   3.711  3.1497 -0.8337  1.5515
 6431TIP3    H219300   0.933   2.092   3.571 -0.2248 -0.4558  0.0347
 6432TIP3   OH219301   5.937   3.816   2.176 -0.1173  0.4201  0.6605
 6432TIP3    H119302   5.951   3.725   2.153 -1.4507  0.2450  0.4405
 6432TIP3    H219303   5.888   3.813   2.259 -2.6170  0.8096 -0.7092
 6433TIP3   OH219304   1.764   2.396   4.010  0.3765  0.3888 -1.0160
 6433TIP3    H119305   1.737   2.333   3.943 -1.4921 -0.0801  0.1017
 6433TIP3    H219306   1.859   2.403   3.999  0.1517  0.2961 -3.6459
 6434TIP3   OH219307   2.644   1.635   2.806  0.6743 -0.2956  0.0326
 6434TIP3    H119308   2.653   1.582   2.727 -0.4873  0.6086 -0.7515
 6434TIP3    H219309   2.684   1.719   2.782  0.7902 -0.1907  0.5920
 6435TIP3   OH219310   5.561   0.535   1.308 -0.0200  0.1092  0.3407
 6435TIP3    H119311   5.555   0.609   1.247  2.2885 -0.1597 -0.2949
 6435TIP3    H219312   5.544   0.574   1.394  1.8894  1.5726  0.1183
 6436TIP3   OH219313   0.503   4.219   3.878 -0.3467  0.6370 -0.2084
 6436TIP3    H119314   0.449   4.294   3.903 -0.9846 -0.2895  1.3604
 6436TIP3    H219315   0.530   4.237   3.789  0.8063  3.4750  0.6169
 6437TIP3   OH219316   0.985   1.184   3.545 -0.1413 -0.2110  0.1878
 6437TIP3    H119317   1.012   1.246   3.478 -0.7493 -1.0456 -0.8495
 6437TIP3    H219318   1.062   1.175   3.602  0.0436  1.2699  0.2168
 6438TIP3   OH219319   5.946   5.408   3.542 -0.7790 -0.3243  0.4596
 6438TIP3    H119320   5.857   5.443   3.531 -1.1452 -1.4153 -0.2370
 6438TIP3    H219321   5.936   5.334   3.601 -0.4857 -0.9825 -0.2915
 6439TIP3   OH219322   2.742   2.433   1.243 -0.1112 -0.4034 -0.5117
 6439TIP3    H119323   2.827   2.390   1.256 -0.2968 -0.4442  0.7156
 6439TIP3    H219324   2.680   2.379   1.292 -0.3866  1.0878  0.8510
 6440TIP3   OH219325   5.960   4.016   3.712 -0.4056 -0.0087 -0.8659
 6440TIP3    H119326   6.005   4.057   3.638 -0.2182  1.3112 -0.0654
 6440TIP3    H219327   6.024   3.954   3.748  0.6642  1.4953 -0.0337
 6441TIP3   OH219328   5.503   3.147   3.216 -0.1090 -0.0115 -0.1986
 6441TIP3    H119329   5.498   3.052   3.200  0.1739 -0.0747  0.0856
 6441TIP3    H219330   5.426   3.166   3.270  0.3991 -0.2675  0.6409
 6442TIP3   OH219331   6.349   2.293   4.440 -0.5206 -0.4233  0.2920
 6442TIP3    H119332   6.323   2.377   4.478  0.8680 -0.4912  1.4820
 6442TIP3    H219333   6.299   2.227   4.489 -2.4284 -0.3021 -1.3574
 6443TIP3   OH219334   4.932   0.438   3.725 -0.2667 -0.0787  0.0291
 6443TIP3    H119335   4.929   0.379   3.800  0.2632 -0.1210  0.0259
 6443TIP3    H219336   4.895   0.520   3.758 -1.7767 -0.6356 -0.1987
 6444TIP3   OH219337   2.273   2.385   1.025 -0.2535 -0.5661  0.2233
 6444TIP3    H119338   2.180   2.395   1.047 -0.1069  0.2265  0.5205
 6444TIP3    H219339   2.312   2.469   1.048  0.3594 -0.5484 -0.8102
 6445TIP3   OH219340   3.470   3.352   4.670  0.2222  0.0854  0.0489
 6445TIP3    H119341   3.400   3.373   4.609 -1.2850  0.1598  1.7061
 6445TIP3    H219342   3.461   3.258   4.685 -2.5215  0.6721  3.5415
 6446TIP3   OH219343   2.604   4.112   3.833  0.8464 -0.2716 -0.1081
 6446TIP3    H119344   2.569   4.025   3.855 -1.6791  0.8774  0.7663
 6446TIP3    H219345   2.578   4.125   3.742 -4.4114  1.8617  1.3444
 6447TIP3   OH219346   2.394   2.592   4.860 -0.0704  0.3461  0.2253
 6447TIP3    H119347   2.338   2.639   4.798 -0.1362 -0.5725 -0.4357
 6447TIP3    H219348   2.452   2.540   4.805  1.6874  1.5187  0.8953
 6448TIP3   OH219349   5.043   5.077   2.926 -0.2678  0.2677 -0.9595
 6448TIP3    H119350   4.948   5.066   2.923 -0.0842 -1.4516 -1.4084
 6448TIP3    H219351   5.057   5.140   2.996 -1.6891 -0.4150 -0.0073
 6449TIP3   OH219352   1.808   4.485   2.361 -0.1865  0.0030 -0.2351
 6449TIP3    H119353   1.774   4.494   2.272 -0.8704  1.2307  0.1282
 6449TIP3    H219354   1.851   4.400   2.362  0.6227  0.3640 -1.9976
 6450TIP3   OH219355   2.336   2.683   1.594  0.4652 -0.2144  0.4664
 6450TIP3    H119356   2.241   2.684   1.597  0.3930  1.6858 -0.5673
 6450TIP3    H219357   2.363   2.648   1.679 -1.1328 -1.5750  0.4444
 6451TIP3   OH219358   2.911   2.393   0.106 -0.6845  0.1413  0.2730
 6451TIP3    H119359   2.998   2.419   0.137 -0.4286 -0.3970  0.0183
 6451TIP3    H219360   2.855   2.468   0.127 -0.7546 -0.5635  2.9628
 6452TIP3   OH219361   1.382   4.214   4.637 -0.3509 -0.3443  0.7441
 6452TIP3    H119362   1.348   4.303   4.626  0.4072 -0.1869 -0.6885
 6452TIP3    H219363   1.441   4.220   4.712  0.8029  0.7456 -0.2021
 6453TIP3   OH219364   1.967   4.265   2.397  0.6877  0.2829 -0.2804
 6453TIP3    H119365   1.980   4.196   2.462  3.1544  2.0177  1.2325
 6453TIP3    H219366   2.050   4.270   2.350 -0.3889  0.4209 -2.2514
 6454TIP3   OH219367   5.248   4.232   2.229  0.2963 -0.0216 -0.2135
 6454TIP3    H119368   5.212   4.286   2.159  1.0747  0.0984 -0.5299
 6454TIP3    H219369   5.193   4.252   2.305  0.2959  0.8704 -0.4393
 6455TIP3   OH219370   1.323   4.015   4.452  0.5274  0.6690  0.7135
 6455TIP3    H119371   1.365   4.070   4.518  0.1530  1.3330  0.4200
 6455TIP3    H219372   1.349   4.054   4.368  0.5345  0.1854  0.4891
 6456TIP3   OH219373   2.351   4.382   3.938 -0.2052  0.3034  0.1432
 6456TIP3    H119374   2.357   4.449   3.870  1.8499  0.7598  0.6962
 6456TIP3    H219375   2.297   4.314   3.899 -0.8159  1.4601 -1.1392
 6457TIP3   OH219376   0.645   3.524   4.980 -0.1857  0.2107  0.1088
 6457TIP3    H119377   0.639   3.541   4.886 -0.0063 -0.6485 -0.0593
 6457TIP3    H219378   0.555   3.507   5.008  0.0115 -1.7868 -0.3493
 6458TIP3   OH219379   2.836   4.167   3.186  0.2517 -0.5344 -0.5674
 6458TIP3    H119380   2.800   4.117   3.258 -0.5656  0.9586  0.0961
 6458TIP3    H219381   2.918   4.203   3.220  0.0947 -0.2076 -0.5290
 6459TIP3   OH219382   2.243   0.203   3.296 -0.0911 -0.2788 -0.8333
 6459TIP3    H119383   2.269   0.112   3.308 -0.3639 -0.6759 -2.9575
 6459TIP3    H219384   2.260   0.221   3.204  0.3723  1.9722 -0.3690
 6460TIP3   OH219385   2.080   5.988   0.134 -0.1949 -0.0443  0.1720
 6460TIP3    H119386   2.047   5.901   0.112 -0.9112  0.3407 -0.2806
 6460TIP3    H219387   2.003   6.044   0.139  0.1405  0.3523  1.5579
 6461TIP3   OH219388   1.231   2.405   0.451  0.0605  0.1608 -0.0879
 6461TIP3    H119389   1.180   2.385   0.529  1.1621  1.7982  1.1256
 6461TIP3    H219390   1.278   2.324   0.431  1.7866  0.4113  2.5732
 6462TIP3   OH219391   1.601   1.367   0.068  0.1311 -1.0176 -0.5834
 6462TIP3    H119392   1.645   1.314   0.001 -0.7395 -1.7041 -0.6217
 6462TIP3    H219393   1.534   1.415   0.019  0.1349 -0.7771 -0.3538
 6463TIP3   OH219394   0.275   1.970   3.911  0.6183  0.4652  0.1972
 6463TIP3    H119395   0.232   2.008   3.987  3.4982  1.9601  1.2273
 6463TIP3    H219396   0.206   1.922   3.865 -1.2533 -0.4332  3.6589
 6464TIP3   OH219397   1.844   0.887   2.842 -0.3438  0.1438  0.0774
 6464TIP3    H119398   1.777   0.819   2.836  0.2760 -0.5958  1.0824
 6464TIP3    H219399   1.810   0.949   2.905 -0.8139  0.6612 -0.6762
 6465TIP3   OH219400   3.662   1.972   4.138  0.5267 -0.0914 -0.3309
 6465TIP3    H119401   3.598   2.041   4.118  1.3302  0.0744 -2.5374
 6465TIP3    H219402   3.610   1.891   4.139 -0.0336  0.2603  0.0001
 6466TIP3   OH219403   4.722   4.798   3.148 -0.1102 -0.1529 -0.2509
 6466TIP3    H119404   4.798   4.853   3.168 -0.2770 -0.7372  2.3280
 6466TIP3    H219405   4.759   4.721   3.104  0.7891 -0.2389  0.6101
 6467TIP3   OH219406   1.274   5.115   0.527 -0.3093 -0.2334 -0.3691
 6467TIP3    H119407   1.342   5.049   0.536 -0.3137 -0.0707  1.2941
 6467TIP3    H219408   1.320   5.194   0.500 -0.1753 -0.6730 -1.4624
 6468TIP3   OH219409   2.963   5.341   2.694 -0.2213  0.1005  0.0505
 6468TIP3    H119410   2.902   5.283   2.648  0.5804  0.2969 -1.3128
 6468TIP3    H219411   3.001   5.286   2.762 -0.7221 -0.4896 -0.1338
 6469TIP3   OH219412   4.662   0.430   4.966  0.3366 -0.3897 -0.5978
 6469TIP3    H119413   4.571   0.447   4.988  0.6460 -0.2998  0.7151
 6469TIP3    H219414   4.706   0.514   4.980  0.6324 -0.4445 -1.1788
 6470TIP3   OH219415   2.015   5.235   4.467 -0.2422 -0.0347 -0.0357
 6470TIP3    H119416   2.040   5.289   4.392  0.0097  0.5949  0.4948
 6470TIP3    H219417   1.932   5.273   4.497 -1.4727 -1.6160 -1.3008
 6471TIP3   OH219418   0.218   3.317   3.573  0.0759  0.3736  0.1361
 6471TIP3    H119419   0.159   3.338   3.645 -0.1577 -0.2642  0.1322
 6471TIP3    H219420   0.284   3.259   3.611 -1.0330 -1.3960 -0.5319
 6472TIP3   OH219421   6.016   0.088   2.135  0.3968 -0.1700 -0.1863
 6472TIP3    H119422   6.006  -0.004   2.113  0.6057 -0.4376  0.8012
 6472TIP3    H219423   5.953   0.103   2.206 -0.5002  0.7466 -1.1312
 6473TIP3   OH219424   4.196   0.951   0.257 -1.5686  0.0792  0.7514
 6473TIP3    H119425   4.252   1.018   0.219 -1.4745 -1.1955 -1.5181
 6473TIP3    H219426   4.256   0.893   0.304 -1.2577 -0.0780  0.1654
 6474TIP3   OH219427   5.395   0.820   1.126 -0.2392 -0.3406  0.4906
 6474TIP3    H119428   5.404   0.792   1.217 -0.3447 -0.5560  0.4363
 6474TIP3    H219429   5.307   0.792   1.100  0.0481 -0.9207  0.1111
 6475TIP3   OH219430   2.830   1.171   2.353 -0.0940 -0.1112 -0.7746
 6475TIP3    H119431   2.866   1.120   2.426 -0.9888 -0.0718 -0.2922
 6475TIP3    H219432   2.873   1.256   2.359 -2.1745  0.9164  1.4924
 6476TIP3   OH219433   1.128   0.798   4.206 -0.0790  0.0495  0.3839
 6476TIP3    H119434   1.195   0.853   4.164  0.3341  0.4051  1.4505
 6476TIP3    H219435   1.083   0.755   4.134  0.4519  0.8043 -0.4227
 6477TIP3   OH219436   0.600   1.114   2.208  0.2439 -0.2212  0.3627
 6477TIP3    H119437   0.557   1.061   2.275 -1.4615  1.1918  0.4668
 6477TIP3    H219438   0.629   1.192   2.256 -2.2077  1.4433 -0.7082
 6478TIP3   OH219439   2.472   5.884   4.630 -0.1536 -0.2081 -0.4027
 6478TIP3    H119440   2.562   5.912   4.613 -0.0052  0.5147  1.3873
 6478TIP3    H219441   2.481   5.802   4.679 -0.5018 -0.6486 -1.0641
 6479TIP3   OH219442   2.276   1.616   0.826 -0.1162 -0.5214  0.7155
 6479TIP3    H119443   2.304   1.541   0.774  0.8168  0.4047 -0.1527
 6479TIP3    H219444   2.244   1.680   0.763  1.7026  0.9093  1.1284
 6480TIP3   OH219445   6.342   1.285   1.983 -0.1642  0.2727  0.4909
 6480TIP3    H119446   6.285   1.334   1.924 -1.7167 -2.2412 -0.2404
 6480TIP3    H219447   6.405   1.242   1.926 -0.1718 -0.2683  0.8792
 6481TIP3   OH219448   1.727   0.101   3.756 -0.0463  0.0341 -0.2363
 6481TIP3    H119449   1.781   0.026   3.779 -0.0722 -0.0958 -0.6019
 6481TIP3    H219450   1.789   0.166   3.722 -0.0559  0.0850 -0.1580
 6482TIP3   OH219451   5.398   3.972   2.968 -0.3672  0.2617 -0.2967
 6482TIP3    H119452   5.445   4.054   2.950 -0.1890 -0.1295 -1.7163
 6482TIP3    H219453   5.410   3.958   3.062  0.3251  1.4218 -0.1927
 6483TIP3   OH219454   5.126   2.528   2.081  0.6065  1.0022  0.1540
 6483TIP3    H119455   5.148   2.526   2.175 -0.6182 -2.6835  0.5148
 6483TIP3    H219456   5.209   2.545   2.038  2.0054 -0.9285  1.8602
 6484TIP3   OH219457   3.166   2.435   0.204  0.2375  0.0127 -0.4434
 6484TIP3    H119458   3.166   2.528   0.228  1.4721  0.2288 -1.2108
 6484TIP3    H219459   3.207   2.391   0.278 -0.7505  0.0058  0.1180
 6485TIP3   OH219460   1.446   3.799   4.295  0.1188  0.3024 -0.1232
 6485TIP3    H119461   1.501   3.847   4.233  0.0102  0.3855 -0.1551
 6485TIP3    H219462   1.382   3.863   4.325 -0.1804  0.1129 -0.3541
 6486TIP3   OH219463   2.213   0.969   1.047  0.1463 -0.0604 -0.4276
 6486TIP3    H119464   2.142   0.996   1.105  1.7933  0.2355  1.5883
 6486TIP3    H219465   2.255   0.896   1.093  1.5844  0.2464 -1.1971
 6487TIP3   OH219466   2.369   5.919   2.236  0.3167  0.2287 -0.9194
 6487TIP3    H119467   2.390   5.825   2.231 -0.4149  0.0548 -0.9260
 6487TIP3    H219468   2.329   5.930   2.322 -1.0159  0.2158 -1.5113
 6488TIP3   OH219469   1.897   3.460   2.554 -0.3994 -0.1369  0.4836
 6488TIP3    H119470   1.966   3.429   2.495  1.3435  1.9229  1.3014
 6488TIP3    H219471   1.818   3.462   2.501  0.9355  0.9038 -1.5830
 6489TIP3   OH219472   5.643   1.366   3.049  0.2985  0.0522  0.2081
 6489TIP3    H119473   5.627   1.411   2.966 -1.3119  0.1721  0.5364
 6489TIP3    H219474   5.608   1.425   3.115  1.0780 -0.2807  0.9283
 6490TIP3   OH219475   0.092   5.074   2.543  0.3154 -0.6254 -0.4331
 6490TIP3    H119476   0.166   5.126   2.574 -0.2544  1.3826 -2.1989
 6490TIP3    H219477   0.023   5.090   2.607  0.2323  0.5884 -0.8164
 6491TIP3   OH219478   5.559   1.098   0.215  0.8662  0.5326  0.0643
 6491TIP3    H119479   5.573   1.019   0.163  2.8989  0.0928  1.1853
 6491TIP3    H219480   5.580   1.170   0.155 -0.2409  0.2277 -0.7270
 6492TIP3   OH219481   1.451   2.962   5.041 -0.0498  0.7457  0.7036
 6492TIP3    H119482   1.541   2.985   5.063 -0.1396  0.6736  1.1547
 6492TIP3    H219483   1.401   3.042   5.057  0.2150  1.4147 -1.4408
 6493TIP3   OH219484   3.777   2.233   3.999 -0.5597 -0.6316 -0.0084
 6493TIP3    H119485   3.771   2.295   3.926 -2.1846  0.8476  1.2731
 6493TIP3    H219486   3.871   2.226   4.017 -0.1949 -0.3017 -1.6155
 6494TIP3   OH219487   1.904   1.996   1.725  0.6108 -0.2751 -0.7451
 6494TIP3    H119488   1.978   1.939   1.704  0.4531 -0.9856  0.5488
 6494TIP3    H219489   1.945   2.076   1.759  0.7964 -0.5225 -0.3822
 6495TIP3   OH219490   3.960   4.959   2.849  0.0102  0.1087 -0.2444
 6495TIP3    H119491   3.940   4.866   2.852 -1.0291  0.2813 -1.1454
 6495TIP3    H219492   3.887   4.998   2.800  1.5594  1.0638 -1.9294
 6496TIP3   OH219493   1.142   2.398   1.963  0.0056 -0.1273  0.3010
 6496TIP3    H119494   1.113   2.488   1.955 -0.5391 -0.3323 -0.0416
 6496TIP3    H219495   1.076   2.346   1.918 -0.6911 -0.8745  2.0846
 6497TIP3   OH219496   0.754   4.214   1.164  0.0785  0.6000  0.2632
 6497TIP3    H119497   0.764   4.119   1.168 -0.5757  0.5246  0.2591
 6497TIP3    H219498   0.705   4.229   1.083  0.1240  0.9318  0.2985
 6498TIP3   OH219499   2.245   2.243   2.051 -0.2274  0.3901  0.5348
 6498TIP3    H119500   2.310   2.235   1.982  0.7115  3.4525  0.9338
 6498TIP3    H219501   2.272   2.178   2.117  1.2019  0.1657 -0.2345
 6499TIP3   OH219502   5.977   5.491   0.456  0.1934  0.0758 -0.3784
 6499TIP3    H119503   6.029   5.498   0.536  0.0439 -1.9770 -0.0344
 6499TIP3    H219504   5.995   5.403   0.424 -0.1385  0.6916 -2.3533
 6500TIP3   OH219505   6.215   1.149   1.209 -0.4101 -0.2068 -0.4117
 6500TIP3    H119506   6.308   1.134   1.190 -0.5282 -1.0672 -0.3600
 6500TIP3    H219507   6.171   1.069   1.179 -1.0928  0.0619 -0.1513
 6501TIP3   OH219508   3.288   1.681   2.672 -0.3205 -0.5406  0.1752
 6501TIP3    H119509   3.372   1.648   2.707 -0.4525 -1.7951 -0.6213
 6501TIP3    H219510   3.302   1.775   2.661  0.3593 -0.4227  1.7848
 6502TIP3   OH219511   6.013   3.066   0.682 -0.2044  0.0846 -0.8006
 6502TIP3    H119512   5.979   3.137   0.737  0.7354  0.3882 -0.6048
 6502TIP3    H219513   6.027   3.106   0.597  3.5179  1.1016  0.1215
 6503TIP3   OH219514   5.192   1.911   0.805 -0.3171 -0.1510 -0.1939
 6503TIP3    H119515   5.286   1.893   0.800 -0.1297  0.4877  0.6762
 6503TIP3    H219516   5.183   2.001   0.774 -0.4553  0.2354  0.9131
 6504TIP3   OH219517   3.898   2.694   0.521  0.2568 -0.1303 -0.2568
 6504TIP3    H119518   3.850   2.751   0.460  1.4320  1.7710  0.4838
 6504TIP3    H219519   3.988   2.696   0.488  0.3182 -1.6731 -0.2478
 6505TIP3   OH219520   3.597   2.734   3.666  0.3546  0.0720  0.1066
 6505TIP3    H119521   3.685   2.696   3.656  0.9369  1.1489  0.8841
 6505TIP3    H219522   3.596   2.766   3.757 -0.1562  1.7571 -0.4638
 6506TIP3   OH219523   5.147   3.051   4.412  0.6647  0.3032  0.2496
 6506TIP3    H119524   5.232   3.053   4.368  1.0177 -1.4999  0.7733
 6506TIP3    H219525   5.137   3.139   4.448  2.3524  0.5314  0.2584
 6507TIP3   OH219526   2.199   0.902   0.320  0.3067  0.0717  0.3053
 6507TIP3    H119527   2.114   0.944   0.307 -0.2771 -1.0956  0.1178
 6507TIP3    H219528   2.227   0.876   0.232 -0.0922 -1.2593  0.5376
 6508TIP3   OH219529   1.278   0.858   1.190  0.6607  0.3436  0.1874
 6508TIP3    H119530   1.329   0.845   1.270  2.8007  2.2101 -0.7448
 6508TIP3    H219531   1.310   0.791   1.130  0.0526 -0.1736  0.4276
 6509TIP3   OH219532   4.647   0.497   2.498 -0.9415 -0.1561 -0.2637
 6509TIP3    H119533   4.658   0.592   2.491  0.1321 -0.0660  1.9698
 6509TIP3    H219534   4.735   0.463   2.512 -1.3957 -1.4222 -0.3296
 6510TIP3   OH219535   4.743   1.976   3.410 -1.0797  0.0570 -0.1351
 6510TIP3    H119536   4.670   1.921   3.438 -0.8705 -0.5239 -0.7175
 6510TIP3    H219537   4.793   1.921   3.350 -1.3422  1.1667 -1.4086
 6511TIP3   OH219538   3.735   4.221   1.597  0.2856  0.1504 -0.0799
 6511TIP3    H119539   3.696   4.133   1.598 -1.7326  0.9849  2.1054
 6511TIP3    H219540   3.732   4.247   1.505 -1.1502 -1.2115 -0.4621
 6512TIP3   OH219541   6.316   0.686   4.361 -0.2846  0.3636  0.1669
 6512TIP3    H119542   6.332   0.779   4.376  1.4407  0.1755 -0.3009
 6512TIP3    H219543   6.288   0.652   4.446 -1.5678  1.4081  0.1929
 6513TIP3   OH219544   5.282   3.204   0.843  0.5522 -0.2815 -0.3773
 6513TIP3    H119545   5.361   3.163   0.808  0.8277 -0.6223  0.6379
 6513TIP3    H219546   5.210   3.160   0.798  0.9329  0.6700 -2.0095
 6514TIP3   OH219547   2.443   2.666   4.240  0.0331 -0.2737 -0.5145
 6514TIP3    H119548   2.379   2.595   4.240 -0.2242 -0.0547  0.4846
 6514TIP3    H219549   2.465   2.678   4.147 -0.4898 -1.1328 -0.7676
 6515TIP3   OH219550   2.661   3.513   3.814 -0.1141 -0.2285  0.8664
 6515TIP3    H119551   2.638   3.550   3.899  0.6292  0.0656  0.9468
 6515TIP3    H219552   2.629   3.423   3.817 -0.5009 -0.0777  1.2839
 6516TIP3   OH219553   1.247   3.740   2.023  0.0274  0.0817 -0.1723
 6516TIP3    H119554   1.327   3.787   2.048 -0.4576  0.4339  0.7587
 6516TIP3    H219555   1.176   3.798   2.050 -0.5643 -0.6652 -0.0991
 6517TIP3   OH219556   5.829   5.767   2.659  0.9119  0.5210  0.7738
 6517TIP3    H119557   5.859   5.804   2.742  1.3576  2.6610 -0.2664
 6517TIP3    H219558   5.905   5.774   2.601  0.4846 -0.5617  0.0497
 6518TIP3   OH219559   2.056   1.445   0.644  0.1922  0.5772 -0.2573
 6518TIP3    H119560   2.027   1.357   0.621  0.8636 -0.2892  1.8686
 6518TIP3    H219561   2.151   1.443   0.632  0.5202  0.2090  1.8847
 6519TIP3   OH219562   5.929   0.117   5.051  0.3579 -0.6091  0.1077
 6519TIP3    H119563   5.970   0.077   5.128  0.6901  1.0263  0.8448
 6519TIP3    H219564   5.914   0.208   5.077 -2.4004 -0.7472 -0.6922
 6520TIP3   OH219565   2.779   4.470   3.866 -0.1374 -0.1654  0.3802
 6520TIP3    H119566   2.766   4.471   3.771  0.6920  0.0224  0.2563
 6520TIP3    H219567   2.853   4.411   3.880 -0.3370 -0.2958  0.9241
 6521TIP3   OH219568   2.808   5.133   2.575 -0.1128  0.5914  0.2542
 6521TIP3    H119569   2.727   5.149   2.624  0.1839 -0.0610  0.9750
 6521TIP3    H219570   2.794   5.049   2.532  0.5746 -0.0729  1.2656
 6522TIP3   OH219571   5.254   0.766   2.108 -0.6113 -0.6922 -0.1161
 6522TIP3    H119572   5.222   0.763   2.017 -1.4489 -0.1395  0.1476
 6522TIP3    H219573   5.232   0.854   2.138 -0.5690 -0.9564  0.7084
 6523TIP3   OH219574   4.036   4.313   4.511  0.3010  0.0705 -0.4431
 6523TIP3    H119575   4.116   4.337   4.465 -0.3494  1.7367 -0.7718
 6523TIP3    H219576   3.973   4.293   4.442  0.1055 -0.0854 -0.2213
 6524TIP3   OH219577   0.682   3.600   1.123 -0.0272  0.3676 -0.2649
 6524TIP3    H119578   0.587   3.605   1.131 -0.0530  2.1911 -1.1757
 6524TIP3    H219579   0.699   3.608   1.029  0.9752 -2.1038 -0.3718
 6525TIP3   OH219580   6.110   2.526   0.443  0.0804  0.5544  0.4952
 6525TIP3    H119581   6.065   2.597   0.397 -0.4780 -0.8809 -1.3065
 6525TIP3    H219582   6.156   2.478   0.373 -1.0826 -1.9412  1.3313
 6526TIP3   OH219583   5.176   2.248   4.297  0.2208 -0.7744 -0.2036
 6526TIP3    H119584   5.256   2.248   4.349  0.2015  0.3957 -0.1634
 6526TIP3    H219585   5.183   2.323   4.239 -1.1108 -0.2844  0.2231
 6527TIP3   OH219586   4.807   5.562   4.595  0.0064  0.6334  0.1153
 6527TIP3    H119587   4.839   5.483   4.552 -0.5830  0.2955  0.2967
 6527TIP3    H219588   4.739   5.595   4.536 -1.1373 -0.0870  0.9886
 6528TIP3   OH219589   3.822   0.348   0.636  0.1002  0.3785  0.2705
 6528TIP3    H119590   3.883   0.349   0.711  0.9080 -1.7118 -0.2840
 6528TIP3    H219591   3.747   0.298   0.668 -0.3428  1.0135  0.2310
 6529TIP3   OH219592   0.644   0.439   4.290  0.2460 -0.5869 -0.0148
 6529TIP3    H119593   0.658   0.404   4.377 -1.0677  2.7426  1.7340
 6529TIP3    H219594   0.554   0.413   4.268  1.1151 -2.8241 -1.2194
 6530TIP3   OH219595   2.352   5.872   4.162  0.2504 -0.5334 -0.2156
 6530TIP3    H119596   2.377   5.955   4.121  0.4613  0.7537  2.3219
 6530TIP3    H219597   2.261   5.860   4.137  0.3313  0.2598 -0.9402
 6531TIP3   OH219598   4.532   4.242   1.947  0.4451 -0.1089 -0.1012
 6531TIP3    H119599   4.615   4.195   1.956 -0.4320 -1.5903  0.6286
 6531TIP3    H219600   4.503   4.221   1.858  0.0958 -0.9179  0.1940
 6532TIP3   OH219601   2.118   4.110   0.853  0.5245  0.1211  0.4864
 6532TIP3    H119602   2.142   4.128   0.762 -0.5615 -1.2172 -0.1146
 6532TIP3    H219603   2.137   4.016   0.864  4.0611  0.9104  2.7958
 6533TIP3   OH219604   0.750   2.501   1.817 -0.3369  0.1634 -0.4097
 6533TIP3    H119605   0.772   2.445   1.890 -1.8584  0.6896  0.4999
 6533TIP3    H219606   0.834   2.536   1.787  0.3191 -0.0870  1.0607
 6534TIP3   OH219607   5.425   2.527   0.137  0.1548 -0.1970  0.8333
 6534TIP3    H119608   5.402   2.460   0.073  2.3302 -3.0058  2.6932
 6534TIP3    H219609   5.516   2.549   0.117 -0.6401  2.7581 -0.0363
 6535TIP3   OH219610   2.377   0.296   0.382 -0.1595 -0.1745 -0.6578
 6535TIP3    H119611   2.335   0.219   0.419  2.9442 -1.6846  0.0683
 6535TIP3    H219612   2.393   0.273   0.290  0.1643 -0.1486 -0.6112
 6536TIP3   OH219613   0.027   2.763   4.444 -0.3968  0.1651  0.1248
 6536TIP3    H119614   0.047   2.855   4.462 -2.6515  0.6350  0.6303
 6536TIP3    H219615   0.055   2.750   4.354  0.9365  1.0264  0.3882
 6537TIP3   OH219616   5.119   2.831   1.689 -0.1146 -0.0684 -0.0917
 6537TIP3    H119617   5.211   2.805   1.684 -0.6114 -2.1322  0.2907
 6537TIP3    H219618   5.108   2.897   1.621  1.6204  0.1292 -0.2028
 6538TIP3   OH219619   0.731   0.253   3.357 -0.0805 -0.1867 -0.6421
 6538TIP3    H119620   0.733   0.216   3.446 -0.5126  0.3612 -0.4033
 6538TIP3    H219621   0.642   0.235   3.326 -0.1499  0.2520 -0.6953
 6539TIP3   OH219622   2.031   5.920   1.686  0.6317  0.6491 -0.1890
 6539TIP3    H119623   1.994   6.001   1.653 -1.0375 -0.5297 -1.3947
 6539TIP3    H219624   2.108   5.947   1.737 -1.1286  3.1121  1.3479
 6540TIP3   OH219625   0.861   4.418   1.785 -0.5729 -0.0233  0.7727
 6540TIP3    H119626   0.815   4.365   1.720  0.7364  1.9414 -1.9233
 6540TIP3    H219627   0.804   4.494   1.799 -0.1626  0.2788  0.8008
 6541TIP3   OH219628   1.039   1.021   1.675  0.1339  0.1682  0.2885
 6541TIP3    H119629   0.995   0.942   1.707  1.9227 -1.2137 -0.4171
 6541TIP3    H219630   1.116   1.030   1.732  0.3519  0.9606 -0.1172
 6542TIP3   OH219631   4.299   4.656   1.513  0.0121 -0.4022 -0.3472
 6542TIP3    H119632   4.259   4.682   1.596  2.3766  0.0960  0.7189
 6542TIP3    H219633   4.306   4.560   1.519 -0.2858 -0.4184 -0.2077
 6543TIP3   OH219634   5.563   0.152   2.302 -0.0410 -0.2458 -1.0387
 6543TIP3    H119635   5.495   0.210   2.338  0.1135 -1.1540  0.8203
 6543TIP3    H219636   5.514   0.077   2.267 -0.0672 -0.3950 -0.6865
 6544TIP3   OH219637   3.258   4.083   4.737  0.0991  0.4471  0.1025
 6544TIP3    H119638   3.269   4.085   4.832  0.8534  0.9441  0.0137
 6544TIP3    H219639   3.344   4.108   4.702 -0.1988  0.3752 -0.7081
 6545TIP3   OH219640   5.736   3.018   1.926 -0.4478  0.1940  0.4653
 6545TIP3    H119641   5.824   3.018   1.888 -1.6300  0.1387 -2.5999
 6545TIP3    H219642   5.695   3.097   1.892 -2.2510 -0.9097 -0.0790
 6546TIP3   OH219643   5.376   0.111   1.333 -0.2934  0.6627  0.0223
 6546TIP3    H119644   5.418   0.174   1.275  0.5969 -0.8737 -1.1104
 6546TIP3    H219645   5.296   0.085   1.287  0.1385 -0.1557 -0.2998
 6547TIP3   OH219646   6.250   3.669   0.269 -0.3969  0.4165 -0.3211
 6547TIP3    H119647   6.255   3.575   0.253  0.9103  0.5304 -0.6730
 6547TIP3    H219648   6.165   3.695   0.233 -0.2891 -0.4357 -1.2232
 6548TIP3   OH219649   5.946   1.864   0.282  0.3090  0.0355  0.1659
 6548TIP3    H119650   5.926   1.955   0.260 -0.3431 -0.2571 -0.4853
 6548TIP3    H219651   6.027   1.869   0.332 -0.5394  1.1184  1.4910
 6549TIP3   OH219652   3.199   4.772   2.156  0.1230  0.0741 -0.1037
 6549TIP3    H119653   3.237   4.851   2.118  1.0636 -0.5463 -0.5013
 6549TIP3    H219654   3.205   4.707   2.086 -0.3763 -0.4320  0.3115
 6550TIP3   OH219655   4.501   4.563   3.974  0.0515 -0.2292 -0.2846
 6550TIP3    H119656   4.542   4.642   3.940  0.2650 -0.1094  0.2362
 6550TIP3    H219657   4.573   4.513   4.013  0.0788 -1.1340 -1.4444
 6551TIP3   OH219658   3.871   5.282   3.376 -0.2584  0.4190 -0.2145
 6551TIP3    H119659   3.830   5.274   3.290 -1.2563 -0.7977  0.3471
 6551TIP3    H219660   3.917   5.198   3.388 -1.7664 -0.2530  1.2370
 6552TIP3   OH219661   1.041   0.437   4.895 -0.1440 -0.0640 -0.2923
 6552TIP3    H119662   1.072   0.515   4.849 -0.4671 -0.6330 -1.5192
 6552TIP3    H219663   1.018   0.376   4.825 -2.1125 -0.4086  0.6020
 6553TIP3   OH219664   2.088   2.149   3.622  0.5688 -0.0967 -0.3952
 6553TIP3    H119665   2.033   2.121   3.695  0.2646  1.3510 -0.0299
 6553TIP3    H219666   2.063   2.093   3.549 -1.8368  0.8844 -0.4174
 6554TIP3   OH219667   2.448   2.412   0.657 -0.4447  0.6427  0.3318
 6554TIP3    H119668   2.440   2.507   0.665  3.7928  1.1430  0.8861
 6554TIP3    H219669   2.487   2.399   0.570  0.3765 -0.4126  0.8350
 6555TIP3   OH219670   5.758   4.662   0.113 -0.3859 -0.6812  0.4164
 6555TIP3    H119671   5.853   4.667   0.121 -0.5005  2.9780  1.8180
 6555TIP3    H219672   5.731   4.603   0.184  0.7697  0.0161  1.4773
 6556TIP3   OH219673   3.087   2.460   2.305 -0.2606 -0.5012  0.1565
 6556TIP3    H119674   3.181   2.442   2.303 -0.2991 -0.7001 -1.8692
 6556TIP3    H219675   3.081   2.554   2.319  0.3068 -0.3124 -0.7396
 6557TIP3   OH219676   4.812   1.702   2.367  0.2480 -0.4999  0.4929
 6557TIP3    H119677   4.767   1.735   2.445  0.0610  1.1766 -0.2866
 6557TIP3    H219678   4.894   1.667   2.400 -0.1858 -0.5876  1.5416
 6558TIP3   OH219679   1.743   3.993   2.385 -0.5245 -0.2331 -0.2073
 6558TIP3    H119680   1.721   4.032   2.301  0.5371 -0.3018 -0.5329
 6558TIP3    H219681   1.716   4.059   2.450 -0.6841  0.1285 -0.6385
 6559TIP3   OH219682   0.084   4.339   3.506  0.6013 -0.0557  0.5926
 6559TIP3    H119683   0.136   4.377   3.435 -0.1984  1.8339  0.9625
 6559TIP3    H219684   0.021   4.282   3.462  1.7584 -0.9330  0.0079
 6560TIP3   OH219685   4.065   3.046   0.013 -0.5578  0.4102 -0.1106
 6560TIP3    H119686   4.107   3.128  -0.013 -0.5967 -0.3480 -2.8084
 6560TIP3    H219687   4.139   2.989   0.037 -0.3040  0.3039 -1.1163
 6561TIP3   OH219688   0.670   0.163   3.646  0.6227  0.0115  0.1494
 6561TIP3    H119689   0.582   0.126   3.654  0.0889  1.0016 -0.9305
 6561TIP3    H219690   0.699   0.174   3.737 -0.8142  0.7077  0.5427
 6562TIP3   OH219691   0.893   3.238   1.829  0.2535  0.2968  0.2000
 6562TIP3    H119692   0.857   3.299   1.895 -0.1246 -0.0411  0.3117
 6562TIP3    H219693   0.941   3.174   1.880  0.1059  0.1327  0.1331
 6563TIP3   OH219694   1.425   2.753   1.882  0.5207  0.2967  0.0230
 6563TIP3    H119695   1.464   2.788   1.962 -0.1375  0.4887  0.2677
 6563TIP3    H219696   1.334   2.783   1.884  0.1434 -0.7697 -0.1424
 6564TIP3   OH219697   4.268   0.363   1.687 -0.3385  0.3716 -0.2849
 6564TIP3    H119698   4.341   0.302   1.673 -1.1524 -0.6472 -0.2494
 6564TIP3    H219699   4.246   0.353   1.779 -1.2885 -0.2461 -0.5595
 6565TIP3   OH219700   1.842   4.696   2.813  0.2315  0.4293  0.3092
 6565TIP3    H119701   1.801   4.610   2.806 -0.4999  0.7475  0.5583
 6565TIP3    H219702   1.771   4.758   2.792  0.3793  1.0261  1.4863
 6566TIP3   OH219703   1.890   5.735   1.971 -0.3906  0.5427 -0.0137
 6566TIP3    H119704   1.977   5.774   1.977 -0.0379 -0.0831 -0.7858
 6566TIP3    H219705   1.836   5.803   1.931  0.2412  0.2532 -1.4463
 6567TIP3   OH219706   4.932   4.690   2.521 -0.0272 -0.6412 -0.4526
 6567TIP3    H119707   4.888   4.712   2.439 -0.9235 -0.5973  0.0337
 6567TIP3    H219708   5.025   4.701   2.501 -0.2686  0.0907 -1.2507
 6568TIP3   OH219709   5.376   5.393   0.410 -0.0883  0.1216 -0.1376
 6568TIP3    H119710   5.436   5.326   0.441 -2.5637 -2.5825 -0.7693
 6568TIP3    H219711   5.307   5.396   0.477 -1.9252 -0.7845 -1.8887
 6569TIP3   OH219712   4.113   0.713   0.742  0.6372 -0.1194  0.4889
 6569TIP3    H119713   4.170   0.789   0.746  1.1637 -0.5410  1.3324
 6569TIP3    H219714   4.098   0.699   0.648  1.6410  0.2144  0.2655
 6570TIP3   OH219715   2.883   2.921   0.850  0.3080  0.3158 -0.0185
 6570TIP3    H119716   2.803   2.917   0.796  0.4706 -0.9686 -0.2017
 6570TIP3    H219717   2.913   2.830   0.854  2.6638  0.9425 -1.3165
 6571TIP3   OH219718   0.307   0.825   5.003 -0.3973 -0.3831 -0.0807
 6571TIP3    H119719   0.243   0.875   5.054 -0.6387 -2.1427  1.4306
 6571TIP3    H219720   0.392   0.860   5.030 -0.6089  0.7076 -0.7358
 6572TIP3   OH219721   5.927   3.692   3.177  0.0752 -0.1043  0.0600
 6572TIP3    H119722   5.844   3.732   3.151  0.4606  0.1265 -0.8330
 6572TIP3    H219723   5.902   3.627   3.243 -0.8968 -0.6113 -0.7875
 6573TIP3   OH219724   4.651   1.215   0.260  0.1187  0.5093  0.1242
 6573TIP3    H119725   4.615   1.287   0.311  0.7865  0.3954  0.7711
 6573TIP3    H219726   4.639   1.243   0.169  1.1981  1.8685  0.3642
 6574TIP3   OH219727   0.649   5.224   2.547  0.1688 -0.2742 -0.1143
 6574TIP3    H119728   0.630   5.307   2.592  2.5010  1.2224 -1.6807
 6574TIP3    H219729   0.659   5.247   2.455 -1.2967 -2.7349 -1.0016
 6575TIP3   OH219730   1.451   3.415   1.774  0.5489  0.1222 -0.5511
 6575TIP3    H119731   1.481   3.444   1.860 -1.5784  1.0349 -0.0639
 6575TIP3    H219732   1.470   3.321   1.773 -0.2501 -0.1041  1.3283
 6576TIP3   OH219733   1.827   0.182   0.621 -0.1325 -0.0641  0.3549
 6576TIP3    H119734   1.742   0.140   0.609 -0.4581  0.7036 -0.0911
 6576TIP3    H219735   1.873   0.167   0.538 -1.2775  2.7323 -0.9086
 6577TIP3   OH219736   0.855   1.794   0.278  0.2997 -0.0794 -0.9513
 6577TIP3    H119737   0.896   1.746   0.350 -1.8364  0.6690  0.8718
 6577TIP3    H219738   0.851   1.730   0.207 -1.1952 -2.2664  0.9389
 6578TIP3   OH219739   0.318   5.748   1.843 -0.2892  0.4320 -0.8388
 6578TIP3    H119740   0.257   5.677   1.865  0.3888 -0.2765 -1.2089
 6578TIP3    H219741   0.324   5.801   1.923 -0.4240 -0.2064 -0.4048
 6579TIP3   OH219742   4.322   0.807   2.655  0.2805  0.5090  0.1229
 6579TIP3    H119743   4.337   0.786   2.748  0.4516  1.5260  0.3388
 6579TIP3    H219744   4.355   0.731   2.608  1.3460  0.4990  0.8490
 6580TIP3   OH219745   2.718   1.104   4.156  0.2858  0.1451  0.0556
 6580TIP3    H119746   2.753   1.031   4.207  3.1288 -0.0620 -1.9930
 6580TIP3    H219747   2.726   1.180   4.214 -0.0570 -0.6814  1.2054
 6581TIP3   OH219748   2.512   1.425   2.104 -0.4271 -0.3699  0.2256
 6581TIP3    H119749   2.521   1.422   2.008  1.0996 -1.5146  0.3781
 6581TIP3    H219750   2.598   1.454   2.135 -1.1948  0.9268  1.2408
 6582TIP3   OH219751   3.830   1.955   1.022 -0.3119  0.5774 -0.0520
 6582TIP3    H119752   3.746   1.946   0.976  1.1027 -1.2226 -2.4820
 6582TIP3    H219753   3.840   1.872   1.069 -0.9016  1.7068  2.2099
 6583TIP3   OH219754   0.835   0.653   4.231 -0.1796  0.7659 -0.6003
 6583TIP3    H119755   0.868   0.639   4.142 -0.1672 -1.4297 -0.2901
 6583TIP3    H219756   0.766   0.588   4.241  0.0114  0.8021  1.1062
 6584TIP3   OH219757   0.676   0.476   3.622 -0.1380  0.2281  0.2933
 6584TIP3    H119758   0.730   0.442   3.551  0.3267  0.7032  0.4095
 6584TIP3    H219759   0.610   0.409   3.637 -0.4791  0.2862 -0.8451
 6585TIP3   OH219760   2.673   5.031   2.198 -0.2827  0.2678 -0.0989
 6585TIP3    H119761   2.658   5.096   2.267 -1.1507  0.5511 -0.5444
 6585TIP3    H219762   2.661   5.080   2.117 -0.6170 -0.3715 -0.4385
 6586TIP3   OH219763   5.086   4.712   0.442  0.1030  0.1167  0.2695
 6586TIP3    H119764   5.178   4.709   0.415  0.0969  0.7314  0.1511
 6586TIP3    H219765   5.062   4.621   0.456  0.1157 -0.2614 -1.8260
 6587TIP3   OH219766   4.240   0.670   5.149 -0.5558 -0.1371  0.2969
 6587TIP3    H119767   4.174   0.600   5.148 -1.8113  0.9434  1.9000
 6587TIP3    H219768   4.191   0.748   5.175  1.1430  0.9643  0.3066
 6588TIP3   OH219769   2.305   0.218   4.112  0.6791 -0.2677 -0.1705
 6588TIP3    H119770   2.226   0.172   4.140  0.2118  0.5966 -0.0231
 6588TIP3    H219771   2.295   0.228   4.017 -0.8292  2.3677  0.1719
 6589TIP3   OH219772   5.770   5.203   1.178  0.5255  0.2857  0.3171
 6589TIP3    H119773   5.824   5.279   1.198  0.3559  1.2464 -2.4792
 6589TIP3    H219774   5.738   5.173   1.263  1.1427  2.9094  1.5652
 6590TIP3   OH219775   5.649   2.150   3.574  0.2305  0.1357 -0.2597
 6590TIP3    H119776   5.666   2.056   3.571 -0.2386  0.0658 -0.9409
 6590TIP3    H219777   5.623   2.173   3.485 -1.7205  0.5204  0.3665
 6591TIP3   OH219778   5.066   0.847   1.763  0.2824  0.1700 -0.1978
 6591TIP3    H119779   5.144   0.813   1.719  1.1093  1.2302  0.4013
 6591TIP3    H219780   5.016   0.890   1.694 -0.1372 -1.1021 -0.7151
 6592TIP3   OH219781   0.286   0.742   1.995 -0.8552  0.0840  0.0674
 6592TIP3    H119782   0.336   0.797   2.056  0.0648  0.8966 -1.3608
 6592TIP3    H219783   0.201   0.730   2.038  0.0889 -0.2389  1.9595
 6593TIP3   OH219784   4.717   2.569   1.315 -0.1694 -0.1105  0.4007
 6593TIP3    H119785   4.661   2.549   1.240  1.7587 -0.4099 -1.0488
 6593TIP3    H219786   4.779   2.496   1.319  0.3094  0.3412  1.7286
 6594TIP3   OH219787   0.935   0.645   1.396 -0.0188  0.1111 -0.5053
 6594TIP3    H119788   0.872   0.709   1.363  0.7395  0.3577 -1.5157
 6594TIP3    H219789   0.972   0.605   1.318  0.5185 -0.5881  0.0931
 6595TIP3   OH219790   2.785   2.958   3.895 -0.0509  0.1460 -0.2264
 6595TIP3    H119791   2.703   2.910   3.882  0.2328 -0.6024  0.6477
 6595TIP3    H219792   2.839   2.899   3.948  0.9557  0.7382 -0.5658
 6596TIP3   OH219793   0.150   4.598   0.532  0.0447  0.0002 -0.4699
 6596TIP3    H119794   0.155   4.648   0.614  0.5502 -1.7686  0.6433
 6596TIP3    H219795   0.240   4.571   0.516 -0.2236 -0.5774 -1.0126
 6597TIP3   OH219796   1.779   1.038   0.994 -0.2177  0.7550 -0.1253
 6597TIP3    H119797   1.725   0.959   0.982 -1.6243  1.8554 -1.5981
 6597TIP3    H219798   1.760   1.067   1.083 -0.8131  0.2277 -0.0723
 6598TIP3   OH219799   0.419   5.582   3.394 -0.3128  0.0350  0.5096
 6598TIP3    H119800   0.508   5.583   3.429  0.7619 -2.3793 -1.7803
 6598TIP3    H219801   0.365   5.548   3.466  0.9866 -0.4202  1.2991
 6599TIP3   OH219802   1.499   3.331   4.804 -0.0825  0.2923  0.4478
 6599TIP3    H119803   1.494   3.426   4.792 -1.0097  0.3669  1.2857
 6599TIP3    H219804   1.435   3.296   4.741  0.6321  0.1707 -0.2325
 6600TIP3   OH219805   3.442   4.319   3.152  0.3157 -0.5624  0.7485
 6600TIP3    H119806   3.410   4.327   3.242  0.2744 -1.3534  0.8125
 6600TIP3    H219807   3.493   4.237   3.152 -0.4005 -1.0309 -0.1575
 6601TIP3   OH219808   1.736   1.394   3.918  0.1444 -0.0300  0.1002
 6601TIP3    H119809   1.828   1.371   3.932 -0.4325 -1.5354  1.7176
 6601TIP3    H219810   1.694   1.311   3.895 -0.8745  0.5965 -0.3406
 6602TIP3   OH219811   3.741   0.616   0.560 -0.6262 -0.2088  0.0825
 6602TIP3    H119812   3.692   0.611   0.478  1.3341  1.9555 -1.3422
 6602TIP3    H219813   3.785   0.531   0.567  0.1116 -0.0111 -1.7666
 6603TIP3   OH219814   2.822   4.862   2.509  0.0254  0.3400  0.3114
 6603TIP3    H119815   2.742   4.812   2.522 -0.3659  0.5792 -1.0468
 6603TIP3    H219816   2.892   4.802   2.533 -0.4922 -0.4408 -0.1045
 6604TIP3   OH219817   2.512   5.066   0.993 -0.0132 -0.2936 -0.0913
 6604TIP3    H119818   2.452   5.090   0.923 -0.1460  2.1904  0.7745
 6604TIP3    H219819   2.599   5.087   0.960  0.1282 -1.0661 -0.2380
 6605TIP3   OH219820   2.415   4.554   4.518  0.2729 -0.1015  0.0093
 6605TIP3    H119821   2.422   4.559   4.613  1.3105  0.4359 -0.0815
 6605TIP3    H219822   2.330   4.593   4.498 -0.2147 -0.7605  0.7498
 6606TIP3   OH219823   2.783   4.017   2.722  0.2870  0.2901  0.0410
 6606TIP3    H119824   2.701   3.968   2.717  1.0894 -1.0033 -1.3055
 6606TIP3    H219825   2.759   4.100   2.763 -1.5111 -0.4116  0.5012
 6607TIP3   OH219826   3.563   3.373   3.899 -0.1595 -0.0370 -0.6862
 6607TIP3    H119827   3.624   3.301   3.915  0.3611  0.6870  0.7162
 6607TIP3    H219828   3.569   3.388   3.804  1.3716 -0.3848 -0.6729
 6608TIP3   OH219829   5.589   0.688   0.885  0.8612 -0.4600  0.1469
 6608TIP3    H119830   5.553   0.715   0.970 -1.3395 -2.4181 -0.0766
 6608TIP3    H219831   5.679   0.720   0.887  0.3901  1.0301  2.5070
 6609TIP3   OH219832   3.379   0.352   0.482  0.6057 -0.2157 -0.1117
 6609TIP3    H119833   3.291   0.316   0.488  1.1748 -1.5150  1.3548
 6609TIP3    H219834   3.431   0.282   0.441  1.4522 -0.5714  1.4858
 6610TIP3   OH219835   5.973   4.700   1.369 -0.2919 -1.2940 -0.0402
 6610TIP3    H119836   5.936   4.788   1.372 -0.9848 -1.5527 -0.5750
 6610TIP3    H219837   5.907   4.645   1.413  0.9951 -1.2849  2.0431
 6611TIP3   OH219838   2.904   4.703   3.708 -0.2899 -0.2867  0.3853
 6611TIP3    H119839   2.890   4.732   3.799 -0.9961  0.9603 -0.1000
 6611TIP3    H219840   2.972   4.636   3.715 -2.9111 -3.0443  2.3222
 6612TIP3   OH219841   5.792   3.763   2.686 -0.1486 -0.6655 -0.4706
 6612TIP3    H119842   5.799   3.668   2.684 -0.7166 -0.7169 -0.1322
 6612TIP3    H219843   5.881   3.793   2.704 -0.0057 -1.1406 -0.3738
 6613TIP3   OH219844   5.453   4.614   3.103 -0.1212 -0.2659  0.2944
 6613TIP3    H119845   5.529   4.574   3.145 -0.4731 -1.0186  0.2221
 6613TIP3    H219846   5.391   4.542   3.091  0.2918 -0.2946 -2.2828
 6614TIP3   OH219847   2.608   0.223   3.726 -0.1325  0.3932  0.0759
 6614TIP3    H119848   2.618   0.197   3.635 -1.1241 -2.2451  0.6154
 6614TIP3    H219849   2.667   0.165   3.774  1.9249  3.1026  1.0397
 6615TIP3   OH219850   3.628   3.228   1.884  0.2187  0.4266  0.6232
 6615TIP3    H119851   3.580   3.145   1.896  0.1345 -0.0639 -2.3845
 6615TIP3    H219852   3.720   3.204   1.895  0.2243 -0.1827 -0.6276
 6616TIP3   OH219853   4.116   3.649   2.517  0.5077 -0.2830 -0.5390
 6616TIP3    H119854   4.053   3.710   2.554  0.8065 -0.1633 -0.2238
 6616TIP3    H219855   4.161   3.698   2.448 -0.3306 -0.6286 -1.3587
 6617TIP3   OH219856   3.650   4.754   0.395 -0.0691 -0.4003 -0.3484
 6617TIP3    H119857   3.657   4.686   0.327 -0.6014 -0.2683 -0.5392
 6617TIP3    H219858   3.561   4.787   0.386  0.2680  0.4958 -0.4130
 6618TIP3   OH219859   0.830   3.287   1.551  0.3301  0.2867  0.5681
 6618TIP3    H119860   0.846   3.279   1.645  0.0056 -1.8456  0.4887
 6618TIP3    H219861   0.915   3.272   1.510 -0.0145 -1.6239  0.4667
 6619TIP3   OH219862   5.675   5.427   1.010  0.3449 -0.1184  0.1375
 6619TIP3    H119863   5.688   5.492   1.079 -0.1738  0.3591 -0.2022
 6619TIP3    H219864   5.705   5.345   1.048 -2.3117 -0.4053  1.8667
 6620TIP3   OH219865   3.187   5.677   0.205 -0.2583 -0.4065 -0.2350
 6620TIP3    H119866   3.213   5.671   0.114  1.1380 -1.0218  0.1778
 6620TIP3    H219867   3.265   5.652   0.254 -0.7037  0.8063  1.1608
 6621TIP3   OH219868   0.128   4.766   0.079  0.3331  0.8058 -0.0268
 6621TIP3    H119869   0.056   4.704   0.082 -0.0358  1.2440  0.5171
 6621TIP3    H219870   0.188   4.737   0.148  0.6411  0.4777 -0.4370
 6622TIP3   OH219871   3.014   2.089   0.768 -0.3501 -0.1660 -0.2458
 6622TIP3    H119872   3.053   2.035   0.836 -0.4742 -0.0779 -0.1032
 6622TIP3    H219873   3.083   2.100   0.703 -0.6950 -1.4794 -0.8487
 6623TIP3   OH219874   3.698   5.989   0.605  0.3421  0.3544 -0.5158
 6623TIP3    H119875   3.772   5.932   0.583 -0.9637 -1.0055 -1.6092
 6623TIP3    H219876   3.661   6.013   0.520 -0.7608  0.6309  0.0262
 6624TIP3   OH219877   6.291   4.598   4.971  0.2549 -0.5773  0.3553
 6624TIP3    H119878   6.313   4.650   4.894  0.6252 -2.5992 -0.9720
 6624TIP3    H219879   6.203   4.565   4.953 -0.2770  0.1164  1.5236
 6625TIP3   OH219880   1.638   5.411   3.356  0.3048  0.4644 -0.2993
 6625TIP3    H119881   1.602   5.370   3.434  0.3357  0.0597 -0.4955
 6625TIP3    H219882   1.699   5.347   3.320 -0.6658  0.0876 -1.3733
 6626TIP3   OH219883   5.297   5.846   3.173  0.3784 -0.7357 -0.1653
 6626TIP3    H119884   5.254   5.932   3.177 -0.9751 -1.3936 -0.2200
 6626TIP3    H219885   5.303   5.819   3.264 -0.8032 -1.3473 -0.2558
 6627TIP3   OH219886   0.144   3.528   4.072  0.1271 -0.0658 -0.1393
 6627TIP3    H119887   0.221   3.578   4.099 -0.2464  0.7651 -0.5721
 6627TIP3    H219888   0.071   3.572   4.116 -0.2228 -0.1301 -0.6496
 6628TIP3   OH219889   0.219   1.364   3.782 -0.0986 -0.1707 -0.8348
 6628TIP3    H119890   0.177   1.327   3.704  1.6973  0.2717 -2.0817
 6628TIP3    H219891   0.209   1.297   3.849 -0.6247 -1.0870 -1.8046
 6629TIP3   OH219892   1.447   1.348   4.136  0.4807 -0.6047  0.3299
 6629TIP3    H119893   1.521   1.408   4.124  0.8560 -1.1294 -0.0758
 6629TIP3    H219894   1.487   1.261   4.136  0.0047 -0.8334  1.4692
 6630TIP3   OH219895   4.877   3.415   0.750 -0.3381  0.1862 -0.3453
 6630TIP3    H119896   4.917   3.489   0.795 -1.2377 -0.2034  1.1337
 6630TIP3    H219897   4.802   3.452   0.703  0.6959  0.6191 -1.7401
 6631TIP3   OH219898   4.722   2.733   4.377 -0.6394  0.2577 -0.0249
 6631TIP3    H119899   4.734   2.658   4.436  0.8708  0.2647 -0.2851
 6631TIP3    H219900   4.701   2.694   4.293  0.1703  0.0941 -0.1661
 6632TIP3   OH219901   3.536   2.229   1.195 -0.6710 -0.2416  0.4745
 6632TIP3    H119902   3.596   2.230   1.120 -0.4974 -0.4152  0.6102
 6632TIP3    H219903   3.580   2.282   1.262  0.0559 -1.5983  1.1256
 6633TIP3   OH219904   2.428   3.924   2.043  0.1851 -0.3980  0.3423
 6633TIP3    H119905   2.498   3.859   2.045  0.6269  0.0973  1.5890
 6633TIP3    H219906   2.377   3.907   2.123 -0.3996  0.0416  0.0711
 6634TIP3   OH219907   0.896   2.256   2.089  0.5121 -0.3499 -0.7751
 6634TIP3    H119908   0.939   2.247   2.003  1.6434  0.5176 -0.3365
 6634TIP3    H219909   0.952   2.206   2.148  1.6219  1.6964  0.0069
 6635TIP3   OH219910   2.319   1.616   1.355  0.1063 -0.1540  0.3472
 6635TIP3    H119911   2.403   1.622   1.311 -0.2668  0.3917 -0.3136
 6635TIP3    H219912   2.339   1.631   1.447  1.1872 -3.2417  0.7487
 6636TIP3   OH219913   1.731   0.755   0.690 -0.3802 -0.1026 -0.5003
 6636TIP3    H119914   1.751   0.682   0.630 -0.1873  1.3531 -2.3084
 6636TIP3    H219915   1.816   0.794   0.709 -0.6570  1.0462 -1.4719
 6637TIP3   OH219916   1.888   3.932   1.868 -0.5164  0.5024 -0.0796
 6637TIP3    H119917   1.842   3.876   1.805  0.3848  0.2816 -0.5448
 6637TIP3    H219918   1.923   3.872   1.933 -0.2968  0.6140 -0.0958
 6638TIP3   OH219919   3.141   3.407   1.914 -0.2456  0.5366 -1.0383
 6638TIP3    H119920   3.229   3.385   1.943 -0.5315 -0.0252 -0.5585
 6638TIP3    H219921   3.098   3.322   1.900 -1.1118  0.7689  0.0131
 6639TIP3   OH219922   5.494   0.706   3.483  0.3694 -0.4056 -0.0822
 6639TIP3    H119923   5.485   0.801   3.491 -0.6726 -0.5587  0.7475
 6639TIP3    H219924   5.431   0.682   3.414  2.3886 -0.2423 -2.1027
 6640TIP3   OH219925   0.992   0.674   3.979 -0.1111 -0.2291  0.3538
 6640TIP3    H119926   0.988   0.608   3.910  0.1614 -0.7249  0.8048
 6640TIP3    H219927   1.008   0.756   3.933  0.5837 -0.6321 -0.1436
   6.36132   5.99751   5.19400   0.00000   0.00000  -2.12044   0.00000  -2.12044  -2.99876
