Title t= 469.00000 step= 234500
19927
    1ASP      N    1   1.501   0.515   1.678
    1ASP    HT1    2   1.475   0.471   1.768
    1ASP    HT2    3   1.601   0.492   1.666
    1ASP    HT3    4   1.447   0.473   1.600
    1ASP     CA    5   1.477   0.659   1.682
    1ASP     HA    6   1.513   0.701   1.589
    1ASP     CB    7   1.327   0.686   1.675
    1ASP    HB1    8   1.276   0.668   1.772
    1ASP    HB2    9   1.275   0.618   1.604
    1ASP     CG   10   1.300   0.820   1.617
    1ASP    OD1   11   1.385   0.908   1.595
    1ASP    OD2   12   1.185   0.852   1.583
    1ASP      C   13   1.559   0.723   1.789
    1ASP      O   14   1.627   0.653   1.862
    2ALA      N   15   1.554   0.857   1.805
    2ALA     HN   16   1.490   0.907   1.747
    2ALA     CA   17   1.626   0.937   1.903
    2ALA     HA   18   1.676   0.877   1.977
    2ALA     CB   19   1.726   1.040   1.844
    2ALA    HB1   20   1.764   1.107   1.924
    2ALA    HB2   21   1.669   1.098   1.769
    2ALA    HB3   22   1.804   0.979   1.793
    2ALA      C   23   1.536   1.022   1.986
    2ALA      O   24   1.460   1.104   1.937
    3ASP      N   25   1.549   1.009   2.115
    3ASP     HN   26   1.616   0.942   2.148
    3ASP     CA   27   1.475   1.085   2.213
    3ASP     HA   28   1.379   1.109   2.168
    3ASP     CB   29   1.452   1.007   2.350
    3ASP    HB1   30   1.403   1.078   2.419
    3ASP    HB2   31   1.550   0.979   2.394
    3ASP     CG   32   1.359   0.885   2.331
    3ASP    OD1   33   1.242   0.903   2.295
    3ASP    OD2   34   1.417   0.772   2.329
    3ASP      C   35   1.530   1.224   2.229
    3ASP      O   36   1.650   1.247   2.220
    4GLY      N   37   1.447   1.326   2.246
    4GLY     HN   38   1.347   1.327   2.250
    4GLY     CA   39   1.485   1.454   2.287
    4GLY    HA1   40   1.403   1.522   2.270
    4GLY    HA2   41   1.570   1.491   2.232
    4GLY      C   42   1.525   1.459   2.433
    4GLY      O   43   1.485   1.377   2.514
    5PRO      N   44   1.600   1.559   2.481
    5PRO     CD   45   1.669   1.661   2.406
    5PRO    HD1   46   1.593   1.716   2.346
    5PRO    HD2   47   1.736   1.606   2.337
    5PRO     CA   48   1.621   1.569   2.623
    5PRO     HA   49   1.632   1.473   2.672
    5PRO     CB   50   1.755   1.654   2.633
    5PRO    HB1   51   1.834   1.579   2.612
    5PRO    HB2   52   1.768   1.703   2.732
    5PRO     CG   53   1.748   1.743   2.508
    5PRO    HG1   54   1.687   1.830   2.539
    5PRO    HG2   55   1.847   1.771   2.466
    5PRO      C   56   1.504   1.651   2.679
    5PRO      O   57   1.511   1.769   2.718
    6GLY      N   58   1.384   1.586   2.687
    6GLY     HN   59   1.374   1.494   2.649
    6GLY     CA   60   1.256   1.653   2.716
    6GLY    HA1   61   1.267   1.712   2.806
    6GLY    HA2   62   1.186   1.571   2.728
    6GLY      C   63   1.196   1.738   2.609
    6GLY      O   64   1.254   1.768   2.508
    7ASP      N   65   1.071   1.783   2.631
    7ASP     HN   66   1.024   1.753   2.713
    7ASP     CA   67   1.012   1.882   2.538
    7ASP     HA   68   0.996   1.841   2.440
    7ASP     CB   69   0.865   1.926   2.590
    7ASP    HB1   70   0.829   2.016   2.534
    7ASP    HB2   71   0.877   1.943   2.699
    7ASP     CG   72   0.753   1.823   2.569
    7ASP    OD1   73   0.764   1.721   2.495
    7ASP    OD2   74   0.654   1.844   2.636
    7ASP      C   75   1.089   2.020   2.530
    7ASP      O   76   1.154   2.056   2.628
    8PRO      N   77   1.085   2.094   2.421
    8PRO     CD   78   1.011   2.063   2.296
    8PRO    HD1   79   0.908   2.104   2.306
    8PRO    HD2   80   1.006   1.956   2.270
    8PRO     CA   81   1.150   2.222   2.416
    8PRO     HA   82   1.252   2.206   2.450
    8PRO     CB   83   1.117   2.264   2.274
    8PRO    HB1   84   1.217   2.298   2.240
    8PRO    HB2   85   1.046   2.349   2.265
    8PRO     CG   86   1.080   2.142   2.191
    8PRO    HG1   87   1.003   2.181   2.121
    8PRO    HG2   88   1.160   2.093   2.130
    8PRO      C   89   1.113   2.329   2.519
    8PRO      O   90   0.994   2.327   2.556
    9ASP      N   91   1.203   2.418   2.561
    9ASP     HN   92   1.294   2.413   2.521
    9ASP     CA   93   1.168   2.522   2.660
    9ASP     HA   94   1.123   2.468   2.741
    9ASP     CB   95   1.301   2.594   2.715
    9ASP    HB1   96   1.264   2.685   2.766
    9ASP    HB2   97   1.362   2.606   2.623
    9ASP     CG   98   1.371   2.501   2.812
    9ASP    OD1   99   1.311   2.414   2.877
    9ASP    OD2  100   1.486   2.537   2.834
    9ASP      C  101   1.069   2.627   2.623
    9ASP      O  102   1.067   2.664   2.507
   10ALA      N  103   0.986   2.684   2.711
   10ALA     HN  104   0.997   2.656   2.806
   10ALA     CA  105   0.879   2.776   2.675
   10ALA     HA  106   0.842   2.752   2.576
   10ALA     CB  107   0.748   2.781   2.758
   10ALA    HB1  108   0.705   2.678   2.759
   10ALA    HB2  109   0.672   2.853   2.721
   10ALA    HB3  110   0.780   2.800   2.863
   10ALA      C  111   0.934   2.912   2.660
   10ALA      O  112   1.033   2.942   2.729
   11GLY      N  113   0.864   2.997   2.585
   11GLY     HN  114   0.778   2.962   2.547
   11GLY     CA  115   0.918   3.125   2.538
   11GLY    HA1  116   1.020   3.112   2.505
   11GLY    HA2  117   0.908   3.189   2.625
   11GLY      C  118   0.840   3.196   2.435
   11GLY    OT1  119   0.890   3.197   2.315
   11GLY    OT2  120   0.723   3.235   2.469
   12SOD    SOD  121   0.364   2.916   3.638
   13SOD    SOD  122   5.016   3.925   4.022
   14SOD    SOD  123   2.509   5.216   2.685
   15SOD    SOD  124   0.175   1.734   0.706
   16SOD    SOD  125   0.568   4.384   2.915
   17SOD    SOD  126   1.355   2.140   4.938
   18SOD    SOD  127   6.349   2.972   1.010
   19SOD    SOD  128   2.425   1.589   0.799
   20SOD    SOD  129   2.484   4.261   3.574
   21SOD    SOD  130   3.599   2.526   1.874
   22SOD    SOD  131   5.915   3.427   2.307
   23SOD    SOD  132   1.428   2.429   3.632
   24SOD    SOD  133   3.526   1.085   2.177
   25SOD    SOD  134   0.244   0.190   2.644
   26SOD    SOD  135   1.070   3.839   2.134
   27SOD    SOD  136   5.651   2.874   1.718
   28SOD    SOD  137   5.192   3.134   1.034
   29SOD    SOD  138   5.623   2.535   4.387
   30SOD    SOD  139   1.628   1.759   0.252
   31SOD    SOD  140   1.818   4.816   1.429
   32SOD    SOD  141   6.086   4.466   3.578
   33SOD    SOD  142   0.020   1.240   4.084
   34CLA    CLA  143   4.739   2.358   0.782
   35CLA    CLA  144   0.830   4.290   3.363
   36CLA    CLA  145   1.700   0.263   1.652
   37CLA    CLA  146   2.435   4.933   3.644
   38CLA    CLA  147   3.866   2.444   3.637
   39CLA    CLA  148   3.606   0.133   3.022
   40CLA    CLA  149   1.480   4.515   1.610
   41CLA    CLA  150   6.166   4.162   1.533
   42CLA    CLA  151   1.429   1.856   4.627
   43CLA    CLA  152   4.757   3.186   2.302
   44CLA    CLA  153   0.802   4.719   2.253
   45CLA    CLA  154   5.898   2.920   1.630
   46CLA    CLA  155   4.534   3.060   3.856
   47CLA    CLA  156   3.765   0.267   0.302
   48CLA    CLA  157   5.081   4.863   0.092
   49CLA    CLA  158   1.558   2.783   1.195
   50CLA    CLA  159   5.742   0.828   4.363
   51CLA    CLA  160   3.893   5.303   0.667
   52TIP3   OH2  161   0.569   3.072   2.021
   52TIP3    H1  162   0.534   3.055   2.109
   52TIP3    H2  163   0.659   3.099   2.036
   53TIP3   OH2  164   1.315   2.700   3.199
   53TIP3    H1  165   1.246   2.763   3.175
   53TIP3    H2  166   1.268   2.624   3.233
   54TIP3   OH2  167   4.888   3.558   0.865
   54TIP3    H1  168   4.949   3.489   0.840
   54TIP3    H2  169   4.903   3.570   0.959
   55TIP3   OH2  170   1.866   1.194   3.403
   55TIP3    H1  171   1.839   1.104   3.385
   55TIP3    H2  172   1.797   1.248   3.363
   56TIP3   OH2  173   1.933   4.587   1.437
   56TIP3    H1  174   1.936   4.495   1.464
   56TIP3    H2  175   2.009   4.597   1.380
   57TIP3   OH2  176   4.271   1.486   0.486
   57TIP3    H1  177   4.252   1.404   0.441
   57TIP3    H2  178   4.222   1.552   0.436
   58TIP3   OH2  179   4.249   5.339   2.474
   58TIP3    H1  180   4.202   5.359   2.554
   58TIP3    H2  181   4.332   5.385   2.482
   59TIP3   OH2  182   0.773   4.529   1.746
   59TIP3    H1  183   0.746   4.620   1.762
   59TIP3    H2  184   0.736   4.480   1.819
   60TIP3   OH2  185   1.013   1.815   2.945
   60TIP3    H1  186   0.926   1.830   2.908
   60TIP3    H2  187   1.022   1.884   3.012
   61TIP3   OH2  188   5.520   0.693   1.010
   61TIP3    H1  189   5.480   0.688   1.097
   61TIP3    H2  190   5.446   0.697   0.949
   62TIP3   OH2  191   1.162   4.750   2.623
   62TIP3    H1  192   1.153   4.772   2.530
   62TIP3    H2  193   1.189   4.832   2.664
   63TIP3   OH2  194   2.946   5.912   2.039
   63TIP3    H1  195   2.874   5.945   2.093
   63TIP3    H2  196   3.009   5.985   2.037
   64TIP3   OH2  197   4.586   5.330   4.988
   64TIP3    H1  198   4.623   5.264   5.046
   64TIP3    H2  199   4.656   5.349   4.925
   65TIP3   OH2  200   1.874   5.141   3.474
   65TIP3    H1  201   1.922   5.059   3.469
   65TIP3    H2  202   1.782   5.116   3.478
   66TIP3   OH2  203   1.072   2.842   4.137
   66TIP3    H1  204   1.044   2.934   4.140
   66TIP3    H2  205   1.030   2.807   4.059
   67TIP3   OH2  206   6.065   1.963   3.318
   67TIP3    H1  207   6.080   1.924   3.404
   67TIP3    H2  208   6.085   2.056   3.331
   68TIP3   OH2  209   1.598   3.434   4.198
   68TIP3    H1  210   1.516   3.387   4.211
   68TIP3    H2  211   1.639   3.393   4.122
   69TIP3   OH2  212   5.293   5.235   5.021
   69TIP3    H1  213   5.359   5.261   5.084
   69TIP3    H2  214   5.307   5.294   4.946
   70TIP3   OH2  215   0.841   3.198   2.049
   70TIP3    H1  216   0.852   3.176   2.142
   70TIP3    H2  217   0.840   3.293   2.047
   71TIP3   OH2  218   3.412   4.111   4.483
   71TIP3    H1  219   3.358   4.110   4.404
   71TIP3    H2  220   3.395   4.026   4.524
   72TIP3   OH2  221   5.136   2.397   3.918
   72TIP3    H1  222   5.075   2.411   3.991
   72TIP3    H2  223   5.161   2.486   3.892
   73TIP3   OH2  224   4.033   2.744   0.662
   73TIP3    H1  225   4.050   2.672   0.601
   73TIP3    H2  226   4.100   2.733   0.730
   74TIP3   OH2  227   1.107   4.866   4.309
   74TIP3    H1  228   1.135   4.854   4.400
   74TIP3    H2  229   1.037   4.802   4.297
   75TIP3   OH2  230   3.908   3.434   4.742
   75TIP3    H1  231   3.865   3.513   4.774
   75TIP3    H2  232   3.894   3.369   4.811
   76TIP3   OH2  233   5.393   1.755   1.187
   76TIP3    H1  234   5.325   1.749   1.254
   76TIP3    H2  235   5.391   1.669   1.143
   77TIP3   OH2  236   6.296   3.918   1.094
   77TIP3    H1  237   6.233   3.854   1.127
   77TIP3    H2  238   6.292   3.910   0.999
   78TIP3   OH2  239   5.411   3.536   0.137
   78TIP3    H1  240   5.321   3.521   0.167
   78TIP3    H2  241   5.407   3.620   0.092
   79TIP3   OH2  242   0.441   0.996   2.763
   79TIP3    H1  243   0.420   1.075   2.713
   79TIP3    H2  244   0.371   0.989   2.827
   80TIP3   OH2  245   1.545   3.172   2.548
   80TIP3    H1  246   1.473   3.112   2.528
   80TIP3    H2  247   1.620   3.114   2.566
   81TIP3   OH2  248   5.701   5.798   1.627
   81TIP3    H1  249   5.609   5.783   1.604
   81TIP3    H2  250   5.748   5.790   1.544
   82TIP3   OH2  251   1.747   4.628   0.720
   82TIP3    H1  252   1.822   4.677   0.686
   82TIP3    H2  253   1.675   4.690   0.721
   83TIP3   OH2  254   0.629   4.558   0.727
   83TIP3    H1  255   0.673   4.479   0.696
   83TIP3    H2  256   0.556   4.571   0.667
   84TIP3   OH2  257   4.053   0.676   2.561
   84TIP3    H1  258   4.146   0.669   2.581
   84TIP3    H2  259   4.011   0.617   2.623
   85TIP3   OH2  260   3.567   4.141   1.548
   85TIP3    H1  261   3.548   4.205   1.479
   85TIP3    H2  262   3.482   4.102   1.568
   86TIP3   OH2  263   1.244   2.999   3.825
   86TIP3    H1  264   1.202   3.075   3.783
   86TIP3    H2  265   1.299   3.038   3.893
   87TIP3   OH2  266   3.200   4.338   0.685
   87TIP3    H1  267   3.195   4.400   0.758
   87TIP3    H2  268   3.214   4.253   0.727
   88TIP3   OH2  269   3.141   5.489   4.528
   88TIP3    H1  270   3.104   5.558   4.583
   88TIP3    H2  271   3.074   5.421   4.527
   89TIP3   OH2  272   2.491   4.386   4.915
   89TIP3    H1  273   2.457   4.361   5.001
   89TIP3    H2  274   2.584   4.365   4.919
   90TIP3   OH2  275   0.963   2.356   5.165
   90TIP3    H1  276   0.961   2.394   5.253
   90TIP3    H2  277   0.998   2.426   5.109
   91TIP3   OH2  278   1.400   2.402   4.835
   91TIP3    H1  279   1.440   2.327   4.791
   91TIP3    H2  280   1.471   2.440   4.887
   92TIP3   OH2  281   5.384   1.699   3.293
   92TIP3    H1  282   5.348   1.617   3.326
   92TIP3    H2  283   5.309   1.743   3.253
   93TIP3   OH2  284   2.118   0.609   2.268
   93TIP3    H1  285   2.098   0.660   2.346
   93TIP3    H2  286   2.065   0.649   2.199
   94TIP3   OH2  287   6.206   4.647   4.220
   94TIP3    H1  288   6.138   4.580   4.209
   94TIP3    H2  289   6.268   4.607   4.281
   95TIP3   OH2  290   0.960   4.411   0.231
   95TIP3    H1  291   1.032   4.434   0.172
   95TIP3    H2  292   1.003   4.391   0.314
   96TIP3   OH2  293   5.937   0.858   5.020
   96TIP3    H1  294   5.986   0.926   5.066
   96TIP3    H2  295   5.915   0.898   4.935
   97TIP3   OH2  296   2.468   2.222   3.230
   97TIP3    H1  297   2.556   2.186   3.236
   97TIP3    H2  298   2.451   2.261   3.316
   98TIP3   OH2  299   0.674   3.170   0.233
   98TIP3    H1  300   0.698   3.147   0.323
   98TIP3    H2  301   0.583   3.197   0.239
   99TIP3   OH2  302   0.994   4.656   0.967
   99TIP3    H1  303   1.046   4.589   0.923
   99TIP3    H2  304   1.055   4.728   0.981
  100TIP3   OH2  305   2.084   4.035   2.158
  100TIP3    H1  306   2.107   3.986   2.080
  100TIP3    H2  307   1.992   4.059   2.145
  101TIP3   OH2  308   4.597   1.762   1.300
  101TIP3    H1  309   4.550   1.707   1.363
  101TIP3    H2  310   4.641   1.701   1.242
  102TIP3   OH2  311   6.139   5.522   4.089
  102TIP3    H1  312   6.203   5.585   4.123
  102TIP3    H2  313   6.079   5.576   4.036
  103TIP3   OH2  314   0.495   5.962   4.170
  103TIP3    H1  315   0.407   5.965   4.207
  103TIP3    H2  316   0.550   5.929   4.241
  104TIP3   OH2  317   2.592   4.352   1.212
  104TIP3    H1  318   2.553   4.431   1.175
  104TIP3    H2  319   2.682   4.376   1.230
  105TIP3   OH2  320   5.785   5.442   2.859
  105TIP3    H1  321   5.691   5.460   2.855
  105TIP3    H2  322   5.822   5.515   2.908
  106TIP3   OH2  323   3.960   0.114   3.437
  106TIP3    H1  324   3.924   0.079   3.355
  106TIP3    H2  325   3.912   0.195   3.452
  107TIP3   OH2  326   0.868   4.458   4.424
  107TIP3    H1  327   0.907   4.538   4.461
  107TIP3    H2  328   0.837   4.409   4.501
  108TIP3   OH2  329   3.623   2.508   3.856
  108TIP3    H1  330   3.578   2.566   3.795
  108TIP3    H2  331   3.683   2.457   3.802
  109TIP3   OH2  332   2.902   1.911   1.465
  109TIP3    H1  333   2.965   1.897   1.395
  109TIP3    H2  334   2.953   1.949   1.536
  110TIP3   OH2  335   0.170   2.420   4.892
  110TIP3    H1  336   0.094   2.429   4.950
  110TIP3    H2  337   0.162   2.494   4.831
  111TIP3   OH2  338   3.848   1.011   1.365
  111TIP3    H1  339   3.792   0.997   1.441
  111TIP3    H2  340   3.880   0.923   1.342
  112TIP3   OH2  341   3.747   2.135   1.625
  112TIP3    H1  342   3.740   2.072   1.553
  112TIP3    H2  343   3.834   2.174   1.614
  113TIP3   OH2  344   3.634   3.547   3.867
  113TIP3    H1  345   3.672   3.473   3.913
  113TIP3    H2  346   3.568   3.509   3.809
  114TIP3   OH2  347   0.076   1.133   1.915
  114TIP3    H1  348   0.130   1.176   1.848
  114TIP3    H2  349   0.137   1.079   1.965
  115TIP3   OH2  350   5.765   3.009   3.747
  115TIP3    H1  351   5.747   3.000   3.653
  115TIP3    H2  352   5.777   2.920   3.778
  116TIP3   OH2  353   5.126   1.231   4.634
  116TIP3    H1  354   5.127   1.221   4.538
  116TIP3    H2  355   5.111   1.142   4.667
  117TIP3   OH2  356   0.015   0.398   1.893
  117TIP3    H1  357  -0.064   0.430   1.851
  117TIP3    H2  358   0.071   0.369   1.821
  118TIP3   OH2  359   4.451   4.031   0.247
  118TIP3    H1  360   4.470   3.944   0.210
  118TIP3    H2  361   4.444   4.088   0.171
  119TIP3   OH2  362   5.238   3.347   2.965
  119TIP3    H1  363   5.302   3.380   3.028
  119TIP3    H2  364   5.209   3.424   2.917
  120TIP3   OH2  365   4.229   1.145   4.707
  120TIP3    H1  366   4.162   1.147   4.639
  120TIP3    H2  367   4.303   1.100   4.666
  121TIP3   OH2  368   3.500   2.139   3.377
  121TIP3    H1  369   3.416   2.130   3.424
  121TIP3    H2  370   3.479   2.196   3.303
  122TIP3   OH2  371   6.017   0.888   2.425
  122TIP3    H1  372   5.979   0.850   2.346
  122TIP3    H2  373   6.111   0.872   2.418
  123TIP3   OH2  374   4.897   0.491   4.564
  123TIP3    H1  375   4.852   0.413   4.598
  123TIP3    H2  376   4.920   0.542   4.641
  124TIP3   OH2  377   4.896   0.588   0.694
  124TIP3    H1  378   4.883   0.630   0.609
  124TIP3    H2  379   4.862   0.499   0.682
  125TIP3   OH2  380   4.493   2.141   2.299
  125TIP3    H1  381   4.582   2.167   2.274
  125TIP3    H2  382   4.450   2.223   2.321
  126TIP3   OH2  383   1.854   4.431   2.490
  126TIP3    H1  384   1.914   4.495   2.527
  126TIP3    H2  385   1.826   4.379   2.565
  127TIP3   OH2  386   3.723   2.035   4.220
  127TIP3    H1  387   3.639   1.990   4.214
  127TIP3    H2  388   3.700   2.128   4.222
  128TIP3   OH2  389   6.316   2.367   0.979
  128TIP3    H1  390   6.232   2.336   0.945
  128TIP3    H2  391   6.350   2.425   0.910
  129TIP3   OH2  392   4.480   3.276   3.643
  129TIP3    H1  393   4.434   3.230   3.572
  129TIP3    H2  394   4.486   3.211   3.713
  130TIP3   OH2  395   1.820   2.628   3.440
  130TIP3    H1  396   1.902   2.677   3.450
  130TIP3    H2  397   1.827   2.588   3.353
  131TIP3   OH2  398   3.138   5.361   1.550
  131TIP3    H1  399   3.050   5.349   1.515
  131TIP3    H2  400   3.181   5.422   1.490
  132TIP3   OH2  401   1.366   1.092   0.809
  132TIP3    H1  402   1.441   1.074   0.753
  132TIP3    H2  403   1.404   1.113   0.894
  133TIP3   OH2  404   0.722   4.874   4.394
  133TIP3    H1  405   0.767   4.928   4.328
  133TIP3    H2  406   0.732   4.922   4.476
  134TIP3   OH2  407   1.619   2.762   2.823
  134TIP3    H1  408   1.594   2.672   2.804
  134TIP3    H2  409   1.578   2.781   2.908
  135TIP3   OH2  410   4.284   2.950   2.945
  135TIP3    H1  411   4.287   2.974   3.037
  135TIP3    H2  412   4.336   3.018   2.901
  136TIP3   OH2  413   5.917   2.870   4.871
  136TIP3    H1  414   5.946   2.779   4.876
  136TIP3    H2  415   5.900   2.896   4.962
  137TIP3   OH2  416   3.352   1.076   0.097
  137TIP3    H1  417   3.284   1.141   0.117
  137TIP3    H2  418   3.430   1.127   0.076
  138TIP3   OH2  419   4.071   5.309   0.930
  138TIP3    H1  420   4.123   5.383   0.898
  138TIP3    H2  421   4.014   5.286   0.857
  139TIP3   OH2  422   2.661   5.916   3.131
  139TIP3    H1  423   2.741   5.897   3.083
  139TIP3    H2  424   2.690   5.941   3.219
  140TIP3   OH2  425   1.077   4.630   3.984
  140TIP3    H1  426   1.171   4.641   3.996
  140TIP3    H2  427   1.040   4.640   4.072
  141TIP3   OH2  428   6.182   3.017   5.005
  141TIP3    H1  429   6.122   3.057   5.068
  141TIP3    H2  430   6.266   3.013   5.051
  142TIP3   OH2  431   1.493   4.928   0.155
  142TIP3    H1  432   1.457   4.839   0.147
  142TIP3    H2  433   1.530   4.945   0.069
  143TIP3   OH2  434   0.036   5.640   4.743
  143TIP3    H1  435   0.101   5.710   4.745
  143TIP3    H2  436   0.007   5.637   4.652
  144TIP3   OH2  437   1.997   2.743   4.406
  144TIP3    H1  438   2.012   2.743   4.311
  144TIP3    H2  439   1.927   2.806   4.419
  145TIP3   OH2  440   2.758   0.072   1.678
  145TIP3    H1  441   2.696   0.107   1.614
  145TIP3    H2  442   2.717  -0.009   1.708
  146TIP3   OH2  443   2.362   1.318   0.250
  146TIP3    H1  444   2.388   1.401   0.288
  146TIP3    H2  445   2.303   1.341   0.178
  147TIP3   OH2  446   3.354   3.003   4.175
  147TIP3    H1  447   3.266   3.042   4.173
  147TIP3    H2  448   3.409   3.071   4.215
  148TIP3   OH2  449   2.677   0.155   4.845
  148TIP3    H1  450   2.614   0.181   4.777
  148TIP3    H2  451   2.690   0.234   4.897
  149TIP3   OH2  452   4.117   5.111   0.603
  149TIP3    H1  453   4.197   5.159   0.624
  149TIP3    H2  454   4.047   5.171   0.627
  150TIP3   OH2  455   0.590   0.035   3.802
  150TIP3    H1  456   0.576   0.056   3.710
  150TIP3    H2  457   0.512   0.067   3.846
  151TIP3   OH2  458   2.562   0.629   0.413
  151TIP3    H1  459   2.555   0.534   0.421
  151TIP3    H2  460   2.482   0.655   0.367
  152TIP3   OH2  461   4.221   1.178   1.826
  152TIP3    H1  462   4.306   1.222   1.824
  152TIP3    H2  463   4.161   1.242   1.862
  153TIP3   OH2  464   3.529   1.058   5.040
  153TIP3    H1  465   3.500   1.141   5.002
  153TIP3    H2  466   3.618   1.047   5.008
  154TIP3   OH2  467   5.384   4.057   3.815
  154TIP3    H1  468   5.423   3.985   3.764
  154TIP3    H2  469   5.290   4.039   3.813
  155TIP3   OH2  470   5.405   5.392   4.829
  155TIP3    H1  471   5.486   5.438   4.853
  155TIP3    H2  472   5.391   5.415   4.737
  156TIP3   OH2  473   3.381   3.533   2.859
  156TIP3    H1  474   3.344   3.611   2.818
  156TIP3    H2  475   3.370   3.548   2.953
  157TIP3   OH2  476  -0.007   3.706   0.171
  157TIP3    H1  477   0.049   3.783   0.166
  157TIP3    H2  478   0.016   3.664   0.253
  158TIP3   OH2  479   5.575   2.175   1.257
  158TIP3    H1  480   5.609   2.096   1.297
  158TIP3    H2  481   5.480   2.161   1.250
  159TIP3   OH2  482   0.610   3.876   5.148
  159TIP3    H1  483   0.646   3.793   5.119
  159TIP3    H2  484   0.596   3.926   5.068
  160TIP3   OH2  485   6.120   0.737   1.106
  160TIP3    H1  486   6.196   0.794   1.109
  160TIP3    H2  487   6.047   0.795   1.084
  161TIP3   OH2  488   0.273   5.492   2.995
  161TIP3    H1  489   0.299   5.551   2.924
  161TIP3    H2  490   0.301   5.405   2.966
  162TIP3   OH2  491   2.627   5.042   2.776
  162TIP3    H1  492   2.642   5.051   2.870
  162TIP3    H2  493   2.703   4.993   2.744
  163TIP3   OH2  494   4.345   0.787   3.816
  163TIP3    H1  495   4.425   0.776   3.868
  163TIP3    H2  496   4.274   0.763   3.876
  164TIP3   OH2  497   2.728   5.534   3.550
  164TIP3    H1  498   2.785   5.599   3.509
  164TIP3    H2  499   2.705   5.572   3.634
  165TIP3   OH2  500   6.111   0.393   1.737
  165TIP3    H1  501   6.125   0.301   1.757
  165TIP3    H2  502   6.098   0.395   1.642
  166TIP3   OH2  503   2.044   1.785   3.624
  166TIP3    H1  504   2.088   1.764   3.541
  166TIP3    H2  505   2.109   1.832   3.675
  167TIP3   OH2  506   3.913   4.137   3.553
  167TIP3    H1  507   3.973   4.193   3.504
  167TIP3    H2  508   3.833   4.188   3.561
  168TIP3   OH2  509   5.423   1.505   1.096
  168TIP3    H1  510   5.478   1.503   1.018
  168TIP3    H2  511   5.453   1.431   1.149
  169TIP3   OH2  512   3.239   4.195   0.280
  169TIP3    H1  513   3.237   4.162   0.190
  169TIP3    H2  514   3.185   4.132   0.329
  170TIP3   OH2  515   0.486   1.246   1.723
  170TIP3    H1  516   0.503   1.151   1.728
  170TIP3    H2  517   0.567   1.283   1.689
  171TIP3   OH2  518   3.737   0.537   0.748
  171TIP3    H1  519   3.758   0.450   0.714
  171TIP3    H2  520   3.814   0.563   0.799
  172TIP3   OH2  521   0.215   5.401   0.970
  172TIP3    H1  522   0.163   5.328   0.935
  172TIP3    H2  523   0.164   5.432   1.045
  173TIP3   OH2  524   3.090   3.623   4.918
  173TIP3    H1  525   3.035   3.571   4.859
  173TIP3    H2  526   3.123   3.694   4.863
  174TIP3   OH2  527   0.428   2.533   4.217
  174TIP3    H1  528   0.434   2.474   4.292
  174TIP3    H2  529   0.400   2.617   4.254
  175TIP3   OH2  530   1.256   2.770   1.382
  175TIP3    H1  531   1.193   2.745   1.315
  175TIP3    H2  532   1.340   2.740   1.348
  176TIP3   OH2  533   3.574   1.462   2.151
  176TIP3    H1  534   3.491   1.423   2.178
  176TIP3    H2  535   3.564   1.555   2.171
  177TIP3   OH2  536   0.304   4.887   4.385
  177TIP3    H1  537   0.276   4.801   4.418
  177TIP3    H2  538   0.368   4.867   4.317
  178TIP3   OH2  539   1.596   4.464   4.992
  178TIP3    H1  540   1.581   4.541   5.047
  178TIP3    H2  541   1.615   4.499   4.905
  179TIP3   OH2  542   1.243   0.746   5.144
  179TIP3    H1  543   1.173   0.801   5.108
  179TIP3    H2  544   1.301   0.808   5.188
  180TIP3   OH2  545   0.821   3.088   1.760
  180TIP3    H1  546   0.814   3.048   1.846
  180TIP3    H2  547   0.764   3.165   1.764
  181TIP3   OH2  548   3.653   3.224   1.072
  181TIP3    H1  549   3.567   3.221   1.030
  181TIP3    H2  550   3.668   3.134   1.102
  182TIP3   OH2  551   5.138   0.436   0.633
  182TIP3    H1  552   5.085   0.515   0.623
  182TIP3    H2  553   5.115   0.402   0.719
  183TIP3   OH2  554   3.576   4.348   2.134
  183TIP3    H1  555   3.594   4.442   2.130
  183TIP3    H2  556   3.643   4.314   2.194
  184TIP3   OH2  557   3.823   3.742   1.582
  184TIP3    H1  558   3.752   3.761   1.521
  184TIP3    H2  559   3.888   3.810   1.564
  185TIP3   OH2  560   1.542   5.134   1.790
  185TIP3    H1  561   1.500   5.062   1.744
  185TIP3    H2  562   1.541   5.207   1.728
  186TIP3   OH2  563   3.895   3.712   3.857
  186TIP3    H1  564   3.928   3.631   3.819
  186TIP3    H2  565   3.800   3.707   3.845
  187TIP3   OH2  566   4.546   2.100   3.185
  187TIP3    H1  567   4.540   2.175   3.126
  187TIP3    H2  568   4.497   2.031   3.141
  188TIP3   OH2  569   2.806   5.538   2.656
  188TIP3    H1  570   2.728   5.571   2.610
  188TIP3    H2  571   2.773   5.509   2.741
  189TIP3   OH2  572   0.775   3.727   1.806
  189TIP3    H1  573   0.817   3.684   1.731
  189TIP3    H2  574   0.681   3.720   1.789
  190TIP3   OH2  575   4.978   0.179   0.214
  190TIP3    H1  576   5.025   0.181   0.298
  190TIP3    H2  577   4.959   0.271   0.196
  191TIP3   OH2  578   5.420   2.904   4.512
  191TIP3    H1  579   5.387   2.968   4.575
  191TIP3    H2  580   5.506   2.936   4.487
  192TIP3   OH2  581   4.170   4.358   0.926
  192TIP3    H1  582   4.153   4.451   0.941
  192TIP3    H2  583   4.241   4.337   0.985
  193TIP3   OH2  584   0.419   3.122   0.607
  193TIP3    H1  585   0.463   3.068   0.673
  193TIP3    H2  586   0.439   3.212   0.633
  194TIP3   OH2  587   6.341   3.933   2.258
  194TIP3    H1  588   6.319   3.850   2.215
  194TIP3    H2  589   6.378   3.987   2.189
  195TIP3   OH2  590   3.394   4.020   1.239
  195TIP3    H1  591   3.345   4.079   1.182
  195TIP3    H2  592   3.420   3.947   1.182
  196TIP3   OH2  593   5.185   4.879   4.738
  196TIP3    H1  594   5.206   4.889   4.831
  196TIP3    H2  595   5.254   4.822   4.703
  197TIP3   OH2  596   0.865   4.499   2.468
  197TIP3    H1  597   0.804   4.425   2.464
  197TIP3    H2  598   0.850   4.547   2.387
  198TIP3   OH2  599   5.412   1.083   2.604
  198TIP3    H1  600   5.414   1.168   2.561
  198TIP3    H2  601   5.504   1.056   2.608
  199TIP3   OH2  602   0.529   4.146   4.422
  199TIP3    H1  603   0.590   4.092   4.371
  199TIP3    H2  604   0.490   4.084   4.485
  200TIP3   OH2  605   0.237   0.306   1.694
  200TIP3    H1  606   0.322   0.350   1.704
  200TIP3    H2  607   0.255   0.233   1.635
  201TIP3   OH2  608   1.606   1.302   4.045
  201TIP3    H1  609   1.676   1.330   3.986
  201TIP3    H2  610   1.525   1.329   4.001
  202TIP3   OH2  611   5.031   5.816   4.856
  202TIP3    H1  612   5.044   5.722   4.844
  202TIP3    H2  613   5.068   5.835   4.943
  203TIP3   OH2  614   0.243   0.538   0.597
  203TIP3    H1  615   0.302   0.466   0.579
  203TIP3    H2  616   0.235   0.585   0.514
  204TIP3   OH2  617   3.400   2.737   4.007
  204TIP3    H1  618   3.380   2.661   3.952
  204TIP3    H2  619   3.324   2.794   3.998
  205TIP3   OH2  620   0.158   3.725   0.665
  205TIP3    H1  621   0.244   3.683   0.667
  205TIP3    H2  622   0.096   3.653   0.653
  206TIP3   OH2  623   3.444   5.610   3.720
  206TIP3    H1  624   3.539   5.621   3.717
  206TIP3    H2  625   3.426   5.585   3.811
  207TIP3   OH2  626   3.552   2.659   2.055
  207TIP3    H1  627   3.542   2.643   2.149
  207TIP3    H2  628   3.500   2.738   2.038
  208TIP3   OH2  629   5.845   0.159   4.296
  208TIP3    H1  630   5.861   0.123   4.383
  208TIP3    H2  631   5.932   0.177   4.262
  209TIP3   OH2  632   1.362   0.213   4.895
  209TIP3    H1  633   1.286   0.203   4.838
  209TIP3    H2  634   1.430   0.248   4.838
  210TIP3   OH2  635   6.184   3.122   2.496
  210TIP3    H1  636   6.167   3.034   2.463
  210TIP3    H2  637   6.272   3.117   2.534
  211TIP3   OH2  638   4.617   1.857   1.849
  211TIP3    H1  639   4.610   1.835   1.942
  211TIP3    H2  640   4.527   1.859   1.818
  212TIP3   OH2  641   2.800   3.141   2.957
  212TIP3    H1  642   2.812   3.065   2.901
  212TIP3    H2  643   2.844   3.213   2.911
  213TIP3   OH2  644   2.143   0.586   4.958
  213TIP3    H1  645   2.055   0.560   4.983
  213TIP3    H2  646   2.139   0.682   4.953
  214TIP3   OH2  647   5.935   0.155   3.354
  214TIP3    H1  648   5.946   0.116   3.441
  214TIP3    H2  649   6.004   0.222   3.349
  215TIP3   OH2  650   2.755   5.802   1.190
  215TIP3    H1  651   2.814   5.801   1.114
  215TIP3    H2  652   2.757   5.712   1.223
  216TIP3   OH2  653   2.779   0.499   4.268
  216TIP3    H1  654   2.847   0.505   4.202
  216TIP3    H2  655   2.697   0.505   4.219
  217TIP3   OH2  656   4.754   5.369   1.637
  217TIP3    H1  657   4.703   5.447   1.657
  217TIP3    H2  658   4.755   5.366   1.541
  218TIP3   OH2  659   1.228   1.452   4.646
  218TIP3    H1  660   1.192   1.435   4.559
  218TIP3    H2  661   1.323   1.447   4.634
  219TIP3   OH2  662   2.319   2.781   1.654
  219TIP3    H1  663   2.305   2.763   1.747
  219TIP3    H2  664   2.377   2.857   1.652
  220TIP3   OH2  665   1.409   3.190   0.614
  220TIP3    H1  666   1.322   3.211   0.581
  220TIP3    H2  667   1.396   3.161   0.704
  221TIP3   OH2  668   5.317   1.481   3.428
  221TIP3    H1  669   5.236   1.441   3.459
  221TIP3    H2  670   5.336   1.434   3.346
  222TIP3   OH2  671   3.972   2.411   1.076
  222TIP3    H1  672   4.036   2.465   1.123
  222TIP3    H2  673   3.898   2.470   1.060
  223TIP3   OH2  674   2.294   3.402   2.008
  223TIP3    H1  675   2.203   3.387   1.983
  223TIP3    H2  676   2.342   3.401   1.925
  224TIP3   OH2  677   6.123   2.859   0.075
  224TIP3    H1  678   6.159   2.814  -0.002
  224TIP3    H2  679   6.046   2.808   0.098
  225TIP3   OH2  680   0.179   4.045   2.056
  225TIP3    H1  681   0.162   4.037   1.962
  225TIP3    H2  682   0.257   4.101   2.061
  226TIP3   OH2  683   5.536   2.990   0.634
  226TIP3    H1  684   5.547   2.895   0.636
  226TIP3    H2  685   5.470   3.006   0.567
  227TIP3   OH2  686   1.782   2.909   4.485
  227TIP3    H1  687   1.771   2.982   4.424
  227TIP3    H2  688   1.726   2.840   4.450
  228TIP3   OH2  689   3.967   2.281   0.144
  228TIP3    H1  690   3.918   2.258   0.065
  228TIP3    H2  691   4.049   2.318   0.111
  229TIP3   OH2  692   4.609   0.148   4.387
  229TIP3    H1  693   4.617   0.239   4.358
  229TIP3    H2  694   4.694   0.128   4.427
  230TIP3   OH2  695   5.102   4.541   3.187
  230TIP3    H1  696   5.103   4.631   3.219
  230TIP3    H2  697   5.022   4.503   3.224
  231TIP3   OH2  698   6.154   3.079   0.959
  231TIP3    H1  699   6.144   3.169   0.989
  231TIP3    H2  700   6.121   3.080   0.869
  232TIP3   OH2  701   4.997   3.566   3.422
  232TIP3    H1  702   4.996   3.510   3.343
  232TIP3    H2  703   4.975   3.653   3.389
  233TIP3   OH2  704   5.458   5.187   2.441
  233TIP3    H1  705   5.548   5.218   2.442
  233TIP3    H2  706   5.411   5.249   2.386
  234TIP3   OH2  707   1.802   2.906   5.089
  234TIP3    H1  708   1.739   2.972   5.119
  234TIP3    H2  709   1.846   2.877   5.170
  235TIP3   OH2  710   3.456   0.084   0.285
  235TIP3    H1  711   3.543   0.123   0.297
  235TIP3    H2  712   3.405   0.152   0.242
  236TIP3   OH2  713   4.113   0.573   2.092
  236TIP3    H1  714   4.142   0.486   2.065
  236TIP3    H2  715   4.144   0.582   2.182
  237TIP3   OH2  716   3.092   0.980   3.524
  237TIP3    H1  717   3.097   0.888   3.501
  237TIP3    H2  718   3.077   1.025   3.441
  238TIP3   OH2  719   0.608   4.317   4.854
  238TIP3    H1  720   0.607   4.403   4.897
  238TIP3    H2  721   0.629   4.337   4.763
  239TIP3   OH2  722   2.183   0.786   3.063
  239TIP3    H1  723   2.182   0.717   3.129
  239TIP3    H2  724   2.148   0.863   3.108
  240TIP3   OH2  725   5.346   1.774   2.797
  240TIP3    H1  726   5.353   1.855   2.747
  240TIP3    H2  727   5.367   1.705   2.734
  241TIP3   OH2  728   3.759   4.077   0.478
  241TIP3    H1  729   3.847   4.101   0.448
  241TIP3    H2  730   3.711   4.159   0.480
  242TIP3   OH2  731   3.793   2.863   0.630
  242TIP3    H1  732   3.887   2.846   0.630
  242TIP3    H2  733   3.754   2.784   0.594
  243TIP3   OH2  734   5.289   1.204   0.484
  243TIP3    H1  735   5.371   1.242   0.514
  243TIP3    H2  736   5.222   1.266   0.511
  244TIP3   OH2  737   1.302   5.206   4.759
  244TIP3    H1  738   1.230   5.214   4.822
  244TIP3    H2  739   1.380   5.195   4.812
  245TIP3   OH2  740   0.784   5.346   1.662
  245TIP3    H1  741   0.854   5.360   1.725
  245TIP3    H2  742   0.812   5.270   1.610
  246TIP3   OH2  743   1.364   5.671   4.544
  246TIP3    H1  744   1.344   5.578   4.552
  246TIP3    H2  745   1.439   5.684   4.602
  247TIP3   OH2  746   1.636   5.376   2.718
  247TIP3    H1  747   1.608   5.433   2.647
  247TIP3    H2  748   1.700   5.317   2.678
  248TIP3   OH2  749   4.773   5.682   3.108
  248TIP3    H1  750   4.700   5.630   3.142
  248TIP3    H2  751   4.848   5.622   3.108
  249TIP3   OH2  752   1.917   3.452   0.722
  249TIP3    H1  753   1.825   3.439   0.700
  249TIP3    H2  754   1.962   3.374   0.691
  250TIP3   OH2  755   1.120   4.510   2.266
  250TIP3    H1  756   1.088   4.580   2.323
  250TIP3    H2  757   1.042   4.481   2.218
  251TIP3   OH2  758   1.986   2.355   5.158
  251TIP3    H1  759   1.972   2.412   5.082
  251TIP3    H2  760   1.984   2.414   5.233
  252TIP3   OH2  761   5.071   5.377   3.597
  252TIP3    H1  762   5.041   5.299   3.550
  252TIP3    H2  763   5.009   5.387   3.669
  253TIP3   OH2  764   2.438   4.959   4.034
  253TIP3    H1  765   2.450   5.040   3.984
  253TIP3    H2  766   2.525   4.920   4.038
  254TIP3   OH2  767   4.747   3.647   1.368
  254TIP3    H1  768   4.686   3.632   1.295
  254TIP3    H2  769   4.708   3.600   1.441
  255TIP3   OH2  770   0.244   2.148   5.118
  255TIP3    H1  771   0.297   2.227   5.105
  255TIP3    H2  772   0.194   2.165   5.197
  256TIP3   OH2  773   3.153   3.286   5.059
  256TIP3    H1  774   3.118   3.214   5.111
  256TIP3    H2  775   3.093   3.359   5.075
  257TIP3   OH2  776   5.196   1.747   0.098
  257TIP3    H1  777   5.134   1.689   0.054
  257TIP3    H2  778   5.280   1.701   0.093
  258TIP3   OH2  779   0.521   4.168   1.557
  258TIP3    H1  780   0.607   4.203   1.576
  258TIP3    H2  781   0.518   4.083   1.602
  259TIP3   OH2  782   0.304   3.962   3.741
  259TIP3    H1  783   0.368   3.993   3.805
  259TIP3    H2  784   0.220   3.964   3.787
  260TIP3   OH2  785   1.686   4.157   1.770
  260TIP3    H1  786   1.635   4.157   1.690
  260TIP3    H2  787   1.671   4.070   1.808
  261TIP3   OH2  788   1.627   3.328   3.035
  261TIP3    H1  789   1.699   3.276   2.997
  261TIP3    H2  790   1.549   3.297   2.989
  262TIP3   OH2  791   3.911   5.624   1.520
  262TIP3    H1  792   3.966   5.605   1.444
  262TIP3    H2  793   3.944   5.565   1.589
  263TIP3   OH2  794   0.339   0.893   0.966
  263TIP3    H1  795   0.287   0.828   1.015
  263TIP3    H2  796   0.341   0.859   0.877
  264TIP3   OH2  797   4.883   0.639   0.423
  264TIP3    H1  798   4.809   0.624   0.364
  264TIP3    H2  799   4.927   0.715   0.387
  265TIP3   OH2  800   6.236   3.437   5.166
  265TIP3    H1  801   6.329   3.435   5.147
  265TIP3    H2  802   6.199   3.495   5.099
  266TIP3   OH2  803   1.943   5.918   3.630
  266TIP3    H1  804   1.915   5.905   3.720
  266TIP3    H2  805   1.870   5.964   3.589
  267TIP3   OH2  806   3.239   2.819   4.335
  267TIP3    H1  807   3.291   2.743   4.312
  267TIP3    H2  808   3.272   2.889   4.280
  268TIP3   OH2  809   1.637   5.994   1.450
  268TIP3    H1  810   1.555   5.975   1.497
  268TIP3    H2  811   1.702   5.936   1.491
  269TIP3   OH2  812   0.644   1.045   1.836
  269TIP3    H1  813   0.607   1.033   1.924
  269TIP3    H2  814   0.738   1.039   1.849
  270TIP3   OH2  815   1.462   5.646   2.044
  270TIP3    H1  816   1.545   5.610   2.074
  270TIP3    H2  817   1.397   5.579   2.066
  271TIP3   OH2  818   0.722   2.651   2.207
  271TIP3    H1  819   0.631   2.679   2.218
  271TIP3    H2  820   0.773   2.732   2.207
  272TIP3   OH2  821   1.593   0.360   2.648
  272TIP3    H1  822   1.555   0.310   2.576
  272TIP3    H2  823   1.598   0.450   2.616
  273TIP3   OH2  824   3.023   5.648   2.017
  273TIP3    H1  825   3.018   5.743   2.028
  273TIP3    H2  826   3.115   5.627   2.031
  274TIP3   OH2  827   2.852   2.717   1.777
  274TIP3    H1  828   2.814   2.765   1.703
  274TIP3    H2  829   2.886   2.786   1.834
  275TIP3   OH2  830   2.016   2.776   3.129
  275TIP3    H1  831   1.944   2.817   3.081
  275TIP3    H2  832   1.975   2.704   3.176
  276TIP3   OH2  833   2.814   0.342   0.611
  276TIP3    H1  834   2.782   0.283   0.681
  276TIP3    H2  835   2.762   0.421   0.622
  277TIP3   OH2  836   1.604   0.832   3.352
  277TIP3    H1  837   1.563   0.831   3.438
  277TIP3    H2  838   1.691   0.870   3.367
  278TIP3   OH2  839   5.264   4.379   3.975
  278TIP3    H1  840   5.247   4.473   3.965
  278TIP3    H2  841   5.304   4.353   3.892
  279TIP3   OH2  842   2.236   1.687   0.865
  279TIP3    H1  843   2.166   1.661   0.925
  279TIP3    H2  844   2.191   1.715   0.786
  280TIP3   OH2  845   3.664   0.540   3.356
  280TIP3    H1  846   3.585   0.528   3.408
  280TIP3    H2  847   3.642   0.505   3.269
  281TIP3   OH2  848   4.421   5.656   3.679
  281TIP3    H1  849   4.340   5.707   3.675
  281TIP3    H2  850   4.400   5.574   3.634
  282TIP3   OH2  851   5.799   4.801   2.180
  282TIP3    H1  852   5.769   4.847   2.258
  282TIP3    H2  853   5.868   4.742   2.211
  283TIP3   OH2  854   3.635   4.600   4.630
  283TIP3    H1  855   3.611   4.511   4.604
  283TIP3    H2  856   3.670   4.590   4.719
  284TIP3   OH2  857   4.446   2.883   1.520
  284TIP3    H1  858   4.377   2.947   1.539
  284TIP3    H2  859   4.527   2.929   1.542
  285TIP3   OH2  860   3.428   0.450   3.423
  285TIP3    H1  861   3.401   0.497   3.502
  285TIP3    H2  862   3.356   0.389   3.406
  286TIP3   OH2  863   4.258   1.432   3.979
  286TIP3    H1  864   4.261   1.365   4.048
  286TIP3    H2  865   4.270   1.383   3.898
  287TIP3   OH2  866   0.788   2.420   1.221
  287TIP3    H1  867   0.847   2.428   1.146
  287TIP3    H2  868   0.784   2.326   1.238
  288TIP3   OH2  869   3.841   3.665   4.897
  288TIP3    H1  870   3.859   3.691   4.988
  288TIP3    H2  871   3.900   3.719   4.845
  289TIP3   OH2  872   5.787   3.633   3.888
  289TIP3    H1  873   5.818   3.706   3.834
  289TIP3    H2  874   5.716   3.594   3.837
  290TIP3   OH2  875   4.453   0.640   4.334
  290TIP3    H1  876   4.449   0.719   4.389
  290TIP3    H2  877   4.414   0.668   4.251
  291TIP3   OH2  878   1.600   1.521   2.984
  291TIP3    H1  879   1.600   1.426   2.969
  291TIP3    H2  880   1.510   1.541   3.008
  292TIP3   OH2  881   3.933   4.826   3.657
  292TIP3    H1  882   3.960   4.830   3.749
  292TIP3    H2  883   3.913   4.734   3.642
  293TIP3   OH2  884   0.450   3.560   1.992
  293TIP3    H1  885   0.429   3.467   1.984
  293TIP3    H2  886   0.487   3.569   2.080
  294TIP3   OH2  887   3.728   4.714   1.447
  294TIP3    H1  888   3.805   4.659   1.461
  294TIP3    H2  889   3.718   4.717   1.352
  295TIP3   OH2  890   5.087   3.067   0.230
  295TIP3    H1  891   5.072   2.997   0.167
  295TIP3    H2  892   5.112   3.142   0.177
  296TIP3   OH2  893   4.116   5.810   0.668
  296TIP3    H1  894   4.158   5.896   0.673
  296TIP3    H2  895   4.058   5.806   0.744
  297TIP3   OH2  896   1.201   3.424   4.669
  297TIP3    H1  897   1.290   3.448   4.642
  297TIP3    H2  898   1.204   3.423   4.764
  298TIP3   OH2  899   3.580   4.228   2.383
  298TIP3    H1  900   3.507   4.282   2.356
  298TIP3    H2  901   3.649   4.290   2.407
  299TIP3   OH2  902   4.557   0.933   0.006
  299TIP3    H1  903   4.650   0.926   0.029
  299TIP3    H2  904   4.519   0.851   0.035
  300TIP3   OH2  905   5.929   3.169   1.885
  300TIP3    H1  906   6.014   3.140   1.920
  300TIP3    H2  907   5.901   3.097   1.828
  301TIP3   OH2  908   3.129   3.834   4.509
  301TIP3    H1  909   3.072   3.910   4.516
  301TIP3    H2  910   3.074   3.760   4.535
  302TIP3   OH2  911   1.899   4.981   0.905
  302TIP3    H1  912   1.942   5.034   0.838
  302TIP3    H2  913   1.806   4.981   0.880
  303TIP3   OH2  914   0.056   5.402   5.079
  303TIP3    H1  915   0.010   5.389   4.997
  303TIP3    H2  916   0.103   5.320   5.093
  304TIP3   OH2  917   2.868   1.071   1.309
  304TIP3    H1  918   2.913   1.150   1.339
  304TIP3    H2  919   2.937   1.018   1.269
  305TIP3   OH2  920   5.628   0.496   3.231
  305TIP3    H1  921   5.624   0.503   3.136
  305TIP3    H2  922   5.605   0.405   3.250
  306TIP3   OH2  923   1.322   1.031   1.370
  306TIP3    H1  924   1.272   1.102   1.408
  306TIP3    H2  925   1.340   0.972   1.443
  307TIP3   OH2  926   5.059   4.818   0.911
  307TIP3    H1  927   5.014   4.828   0.827
  307TIP3    H2  928   5.133   4.878   0.906
  308TIP3   OH2  929   4.578   5.222   0.860
  308TIP3    H1  930   4.552   5.131   0.874
  308TIP3    H2  931   4.674   5.219   0.857
  309TIP3   OH2  932   3.051   4.708   0.543
  309TIP3    H1  933   3.040   4.752   0.458
  309TIP3    H2  934   3.123   4.647   0.528
  310TIP3   OH2  935   0.746   5.046   3.078
  310TIP3    H1  936   0.820   4.991   3.105
  310TIP3    H2  937   0.671   4.986   3.076
  311TIP3   OH2  938   3.666   1.608   0.347
  311TIP3    H1  939   3.724   1.677   0.314
  311TIP3    H2  940   3.719   1.528   0.345
  312TIP3   OH2  941   3.792   0.059   5.104
  312TIP3    H1  942   3.722   0.048   5.168
  312TIP3    H2  943   3.859  -0.004   5.129
  313TIP3   OH2  944   1.663   2.077   0.228
  313TIP3    H1  945   1.678   2.081   0.323
  313TIP3    H2  946   1.585   2.131   0.214
  314TIP3   OH2  947   5.143   5.133   3.031
  314TIP3    H1  948   5.176   5.178   3.109
  314TIP3    H2  949   5.204   5.060   3.018
  315TIP3   OH2  950   5.069   5.530   0.840
  315TIP3    H1  951   4.987   5.492   0.809
  315TIP3    H2  952   5.054   5.624   0.839
  316TIP3   OH2  953   2.118   4.690   3.193
  316TIP3    H1  954   2.197   4.636   3.196
  316TIP3    H2  955   2.057   4.641   3.138
  317TIP3   OH2  956   2.214   5.339   4.280
  317TIP3    H1  957   2.134   5.372   4.319
  317TIP3    H2  958   2.185   5.274   4.216
  318TIP3   OH2  959   5.932   1.606   3.645
  318TIP3    H1  960   6.023   1.578   3.633
  318TIP3    H2  961   5.904   1.636   3.559
  319TIP3   OH2  962   4.246   5.508   0.852
  319TIP3    H1  963   4.294   5.564   0.914
  319TIP3    H2  964   4.303   5.504   0.775
  320TIP3   OH2  965   4.113   5.288   3.824
  320TIP3    H1  966   4.178   5.220   3.841
  320TIP3    H2  967   4.033   5.256   3.866
  321TIP3   OH2  968   4.209   1.421   4.485
  321TIP3    H1  969   4.117   1.400   4.471
  321TIP3    H2  970   4.223   1.501   4.435
  322TIP3   OH2  971   6.290   1.063   4.185
  322TIP3    H1  972   6.322   0.995   4.246
  322TIP3    H2  973   6.195   1.058   4.193
  323TIP3   OH2  974   2.326   4.144   0.580
  323TIP3    H1  975   2.312   4.051   0.565
  323TIP3    H2  976   2.276   4.163   0.659
  324TIP3   OH2  977   1.342   3.323   4.241
  324TIP3    H1  978   1.337   3.243   4.292
  324TIP3    H2  979   1.267   3.375   4.271
  325TIP3   OH2  980   4.863   5.541   1.094
  325TIP3    H1  981   4.849   5.484   1.018
  325TIP3    H2  982   4.888   5.481   1.164
  326TIP3   OH2  983   2.329   5.930   4.022
  326TIP3    H1  984   2.419   5.957   4.042
  326TIP3    H2  985   2.334   5.894   3.934
  327TIP3   OH2  986   1.041   1.403   2.569
  327TIP3    H1  987   1.108   1.369   2.628
  327TIP3    H2  988   1.063   1.366   2.483
  328TIP3   OH2  989   1.770   5.460   1.622
  328TIP3    H1  990   1.825   5.382   1.617
  328TIP3    H2  991   1.827   5.532   1.597
  329TIP3   OH2  992   4.129   4.088   0.050
  329TIP3    H1  993   4.044   4.126   0.026
  329TIP3    H2  994   4.107   4.017   0.110
  330TIP3   OH2  995   0.413   1.712   1.076
  330TIP3    H1  996   0.449   1.790   1.120
  330TIP3    H2  997   0.434   1.640   1.134
  331TIP3   OH2  998   3.620   5.157   1.876
  331TIP3    H1  999   3.562   5.115   1.940
  331TIP3    H2 1000   3.593   5.120   1.792
  332TIP3   OH2 1001   4.424   1.643   4.904
  332TIP3    H1 1002   4.332   1.659   4.920
  332TIP3    H2 1003   4.426   1.565   4.848
  333TIP3   OH2 1004   5.769   5.971   0.321
  333TIP3    H1 1005   5.762   5.926   0.237
  333TIP3    H2 1006   5.754   6.063   0.301
  334TIP3   OH2 1007   1.242   0.994   2.687
  334TIP3    H1 1008   1.151   0.970   2.668
  334TIP3    H2 1009   1.236   1.079   2.729
  335TIP3   OH2 1010   4.218   5.550   4.904
  335TIP3    H1 1011   4.240   5.507   4.822
  335TIP3    H2 1012   4.300   5.590   4.933
  336TIP3   OH2 1013   4.309   2.116   1.556
  336TIP3    H1 1014   4.351   2.043   1.510
  336TIP3    H2 1015   4.381   2.175   1.578
  337TIP3   OH2 1016   2.489   3.552   3.113
  337TIP3    H1 1017   2.574   3.536   3.155
  337TIP3    H2 1018   2.427   3.506   3.169
  338TIP3   OH2 1019   6.056   0.519   4.349
  338TIP3    H1 1020   5.995   0.487   4.283
  338TIP3    H2 1021   6.138   0.532   4.303
  339TIP3   OH2 1022   3.668   3.487   3.497
  339TIP3    H1 1023   3.604   3.421   3.470
  339TIP3    H2 1024   3.703   3.453   3.580
  340TIP3   OH2 1025   2.420   5.242   1.387
  340TIP3    H1 1026   2.463   5.325   1.366
  340TIP3    H2 1027   2.480   5.200   1.449
  341TIP3   OH2 1028   4.096   3.208   4.749
  341TIP3    H1 1029   4.041   3.140   4.708
  341TIP3    H2 1030   4.045   3.288   4.741
  342TIP3   OH2 1031   1.897   4.425   4.898
  342TIP3    H1 1032   1.865   4.422   4.807
  342TIP3    H2 1033   1.843   4.492   4.940
  343TIP3   OH2 1034   0.042   0.104   4.053
  343TIP3    H1 1035  -0.038   0.053   4.063
  343TIP3    H2 1036   0.035   0.172   4.120
  344TIP3   OH2 1037   1.712   3.316   3.957
  344TIP3    H1 1038   1.774   3.249   3.986
  344TIP3    H2 1039   1.768   3.386   3.923
  345TIP3   OH2 1040   0.499   0.698   0.032
  345TIP3    H1 1041   0.442   0.734   0.100
  345TIP3    H2 1042   0.588   0.715   0.063
  346TIP3   OH2 1043   6.080   4.277   4.921
  346TIP3    H1 1044   6.069   4.372   4.926
  346TIP3    H2 1045   6.173   4.264   4.937
  347TIP3   OH2 1046   6.064   2.461   0.405
  347TIP3    H1 1047   6.106   2.542   0.434
  347TIP3    H2 1048   6.134   2.412   0.361
  348TIP3   OH2 1049   5.321   2.942   1.081
  348TIP3    H1 1050   5.300   2.855   1.115
  348TIP3    H2 1051   5.403   2.931   1.033
  349TIP3   OH2 1052   6.280   1.538   3.226
  349TIP3    H1 1053   6.359   1.525   3.174
  349TIP3    H2 1054   6.223   1.592   3.171
  350TIP3   OH2 1055   3.751   2.251   3.085
  350TIP3    H1 1056   3.753   2.329   3.029
  350TIP3    H2 1057   3.777   2.283   3.171
  351TIP3   OH2 1058   0.600   3.653   0.153
  351TIP3    H1 1059   0.617   3.739   0.116
  351TIP3    H2 1060   0.562   3.603   0.080
  352TIP3   OH2 1061   2.924   5.626   0.816
  352TIP3    H1 1062   2.945   5.534   0.797
  352TIP3    H2 1063   2.829   5.625   0.833
  353TIP3   OH2 1064   4.979   2.016   4.854
  353TIP3    H1 1065   5.006   2.069   4.778
  353TIP3    H2 1066   4.978   1.926   4.821
  354TIP3   OH2 1067   4.102   2.551   0.364
  354TIP3    H1 1068   4.144   2.491   0.427
  354TIP3    H2 1069   4.135   2.522   0.279
  355TIP3   OH2 1070   3.026   4.073   3.957
  355TIP3    H1 1071   3.063   4.090   3.870
  355TIP3    H2 1072   3.092   4.020   4.001
  356TIP3   OH2 1073   0.910   3.916   3.897
  356TIP3    H1 1074   0.899   4.003   3.935
  356TIP3    H2 1075   1.001   3.894   3.914
  357TIP3   OH2 1076   1.662   5.430   2.111
  357TIP3    H1 1077   1.718   5.476   2.174
  357TIP3    H2 1078   1.709   5.436   2.028
  358TIP3   OH2 1079   4.501   0.158   3.226
  358TIP3    H1 1080   4.483   0.125   3.314
  358TIP3    H2 1081   4.534   0.247   3.240
  359TIP3   OH2 1082   4.166   0.849   4.276
  359TIP3    H1 1083   4.173   0.780   4.341
  359TIP3    H2 1084   4.138   0.804   4.196
  360TIP3   OH2 1085   3.173   3.854   4.051
  360TIP3    H1 1086   3.177   3.807   3.968
  360TIP3    H2 1087   3.164   3.785   4.117
  361TIP3   OH2 1088   0.978   4.892   2.872
  361TIP3    H1 1089   0.955   4.800   2.886
  361TIP3    H2 1090   1.049   4.908   2.935
  362TIP3   OH2 1091   4.125   0.522   3.496
  362TIP3    H1 1092   4.054   0.519   3.560
  362TIP3    H2 1093   4.148   0.615   3.490
  363TIP3   OH2 1094   1.082   2.079   0.783
  363TIP3    H1 1095   1.048   2.136   0.852
  363TIP3    H2 1096   1.036   1.996   0.794
  364TIP3   OH2 1097   3.512   4.977   2.927
  364TIP3    H1 1098   3.437   5.035   2.940
  364TIP3    H2 1099   3.483   4.916   2.859
  365TIP3   OH2 1100   5.685   3.393   2.726
  365TIP3    H1 1101   5.619   3.354   2.784
  365TIP3    H2 1102   5.636   3.456   2.673
  366TIP3   OH2 1103   6.320   5.666   4.446
  366TIP3    H1 1104   6.334   5.590   4.390
  366TIP3    H2 1105   6.321   5.741   4.387
  367TIP3   OH2 1106   5.885   4.255   1.662
  367TIP3    H1 1107   5.965   4.261   1.610
  367TIP3    H2 1108   5.858   4.163   1.656
  368TIP3   OH2 1109   3.329   4.443   2.369
  368TIP3    H1 1110   3.343   4.430   2.463
  368TIP3    H2 1111   3.363   4.531   2.352
  369TIP3   OH2 1112   5.216   2.651   3.839
  369TIP3    H1 1113   5.308   2.666   3.857
  369TIP3    H2 1114   5.171   2.723   3.883
  370TIP3   OH2 1115   5.815   4.977   4.011
  370TIP3    H1 1116   5.892   4.992   4.066
  370TIP3    H2 1117   5.801   5.061   3.967
  371TIP3   OH2 1118   2.292   3.005   5.134
  371TIP3    H1 1119   2.372   3.032   5.089
  371TIP3    H2 1120   2.231   3.077   5.120
  372TIP3   OH2 1121   5.507   2.975   1.558
  372TIP3    H1 1122   5.438   2.961   1.493
  372TIP3    H2 1123   5.507   3.070   1.572
  373TIP3   OH2 1124   5.035   4.676   1.159
  373TIP3    H1 1125   5.102   4.610   1.144
  373TIP3    H2 1126   5.030   4.726   1.078
  374TIP3   OH2 1127   3.810   1.682   1.937
  374TIP3    H1 1128   3.726   1.667   1.893
  374TIP3    H2 1129   3.818   1.610   1.999
  375TIP3   OH2 1130   4.802   0.643   3.983
  375TIP3    H1 1131   4.781   0.686   4.066
  375TIP3    H2 1132   4.896   0.626   3.988
  376TIP3   OH2 1133   1.379   0.032   3.771
  376TIP3    H1 1134   1.368   0.127   3.774
  376TIP3    H2 1135   1.291  -0.003   3.787
  377TIP3   OH2 1136   2.942   1.679   2.574
  377TIP3    H1 1137   2.858   1.652   2.536
  377TIP3    H2 1138   2.975   1.745   2.514
  378TIP3   OH2 1139   0.091   5.257   0.194
  378TIP3    H1 1140   0.157   5.188   0.198
  378TIP3    H2 1141   0.021   5.220   0.140
  379TIP3   OH2 1142   4.733   4.803   1.734
  379TIP3    H1 1143   4.675   4.848   1.796
  379TIP3    H2 1144   4.802   4.765   1.788
  380TIP3   OH2 1145   4.399   5.718   2.418
  380TIP3    H1 1146   4.485   5.738   2.456
  380TIP3    H2 1147   4.356   5.662   2.482
  381TIP3   OH2 1148   1.793   0.571   3.946
  381TIP3    H1 1149   1.728   0.569   4.017
  381TIP3    H2 1150   1.854   0.501   3.968
  382TIP3   OH2 1151   0.161   2.176   1.018
  382TIP3    H1 1152   0.099   2.244   0.993
  382TIP3    H2 1153   0.107   2.103   1.047
  383TIP3   OH2 1154   2.775   1.961   1.184
  383TIP3    H1 1155   2.741   2.045   1.153
  383TIP3    H2 1156   2.860   1.983   1.223
  384TIP3   OH2 1157   2.344   0.539   0.775
  384TIP3    H1 1158   2.261   0.527   0.821
  384TIP3    H2 1159   2.338   0.628   0.739
  385TIP3   OH2 1160   4.928   4.280   0.111
  385TIP3    H1 1161   4.950   4.353   0.169
  385TIP3    H2 1162   4.918   4.321   0.025
  386TIP3   OH2 1163   4.610   5.969   0.978
  386TIP3    H1 1164   4.609   5.882   1.017
  386TIP3    H2 1165   4.698   5.977   0.940
  387TIP3   OH2 1166   5.137   2.765   4.394
  387TIP3    H1 1167   5.111   2.799   4.479
  387TIP3    H2 1168   5.156   2.843   4.342
  388TIP3   OH2 1169   5.927   1.346   4.219
  388TIP3    H1 1170   5.954   1.403   4.291
  388TIP3    H2 1171   6.009   1.321   4.176
  389TIP3   OH2 1172   4.881   2.771   0.924
  389TIP3    H1 1173   4.940   2.771   0.848
  389TIP3    H2 1174   4.796   2.745   0.888
  390TIP3   OH2 1175   4.932   3.092   4.643
  390TIP3    H1 1176   4.990   3.148   4.695
  390TIP3    H2 1177   4.984   3.014   4.623
  391TIP3   OH2 1178   5.917   2.578   2.225
  391TIP3    H1 1179   5.995   2.569   2.279
  391TIP3    H2 1180   5.846   2.543   2.279
  392TIP3   OH2 1181   2.218   2.685   2.989
  392TIP3    H1 1182   2.199   2.593   2.971
  392TIP3    H2 1183   2.139   2.718   3.033
  393TIP3   OH2 1184   6.038   3.129   3.785
  393TIP3    H1 1185   6.100   3.067   3.748
  393TIP3    H2 1186   5.953   3.088   3.774
  394TIP3   OH2 1187   3.181   2.785   0.949
  394TIP3    H1 1188   3.117   2.852   0.925
  394TIP3    H2 1189   3.265   2.830   0.945
  395TIP3   OH2 1190   1.993   3.879   1.889
  395TIP3    H1 1191   1.964   3.969   1.900
  395TIP3    H2 1192   1.936   3.844   1.821
  396TIP3   OH2 1193   1.985   4.363   0.932
  396TIP3    H1 1194   1.977   4.400   1.020
  396TIP3    H2 1195   2.033   4.282   0.943
  397TIP3   OH2 1196   1.355   3.525   1.364
  397TIP3    H1 1197   1.333   3.510   1.272
  397TIP3    H2 1198   1.449   3.543   1.364
  398TIP3   OH2 1199   3.894   5.849   1.317
  398TIP3    H1 1200   3.917   5.823   1.406
  398TIP3    H2 1201   3.871   5.942   1.325
  399TIP3   OH2 1202   4.532   1.311   0.533
  399TIP3    H1 1203   4.446   1.352   0.529
  399TIP3    H2 1204   4.568   1.339   0.618
  400TIP3   OH2 1205   1.797   1.967   3.982
  400TIP3    H1 1206   1.788   1.872   3.994
  400TIP3    H2 1207   1.891   1.981   3.973
  401TIP3   OH2 1208   5.554   5.323   1.591
  401TIP3    H1 1209   5.557   5.245   1.646
  401TIP3    H2 1210   5.487   5.305   1.526
  402TIP3   OH2 1211   1.309   5.572   3.288
  402TIP3    H1 1212   1.382   5.588   3.348
  402TIP3    H2 1213   1.231   5.573   3.344
  403TIP3   OH2 1214   2.503   0.701   4.841
  403TIP3    H1 1215   2.570   0.756   4.801
  403TIP3    H2 1216   2.550   0.622   4.870
  404TIP3   OH2 1217   1.073   4.936   4.591
  404TIP3    H1 1218   1.003   5.001   4.596
  404TIP3    H2 1219   1.124   4.951   4.671
  405TIP3   OH2 1220   0.042   3.274   0.219
  405TIP3    H1 1221   0.059   3.218   0.295
  405TIP3    H2 1222   0.066   3.220   0.144
  406TIP3   OH2 1223   1.330   2.895   3.469
  406TIP3    H1 1224   1.245   2.929   3.497
  406TIP3    H2 1225   1.391   2.967   3.488
  407TIP3   OH2 1226   2.351   3.492   2.249
  407TIP3    H1 1227   2.439   3.502   2.287
  407TIP3    H2 1228   2.366   3.447   2.166
  408TIP3   OH2 1229   0.631   2.092   2.252
  408TIP3    H1 1230   0.677   2.173   2.233
  408TIP3    H2 1231   0.547   2.120   2.288
  409TIP3   OH2 1232   2.891   0.500   3.042
  409TIP3    H1 1233   2.904   0.590   3.072
  409TIP3    H2 1234   2.796   0.488   3.043
  410TIP3   OH2 1235   4.574   3.352   1.255
  410TIP3    H1 1236   4.567   3.415   1.326
  410TIP3    H2 1237   4.491   3.303   1.259
  411TIP3   OH2 1238   4.462   4.604   0.099
  411TIP3    H1 1239   4.391   4.543   0.084
  411TIP3    H2 1240   4.540   4.558   0.069
  412TIP3   OH2 1241   1.384   4.973   4.558
  412TIP3    H1 1242   1.425   5.049   4.516
  412TIP3    H2 1243   1.352   5.006   4.642
  413TIP3   OH2 1244   4.372   5.665   1.030
  413TIP3    H1 1245   4.450   5.630   0.987
  413TIP3    H2 1246   4.354   5.746   0.984
  414TIP3   OH2 1247   5.088   5.512   2.108
  414TIP3    H1 1248   5.106   5.505   2.014
  414TIP3    H2 1249   5.020   5.447   2.125
  415TIP3   OH2 1250   0.170   0.788   1.500
  415TIP3    H1 1251   0.116   0.848   1.450
  415TIP3    H2 1252   0.259   0.804   1.469
  416TIP3   OH2 1253   0.916   4.777   1.602
  416TIP3    H1 1254   0.981   4.711   1.576
  416TIP3    H2 1255   0.963   4.835   1.661
  417TIP3   OH2 1256   5.659   0.276   1.173
  417TIP3    H1 1257   5.578   0.269   1.122
  417TIP3    H2 1258   5.708   0.197   1.151
  418TIP3   OH2 1259   4.148   5.686   4.570
  418TIP3    H1 1260   4.123   5.746   4.640
  418TIP3    H2 1261   4.138   5.737   4.489
  419TIP3   OH2 1262   6.181   4.418   2.457
  419TIP3    H1 1263   6.175   4.344   2.397
  419TIP3    H2 1264   6.255   4.396   2.514
  420TIP3   OH2 1265   0.376   2.083   4.518
  420TIP3    H1 1266   0.404   1.996   4.548
  420TIP3    H2 1267   0.292   2.097   4.562
  421TIP3   OH2 1268   0.316   0.064   0.185
  421TIP3    H1 1269   0.350  -0.025   0.192
  421TIP3    H2 1270   0.249   0.059   0.117
  422TIP3   OH2 1271   0.441   3.606   4.260
  422TIP3    H1 1272   0.479   3.528   4.219
  422TIP3    H2 1273   0.505   3.675   4.244
  423TIP3   OH2 1274   0.506   4.064   0.553
  423TIP3    H1 1275   0.416   4.030   0.549
  423TIP3    H2 1276   0.505   4.125   0.626
  424TIP3   OH2 1277   0.107   2.342   3.363
  424TIP3    H1 1278   0.031   2.400   3.366
  424TIP3    H2 1279   0.136   2.344   3.272
  425TIP3   OH2 1280   5.320   1.791   2.263
  425TIP3    H1 1281   5.302   1.766   2.354
  425TIP3    H2 1282   5.416   1.786   2.255
  426TIP3   OH2 1283   0.226   1.620   4.245
  426TIP3    H1 1284   0.281   1.606   4.323
  426TIP3    H2 1285   0.148   1.567   4.262
  427TIP3   OH2 1286   6.097   4.252   3.234
  427TIP3    H1 1287   6.092   4.335   3.187
  427TIP3    H2 1288   6.013   4.244   3.279
  428TIP3   OH2 1289   5.955   5.603   1.704
  428TIP3    H1 1290   5.878   5.552   1.729
  428TIP3    H2 1291   5.928   5.694   1.714
  429TIP3   OH2 1292   4.741   1.722   1.624
  429TIP3    H1 1293   4.687   1.792   1.659
  429TIP3    H2 1294   4.783   1.761   1.547
  430TIP3   OH2 1295   4.071   1.133   3.413
  430TIP3    H1 1296   4.010   1.198   3.379
  430TIP3    H2 1297   4.020   1.086   3.480
  431TIP3   OH2 1298   1.516   0.968   0.263
  431TIP3    H1 1299   1.492   0.918   0.185
  431TIP3    H2 1300   1.464   1.049   0.257
  432TIP3   OH2 1301   2.297   3.722   0.977
  432TIP3    H1 1302   2.209   3.714   0.940
  432TIP3    H2 1303   2.306   3.645   1.033
  433TIP3   OH2 1304   6.303   3.457   2.490
  433TIP3    H1 1305   6.362   3.483   2.420
  433TIP3    H2 1306   6.348   3.483   2.570
  434TIP3   OH2 1307   4.027   3.241   1.082
  434TIP3    H1 1308   4.064   3.286   1.158
  434TIP3    H2 1309   4.103   3.202   1.038
  435TIP3   OH2 1310   4.558   1.070   1.918
  435TIP3    H1 1311   4.581   1.087   2.010
  435TIP3    H2 1312   4.533   1.155   1.883
  436TIP3   OH2 1313   2.942   5.337   2.199
  436TIP3    H1 1314   3.031   5.316   2.226
  436TIP3    H2 1315   2.934   5.300   2.111
  437TIP3   OH2 1316   2.332   4.205   1.948
  437TIP3    H1 1317   2.404   4.256   1.909
  437TIP3    H2 1318   2.293   4.264   2.013
  438TIP3   OH2 1319   5.591   5.791   4.774
  438TIP3    H1 1320   5.588   5.699   4.747
  438TIP3    H2 1321   5.596   5.839   4.691
  439TIP3   OH2 1322   4.950   0.785   2.550
  439TIP3    H1 1323   5.011   0.712   2.540
  439TIP3    H2 1324   4.865   0.750   2.525
  440TIP3   OH2 1325   3.485   4.716   0.697
  440TIP3    H1 1326   3.560   4.681   0.649
  440TIP3    H2 1327   3.410   4.704   0.638
  441TIP3   OH2 1328   0.967   2.276   0.985
  441TIP3    H1 1329   0.989   2.275   1.078
  441TIP3    H2 1330   1.040   2.321   0.942
  442TIP3   OH2 1331   6.399   5.573   0.644
  442TIP3    H1 1332   6.324   5.629   0.662
  442TIP3    H2 1333   6.366   5.484   0.658
  443TIP3   OH2 1334   4.724   5.047   1.201
  443TIP3    H1 1335   4.794   5.047   1.136
  443TIP3    H2 1336   4.700   4.955   1.211
  444TIP3   OH2 1337   3.799   1.799   0.641
  444TIP3    H1 1338   3.730   1.774   0.702
  444TIP3    H2 1339   3.831   1.716   0.604
  445TIP3   OH2 1340   0.480   3.569   4.545
  445TIP3    H1 1341   0.453   3.605   4.461
  445TIP3    H2 1342   0.545   3.631   4.578
  446TIP3   OH2 1343   6.192   2.449   1.214
  446TIP3    H1 1344   6.258   2.391   1.253
  446TIP3    H2 1345   6.209   2.444   1.120
  447TIP3   OH2 1346   3.330   3.647   3.109
  447TIP3    H1 1347   3.316   3.740   3.097
  447TIP3    H2 1348   3.411   3.641   3.159
  448TIP3   OH2 1349   1.591   1.064   1.524
  448TIP3    H1 1350   1.528   0.994   1.541
  448TIP3    H2 1351   1.675   1.028   1.553
  449TIP3   OH2 1352   2.096   5.514   3.479
  449TIP3    H1 1353   2.015   5.472   3.507
  449TIP3    H2 1354   2.105   5.590   3.536
  450TIP3   OH2 1355   2.657   1.201   3.743
  450TIP3    H1 1356   2.630   1.168   3.829
  450TIP3    H2 1357   2.750   1.179   3.738
  451TIP3   OH2 1358   2.572   5.837   0.870
  451TIP3    H1 1359   2.522   5.864   0.948
  451TIP3    H2 1360   2.618   5.758   0.897
  452TIP3   OH2 1361   3.777   1.959   3.306
  452TIP3    H1 1362   3.713   1.940   3.237
  452TIP3    H2 1363   3.785   2.054   3.305
  453TIP3   OH2 1364   5.591   1.119   4.907
  453TIP3    H1 1365   5.550   1.081   4.829
  453TIP3    H2 1366   5.545   1.201   4.921
  454TIP3   OH2 1367   2.586   3.274   2.377
  454TIP3    H1 1368   2.600   3.368   2.380
  454TIP3    H2 1369   2.551   3.252   2.464
  455TIP3   OH2 1370   4.321   3.523   2.994
  455TIP3    H1 1371   4.237   3.501   2.953
  455TIP3    H2 1372   4.305   3.513   3.088
  456TIP3   OH2 1373   2.533   0.452   1.581
  456TIP3    H1 1374   2.458   0.505   1.608
  456TIP3    H2 1375   2.606   0.484   1.635
  457TIP3   OH2 1376   4.485   2.198   2.920
  457TIP3    H1 1377   4.456   2.119   2.874
  457TIP3    H2 1378   4.580   2.188   2.927
  458TIP3   OH2 1379   3.945   1.734   5.096
  458TIP3    H1 1380   3.858   1.773   5.095
  458TIP3    H2 1381   3.979   1.753   5.183
  459TIP3   OH2 1382   2.695   3.902   0.657
  459TIP3    H1 1383   2.641   3.855   0.720
  459TIP3    H2 1384   2.648   3.984   0.641
  460TIP3   OH2 1385   3.367   4.765   3.898
  460TIP3    H1 1386   3.351   4.736   3.987
  460TIP3    H2 1387   3.367   4.685   3.845
  461TIP3   OH2 1388   0.688   4.927   2.437
  461TIP3    H1 1389   0.628   4.887   2.500
  461TIP3    H2 1390   0.721   4.854   2.385
  462TIP3   OH2 1391   3.216   0.909   4.956
  462TIP3    H1 1392   3.227   1.002   4.977
  462TIP3    H2 1393   3.156   0.909   4.881
  463TIP3   OH2 1394   4.176   4.333   3.727
  463TIP3    H1 1395   4.151   4.272   3.797
  463TIP3    H2 1396   4.146   4.291   3.646
  464TIP3   OH2 1397   3.669   1.591   1.505
  464TIP3    H1 1398   3.702   1.506   1.475
  464TIP3    H2 1399   3.739   1.624   1.562
  465TIP3   OH2 1400   4.400   4.617   2.781
  465TIP3    H1 1401   4.328   4.556   2.766
  465TIP3    H2 1402   4.365   4.702   2.754
  466TIP3   OH2 1403   5.318   3.572   3.367
  466TIP3    H1 1404   5.370   3.608   3.438
  466TIP3    H2 1405   5.287   3.488   3.400
  467TIP3   OH2 1406   3.449   3.212   4.310
  467TIP3    H1 1407   3.404   3.223   4.394
  467TIP3    H2 1408   3.447   3.299   4.270
  468TIP3   OH2 1409   0.300   4.653   0.923
  468TIP3    H1 1410   0.391   4.624   0.920
  468TIP3    H2 1411   0.294   4.709   1.000
  469TIP3   OH2 1412   6.224   1.746   3.445
  469TIP3    H1 1413   6.233   1.698   3.528
  469TIP3    H2 1414   6.235   1.679   3.377
  470TIP3   OH2 1415   3.623   3.317   1.751
  470TIP3    H1 1416   3.529   3.333   1.748
  470TIP3    H2 1417   3.652   3.359   1.832
  471TIP3   OH2 1418   2.351   4.009   3.876
  471TIP3    H1 1419   2.263   3.987   3.907
  471TIP3    H2 1420   2.389   4.062   3.945
  472TIP3   OH2 1421   4.906   4.501   2.653
  472TIP3    H1 1422   4.893   4.596   2.657
  472TIP3    H2 1423   4.984   4.485   2.706
  473TIP3   OH2 1424   2.733   1.903   4.955
  473TIP3    H1 1425   2.696   1.851   5.027
  473TIP3    H2 1426   2.804   1.953   4.995
  474TIP3   OH2 1427   5.739   4.536   4.222
  474TIP3    H1 1428   5.711   4.504   4.136
  474TIP3    H2 1429   5.826   4.498   4.235
  475TIP3   OH2 1430   1.143   5.811   2.556
  475TIP3    H1 1431   1.162   5.868   2.482
  475TIP3    H2 1432   1.213   5.829   2.619
  476TIP3   OH2 1433   3.427   2.510   1.723
  476TIP3    H1 1434   3.421   2.605   1.716
  476TIP3    H2 1435   3.342   2.478   1.695
  477TIP3   OH2 1436   0.920   3.372   1.546
  477TIP3    H1 1437   0.860   3.378   1.620
  477TIP3    H2 1438   0.926   3.279   1.527
  478TIP3   OH2 1439   2.859   4.475   2.889
  478TIP3    H1 1440   2.934   4.416   2.878
  478TIP3    H2 1441   2.795   4.424   2.938
  479TIP3   OH2 1442   0.294   4.689   3.152
  479TIP3    H1 1443   0.343   4.680   3.234
  479TIP3    H2 1444   0.229   4.757   3.171
  480TIP3   OH2 1445   0.766   5.451   0.755
  480TIP3    H1 1446   0.687   5.409   0.788
  480TIP3    H2 1447   0.749   5.464   0.662
  481TIP3   OH2 1448   2.179   2.605   4.901
  481TIP3    H1 1449   2.230   2.566   4.972
  481TIP3    H2 1450   2.152   2.691   4.935
  482TIP3   OH2 1451   4.343   3.858   2.344
  482TIP3    H1 1452   4.269   3.800   2.324
  482TIP3    H2 1453   4.361   3.843   2.436
  483TIP3   OH2 1454   2.997   4.054   3.372
  483TIP3    H1 1455   2.983   4.056   3.467
  483TIP3    H2 1456   3.046   3.973   3.357
  484TIP3   OH2 1457   6.116   1.433   2.992
  484TIP3    H1 1458   6.148   1.347   3.020
  484TIP3    H2 1459   6.067   1.466   3.068
  485TIP3   OH2 1460   2.614   4.450   3.534
  485TIP3    H1 1461   2.652   4.515   3.593
  485TIP3    H2 1462   2.621   4.489   3.447
  486TIP3   OH2 1463   0.989   5.148   1.338
  486TIP3    H1 1464   0.950   5.216   1.281
  486TIP3    H2 1465   0.989   5.069   1.284
  487TIP3   OH2 1466   3.013   4.487   1.486
  487TIP3    H1 1467   3.083   4.424   1.504
  487TIP3    H2 1468   3.049   4.544   1.418
  488TIP3   OH2 1469   2.467   5.612   3.634
  488TIP3    H1 1470   2.397   5.609   3.699
  488TIP3    H2 1471   2.450   5.536   3.578
  489TIP3   OH2 1472   4.924   2.395   4.162
  489TIP3    H1 1473   4.954   2.409   4.252
  489TIP3    H2 1474   4.873   2.473   4.141
  490TIP3   OH2 1475   3.698   1.093   3.264
  490TIP3    H1 1476   3.729   1.104   3.174
  490TIP3    H2 1477   3.729   1.006   3.288
  491TIP3   OH2 1478   2.658   5.195   0.098
  491TIP3    H1 1479   2.653   5.220   0.005
  491TIP3    H2 1480   2.574   5.223   0.135
  492TIP3   OH2 1481   5.768   1.271   3.958
  492TIP3    H1 1482   5.836   1.313   4.011
  492TIP3    H2 1483   5.744   1.338   3.894
  493TIP3   OH2 1484   3.876   3.440   3.254
  493TIP3    H1 1485   3.862   3.402   3.341
  493TIP3    H2 1486   3.812   3.396   3.198
  494TIP3   OH2 1487   2.770   2.812   4.081
  494TIP3    H1 1488   2.798   2.724   4.107
  494TIP3    H2 1489   2.729   2.800   3.995
  495TIP3   OH2 1490   5.354   4.023   2.943
  495TIP3    H1 1491   5.376   3.943   2.896
  495TIP3    H2 1492   5.346   4.090   2.875
  496TIP3   OH2 1493   2.425   1.906   1.002
  496TIP3    H1 1494   2.443   1.999   0.989
  496TIP3    H2 1495   2.379   1.879   0.921
  497TIP3   OH2 1496   5.343   0.172   4.488
  497TIP3    H1 1497   5.401   0.114   4.539
  497TIP3    H2 1498   5.265   0.118   4.471
  498TIP3   OH2 1499   3.623   3.644   2.779
  498TIP3    H1 1500   3.627   3.617   2.687
  498TIP3    H2 1501   3.541   3.606   2.811
  499TIP3   OH2 1502   1.010   4.325   4.135
  499TIP3    H1 1503   1.054   4.400   4.097
  499TIP3    H2 1504   1.064   4.302   4.211
  500TIP3   OH2 1505   5.859   3.867   3.706
  500TIP3    H1 1506   5.907   3.915   3.773
  500TIP3    H2 1507   5.924   3.851   3.637
  501TIP3   OH2 1508   0.952   3.736   3.459
  501TIP3    H1 1509   0.928   3.829   3.453
  501TIP3    H2 1510   0.878   3.695   3.504
  502TIP3   OH2 1511   2.166   0.358   2.145
  502TIP3    H1 1512   2.153   0.431   2.205
  502TIP3    H2 1513   2.158   0.397   2.058
  503TIP3   OH2 1514   1.960   0.943   4.347
  503TIP3    H1 1515   2.002   0.903   4.423
  503TIP3    H2 1516   2.031   0.955   4.284
  504TIP3   OH2 1517   3.319   0.355   0.208
  504TIP3    H1 1518   3.309   0.447   0.182
  504TIP3    H2 1519   3.231   0.329   0.236
  505TIP3   OH2 1520   5.363   1.086   4.744
  505TIP3    H1 1521   5.286   1.032   4.727
  505TIP3    H2 1522   5.368   1.144   4.668
  506TIP3   OH2 1523   3.865   5.825   4.695
  506TIP3    H1 1524   3.907   5.852   4.777
  506TIP3    H2 1525   3.855   5.731   4.703
  507TIP3   OH2 1526   1.438   1.863   0.315
  507TIP3    H1 1527   1.360   1.819   0.283
  507TIP3    H2 1528   1.405   1.928   0.378
  508TIP3   OH2 1529   1.397   5.953   1.605
  508TIP3    H1 1530   1.339   5.879   1.620
  508TIP3    H2 1531   1.359   6.024   1.657
  509TIP3   OH2 1532   1.780   4.545   2.251
  509TIP3    H1 1533   1.797   4.525   2.343
  509TIP3    H2 1534   1.731   4.627   2.254
  510TIP3   OH2 1535   4.906   2.521   2.292
  510TIP3    H1 1536   4.853   2.539   2.370
  510TIP3    H2 1537   4.996   2.523   2.324
  511TIP3   OH2 1538   0.213   1.038   2.935
  511TIP3    H1 1539   0.142   1.037   2.998
  511TIP3    H2 1540   0.257   1.122   2.949
  512TIP3   OH2 1541   0.804   2.133   1.908
  512TIP3    H1 1542   0.852   2.208   1.942
  512TIP3    H2 1543   0.871   2.077   1.868
  513TIP3   OH2 1544   6.262   1.102   5.003
  513TIP3    H1 1545   6.358   1.109   5.002
  513TIP3    H2 1546   6.240   1.064   4.918
  514TIP3   OH2 1547   1.674   1.573   1.973
  514TIP3    H1 1548   1.654   1.664   1.949
  514TIP3    H2 1549   1.759   1.578   2.016
  515TIP3   OH2 1550   0.937   1.083   2.626
  515TIP3    H1 1551   0.933   1.116   2.716
  515TIP3    H2 1552   0.911   0.992   2.632
  516TIP3   OH2 1553   4.972   3.891   0.417
  516TIP3    H1 1554   5.048   3.881   0.474
  516TIP3    H2 1555   4.901   3.915   0.475
  517TIP3   OH2 1556   4.114   2.938   1.059
  517TIP3    H1 1557   4.075   2.951   1.146
  517TIP3    H2 1558   4.190   2.882   1.074
  518TIP3   OH2 1559   2.519   2.449   0.959
  518TIP3    H1 1560   2.506   2.458   1.053
  518TIP3    H2 1561   2.577   2.521   0.935
  519TIP3   OH2 1562   4.996   3.192   0.933
  519TIP3    H1 1563   5.024   3.268   0.883
  519TIP3    H2 1564   4.967   3.129   0.867
  520TIP3   OH2 1565   4.099   3.822   0.934
  520TIP3    H1 1566   4.077   3.911   0.907
  520TIP3    H2 1567   4.143   3.784   0.857
  521TIP3   OH2 1568   3.809   1.015   4.985
  521TIP3    H1 1569   3.821   1.083   5.052
  521TIP3    H2 1570   3.894   1.010   4.940
  522TIP3   OH2 1571   3.300   1.779   2.108
  522TIP3    H1 1572   3.364   1.774   2.179
  522TIP3    H2 1573   3.345   1.828   2.039
  523TIP3   OH2 1574   2.998   0.108   1.043
  523TIP3    H1 1575   3.008   0.037   0.979
  523TIP3    H2 1576   2.946   0.174   0.998
  524TIP3   OH2 1577   3.526   1.500   5.154
  524TIP3    H1 1578   3.449   1.524   5.205
  524TIP3    H2 1579   3.501   1.518   5.063
  525TIP3   OH2 1580   5.209   5.484   1.366
  525TIP3    H1 1581   5.236   5.576   1.366
  525TIP3    H2 1582   5.197   5.463   1.274
  526TIP3   OH2 1583   2.100   0.948   2.443
  526TIP3    H1 1584   2.004   0.955   2.444
  526TIP3    H2 1585   2.125   0.980   2.357
  527TIP3   OH2 1586   3.277   3.791   2.368
  527TIP3    H1 1587   3.227   3.838   2.301
  527TIP3    H2 1588   3.295   3.857   2.435
  528TIP3   OH2 1589   5.155   4.987   3.479
  528TIP3    H1 1590   5.164   4.992   3.574
  528TIP3    H2 1591   5.085   5.049   3.458
  529TIP3   OH2 1592   4.444   2.431   4.871
  529TIP3    H1 1593   4.379   2.371   4.907
  529TIP3    H2 1594   4.465   2.490   4.944
  530TIP3   OH2 1595   3.811   0.322   4.950
  530TIP3    H1 1596   3.756   0.383   5.000
  530TIP3    H2 1597   3.816   0.244   5.005
  531TIP3   OH2 1598   2.489   5.805   2.127
  531TIP3    H1 1599   2.517   5.896   2.117
  531TIP3    H2 1600   2.559   5.754   2.086
  532TIP3   OH2 1601   5.524   5.328   5.153
  532TIP3    H1 1602   5.578   5.399   5.189
  532TIP3    H2 1603   5.587   5.263   5.124
  533TIP3   OH2 1604   1.478   3.120   3.471
  533TIP3    H1 1605   1.560   3.135   3.424
  533TIP3    H2 1606   1.420   3.189   3.438
  534TIP3   OH2 1607   5.555   1.832   3.079
  534TIP3    H1 1608   5.473   1.881   3.070
  534TIP3    H2 1609   5.540   1.773   3.153
  535TIP3   OH2 1610   3.283  -0.048   3.702
  535TIP3    H1 1611   3.360  -0.048   3.645
  535TIP3    H2 1612   3.226   0.019   3.664
  536TIP3   OH2 1613   5.976   0.724   4.148
  536TIP3    H1 1614   5.920   0.768   4.212
  536TIP3    H2 1615   5.959   0.631   4.163
  537TIP3   OH2 1616   4.831   0.206   4.585
  537TIP3    H1 1617   4.837   0.148   4.661
  537TIP3    H2 1618   4.880   0.161   4.516
  538TIP3   OH2 1619   1.886   2.783   2.846
  538TIP3    H1 1620   1.920   2.693   2.852
  538TIP3    H2 1621   1.795   2.776   2.873
  539TIP3   OH2 1622   3.819   0.579   2.955
  539TIP3    H1 1623   3.893   0.633   2.981
  539TIP3    H2 1624   3.806   0.519   3.029
  540TIP3   OH2 1625   4.931   4.160   2.152
  540TIP3    H1 1626   5.021   4.134   2.168
  540TIP3    H2 1627   4.892   4.087   2.106
  541TIP3   OH2 1628   5.400   5.832   3.600
  541TIP3    H1 1629   5.439   5.749   3.630
  541TIP3    H2 1630   5.305   5.817   3.607
  542TIP3   OH2 1631   1.159   4.875   0.747
  542TIP3    H1 1632   1.083   4.914   0.790
  542TIP3    H2 1633   1.174   4.931   0.670
  543TIP3   OH2 1634   5.142   3.008   2.608
  543TIP3    H1 1635   5.222   3.020   2.556
  543TIP3    H2 1636   5.157   3.056   2.689
  544TIP3   OH2 1637   2.547   2.729   1.453
  544TIP3    H1 1638   2.607   2.654   1.465
  544TIP3    H2 1639   2.494   2.730   1.533
  545TIP3   OH2 1640   0.124   3.128   2.610
  545TIP3    H1 1641   0.151   3.216   2.635
  545TIP3    H2 1642   0.206   3.079   2.600
  546TIP3   OH2 1643   6.054   3.500   4.553
  546TIP3    H1 1644   6.118   3.552   4.504
  546TIP3    H2 1645   6.018   3.560   4.618
  547TIP3   OH2 1646   1.113   4.926   0.141
  547TIP3    H1 1647   1.047   4.863   0.171
  547TIP3    H2 1648   1.146   4.889   0.059
  548TIP3   OH2 1649   5.502   2.000   4.099
  548TIP3    H1 1650   5.553   2.020   4.177
  548TIP3    H2 1651   5.421   2.050   4.109
  549TIP3   OH2 1652   0.883   1.389   1.823
  549TIP3    H1 1653   0.952   1.368   1.887
  549TIP3    H2 1654   0.909   1.474   1.787
  550TIP3   OH2 1655   4.777   3.193   1.414
  550TIP3    H1 1656   4.721   3.255   1.367
  550TIP3    H2 1657   4.864   3.232   1.410
  551TIP3   OH2 1658   3.177   0.008   4.219
  551TIP3    H1 1659   3.159   0.043   4.307
  551TIP3    H2 1660   3.271   0.020   4.208
  552TIP3   OH2 1661   3.164   2.641   0.099
  552TIP3    H1 1662   3.172   2.664   0.191
  552TIP3    H2 1663   3.174   2.724   0.052
  553TIP3   OH2 1664   3.131   4.425   1.816
  553TIP3    H1 1665   3.204   4.432   1.878
  553TIP3    H2 1666   3.125   4.512   1.777
  554TIP3   OH2 1667   2.415   5.186   2.492
  554TIP3    H1 1668   2.398   5.102   2.450
  554TIP3    H2 1669   2.494   5.219   2.448
  555TIP3   OH2 1670   2.152   5.065   2.348
  555TIP3    H1 1671   2.082   5.126   2.369
  555TIP3    H2 1672   2.123   4.981   2.383
  556TIP3   OH2 1673   5.431   5.010   0.974
  556TIP3    H1 1674   5.449   5.093   1.020
  556TIP3    H2 1675   5.503   4.952   1.001
  557TIP3   OH2 1676   5.834   1.626   1.601
  557TIP3    H1 1677   5.744   1.641   1.572
  557TIP3    H2 1678   5.861   1.548   1.552
  558TIP3   OH2 1679   0.216   3.926   2.401
  558TIP3    H1 1680   0.210   3.991   2.470
  558TIP3    H2 1681   0.127   3.917   2.367
  559TIP3   OH2 1682   5.145   4.693   2.513
  559TIP3    H1 1683   5.159   4.754   2.586
  559TIP3    H2 1684   5.160   4.746   2.435
  560TIP3   OH2 1685   4.024   1.493   0.884
  560TIP3    H1 1686   4.006   1.587   0.895
  560TIP3    H2 1687   4.120   1.487   0.883
  561TIP3   OH2 1688   0.846   1.777   3.760
  561TIP3    H1 1689   0.890   1.829   3.693
  561TIP3    H2 1690   0.875   1.814   3.843
  562TIP3   OH2 1691   5.747   1.418   3.730
  562TIP3    H1 1692   5.791   1.502   3.747
  562TIP3    H2 1693   5.807   1.371   3.673
  563TIP3   OH2 1694   1.417   3.253   2.874
  563TIP3    H1 1695   1.366   3.175   2.852
  563TIP3    H2 1696   1.408   3.310   2.798
  564TIP3   OH2 1697   2.376   4.611   2.243
  564TIP3    H1 1698   2.375   4.658   2.326
  564TIP3    H2 1699   2.301   4.552   2.247
  565TIP3   OH2 1700   3.792   5.110   1.231
  565TIP3    H1 1701   3.887   5.126   1.235
  565TIP3    H2 1702   3.756   5.195   1.205
  566TIP3   OH2 1703   5.979   3.136   1.219
  566TIP3    H1 1704   5.893   3.165   1.188
  566TIP3    H2 1705   5.980   3.042   1.202
  567TIP3   OH2 1706   2.983   1.384   0.614
  567TIP3    H1 1707   3.074   1.414   0.614
  567TIP3    H2 1708   2.956   1.390   0.705
  568TIP3   OH2 1709   1.661   1.668   4.587
  568TIP3    H1 1710   1.683   1.704   4.501
  568TIP3    H2 1711   1.570   1.693   4.601
  569TIP3   OH2 1712   5.520   3.595   1.912
  569TIP3    H1 1713   5.471   3.578   1.992
  569TIP3    H2 1714   5.512   3.690   1.898
  570TIP3   OH2 1715   2.170   5.725   1.711
  570TIP3    H1 1716   2.170   5.805   1.765
  570TIP3    H2 1717   2.242   5.738   1.650
  571TIP3   OH2 1718   0.886   0.410   0.207
  571TIP3    H1 1719   0.900   0.488   0.260
  571TIP3    H2 1720   0.909   0.436   0.118
  572TIP3   OH2 1721   4.227   5.463   3.091
  572TIP3    H1 1722   4.265   5.389   3.043
  572TIP3    H2 1723   4.192   5.425   3.171
  573TIP3   OH2 1724   1.354   3.046   3.092
  573TIP3    H1 1725   1.408   3.081   3.021
  573TIP3    H2 1726   1.411   2.983   3.137
  574TIP3   OH2 1727   0.525   5.514   0.558
  574TIP3    H1 1728   0.498   5.535   0.469
  574TIP3    H2 1729   0.482   5.579   0.613
  575TIP3   OH2 1730   2.156   5.154   4.080
  575TIP3    H1 1731   2.137   5.073   4.033
  575TIP3    H2 1732   2.130   5.224   4.019
  576TIP3   OH2 1733   0.183   3.421   5.179
  576TIP3    H1 1734   0.220   3.352   5.234
  576TIP3    H2 1735   0.256   3.479   5.160
  577TIP3   OH2 1736   2.755   0.157   3.035
  577TIP3    H1 1737   2.798   0.212   2.970
  577TIP3    H2 1738   2.681   0.119   2.989
  578TIP3   OH2 1739   5.407   1.353   2.441
  578TIP3    H1 1740   5.428   1.300   2.364
  578TIP3    H2 1741   5.313   1.370   2.433
  579TIP3   OH2 1742   4.073   5.156   1.812
  579TIP3    H1 1743   4.053   5.067   1.839
  579TIP3    H2 1744   4.137   5.188   1.875
  580TIP3   OH2 1745   3.592   5.496   3.974
  580TIP3    H1 1746   3.619   5.406   3.956
  580TIP3    H2 1747   3.670   5.538   4.011
  581TIP3   OH2 1748   1.703   3.321   2.269
  581TIP3    H1 1749   1.688   3.318   2.363
  581TIP3    H2 1750   1.616   3.308   2.231
  582TIP3   OH2 1751   2.381   4.521   0.729
  582TIP3    H1 1752   2.385   4.492   0.637
  582TIP3    H2 1753   2.289   4.538   0.745
  583TIP3   OH2 1754   4.218   0.087   0.188
  583TIP3    H1 1755   4.247   0.047   0.106
  583TIP3    H2 1756   4.293   0.139   0.218
  584TIP3   OH2 1757   1.926   1.988   0.545
  584TIP3    H1 1758   1.948   2.057   0.607
  584TIP3    H2 1759   1.937   2.028   0.459
  585TIP3   OH2 1760   3.060   1.804   3.151
  585TIP3    H1 1761   2.996   1.875   3.164
  585TIP3    H2 1762   3.144   1.849   3.139
  586TIP3   OH2 1763   5.840   4.115   3.900
  586TIP3    H1 1764   5.777   4.055   3.940
  586TIP3    H2 1765   5.790   4.195   3.884
  587TIP3   OH2 1766   0.742   3.650   3.980
  587TIP3    H1 1767   0.699   3.568   3.954
  587TIP3    H2 1768   0.747   3.701   3.899
  588TIP3   OH2 1769   1.666   4.989   1.397
  588TIP3    H1 1770   1.614   5.035   1.331
  588TIP3    H2 1771   1.614   4.997   1.478
  589TIP3   OH2 1772   0.037   5.959   2.706
  589TIP3    H1 1773   0.031   5.866   2.686
  589TIP3    H2 1774  -0.047   5.995   2.679
  590TIP3   OH2 1775   3.803   4.984   5.120
  590TIP3    H1 1776   3.782   5.036   5.197
  590TIP3    H2 1777   3.723   4.934   5.102
  591TIP3   OH2 1778   2.486   0.146   5.154
  591TIP3    H1 1779   2.457   0.229   5.193
  591TIP3    H2 1780   2.409   0.110   5.111
  592TIP3   OH2 1781   4.877   4.374   3.929
  592TIP3    H1 1782   4.789   4.364   3.894
  592TIP3    H2 1783   4.866   4.433   4.004
  593TIP3   OH2 1784   2.977   3.249   0.389
  593TIP3    H1 1785   2.988   3.209   0.475
  593TIP3    H2 1786   2.887   3.228   0.365
  594TIP3   OH2 1787   3.932   1.718   2.457
  594TIP3    H1 1788   3.856   1.764   2.491
  594TIP3    H2 1789   3.901   1.629   2.440
  595TIP3   OH2 1790   5.856   3.777   2.903
  595TIP3    H1 1791   5.838   3.844   2.837
  595TIP3    H2 1792   5.770   3.742   2.927
  596TIP3   OH2 1793   0.431   5.692   1.408
  596TIP3    H1 1794   0.356   5.747   1.382
  596TIP3    H2 1795   0.398   5.641   1.482
  597TIP3   OH2 1796   0.809   0.534   1.029
  597TIP3    H1 1797   0.770   0.610   0.985
  597TIP3    H2 1798   0.839   0.568   1.113
  598TIP3   OH2 1799   2.987   3.493   3.311
  598TIP3    H1 1800   3.052   3.460   3.373
  598TIP3    H2 1801   3.027   3.479   3.225
  599TIP3   OH2 1802   5.522   4.468   4.406
  599TIP3    H1 1803   5.540   4.557   4.437
  599TIP3    H2 1804   5.554   4.467   4.316
  600TIP3   OH2 1805   4.608   4.494   1.909
  600TIP3    H1 1806   4.670   4.460   1.844
  600TIP3    H2 1807   4.522   4.462   1.880
  601TIP3   OH2 1808   0.516   2.136   1.910
  601TIP3    H1 1809   0.514   2.050   1.952
  601TIP3    H2 1810   0.608   2.148   1.885
  602TIP3   OH2 1811   1.946   5.134   4.605
  602TIP3    H1 1812   1.970   5.189   4.679
  602TIP3    H2 1813   1.871   5.083   4.635
  603TIP3   OH2 1814   5.994   0.841   0.397
  603TIP3    H1 1815   5.902   0.865   0.403
  603TIP3    H2 1816   5.998   0.752   0.434
  604TIP3   OH2 1817   2.613   0.219   1.487
  604TIP3    H1 1818   2.588   0.223   1.395
  604TIP3    H2 1819   2.571   0.295   1.528
  605TIP3   OH2 1820   2.877   4.383   0.194
  605TIP3    H1 1821   2.919   4.334   0.123
  605TIP3    H2 1822   2.948   4.399   0.257
  606TIP3   OH2 1823   4.831   0.296   3.868
  606TIP3    H1 1824   4.815   0.206   3.839
  606TIP3    H2 1825   4.744   0.336   3.871
  607TIP3   OH2 1826   4.165   0.350   1.293
  607TIP3    H1 1827   4.184   0.311   1.378
  607TIP3    H2 1828   4.106   0.287   1.251
  608TIP3   OH2 1829   1.908   5.376   3.625
  608TIP3    H1 1830   1.921   5.298   3.571
  608TIP3    H2 1831   1.816   5.398   3.615
  609TIP3   OH2 1832   6.038   4.083   4.497
  609TIP3    H1 1833   6.025   4.176   4.480
  609TIP3    H2 1834   5.955   4.042   4.473
  610TIP3   OH2 1835   0.787   1.508   3.763
  610TIP3    H1 1836   0.820   1.596   3.748
  610TIP3    H2 1837   0.851   1.468   3.823
  611TIP3   OH2 1838   4.089   1.064   2.928
  611TIP3    H1 1839   4.002   1.052   2.968
  611TIP3    H2 1840   4.121   0.975   2.916
  612TIP3   OH2 1841   2.673   1.997   0.767
  612TIP3    H1 1842   2.761   1.969   0.743
  612TIP3    H2 1843   2.685   2.050   0.846
  613TIP3   OH2 1844   5.673   0.585   2.691
  613TIP3    H1 1845   5.743   0.628   2.641
  613TIP3    H2 1846   5.597   0.642   2.681
  614TIP3   OH2 1847   5.379   5.487   4.583
  614TIP3    H1 1848   5.332   5.517   4.506
  614TIP3    H2 1849   5.468   5.519   4.572
  615TIP3   OH2 1850   4.082   2.826   3.826
  615TIP3    H1 1851   4.025   2.884   3.877
  615TIP3    H2 1852   4.120   2.884   3.759
  616TIP3   OH2 1853   1.285   0.498   1.200
  616TIP3    H1 1854   1.211   0.448   1.235
  616TIP3    H2 1855   1.245   0.563   1.143
  617TIP3   OH2 1856   2.821   1.621   3.804
  617TIP3    H1 1857   2.842   1.564   3.731
  617TIP3    H2 1858   2.892   1.608   3.867
  618TIP3   OH2 1859   2.996   0.936   2.467
  618TIP3    H1 1860   2.927   0.971   2.410
  618TIP3    H2 1861   2.973   0.843   2.478
  619TIP3   OH2 1862   5.336   0.160   3.086
  619TIP3    H1 1863   5.361   0.133   3.174
  619TIP3    H2 1864   5.283   0.239   3.098
  620TIP3   OH2 1865   5.607   1.478   2.695
  620TIP3    H1 1866   5.599   1.416   2.623
  620TIP3    H2 1867   5.696   1.514   2.685
  621TIP3   OH2 1868   2.468   3.739   1.781
  621TIP3    H1 1869   2.385   3.778   1.755
  621TIP3    H2 1870   2.498   3.692   1.703
  622TIP3   OH2 1871   0.532   4.885   3.060
  622TIP3    H1 1872   0.466   4.923   3.002
  622TIP3    H2 1873   0.485   4.817   3.108
  623TIP3   OH2 1874   5.488   4.381   1.906
  623TIP3    H1 1875   5.417   4.357   1.966
  623TIP3    H2 1876   5.451   4.372   1.819
  624TIP3   OH2 1877   0.971   0.298   0.960
  624TIP3    H1 1878   0.925   0.381   0.960
  624TIP3    H2 1879   1.038   0.308   0.892
  625TIP3   OH2 1880   4.105   3.454   3.460
  625TIP3    H1 1881   4.062   3.379   3.501
  625TIP3    H2 1882   4.065   3.531   3.501
  626TIP3   OH2 1883   1.891   3.539   3.901
  626TIP3    H1 1884   1.851   3.625   3.902
  626TIP3    H2 1885   1.983   3.555   3.879
  627TIP3   OH2 1886   5.105   1.891   2.595
  627TIP3    H1 1887   5.034   1.869   2.535
  627TIP3    H2 1888   5.156   1.810   2.603
  628TIP3   OH2 1889   5.298   5.041   2.114
  628TIP3    H1 1890   5.211   5.076   2.094
  628TIP3    H2 1891   5.310   4.969   2.051
  629TIP3   OH2 1892   5.683   5.582   2.452
  629TIP3    H1 1893   5.730   5.585   2.368
  629TIP3    H2 1894   5.669   5.488   2.467
  630TIP3   OH2 1895   3.294   0.529   1.430
  630TIP3    H1 1896   3.295   0.435   1.408
  630TIP3    H2 1897   3.220   0.538   1.490
  631TIP3   OH2 1898   5.990   3.406   3.193
  631TIP3    H1 1899   6.075   3.443   3.216
  631TIP3    H2 1900   5.997   3.386   3.099
  632TIP3   OH2 1901   1.491   5.811   0.098
  632TIP3    H1 1902   1.531   5.828   0.184
  632TIP3    H2 1903   1.397   5.819   0.113
  633TIP3   OH2 1904   4.247   1.231   0.417
  633TIP3    H1 1905   4.166   1.183   0.399
  633TIP3    H2 1906   4.305   1.209   0.345
  634TIP3   OH2 1907   3.906   3.310   0.054
  634TIP3    H1 1908   3.825   3.301   0.004
  634TIP3    H2 1909   3.891   3.387   0.109
  635TIP3   OH2 1910   3.293   1.978   0.045
  635TIP3    H1 1911   3.374   1.952   0.090
  635TIP3    H2 1912   3.268   2.060   0.087
  636TIP3   OH2 1913   5.398   0.887   4.497
  636TIP3    H1 1914   5.396   0.843   4.582
  636TIP3    H2 1915   5.457   0.834   4.444
  637TIP3   OH2 1916   6.136   3.308   2.304
  637TIP3    H1 1917   6.194   3.343   2.371
  637TIP3    H2 1918   6.142   3.213   2.315
  638TIP3   OH2 1919   3.261   2.628   2.323
  638TIP3    H1 1920   3.234   2.577   2.400
  638TIP3    H2 1921   3.298   2.563   2.263
  639TIP3   OH2 1922   0.163   3.427   0.854
  639TIP3    H1 1923   0.246   3.421   0.901
  639TIP3    H2 1924   0.186   3.409   0.762
  640TIP3   OH2 1925   3.133   5.265   4.799
  640TIP3    H1 1926   3.197   5.205   4.761
  640TIP3    H2 1927   3.077   5.290   4.726
  641TIP3   OH2 1928   1.040   0.102   3.576
  641TIP3    H1 1929   0.977   0.049   3.624
  641TIP3    H2 1930   1.107   0.040   3.547
  642TIP3   OH2 1931   3.601   3.595   4.756
  642TIP3    H1 1932   3.516   3.582   4.798
  642TIP3    H2 1933   3.655   3.635   4.824
  643TIP3   OH2 1934   5.159   3.773   4.890
  643TIP3    H1 1935   5.186   3.837   4.824
  643TIP3    H2 1936   5.239   3.755   4.940
  644TIP3   OH2 1937   4.655   3.696   4.160
  644TIP3    H1 1938   4.572   3.744   4.156
  644TIP3    H2 1939   4.642   3.631   4.229
  645TIP3   OH2 1940   6.043   5.411   1.410
  645TIP3    H1 1941   6.085   5.350   1.472
  645TIP3    H2 1942   5.954   5.423   1.445
  646TIP3   OH2 1943   5.460   0.286   3.782
  646TIP3    H1 1944   5.429   0.211   3.833
  646TIP3    H2 1945   5.482   0.351   3.848
  647TIP3   OH2 1946   3.721   3.960   1.352
  647TIP3    H1 1947   3.745   4.021   1.422
  647TIP3    H2 1948   3.708   4.016   1.275
  648TIP3   OH2 1949   5.450   4.045   4.889
  648TIP3    H1 1950   5.445   4.139   4.907
  648TIP3    H2 1951   5.379   4.029   4.827
  649TIP3   OH2 1952   3.021   0.150   2.000
  649TIP3    H1 1953   3.113   0.176   1.996
  649TIP3    H2 1954   3.018   0.088   2.073
  650TIP3   OH2 1955   4.061   4.092   1.292
  650TIP3    H1 1956   4.022   4.170   1.252
  650TIP3    H2 1957   4.132   4.125   1.346
  651TIP3   OH2 1958   1.145   4.440   2.928
  651TIP3    H1 1959   1.113   4.527   2.952
  651TIP3    H2 1960   1.074   4.402   2.877
  652TIP3   OH2 1961   5.478   2.727   3.769
  652TIP3    H1 1962   5.550   2.747   3.828
  652TIP3    H2 1963   5.442   2.813   3.746
  653TIP3   OH2 1964   1.829   5.469   0.803
  653TIP3    H1 1965   1.740   5.438   0.819
  653TIP3    H2 1966   1.818   5.558   0.771
  654TIP3   OH2 1967   5.415   1.409   3.150
  654TIP3    H1 1968   5.466   1.439   3.075
  654TIP3    H2 1969   5.329   1.390   3.114
  655TIP3   OH2 1970   3.759   5.048   3.063
  655TIP3    H1 1971   3.678   5.024   3.019
  655TIP3    H2 1972   3.738   5.129   3.109
  656TIP3   OH2 1973   4.960   1.317   0.024
  656TIP3    H1 1974   4.893   1.252   0.045
  656TIP3    H2 1975   4.913   1.401   0.027
  657TIP3   OH2 1976   5.486   0.218   2.866
  657TIP3    H1 1977   5.429   0.193   2.938
  657TIP3    H2 1978   5.536   0.138   2.846
  658TIP3   OH2 1979   3.192   5.218   0.885
  658TIP3    H1 1980   3.169   5.253   0.971
  658TIP3    H2 1981   3.184   5.123   0.895
  659TIP3   OH2 1982   5.947   3.918   1.037
  659TIP3    H1 1983   5.952   4.010   1.009
  659TIP3    H2 1984   6.010   3.912   1.108
  660TIP3   OH2 1985   3.506   2.064   1.708
  660TIP3    H1 1986   3.592   2.101   1.687
  660TIP3    H2 1987   3.478   2.021   1.628
  661TIP3   OH2 1988   3.256   5.445   2.470
  661TIP3    H1 1989   3.185   5.422   2.529
  661TIP3    H2 1990   3.239   5.393   2.391
  662TIP3   OH2 1991   1.503   0.045   0.590
  662TIP3    H1 1992   1.471   0.027   0.502
  662TIP3    H2 1993   1.426   0.073   0.639
  663TIP3   OH2 1994   0.984   3.883   2.554
  663TIP3    H1 1995   1.023   3.962   2.517
  663TIP3    H2 1996   1.059   3.824   2.569
  664TIP3   OH2 1997   4.478   3.528   1.443
  664TIP3    H1 1998   4.463   3.531   1.537
  664TIP3    H2 1999   4.393   3.551   1.404
  665TIP3   OH2 2000   5.789   3.647   3.245
  665TIP3    H1 2001   5.732   3.647   3.322
  665TIP3    H2 2002   5.843   3.569   3.255
  666TIP3   OH2 2003   6.126   2.049   3.895
  666TIP3    H1 2004   6.140   2.008   3.809
  666TIP3    H2 2005   6.032   2.064   3.899
  667TIP3   OH2 2006   5.589   5.642   2.955
  667TIP3    H1 2007   5.539   5.711   2.911
  667TIP3    H2 2008   5.535   5.564   2.945
  668TIP3   OH2 2009   0.415   1.437   4.103
  668TIP3    H1 2010   0.353   1.399   4.040
  668TIP3    H2 2011   0.367   1.510   4.143
  669TIP3   OH2 2012   4.557   0.177   0.607
  669TIP3    H1 2013   4.533   0.085   0.602
  669TIP3    H2 2014   4.473   0.223   0.609
  670TIP3   OH2 2015   3.749   4.713   0.574
  670TIP3    H1 2016   3.765   4.740   0.484
  670TIP3    H2 2017   3.832   4.728   0.619
  671TIP3   OH2 2018   2.619   0.029   4.570
  671TIP3    H1 2019   2.713   0.043   4.573
  671TIP3    H2 2020   2.582   0.113   4.543
  672TIP3   OH2 2021   4.983   5.994   3.182
  672TIP3    H1 2022   4.921   5.958   3.245
  672TIP3    H2 2023   5.013   5.918   3.132
  673TIP3   OH2 2024   3.374   5.487   3.496
  673TIP3    H1 2025   3.420   5.541   3.560
  673TIP3    H2 2026   3.339   5.414   3.547
  674TIP3   OH2 2027   3.969   0.900   2.435
  674TIP3    H1 2028   3.886   0.871   2.396
  674TIP3    H2 2029   3.999   0.825   2.486
  675TIP3   OH2 2030   0.401   2.707   0.060
  675TIP3    H1 2031   0.320   2.753   0.084
  675TIP3    H2 2032   0.371   2.623   0.026
  676TIP3   OH2 2033   6.113   1.746   2.622
  676TIP3    H1 2034   6.133   1.746   2.716
  676TIP3    H2 2035   6.180   1.690   2.583
  677TIP3   OH2 2036   1.288   4.445   4.529
  677TIP3    H1 2037   1.298   4.535   4.499
  677TIP3    H2 2038   1.293   4.392   4.450
  678TIP3   OH2 2039   0.912   5.771   4.230
  678TIP3    H1 2040   0.987   5.716   4.207
  678TIP3    H2 2041   0.948   5.860   4.235
  679TIP3   OH2 2042   2.518   3.132   4.397
  679TIP3    H1 2043   2.512   3.059   4.459
  679TIP3    H2 2044   2.555   3.093   4.318
  680TIP3   OH2 2045   4.423   3.698   2.120
  680TIP3    H1 2046   4.448   3.754   2.193
  680TIP3    H2 2047   4.435   3.754   2.043
  681TIP3   OH2 2048   5.954   2.876   1.176
  681TIP3    H1 2049   5.976   2.793   1.134
  681TIP3    H2 2050   5.897   2.851   1.249
  682TIP3   OH2 2051   3.637   5.823   3.720
  682TIP3    H1 2052   3.621   5.901   3.775
  682TIP3    H2 2053   3.581   5.836   3.644
  683TIP3   OH2 2054   0.301   1.784   4.835
  683TIP3    H1 2055   0.218   1.791   4.882
  683TIP3    H2 2056   0.366   1.773   4.904
  684TIP3   OH2 2057   1.548   5.626   1.743
  684TIP3    H1 2058   1.634   5.584   1.736
  684TIP3    H2 2059   1.564   5.702   1.799
  685TIP3   OH2 2060   0.123   4.915   0.553
  685TIP3    H1 2061   0.115   4.862   0.633
  685TIP3    H2 2062   0.212   4.899   0.523
  686TIP3   OH2 2063   5.144   2.196   0.693
  686TIP3    H1 2064   5.064   2.185   0.744
  686TIP3    H2 2065   5.173   2.107   0.674
  687TIP3   OH2 2066   0.470   2.768   3.787
  687TIP3    H1 2067   0.461   2.680   3.751
  687TIP3    H2 2068   0.557   2.768   3.827
  688TIP3   OH2 2069   0.444   3.360   4.939
  688TIP3    H1 2070   0.427   3.427   5.004
  688TIP3    H2 2071   0.369   3.364   4.879
  689TIP3   OH2 2072   1.857   2.955   0.392
  689TIP3    H1 2073   1.813   2.980   0.311
  689TIP3    H2 2074   1.804   2.994   0.461
  690TIP3   OH2 2075   5.830   3.314   2.503
  690TIP3    H1 2076   5.783   3.358   2.573
  690TIP3    H2 2077   5.825   3.221   2.526
  691TIP3   OH2 2078   1.673   5.632   1.103
  691TIP3    H1 2079   1.643   5.573   1.034
  691TIP3    H2 2080   1.715   5.575   1.167
  692TIP3   OH2 2081   2.754   3.787   4.996
  692TIP3    H1 2082   2.788   3.698   5.001
  692TIP3    H2 2083   2.784   3.820   4.911
  693TIP3   OH2 2084   1.666   3.227   1.687
  693TIP3    H1 2085   1.687   3.242   1.595
  693TIP3    H2 2086   1.584   3.274   1.701
  694TIP3   OH2 2087   1.220   2.323   3.590
  694TIP3    H1 2088   1.151   2.330   3.525
  694TIP3    H2 2089   1.182   2.273   3.661
  695TIP3   OH2 2090   3.385   2.890   1.964
  695TIP3    H1 2091   3.407   2.886   1.871
  695TIP3    H2 2092   3.405   2.980   1.990
  696TIP3   OH2 2093   4.704   5.540   4.532
  696TIP3    H1 2094   4.750   5.605   4.586
  696TIP3    H2 2095   4.615   5.575   4.523
  697TIP3   OH2 2096   6.070   3.057   2.187
  697TIP3    H1 2097   6.028   2.988   2.135
  697TIP3    H2 2098   6.008   3.130   2.185
  698TIP3   OH2 2099   4.992   3.881   2.086
  698TIP3    H1 2100   4.912   3.874   2.034
  698TIP3    H2 2101   4.967   3.848   2.172
  699TIP3   OH2 2102   0.375   5.310   3.666
  699TIP3    H1 2103   0.404   5.244   3.729
  699TIP3    H2 2104   0.314   5.364   3.716
  700TIP3   OH2 2105   5.009   4.250   3.035
  700TIP3    H1 2106   4.940   4.195   2.998
  700TIP3    H2 2107   5.021   4.218   3.124
  701TIP3   OH2 2108   3.505   0.525   2.245
  701TIP3    H1 2109   3.505   0.587   2.172
  701TIP3    H2 2110   3.575   0.463   2.223
  702TIP3   OH2 2111   4.911   0.586   4.843
  702TIP3    H1 2112   4.909   0.675   4.878
  702TIP3    H2 2113   4.839   0.541   4.887
  703TIP3   OH2 2114   4.468   3.802   0.796
  703TIP3    H1 2115   4.429   3.877   0.840
  703TIP3    H2 2116   4.539   3.774   0.853
  704TIP3   OH2 2117   2.981   3.607   2.788
  704TIP3    H1 2118   2.966   3.699   2.811
  704TIP3    H2 2119   2.979   3.606   2.692
  705TIP3   OH2 2120   4.178   0.683   0.438
  705TIP3    H1 2121   4.090   0.718   0.429
  705TIP3    H2 2122   4.204   0.658   0.349
  706TIP3   OH2 2123   1.786   0.414   3.165
  706TIP3    H1 2124   1.711   0.380   3.117
  706TIP3    H2 2125   1.815   0.490   3.115
  707TIP3   OH2 2126   4.047   0.994   0.431
  707TIP3    H1 2127   3.993   0.915   0.438
  707TIP3    H2 2128   4.039   1.035   0.517
  708TIP3   OH2 2129   2.263   1.157   1.515
  708TIP3    H1 2130   2.177   1.195   1.494
  708TIP3    H2 2131   2.294   1.209   1.589
  709TIP3   OH2 2132   4.376   2.944   0.758
  709TIP3    H1 2133   4.352   3.011   0.693
  709TIP3    H2 2134   4.471   2.950   0.765
  710TIP3   OH2 2135   3.272   5.581   4.308
  710TIP3    H1 2136   3.250   5.554   4.397
  710TIP3    H2 2137   3.345   5.642   4.319
  711TIP3   OH2 2138   6.058   0.512   1.493
  711TIP3    H1 2139   6.028   0.451   1.426
  711TIP3    H2 2140   6.143   0.544   1.460
  712TIP3   OH2 2141   2.975   1.559   1.863
  712TIP3    H1 2142   2.934   1.473   1.853
  712TIP3    H2 2143   3.023   1.572   1.781
  713TIP3   OH2 2144   3.401   3.879   0.226
  713TIP3    H1 2145   3.476   3.926   0.190
  713TIP3    H2 2146   3.423   3.864   0.318
  714TIP3   OH2 2147   5.184   0.948   1.522
  714TIP3    H1 2148   5.163   0.979   1.434
  714TIP3    H2 2149   5.198   1.028   1.573
  715TIP3   OH2 2150   2.606   5.157   1.151
  715TIP3    H1 2151   2.516   5.181   1.172
  715TIP3    H2 2152   2.638   5.113   1.230
  716TIP3   OH2 2153   1.605   5.103   0.353
  716TIP3    H1 2154   1.510   5.099   0.369
  716TIP3    H2 2155   1.623   5.028   0.297
  717TIP3   OH2 2156   4.106   3.432   0.455
  717TIP3    H1 2157   4.147   3.360   0.502
  717TIP3    H2 2158   4.025   3.449   0.502
  718TIP3   OH2 2159   3.373   1.507   3.262
  718TIP3    H1 2160   3.343   1.466   3.343
  718TIP3    H2 2161   3.429   1.579   3.291
  719TIP3   OH2 2162   0.201   4.984   1.926
  719TIP3    H1 2163   0.287   4.942   1.922
  719TIP3    H2 2164   0.188   5.019   1.838
  720TIP3   OH2 2165   6.047   4.912   4.469
  720TIP3    H1 2166   6.110   4.901   4.397
  720TIP3    H2 2167   5.972   4.859   4.443
  721TIP3   OH2 2168   1.817   5.653   2.148
  721TIP3    H1 2169   1.787   5.675   2.060
  721TIP3    H2 2170   1.808   5.735   2.197
  722TIP3   OH2 2171   6.243   2.936   3.659
  722TIP3    H1 2172   6.284   2.896   3.736
  722TIP3    H2 2173   6.233   2.863   3.597
  723TIP3   OH2 2174   2.783   1.675   3.053
  723TIP3    H1 2175   2.787   1.585   3.085
  723TIP3    H2 2176   2.871   1.710   3.069
  724TIP3   OH2 2177   4.961   3.844   3.388
  724TIP3    H1 2178   4.877   3.799   3.390
  724TIP3    H2 2179   4.940   3.937   3.389
  725TIP3   OH2 2180   0.422   0.684   4.785
  725TIP3    H1 2181   0.441   0.633   4.863
  725TIP3    H2 2182   0.424   0.775   4.814
  726TIP3   OH2 2183   1.792   4.821   3.348
  726TIP3    H1 2184   1.765   4.827   3.439
  726TIP3    H2 2185   1.711   4.829   3.298
  727TIP3   OH2 2186   6.008   5.000   4.713
  727TIP3    H1 2187   5.995   5.090   4.683
  727TIP3    H2 2188   6.033   4.952   4.634
  728TIP3   OH2 2189   0.761   0.305   1.652
  728TIP3    H1 2190   0.850   0.340   1.657
  728TIP3    H2 2191   0.755   0.270   1.563
  729TIP3   OH2 2192   5.763   0.741   4.804
  729TIP3    H1 2193   5.702   0.809   4.775
  729TIP3    H2 2194   5.708   0.677   4.849
  730TIP3   OH2 2195   4.883   5.313   0.419
  730TIP3    H1 2196   4.893   5.402   0.384
  730TIP3    H2 2197   4.924   5.257   0.354
  731TIP3   OH2 2198   0.847   2.747   0.286
  731TIP3    H1 2199   0.813   2.738   0.197
  731TIP3    H2 2200   0.941   2.734   0.277
  732TIP3   OH2 2201   4.884   1.813   2.390
  732TIP3    H1 2202   4.852   1.730   2.354
  732TIP3    H2 2203   4.806   1.868   2.396
  733TIP3   OH2 2204   4.986   5.151   1.377
  733TIP3    H1 2205   4.956   5.061   1.368
  733TIP3    H2 2206   5.075   5.144   1.411
  734TIP3   OH2 2207   5.402   5.800   0.613
  734TIP3    H1 2208   5.406   5.714   0.656
  734TIP3    H2 2209   5.465   5.793   0.541
  735TIP3   OH2 2210   2.138   0.536   0.991
  735TIP3    H1 2211   2.140   0.458   1.047
  735TIP3    H2 2212   2.149   0.609   1.052
  736TIP3   OH2 2213   1.771   0.294   1.958
  736TIP3    H1 2214   1.775   0.202   1.985
  736TIP3    H2 2215   1.736   0.291   1.869
  737TIP3   OH2 2216   2.886   3.729   0.224
  737TIP3    H1 2217   2.982   3.726   0.228
  737TIP3    H2 2218   2.865   3.822   0.227
  738TIP3   OH2 2219   4.391   0.266   3.908
  738TIP3    H1 2220   4.468   0.301   3.864
  738TIP3    H2 2221   4.383   0.176   3.875
  739TIP3   OH2 2222   0.347   2.945   0.384
  739TIP3    H1 2223   0.369   3.009   0.452
  739TIP3    H2 2224   0.430   2.903   0.362
  740TIP3   OH2 2225   0.635   0.356   0.300
  740TIP3    H1 2226   0.623   0.319   0.213
  740TIP3    H2 2227   0.723   0.394   0.298
  741TIP3   OH2 2228   3.399   2.594   4.273
  741TIP3    H1 2229   3.448   2.513   4.253
  741TIP3    H2 2230   3.411   2.648   4.196
  742TIP3   OH2 2231   2.136   5.288   1.173
  742TIP3    H1 2232   2.215   5.296   1.119
  742TIP3    H2 2233   2.074   5.350   1.136
  743TIP3   OH2 2234   5.524   1.021   2.247
  743TIP3    H1 2235   5.558   1.110   2.236
  743TIP3    H2 2236   5.434   1.033   2.278
  744TIP3   OH2 2237   3.704   2.919   2.522
  744TIP3    H1 2238   3.756   2.841   2.538
  744TIP3    H2 2239   3.756   2.990   2.560
  745TIP3   OH2 2240   1.287   1.349   1.167
  745TIP3    H1 2241   1.205   1.386   1.133
  745TIP3    H2 2242   1.259   1.277   1.223
  746TIP3   OH2 2243   3.707   5.336   2.302
  746TIP3    H1 2244   3.686   5.391   2.227
  746TIP3    H2 2245   3.625   5.326   2.350
  747TIP3   OH2 2246   3.601   1.950   3.095
  747TIP3    H1 2247   3.638   2.012   3.032
  747TIP3    H2 2248   3.608   1.865   3.052
  748TIP3   OH2 2249   4.592   2.501   2.733
  748TIP3    H1 2250   4.498   2.517   2.724
  748TIP3    H2 2251   4.605   2.484   2.826
  749TIP3   OH2 2252   3.284   3.104   3.828
  749TIP3    H1 2253   3.221   3.099   3.756
  749TIP3    H2 2254   3.252   3.040   3.892
  750TIP3   OH2 2255   4.728   3.170   1.904
  750TIP3    H1 2256   4.687   3.149   1.988
  750TIP3    H2 2257   4.790   3.098   1.889
  751TIP3   OH2 2258   3.946   0.816   1.741
  751TIP3    H1 2259   4.009   0.880   1.708
  751TIP3    H2 2260   3.867   0.829   1.688
  752TIP3   OH2 2261   3.444   3.429   3.343
  752TIP3    H1 2262   3.516   3.451   3.284
  752TIP3    H2 2263   3.388   3.370   3.293
  753TIP3   OH2 2264   2.111   3.887   3.971
  753TIP3    H1 2265   2.044   3.917   3.909
  753TIP3    H2 2266   2.066   3.886   4.055
  754TIP3   OH2 2267   5.457   0.038   1.886
  754TIP3    H1 2268   5.543   0.079   1.897
  754TIP3    H2 2269   5.431   0.062   1.797
  755TIP3   OH2 2270   1.079   1.446   0.994
  755TIP3    H1 2271   1.052   1.502   1.067
  755TIP3    H2 2272   1.072   1.503   0.917
  756TIP3   OH2 2273   3.593   3.328   2.880
  756TIP3    H1 2274   3.519   3.386   2.896
  756TIP3    H2 2275   3.652   3.342   2.954
  757TIP3   OH2 2276   2.018   2.714   1.820
  757TIP3    H1 2277   1.980   2.626   1.809
  757TIP3    H2 2278   2.095   2.700   1.875
  758TIP3   OH2 2279   3.994   0.574   0.188
  758TIP3    H1 2280   3.901   0.567   0.211
  758TIP3    H2 2281   4.000   0.535   0.100
  759TIP3   OH2 2282   2.398   5.085   1.784
  759TIP3    H1 2283   2.444   5.004   1.761
  759TIP3    H2 2284   2.434   5.150   1.724
  760TIP3   OH2 2285   1.293   0.354   0.025
  760TIP3    H1 2286   1.286   0.381  -0.067
  760TIP3    H2 2287   1.283   0.435   0.074
  761TIP3   OH2 2288   5.479   3.079   3.135
  761TIP3    H1 2289   5.474   3.004   3.076
  761TIP3    H2 2290   5.563   3.069   3.181
  762TIP3   OH2 2291   5.575   2.288   4.423
  762TIP3    H1 2292   5.603   2.200   4.396
  762TIP3    H2 2293   5.480   2.285   4.420
  763TIP3   OH2 2294   0.234   4.364   4.618
  763TIP3    H1 2295   0.221   4.300   4.548
  763TIP3    H2 2296   0.285   4.317   4.684
  764TIP3   OH2 2297   4.963   0.124   4.241
  764TIP3    H1 2298   5.028   0.188   4.269
  764TIP3    H2 2299   4.985   0.107   4.149
  765TIP3   OH2 2300   0.880   5.028   0.753
  765TIP3    H1 2301   0.802   5.078   0.775
  765TIP3    H2 2302   0.850   4.937   0.751
  766TIP3   OH2 2303   1.174   4.980   1.695
  766TIP3    H1 2304   1.241   4.912   1.683
  766TIP3    H2 2305   1.198   5.022   1.778
  767TIP3   OH2 2306   4.867   3.902   4.230
  767TIP3    H1 2307   4.812   3.835   4.189
  767TIP3    H2 2308   4.907   3.856   4.304
  768TIP3   OH2 2309   3.845   5.913   5.062
  768TIP3    H1 2310   3.927   5.883   5.022
  768TIP3    H2 2311   3.843   5.869   5.147
  769TIP3   OH2 2312   2.289   1.949   4.142
  769TIP3    H1 2313   2.194   1.950   4.126
  769TIP3    H2 2314   2.307   1.860   4.172
  770TIP3   OH2 2315   5.812   3.939   0.661
  770TIP3    H1 2316   5.866   3.906   0.733
  770TIP3    H2 2317   5.866   4.006   0.619
  771TIP3   OH2 2318   2.098   1.334   4.160
  771TIP3    H1 2319   2.101   1.337   4.256
  771TIP3    H2 2320   2.038   1.405   4.136
  772TIP3   OH2 2321   5.472   3.883   2.539
  772TIP3    H1 2322   5.473   3.867   2.445
  772TIP3    H2 2323   5.443   3.974   2.548
  773TIP3   OH2 2324   5.042   0.138   2.598
  773TIP3    H1 2325   4.976   0.204   2.615
  773TIP3    H2 2326   5.117   0.187   2.565
  774TIP3   OH2 2327   3.691   1.840   5.151
  774TIP3    H1 2328   3.607   1.865   5.190
  774TIP3    H2 2329   3.681   1.861   5.058
  775TIP3   OH2 2330   2.939   0.639   3.670
  775TIP3    H1 2331   2.947   0.678   3.757
  775TIP3    H2 2332   2.946   0.545   3.686
  776TIP3   OH2 2333   5.304   2.184   4.173
  776TIP3    H1 2334   5.232   2.138   4.216
  776TIP3    H2 2335   5.265   2.224   4.096
  777TIP3   OH2 2336   3.962   1.154   2.556
  777TIP3    H1 2337   3.985   1.082   2.497
  777TIP3    H2 2338   3.877   1.131   2.592
  778TIP3   OH2 2339   4.615   5.123   2.408
  778TIP3    H1 2340   4.587   5.050   2.463
  778TIP3    H2 2341   4.698   5.093   2.370
  779TIP3   OH2 2342   1.576   5.443   0.933
  779TIP3    H1 2343   1.500   5.467   0.880
  779TIP3    H2 2344   1.556   5.356   0.966
  780TIP3   OH2 2345  -0.021   2.236   1.332
  780TIP3    H1 2346   0.012   2.149   1.357
  780TIP3    H2 2347   0.020   2.296   1.394
  781TIP3   OH2 2348   2.420   2.802   3.548
  781TIP3    H1 2349   2.390   2.729   3.493
  781TIP3    H2 2350   2.340   2.850   3.569
  782TIP3   OH2 2351   3.015   1.616   0.867
  782TIP3    H1 2352   2.955   1.542   0.881
  782TIP3    H2 2353   3.006   1.637   0.774
  783TIP3   OH2 2354   3.969   4.275   4.121
  783TIP3    H1 2355   3.994   4.191   4.083
  783TIP3    H2 2356   3.949   4.330   4.045
  784TIP3   OH2 2357   1.878   3.885   0.736
  784TIP3    H1 2358   1.786   3.878   0.760
  784TIP3    H2 2359   1.886   3.975   0.701
  785TIP3   OH2 2360   3.349   4.110   1.978
  785TIP3    H1 2361   3.280   4.066   1.928
  785TIP3    H2 2362   3.379   4.181   1.921
  786TIP3   OH2 2363   1.280   0.170   1.206
  786TIP3    H1 2364   1.234   0.236   1.258
  786TIP3    H2 2365   1.229   0.090   1.218
  787TIP3   OH2 2366   5.673   0.349   2.374
  787TIP3    H1 2367   5.666   0.325   2.467
  787TIP3    H2 2368   5.762   0.324   2.349
  788TIP3   OH2 2369   6.007   1.795   1.232
  788TIP3    H1 2370   6.085   1.738   1.232
  788TIP3    H2 2371   5.934   1.736   1.213
  789TIP3   OH2 2372   2.319   1.593   1.721
  789TIP3    H1 2373   2.269   1.625   1.796
  789TIP3    H2 2374   2.402   1.563   1.759
  790TIP3   OH2 2375   5.748   2.162   2.196
  790TIP3    H1 2376   5.764   2.070   2.175
  790TIP3    H2 2377   5.702   2.196   2.119
  791TIP3   OH2 2378   2.487   1.823   0.732
  791TIP3    H1 2379   2.457   1.863   0.650
  791TIP3    H2 2380   2.557   1.881   0.762
  792TIP3   OH2 2381   2.005   2.057   2.351
  792TIP3    H1 2382   2.066   1.987   2.328
  792TIP3    H2 2383   2.029   2.081   2.441
  793TIP3   OH2 2384   1.778   1.136   4.774
  793TIP3    H1 2385   1.796   1.216   4.724
  793TIP3    H2 2386   1.842   1.073   4.741
  794TIP3   OH2 2387   5.937   1.511   3.274
  794TIP3    H1 2388   5.905   1.495   3.185
  794TIP3    H2 2389   5.865   1.558   3.317
  795TIP3   OH2 2390   3.604   4.089   5.190
  795TIP3    H1 2391   3.574   3.998   5.186
  795TIP3    H2 2392   3.677   4.093   5.129
  796TIP3   OH2 2393   0.937   0.170   1.229
  796TIP3    H1 2394   0.842   0.161   1.240
  796TIP3    H2 2395   0.947   0.201   1.139
  797TIP3   OH2 2396   4.607   4.603   2.595
  797TIP3    H1 2397   4.542   4.571   2.657
  797TIP3    H2 2398   4.684   4.621   2.648
  798TIP3   OH2 2399   2.587   0.955   4.778
  798TIP3    H1 2400   2.527   0.988   4.844
  798TIP3    H2 2401   2.657   1.021   4.774
  799TIP3   OH2 2402   4.479   3.945   1.360
  799TIP3    H1 2403   4.490   3.864   1.311
  799TIP3    H2 2404   4.551   4.001   1.332
  800TIP3   OH2 2405   5.408   1.525   0.108
  800TIP3    H1 2406   5.394   1.457   0.043
  800TIP3    H2 2407   5.500   1.549   0.099
  801TIP3   OH2 2408   5.459   5.263   1.047
  801TIP3    H1 2409   5.515   5.247   0.971
  801TIP3    H2 2410   5.422   5.349   1.032
  802TIP3   OH2 2411   2.376   1.598   3.299
  802TIP3    H1 2412   2.437   1.576   3.369
  802TIP3    H2 2413   2.398   1.539   3.227
  803TIP3   OH2 2414   2.079   0.686   3.954
  803TIP3    H1 2415   2.012   0.653   3.893
  803TIP3    H2 2416   2.029   0.737   4.018
  804TIP3   OH2 2417   0.232   0.599   1.714
  804TIP3    H1 2418   0.229   0.657   1.638
  804TIP3    H2 2419   0.222   0.511   1.678
  805TIP3   OH2 2420   1.965   0.190   0.785
  805TIP3    H1 2421   1.891   0.218   0.732
  805TIP3    H2 2422   1.950   0.097   0.801
  806TIP3   OH2 2423   5.766   0.549   0.950
  806TIP3    H1 2424   5.801   0.518   1.034
  806TIP3    H2 2425   5.699   0.613   0.974
  807TIP3   OH2 2426   4.071   5.400   0.438
  807TIP3    H1 2427   4.065   5.495   0.445
  807TIP3    H2 2428   4.016   5.366   0.508
  808TIP3   OH2 2429   0.450   4.850   0.084
  808TIP3    H1 2430   0.478   4.889   0.001
  808TIP3    H2 2431   0.517   4.878   0.147
  809TIP3   OH2 2432   0.408   0.484   1.487
  809TIP3    H1 2433   0.464   0.480   1.565
  809TIP3    H2 2434   0.451   0.548   1.430
  810TIP3   OH2 2435   5.908   0.197   5.074
  810TIP3    H1 2436   5.943   0.108   5.081
  810TIP3    H2 2437   5.909   0.231   5.163
  811TIP3   OH2 2438   5.233   5.393   1.616
  811TIP3    H1 2439   5.230   5.438   1.532
  811TIP3    H2 2440   5.256   5.303   1.594
  812TIP3   OH2 2441   1.734   6.010   3.209
  812TIP3    H1 2442   1.710   5.918   3.213
  812TIP3    H2 2443   1.659   6.052   3.167
  813TIP3   OH2 2444   3.678   1.606   4.849
  813TIP3    H1 2445   3.709   1.674   4.790
  813TIP3    H2 2446   3.758   1.561   4.877
  814TIP3   OH2 2447   5.704   0.464   0.637
  814TIP3    H1 2448   5.744   0.493   0.719
  814TIP3    H2 2449   5.611   0.483   0.648
  815TIP3   OH2 2450   2.924   0.866   2.790
  815TIP3    H1 2451   2.981   0.937   2.821
  815TIP3    H2 2452   2.979   0.788   2.792
  816TIP3   OH2 2453   3.312   3.779   2.755
  816TIP3    H1 2454   3.249   3.782   2.684
  816TIP3    H2 2455   3.367   3.856   2.741
  817TIP3   OH2 2456   1.020   3.196   5.126
  817TIP3    H1 2457   1.088   3.130   5.129
  817TIP3    H2 2458   1.031   3.246   5.207
  818TIP3   OH2 2459   1.342   4.092   1.427
  818TIP3    H1 2460   1.313   4.177   1.396
  818TIP3    H2 2461   1.319   4.092   1.520
  819TIP3   OH2 2462   1.672   5.801   4.023
  819TIP3    H1 2463   1.615   5.824   4.096
  819TIP3    H2 2464   1.671   5.705   4.022
  820TIP3   OH2 2465   3.873   2.906   5.154
  820TIP3    H1 2466   3.903   2.902   5.063
  820TIP3    H2 2467   3.808   2.976   5.155
  821TIP3   OH2 2468   5.713   5.783   0.121
  821TIP3    H1 2469   5.673   5.710   0.073
  821TIP3    H2 2470   5.703   5.858   0.064
  822TIP3   OH2 2471   2.377   3.373   2.896
  822TIP3    H1 2472   2.289   3.404   2.872
  822TIP3    H2 2473   2.376   3.369   2.991
  823TIP3   OH2 2474   4.622   2.401   3.306
  823TIP3    H1 2475   4.676   2.432   3.233
  823TIP3    H2 2476   4.568   2.476   3.330
  824TIP3   OH2 2477   4.892   5.552   5.008
  824TIP3    H1 2478   4.943   5.496   5.067
  824TIP3    H2 2479   4.921   5.528   4.920
  825TIP3   OH2 2480   4.744   2.758   3.868
  825TIP3    H1 2481   4.720   2.846   3.897
  825TIP3    H2 2482   4.791   2.772   3.786
  826TIP3   OH2 2483   0.434   1.832   4.616
  826TIP3    H1 2484   0.508   1.845   4.675
  826TIP3    H2 2485   0.362   1.803   4.673
  827TIP3   OH2 2486   2.377   0.221   4.176
  827TIP3    H1 2487   2.372   0.129   4.203
  827TIP3    H2 2488   2.382   0.270   4.258
  828TIP3   OH2 2489   3.340   2.433   3.456
  828TIP3    H1 2490   3.319   2.491   3.529
  828TIP3    H2 2491   3.429   2.403   3.474
  829TIP3   OH2 2492   0.388   5.569   1.653
  829TIP3    H1 2493   0.308   5.618   1.672
  829TIP3    H2 2494   0.437   5.570   1.735
  830TIP3   OH2 2495   4.003   5.845   2.078
  830TIP3    H1 2496   3.930   5.825   2.137
  830TIP3    H2 2497   4.078   5.799   2.116
  831TIP3   OH2 2498   2.893   3.934   2.169
  831TIP3    H1 2499   2.853   3.996   2.230
  831TIP3    H2 2500   2.987   3.947   2.179
  832TIP3   OH2 2501   3.397   0.194   2.827
  832TIP3    H1 2502   3.468   0.165   2.884
  832TIP3    H2 2503   3.337   0.241   2.886
  833TIP3   OH2 2504   2.400   4.191   1.312
  833TIP3    H1 2505   2.460   4.165   1.382
  833TIP3    H2 2506   2.452   4.250   1.257
  834TIP3   OH2 2507   2.424   0.929   1.563
  834TIP3    H1 2508   2.365   0.998   1.534
  834TIP3    H2 2509   2.489   0.973   1.617
  835TIP3   OH2 2510   5.570   2.577   3.263
  835TIP3    H1 2511   5.594   2.560   3.354
  835TIP3    H2 2512   5.497   2.517   3.246
  836TIP3   OH2 2513   0.293   5.790   2.959
  836TIP3    H1 2514   0.228   5.834   3.014
  836TIP3    H2 2515   0.275   5.821   2.870
  837TIP3   OH2 2516   0.050   2.087   4.935
  837TIP3    H1 2517  -0.002   2.049   5.005
  837TIP3    H2 2518   0.130   2.118   4.978
  838TIP3   OH2 2519   2.159   1.338   1.994
  838TIP3    H1 2520   2.202   1.421   2.015
  838TIP3    H2 2521   2.154   1.291   2.077
  839TIP3   OH2 2522   2.005   5.622   4.196
  839TIP3    H1 2523   2.041   5.561   4.132
  839TIP3    H2 2524   1.911   5.606   4.195
  840TIP3   OH2 2525   0.762   5.175   2.853
  840TIP3    H1 2526   0.854   5.168   2.827
  840TIP3    H2 2527   0.758   5.129   2.937
  841TIP3   OH2 2528   6.282   2.174   0.644
  841TIP3    H1 2529   6.281   2.195   0.550
  841TIP3    H2 2530   6.230   2.244   0.684
  842TIP3   OH2 2531   5.467   5.621   2.620
  842TIP3    H1 2532   5.528   5.649   2.552
  842TIP3    H2 2533   5.467   5.693   2.683
  843TIP3   OH2 2534   2.015   0.205   4.902
  843TIP3    H1 2535   2.017   0.145   4.976
  843TIP3    H2 2536   1.956   0.164   4.839
  844TIP3   OH2 2537   2.710   0.691   0.197
  844TIP3    H1 2538   2.672   0.632   0.132
  844TIP3    H2 2539   2.660   0.673   0.277
  845TIP3   OH2 2540   1.049   3.628   5.107
  845TIP3    H1 2541   0.994   3.554   5.084
  845TIP3    H2 2542   1.132   3.611   5.062
  846TIP3   OH2 2543   0.594   1.163   5.086
  846TIP3    H1 2544   0.557   1.197   5.004
  846TIP3    H2 2545   0.661   1.227   5.110
  847TIP3   OH2 2546   1.498   0.069   0.004
  847TIP3    H1 2547   1.418   0.077   0.057
  847TIP3    H2 2548   1.473   0.008  -0.066
  848TIP3   OH2 2549   6.204   1.456   0.526
  848TIP3    H1 2550   6.201   1.382   0.465
  848TIP3    H2 2551   6.124   1.446   0.579
  849TIP3   OH2 2552   5.951   4.380   4.475
  849TIP3    H1 2553   6.017   4.394   4.543
  849TIP3    H2 2554   5.990   4.415   4.396
  850TIP3   OH2 2555   3.936   2.961   4.892
  850TIP3    H1 2556   3.926   2.952   4.797
  850TIP3    H2 2557   3.906   3.050   4.910
  851TIP3   OH2 2558   3.021   4.928   2.216
  851TIP3    H1 2559   3.019   4.946   2.122
  851TIP3    H2 2560   2.929   4.919   2.241
  852TIP3   OH2 2561   3.039   4.807   2.562
  852TIP3    H1 2562   3.036   4.737   2.497
  852TIP3    H2 2563   3.123   4.796   2.606
  853TIP3   OH2 2564   1.854   4.176   4.017
  853TIP3    H1 2565   1.838   4.156   4.109
  853TIP3    H2 2566   1.875   4.269   4.016
  854TIP3   OH2 2567   2.012   2.820   2.101
  854TIP3    H1 2568   1.973   2.799   2.016
  854TIP3    H2 2569   1.949   2.786   2.165
  855TIP3   OH2 2570   0.546   1.159   1.425
  855TIP3    H1 2571   0.604   1.165   1.501
  855TIP3    H2 2572   0.590   1.098   1.366
  856TIP3   OH2 2573   1.216   5.083   2.312
  856TIP3    H1 2574   1.255   4.996   2.309
  856TIP3    H2 2575   1.155   5.085   2.238
  857TIP3   OH2 2576   5.596   5.029   3.171
  857TIP3    H1 2577   5.580   5.088   3.098
  857TIP3    H2 2578   5.691   5.027   3.181
  858TIP3   OH2 2579   2.752   4.553   4.260
  858TIP3    H1 2580   2.712   4.470   4.237
  858TIP3    H2 2581   2.837   4.529   4.298
  859TIP3   OH2 2582   2.413   1.599   1.433
  859TIP3    H1 2583   2.380   1.622   1.520
  859TIP3    H2 2584   2.507   1.620   1.437
  860TIP3   OH2 2585   4.271   3.562   5.125
  860TIP3    H1 2586   4.180   3.534   5.134
  860TIP3    H2 2587   4.310   3.543   5.211
  861TIP3   OH2 2588   2.134   5.409   2.195
  861TIP3    H1 2589   2.209   5.468   2.201
  861TIP3    H2 2590   2.135   5.377   2.105
  862TIP3   OH2 2591   1.827   0.160   4.481
  862TIP3    H1 2592   1.794   0.077   4.449
  862TIP3    H2 2593   1.893   0.137   4.546
  863TIP3   OH2 2594   1.945   5.363   4.837
  863TIP3    H1 2595   1.881   5.292   4.847
  863TIP3    H2 2596   1.917   5.430   4.899
  864TIP3   OH2 2597   2.289   2.443   0.094
  864TIP3    H1 2598   2.253   2.475   0.012
  864TIP3    H2 2599   2.249   2.499   0.161
  865TIP3   OH2 2600   6.124   3.955   4.842
  865TIP3    H1 2601   6.194   4.001   4.797
  865TIP3    H2 2602   6.102   4.010   4.917
  866TIP3   OH2 2603   6.172   5.136   0.783
  866TIP3    H1 2604   6.184   5.070   0.714
  866TIP3    H2 2605   6.189   5.089   0.864
  867TIP3   OH2 2606   4.055   1.808   1.939
  867TIP3    H1 2607   3.961   1.800   1.924
  867TIP3    H2 2608   4.063   1.828   2.033
  868TIP3   OH2 2609   0.656   5.190   0.869
  868TIP3    H1 2610   0.611   5.262   0.913
  868TIP3    H2 2611   0.604   5.175   0.790
  869TIP3   OH2 2612   5.908   4.094   0.425
  869TIP3    H1 2613   5.831   4.052   0.386
  869TIP3    H2 2614   5.980   4.032   0.410
  870TIP3   OH2 2615   1.327   4.046   2.521
  870TIP3    H1 2616   1.353   4.000   2.441
  870TIP3    H2 2617   1.336   3.980   2.590
  871TIP3   OH2 2618   4.556   5.537   4.180
  871TIP3    H1 2619   4.647   5.549   4.205
  871TIP3    H2 2620   4.507   5.548   4.262
  872TIP3   OH2 2621   5.719   1.811   1.830
  872TIP3    H1 2622   5.789   1.876   1.825
  872TIP3    H2 2623   5.718   1.784   1.921
  873TIP3   OH2 2624   4.456   3.146   2.372
  873TIP3    H1 2625   4.463   3.151   2.467
  873TIP3    H2 2626   4.547   3.143   2.342
  874TIP3   OH2 2627   1.468   5.915   2.044
  874TIP3    H1 2628   1.492   5.937   1.954
  874TIP3    H2 2629   1.446   5.821   2.040
  875TIP3   OH2 2630   4.501   3.475   3.975
  875TIP3    H1 2631   4.594   3.494   3.965
  875TIP3    H2 2632   4.461   3.506   3.894
  876TIP3   OH2 2633   0.217   3.544   1.835
  876TIP3    H1 2634   0.200   3.483   1.763
  876TIP3    H2 2635   0.311   3.536   1.852
  877TIP3   OH2 2636   5.607   4.297   2.714
  877TIP3    H1 2637   5.634   4.312   2.623
  877TIP3    H2 2638   5.674   4.240   2.750
  878TIP3   OH2 2639   0.572   1.771   3.708
  878TIP3    H1 2640   0.536   1.860   3.712
  878TIP3    H2 2641   0.659   1.779   3.749
  879TIP3   OH2 2642   5.040   0.539   3.289
  879TIP3    H1 2643   4.957   0.511   3.249
  879TIP3    H2 2644   5.016   0.616   3.341
  880TIP3   OH2 2645   0.767   0.215   4.540
  880TIP3    H1 2646   0.822   0.205   4.617
  880TIP3    H2 2647   0.777   0.306   4.514
  881TIP3   OH2 2648   6.285   0.138   0.754
  881TIP3    H1 2649   6.294   0.109   0.664
  881TIP3    H2 2650   6.350   0.208   0.763
  882TIP3   OH2 2651   1.143   1.179   2.416
  882TIP3    H1 2652   1.184   1.096   2.391
  882TIP3    H2 2653   1.085   1.156   2.489
  883TIP3   OH2 2654   6.282   0.093   2.927
  883TIP3    H1 2655   6.372   0.125   2.918
  883TIP3    H2 2656   6.241   0.115   2.844
  884TIP3   OH2 2657   3.563   1.017   2.883
  884TIP3    H1 2658   3.570   1.054   2.795
  884TIP3    H2 2659   3.484   0.963   2.880
  885TIP3   OH2 2660   3.099   2.533   0.882
  885TIP3    H1 2661   3.125   2.612   0.929
  885TIP3    H2 2662   3.167   2.469   0.904
  886TIP3   OH2 2663   0.098   3.607   4.830
  886TIP3    H1 2664   0.137   3.685   4.791
  886TIP3    H2 2665   0.169   3.542   4.830
  887TIP3   OH2 2666   5.042   1.093   3.664
  887TIP3    H1 2667   5.049   1.029   3.594
  887TIP3    H2 2668   5.025   1.041   3.743
  888TIP3   OH2 2669   1.649   4.991   4.632
  888TIP3    H1 2670   1.619   5.062   4.575
  888TIP3    H2 2671   1.662   4.917   4.574
  889TIP3   OH2 2672   1.412   0.954   1.106
  889TIP3    H1 2673   1.361   0.913   1.035
  889TIP3    H2 2674   1.357   0.944   1.184
  890TIP3   OH2 2675   0.890   4.258   2.755
  890TIP3    H1 2676   0.821   4.301   2.705
  890TIP3    H2 2677   0.856   4.169   2.769
  891TIP3   OH2 2678   3.783   1.317   1.433
  891TIP3    H1 2679   3.693   1.288   1.445
  891TIP3    H2 2680   3.813   1.269   1.356
  892TIP3   OH2 2681   2.236   4.982   4.567
  892TIP3    H1 2682   2.175   5.016   4.633
  892TIP3    H2 2683   2.198   5.007   4.483
  893TIP3   OH2 2684   2.358   2.404   2.304
  893TIP3    H1 2685   2.448   2.379   2.323
  893TIP3    H2 2686   2.365   2.490   2.263
  894TIP3   OH2 2687   2.334   0.661   1.658
  894TIP3    H1 2688   2.297   0.627   1.577
  894TIP3    H2 2689   2.390   0.734   1.629
  895TIP3   OH2 2690   1.005   5.066   2.628
  895TIP3    H1 2691   1.009   4.997   2.693
  895TIP3    H2 2692   1.095   5.075   2.597
  896TIP3   OH2 2693   3.673   2.822   0.948
  896TIP3    H1 2694   3.704   2.868   1.026
  896TIP3    H2 2695   3.677   2.887   0.878
  897TIP3   OH2 2696   2.045   5.028   2.837
  897TIP3    H1 2697   2.018   5.003   2.925
  897TIP3    H2 2698   2.087   4.950   2.801
  898TIP3   OH2 2699   4.476   5.633   3.239
  898TIP3    H1 2700   4.460   5.671   3.153
  898TIP3    H2 2701   4.397   5.652   3.289
  899TIP3   OH2 2702   3.057   1.018   2.052
  899TIP3    H1 2703   3.067   1.023   1.957
  899TIP3    H2 2704   2.968   0.983   2.065
  900TIP3   OH2 2705   4.359   3.107   3.458
  900TIP3    H1 2706   4.290   3.116   3.393
  900TIP3    H2 2707   4.430   3.061   3.413
  901TIP3   OH2 2708   2.192   5.628   1.019
  901TIP3    H1 2709   2.110   5.579   1.010
  901TIP3    H2 2710   2.163   5.720   1.025
  902TIP3   OH2 2711   1.510   1.455   1.415
  902TIP3    H1 2712   1.503   1.372   1.369
  902TIP3    H2 2713   1.519   1.431   1.507
  903TIP3   OH2 2714   5.577   4.592   0.426
  903TIP3    H1 2715   5.656   4.646   0.427
  903TIP3    H2 2716   5.556   4.577   0.518
  904TIP3   OH2 2717   6.320   1.876   0.745
  904TIP3    H1 2718   6.340   1.865   0.838
  904TIP3    H2 2719   6.346   1.966   0.726
  905TIP3   OH2 2720   4.432   1.540   2.183
  905TIP3    H1 2721   4.434   1.478   2.110
  905TIP3    H2 2722   4.341   1.536   2.214
  906TIP3   OH2 2723   4.303   2.625   2.597
  906TIP3    H1 2724   4.364   2.698   2.589
  906TIP3    H2 2725   4.309   2.579   2.513
  907TIP3   OH2 2726   5.324   4.273   4.390
  907TIP3    H1 2727   5.376   4.346   4.422
  907TIP3    H2 2728   5.257   4.314   4.334
  908TIP3   OH2 2729   3.602   4.082   0.218
  908TIP3    H1 2730   3.580   4.096   0.310
  908TIP3    H2 2731   3.698   4.084   0.216
  909TIP3   OH2 2732   1.069   4.440   1.688
  909TIP3    H1 2733   1.049   4.429   1.595
  909TIP3    H2 2734   0.985   4.460   1.729
  910TIP3   OH2 2735   1.640   5.034   0.840
  910TIP3    H1 2736   1.588   5.091   0.782
  910TIP3    H2 2737   1.577   4.970   0.871
  911TIP3   OH2 2738   3.695   4.659   3.701
  911TIP3    H1 2739   3.648   4.604   3.764
  911TIP3    H2 2740   3.771   4.607   3.677
  912TIP3   OH2 2741   4.740   5.189   4.002
  912TIP3    H1 2742   4.707   5.215   3.916
  912TIP3    H2 2743   4.696   5.106   4.020
  913TIP3   OH2 2744   3.042   0.823   1.377
  913TIP3    H1 2745   2.994   0.760   1.430
  913TIP3    H2 2746   3.066   0.775   1.298
  914TIP3   OH2 2747   4.982   2.596   1.841
  914TIP3    H1 2748   4.959   2.565   1.929
  914TIP3    H2 2749   5.061   2.547   1.818
  915TIP3   OH2 2750   4.171   2.843   4.978
  915TIP3    H1 2751   4.089   2.856   4.930
  915TIP3    H2 2752   4.189   2.928   5.018
  916TIP3   OH2 2753   0.858   3.313   3.796
  916TIP3    H1 2754   0.827   3.251   3.862
  916TIP3    H2 2755   0.780   3.333   3.745
  917TIP3   OH2 2756   1.584   3.996   1.522
  917TIP3    H1 2757   1.539   3.917   1.553
  917TIP3    H2 2758   1.521   4.038   1.463
  918TIP3   OH2 2759   2.582   2.378   3.784
  918TIP3    H1 2760   2.667   2.343   3.812
  918TIP3    H2 2761   2.559   2.441   3.852
  919TIP3   OH2 2762   5.142   4.070   0.965
  919TIP3    H1 2763   5.184   4.113   0.890
  919TIP3    H2 2764   5.124   4.141   1.027
  920TIP3   OH2 2765   2.364   1.916   4.844
  920TIP3    H1 2766   2.449   1.942   4.880
  920TIP3    H2 2767   2.317   1.882   4.920
  921TIP3   OH2 2768   5.141  -0.010   0.098
  921TIP3    H1 2769   5.167   0.047   0.026
  921TIP3    H2 2770   5.075   0.039   0.146
  922TIP3   OH2 2771   4.147   2.773   2.788
  922TIP3    H1 2772   4.207   2.719   2.738
  922TIP3    H2 2773   4.203   2.826   2.845
  923TIP3   OH2 2774   4.341   2.871   2.357
  923TIP3    H1 2775   4.279   2.937   2.327
  923TIP3    H2 2776   4.424   2.918   2.367
  924TIP3   OH2 2777   0.385   4.093   2.221
  924TIP3    H1 2778   0.336   4.033   2.277
  924TIP3    H2 2779   0.345   4.179   2.235
  925TIP3   OH2 2780   1.981   5.459   1.030
  925TIP3    H1 2781   1.935   5.467   1.113
  925TIP3    H2 2782   1.912   5.457   0.964
  926TIP3   OH2 2783   6.070   3.084   0.438
  926TIP3    H1 2784   6.103   3.011   0.386
  926TIP3    H2 2785   6.002   3.125   0.384
  927TIP3   OH2 2786   4.189   4.435   2.307
  927TIP3    H1 2787   4.154   4.431   2.396
  927TIP3    H2 2788   4.279   4.468   2.319
  928TIP3   OH2 2789   3.249   0.065   1.103
  928TIP3    H1 2790   3.157   0.089   1.106
  928TIP3    H2 2791   3.282   0.106   1.023
  929TIP3   OH2 2792   5.510   5.685   3.326
  929TIP3    H1 2793   5.529   5.594   3.302
  929TIP3    H2 2794   5.591   5.716   3.367
  930TIP3   OH2 2795   0.745   4.321   3.031
  930TIP3    H1 2796   0.762   4.308   3.124
  930TIP3    H2 2797   0.802   4.258   2.987
  931TIP3   OH2 2798   1.501   1.735   3.285
  931TIP3    H1 2799   1.452   1.751   3.205
  931TIP3    H2 2800   1.567   1.804   3.288
  932TIP3   OH2 2801   2.009   3.447   1.847
  932TIP3    H1 2802   1.983   3.406   1.929
  932TIP3    H2 2803   1.929   3.452   1.795
  933TIP3   OH2 2804   5.699   5.203   2.079
  933TIP3    H1 2805   5.688   5.137   2.011
  933TIP3    H2 2806   5.761   5.266   2.042
  934TIP3   OH2 2807   2.751   4.294   4.205
  934TIP3    H1 2808   2.667   4.256   4.178
  934TIP3    H2 2809   2.801   4.301   4.123
  935TIP3   OH2 2810   2.421   4.994   0.984
  935TIP3    H1 2811   2.389   4.928   1.045
  935TIP3    H2 2812   2.423   4.950   0.899
  936TIP3   OH2 2813   4.360   3.816   2.606
  936TIP3    H1 2814   4.414   3.761   2.663
  936TIP3    H2 2815   4.281   3.833   2.657
  937TIP3   OH2 2816   2.072   4.680   4.082
  937TIP3    H1 2817   2.109   4.650   3.999
  937TIP3    H2 2818   2.126   4.754   4.107
  938TIP3   OH2 2819   1.349   0.542   2.190
  938TIP3    H1 2820   1.390   0.610   2.242
  938TIP3    H2 2821   1.348   0.465   2.247
  939TIP3   OH2 2822   0.452   4.982   4.597
  939TIP3    H1 2823   0.398   4.940   4.532
  939TIP3    H2 2824   0.515   5.034   4.547
  940TIP3   OH2 2825   3.265   5.045   3.122
  940TIP3    H1 2826   3.324   4.997   3.181
  940TIP3    H2 2827   3.194   5.076   3.179
  941TIP3   OH2 2828   5.771   2.747   3.848
  941TIP3    H1 2829   5.837   2.712   3.788
  941TIP3    H2 2830   5.744   2.671   3.900
  942TIP3   OH2 2831   0.385   0.223   4.984
  942TIP3    H1 2832   0.462   0.172   5.009
  942TIP3    H2 2833   0.403   0.312   5.015
  943TIP3   OH2 2834   4.287   3.644   0.461
  943TIP3    H1 2835   4.244   3.559   0.456
  943TIP3    H2 2836   4.289   3.675   0.370
  944TIP3   OH2 2837   4.654   3.661   5.068
  944TIP3    H1 2838   4.725   3.725   5.063
  944TIP3    H2 2839   4.608   3.671   4.985
  945TIP3   OH2 2840   2.647   2.529   0.298
  945TIP3    H1 2841   2.619   2.538   0.206
  945TIP3    H2 2842   2.693   2.445   0.300
  946TIP3   OH2 2843   0.659   1.350   1.998
  946TIP3    H1 2844   0.712   1.387   2.068
  946TIP3    H2 2845   0.722   1.306   1.941
  947TIP3   OH2 2846   4.331   4.590   5.170
  947TIP3    H1 2847   4.329   4.495   5.158
  947TIP3    H2 2848   4.258   4.609   5.228
  948TIP3   OH2 2849   0.076   3.183   1.067
  948TIP3    H1 2850   0.118   3.214   0.986
  948TIP3    H2 2851   0.100   3.248   1.132
  949TIP3   OH2 2852   2.163   2.125   1.777
  949TIP3    H1 2853   2.212   2.083   1.707
  949TIP3    H2 2854   2.216   2.110   1.855
  950TIP3   OH2 2855   4.244   1.670   4.155
  950TIP3    H1 2856   4.261   1.739   4.091
  950TIP3    H2 2857   4.241   1.590   4.103
  951TIP3   OH2 2858   3.347   5.162   4.092
  951TIP3    H1 2859   3.303   5.218   4.028
  951TIP3    H2 2860   3.407   5.220   4.138
  952TIP3   OH2 2861   4.959   3.143   0.455
  952TIP3    H1 2862   4.993   3.112   0.371
  952TIP3    H2 2863   4.979   3.237   0.456
  953TIP3   OH2 2864   2.130   2.795   1.459
  953TIP3    H1 2865   2.047   2.816   1.501
  953TIP3    H2 2866   2.194   2.796   1.531
  954TIP3   OH2 2867   2.005   4.713   5.038
  954TIP3    H1 2868   2.001   4.664   5.120
  954TIP3    H2 2869   2.095   4.704   5.009
  955TIP3   OH2 2870   3.711   3.279   3.128
  955TIP3    H1 2871   3.663   3.198   3.147
  955TIP3    H2 2872   3.778   3.253   3.065
  956TIP3   OH2 2873   5.488   5.430   2.162
  956TIP3    H1 2874   5.458   5.473   2.082
  956TIP3    H2 2875   5.559   5.372   2.133
  957TIP3   OH2 2876   4.422   4.873   3.695
  957TIP3    H1 2877   4.464   4.931   3.632
  957TIP3    H2 2878   4.406   4.927   3.772
  958TIP3   OH2 2879   0.631   5.743   3.327
  958TIP3    H1 2880   0.600   5.785   3.246
  958TIP3    H2 2881   0.557   5.750   3.387
  959TIP3   OH2 2882   1.940   4.609   0.374
  959TIP3    H1 2883   1.966   4.546   0.307
  959TIP3    H2 2884   1.906   4.684   0.325
  960TIP3   OH2 2885   5.375   4.367   1.642
  960TIP3    H1 2886   5.279   4.374   1.645
  960TIP3    H2 2887   5.397   4.388   1.551
  961TIP3   OH2 2888   3.397   3.562   3.587
  961TIP3    H1 2889   3.357   3.642   3.555
  961TIP3    H2 2890   3.463   3.539   3.521
  962TIP3   OH2 2891   2.714   4.980   2.274
  962TIP3    H1 2892   2.714   5.074   2.290
  962TIP3    H2 2893   2.668   4.969   2.191
  963TIP3   OH2 2894   1.958   0.642   3.591
  963TIP3    H1 2895   2.047   0.621   3.563
  963TIP3    H2 2896   1.907   0.563   3.571
  964TIP3   OH2 2897   1.636   3.444   0.691
  964TIP3    H1 2898   1.625   3.505   0.618
  964TIP3    H2 2899   1.574   3.475   0.757
  965TIP3   OH2 2900   3.974   4.885   4.630
  965TIP3    H1 2901   4.042   4.949   4.649
  965TIP3    H2 2902   3.892   4.930   4.650
  966TIP3   OH2 2903   0.389   0.313   3.465
  966TIP3    H1 2904   0.349   0.362   3.393
  966TIP3    H2 2905   0.323   0.249   3.491
  967TIP3   OH2 2906   3.255   2.685   3.257
  967TIP3    H1 2907   3.240   2.776   3.231
  967TIP3    H2 2908   3.169   2.653   3.285
  968TIP3   OH2 2909   5.507   5.096   0.567
  968TIP3    H1 2910   5.417   5.065   0.561
  968TIP3    H2 2911   5.560   5.018   0.551
  969TIP3   OH2 2912   3.383   1.035   0.357
  969TIP3    H1 2913   3.384   1.046   0.262
  969TIP3    H2 2914   3.433   0.955   0.373
  970TIP3   OH2 2915   0.498   1.681   5.009
  970TIP3    H1 2916   0.515   1.654   5.099
  970TIP3    H2 2917   0.523   1.606   4.956
  971TIP3   OH2 2918   2.308   3.328   3.174
  971TIP3    H1 2919   2.291   3.369   3.259
  971TIP3    H2 2920   2.365   3.253   3.195
  972TIP3   OH2 2921   6.038   3.816   2.000
  972TIP3    H1 2922   5.953   3.858   1.996
  972TIP3    H2 2923   6.076   3.829   1.913
  973TIP3   OH2 2924   4.552   2.834   4.576
  973TIP3    H1 2925   4.529   2.867   4.663
  973TIP3    H2 2926   4.631   2.882   4.553
  974TIP3   OH2 2927   2.481   1.195   2.230
  974TIP3    H1 2928   2.544   1.230   2.293
  974TIP3    H2 2929   2.481   1.100   2.246
  975TIP3   OH2 2930   3.877   0.763   2.043
  975TIP3    H1 2931   3.899   0.809   1.962
  975TIP3    H2 2932   3.962   0.741   2.081
  976TIP3   OH2 2933   0.474   3.172   0.043
  976TIP3    H1 2934   0.562   3.203   0.023
  976TIP3    H2 2935   0.424   3.187  -0.037
  977TIP3   OH2 2936   0.811   3.075   0.965
  977TIP3    H1 2937   0.812   3.005   1.030
  977TIP3    H2 2938   0.835   3.154   1.014
  978TIP3   OH2 2939   2.070   5.550   0.161
  978TIP3    H1 2940   2.041   5.610   0.229
  978TIP3    H2 2941   2.158   5.523   0.189
  979TIP3   OH2 2942   0.815   5.238   2.102
  979TIP3    H1 2943   0.727   5.271   2.115
  979TIP3    H2 2944   0.872   5.301   2.147
  980TIP3   OH2 2945   5.206   4.451   1.127
  980TIP3    H1 2946   5.124   4.407   1.147
  980TIP3    H2 2947   5.274   4.388   1.152
  981TIP3   OH2 2948   0.811   1.340   4.178
  981TIP3    H1 2949   0.851   1.268   4.226
  981TIP3    H2 2950   0.723   1.348   4.215
  982TIP3   OH2 2951   1.354   4.357   3.646
  982TIP3    H1 2952   1.336   4.416   3.573
  982TIP3    H2 2953   1.381   4.275   3.604
  983TIP3   OH2 2954   2.205   5.397   1.571
  983TIP3    H1 2955   2.288   5.444   1.580
  983TIP3    H2 2956   2.207   5.360   1.483
  984TIP3   OH2 2957   2.555   4.708   0.191
  984TIP3    H1 2958   2.597   4.784   0.150
  984TIP3    H2 2959   2.606   4.691   0.270
  985TIP3   OH2 2960   1.144   3.943   3.086
  985TIP3    H1 2961   1.094   3.902   3.157
  985TIP3    H2 2962   1.155   3.873   3.021
  986TIP3   OH2 2963   5.383   2.746   3.097
  986TIP3    H1 2964   5.445   2.694   3.148
  986TIP3    H2 2965   5.434   2.778   3.023
  987TIP3   OH2 2966   1.585   3.981   0.254
  987TIP3    H1 2967   1.566   3.973   0.161
  987TIP3    H2 2968   1.605   4.074   0.266
  988TIP3   OH2 2969   0.733   4.837   2.729
  988TIP3    H1 2970   0.785   4.760   2.705
  988TIP3    H2 2971   0.793   4.893   2.777
  989TIP3   OH2 2972   0.019   0.259   4.297
  989TIP3    H1 2973   0.096   0.303   4.262
  989TIP3    H2 2974   0.021   0.277   4.391
  990TIP3   OH2 2975   5.250   3.270   3.917
  990TIP3    H1 2976   5.301   3.331   3.970
  990TIP3    H2 2977   5.173   3.249   3.971
  991TIP3   OH2 2978   2.099   2.293   2.709
  991TIP3    H1 2979   2.133   2.284   2.619
  991TIP3    H2 2980   2.016   2.246   2.708
  992TIP3   OH2 2981   4.921   4.148   3.347
  992TIP3    H1 2982   4.866   4.216   3.386
  992TIP3    H2 2983   5.002   4.150   3.397
  993TIP3   OH2 2984   5.534   1.948   0.507
  993TIP3    H1 2985   5.524   1.869   0.559
  993TIP3    H2 2986   5.535   1.917   0.416
  994TIP3   OH2 2987   4.704   1.397   2.205
  994TIP3    H1 2988   4.729   1.454   2.133
  994TIP3    H2 2989   4.660   1.455   2.267
  995TIP3   OH2 2990   5.421   4.064   3.201
  995TIP3    H1 2991   5.399   4.047   3.110
  995TIP3    H2 2992   5.373   4.144   3.223
  996TIP3   OH2 2993   4.755   0.701   1.324
  996TIP3    H1 2994   4.744   0.784   1.371
  996TIP3    H2 2995   4.795   0.642   1.389
  997TIP3   OH2 2996   4.704   1.433   3.974
  997TIP3    H1 2997   4.644   1.508   3.970
  997TIP3    H2 2998   4.772   1.459   4.036
  998TIP3   OH2 2999   1.793   0.734   5.103
  998TIP3    H1 3000   1.738   0.659   5.083
  998TIP3    H2 3001   1.745   0.781   5.172
  999TIP3   OH2 3002   5.481   0.896   5.138
  999TIP3    H1 3003   5.428   0.884   5.218
  999TIP3    H2 3004   5.436   0.843   5.072
 1000TIP3   OH2 3005   4.973   2.789   0.156
 1000TIP3    H1 3006   5.039   2.723   0.133
 1000TIP3    H2 3007   4.949   2.828   0.072
 1001TIP3   OH2 3008   2.111   1.244   0.702
 1001TIP3    H1 3009   2.199   1.218   0.674
 1001TIP3    H2 3010   2.118   1.251   0.797
 1002TIP3   OH2 3011   1.490   1.427   4.669
 1002TIP3    H1 3012   1.497   1.348   4.723
 1002TIP3    H2 3013   1.515   1.498   4.728
 1003TIP3   OH2 3014   1.234   0.344   0.794
 1003TIP3    H1 3015   1.243   0.310   0.705
 1003TIP3    H2 3016   1.288   0.285   0.848
 1004TIP3   OH2 3017   4.952   5.700   3.707
 1004TIP3    H1 3018   4.861   5.727   3.702
 1004TIP3    H2 3019   4.949   5.607   3.729
 1005TIP3   OH2 3020   2.469   3.297   4.592
 1005TIP3    H1 3021   2.494   3.262   4.506
 1005TIP3    H2 3022   2.374   3.289   4.594
 1006TIP3   OH2 3023   4.739   0.440   0.133
 1006TIP3    H1 3024   4.772   0.524   0.101
 1006TIP3    H2 3025   4.681   0.463   0.206
 1007TIP3   OH2 3026   0.418   3.201   5.150
 1007TIP3    H1 3027   0.408   3.237   5.062
 1007TIP3    H2 3028   0.437   3.276   5.205
 1008TIP3   OH2 3029   5.172   3.759   2.375
 1008TIP3    H1 3030   5.121   3.681   2.394
 1008TIP3    H2 3031   5.140   3.824   2.437
 1009TIP3   OH2 3032   5.309   0.259   2.601
 1009TIP3    H1 3033   5.343   0.285   2.687
 1009TIP3    H2 3034   5.315   0.338   2.548
 1010TIP3   OH2 3035   3.611   4.613   2.131
 1010TIP3    H1 3036   3.556   4.646   2.202
 1010TIP3    H2 3037   3.573   4.651   2.052
 1011TIP3   OH2 3038   3.554   5.773   4.002
 1011TIP3    H1 3039   3.540   5.790   3.909
 1011TIP3    H2 3040   3.484   5.714   4.027
 1012TIP3   OH2 3041   2.750   2.330   3.335
 1012TIP3    H1 3042   2.789   2.242   3.338
 1012TIP3    H2 3043   2.725   2.348   3.426
 1013TIP3   OH2 3044   3.839   4.574   3.987
 1013TIP3    H1 3045   3.928   4.565   3.952
 1013TIP3    H2 3046   3.839   4.659   4.032
 1014TIP3   OH2 3047   3.177   1.350   4.001
 1014TIP3    H1 3048   3.273   1.349   4.003
 1014TIP3    H2 3049   3.152   1.259   3.988
 1015TIP3   OH2 3050   4.542   2.710   0.526
 1015TIP3    H1 3051   4.573   2.666   0.447
 1015TIP3    H2 3052   4.455   2.742   0.503
 1016TIP3   OH2 3053   0.353   1.356   3.675
 1016TIP3    H1 3054   0.344   1.354   3.579
 1016TIP3    H2 3055   0.316   1.273   3.704
 1017TIP3   OH2 3056   3.392   3.650   1.706
 1017TIP3    H1 3057   3.454   3.697   1.651
 1017TIP3    H2 3058   3.310   3.699   1.698
 1018TIP3   OH2 3059   1.118   4.661   3.353
 1018TIP3    H1 3060   1.201   4.623   3.380
 1018TIP3    H2 3061   1.063   4.657   3.432
 1019TIP3   OH2 3062   4.790   3.078   4.971
 1019TIP3    H1 3063   4.811   2.990   5.004
 1019TIP3    H2 3064   4.804   3.135   5.046
 1020TIP3   OH2 3065   2.279   4.723   3.428
 1020TIP3    H1 3066   2.311   4.770   3.504
 1020TIP3    H2 3067   2.347   4.735   3.362
 1021TIP3   OH2 3068   3.688   2.211   4.941
 1021TIP3    H1 3069   3.725   2.267   5.009
 1021TIP3    H2 3070   3.697   2.262   4.860
 1022TIP3   OH2 3071   5.272   1.236   0.041
 1022TIP3    H1 3072   5.207   1.169   0.023
 1022TIP3    H2 3073   5.313   1.254  -0.044
 1023TIP3   OH2 3074   2.928   5.157   0.169
 1023TIP3    H1 3075   2.839   5.154   0.133
 1023TIP3    H2 3076   2.979   5.199   0.100
 1024TIP3   OH2 3077   0.297   5.000   2.917
 1024TIP3    H1 3078   0.294   5.046   2.833
 1024TIP3    H2 3079   0.311   5.070   2.982
 1025TIP3   OH2 3080   4.391   4.548   4.871
 1025TIP3    H1 3081   4.341   4.583   4.797
 1025TIP3    H2 3082   4.369   4.606   4.944
 1026TIP3   OH2 3083   4.051   6.006   1.674
 1026TIP3    H1 3084   4.128   6.059   1.693
 1026TIP3    H2 3085   4.077   5.916   1.696
 1027TIP3   OH2 3086   6.116   2.730   2.664
 1027TIP3    H1 3087   6.103   2.791   2.591
 1027TIP3    H2 3088   6.158   2.783   2.732
 1028TIP3   OH2 3089   2.069   3.848   0.354
 1028TIP3    H1 3090   2.057   3.754   0.339
 1028TIP3    H2 3091   1.986   3.877   0.390
 1029TIP3   OH2 3092   0.322   5.097   2.629
 1029TIP3    H1 3093   0.415   5.110   2.611
 1029TIP3    H2 3094   0.277   5.137   2.554
 1030TIP3   OH2 3095   4.997   1.433   1.194
 1030TIP3    H1 3096   5.070   1.441   1.255
 1030TIP3    H2 3097   4.998   1.515   1.145
 1031TIP3   OH2 3098   5.189   3.244   1.732
 1031TIP3    H1 3099   5.280   3.273   1.723
 1031TIP3    H2 3100   5.195   3.152   1.755
 1032TIP3   OH2 3101   4.949   2.273   1.076
 1032TIP3    H1 3102   4.949   2.309   1.164
 1032TIP3    H2 3103   4.955   2.350   1.019
 1033TIP3   OH2 3104   2.060   4.336   1.477
 1033TIP3    H1 3105   2.112   4.330   1.556
 1033TIP3    H2 3106   2.023   4.248   1.466
 1034TIP3   OH2 3107   4.233   4.658   1.516
 1034TIP3    H1 3108   4.201   4.747   1.532
 1034TIP3    H2 3109   4.275   4.663   1.430
 1035TIP3   OH2 3110   2.343   0.105   3.043
 1035TIP3    H1 3111   2.303   0.019   3.028
 1035TIP3    H2 3112   2.269   0.165   3.047
 1036TIP3   OH2 3113   2.444   2.560   4.707
 1036TIP3    H1 3114   2.492   2.516   4.637
 1036TIP3    H2 3115   2.352   2.544   4.686
 1037TIP3   OH2 3116   3.145   1.835   0.479
 1037TIP3    H1 3117   3.225   1.795   0.445
 1037TIP3    H2 3118   3.157   1.928   0.464
 1038TIP3   OH2 3119   1.577   3.626   1.865
 1038TIP3    H1 3120   1.657   3.580   1.891
 1038TIP3    H2 3121   1.540   3.658   1.948
 1039TIP3   OH2 3122   1.951   5.630   2.725
 1039TIP3    H1 3123   2.029   5.683   2.745
 1039TIP3    H2 3124   1.986   5.550   2.687
 1040TIP3   OH2 3125   2.006   3.314   2.392
 1040TIP3    H1 3126   2.087   3.328   2.342
 1040TIP3    H2 3127   1.971   3.232   2.358
 1041TIP3   OH2 3128   4.594   1.555   2.433
 1041TIP3    H1 3129   4.527   1.609   2.392
 1041TIP3    H2 3130   4.554   1.523   2.513
 1042TIP3   OH2 3131   0.553   2.724   0.659
 1042TIP3    H1 3132   0.575   2.760   0.573
 1042TIP3    H2 3133   0.558   2.799   0.719
 1043TIP3   OH2 3134   4.934   3.661   3.021
 1043TIP3    H1 3135   5.027   3.679   3.033
 1043TIP3    H2 3136   4.919   3.579   3.070
 1044TIP3   OH2 3137   5.620   3.403   0.590
 1044TIP3    H1 3138   5.690   3.468   0.595
 1044TIP3    H2 3139   5.580   3.417   0.504
 1045TIP3   OH2 3140   2.707   1.090   2.767
 1045TIP3    H1 3141   2.786   1.046   2.796
 1045TIP3    H2 3142   2.636   1.045   2.813
 1046TIP3   OH2 3143   2.524   0.950   2.947
 1046TIP3    H1 3144   2.444   0.984   2.906
 1046TIP3    H2 3145   2.538   0.865   2.904
 1047TIP3   OH2 3146   3.385   3.409   1.846
 1047TIP3    H1 3147   3.373   3.492   1.799
 1047TIP3    H2 3148   3.398   3.435   1.937
 1048TIP3   OH2 3149   3.833   4.813   2.405
 1048TIP3    H1 3150   3.917   4.789   2.366
 1048TIP3    H2 3151   3.825   4.907   2.390
 1049TIP3   OH2 3152   2.721   3.796   1.901
 1049TIP3    H1 3153   2.681   3.784   1.987
 1049TIP3    H2 3154   2.662   3.751   1.841
 1050TIP3   OH2 3155   3.452   3.361   3.760
 1050TIP3    H1 3156   3.397   3.428   3.719
 1050TIP3    H2 3157   3.390   3.292   3.785
 1051TIP3   OH2 3158   5.482   0.776   2.140
 1051TIP3    H1 3159   5.512   0.857   2.179
 1051TIP3    H2 3160   5.512   0.707   2.199
 1052TIP3   OH2 3161   0.635   2.090   0.250
 1052TIP3    H1 3162   0.686   2.012   0.273
 1052TIP3    H2 3163   0.699   2.151   0.214
 1053TIP3   OH2 3164   1.908   1.277   2.855
 1053TIP3    H1 3165   1.959   1.213   2.904
 1053TIP3    H2 3166   1.904   1.354   2.912
 1054TIP3   OH2 3167   4.065   1.531   1.359
 1054TIP3    H1 3168   4.141   1.543   1.301
 1054TIP3    H2 3169   4.103   1.521   1.446
 1055TIP3   OH2 3170   5.467   3.826   1.745
 1055TIP3    H1 3171   5.511   3.803   1.663
 1055TIP3    H2 3172   5.399   3.887   1.719
 1056TIP3   OH2 3173   0.263   0.770   4.566
 1056TIP3    H1 3174   0.326   0.733   4.629
 1056TIP3    H2 3175   0.217   0.837   4.616
 1057TIP3   OH2 3176   3.943   0.949   3.588
 1057TIP3    H1 3177   3.873   0.893   3.556
 1057TIP3    H2 3178   4.022   0.896   3.580
 1058TIP3   OH2 3179   3.351   3.763   1.078
 1058TIP3    H1 3180   3.318   3.757   1.168
 1058TIP3    H2 3181   3.443   3.737   1.085
 1059TIP3   OH2 3182   5.123   1.006  -0.007
 1059TIP3    H1 3183   5.120   1.006   0.089
 1059TIP3    H2 3184   5.034   0.986  -0.034
 1060TIP3   OH2 3185   2.851   1.403   0.854
 1060TIP3    H1 3186   2.832   1.370   0.941
 1060TIP3    H2 3187   2.766   1.421   0.815
 1061TIP3   OH2 3188   6.131   3.956   3.298
 1061TIP3    H1 3189   6.154   4.034   3.248
 1061TIP3    H2 3190   6.038   3.944   3.282
 1062TIP3   OH2 3191   4.241   5.705   2.674
 1062TIP3    H1 3192   4.177   5.754   2.725
 1062TIP3    H2 3193   4.230   5.614   2.702
 1063TIP3   OH2 3194   1.856   1.470   1.471
 1063TIP3    H1 3195   1.788   1.484   1.537
 1063TIP3    H2 3196   1.938   1.479   1.518
 1064TIP3   OH2 3197   6.114   3.363   2.664
 1064TIP3    H1 3198   6.179   3.407   2.609
 1064TIP3    H2 3199   6.080   3.292   2.610
 1065TIP3   OH2 3200   4.167   1.597   3.184
 1065TIP3    H1 3201   4.116   1.676   3.169
 1065TIP3    H2 3202   4.217   1.615   3.264
 1066TIP3   OH2 3203   3.723   5.600   0.578
 1066TIP3    H1 3204   3.794   5.630   0.634
 1066TIP3    H2 3205   3.737   5.506   0.568
 1067TIP3   OH2 3206   4.233   4.436   0.375
 1067TIP3    H1 3207   4.312   4.383   0.384
 1067TIP3    H2 3208   4.255   4.500   0.308
 1068TIP3   OH2 3209   5.616   0.247   4.037
 1068TIP3    H1 3210   5.573   0.184   4.095
 1068TIP3    H2 3211   5.556   0.322   4.033
 1069TIP3   OH2 3212   0.018   2.977   1.658
 1069TIP3    H1 3213   0.078   2.905   1.641
 1069TIP3    H2 3214   0.025   3.033   1.581
 1070TIP3   OH2 3215   3.124   3.282   2.390
 1070TIP3    H1 3216   3.184   3.269   2.316
 1070TIP3    H2 3217   3.175   3.332   2.453
 1071TIP3   OH2 3218   4.139   1.123   0.956
 1071TIP3    H1 3219   4.119   1.147   1.046
 1071TIP3    H2 3220   4.115   1.030   0.950
 1072TIP3   OH2 3221   0.886   0.683   0.678
 1072TIP3    H1 3222   0.955   0.638   0.727
 1072TIP3    H2 3223   0.810   0.679   0.735
 1073TIP3   OH2 3224   1.595   2.708   4.442
 1073TIP3    H1 3225   1.594   2.620   4.480
 1073TIP3    H2 3226   1.585   2.693   4.348
 1074TIP3   OH2 3227   1.245   1.602   4.980
 1074TIP3    H1 3228   1.177   1.583   4.915
 1074TIP3    H2 3229   1.263   1.518   5.022
 1075TIP3   OH2 3230   0.021   2.928   5.156
 1075TIP3    H1 3231  -0.060   2.883   5.181
 1075TIP3    H2 3232   0.081   2.857   5.132
 1076TIP3   OH2 3233   5.841   5.448   2.003
 1076TIP3    H1 3234   5.803   5.488   1.925
 1076TIP3    H2 3235   5.813   5.504   2.075
 1077TIP3   OH2 3236   3.136   2.519   1.709
 1077TIP3    H1 3237   3.174   2.547   1.792
 1077TIP3    H2 3238   3.041   2.517   1.725
 1078TIP3   OH2 3239   2.511   1.616   4.672
 1078TIP3    H1 3240   2.423   1.653   4.661
 1078TIP3    H2 3241   2.569   1.691   4.663
 1079TIP3   OH2 3242   0.373   0.305   2.474
 1079TIP3    H1 3243   0.409   0.251   2.403
 1079TIP3    H2 3244   0.328   0.376   2.428
 1080TIP3   OH2 3245   5.235   3.078   2.884
 1080TIP3    H1 3246   5.246   3.173   2.887
 1080TIP3    H2 3247   5.167   3.060   2.949
 1081TIP3   OH2 3248   4.462   5.670   4.432
 1081TIP3    H1 3249   4.372   5.656   4.460
 1081TIP3    H2 3250   4.464   5.760   4.399
 1082TIP3   OH2 3251   2.513   0.288   1.211
 1082TIP3    H1 3252   2.497   0.377   1.240
 1082TIP3    H2 3253   2.518   0.294   1.115
 1083TIP3   OH2 3254   5.223   1.610   5.188
 1083TIP3    H1 3255   5.251   1.681   5.131
 1083TIP3    H2 3256   5.304   1.573   5.223
 1084TIP3   OH2 3257   4.658   4.771   1.239
 1084TIP3    H1 3258   4.643   4.696   1.181
 1084TIP3    H2 3259   4.615   4.747   1.321
 1085TIP3   OH2 3260   0.688   4.702   3.676
 1085TIP3    H1 3261   0.626   4.629   3.675
 1085TIP3    H2 3262   0.753   4.678   3.610
 1086TIP3   OH2 3263   0.512   4.044   0.257
 1086TIP3    H1 3264   0.502   3.949   0.269
 1086TIP3    H2 3265   0.530   4.078   0.344
 1087TIP3   OH2 3266   1.595   1.203   3.288
 1087TIP3    H1 3267   1.540   1.260   3.234
 1087TIP3    H2 3268   1.628   1.137   3.226
 1088TIP3   OH2 3269   2.094   5.795   2.392
 1088TIP3    H1 3270   2.075   5.842   2.310
 1088TIP3    H2 3271   2.008   5.777   2.430
 1089TIP3   OH2 3272   4.691   2.401   1.468
 1089TIP3    H1 3273   4.635   2.401   1.391
 1089TIP3    H2 3274   4.703   2.493   1.490
 1090TIP3   OH2 3275   6.182   4.299   0.960
 1090TIP3    H1 3276   6.239   4.375   0.954
 1090TIP3    H2 3277   6.179   4.279   1.054
 1091TIP3   OH2 3278   1.547   2.667   0.631
 1091TIP3    H1 3279   1.493   2.744   0.615
 1091TIP3    H2 3280   1.550   2.659   0.727
 1092TIP3   OH2 3281   2.492   5.109   5.212
 1092TIP3    H1 3282   2.587   5.111   5.199
 1092TIP3    H2 3283   2.460   5.049   5.144
 1093TIP3   OH2 3284   2.750   0.287   0.018
 1093TIP3    H1 3285   2.715   0.376   0.009
 1093TIP3    H2 3286   2.711   0.255   0.099
 1094TIP3   OH2 3287   0.198   3.691   2.087
 1094TIP3    H1 3288   0.220   3.651   2.003
 1094TIP3    H2 3289   0.104   3.676   2.097
 1095TIP3   OH2 3290   2.894   3.955   1.709
 1095TIP3    H1 3291   2.851   3.953   1.624
 1095TIP3    H2 3292   2.832   3.915   1.769
 1096TIP3   OH2 3293   0.214   2.850   0.991
 1096TIP3    H1 3294   0.300   2.880   1.023
 1096TIP3    H2 3295   0.208   2.759   1.021
 1097TIP3   OH2 3296   0.151   4.795   2.357
 1097TIP3    H1 3297   0.155   4.870   2.297
 1097TIP3    H2 3298   0.225   4.808   2.416
 1098TIP3   OH2 3299   5.488   1.123   1.516
 1098TIP3    H1 3300   5.394   1.138   1.522
 1098TIP3    H2 3301   5.507   1.059   1.584
 1099TIP3   OH2 3302   2.880   0.932   4.436
 1099TIP3    H1 3303   2.937   0.996   4.393
 1099TIP3    H2 3304   2.899   0.850   4.391
 1100TIP3   OH2 3305   2.318   5.986   2.372
 1100TIP3    H1 3306   2.252   5.917   2.378
 1100TIP3    H2 3307   2.275   6.057   2.326
 1101TIP3   OH2 3308   6.329   0.828   4.622
 1101TIP3    H1 3309   6.240   0.822   4.657
 1101TIP3    H2 3310   6.374   0.753   4.660
 1102TIP3   OH2 3311   4.602   2.935   3.311
 1102TIP3    H1 3312   4.606   2.908   3.403
 1102TIP3    H2 3313   4.688   2.973   3.294
 1103TIP3   OH2 3314   5.256   5.314   3.205
 1103TIP3    H1 3315   5.215   5.389   3.248
 1103TIP3    H2 3316   5.288   5.260   3.277
 1104TIP3   OH2 3317   4.730   1.029   1.440
 1104TIP3    H1 3318   4.787   1.005   1.513
 1104TIP3    H2 3319   4.789   1.041   1.366
 1105TIP3   OH2 3320   3.010   3.762   2.003
 1105TIP3    H1 3321   2.997   3.789   2.094
 1105TIP3    H2 3322   2.926   3.779   1.961
 1106TIP3   OH2 3323   4.217   3.012   3.666
 1106TIP3    H1 3324   4.272   3.051   3.599
 1106TIP3    H2 3325   4.276   3.001   3.741
 1107TIP3   OH2 3326   5.736   3.553   0.365
 1107TIP3    H1 3327   5.663   3.609   0.393
 1107TIP3    H2 3328   5.762   3.589   0.280
 1108TIP3   OH2 3329   3.465   4.080   0.725
 1108TIP3    H1 3330   3.482   4.152   0.786
 1108TIP3    H2 3331   3.447   4.004   0.781
 1109TIP3   OH2 3332   2.259   0.225   0.211
 1109TIP3    H1 3333   2.276   0.144   0.260
 1109TIP3    H2 3334   2.326   0.225   0.142
 1110TIP3   OH2 3335   4.408   1.991   4.270
 1110TIP3    H1 3336   4.329   1.978   4.323
 1110TIP3    H2 3337   4.379   2.048   4.198
 1111TIP3   OH2 3338   5.276   1.010   0.686
 1111TIP3    H1 3339   5.207   0.944   0.691
 1111TIP3    H2 3340   5.262   1.053   0.602
 1112TIP3   OH2 3341   2.897   1.296   2.988
 1112TIP3    H1 3342   2.922   1.364   2.926
 1112TIP3    H2 3343   2.842   1.342   3.052
 1113TIP3   OH2 3344   3.351   5.216   2.912
 1113TIP3    H1 3345   3.321   5.305   2.929
 1113TIP3    H2 3346   3.310   5.163   2.981
 1114TIP3   OH2 3347   1.452   5.562   0.199
 1114TIP3    H1 3348   1.496   5.632   0.150
 1114TIP3    H2 3349   1.506   5.551   0.277
 1115TIP3   OH2 3350   0.137   1.597   2.140
 1115TIP3    H1 3351   0.172   1.524   2.192
 1115TIP3    H2 3352   0.192   1.671   2.163
 1116TIP3   OH2 3353   1.522   1.979   2.984
 1116TIP3    H1 3354   1.486   2.065   2.962
 1116TIP3    H2 3355   1.448   1.919   2.972
 1117TIP3   OH2 3356   4.535   4.058   1.985
 1117TIP3    H1 3357   4.458   4.079   2.037
 1117TIP3    H2 3358   4.567   3.975   2.021
 1118TIP3   OH2 3359   3.953   4.555   3.621
 1118TIP3    H1 3360   3.952   4.476   3.568
 1118TIP3    H2 3361   4.008   4.532   3.696
 1119TIP3   OH2 3362   5.823   0.194   0.605
 1119TIP3    H1 3363   5.758   0.173   0.538
 1119TIP3    H2 3364   5.797   0.280   0.637
 1120TIP3   OH2 3365   3.742   4.541   0.937
 1120TIP3    H1 3366   3.752   4.636   0.934
 1120TIP3    H2 3367   3.817   4.510   0.989
 1121TIP3   OH2 3368   3.786   0.649   4.817
 1121TIP3    H1 3369   3.763   0.662   4.725
 1121TIP3    H2 3370   3.702   0.634   4.861
 1122TIP3   OH2 3371   5.533   4.845   0.085
 1122TIP3    H1 3372   5.478   4.910   0.129
 1122TIP3    H2 3373   5.516   4.764   0.133
 1123TIP3   OH2 3374   1.086   0.261   4.705
 1123TIP3    H1 3375   1.000   0.229   4.735
 1123TIP3    H2 3376   1.103   0.212   4.625
 1124TIP3   OH2 3377   2.267   5.568   3.842
 1124TIP3    H1 3378   2.331   5.605   3.903
 1124TIP3    H2 3379   2.204   5.523   3.898
 1125TIP3   OH2 3380   4.838   2.078   4.192
 1125TIP3    H1 3381   4.874   2.012   4.131
 1125TIP3    H2 3382   4.780   2.131   4.137
 1126TIP3   OH2 3383   4.020   0.088   4.206
 1126TIP3    H1 3384   4.081   0.036   4.153
 1126TIP3    H2 3385   4.053   0.177   4.200
 1127TIP3   OH2 3386   1.010   4.578   4.923
 1127TIP3    H1 3387   0.946   4.604   4.989
 1127TIP3    H2 3388   1.001   4.645   4.854
 1128TIP3   OH2 3389   0.252   3.830   4.655
 1128TIP3    H1 3390   0.244   3.788   4.570
 1128TIP3    H2 3391   0.201   3.911   4.646
 1129TIP3   OH2 3392   0.136   4.527   1.878
 1129TIP3    H1 3393   0.155   4.603   1.822
 1129TIP3    H2 3394   0.205   4.528   1.944
 1130TIP3   OH2 3395   4.163   3.672   0.060
 1130TIP3    H1 3396   4.109   3.595   0.040
 1130TIP3    H2 3397   4.102   3.735   0.098
 1131TIP3   OH2 3398   6.092   0.387   3.366
 1131TIP3    H1 3399   6.138   0.384   3.282
 1131TIP3    H2 3400   6.034   0.463   3.359
 1132TIP3   OH2 3401   5.736   0.591   0.366
 1132TIP3    H1 3402   5.661   0.585   0.424
 1132TIP3    H2 3403   5.708   0.652   0.297
 1133TIP3   OH2 3404   5.524   2.834   2.614
 1133TIP3    H1 3405   5.566   2.874   2.538
 1133TIP3    H2 3406   5.596   2.802   2.668
 1134TIP3   OH2 3407   0.817   2.612   1.573
 1134TIP3    H1 3408   0.767   2.550   1.520
 1134TIP3    H2 3409   0.760   2.688   1.580
 1135TIP3   OH2 3410   3.648   3.306   2.380
 1135TIP3    H1 3411   3.699   3.226   2.393
 1135TIP3    H2 3412   3.644   3.316   2.285
 1136TIP3   OH2 3413   3.553   5.596   1.574
 1136TIP3    H1 3414   3.648   5.593   1.566
 1136TIP3    H2 3415   3.537   5.633   1.661
 1137TIP3   OH2 3416   4.879   4.813   2.194
 1137TIP3    H1 3417   4.795   4.782   2.160
 1137TIP3    H2 3418   4.896   4.895   2.147
 1138TIP3   OH2 3419   0.736   5.009   3.586
 1138TIP3    H1 3420   0.662   5.048   3.541
 1138TIP3    H2 3421   0.727   4.915   3.570
 1139TIP3   OH2 3422   0.595   1.241   0.855
 1139TIP3    H1 3423   0.510   1.273   0.886
 1139TIP3    H2 3424   0.651   1.242   0.932
 1140TIP3   OH2 3425   0.330   4.673   3.888
 1140TIP3    H1 3426   0.318   4.768   3.886
 1140TIP3    H2 3427   0.294   4.643   3.805
 1141TIP3   OH2 3428   2.575   1.855   1.347
 1141TIP3    H1 3429   2.607   1.844   1.436
 1141TIP3    H2 3430   2.649   1.893   1.299
 1142TIP3   OH2 3431   1.445   5.115   1.272
 1142TIP3    H1 3432   1.481   5.146   1.189
 1142TIP3    H2 3433   1.361   5.161   1.280
 1143TIP3   OH2 3434   3.848   0.577   2.310
 1143TIP3    H1 3435   3.799   0.535   2.380
 1143TIP3    H2 3436   3.821   0.669   2.314
 1144TIP3   OH2 3437   1.845   3.601   2.279
 1144TIP3    H1 3438   1.932   3.601   2.240
 1144TIP3    H2 3439   1.836   3.514   2.318
 1145TIP3   OH2 3440   2.040   3.383   0.306
 1145TIP3    H1 3441   2.066   3.292   0.318
 1145TIP3    H2 3442   1.956   3.390   0.351
 1146TIP3   OH2 3443   3.277   1.450   2.800
 1146TIP3    H1 3444   3.196   1.462   2.851
 1146TIP3    H2 3445   3.311   1.366   2.830
 1147TIP3   OH2 3446   0.087   2.898   3.118
 1147TIP3    H1 3447   0.032   2.956   3.065
 1147TIP3    H2 3448   0.079   2.812   3.078
 1148TIP3   OH2 3449   3.026   1.305   1.329
 1148TIP3    H1 3450   3.055   1.393   1.351
 1148TIP3    H2 3451   3.105   1.251   1.338
 1149TIP3   OH2 3452   4.711   4.056   3.180
 1149TIP3    H1 3453   4.790   4.074   3.231
 1149TIP3    H2 3454   4.736   4.073   3.090
 1150TIP3   OH2 3455   0.823   3.597   4.365
 1150TIP3    H1 3456   0.751   3.645   4.324
 1150TIP3    H2 3457   0.810   3.610   4.459
 1151TIP3   OH2 3458   1.110   3.823   1.620
 1151TIP3    H1 3459   1.016   3.838   1.618
 1151TIP3    H2 3460   1.120   3.730   1.600
 1152TIP3   OH2 3461   1.214   2.745   3.741
 1152TIP3    H1 3462   1.219   2.837   3.770
 1152TIP3    H2 3463   1.284   2.737   3.677
 1153TIP3   OH2 3464   4.531   4.676   0.786
 1153TIP3    H1 3465   4.513   4.596   0.736
 1153TIP3    H2 3466   4.480   4.744   0.742
 1154TIP3   OH2 3467   4.282   2.775   3.401
 1154TIP3    H1 3468   4.364   2.732   3.427
 1154TIP3    H2 3469   4.217   2.740   3.462
 1155TIP3   OH2 3470   1.492   2.392   3.400
 1155TIP3    H1 3471   1.562   2.338   3.362
 1155TIP3    H2 3472   1.431   2.406   3.327
 1156TIP3   OH2 3473   4.278   1.352   3.142
 1156TIP3    H1 3474   4.257   1.444   3.156
 1156TIP3    H2 3475   4.226   1.327   3.065
 1157TIP3   OH2 3476   0.775   1.916   4.436
 1157TIP3    H1 3477   0.832   1.974   4.387
 1157TIP3    H2 3478   0.768   1.957   4.523
 1158TIP3   OH2 3479   3.551   0.832   4.851
 1158TIP3    H1 3480   3.619   0.885   4.808
 1158TIP3    H2 3481   3.512   0.891   4.916
 1159TIP3   OH2 3482   3.145   5.031   1.933
 1159TIP3    H1 3483   3.101   4.986   1.861
 1159TIP3    H2 3484   3.086   5.101   1.958
 1160TIP3   OH2 3485   3.638   0.290   2.152
 1160TIP3    H1 3486   3.587   0.278   2.072
 1160TIP3    H2 3487   3.585   0.250   2.221
 1161TIP3   OH2 3488   3.012   0.509   0.899
 1161TIP3    H1 3489   3.091   0.461   0.927
 1161TIP3    H2 3490   3.036   0.548   0.815
 1162TIP3   OH2 3491   4.105   5.458   2.682
 1162TIP3    H1 3492   4.070   5.422   2.763
 1162TIP3    H2 3493   4.047   5.423   2.614
 1163TIP3   OH2 3494   1.561   3.618   4.434
 1163TIP3    H1 3495   1.605   3.568   4.503
 1163TIP3    H2 3496   1.540   3.553   4.367
 1164TIP3   OH2 3497   3.224   4.727   0.055
 1164TIP3    H1 3498   3.202   4.787  -0.016
 1164TIP3    H2 3499   3.317   4.744   0.072
 1165TIP3   OH2 3500   0.418   5.333  -0.008
 1165TIP3    H1 3501   0.479   5.311   0.063
 1165TIP3    H2 3502   0.371   5.252  -0.025
 1166TIP3   OH2 3503   2.792   2.083   3.465
 1166TIP3    H1 3504   2.747   2.019   3.410
 1166TIP3    H2 3505   2.761   2.065   3.554
 1167TIP3   OH2 3506   3.872   1.341   3.612
 1167TIP3    H1 3507   3.938   1.410   3.623
 1167TIP3    H2 3508   3.882   1.311   3.522
 1168TIP3   OH2 3509   0.635   3.772   4.206
 1168TIP3    H1 3510   0.674   3.731   4.128
 1168TIP3    H2 3511   0.690   3.848   4.223
 1169TIP3   OH2 3512   0.110   4.114   2.584
 1169TIP3    H1 3513   0.195   4.157   2.578
 1169TIP3    H2 3514   0.049   4.183   2.611
 1170TIP3   OH2 3515   2.558   0.688   2.839
 1170TIP3    H1 3516   2.567   0.594   2.823
 1170TIP3    H2 3517   2.584   0.730   2.757
 1171TIP3   OH2 3518   4.393   4.349   1.883
 1171TIP3    H1 3519   4.314   4.364   1.934
 1171TIP3    H2 3520   4.394   4.255   1.865
 1172TIP3   OH2 3521   6.118   5.444   1.119
 1172TIP3    H1 3522   6.062   5.376   1.157
 1172TIP3    H2 3523   6.207   5.415   1.139
 1173TIP3   OH2 3524   4.326   2.592   1.089
 1173TIP3    H1 3525   4.412   2.624   1.116
 1173TIP3    H2 3526   4.343   2.505   1.052
 1174TIP3   OH2 3527   5.051   3.336   3.560
 1174TIP3    H1 3528   5.125   3.389   3.592
 1174TIP3    H2 3529   4.993   3.400   3.518
 1175TIP3   OH2 3530   3.319   3.859   0.829
 1175TIP3    H1 3531   3.318   3.833   0.922
 1175TIP3    H2 3532   3.368   3.789   0.786
 1176TIP3   OH2 3533   2.710   1.410   3.148
 1176TIP3    H1 3534   2.656   1.484   3.176
 1176TIP3    H2 3535   2.650   1.336   3.146
 1177TIP3   OH2 3536   1.437   3.492   3.189
 1177TIP3    H1 3537   1.400   3.523   3.106
 1177TIP3    H2 3538   1.393   3.409   3.205
 1178TIP3   OH2 3539   3.623   1.305   4.563
 1178TIP3    H1 3540   3.531   1.278   4.563
 1178TIP3    H2 3541   3.620   1.401   4.566
 1179TIP3   OH2 3542   5.243   5.944   4.737
 1179TIP3    H1 3543   5.159   5.901   4.754
 1179TIP3    H2 3544   5.296   5.924   4.815
 1180TIP3   OH2 3545   0.406   2.652   0.969
 1180TIP3    H1 3546   0.389   2.569   1.015
 1180TIP3    H2 3547   0.499   2.668   0.982
 1181TIP3   OH2 3548   0.896   4.225   2.267
 1181TIP3    H1 3549   0.973   4.203   2.320
 1181TIP3    H2 3550   0.930   4.286   2.201
 1182TIP3   OH2 3551   2.596   2.221   1.175
 1182TIP3    H1 3552   2.636   2.206   1.089
 1182TIP3    H2 3553   2.607   2.314   1.191
 1183TIP3   OH2 3554   5.087   5.125   2.481
 1183TIP3    H1 3555   5.051   5.187   2.545
 1183TIP3    H2 3556   5.182   5.130   2.494
 1184TIP3   OH2 3557   0.170   4.602   4.775
 1184TIP3    H1 3558   0.104   4.552   4.824
 1184TIP3    H2 3559   0.206   4.539   4.712
 1185TIP3   OH2 3560   2.600   3.576   2.308
 1185TIP3    H1 3561   2.618   3.658   2.261
 1185TIP3    H2 3562   2.628   3.594   2.398
 1186TIP3   OH2 3563   1.351   2.154   2.852
 1186TIP3    H1 3564   1.280   2.117   2.800
 1186TIP3    H2 3565   1.329   2.247   2.861
 1187TIP3   OH2 3566   0.179   4.707   2.738
 1187TIP3    H1 3567   0.165   4.782   2.681
 1187TIP3    H2 3568   0.261   4.668   2.706
 1188TIP3   OH2 3569   3.007   2.802   3.305
 1188TIP3    H1 3570   2.973   2.883   3.267
 1188TIP3    H2 3571   2.944   2.735   3.282
 1189TIP3   OH2 3572   0.798   2.146   1.335
 1189TIP3    H1 3573   0.778   2.096   1.414
 1189TIP3    H2 3574   0.747   2.103   1.267
 1190TIP3   OH2 3575   0.263   2.551   3.972
 1190TIP3    H1 3576   0.291   2.528   3.884
 1190TIP3    H2 3577   0.285   2.475   4.025
 1191TIP3   OH2 3578   0.942   3.831   4.758
 1191TIP3    H1 3579   0.905   3.919   4.770
 1191TIP3    H2 3580   0.995   3.816   4.836
 1192TIP3   OH2 3581   0.342   4.187   3.953
 1192TIP3    H1 3582   0.411   4.123   3.942
 1192TIP3    H2 3583   0.387   4.271   3.959
 1193TIP3   OH2 3584   0.418   5.314   1.558
 1193TIP3    H1 3585   0.476   5.361   1.497
 1193TIP3    H2 3586   0.369   5.383   1.602
 1194TIP3   OH2 3587   5.653   4.583   3.299
 1194TIP3    H1 3588   5.639   4.676   3.280
 1194TIP3    H2 3589   5.619   4.538   3.221
 1195TIP3   OH2 3590   4.276   5.875   2.227
 1195TIP3    H1 3591   4.286   5.832   2.312
 1195TIP3    H2 3592   4.327   5.821   2.166
 1196TIP3   OH2 3593   0.069   4.864   2.950
 1196TIP3    H1 3594   0.134   4.927   2.918
 1196TIP3    H2 3595   0.082   4.786   2.897
 1197TIP3   OH2 3596   2.624   1.900   3.292
 1197TIP3    H1 3597   2.573   1.915   3.371
 1197TIP3    H2 3598   2.566   1.850   3.234
 1198TIP3   OH2 3599   3.741   2.029   3.937
 1198TIP3    H1 3600   3.765   2.111   3.895
 1198TIP3    H2 3601   3.750   2.046   4.030
 1199TIP3   OH2 3602   3.053   2.384   2.541
 1199TIP3    H1 3603   3.131   2.346   2.502
 1199TIP3    H2 3604   3.019   2.317   2.600
 1200TIP3   OH2 3605   5.853   5.805   1.427
 1200TIP3    H1 3606   5.857   5.897   1.402
 1200TIP3    H2 3607   5.945   5.778   1.432
 1201TIP3   OH2 3608   4.194   5.055   4.691
 1201TIP3    H1 3609   4.182   5.098   4.776
 1201TIP3    H2 3610   4.244   5.119   4.640
 1202TIP3   OH2 3611   3.066   1.612   0.113
 1202TIP3    H1 3612   3.076   1.659   0.031
 1202TIP3    H2 3613   3.011   1.669   0.167
 1203TIP3   OH2 3614   3.878   0.291   0.009
 1203TIP3    H1 3615   3.847   0.295   0.099
 1203TIP3    H2 3616   3.968   0.322   0.012
 1204TIP3   OH2 3617   5.016   5.193   0.225
 1204TIP3    H1 3618   5.013   5.258   0.155
 1204TIP3    H2 3619   4.966   5.119   0.192
 1205TIP3   OH2 3620   5.887   3.923   3.142
 1205TIP3    H1 3621   5.891   3.895   3.050
 1205TIP3    H2 3622   5.798   3.900   3.170
 1206TIP3   OH2 3623   6.274   5.118   3.224
 1206TIP3    H1 3624   6.291   5.185   3.158
 1206TIP3    H2 3625   6.179   5.110   3.226
 1207TIP3   OH2 3626   1.896   0.703   4.225
 1207TIP3    H1 3627   1.893   0.795   4.250
 1207TIP3    H2 3628   1.807   0.684   4.194
 1208TIP3   OH2 3629   3.320   2.625   0.471
 1208TIP3    H1 3630   3.373   2.699   0.500
 1208TIP3    H2 3631   3.289   2.584   0.551
 1209TIP3   OH2 3632   4.261   5.852   3.069
 1209TIP3    H1 3633   4.331   5.794   3.040
 1209TIP3    H2 3634   4.267   5.928   3.012
 1210TIP3   OH2 3635   0.510   2.236   3.449
 1210TIP3    H1 3636   0.490   2.329   3.446
 1210TIP3    H2 3637   0.584   2.225   3.389
 1211TIP3   OH2 3638   3.923   5.399   3.219
 1211TIP3    H1 3639   3.929   5.429   3.128
 1211TIP3    H2 3640   3.834   5.364   3.226
 1212TIP3   OH2 3641   0.508   4.703   2.696
 1212TIP3    H1 3642   0.529   4.621   2.741
 1212TIP3    H2 3643   0.566   4.767   2.735
 1213TIP3   OH2 3644   5.596   3.849   5.060
 1213TIP3    H1 3645   5.681   3.881   5.027
 1213TIP3    H2 3646   5.532   3.906   5.018
 1214TIP3   OH2 3647   1.662   4.517   4.508
 1214TIP3    H1 3648   1.741   4.490   4.462
 1214TIP3    H2 3649   1.603   4.442   4.501
 1215TIP3   OH2 3650   1.746   2.261   2.365
 1215TIP3    H1 3651   1.834   2.279   2.400
 1215TIP3    H2 3652   1.688   2.309   2.424
 1216TIP3   OH2 3653   4.578   4.952  -0.030
 1216TIP3    H1 3654   4.613   4.868  -0.062
 1216TIP3    H2 3655   4.576   4.942   0.065
 1217TIP3   OH2 3656   0.092   4.535   1.237
 1217TIP3    H1 3657   0.052   4.495   1.315
 1217TIP3    H2 3658   0.181   4.556   1.264
 1218TIP3   OH2 3659   5.017   0.335   1.905
 1218TIP3    H1 3660   4.978   0.371   1.985
 1218TIP3    H2 3661   5.005   0.241   1.913
 1219TIP3   OH2 3662   0.528   5.138   5.125
 1219TIP3    H1 3663   0.591   5.211   5.121
 1219TIP3    H2 3664   0.532   5.099   5.038
 1220TIP3   OH2 3665   5.790   0.607   3.612
 1220TIP3    H1 3666   5.856   0.677   3.613
 1220TIP3    H2 3667   5.713   0.648   3.571
 1221TIP3   OH2 3668   0.482   2.902   1.819
 1221TIP3    H1 3669   0.442   2.825   1.860
 1221TIP3    H2 3670   0.466   2.974   1.880
 1222TIP3   OH2 3671   2.501   0.382   0.928
 1222TIP3    H1 3672   2.436   0.433   0.879
 1222TIP3    H2 3673   2.579   0.438   0.930
 1223TIP3   OH2 3674   5.462   3.831   2.786
 1223TIP3    H1 3675   5.556   3.816   2.802
 1223TIP3    H2 3676   5.455   3.839   2.691
 1224TIP3   OH2 3677   1.934   2.356   1.192
 1224TIP3    H1 3678   2.021   2.361   1.231
 1224TIP3    H2 3679   1.902   2.447   1.193
 1225TIP3   OH2 3680   6.083   3.770   0.108
 1225TIP3    H1 3681   6.048   3.805   0.025
 1225TIP3    H2 3682   6.177   3.760   0.091
 1226TIP3   OH2 3683   3.310   1.547   1.943
 1226TIP3    H1 3684   3.290   1.625   1.995
 1226TIP3    H2 3685   3.234   1.491   1.954
 1227TIP3   OH2 3686   4.463   1.891   3.558
 1227TIP3    H1 3687   4.402   1.824   3.588
 1227TIP3    H2 3688   4.498   1.929   3.638
 1228TIP3   OH2 3689  -0.002   4.757   1.078
 1228TIP3    H1 3690  -0.030   4.667   1.093
 1228TIP3    H2 3691   0.002   4.796   1.165
 1229TIP3   OH2 3692   0.283   2.597   2.536
 1229TIP3    H1 3693   0.317   2.526   2.482
 1229TIP3    H2 3694   0.358   2.654   2.551
 1230TIP3   OH2 3695   0.204   1.653   1.239
 1230TIP3    H1 3696   0.248   1.688   1.161
 1230TIP3    H2 3697   0.187   1.562   1.218
 1231TIP3   OH2 3698   1.865   5.513   1.275
 1231TIP3    H1 3699   1.902   5.552   1.354
 1231TIP3    H2 3700   1.851   5.421   1.298
 1232TIP3   OH2 3701   0.501   5.009   2.208
 1232TIP3    H1 3702   0.593   4.998   2.185
 1232TIP3    H2 3703   0.492   5.102   2.227
 1233TIP3   OH2 3704   2.476   2.925   2.664
 1233TIP3    H1 3705   2.473   2.830   2.650
 1233TIP3    H2 3706   2.392   2.946   2.704
 1234TIP3   OH2 3707   2.638   4.541   2.215
 1234TIP3    H1 3708   2.634   4.539   2.119
 1234TIP3    H2 3709   2.552   4.572   2.242
 1235TIP3   OH2 3710   5.021   5.090   2.090
 1235TIP3    H1 3711   4.981   5.139   2.162
 1235TIP3    H2 3712   5.005   5.144   2.012
 1236TIP3   OH2 3713   6.063   0.882   1.919
 1236TIP3    H1 3714   6.000   0.846   1.857
 1236TIP3    H2 3715   6.118   0.940   1.867
 1237TIP3   OH2 3716   5.111   3.647   1.714
 1237TIP3    H1 3717   5.118   3.619   1.623
 1237TIP3    H2 3718   5.070   3.734   1.709
 1238TIP3   OH2 3719   3.873   3.025   0.988
 1238TIP3    H1 3720   3.889   3.117   1.009
 1238TIP3    H2 3721   3.959   2.984   0.990
 1239TIP3   OH2 3722   3.297   2.064   2.950
 1239TIP3    H1 3723   3.341   2.118   3.016
 1239TIP3    H2 3724   3.206   2.061   2.980
 1240TIP3   OH2 3725   5.716   2.247   0.394
 1240TIP3    H1 3726   5.706   2.299   0.474
 1240TIP3    H2 3727   5.749   2.163   0.425
 1241TIP3   OH2 3728   2.294   0.212   1.781
 1241TIP3    H1 3729   2.233   0.183   1.849
 1241TIP3    H2 3730   2.257   0.179   1.699
 1242TIP3   OH2 3731   5.834   1.927   4.828
 1242TIP3    H1 3732   5.872   1.842   4.804
 1242TIP3    H2 3733   5.809   1.967   4.745
 1243TIP3   OH2 3734   2.072   2.443   3.306
 1243TIP3    H1 3735   2.052   2.360   3.348
 1243TIP3    H2 3736   1.987   2.485   3.294
 1244TIP3   OH2 3737   1.131   3.425   2.466
 1244TIP3    H1 3738   1.051   3.441   2.416
 1244TIP3    H2 3739   1.186   3.373   2.407
 1245TIP3   OH2 3740   1.608   1.300   1.652
 1245TIP3    H1 3741   1.539   1.312   1.718
 1245TIP3    H2 3742   1.583   1.221   1.605
 1246TIP3   OH2 3743   2.864   5.157   3.460
 1246TIP3    H1 3744   2.884   5.156   3.553
 1246TIP3    H2 3745   2.799   5.088   3.448
 1247TIP3   OH2 3746   2.815   5.823   2.310
 1247TIP3    H1 3747   2.830   5.871   2.392
 1247TIP3    H2 3748   2.845   5.734   2.329
 1248TIP3   OH2 3749   1.014   5.809   2.196
 1248TIP3    H1 3750   0.948   5.871   2.227
 1248TIP3    H2 3751   1.029   5.833   2.105
 1249TIP3   OH2 3752   6.061   4.173   2.710
 1249TIP3    H1 3753   6.096   4.176   2.799
 1249TIP3    H2 3754   6.122   4.116   2.663
 1250TIP3   OH2 3755   5.371   5.893   5.211
 1250TIP3    H1 3756   5.302   5.955   5.235
 1250TIP3    H2 3757   5.394   5.916   5.121
 1251TIP3   OH2 3758   0.736   1.458   1.271
 1251TIP3    H1 3759   0.794   1.382   1.280
 1251TIP3    H2 3760   0.795   1.533   1.271
 1252TIP3   OH2 3761   1.542   5.528   3.867
 1252TIP3    H1 3762   1.495   5.489   3.794
 1252TIP3    H2 3763   1.604   5.461   3.895
 1253TIP3   OH2 3764   3.453   2.412   0.316
 1253TIP3    H1 3765   3.395   2.469   0.366
 1253TIP3    H2 3766   3.473   2.462   0.237
 1254TIP3   OH2 3767   1.944   4.871   4.808
 1254TIP3    H1 3768   1.868   4.819   4.782
 1254TIP3    H2 3769   1.996   4.811   4.861
 1255TIP3   OH2 3770   2.491   4.431   4.048
 1255TIP3    H1 3771   2.498   4.419   4.143
 1255TIP3    H2 3772   2.474   4.524   4.037
 1256TIP3   OH2 3773   1.104   3.208   1.856
 1256TIP3    H1 3774   1.141   3.153   1.924
 1256TIP3    H2 3775   1.009   3.206   1.871
 1257TIP3   OH2 3776   5.949   5.608   3.664
 1257TIP3    H1 3777   6.035   5.588   3.627
 1257TIP3    H2 3778   5.887   5.556   3.613
 1258TIP3   OH2 3779   5.540   4.976   3.607
 1258TIP3    H1 3780   5.499   4.957   3.692
 1258TIP3    H2 3781   5.633   4.981   3.626
 1259TIP3   OH2 3782   1.227   1.134   3.348
 1259TIP3    H1 3783   1.311   1.140   3.392
 1259TIP3    H2 3784   1.182   1.062   3.393
 1260TIP3   OH2 3785   2.453   0.346   4.802
 1260TIP3    H1 3786   2.378   0.405   4.792
 1260TIP3    H2 3787   2.494   0.374   4.884
 1261TIP3   OH2 3788   0.403   4.445   1.680
 1261TIP3    H1 3789   0.437   4.396   1.605
 1261TIP3    H2 3790   0.358   4.380   1.733
 1262TIP3   OH2 3791   4.960   0.354   2.872
 1262TIP3    H1 3792   4.983   0.278   2.926
 1262TIP3    H2 3793   5.028   0.418   2.890
 1263TIP3   OH2 3794   0.718   0.387   4.115
 1263TIP3    H1 3795   0.667   0.307   4.101
 1263TIP3    H2 3796   0.659   0.444   4.165
 1264TIP3   OH2 3797   5.596   1.803   2.234
 1264TIP3    H1 3798   5.648   1.854   2.172
 1264TIP3    H2 3799   5.640   1.817   2.318
 1265TIP3   OH2 3800   0.685   3.531   3.129
 1265TIP3    H1 3801   0.778   3.512   3.125
 1265TIP3    H2 3802   0.645   3.472   3.065
 1266TIP3   OH2 3803   4.512   0.859   0.903
 1266TIP3    H1 3804   4.417   0.852   0.906
 1266TIP3    H2 3805   4.542   0.818   0.985
 1267TIP3   OH2 3806   0.903   3.383   0.403
 1267TIP3    H1 3807   0.824   3.434   0.387
 1267TIP3    H2 3808   0.879   3.293   0.381
 1268TIP3   OH2 3809   4.514   5.341   3.226
 1268TIP3    H1 3810   4.452   5.318   3.157
 1268TIP3    H2 3811   4.511   5.437   3.230
 1269TIP3   OH2 3812   5.651   2.179   0.989
 1269TIP3    H1 3813   5.571   2.215   0.950
 1269TIP3    H2 3814   5.630   2.168   1.081
 1270TIP3   OH2 3815   5.482   0.199   0.206
 1270TIP3    H1 3816   5.425   0.275   0.198
 1270TIP3    H2 3817   5.547   0.210   0.136
 1271TIP3   OH2 3818   2.815   0.364   4.502
 1271TIP3    H1 3819   2.727   0.383   4.534
 1271TIP3    H2 3820   2.817   0.402   4.414
 1272TIP3   OH2 3821   3.170   2.115   4.885
 1272TIP3    H1 3822   3.223   2.049   4.929
 1272TIP3    H2 3823   3.234   2.167   4.836
 1273TIP3   OH2 3824   3.934   4.380   4.406
 1273TIP3    H1 3825   3.851   4.382   4.359
 1273TIP3    H2 3826   3.909   4.376   4.498
 1274TIP3   OH2 3827   0.553   2.495   3.458
 1274TIP3    H1 3828   0.602   2.484   3.539
 1274TIP3    H2 3829   0.522   2.585   3.460
 1275TIP3   OH2 3830   1.423   0.864   4.359
 1275TIP3    H1 3831   1.450   0.880   4.269
 1275TIP3    H2 3832   1.409   0.952   4.395
 1276TIP3   OH2 3833   3.462   0.685   2.467
 1276TIP3    H1 3834   3.476   0.629   2.391
 1276TIP3    H2 3835   3.437   0.624   2.537
 1277TIP3   OH2 3836   3.120   3.201   4.232
 1277TIP3    H1 3837   3.052   3.146   4.194
 1277TIP3    H2 3838   3.073   3.257   4.294
 1278TIP3   OH2 3839   3.933   3.120   2.115
 1278TIP3    H1 3840   3.976   3.035   2.126
 1278TIP3    H2 3841   4.002   3.178   2.082
 1279TIP3   OH2 3842   5.737   2.878   1.338
 1279TIP3    H1 3843   5.675   2.949   1.321
 1279TIP3    H2 3844   5.750   2.880   1.432
 1280TIP3   OH2 3845   1.775   5.176   0.607
 1280TIP3    H1 3846   1.701   5.218   0.649
 1280TIP3    H2 3847   1.758   5.184   0.513
 1281TIP3   OH2 3848   1.542   0.041   1.296
 1281TIP3    H1 3849   1.455   0.082   1.302
 1281TIP3    H2 3850   1.556   0.028   1.203
 1282TIP3   OH2 3851   5.502   5.220   1.312
 1282TIP3    H1 3852   5.477   5.250   1.224
 1282TIP3    H2 3853   5.596   5.204   1.306
 1283TIP3   OH2 3854   5.758   3.669   1.231
 1283TIP3    H1 3855   5.761   3.738   1.297
 1283TIP3    H2 3856   5.770   3.588   1.282
 1284TIP3   OH2 3857   5.785   2.928   0.418
 1284TIP3    H1 3858   5.821   3.013   0.395
 1284TIP3    H2 3859   5.738   2.943   0.500
 1285TIP3   OH2 3860   5.052   1.586   2.449
 1285TIP3    H1 3861   5.000   1.667   2.442
 1285TIP3    H2 3862   5.091   1.576   2.362
 1286TIP3   OH2 3863   0.826   0.090   2.123
 1286TIP3    H1 3864   0.808  -0.003   2.134
 1286TIP3    H2 3865   0.770   0.117   2.050
 1287TIP3   OH2 3866   3.987   1.155   4.081
 1287TIP3    H1 3867   3.993   1.096   4.007
 1287TIP3    H2 3868   3.917   1.217   4.057
 1288TIP3   OH2 3869   1.367   0.998   3.926
 1288TIP3    H1 3870   1.381   1.092   3.920
 1288TIP3    H2 3871   1.275   0.988   3.949
 1289TIP3   OH2 3872   3.171   5.795   1.570
 1289TIP3    H1 3873   3.254   5.842   1.576
 1289TIP3    H2 3874   3.114   5.853   1.521
 1290TIP3   OH2 3875   3.700   0.909   3.780
 1290TIP3    H1 3876   3.727   0.994   3.745
 1290TIP3    H2 3877   3.695   0.852   3.703
 1291TIP3   OH2 3878   3.352   3.529   4.880
 1291TIP3    H1 3879   3.363   3.444   4.837
 1291TIP3    H2 3880   3.267   3.522   4.924
 1292TIP3   OH2 3881   5.840   4.591   3.004
 1292TIP3    H1 3882   5.854   4.517   2.946
 1292TIP3    H2 3883   5.746   4.605   3.004
 1293TIP3   OH2 3884   0.973   1.092   0.040
 1293TIP3    H1 3885   1.055   1.136   0.063
 1293TIP3    H2 3886   0.904   1.153   0.067
 1294TIP3   OH2 3887   4.635   0.314   2.531
 1294TIP3    H1 3888   4.596   0.289   2.615
 1294TIP3    H2 3889   4.717   0.356   2.555
 1295TIP3   OH2 3890   0.948   5.464   0.965
 1295TIP3    H1 3891   0.879   5.470   0.899
 1295TIP3    H2 3892   0.903   5.431   1.043
 1296TIP3   OH2 3893   1.499   1.684   0.066
 1296TIP3    H1 3894   1.505   1.594   0.100
 1296TIP3    H2 3895   1.418   1.685   0.016
 1297TIP3   OH2 3896   3.310   5.630   4.029
 1297TIP3    H1 3897   3.241   5.677   4.077
 1297TIP3    H2 3898   3.271   5.545   4.008
 1298TIP3   OH2 3899   2.361   4.046   3.600
 1298TIP3    H1 3900   2.315   3.987   3.540
 1298TIP3    H2 3901   2.329   4.021   3.687
 1299TIP3   OH2 3902   0.400   2.395   3.168
 1299TIP3    H1 3903   0.481   2.353   3.198
 1299TIP3    H2 3904   0.399   2.480   3.213
 1300TIP3   OH2 3905   4.780   3.873   1.483
 1300TIP3    H1 3906   4.806   3.947   1.428
 1300TIP3    H2 3907   4.785   3.797   1.426
 1301TIP3   OH2 3908   1.522   4.718   2.360
 1301TIP3    H1 3909   1.442   4.749   2.318
 1301TIP3    H2 3910   1.552   4.792   2.413
 1302TIP3   OH2 3911   1.068   4.163   2.493
 1302TIP3    H1 3912   1.049   4.201   2.579
 1302TIP3    H2 3913   1.163   4.167   2.486
 1303TIP3   OH2 3914   1.440   2.210   5.142
 1303TIP3    H1 3915   1.536   2.205   5.142
 1303TIP3    H2 3916   1.420   2.269   5.215
 1304TIP3   OH2 3917   1.393   3.183   1.309
 1304TIP3    H1 3918   1.369   3.264   1.354
 1304TIP3    H2 3919   1.480   3.161   1.344
 1305TIP3   OH2 3920   2.284   5.061   3.087
 1305TIP3    H1 3921   2.190   5.044   3.087
 1305TIP3    H2 3922   2.292   5.155   3.105
 1306TIP3   OH2 3923   0.963   4.602   4.230
 1306TIP3    H1 3924   0.880   4.644   4.207
 1306TIP3    H2 3925   0.939   4.524   4.279
 1307TIP3   OH2 3926   2.954   0.324   4.750
 1307TIP3    H1 3927   2.926   0.410   4.779
 1307TIP3    H2 3928   2.905   0.309   4.669
 1308TIP3   OH2 3929   1.303   3.317   3.365
 1308TIP3    H1 3930   1.298   3.392   3.424
 1308TIP3    H2 3931   1.243   3.337   3.294
 1309TIP3   OH2 3932   0.767   3.461   2.045
 1309TIP3    H1 3933   0.689   3.452   2.101
 1309TIP3    H2 3934   0.782   3.555   2.039
 1310TIP3   OH2 3935   5.560   3.232   2.907
 1310TIP3    H1 3936   5.504   3.173   2.956
 1310TIP3    H2 3937   5.630   3.256   2.969
 1311TIP3   OH2 3938   6.253   2.939   0.296
 1311TIP3    H1 3939   6.199   2.887   0.236
 1311TIP3    H2 3940   6.339   2.941   0.255
 1312TIP3   OH2 3941   1.715   1.898   1.171
 1312TIP3    H1 3942   1.625   1.921   1.149
 1312TIP3    H2 3943   1.710   1.806   1.197
 1313TIP3   OH2 3944   3.424   1.552   4.892
 1313TIP3    H1 3945   3.517   1.572   4.886
 1313TIP3    H2 3946   3.383   1.605   4.823
 1314TIP3   OH2 3947   1.175   2.476   3.284
 1314TIP3    H1 3948   1.144   2.438   3.202
 1314TIP3    H2 3949   1.110   2.448   3.349
 1315TIP3   OH2 3950   1.459   0.075   2.817
 1315TIP3    H1 3951   1.378   0.120   2.840
 1315TIP3    H2 3952   1.488   0.118   2.736
 1316TIP3   OH2 3953   2.837   5.524   1.415
 1316TIP3    H1 3954   2.920   5.542   1.371
 1316TIP3    H2 3955   2.852   5.550   1.506
 1317TIP3   OH2 3956   1.998   0.497   3.352
 1317TIP3    H1 3957   1.915   0.457   3.327
 1317TIP3    H2 3958   2.063   0.428   3.338
 1318TIP3   OH2 3959   0.187  -0.059   4.416
 1318TIP3    H1 3960   0.094  -0.041   4.401
 1318TIP3    H2 3961   0.226   0.027   4.430
 1319TIP3   OH2 3962   0.658   4.892   1.647
 1319TIP3    H1 3963   0.745   4.851   1.647
 1319TIP3    H2 3964   0.673   4.980   1.611
 1320TIP3   OH2 3965   2.131   1.753   3.916
 1320TIP3    H1 3966   2.158   1.677   3.864
 1320TIP3    H2 3967   2.108   1.718   4.001
 1321TIP3   OH2 3968   2.081   3.138   1.706
 1321TIP3    H1 3969   2.064   3.161   1.797
 1321TIP3    H2 3970   2.103   3.045   1.708
 1322TIP3   OH2 3971   3.610   0.758   2.754
 1322TIP3    H1 3972   3.573   0.786   2.838
 1322TIP3    H2 3973   3.535   0.748   2.697
 1323TIP3   OH2 3974   0.937   5.331   2.661
 1323TIP3    H1 3975   0.975   5.244   2.648
 1323TIP3    H2 3976   1.005   5.392   2.632
 1324TIP3   OH2 3977   3.134   4.074   4.891
 1324TIP3    H1 3978   3.053   4.023   4.901
 1324TIP3    H2 3979   3.203   4.009   4.889
 1325TIP3   OH2 3980   4.849   1.645   5.151
 1325TIP3    H1 3981   4.802   1.645   5.234
 1325TIP3    H2 3982   4.796   1.591   5.092
 1326TIP3   OH2 3983   5.482   4.545   0.168
 1326TIP3    H1 3984   5.402   4.503   0.200
 1326TIP3    H2 3985   5.529   4.569   0.248
 1327TIP3   OH2 3986   3.956   4.719   0.237
 1327TIP3    H1 3987   3.861   4.719   0.224
 1327TIP3    H2 3988   3.970   4.776   0.312
 1328TIP3   OH2 3989   5.864   2.838   4.092
 1328TIP3    H1 3990   5.937   2.781   4.116
 1328TIP3    H2 3991   5.830   2.801   4.011
 1329TIP3   OH2 3992   2.052   0.134   1.924
 1329TIP3    H1 3993   2.091   0.183   1.996
 1329TIP3    H2 3994   1.958   0.150   1.931
 1330TIP3   OH2 3995   6.030   3.169   4.495
 1330TIP3    H1 3996   6.036   3.150   4.588
 1330TIP3    H2 3997   5.936   3.172   4.477
 1331TIP3   OH2 3998   5.708   3.593   5.096
 1331TIP3    H1 3999   5.665   3.512   5.123
 1331TIP3    H2 4000   5.638   3.659   5.098
 1332TIP3   OH2 4001   1.280   3.689   2.213
 1332TIP3    H1 4002   1.297   3.705   2.306
 1332TIP3    H2 4003   1.367   3.673   2.175
 1333TIP3   OH2 4004   3.342   5.373   1.960
 1333TIP3    H1 4005   3.413   5.327   1.917
 1333TIP3    H2 4006   3.311   5.436   1.894
 1334TIP3   OH2 4007   5.868   2.689   0.015
 1334TIP3    H1 4008   5.862   2.681   0.110
 1334TIP3    H2 4009   5.785   2.654  -0.018
 1335TIP3   OH2 4010   0.074   1.522   1.623
 1335TIP3    H1 4011   0.159   1.521   1.579
 1335TIP3    H2 4012   0.090   1.481   1.708
 1336TIP3   OH2 4013   4.429   0.819   4.746
 1336TIP3    H1 4014   4.459   0.906   4.719
 1336TIP3    H2 4015   4.474   0.758   4.687
 1337TIP3   OH2 4016   4.239   1.874   1.295
 1337TIP3    H1 4017   4.288   1.956   1.290
 1337TIP3    H2 4018   4.186   1.883   1.374
 1338TIP3   OH2 4019   0.310   1.825   3.201
 1338TIP3    H1 4020   0.252   1.901   3.193
 1338TIP3    H2 4021   0.336   1.825   3.293
 1339TIP3   OH2 4022   2.035   2.215   2.112
 1339TIP3    H1 4023   2.025   2.168   2.195
 1339TIP3    H2 4024   1.966   2.181   2.056
 1340TIP3   OH2 4025   4.320   5.472   4.650
 1340TIP3    H1 4026   4.253   5.540   4.641
 1340TIP3    H2 4027   4.330   5.437   4.561
 1341TIP3   OH2 4028   5.859   2.928   0.915
 1341TIP3    H1 4029   5.905   3.007   0.887
 1341TIP3    H2 4030   5.880   2.921   1.009
 1342TIP3   OH2 4031   4.536   5.376   2.498
 1342TIP3    H1 4032   4.545   5.281   2.501
 1342TIP3    H2 4033   4.610   5.405   2.444
 1343TIP3   OH2 4034   4.083   3.828   1.200
 1343TIP3    H1 4035   4.079   3.921   1.222
 1343TIP3    H2 4036   4.072   3.826   1.105
 1344TIP3   OH2 4037   2.146   1.440   3.461
 1344TIP3    H1 4038   2.181   1.491   3.534
 1344TIP3    H2 4039   2.192   1.474   3.384
 1345TIP3   OH2 4040   3.718   1.062   2.640
 1345TIP3    H1 4041   3.646   1.120   2.615
 1345TIP3    H2 4042   3.698   0.979   2.597
 1346TIP3   OH2 4043   4.140   3.816   4.459
 1346TIP3    H1 4044   4.228   3.854   4.457
 1346TIP3    H2 4045   4.084   3.889   4.486
 1347TIP3   OH2 4046   1.831   2.322   1.497
 1347TIP3    H1 4047   1.795   2.410   1.489
 1347TIP3    H2 4048   1.854   2.297   1.407
 1348TIP3   OH2 4049   5.712   3.939   0.320
 1348TIP3    H1 4050   5.662   3.984   0.252
 1348TIP3    H2 4051   5.665   3.857   0.334
 1349TIP3   OH2 4052   1.873   3.551   0.997
 1349TIP3    H1 4053   1.892   3.505   0.915
 1349TIP3    H2 4054   1.940   3.619   1.002
 1350TIP3   OH2 4055   3.790   3.767   0.159
 1350TIP3    H1 4056   3.767   3.676   0.141
 1350TIP3    H2 4057   3.791   3.773   0.254
 1351TIP3   OH2 4058   5.521   4.830   3.378
 1351TIP3    H1 4059   5.546   4.854   3.467
 1351TIP3    H2 4060   5.551   4.904   3.324
 1352TIP3   OH2 4061   3.341   5.050   0.081
 1352TIP3    H1 4062   3.333   5.124   0.021
 1352TIP3    H2 4063   3.424   5.009   0.058
 1353TIP3   OH2 4064   1.882   5.912   2.645
 1353TIP3    H1 4065   1.842   5.861   2.716
 1353TIP3    H2 4066   1.975   5.910   2.664
 1354TIP3   OH2 4067   2.833   5.218   0.982
 1354TIP3    H1 4068   2.885   5.221   1.062
 1354TIP3    H2 4069   2.743   5.224   1.012
 1355TIP3   OH2 4070   4.966   3.902   2.511
 1355TIP3    H1 4071   4.882   3.932   2.547
 1355TIP3    H2 4072   5.031   3.944   2.567
 1356TIP3   OH2 4073   0.925   5.738   1.424
 1356TIP3    H1 4074   0.891   5.807   1.367
 1356TIP3    H2 4075   1.015   5.724   1.393
 1357TIP3   OH2 4076   4.188   3.468   2.721
 1357TIP3    H1 4077   4.136   3.444   2.645
 1357TIP3    H2 4078   4.261   3.520   2.685
 1358TIP3   OH2 4079   0.188   3.100   2.312
 1358TIP3    H1 4080   0.220   3.160   2.244
 1358TIP3    H2 4081   0.126   3.152   2.362
 1359TIP3   OH2 4082   1.304   0.072   2.250
 1359TIP3    H1 4083   1.271   0.068   2.160
 1359TIP3    H2 4084   1.234   0.033   2.303
 1360TIP3   OH2 4085   5.687   3.852   1.030
 1360TIP3    H1 4086   5.695   3.778   1.090
 1360TIP3    H2 4087   5.777   3.879   1.012
 1361TIP3   OH2 4088   4.566   5.669   1.388
 1361TIP3    H1 4089   4.487   5.625   1.356
 1361TIP3    H2 4090   4.535   5.727   1.458
 1362TIP3   OH2 4091   4.385   0.406   4.976
 1362TIP3    H1 4092   4.331   0.430   5.051
 1362TIP3    H2 4093   4.335   0.438   4.900
 1363TIP3   OH2 4094   1.141   2.610   0.466
 1363TIP3    H1 4095   1.115   2.529   0.422
 1363TIP3    H2 4096   1.151   2.673   0.394
 1364TIP3   OH2 4097   2.815   2.430   0.860
 1364TIP3    H1 4098   2.776   2.512   0.888
 1364TIP3    H2 4099   2.908   2.450   0.847
 1365TIP3   OH2 4100   3.168   2.873   1.236
 1365TIP3    H1 4101   3.190   2.945   1.178
 1365TIP3    H2 4102   3.182   2.794   1.184
 1366TIP3   OH2 4103   3.263   1.584   1.093
 1366TIP3    H1 4104   3.336   1.589   1.032
 1366TIP3    H2 4105   3.260   1.493   1.121
 1367TIP3   OH2 4106   5.206   1.144   4.068
 1367TIP3    H1 4107   5.236   1.184   3.986
 1367TIP3    H2 4108   5.251   1.059   4.071
 1368TIP3   OH2 4109   0.185   3.909   3.021
 1368TIP3    H1 4110   0.092   3.925   3.035
 1368TIP3    H2 4111   0.228   3.946   3.098
 1369TIP3   OH2 4112   1.050   4.857   2.410
 1369TIP3    H1 4113   0.979   4.820   2.358
 1369TIP3    H2 4114   1.022   4.947   2.427
 1370TIP3   OH2 4115   3.198   3.392   3.458
 1370TIP3    H1 4116   3.281   3.424   3.421
 1370TIP3    H2 4117   3.218   3.304   3.488
 1371TIP3   OH2 4118   3.501   0.799   1.318
 1371TIP3    H1 4119   3.531   0.752   1.240
 1371TIP3    H2 4120   3.473   0.730   1.378
 1372TIP3   OH2 4121   1.689   1.978   4.719
 1372TIP3    H1 4122   1.741   1.897   4.720
 1372TIP3    H2 4123   1.607   1.953   4.677
 1373TIP3   OH2 4124   0.942   5.846   2.756
 1373TIP3    H1 4125   0.999   5.841   2.679
 1373TIP3    H2 4126   0.957   5.763   2.802
 1374TIP3   OH2 4127   2.180   5.338   2.483
 1374TIP3    H1 4128   2.264   5.293   2.478
 1374TIP3    H2 4129   2.139   5.324   2.398
 1375TIP3   OH2 4130   4.380   3.539   4.437
 1375TIP3    H1 4131   4.368   3.630   4.412
 1375TIP3    H2 4132   4.309   3.492   4.392
 1376TIP3   OH2 4133   5.527   4.802   4.481
 1376TIP3    H1 4134   5.525   4.852   4.399
 1376TIP3    H2 4135   5.567   4.862   4.544
 1377TIP3   OH2 4136   1.968   2.528   2.848
 1377TIP3    H1 4137   1.891   2.470   2.851
 1377TIP3    H2 4138   2.037   2.473   2.812
 1378TIP3   OH2 4139   1.089   0.167   2.481
 1378TIP3    H1 4140   1.016   0.196   2.426
 1378TIP3    H2 4141   1.094   0.073   2.466
 1379TIP3   OH2 4142   2.003   3.443   2.632
 1379TIP3    H1 4143   1.924   3.495   2.617
 1379TIP3    H2 4144   2.011   3.389   2.554
 1380TIP3   OH2 4145   5.725   3.577   4.633
 1380TIP3    H1 4146   5.703   3.665   4.664
 1380TIP3    H2 4147   5.771   3.536   4.706
 1381TIP3   OH2 4148   4.116   4.131   4.402
 1381TIP3    H1 4149   4.203   4.147   4.437
 1381TIP3    H2 4150   4.072   4.215   4.405
 1382TIP3   OH2 4151   4.474   2.336   0.197
 1382TIP3    H1 4152   4.524   2.413   0.172
 1382TIP3    H2 4153   4.538   2.265   0.197
 1383TIP3   OH2 4154   4.209   1.796   0.641
 1383TIP3    H1 4155   4.200   1.887   0.668
 1383TIP3    H2 4156   4.251   1.753   0.716
 1384TIP3   OH2 4157   4.285   0.101   1.016
 1384TIP3    H1 4158   4.216   0.104   1.082
 1384TIP3    H2 4159   4.269   0.021   0.967
 1385TIP3   OH2 4160   3.061   2.364   4.805
 1385TIP3    H1 4161   3.106   2.295   4.853
 1385TIP3    H2 4162   2.985   2.385   4.860
 1386TIP3   OH2 4163   3.073   4.821   3.323
 1386TIP3    H1 4164   3.027   4.761   3.265
 1386TIP3    H2 4165   3.066   4.906   3.280
 1387TIP3   OH2 4166   1.870   4.248   2.280
 1387TIP3    H1 4167   1.869   4.311   2.352
 1387TIP3    H2 4168   1.851   4.301   2.202
 1388TIP3   OH2 4169   0.745   2.691   3.871
 1388TIP3    H1 4170   0.837   2.711   3.888
 1388TIP3    H2 4171   0.727   2.613   3.924
 1389TIP3   OH2 4172   1.887   4.070   1.462
 1389TIP3    H1 4173   1.890   3.996   1.522
 1389TIP3    H2 4174   1.815   4.124   1.494
 1390TIP3   OH2 4175   2.943   3.419   4.317
 1390TIP3    H1 4176   2.916   3.507   4.344
 1390TIP3    H2 4177   2.908   3.410   4.228
 1391TIP3   OH2 4178   4.897   1.492   3.341
 1391TIP3    H1 4179   4.953   1.510   3.266
 1391TIP3    H2 4180   4.812   1.472   3.302
 1392TIP3   OH2 4181   4.816   1.187   0.737
 1392TIP3    H1 4182   4.775   1.273   0.748
 1392TIP3    H2 4183   4.750   1.125   0.770
 1393TIP3   OH2 4184   2.460   3.837   4.973
 1393TIP3    H1 4185   2.437   3.801   4.887
 1393TIP3    H2 4186   2.534   3.783   5.002
 1394TIP3   OH2 4187   4.142   4.912   1.551
 1394TIP3    H1 4188   4.176   5.000   1.564
 1394TIP3    H2 4189   4.053   4.924   1.520
 1395TIP3   OH2 4190   4.939   2.501   0.464
 1395TIP3    H1 4191   4.992   2.448   0.522
 1395TIP3    H2 4192   4.852   2.501   0.505
 1396TIP3   OH2 4193   0.298   3.404   4.694
 1396TIP3    H1 4194   0.358   3.466   4.653
 1396TIP3    H2 4195   0.232   3.387   4.627
 1397TIP3   OH2 4196   3.161   2.390   3.264
 1397TIP3    H1 4197   3.185   2.464   3.207
 1397TIP3    H2 4198   3.224   2.394   3.336
 1398TIP3   OH2 4199   0.255   3.237   4.366
 1398TIP3    H1 4200   0.206   3.320   4.371
 1398TIP3    H2 4201   0.198   3.179   4.316
 1399TIP3   OH2 4202   4.166   2.927   2.566
 1399TIP3    H1 4203   4.241   2.881   2.529
 1399TIP3    H2 4204   4.130   2.867   2.631
 1400TIP3   OH2 4205   4.620   5.857   4.816
 1400TIP3    H1 4206   4.686   5.905   4.868
 1400TIP3    H2 4207   4.670   5.819   4.744
 1401TIP3   OH2 4208   2.939   2.739   2.167
 1401TIP3    H1 4209   2.908   2.824   2.137
 1401TIP3    H2 4210   3.028   2.732   2.134
 1402TIP3   OH2 4211   4.134   3.142   3.107
 1402TIP3    H1 4212   4.219   3.147   3.150
 1402TIP3    H2 4213   4.083   3.080   3.159
 1403TIP3   OH2 4214   5.924   1.354   0.045
 1403TIP3    H1 4215   5.899   1.400  -0.035
 1403TIP3    H2 4216   5.935   1.263   0.017
 1404TIP3   OH2 4217   0.075   1.281   0.690
 1404TIP3    H1 4218   0.023   1.356   0.719
 1404TIP3    H2 4219   0.064   1.280   0.595
 1405TIP3   OH2 4220   0.742   5.560   3.724
 1405TIP3    H1 4221   0.742   5.631   3.788
 1405TIP3    H2 4222   0.825   5.570   3.678
 1406TIP3   OH2 4223   1.151   3.213   2.278
 1406TIP3    H1 4224   1.056   3.210   2.279
 1406TIP3    H2 4225   1.175   3.188   2.189
 1407TIP3   OH2 4226   2.196   3.979   4.344
 1407TIP3    H1 4227   2.120   4.002   4.290
 1407TIP3    H2 4228   2.179   3.889   4.371
 1408TIP3   OH2 4229   1.304   5.495   1.329
 1408TIP3    H1 4230   1.280   5.414   1.374
 1408TIP3    H2 4231   1.325   5.468   1.239
 1409TIP3   OH2 4232   3.184   3.242   4.556
 1409TIP3    H1 4233   3.088   3.247   4.551
 1409TIP3    H2 4234   3.214   3.332   4.543
 1410TIP3   OH2 4235   1.374   0.521   0.357
 1410TIP3    H1 4236   1.328   0.564   0.285
 1410TIP3    H2 4237   1.410   0.593   0.409
 1411TIP3   OH2 4238   3.926   1.419   4.479
 1411TIP3    H1 4239   3.886   1.342   4.520
 1411TIP3    H2 4240   3.856   1.483   4.473
 1412TIP3   OH2 4241   2.296   5.555   0.596
 1412TIP3    H1 4242   2.276   5.482   0.655
 1412TIP3    H2 4243   2.239   5.626   0.626
 1413TIP3   OH2 4244   0.282   1.784   2.263
 1413TIP3    H1 4245   0.224   1.828   2.324
 1413TIP3    H2 4246   0.357   1.756   2.316
 1414TIP3   OH2 4247   1.110   0.472   2.708
 1414TIP3    H1 4248   1.128   0.549   2.654
 1414TIP3    H2 4249   1.033   0.496   2.759
 1415TIP3   OH2 4250   0.147   3.925   0.175
 1415TIP3    H1 4251   0.126   3.989   0.244
 1415TIP3    H2 4252   0.228   3.884   0.205
 1416TIP3   OH2 4253   4.021   1.830   3.179
 1416TIP3    H1 4254   4.098   1.886   3.193
 1416TIP3    H2 4255   3.947   1.891   3.176
 1417TIP3   OH2 4256   4.765   1.205   3.838
 1417TIP3    H1 4257   4.742   1.292   3.869
 1417TIP3    H2 4258   4.784   1.155   3.918
 1418TIP3   OH2 4259   3.426   2.068   4.318
 1418TIP3    H1 4260   3.393   2.101   4.401
 1418TIP3    H2 4261   3.371   2.110   4.252
 1419TIP3   OH2 4262   3.271   4.343   1.527
 1419TIP3    H1 4263   3.346   4.385   1.485
 1419TIP3    H2 4264   3.305   4.316   1.613
 1420TIP3   OH2 4265   1.666   1.004   0.993
 1420TIP3    H1 4266   1.728   0.973   1.058
 1420TIP3    H2 4267   1.583   0.964   1.019
 1421TIP3   OH2 4268   5.867   3.409   0.014
 1421TIP3    H1 4269   5.778   3.398  -0.020
 1421TIP3    H2 4270   5.867   3.497   0.052
 1422TIP3   OH2 4271   0.829   1.341   3.150
 1422TIP3    H1 4272   0.918   1.310   3.135
 1422TIP3    H2 4273   0.823   1.423   3.100
 1423TIP3   OH2 4274   2.679   4.714   4.468
 1423TIP3    H1 4275   2.621   4.787   4.447
 1423TIP3    H2 4276   2.688   4.666   4.386
 1424TIP3   OH2 4277   1.830   0.064   4.768
 1424TIP3    H1 4278   1.773   0.024   4.702
 1424TIP3    H2 4279   1.781   0.057   4.849
 1425TIP3   OH2 4280   1.190   4.487   0.835
 1425TIP3    H1 4281   1.177   4.392   0.842
 1425TIP3    H2 4282   1.271   4.496   0.785
 1426TIP3   OH2 4283   2.411   1.364   3.168
 1426TIP3    H1 4284   2.359   1.316   3.234
 1426TIP3    H2 4285   2.474   1.300   3.137
 1427TIP3   OH2 4286   1.323   0.612   4.325
 1427TIP3    H1 4287   1.281   0.612   4.239
 1427TIP3    H2 4288   1.352   0.703   4.338
 1428TIP3   OH2 4289   5.711   3.782   2.271
 1428TIP3    H1 4290   5.615   3.784   2.276
 1428TIP3    H2 4291   5.730   3.786   2.177
 1429TIP3   OH2 4292   0.788   1.242   2.427
 1429TIP3    H1 4293   0.809   1.168   2.483
 1429TIP3    H2 4294   0.767   1.313   2.488
 1430TIP3   OH2 4295   2.107   4.637   1.035
 1430TIP3    H1 4296   2.016   4.640   1.005
 1430TIP3    H2 4297   2.107   4.571   1.105
 1431TIP3   OH2 4298   4.637   5.591   1.719
 1431TIP3    H1 4299   4.597   5.637   1.645
 1431TIP3    H2 4300   4.566   5.583   1.783
 1432TIP3   OH2 4301   6.273   3.900   4.538
 1432TIP3    H1 4302   6.189   3.945   4.549
 1432TIP3    H2 4303   6.336   3.957   4.582
 1433TIP3   OH2 4304   0.653   2.481   4.067
 1433TIP3    H1 4305   0.584   2.532   4.108
 1433TIP3    H2 4306   0.658   2.401   4.120
 1434TIP3   OH2 4307   5.031   3.055   1.214
 1434TIP3    H1 4308   5.033   3.091   1.303
 1434TIP3    H2 4309   4.958   2.993   1.215
 1435TIP3   OH2 4310   5.379   2.860   0.137
 1435TIP3    H1 4311   5.424   2.940   0.162
 1435TIP3    H2 4312   5.329   2.883   0.059
 1436TIP3   OH2 4313   0.145   3.497   2.301
 1436TIP3    H1 4314   0.131   3.437   2.227
 1436TIP3    H2 4315   0.185   3.575   2.261
 1437TIP3   OH2 4316   1.699   1.041   3.095
 1437TIP3    H1 4317   1.781   0.999   3.122
 1437TIP3    H2 4318   1.643   0.968   3.069
 1438TIP3   OH2 4319   3.388   2.104   4.021
 1438TIP3    H1 4320   3.392   2.008   4.016
 1438TIP3    H2 4321   3.305   2.122   4.065
 1439TIP3   OH2 4322   5.960   1.706   4.721
 1439TIP3    H1 4323   5.899   1.668   4.657
 1439TIP3    H2 4324   6.009   1.631   4.754
 1440TIP3   OH2 4325   0.770   4.385   0.587
 1440TIP3    H1 4326   0.736   4.390   0.498
 1440TIP3    H2 4327   0.864   4.393   0.578
 1441TIP3   OH2 4328   0.465   1.032   2.386
 1441TIP3    H1 4329   0.454   1.079   2.468
 1441TIP3    H2 4330   0.412   1.081   2.323
 1442TIP3   OH2 4331   4.813   2.050   2.669
 1442TIP3    H1 4332   4.895   2.004   2.658
 1442TIP3    H2 4333   4.765   2.035   2.588
 1443TIP3   OH2 4334   3.738   5.864   1.600
 1443TIP3    H1 4335   3.758   5.884   1.691
 1443TIP3    H2 4336   3.799   5.793   1.578
 1444TIP3   OH2 4337   3.107   3.611   1.488
 1444TIP3    H1 4338   3.048   3.663   1.434
 1444TIP3    H2 4339   3.082   3.631   1.578
 1445TIP3   OH2 4340   3.243   2.453   2.087
 1445TIP3    H1 4341   3.175   2.519   2.072
 1445TIP3    H2 4342   3.195   2.370   2.095
 1446TIP3   OH2 4343   5.786   2.230   1.576
 1446TIP3    H1 4344   5.694   2.234   1.551
 1446TIP3    H2 4345   5.787   2.186   1.661
 1447TIP3   OH2 4346   0.395   1.415   0.926
 1447TIP3    H1 4347   0.404   1.478   0.998
 1447TIP3    H2 4348   0.323   1.359   0.952
 1448TIP3   OH2 4349   3.316   0.320   4.632
 1448TIP3    H1 4350   3.351   0.408   4.638
 1448TIP3    H2 4351   3.382   0.264   4.674
 1449TIP3   OH2 4352   5.213   0.135   3.664
 1449TIP3    H1 4353   5.180   0.167   3.748
 1449TIP3    H2 4354   5.220   0.214   3.610
 1450TIP3   OH2 4355   1.980   0.988   0.829
 1450TIP3    H1 4356   2.047   1.008   0.894
 1450TIP3    H2 4357   2.011   1.031   0.749
 1451TIP3   OH2 4358   5.011   0.802   0.240
 1451TIP3    H1 4359   5.024   0.888   0.280
 1451TIP3    H2 4360   4.954   0.819   0.165
 1452TIP3   OH2 4361   2.366   1.437   2.515
 1452TIP3    H1 4362   2.347   1.344   2.525
 1452TIP3    H2 4363   2.281   1.478   2.498
 1453TIP3   OH2 4364   4.628   5.634   0.845
 1453TIP3    H1 4365   4.575   5.628   0.765
 1453TIP3    H2 4366   4.642   5.728   0.859
 1454TIP3   OH2 4367   0.682   1.074   3.879
 1454TIP3    H1 4368   0.650   1.160   3.853
 1454TIP3    H2 4369   0.606   1.017   3.870
 1455TIP3   OH2 4370   5.806   0.832   1.027
 1455TIP3    H1 4371   5.830   0.913   0.982
 1455TIP3    H2 4372   5.717   0.813   0.997
 1456TIP3   OH2 4373   0.245   5.326   1.340
 1456TIP3    H1 4374   0.302   5.330   1.417
 1456TIP3    H2 4375   0.234   5.232   1.324
 1457TIP3   OH2 4376   1.874   1.459   2.210
 1457TIP3    H1 4377   1.883   1.373   2.250
 1457TIP3    H2 4378   1.865   1.441   2.116
 1458TIP3   OH2 4379   1.825   5.868   1.164
 1458TIP3    H1 4380   1.756   5.825   1.115
 1458TIP3    H2 4381   1.840   5.810   1.240
 1459TIP3   OH2 4382   2.778   0.876   2.320
 1459TIP3    H1 4383   2.804   0.795   2.364
 1459TIP3    H2 4384   2.704   0.851   2.265
 1460TIP3   OH2 4385   2.958   1.125   3.716
 1460TIP3    H1 4386   3.008   1.051   3.683
 1460TIP3    H2 4387   2.994   1.201   3.670
 1461TIP3   OH2 4388   6.037   2.173   0.208
 1461TIP3    H1 4389   6.035   2.237   0.137
 1461TIP3    H2 4390   5.957   2.190   0.257
 1462TIP3   OH2 4391   3.966   1.469   3.026
 1462TIP3    H1 4392   4.036   1.424   2.978
 1462TIP3    H2 4393   4.009   1.503   3.105
 1463TIP3   OH2 4394   3.131   3.643   4.244
 1463TIP3    H1 4395   3.151   3.597   4.325
 1463TIP3    H2 4396   3.131   3.575   4.177
 1464TIP3   OH2 4397   6.247   4.039   4.259
 1464TIP3    H1 4398   6.176   4.079   4.207
 1464TIP3    H2 4399   6.238   3.945   4.242
 1465TIP3   OH2 4400   1.584   5.106   3.450
 1465TIP3    H1 4401   1.540   5.102   3.534
 1465TIP3    H2 4402   1.563   5.023   3.407
 1466TIP3   OH2 4403   4.915   5.497   2.699
 1466TIP3    H1 4404   4.967   5.536   2.629
 1466TIP3    H2 4405   4.894   5.569   2.758
 1467TIP3   OH2 4406   3.124   1.099   4.650
 1467TIP3    H1 4407   3.080   1.021   4.683
 1467TIP3    H2 4408   3.090   1.109   4.560
 1468TIP3   OH2 4409   0.105   5.069   4.379
 1468TIP3    H1 4410   0.032   5.041   4.435
 1468TIP3    H2 4411   0.169   4.999   4.387
 1469TIP3   OH2 4412   4.644   4.110   1.226
 1469TIP3    H1 4413   4.720   4.145   1.272
 1469TIP3    H2 4414   4.663   4.125   1.133
 1470TIP3   OH2 4415   4.972   3.316   2.854
 1470TIP3    H1 4416   4.916   3.345   2.926
 1470TIP3    H2 4417   5.061   3.334   2.884
 1471TIP3   OH2 4418   4.625   0.372   4.656
 1471TIP3    H1 4419   4.534   0.342   4.651
 1471TIP3    H2 4420   4.677   0.294   4.636
 1472TIP3   OH2 4421   1.969   0.937   1.595
 1472TIP3    H1 4422   2.027   1.003   1.633
 1472TIP3    H2 4423   1.926   0.981   1.523
 1473TIP3   OH2 4424   3.956   0.056   0.184
 1473TIP3    H1 4425   3.894   0.108   0.235
 1473TIP3    H2 4426   4.038   0.105   0.188
 1474TIP3   OH2 4427   3.952   3.245   4.355
 1474TIP3    H1 4428   3.946   3.265   4.261
 1474TIP3    H2 4429   3.862   3.221   4.380
 1475TIP3   OH2 4430   2.524   5.699   4.753
 1475TIP3    H1 4431   2.525   5.613   4.795
 1475TIP3    H2 4432   2.503   5.760   4.824
 1476TIP3   OH2 4433   1.408   5.887   3.587
 1476TIP3    H1 4434   1.407   5.926   3.499
 1476TIP3    H2 4435   1.493   5.845   3.594
 1477TIP3   OH2 4436   3.521   2.981   1.735
 1477TIP3    H1 4437   3.448   3.036   1.709
 1477TIP3    H2 4438   3.599   3.028   1.704
 1478TIP3   OH2 4439   4.606   0.659   4.619
 1478TIP3    H1 4440   4.615   0.564   4.609
 1478TIP3    H2 4441   4.694   0.694   4.608
 1479TIP3   OH2 4442   6.235   1.413   0.921
 1479TIP3    H1 4443   6.239   1.320   0.898
 1479TIP3    H2 4444   6.146   1.439   0.897
 1480TIP3   OH2 4445   5.248   4.684   3.473
 1480TIP3    H1 4446   5.215   4.754   3.416
 1480TIP3    H2 4447   5.322   4.725   3.518
 1481TIP3   OH2 4448   0.050   2.422   4.599
 1481TIP3    H1 4449   0.028   2.378   4.517
 1481TIP3    H2 4450   0.001   2.374   4.666
 1482TIP3   OH2 4451   2.022   0.324   1.347
 1482TIP3    H1 4452   2.049   0.305   1.258
 1482TIP3    H2 4453   1.927   0.336   1.342
 1483TIP3   OH2 4454   4.698   3.014   0.425
 1483TIP3    H1 4455   4.657   2.998   0.510
 1483TIP3    H2 4456   4.775   3.066   0.444
 1484TIP3   OH2 4457   3.240   0.831   1.623
 1484TIP3    H1 4458   3.216   0.739   1.632
 1484TIP3    H2 4459   3.172   0.868   1.566
 1485TIP3   OH2 4460   2.303   1.994   2.751
 1485TIP3    H1 4461   2.309   1.899   2.743
 1485TIP3    H2 4462   2.320   2.027   2.663
 1486TIP3   OH2 4463   3.051   1.378   4.409
 1486TIP3    H1 4464   3.005   1.461   4.422
 1486TIP3    H2 4465   3.143   1.399   4.426
 1487TIP3   OH2 4466   3.579   1.663   3.384
 1487TIP3    H1 4467   3.653   1.723   3.374
 1487TIP3    H2 4468   3.599   1.614   3.465
 1488TIP3   OH2 4469   2.021   4.829   2.405
 1488TIP3    H1 4470   2.025   4.792   2.494
 1488TIP3    H2 4471   1.929   4.849   2.392
 1489TIP3   OH2 4472   4.506   1.060   4.591
 1489TIP3    H1 4473   4.461   1.138   4.559
 1489TIP3    H2 4474   4.599   1.085   4.594
 1490TIP3   OH2 4475   0.865   1.154   2.901
 1490TIP3    H1 4476   0.809   1.187   2.971
 1490TIP3    H2 4477   0.892   1.067   2.931
 1491TIP3   OH2 4478   5.138   0.157   1.115
 1491TIP3    H1 4479   5.100   0.069   1.117
 1491TIP3    H2 4480   5.142   0.183   1.207
 1492TIP3   OH2 4481   3.559   4.909   4.999
 1492TIP3    H1 4482   3.515   4.971   5.057
 1492TIP3    H2 4483   3.587   4.962   4.924
 1493TIP3   OH2 4484   3.020   1.367   2.620
 1493TIP3    H1 4485   3.037   1.418   2.699
 1493TIP3    H2 4486   3.028   1.430   2.549
 1494TIP3   OH2 4487   5.959   1.343   0.638
 1494TIP3    H1 4488   5.872   1.332   0.600
 1494TIP3    H2 4489   5.999   1.256   0.633
 1495TIP3   OH2 4490   3.184   0.886   1.013
 1495TIP3    H1 4491   3.269   0.889   1.056
 1495TIP3    H2 4492   3.137   0.816   1.057
 1496TIP3   OH2 4493   5.325   2.085   1.286
 1496TIP3    H1 4494   5.335   2.020   1.356
 1496TIP3    H2 4495   5.244   2.060   1.242
 1497TIP3   OH2 4496   1.544   2.476   0.198
 1497TIP3    H1 4497   1.457   2.454   0.165
 1497TIP3    H2 4498   1.540   2.571   0.215
 1498TIP3   OH2 4499   1.086   1.203   5.187
 1498TIP3    H1 4500   1.154   1.271   5.186
 1498TIP3    H2 4501   1.092   1.162   5.101
 1499TIP3   OH2 4502   2.565   2.426   2.489
 1499TIP3    H1 4503   2.593   2.517   2.496
 1499TIP3    H2 4504   2.600   2.383   2.567
 1500TIP3   OH2 4505   0.375   3.911   4.050
 1500TIP3    H1 4506   0.311   3.947   4.112
 1500TIP3    H2 4507   0.458   3.912   4.098
 1501TIP3   OH2 4508   3.915   1.903   1.220
 1501TIP3    H1 4509   3.967   1.901   1.300
 1501TIP3    H2 4510   3.926   1.991   1.186
 1502TIP3   OH2 4511   0.644   4.623   2.986
 1502TIP3    H1 4512   0.625   4.716   2.989
 1502TIP3    H2 4513   0.722   4.612   3.041
 1503TIP3   OH2 4514   1.808   2.474   0.768
 1503TIP3    H1 4515   1.733   2.417   0.788
 1503TIP3    H2 4516   1.800   2.492   0.675
 1504TIP3   OH2 4517   1.377   0.741   2.689
 1504TIP3    H1 4518   1.347   0.827   2.658
 1504TIP3    H2 4519   1.425   0.704   2.615
 1505TIP3   OH2 4520   5.317   0.870   2.451
 1505TIP3    H1 4521   5.222   0.884   2.461
 1505TIP3    H2 4522   5.356   0.952   2.479
 1506TIP3   OH2 4523   4.682   0.726   2.492
 1506TIP3    H1 4524   4.637   0.644   2.470
 1506TIP3    H2 4525   4.637   0.757   2.571
 1507TIP3   OH2 4526   2.616   1.716   5.110
 1507TIP3    H1 4527   2.631   1.657   5.184
 1507TIP3    H2 4528   2.591   1.659   5.038
 1508TIP3   OH2 4529   6.225   1.345   1.180
 1508TIP3    H1 4530   6.248   1.356   1.088
 1508TIP3    H2 4531   6.309   1.330   1.224
 1509TIP3   OH2 4532   4.242   3.353   0.135
 1509TIP3    H1 4533   4.176   3.371   0.202
 1509TIP3    H2 4534   4.195   3.306   0.066
 1510TIP3   OH2 4535   2.907   4.798   3.542
 1510TIP3    H1 4536   2.843   4.867   3.525
 1510TIP3    H2 4537   2.965   4.800   3.466
 1511TIP3   OH2 4538   3.859   2.626   4.745
 1511TIP3    H1 4539   3.917   2.655   4.674
 1511TIP3    H2 4540   3.918   2.589   4.810
 1512TIP3   OH2 4541   0.317   4.980   3.351
 1512TIP3    H1 4542   0.229   4.961   3.321
 1512TIP3    H2 4543   0.351   4.896   3.382
 1513TIP3   OH2 4544   0.214   0.457   1.267
 1513TIP3    H1 4545   0.246   0.482   1.353
 1513TIP3    H2 4546   0.181   0.367   1.278
 1514TIP3   OH2 4547   4.712   3.928   0.624
 1514TIP3    H1 4548   4.759   3.863   0.677
 1514TIP3    H2 4549   4.638   3.880   0.588
 1515TIP3   OH2 4550   0.444   3.270   0.340
 1515TIP3    H1 4551   0.422   3.316   0.259
 1515TIP3    H2 4552   0.360   3.239   0.374
 1516TIP3   OH2 4553   2.547   2.173   0.126
 1516TIP3    H1 4554   2.621   2.233   0.138
 1516TIP3    H2 4555   2.584   2.099   0.077
 1517TIP3   OH2 4556   4.436   5.719   4.951
 1517TIP3    H1 4557   4.489   5.756   4.880
 1517TIP3    H2 4558   4.497   5.708   5.024
 1518TIP3   OH2 4559   1.950   1.107   2.643
 1518TIP3    H1 4560   1.975   1.022   2.680
 1518TIP3    H2 4561   1.915   1.156   2.717
 1519TIP3   OH2 4562   2.885   1.061   3.975
 1519TIP3    H1 4563   2.948   1.017   4.031
 1519TIP3    H2 4564   2.938   1.103   3.907
 1520TIP3   OH2 4565   0.131   4.165   0.873
 1520TIP3    H1 4566   0.064   4.208   0.820
 1520TIP3    H2 4567   0.082   4.120   0.941
 1521TIP3   OH2 4568   1.664   3.375   5.179
 1521TIP3    H1 4569   1.739   3.318   5.191
 1521TIP3    H2 4570   1.588   3.316   5.181
 1522TIP3   OH2 4571   5.549   0.355   0.926
 1522TIP3    H1 4572   5.624   0.411   0.943
 1522TIP3    H2 4573   5.481   0.385   0.986
 1523TIP3   OH2 4574   6.243   1.585   3.703
 1523TIP3    H1 4575   6.228   1.627   3.787
 1523TIP3    H2 4576   6.222   1.493   3.718
 1524TIP3   OH2 4577   0.693   2.300   0.876
 1524TIP3    H1 4578   0.783   2.303   0.907
 1524TIP3    H2 4579   0.701   2.302   0.780
 1525TIP3   OH2 4580   4.903   2.949   2.485
 1525TIP3    H1 4581   4.883   3.009   2.413
 1525TIP3    H2 4582   4.989   2.976   2.516
 1526TIP3   OH2 4583   1.864   3.099   2.296
 1526TIP3    H1 4584   1.807   3.170   2.264
 1526TIP3    H2 4585   1.812   3.020   2.285
 1527TIP3   OH2 4586   5.559   4.618   2.052
 1527TIP3    H1 4587   5.650   4.635   2.077
 1527TIP3    H2 4588   5.560   4.528   2.019
 1528TIP3   OH2 4589   5.133   4.595   4.966
 1528TIP3    H1 4590   5.065   4.659   4.987
 1528TIP3    H2 4591   5.212   4.629   5.008
 1529TIP3   OH2 4592   5.167   1.250   2.075
 1529TIP3    H1 4593   5.088   1.202   2.051
 1529TIP3    H2 4594   5.136   1.320   2.133
 1530TIP3   OH2 4595   4.029   5.678   0.440
 1530TIP3    H1 4596   3.960   5.735   0.405
 1530TIP3    H2 4597   4.055   5.720   0.522
 1531TIP3   OH2 4598   4.577   1.505   3.702
 1531TIP3    H1 4599   4.509   1.440   3.687
 1531TIP3    H2 4600   4.650   1.477   3.647
 1532TIP3   OH2 4601   5.718   0.479   1.761
 1532TIP3    H1 4602   5.721   0.567   1.725
 1532TIP3    H2 4603   5.744   0.489   1.852
 1533TIP3   OH2 4604   4.525   4.188   3.323
 1533TIP3    H1 4605   4.588   4.246   3.366
 1533TIP3    H2 4606   4.575   4.145   3.254
 1534TIP3   OH2 4607   6.211   5.244   1.902
 1534TIP3    H1 4608   6.131   5.192   1.894
 1534TIP3    H2 4609   6.222   5.283   1.815
 1535TIP3   OH2 4610   5.002   3.420   3.182
 1535TIP3    H1 4611   5.068   3.352   3.167
 1535TIP3    H2 4612   4.919   3.372   3.188
 1536TIP3   OH2 4613   4.961   5.967   0.251
 1536TIP3    H1 4614   4.993   6.048   0.291
 1536TIP3    H2 4615   4.937   5.993   0.162
 1537TIP3   OH2 4616   5.806   5.860   0.789
 1537TIP3    H1 4617   5.776   5.780   0.747
 1537TIP3    H2 4618   5.787   5.930   0.726
 1538TIP3   OH2 4619   2.230   4.371   4.688
 1538TIP3    H1 4620   2.216   4.389   4.781
 1538TIP3    H2 4621   2.303   4.309   4.686
 1539TIP3   OH2 4622   3.549   1.229   2.002
 1539TIP3    H1 4623   3.482   1.236   1.933
 1539TIP3    H2 4624   3.573   1.319   2.022
 1540TIP3   OH2 4625   0.349   2.029   0.283
 1540TIP3    H1 4626   0.381   2.049   0.195
 1540TIP3    H2 4627   0.422   2.053   0.340
 1541TIP3   OH2 4628   4.211   4.769   4.993
 1541TIP3    H1 4629   4.265   4.711   5.046
 1541TIP3    H2 4630   4.182   4.837   5.054
 1542TIP3   OH2 4631   0.151   0.621   0.876
 1542TIP3    H1 4632   0.187   0.666   0.799
 1542TIP3    H2 4633   0.124   0.535   0.842
 1543TIP3   OH2 4634   0.712   4.284   1.037
 1543TIP3    H1 4635   0.757   4.368   1.029
 1543TIP3    H2 4636   0.713   4.265   1.131
 1544TIP3   OH2 4637   2.799   0.940   1.042
 1544TIP3    H1 4638   2.750   0.926   1.123
 1544TIP3    H2 4639   2.732   0.967   0.978
 1545TIP3   OH2 4640   3.172   0.697   0.340
 1545TIP3    H1 4641   3.128   0.770   0.384
 1545TIP3    H2 4642   3.112   0.671   0.270
 1546TIP3   OH2 4643   4.154   5.174   0.304
 1546TIP3    H1 4644   4.137   5.236   0.374
 1546TIP3    H2 4645   4.069   5.159   0.264
 1547TIP3   OH2 4646   1.932   1.504   4.046
 1547TIP3    H1 4647   1.921   1.540   3.958
 1547TIP3    H2 4648   1.899   1.573   4.104
 1548TIP3   OH2 4649   2.046   3.485   1.450
 1548TIP3    H1 4650   1.977   3.449   1.506
 1548TIP3    H2 4651   1.999   3.522   1.376
 1549TIP3   OH2 4652  -0.029   0.665   3.324
 1549TIP3    H1 4653  -0.028   0.668   3.420
 1549TIP3    H2 4654   0.046   0.610   3.301
 1550TIP3   OH2 4655   4.551   0.903   4.378
 1550TIP3    H1 4656   4.508   0.954   4.309
 1550TIP3    H2 4657   4.552   0.962   4.454
 1551TIP3   OH2 4658   4.899   0.706   3.030
 1551TIP3    H1 4659   4.874   0.773   2.966
 1551TIP3    H2 4660   4.993   0.694   3.016
 1552TIP3   OH2 4661   4.795   0.058   1.627
 1552TIP3    H1 4662   4.863   0.030   1.688
 1552TIP3    H2 4663   4.716   0.067   1.680
 1553TIP3   OH2 4664   5.839   4.874   3.140
 1553TIP3    H1 4665   5.801   4.898   3.055
 1553TIP3    H2 4666   5.891   4.795   3.121
 1554TIP3   OH2 4667   1.097   0.589   4.469
 1554TIP3    H1 4668   1.179   0.556   4.433
 1554TIP3    H2 4669   1.075   0.665   4.415
 1555TIP3   OH2 4670   4.607   3.157   1.646
 1555TIP3    H1 4671   4.661   3.147   1.724
 1555TIP3    H2 4672   4.670   3.171   1.575
 1556TIP3   OH2 4673   0.053   1.030   3.152
 1556TIP3    H1 4674   0.066   1.017   3.246
 1556TIP3    H2 4675   0.015   0.948   3.121
 1557TIP3   OH2 4676   5.492   2.135   1.579
 1557TIP3    H1 4677   5.537   2.053   1.601
 1557TIP3    H2 4678   5.452   2.163   1.661
 1558TIP3   OH2 4679   1.149   3.694   0.156
 1558TIP3    H1 4680   1.143   3.767   0.217
 1558TIP3    H2 4681   1.071   3.641   0.175
 1559TIP3   OH2 4682   6.210   5.877   0.887
 1559TIP3    H1 4683   6.267   5.892   0.962
 1559TIP3    H2 4684   6.131   5.837   0.925
 1560TIP3   OH2 4685   3.817   0.130   0.971
 1560TIP3    H1 4686   3.732   0.088   0.983
 1560TIP3    H2 4687   3.796   0.223   0.959
 1561TIP3   OH2 4688   6.214   3.981   1.795
 1561TIP3    H1 4689   6.175   4.045   1.735
 1561TIP3    H2 4690   6.211   4.023   1.881
 1562TIP3   OH2 4691   1.122   4.556   3.718
 1562TIP3    H1 4692   1.123   4.599   3.804
 1562TIP3    H2 4693   1.187   4.486   3.725
 1563TIP3   OH2 4694   2.970   1.212   0.397
 1563TIP3    H1 4695   2.979   1.282   0.462
 1563TIP3    H2 4696   2.889   1.167   0.420
 1564TIP3   OH2 4697   3.607   1.421   3.565
 1564TIP3    H1 4698   3.593   1.456   3.653
 1564TIP3    H2 4699   3.701   1.400   3.562
 1565TIP3   OH2 4700   4.730   2.094   1.235
 1565TIP3    H1 4701   4.682   2.110   1.153
 1565TIP3    H2 4702   4.807   2.151   1.228
 1566TIP3   OH2 4703   2.665   4.098   3.596
 1566TIP3    H1 4704   2.640   4.056   3.678
 1566TIP3    H2 4705   2.671   4.027   3.533
 1567TIP3   OH2 4706   4.030   1.579   3.590
 1567TIP3    H1 4707   4.102   1.601   3.648
 1567TIP3    H2 4708   3.975   1.657   3.588
 1568TIP3   OH2 4709   3.900   2.986   4.642
 1568TIP3    H1 4710   3.965   2.950   4.581
 1568TIP3    H2 4711   3.821   2.998   4.589
 1569TIP3   OH2 4712   1.874   5.715   5.049
 1569TIP3    H1 4713   1.939   5.646   5.054
 1569TIP3    H2 4714   1.792   5.673   5.078
 1570TIP3   OH2 4715   2.049   5.510   5.072
 1570TIP3    H1 4716   2.069   5.421   5.100
 1570TIP3    H2 4717   2.126   5.538   5.023
 1571TIP3   OH2 4718   2.611   1.546   2.133
 1571TIP3    H1 4719   2.683   1.602   2.105
 1571TIP3    H2 4720   2.651   1.480   2.189
 1572TIP3   OH2 4721   2.858   3.894   4.731
 1572TIP3    H1 4722   2.895   3.940   4.656
 1572TIP3    H2 4723   2.774   3.861   4.699
 1573TIP3   OH2 4724   5.666   4.412   1.465
 1573TIP3    H1 4725   5.721   4.452   1.532
 1573TIP3    H2 4726   5.727   4.380   1.400
 1574TIP3   OH2 4727   3.460   0.587   4.720
 1574TIP3    H1 4728   3.367   0.605   4.732
 1574TIP3    H2 4729   3.502   0.673   4.729
 1575TIP3   OH2 4730   4.979   3.681   4.343
 1575TIP3    H1 4731   4.948   3.603   4.389
 1575TIP3    H2 4732   5.058   3.706   4.390
 1576TIP3   OH2 4733   2.457   4.886   3.300
 1576TIP3    H1 4734   2.530   4.909   3.243
 1576TIP3    H2 4735   2.410   4.968   3.314
 1577TIP3   OH2 4736   5.150   3.749   3.162
 1577TIP3    H1 4737   5.093   3.794   3.225
 1577TIP3    H2 4738   5.223   3.717   3.215
 1578TIP3   OH2 4739   4.852   1.268   2.411
 1578TIP3    H1 4740   4.797   1.297   2.484
 1578TIP3    H2 4741   4.804   1.297   2.333
 1579TIP3   OH2 4742   5.948   2.603   1.184
 1579TIP3    H1 4743   6.004   2.525   1.187
 1579TIP3    H2 4744   5.939   2.629   1.276
 1580TIP3   OH2 4745   2.274   5.650   2.537
 1580TIP3    H1 4746   2.214   5.714   2.500
 1580TIP3    H2 4747   2.226   5.567   2.533
 1581TIP3   OH2 4748   2.345   3.733   4.743
 1581TIP3    H1 4749   2.396   3.652   4.739
 1581TIP3    H2 4750   2.255   3.706   4.723
 1582TIP3   OH2 4751   2.858   4.865   1.057
 1582TIP3    H1 4752   2.781   4.818   1.025
 1582TIP3    H2 4753   2.865   4.839   1.149
 1583TIP3   OH2 4754   3.005   5.440   1.824
 1583TIP3    H1 4755   3.094   5.464   1.799
 1583TIP3    H2 4756   2.989   5.492   1.904
 1584TIP3   OH2 4757   3.868   2.277   3.914
 1584TIP3    H1 4758   3.859   2.321   3.830
 1584TIP3    H2 4759   3.860   2.347   3.979
 1585TIP3   OH2 4760   4.485   1.907   0.158
 1585TIP3    H1 4761   4.464   1.993   0.124
 1585TIP3    H2 4762   4.573   1.916   0.193
 1586TIP3   OH2 4763   5.107   3.632   1.435
 1586TIP3    H1 4764   5.177   3.687   1.401
 1586TIP3    H2 4765   5.059   3.602   1.357
 1587TIP3   OH2 4766   4.918   0.834   1.057
 1587TIP3    H1 4767   4.942   0.743   1.075
 1587TIP3    H2 4768   4.823   0.836   1.069
 1588TIP3   OH2 4769   4.597   1.776   2.107
 1588TIP3    H1 4770   4.582   1.695   2.155
 1588TIP3    H2 4771   4.520   1.830   2.126
 1589TIP3   OH2 4772   3.655   2.659   1.468
 1589TIP3    H1 4773   3.711   2.735   1.485
 1589TIP3    H2 4774   3.634   2.626   1.556
 1590TIP3   OH2 4775   5.175   5.799   0.313
 1590TIP3    H1 4776   5.111   5.859   0.274
 1590TIP3    H2 4777   5.183   5.829   0.404
 1591TIP3   OH2 4778   0.085   1.587   0.859
 1591TIP3    H1 4779   0.116   1.626   0.941
 1591TIP3    H2 4780  -0.003   1.555   0.880
 1592TIP3   OH2 4781   3.687   1.149   4.024
 1592TIP3    H1 4782   3.667   1.163   4.116
 1592TIP3    H2 4783   3.667   1.056   4.010
 1593TIP3   OH2 4784   0.747   3.386   1.757
 1593TIP3    H1 4785   0.765   3.408   1.848
 1593TIP3    H2 4786   0.652   3.375   1.753
 1594TIP3   OH2 4787   2.022   3.898   3.193
 1594TIP3    H1 4788   2.040   3.960   3.263
 1594TIP3    H2 4789   2.107   3.862   3.170
 1595TIP3   OH2 4790   1.384   1.029   5.109
 1595TIP3    H1 4791   1.437   1.072   5.177
 1595TIP3    H2 4792   1.445   0.973   5.062
 1596TIP3   OH2 4793   6.327   3.908   2.713
 1596TIP3    H1 4794   6.384   3.982   2.690
 1596TIP3    H2 4795   6.263   3.905   2.641
 1597TIP3   OH2 4796   2.655   5.228   3.249
 1597TIP3    H1 4797   2.606   5.310   3.249
 1597TIP3    H2 4798   2.696   5.225   3.336
 1598TIP3   OH2 4799   4.773   5.691   1.922
 1598TIP3    H1 4800   4.740   5.693   1.832
 1598TIP3    H2 4801   4.793   5.599   1.938
 1599TIP3   OH2 4802   4.370   0.508   3.703
 1599TIP3    H1 4803   4.342   0.526   3.793
 1599TIP3    H2 4804   4.338   0.582   3.652
 1600TIP3   OH2 4805   1.252   4.048   1.677
 1600TIP3    H1 4806   1.175   4.105   1.684
 1600TIP3    H2 4807   1.217   3.960   1.670
 1601TIP3   OH2 4808   5.547   3.069   2.449
 1601TIP3    H1 4809   5.468   3.051   2.399
 1601TIP3    H2 4810   5.518   3.129   2.519
 1602TIP3   OH2 4811   0.326   4.812   1.138
 1602TIP3    H1 4812   0.241   4.815   1.182
 1602TIP3    H2 4813   0.371   4.736   1.177
 1603TIP3   OH2 4814   5.171   1.682   1.374
 1603TIP3    H1 4815   5.100   1.699   1.313
 1603TIP3    H2 4816   5.167   1.588   1.390
 1604TIP3   OH2 4817   6.325   0.954   1.198
 1604TIP3    H1 4818   6.415   0.921   1.189
 1604TIP3    H2 4819   6.303   0.940   1.290
 1605TIP3   OH2 4820   5.840   0.718   1.882
 1605TIP3    H1 4821   5.769   0.744   1.941
 1605TIP3    H2 4822   5.888   0.651   1.931
 1606TIP3   OH2 4823   2.973   0.035   4.886
 1606TIP3    H1 4824   2.948  -0.029   4.819
 1606TIP3    H2 4825   2.957   0.120   4.846
 1607TIP3   OH2 4826   0.491   5.406   0.930
 1607TIP3    H1 4827   0.399   5.379   0.930
 1607TIP3    H2 4828   0.488   5.501   0.917
 1608TIP3   OH2 4829   6.226   5.830   2.392
 1608TIP3    H1 4830   6.298   5.841   2.329
 1608TIP3    H2 4831   6.192   5.742   2.373
 1609TIP3   OH2 4832   5.979   1.130   3.266
 1609TIP3    H1 4833   5.938   1.146   3.181
 1609TIP3    H2 4834   6.072   1.143   3.251
 1610TIP3   OH2 4835   0.461   4.406   4.312
 1610TIP3    H1 4836   0.477   4.318   4.347
 1610TIP3    H2 4837   0.537   4.424   4.257
 1611TIP3   OH2 4838   1.022   1.472   4.353
 1611TIP3    H1 4839   0.944   1.458   4.299
 1611TIP3    H2 4840   1.010   1.559   4.390
 1612TIP3   OH2 4841   4.653   2.556   0.183
 1612TIP3    H1 4842   4.659   2.593   0.095
 1612TIP3    H2 4843   4.744   2.535   0.206
 1613TIP3   OH2 4844   0.377   1.400   3.374
 1613TIP3    H1 4845   0.429   1.351   3.310
 1613TIP3    H2 4846   0.440   1.460   3.414
 1614TIP3   OH2 4847   4.294   0.440   2.465
 1614TIP3    H1 4848   4.207   0.400   2.464
 1614TIP3    H2 4849   4.313   0.454   2.558
 1615TIP3   OH2 4850   0.514   1.499   4.786
 1615TIP3    H1 4851   0.524   1.418   4.836
 1615TIP3    H2 4852   0.494   1.471   4.697
 1616TIP3   OH2 4853   3.897   1.707   1.666
 1616TIP3    H1 4854   3.884   1.788   1.716
 1616TIP3    H2 4855   3.954   1.654   1.722
 1617TIP3   OH2 4856   2.440   2.615   3.927
 1617TIP3    H1 4857   2.345   2.617   3.911
 1617TIP3    H2 4858   2.473   2.697   3.891
 1618TIP3   OH2 4859   1.143   3.345   2.729
 1618TIP3    H1 4860   1.192   3.264   2.714
 1618TIP3    H2 4861   1.145   3.391   2.645
 1619TIP3   OH2 4862   2.821   0.382   2.466
 1619TIP3    H1 4863   2.860   0.295   2.459
 1619TIP3    H2 4864   2.765   0.377   2.543
 1620TIP3   OH2 4865   0.267   4.370   0.769
 1620TIP3    H1 4866   0.227   4.308   0.829
 1620TIP3    H2 4867   0.335   4.320   0.723
 1621TIP3   OH2 4868   6.030   5.598   3.122
 1621TIP3    H1 4869   6.037   5.622   3.214
 1621TIP3    H2 4870   6.114   5.622   3.084
 1622TIP3   OH2 4871   2.937   3.381   4.027
 1622TIP3    H1 4872   3.002   3.445   3.998
 1622TIP3    H2 4873   2.919   3.329   3.949
 1623TIP3   OH2 4874   5.345   3.546   2.121
 1623TIP3    H1 4875   5.344   3.612   2.190
 1623TIP3    H2 4876   5.252   3.533   2.099
 1624TIP3   OH2 4877   5.035   2.474   4.427
 1624TIP3    H1 4878   4.998   2.455   4.513
 1624TIP3    H2 4879   5.025   2.569   4.418
 1625TIP3   OH2 4880   4.265   5.772   3.340
 1625TIP3    H1 4881   4.185   5.776   3.394
 1625TIP3    H2 4882   4.239   5.812   3.257
 1626TIP3   OH2 4883   1.748   4.865   2.250
 1626TIP3    H1 4884   1.684   4.808   2.206
 1626TIP3    H2 4885   1.696   4.922   2.306
 1627TIP3   OH2 4886   1.985   5.251   0.279
 1627TIP3    H1 4887   1.975   5.224   0.371
 1627TIP3    H2 4888   1.971   5.346   0.280
 1628TIP3   OH2 4889   2.841   4.131   1.945
 1628TIP3    H1 4890   2.750   4.108   1.926
 1628TIP3    H2 4891   2.868   4.067   2.011
 1629TIP3   OH2 4892   5.487   0.281   2.172
 1629TIP3    H1 4893   5.539   0.246   2.099
 1629TIP3    H2 4894   5.551   0.320   2.231
 1630TIP3   OH2 4895   4.663   1.292  -0.015
 1630TIP3    H1 4896   4.646   1.378  -0.055
 1630TIP3    H2 4897   4.635   1.302   0.076
 1631TIP3   OH2 4898   0.083   1.990   2.693
 1631TIP3    H1 4899   0.055   1.963   2.780
 1631TIP3    H2 4900   0.029   2.066   2.672
 1632TIP3   OH2 4901   2.935   5.676   1.656
 1632TIP3    H1 4902   2.954   5.597   1.706
 1632TIP3    H2 4903   3.021   5.715   1.639
 1633TIP3   OH2 4904   5.252   0.418   3.145
 1633TIP3    H1 4905   5.192   0.468   3.199
 1633TIP3    H2 4906   5.309   0.483   3.105
 1634TIP3   OH2 4907   4.270   2.147   0.050
 1634TIP3    H1 4908   4.337   2.109  -0.007
 1634TIP3    H2 4909   4.189   2.105   0.022
 1635TIP3   OH2 4910   5.897   2.053   1.781
 1635TIP3    H1 4911   5.948   2.034   1.702
 1635TIP3    H2 4912   5.941   2.127   1.821
 1636TIP3   OH2 4913   0.859   5.869   0.905
 1636TIP3    H1 4914   0.766   5.859   0.924
 1636TIP3    H2 4915   0.869   5.837   0.815
 1637TIP3   OH2 4916   1.765   1.289  -0.017
 1637TIP3    H1 4917   1.787   1.363  -0.073
 1637TIP3    H2 4918   1.808   1.308   0.066
 1638TIP3   OH2 4919   1.129   1.226   0.746
 1638TIP3    H1 4920   1.200   1.171   0.780
 1638TIP3    H2 4921   1.064   1.227   0.816
 1639TIP3   OH2 4922   1.447   2.981   4.202
 1639TIP3    H1 4923   1.429   3.046   4.134
 1639TIP3    H2 4924   1.452   3.031   4.283
 1640TIP3   OH2 4925   4.209   0.128   4.888
 1640TIP3    H1 4926   4.210   0.135   4.983
 1640TIP3    H2 4927   4.189   0.036   4.871
 1641TIP3   OH2 4928   3.981   0.365   4.322
 1641TIP3    H1 4929   4.074   0.347   4.310
 1641TIP3    H2 4930   3.977   0.421   4.400
 1642TIP3   OH2 4931   3.698   4.801   4.266
 1642TIP3    H1 4932   3.674   4.708   4.265
 1642TIP3    H2 4933   3.630   4.844   4.215
 1643TIP3   OH2 4934   2.732   1.993   0.447
 1643TIP3    H1 4935   2.822   2.000   0.415
 1643TIP3    H2 4936   2.735   2.026   0.537
 1644TIP3   OH2 4937   2.913   3.520   2.336
 1644TIP3    H1 4938   2.850   3.511   2.265
 1644TIP3    H2 4939   2.927   3.431   2.367
 1645TIP3   OH2 4940   4.834   4.050   2.929
 1645TIP3    H1 4941   4.922   4.016   2.945
 1645TIP3    H2 4942   4.807   4.010   2.846
 1646TIP3   OH2 4943   1.484   3.833   4.016
 1646TIP3    H1 4944   1.465   3.908   4.073
 1646TIP3    H2 4945   1.537   3.869   3.945
 1647TIP3   OH2 4946   3.572   0.557   1.141
 1647TIP3    H1 4947   3.638   0.527   1.078
 1647TIP3    H2 4948   3.488   0.534   1.100
 1648TIP3   OH2 4949   4.302   1.824   3.944
 1648TIP3    H1 4950   4.385   1.817   3.897
 1648TIP3    H2 4951   4.286   1.918   3.951
 1649TIP3   OH2 4952   3.259   2.222   1.743
 1649TIP3    H1 4953   3.217   2.256   1.822
 1649TIP3    H2 4954   3.332   2.169   1.776
 1650TIP3   OH2 4955   0.024   2.416   2.452
 1650TIP3    H1 4956   0.110   2.416   2.493
 1650TIP3    H2 4957  -0.036   2.443   2.521
 1651TIP3   OH2 4958   3.067   4.415   4.464
 1651TIP3    H1 4959   3.016   4.335   4.474
 1651TIP3    H2 4960   3.049   4.466   4.543
 1652TIP3   OH2 4961   3.305   1.630   2.592
 1652TIP3    H1 4962   3.312   1.563   2.660
 1652TIP3    H2 4963   3.292   1.712   2.639
 1653TIP3   OH2 4964   5.032   3.261   4.102
 1653TIP3    H1 4965   4.989   3.343   4.128
 1653TIP3    H2 4966   4.964   3.195   4.112
 1654TIP3   OH2 4967   6.056   2.408   3.795
 1654TIP3    H1 4968   6.086   2.394   3.885
 1654TIP3    H2 4969   5.964   2.380   3.796
 1655TIP3   OH2 4970   1.859   5.586   0.426
 1655TIP3    H1 4971   1.823   5.638   0.354
 1655TIP3    H2 4972   1.840   5.638   0.505
 1656TIP3   OH2 4973   5.341   5.011   4.033
 1656TIP3    H1 4974   5.292   5.059   3.966
 1656TIP3    H2 4975   5.403   4.957   3.984
 1657TIP3   OH2 4976   1.984   2.376   2.408
 1657TIP3    H1 4977   2.043   2.300   2.412
 1657TIP3    H2 4978   2.042   2.452   2.413
 1658TIP3   OH2 4979   1.721   3.668   4.100
 1658TIP3    H1 4980   1.679   3.591   4.139
 1658TIP3    H2 4981   1.648   3.718   4.063
 1659TIP3   OH2 4982   1.652   2.279   0.412
 1659TIP3    H1 4983   1.669   2.319   0.498
 1659TIP3    H2 4984   1.665   2.351   0.350
 1660TIP3   OH2 4985   2.948   0.916   0.201
 1660TIP3    H1 4986   2.978   0.919   0.110
 1660TIP3    H2 4987   3.007   0.976   0.247
 1661TIP3   OH2 4988   4.016   0.791   4.727
 1661TIP3    H1 4989   4.048   0.845   4.800
 1661TIP3    H2 4990   3.958   0.727   4.768
 1662TIP3   OH2 4991   4.294   0.462   4.516
 1662TIP3    H1 4992   4.364   0.515   4.478
 1662TIP3    H2 4993   4.226   0.526   4.539
 1663TIP3   OH2 4994   2.782   0.841   3.351
 1663TIP3    H1 4995   2.858   0.783   3.356
 1663TIP3    H2 4996   2.766   0.851   3.257
 1664TIP3   OH2 4997   5.191   1.458   0.939
 1664TIP3    H1 4998   5.200   1.364   0.922
 1664TIP3    H2 4999   5.240   1.472   1.020
 1665TIP3   OH2 5000   1.951   0.077   1.605
 1665TIP3    H1 5001   1.897  -0.001   1.618
 1665TIP3    H2 5002   1.893   0.150   1.628
 1666TIP3   OH2 5003   1.538   4.117   3.991
 1666TIP3    H1 5004   1.538   4.141   3.898
 1666TIP3    H2 5005   1.623   4.148   4.023
 1667TIP3   OH2 5006   4.033   3.039   1.720
 1667TIP3    H1 5007   4.041   3.026   1.814
 1667TIP3    H2 5008   3.950   3.084   1.708
 1668TIP3   OH2 5009   4.911   5.794   3.978
 1668TIP3    H1 5010   4.823   5.784   4.016
 1668TIP3    H2 5011   4.898   5.846   3.899
 1669TIP3   OH2 5012   4.606   1.667   0.017
 1669TIP3    H1 5013   4.584   1.701  -0.069
 1669TIP3    H2 5014   4.568   1.730   0.079
 1670TIP3   OH2 5015   1.293   3.595   4.964
 1670TIP3    H1 5016   1.327   3.661   4.903
 1670TIP3    H2 5017   1.366   3.575   5.021
 1671TIP3   OH2 5018   1.626   0.409   2.328
 1671TIP3    H1 5019   1.706   0.456   2.305
 1671TIP3    H2 5020   1.630   0.328   2.277
 1672TIP3   OH2 5021   1.878   5.330   3.279
 1672TIP3    H1 5022   1.907   5.283   3.357
 1672TIP3    H2 5023   1.953   5.329   3.220
 1673TIP3   OH2 5024   4.888   4.222   0.803
 1673TIP3    H1 5025   4.959   4.205   0.742
 1673TIP3    H2 5026   4.927   4.209   0.890
 1674TIP3   OH2 5027   4.776   0.346   0.718
 1674TIP3    H1 5028   4.779   0.275   0.782
 1674TIP3    H2 5029   4.739   0.306   0.639
 1675TIP3   OH2 5030   5.605   3.352   3.500
 1675TIP3    H1 5031   5.554   3.271   3.494
 1675TIP3    H2 5032   5.668   3.346   3.428
 1676TIP3   OH2 5033   4.383   5.291   2.955
 1676TIP3    H1 5034   4.384   5.214   2.899
 1676TIP3    H2 5035   4.431   5.358   2.906
 1677TIP3   OH2 5036   3.654   2.027   1.402
 1677TIP3    H1 5037   3.564   2.021   1.435
 1677TIP3    H2 5038   3.643   2.050   1.309
 1678TIP3   OH2 5039   2.970   1.364   3.285
 1678TIP3    H1 5040   3.001   1.397   3.201
 1678TIP3    H2 5041   2.879   1.394   3.290
 1679TIP3   OH2 5042   4.537   3.736   0.538
 1679TIP3    H1 5043   4.460   3.680   0.524
 1679TIP3    H2 5044   4.523   3.774   0.625
 1680TIP3   OH2 5045   3.032   1.070   2.960
 1680TIP3    H1 5046   2.971   1.140   2.983
 1680TIP3    H2 5047   3.115   1.115   2.946
 1681TIP3   OH2 5048   1.631   0.631   4.164
 1681TIP3    H1 5049   1.571   0.706   4.156
 1681TIP3    H2 5050   1.574   0.554   4.164
 1682TIP3   OH2 5051   2.905   2.743   1.176
 1682TIP3    H1 5052   2.906   2.651   1.204
 1682TIP3    H2 5053   2.993   2.775   1.196
 1683TIP3   OH2 5054   4.277   2.112   0.424
 1683TIP3    H1 5055   4.366   2.084   0.447
 1683TIP3    H2 5056   4.289   2.185   0.364
 1684TIP3   OH2 5057   0.105   4.068   1.441
 1684TIP3    H1 5058   0.015   4.074   1.472
 1684TIP3    H2 5059   0.103   4.000   1.374
 1685TIP3   OH2 5060   4.315   4.759   2.099
 1685TIP3    H1 5061   4.340   4.671   2.128
 1685TIP3    H2 5062   4.297   4.749   2.006
 1686TIP3   OH2 5063   4.822   5.030   0.137
 1686TIP3    H1 5064   4.896   4.978   0.105
 1686TIP3    H2 5065   4.782   4.977   0.205
 1687TIP3   OH2 5066   2.623   4.063   2.679
 1687TIP3    H1 5067   2.583   4.129   2.623
 1687TIP3    H2 5068   2.609   3.981   2.632
 1688TIP3   OH2 5069   2.978   3.060   0.596
 1688TIP3    H1 5070   3.068   3.030   0.583
 1688TIP3    H2 5071   2.938   2.994   0.652
 1689TIP3   OH2 5072   0.360   2.887   3.201
 1689TIP3    H1 5073   0.383   2.970   3.244
 1689TIP3    H2 5074   0.266   2.894   3.184
 1690TIP3   OH2 5075   2.446   5.441   2.657
 1690TIP3    H1 5076   2.436   5.476   2.745
 1690TIP3    H2 5077   2.479   5.514   2.605
 1691TIP3   OH2 5078   2.888   2.536   4.481
 1691TIP3    H1 5079   2.879   2.586   4.562
 1691TIP3    H2 5080   2.979   2.508   4.480
 1692TIP3   OH2 5081   0.453   5.866   0.402
 1692TIP3    H1 5082   0.471   5.782   0.360
 1692TIP3    H2 5083   0.420   5.842   0.489
 1693TIP3   OH2 5084   4.424   5.644   2.973
 1693TIP3    H1 5085   4.461   5.590   2.903
 1693TIP3    H2 5086   4.350   5.593   3.006
 1694TIP3   OH2 5087   2.482   4.165   4.664
 1694TIP3    H1 5088   2.490   4.193   4.756
 1694TIP3    H2 5089   2.515   4.075   4.663
 1695TIP3   OH2 5090   5.227   0.134   2.007
 1695TIP3    H1 5091   5.261   0.221   2.027
 1695TIP3    H2 5092   5.288   0.099   1.942
 1696TIP3   OH2 5093   2.622   2.469   4.486
 1696TIP3    H1 5094   2.714   2.483   4.464
 1696TIP3    H2 5095   2.609   2.374   4.477
 1697TIP3   OH2 5096   2.181   5.817   5.167
 1697TIP3    H1 5097   2.193   5.739   5.113
 1697TIP3    H2 5098   2.215   5.791   5.253
 1698TIP3   OH2 5099   4.456   3.622   2.773
 1698TIP3    H1 5100   4.428   3.589   2.859
 1698TIP3    H2 5101   4.551   3.630   2.781
 1699TIP3   OH2 5102   1.343   4.908   3.858
 1699TIP3    H1 5103   1.321   4.815   3.866
 1699TIP3    H2 5104   1.296   4.950   3.930
 1700TIP3   OH2 5105   4.424   5.029   4.295
 1700TIP3    H1 5106   4.409   5.096   4.229
 1700TIP3    H2 5107   4.375   4.953   4.263
 1701TIP3   OH2 5108   0.605   2.858   0.408
 1701TIP3    H1 5109   0.679   2.842   0.349
 1701TIP3    H2 5110   0.630   2.935   0.458
 1702TIP3   OH2 5111   5.065   5.800   0.863
 1702TIP3    H1 5112   4.981   5.844   0.878
 1702TIP3    H2 5113   5.110   5.805   0.947
 1703TIP3   OH2 5114   2.557   5.875   3.543
 1703TIP3    H1 5115   2.482   5.896   3.487
 1703TIP3    H2 5116   2.549   5.782   3.560
 1704TIP3   OH2 5117   5.006   5.979   4.181
 1704TIP3    H1 5118   4.964   6.058   4.148
 1704TIP3    H2 5119   4.986   5.912   4.115
 1705TIP3   OH2 5120   5.836   2.982   2.791
 1705TIP3    H1 5121   5.925   2.953   2.811
 1705TIP3    H2 5122   5.779   2.917   2.834
 1706TIP3   OH2 5123   5.243   1.601   1.718
 1706TIP3    H1 5124   5.270   1.594   1.809
 1706TIP3    H2 5125   5.160   1.553   1.713
 1707TIP3   OH2 5126   2.684   0.621   1.267
 1707TIP3    H1 5127   2.595   0.586   1.265
 1707TIP3    H2 5128   2.718   0.603   1.179
 1708TIP3   OH2 5129   6.007   2.061   1.509
 1708TIP3    H1 5130   5.916   2.053   1.479
 1708TIP3    H2 5131   6.057   2.078   1.429
 1709TIP3   OH2 5132   2.043   0.918   0.212
 1709TIP3    H1 5133   1.975   0.867   0.256
 1709TIP3    H2 5134   2.017   0.916   0.120
 1710TIP3   OH2 5135   3.702   0.625   0.232
 1710TIP3    H1 5136   3.698   0.600   0.140
 1710TIP3    H2 5137   3.638   0.696   0.240
 1711TIP3   OH2 5138   3.870   1.498   0.606
 1711TIP3    H1 5139   3.945   1.487   0.664
 1711TIP3    H2 5140   3.802   1.441   0.642
 1712TIP3   OH2 5141   2.769   2.018   0.072
 1712TIP3    H1 5142   2.832   2.089   0.058
 1712TIP3    H2 5143   2.790   1.953   0.005
 1713TIP3   OH2 5144   0.884   3.648   1.549
 1713TIP3    H1 5145   0.888   3.559   1.516
 1713TIP3    H2 5146   0.895   3.704   1.472
 1714TIP3   OH2 5147   5.891   4.466   2.720
 1714TIP3    H1 5148   5.923   4.379   2.744
 1714TIP3    H2 5149   5.970   4.515   2.696
 1715TIP3   OH2 5150   4.070   5.808   4.913
 1715TIP3    H1 5151   4.063   5.714   4.896
 1715TIP3    H2 5152   4.133   5.840   4.849
 1716TIP3   OH2 5153   0.127   4.720   4.190
 1716TIP3    H1 5154   0.153   4.809   4.168
 1716TIP3    H2 5155   0.032   4.726   4.204
 1717TIP3   OH2 5156   3.744   5.459   2.037
 1717TIP3    H1 5157   3.791   5.376   2.025
 1717TIP3    H2 5158   3.710   5.479   1.950
 1718TIP3   OH2 5159   1.694   3.085   1.407
 1718TIP3    H1 5160   1.627   3.028   1.445
 1718TIP3    H2 5161   1.761   3.025   1.375
 1719TIP3   OH2 5162   2.353   5.872   3.760
 1719TIP3    H1 5163   2.426   5.816   3.736
 1719TIP3    H2 5164   2.375   5.958   3.723
 1720TIP3   OH2 5165   4.794   4.652   0.739
 1720TIP3    H1 5166   4.699   4.648   0.750
 1720TIP3    H2 5167   4.812   4.741   0.711
 1721TIP3   OH2 5168   0.040   5.068   3.554
 1721TIP3    H1 5169   0.091   5.140   3.517
 1721TIP3    H2 5170   0.106   5.005   3.585
 1722TIP3   OH2 5171   2.413   2.029   2.462
 1722TIP3    H1 5172   2.472   1.957   2.484
 1722TIP3    H2 5173   2.469   2.095   2.423
 1723TIP3   OH2 5174   1.826   1.718   1.595
 1723TIP3    H1 5175   1.769   1.784   1.556
 1723TIP3    H2 5176   1.861   1.669   1.521
 1724TIP3   OH2 5177   2.705   2.495   1.537
 1724TIP3    H1 5178   2.766   2.513   1.608
 1724TIP3    H2 5179   2.686   2.402   1.545
 1725TIP3   OH2 5180   1.014   2.578   3.538
 1725TIP3    H1 5181   1.095   2.622   3.513
 1725TIP3    H2 5182   1.037   2.532   3.619
 1726TIP3   OH2 5183   3.148   4.483   0.923
 1726TIP3    H1 5184   3.063   4.440   0.928
 1726TIP3    H2 5185   3.201   4.438   0.988
 1727TIP3   OH2 5186   4.802   2.708   2.533
 1727TIP3    H1 5187   4.812   2.799   2.507
 1727TIP3    H2 5188   4.783   2.712   2.627
 1728TIP3   OH2 5189   1.185   5.450   2.710
 1728TIP3    H1 5190   1.220   5.439   2.622
 1728TIP3    H2 5191   1.259   5.427   2.767
 1729TIP3   OH2 5192   2.226   2.242   5.134
 1729TIP3    H1 5193   2.143   2.287   5.153
 1729TIP3    H2 5194   2.207   2.150   5.154
 1730TIP3   OH2 5195   1.711   0.783   2.329
 1730TIP3    H1 5196   1.731   0.835   2.407
 1730TIP3    H2 5197   1.616   0.769   2.334
 1731TIP3   OH2 5198   0.432   2.293   3.994
 1731TIP3    H1 5199   0.412   2.247   4.075
 1731TIP3    H2 5200   0.528   2.294   3.990
 1732TIP3   OH2 5201   4.440   4.263   0.396
 1732TIP3    H1 5202   4.531   4.290   0.410
 1732TIP3    H2 5203   4.446   4.172   0.369
 1733TIP3   OH2 5204   2.456   3.419   1.396
 1733TIP3    H1 5205   2.517   3.346   1.397
 1733TIP3    H2 5206   2.375   3.383   1.432
 1734TIP3   OH2 5207   1.114   4.680   3.072
 1734TIP3    H1 5208   1.206   4.702   3.055
 1734TIP3    H2 5209   1.107   4.683   3.167
 1735TIP3   OH2 5210   3.103   3.493   0.750
 1735TIP3    H1 5211   3.159   3.518   0.676
 1735TIP3    H2 5212   3.155   3.430   0.799
 1736TIP3   OH2 5213   3.192   3.382   2.628
 1736TIP3    H1 5214   3.232   3.348   2.708
 1736TIP3    H2 5215   3.158   3.468   2.652
 1737TIP3   OH2 5216   0.795   5.928   0.108
 1737TIP3    H1 5217   0.777   5.951   0.199
 1737TIP3    H2 5218   0.711   5.901   0.072
 1738TIP3   OH2 5219   3.310   4.051   3.609
 1738TIP3    H1 5220   3.394   4.045   3.656
 1738TIP3    H2 5221   3.283   4.142   3.620
 1739TIP3   OH2 5222   2.340   2.449   2.757
 1739TIP3    H1 5223   2.275   2.378   2.758
 1739TIP3    H2 5224   2.297   2.520   2.710
 1740TIP3   OH2 5225   1.769   2.959   3.138
 1740TIP3    H1 5226   1.681   2.923   3.148
 1740TIP3    H2 5227   1.779   3.019   3.212
 1741TIP3   OH2 5228   1.846   4.219   0.181
 1741TIP3    H1 5229   1.820   4.206   0.273
 1741TIP3    H2 5230   1.782   4.281   0.147
 1742TIP3   OH2 5231   2.677   2.894   0.225
 1742TIP3    H1 5232   2.659   2.854   0.310
 1742TIP3    H2 5233   2.593   2.930   0.197
 1743TIP3   OH2 5234   0.476   3.147   2.621
 1743TIP3    H1 5235   0.563   3.173   2.652
 1743TIP3    H2 5236   0.461   3.201   2.543
 1744TIP3   OH2 5237   4.565   1.168   2.185
 1744TIP3    H1 5238   4.622   1.101   2.222
 1744TIP3    H2 5239   4.605   1.251   2.212
 1745TIP3   OH2 5240   1.638   2.934   0.909
 1745TIP3    H1 5241   1.715   2.989   0.925
 1745TIP3    H2 5242   1.609   2.907   0.996
 1746TIP3   OH2 5243   4.010   3.505   2.945
 1746TIP3    H1 5244   4.063   3.510   2.865
 1746TIP3    H2 5245   3.997   3.596   2.971
 1747TIP3   OH2 5246   0.849   5.337   1.187
 1747TIP3    H1 5247   0.840   5.403   1.255
 1747TIP3    H2 5248   0.760   5.310   1.167
 1748TIP3   OH2 5249   3.952   0.145   2.496
 1748TIP3    H1 5250   3.868   0.187   2.517
 1748TIP3    H2 5251   3.970   0.089   2.571
 1749TIP3   OH2 5252   5.036   4.799   1.847
 1749TIP3    H1 5253   4.998   4.880   1.883
 1749TIP3    H2 5254   5.056   4.821   1.756
 1750TIP3   OH2 5255   3.439   5.403   0.596
 1750TIP3    H1 5256   3.452   5.396   0.690
 1750TIP3    H2 5257   3.364   5.347   0.578
 1751TIP3   OH2 5258   3.248   2.918   2.261
 1751TIP3    H1 5259   3.265   2.828   2.234
 1751TIP3    H2 5260   3.335   2.956   2.277
 1752TIP3   OH2 5261   3.705   1.088   4.719
 1752TIP3    H1 5262   3.668   1.162   4.671
 1752TIP3    H2 5263   3.740   1.127   4.799
 1753TIP3   OH2 5264   6.074   3.572   3.749
 1753TIP3    H1 5265   6.080   3.573   3.845
 1753TIP3    H2 5266   6.006   3.507   3.730
 1754TIP3   OH2 5267   1.163   0.091   1.978
 1754TIP3    H1 5268   1.097   0.022   1.980
 1754TIP3    H2 5269   1.118   0.169   2.009
 1755TIP3   OH2 5270   5.785   4.114   4.329
 1755TIP3    H1 5271   5.711   4.097   4.388
 1755TIP3    H2 5272   5.754   4.183   4.271
 1756TIP3   OH2 5273   1.731   3.671   0.290
 1756TIP3    H1 5274   1.653   3.719   0.261
 1756TIP3    H2 5275   1.773   3.643   0.209
 1757TIP3   OH2 5276   0.256   1.735   3.974
 1757TIP3    H1 5277   0.283   1.712   4.063
 1757TIP3    H2 5278   0.319   1.692   3.917
 1758TIP3   OH2 5279   5.277   3.664   0.376
 1758TIP3    H1 5280   5.278   3.744   0.323
 1758TIP3    H2 5281   5.237   3.599   0.319
 1759TIP3   OH2 5282   6.247   1.283   2.024
 1759TIP3    H1 5283   6.261   1.297   2.118
 1759TIP3    H2 5284   6.328   1.243   1.993
 1760TIP3   OH2 5285   6.181   1.173   3.084
 1760TIP3    H1 5286   6.181   1.170   2.988
 1760TIP3    H2 5287   6.265   1.134   3.109
 1761TIP3   OH2 5288   4.643   1.517   5.022
 1761TIP3    H1 5289   4.562   1.560   4.995
 1761TIP3    H2 5290   4.616   1.449   5.083
 1762TIP3   OH2 5291   1.455   1.950   2.535
 1762TIP3    H1 5292   1.485   1.890   2.604
 1762TIP3    H2 5293   1.387   1.901   2.489
 1763TIP3   OH2 5294   1.855   0.871   1.128
 1763TIP3    H1 5295   1.833   0.795   1.074
 1763TIP3    H2 5296   1.929   0.912   1.083
 1764TIP3   OH2 5297   6.025   5.206   3.287
 1764TIP3    H1 5298   6.048   5.282   3.341
 1764TIP3    H2 5299   5.974   5.243   3.215
 1765TIP3   OH2 5300   3.285   4.210   3.931
 1765TIP3    H1 5301   3.218   4.224   3.864
 1765TIP3    H2 5302   3.311   4.298   3.957
 1766TIP3   OH2 5303   2.786   0.569   1.021
 1766TIP3    H1 5304   2.864   0.547   0.971
 1766TIP3    H2 5305   2.752   0.649   0.981
 1767TIP3   OH2 5306   4.645   5.715   2.577
 1767TIP3    H1 5307   4.694   5.685   2.653
 1767TIP3    H2 5308   4.707   5.770   2.529
 1768TIP3   OH2 5309   4.372   3.160   1.296
 1768TIP3    H1 5310   4.384   3.112   1.378
 1768TIP3    H2 5311   4.319   3.236   1.320
 1769TIP3   OH2 5312   3.111   4.512   4.913
 1769TIP3    H1 5313   3.158   4.456   4.975
 1769TIP3    H2 5314   3.058   4.570   4.968
 1770TIP3   OH2 5315   1.622   0.528   5.055
 1770TIP3    H1 5316   1.616   0.433   5.046
 1770TIP3    H2 5317   1.579   0.563   4.977
 1771TIP3   OH2 5318   3.824   2.802   1.962
 1771TIP3    H1 5319   3.908   2.840   1.934
 1771TIP3    H2 5320   3.831   2.798   2.058
 1772TIP3   OH2 5321   3.245   2.960   3.126
 1772TIP3    H1 5322   3.278   2.928   3.042
 1772TIP3    H2 5323   3.151   2.972   3.111
 1773TIP3   OH2 5324   5.751   2.214   4.647
 1773TIP3    H1 5325   5.684   2.167   4.697
 1773TIP3    H2 5326   5.704   2.249   4.572
 1774TIP3   OH2 5327   3.036   1.704   1.125
 1774TIP3    H1 5328   3.015   1.715   1.032
 1774TIP3    H2 5329   3.121   1.660   1.125
 1775TIP3   OH2 5330   5.542   1.884   3.706
 1775TIP3    H1 5331   5.551   1.838   3.622
 1775TIP3    H2 5332   5.525   1.975   3.682
 1776TIP3   OH2 5333   2.848   2.920   0.768
 1776TIP3    H1 5334   2.775   2.862   0.788
 1776TIP3    H2 5335   2.821   3.005   0.802
 1777TIP3   OH2 5336   2.181   3.864   2.898
 1777TIP3    H1 5337   2.186   3.939   2.839
 1777TIP3    H2 5338   2.200   3.788   2.844
 1778TIP3   OH2 5339   1.458   4.673   4.314
 1778TIP3    H1 5340   1.527   4.710   4.369
 1778TIP3    H2 5341   1.485   4.582   4.300
 1779TIP3   OH2 5342   3.163   2.291   3.877
 1779TIP3    H1 5343   3.103   2.294   3.803
 1779TIP3    H2 5344   3.139   2.212   3.925
 1780TIP3   OH2 5345   6.234   0.800   0.250
 1780TIP3    H1 5346   6.215   0.714   0.212
 1780TIP3    H2 5347   6.156   0.822   0.300
 1781TIP3   OH2 5348   0.556   0.814   3.933
 1781TIP3    H1 5349   0.579   0.731   3.891
 1781TIP3    H2 5350   0.592   0.808   4.021
 1782TIP3   OH2 5351   3.090   3.640   2.520
 1782TIP3    H1 5352   3.155   3.686   2.468
 1782TIP3    H2 5353   3.043   3.585   2.457
 1783TIP3   OH2 5354   4.705   0.033   4.164
 1783TIP3    H1 5355   4.635   0.064   4.221
 1783TIP3    H2 5356   4.784   0.077   4.197
 1784TIP3   OH2 5357   0.990   1.198   1.001
 1784TIP3    H1 5358   0.895   1.215   1.000
 1784TIP3    H2 5359   1.030   1.284   0.987
 1785TIP3   OH2 5360   3.696   1.529   2.620
 1785TIP3    H1 5361   3.640   1.482   2.682
 1785TIP3    H2 5362   3.701   1.618   2.654
 1786TIP3   OH2 5363   5.916   5.364   3.948
 1786TIP3    H1 5364   5.982   5.427   3.920
 1786TIP3    H2 5365   5.965   5.285   3.971
 1787TIP3   OH2 5366   2.363   4.938   4.999
 1787TIP3    H1 5367   2.332   4.865   4.946
 1787TIP3    H2 5368   2.354   5.015   4.943
 1788TIP3   OH2 5369   5.622   1.890   1.187
 1788TIP3    H1 5370   5.526   1.886   1.189
 1788TIP3    H2 5371   5.645   1.867   1.096
 1789TIP3   OH2 5372   1.002   2.712   4.926
 1789TIP3    H1 5373   1.052   2.633   4.943
 1789TIP3    H2 5374   0.934   2.684   4.864
 1790TIP3   OH2 5375   1.813   0.628   2.632
 1790TIP3    H1 5376   1.746   0.625   2.563
 1790TIP3    H2 5377   1.842   0.537   2.641
 1791TIP3   OH2 5378   1.456   4.992   1.571
 1791TIP3    H1 5379   1.427   5.032   1.489
 1791TIP3    H2 5380   1.437   4.899   1.560
 1792TIP3   OH2 5381   6.147   0.703   2.098
 1792TIP3    H1 5382   6.221   0.649   2.070
 1792TIP3    H2 5383   6.143   0.773   2.034
 1793TIP3   OH2 5384   5.632   5.234   0.033
 1793TIP3    H1 5385   5.659   5.320   0.002
 1793TIP3    H2 5386   5.560   5.251   0.094
 1794TIP3   OH2 5387   3.494   0.667   2.012
 1794TIP3    H1 5388   3.404   0.685   1.985
 1794TIP3    H2 5389   3.535   0.627   1.936
 1795TIP3   OH2 5390   3.515   4.053   2.194
 1795TIP3    H1 5391   3.554   4.109   2.261
 1795TIP3    H2 5392   3.472   4.114   2.134
 1796TIP3   OH2 5393   2.533   5.893   0.589
 1796TIP3    H1 5394   2.534   5.877   0.684
 1796TIP3    H2 5395   2.625   5.897   0.564
 1797TIP3   OH2 5396   4.793   3.618   3.690
 1797TIP3    H1 5397   4.816   3.570   3.769
 1797TIP3    H2 5398   4.736   3.559   3.642
 1798TIP3   OH2 5399   1.797   5.795   0.249
 1798TIP3    H1 5400   1.727   5.840   0.297
 1798TIP3    H2 5401   1.845   5.866   0.206
 1799TIP3   OH2 5402   0.823   0.465   3.232
 1799TIP3    H1 5403   0.840   0.516   3.312
 1799TIP3    H2 5404   0.819   0.530   3.163
 1800TIP3   OH2 5405   5.585   0.320   4.390
 1800TIP3    H1 5406   5.657   0.279   4.343
 1800TIP3    H2 5407   5.538   0.247   4.430
 1801TIP3   OH2 5408   4.777   2.068   1.825
 1801TIP3    H1 5409   4.841   2.063   1.754
 1801TIP3    H2 5410   4.737   1.981   1.829
 1802TIP3   OH2 5411   4.714   2.248   3.528
 1802TIP3    H1 5412   4.673   2.276   3.446
 1802TIP3    H2 5413   4.719   2.327   3.581
 1803TIP3   OH2 5414   5.768   1.999   3.830
 1803TIP3    H1 5415   5.771   1.974   3.922
 1803TIP3    H2 5416   5.704   1.941   3.790
 1804TIP3   OH2 5417   0.602   2.752   1.340
 1804TIP3    H1 5418   0.626   2.782   1.428
 1804TIP3    H2 5419   0.537   2.684   1.355
 1805TIP3   OH2 5420   2.533   5.427   4.888
 1805TIP3    H1 5421   2.597   5.389   4.949
 1805TIP3    H2 5422   2.472   5.475   4.944
 1806TIP3   OH2 5423   6.168   5.527   2.065
 1806TIP3    H1 5424   6.231   5.457   2.080
 1806TIP3    H2 5425   6.098   5.486   2.015
 1807TIP3   OH2 5426   2.114   0.747   1.149
 1807TIP3    H1 5427   2.034   0.758   1.200
 1807TIP3    H2 5428   2.184   0.774   1.208
 1808TIP3   OH2 5429   6.137   4.185   2.957
 1808TIP3    H1 5430   6.107   4.220   3.041
 1808TIP3    H2 5431   6.199   4.116   2.981
 1809TIP3   OH2 5432   5.148   0.263   4.692
 1809TIP3    H1 5433   5.192   0.340   4.655
 1809TIP3    H2 5434   5.055   0.286   4.692
 1810TIP3   OH2 5435   6.332   0.825   2.978
 1810TIP3    H1 5436   6.275   0.753   3.006
 1810TIP3    H2 5437   6.401   0.782   2.929
 1811TIP3   OH2 5438   2.349   5.845   3.076
 1811TIP3    H1 5439   2.319   5.847   3.166
 1811TIP3    H2 5440   2.441   5.819   3.082
 1812TIP3   OH2 5441   1.774   5.588   3.161
 1812TIP3    H1 5442   1.780   5.500   3.197
 1812TIP3    H2 5443   1.773   5.576   3.066
 1813TIP3   OH2 5444   3.694   5.567   0.974
 1813TIP3    H1 5445   3.614   5.606   0.940
 1813TIP3    H2 5446   3.697   5.595   1.066
 1814TIP3   OH2 5447   2.561   3.312   3.512
 1814TIP3    H1 5448   2.653   3.333   3.527
 1814TIP3    H2 5449   2.549   3.324   3.418
 1815TIP3   OH2 5450   4.433   5.237   4.774
 1815TIP3    H1 5451   4.411   5.304   4.709
 1815TIP3    H2 5452   4.488   5.284   4.837
 1816TIP3   OH2 5453   5.402   1.133   2.987
 1816TIP3    H1 5454   5.326   1.082   3.014
 1816TIP3    H2 5455   5.399   1.213   3.039
 1817TIP3   OH2 5456   5.895   5.923   1.055
 1817TIP3    H1 5457   5.864   5.917   0.964
 1817TIP3    H2 5458   5.942   5.841   1.068
 1818TIP3   OH2 5459   0.201   3.391   1.203
 1818TIP3    H1 5460   0.183   3.405   1.296
 1818TIP3    H2 5461   0.153   3.460   1.158
 1819TIP3   OH2 5462   5.901   0.608   3.291
 1819TIP3    H1 5463   5.815   0.567   3.290
 1819TIP3    H2 5464   5.907   0.654   3.207
 1820TIP3   OH2 5465   0.212   1.131   5.028
 1820TIP3    H1 5466   0.259   1.179   5.097
 1820TIP3    H2 5467   0.215   1.039   5.056
 1821TIP3   OH2 5468   0.505   2.614   0.274
 1821TIP3    H1 5469   0.458   2.675   0.218
 1821TIP3    H2 5470   0.561   2.564   0.215
 1822TIP3   OH2 5471   4.892   2.639   4.686
 1822TIP3    H1 5472   4.922   2.552   4.712
 1822TIP3    H2 5473   4.812   2.623   4.637
 1823TIP3   OH2 5474   1.822   2.608   1.176
 1823TIP3    H1 5475   1.897   2.661   1.151
 1823TIP3    H2 5476   1.746   2.659   1.147
 1824TIP3   OH2 5477   4.246   1.426   2.013
 1824TIP3    H1 5478   4.240   1.364   2.085
 1824TIP3    H2 5479   4.163   1.415   1.966
 1825TIP3   OH2 5480   2.121   3.561   4.678
 1825TIP3    H1 5481   2.034   3.567   4.638
 1825TIP3    H2 5482   2.134   3.467   4.693
 1826TIP3   OH2 5483   0.991   1.383   3.924
 1826TIP3    H1 5484   0.939   1.320   3.975
 1826TIP3    H2 5485   1.075   1.340   3.911
 1827TIP3   OH2 5486   0.181   4.271   2.298
 1827TIP3    H1 5487   0.202   4.225   2.380
 1827TIP3    H2 5488   0.202   4.363   2.316
 1828TIP3   OH2 5489   2.246   1.361   4.751
 1828TIP3    H1 5490   2.311   1.417   4.709
 1828TIP3    H2 5491   2.168   1.416   4.756
 1829TIP3   OH2 5492   5.638   4.969   2.349
 1829TIP3    H1 5493   5.598   4.883   2.336
 1829TIP3    H2 5494   5.565   5.031   2.350
 1830TIP3   OH2 5495   3.059   0.156   4.002
 1830TIP3    H1 5496   3.124   0.226   3.996
 1830TIP3    H2 5497   3.084   0.107   4.081
 1831TIP3   OH2 5498   0.305   3.639   3.933
 1831TIP3    H1 5499   0.288   3.571   3.997
 1831TIP3    H2 5500   0.330   3.716   3.985
 1832TIP3   OH2 5501   6.017   0.601   0.782
 1832TIP3    H1 5502   5.939   0.588   0.835
 1832TIP3    H2 5503   5.988   0.587   0.692
 1833TIP3   OH2 5504   4.008   5.032   3.476
 1833TIP3    H1 5505   4.034   4.966   3.412
 1833TIP3    H2 5506   3.976   4.982   3.551
 1834TIP3   OH2 5507   3.783   5.781   0.356
 1834TIP3    H1 5508   3.692   5.783   0.326
 1834TIP3    H2 5509   3.778   5.738   0.442
 1835TIP3   OH2 5510   2.176   5.092   1.392
 1835TIP3    H1 5511   2.158   5.113   1.300
 1835TIP3    H2 5512   2.242   5.155   1.419
 1836TIP3   OH2 5513   1.258   5.470   0.851
 1836TIP3    H1 5514   1.225   5.557   0.872
 1836TIP3    H2 5515   1.249   5.420   0.932
 1837TIP3   OH2 5516   5.276   0.616   4.309
 1837TIP3    H1 5517   5.195   0.666   4.324
 1837TIP3    H2 5518   5.288   0.568   4.391
 1838TIP3   OH2 5519   4.818   5.858   3.393
 1838TIP3    H1 5520   4.828   5.939   3.442
 1838TIP3    H2 5521   4.724   5.843   3.389
 1839TIP3   OH2 5522   2.338   5.383   3.552
 1839TIP3    H1 5523   2.252   5.425   3.544
 1839TIP3    H2 5524   2.333   5.331   3.632
 1840TIP3   OH2 5525   1.915   0.463   4.995
 1840TIP3    H1 5526   1.849   0.436   5.058
 1840TIP3    H2 5527   1.963   0.383   4.974
 1841TIP3   OH2 5528   4.314   0.658   3.077
 1841TIP3    H1 5529   4.337   0.739   3.122
 1841TIP3    H2 5530   4.241   0.681   3.021
 1842TIP3   OH2 5531   4.102   5.676   4.235
 1842TIP3    H1 5532   4.139   5.707   4.152
 1842TIP3    H2 5533   4.041   5.744   4.261
 1843TIP3   OH2 5534   0.493   5.115   1.870
 1843TIP3    H1 5535   0.585   5.117   1.846
 1843TIP3    H2 5536   0.468   5.023   1.862
 1844TIP3   OH2 5537   2.661   2.187   3.007
 1844TIP3    H1 5538   2.693   2.185   2.917
 1844TIP3    H2 5539   2.570   2.158   3.001
 1845TIP3   OH2 5540   1.300   1.129   1.710
 1845TIP3    H1 5541   1.325   1.051   1.660
 1845TIP3    H2 5542   1.371   1.141   1.773
 1846TIP3   OH2 5543   1.674   4.614   3.963
 1846TIP3    H1 5544   1.747   4.576   3.913
 1846TIP3    H2 5545   1.601   4.555   3.948
 1847TIP3   OH2 5546   5.711   2.980   3.309
 1847TIP3    H1 5547   5.780   2.919   3.285
 1847TIP3    H2 5548   5.668   2.940   3.385
 1848TIP3   OH2 5549   0.625   0.445  -0.059
 1848TIP3    H1 5550   0.578   0.368  -0.026
 1848TIP3    H2 5551   0.565   0.518  -0.043
 1849TIP3   OH2 5552   1.750   2.227   2.094
 1849TIP3    H1 5553   1.753   2.224   2.189
 1849TIP3    H2 5554   1.684   2.293   2.074
 1850TIP3   OH2 5555   6.219   5.777   0.629
 1850TIP3    H1 5556   6.222   5.814   0.717
 1850TIP3    H2 5557   6.169   5.840   0.578
 1851TIP3   OH2 5558   1.752   0.960   2.537
 1851TIP3    H1 5559   1.669   0.987   2.577
 1851TIP3    H2 5560   1.812   1.032   2.557
 1852TIP3   OH2 5561   4.177   0.352   0.461
 1852TIP3    H1 5562   4.101   0.409   0.464
 1852TIP3    H2 5563   4.238   0.395   0.400
 1853TIP3   OH2 5564   4.249   1.352   0.017
 1853TIP3    H1 5565   4.317   1.299   0.060
 1853TIP3    H2 5566   4.172   1.342   0.073
 1854TIP3   OH2 5567   2.070   4.138   4.999
 1854TIP3    H1 5568   2.049   4.222   5.040
 1854TIP3    H2 5569   2.164   4.143   4.982
 1855TIP3   OH2 5570   0.916   3.401   3.142
 1855TIP3    H1 5571   0.947   3.349   3.067
 1855TIP3    H2 5572   0.991   3.405   3.201
 1856TIP3   OH2 5573   6.002   5.613   0.031
 1856TIP3    H1 5574   6.016   5.705   0.011
 1856TIP3    H2 5575   6.066   5.594   0.100
 1857TIP3   OH2 5576   6.216   2.471   2.667
 1857TIP3    H1 5577   6.192   2.418   2.743
 1857TIP3    H2 5578   6.172   2.554   2.680
 1858TIP3   OH2 5579   4.858   5.964   1.253
 1858TIP3    H1 5580   4.794   5.901   1.220
 1858TIP3    H2 5581   4.930   5.960   1.190
 1859TIP3   OH2 5582   3.146   4.153   1.010
 1859TIP3    H1 5583   3.064   4.139   1.057
 1859TIP3    H2 5584   3.132   4.113   0.924
 1860TIP3   OH2 5585   5.817   5.039   3.642
 1860TIP3    H1 5586   5.881   5.110   3.641
 1860TIP3    H2 5587   5.813   5.009   3.551
 1861TIP3   OH2 5588   0.042   5.677   2.668
 1861TIP3    H1 5589  -0.023   5.612   2.642
 1861TIP3    H2 5590   0.126   5.637   2.648
 1862TIP3   OH2 5591   4.126   2.443   3.876
 1862TIP3    H1 5592   4.047   2.450   3.822
 1862TIP3    H2 5593   4.119   2.517   3.937
 1863TIP3   OH2 5594   0.525   5.928   2.624
 1863TIP3    H1 5595   0.529   5.853   2.564
 1863TIP3    H2 5596   0.459   5.986   2.585
 1864TIP3   OH2 5597   1.437   4.710   0.499
 1864TIP3    H1 5598   1.461   4.692   0.408
 1864TIP3    H2 5599   1.503   4.771   0.531
 1865TIP3   OH2 5600   4.389   4.019   0.969
 1865TIP3    H1 5601   4.410   4.017   1.062
 1865TIP3    H2 5602   4.302   4.058   0.964
 1866TIP3   OH2 5603   5.455   3.256   1.635
 1866TIP3    H1 5604   5.524   3.278   1.697
 1866TIP3    H2 5605   5.446   3.335   1.581
 1867TIP3   OH2 5606   2.638   0.453   3.054
 1867TIP3    H1 5607   2.564   0.503   3.086
 1867TIP3    H2 5608   2.622   0.364   3.085
 1868TIP3   OH2 5609   2.540   5.523   1.346
 1868TIP3    H1 5610   2.636   5.529   1.348
 1868TIP3    H2 5611   2.518   5.539   1.254
 1869TIP3   OH2 5612   4.238   1.367   5.005
 1869TIP3    H1 5613   4.145   1.385   4.995
 1869TIP3    H2 5614   4.263   1.414   5.084
 1870TIP3   OH2 5615   4.388   3.523   3.727
 1870TIP3    H1 5616   4.414   3.432   3.717
 1870TIP3    H2 5617   4.372   3.554   3.638
 1871TIP3   OH2 5618   2.048   2.942   2.412
 1871TIP3    H1 5619   1.997   2.958   2.491
 1871TIP3    H2 5620   2.008   2.999   2.346
 1872TIP3   OH2 5621   6.142   4.782   3.274
 1872TIP3    H1 5622   6.121   4.833   3.196
 1872TIP3    H2 5623   6.121   4.840   3.347
 1873TIP3   OH2 5624   0.884   5.489   3.082
 1873TIP3    H1 5625   0.810   5.510   3.138
 1873TIP3    H2 5626   0.909   5.400   3.107
 1874TIP3   OH2 5627   1.310   4.763   1.880
 1874TIP3    H1 5628   1.405   4.752   1.870
 1874TIP3    H2 5629   1.273   4.702   1.817
 1875TIP3   OH2 5630   6.363   5.368   4.691
 1875TIP3    H1 5631   6.309   5.384   4.613
 1875TIP3    H2 5632   6.300   5.353   4.761
 1876TIP3   OH2 5633   6.127   0.102   2.247
 1876TIP3    H1 5634   6.169   0.021   2.219
 1876TIP3    H2 5635   6.149   0.166   2.178
 1877TIP3   OH2 5636   2.571   1.155   1.965
 1877TIP3    H1 5637   2.502   1.199   1.915
 1877TIP3    H2 5638   2.555   1.180   2.056
 1878TIP3   OH2 5639   3.004   2.809   5.135
 1878TIP3    H1 5640   2.925   2.756   5.122
 1878TIP3    H2 5641   3.076   2.748   5.114
 1879TIP3   OH2 5642   4.885   1.843   3.677
 1879TIP3    H1 5643   4.868   1.756   3.712
 1879TIP3    H2 5644   4.859   1.838   3.585
 1880TIP3   OH2 5645   5.137   2.252   0.408
 1880TIP3    H1 5646   5.174   2.250   0.496
 1880TIP3    H2 5647   5.185   2.322   0.363
 1881TIP3   OH2 5648   4.424   0.843   3.482
 1881TIP3    H1 5649   4.471   0.887   3.411
 1881TIP3    H2 5650   4.473   0.865   3.561
 1882TIP3   OH2 5651   4.816   3.651   0.468
 1882TIP3    H1 5652   4.726   3.676   0.489
 1882TIP3    H2 5653   4.859   3.732   0.444
 1883TIP3   OH2 5654   4.544   5.304   4.435
 1883TIP3    H1 5655   4.621   5.360   4.434
 1883TIP3    H2 5656   4.576   5.219   4.466
 1884TIP3   OH2 5657   4.946   3.924   1.686
 1884TIP3    H1 5658   4.933   3.883   1.772
 1884TIP3    H2 5659   4.863   3.912   1.640
 1885TIP3   OH2 5660   1.968   2.321   1.739
 1885TIP3    H1 5661   2.049   2.281   1.772
 1885TIP3    H2 5662   1.951   2.274   1.657
 1886TIP3   OH2 5663   3.840   3.909   0.719
 1886TIP3    H1 5664   3.785   3.974   0.675
 1886TIP3    H2 5665   3.930   3.937   0.700
 1887TIP3   OH2 5666   1.415   0.212   0.246
 1887TIP3    H1 5667   1.420   0.281   0.312
 1887TIP3    H2 5668   1.363   0.250   0.175
 1888TIP3   OH2 5669   2.476   0.078   2.450
 1888TIP3    H1 5670   2.506   0.168   2.434
 1888TIP3    H2 5671   2.385   0.078   2.421
 1889TIP3   OH2 5672   1.214   5.687   3.057
 1889TIP3    H1 5673   1.119   5.687   3.056
 1889TIP3    H2 5674   1.238   5.630   3.129
 1890TIP3   OH2 5675   2.840   3.738   3.916
 1890TIP3    H1 5676   2.788   3.657   3.906
 1890TIP3    H2 5677   2.879   3.751   3.830
 1891TIP3   OH2 5678   0.068   4.394   1.508
 1891TIP3    H1 5679   0.157   4.367   1.486
 1891TIP3    H2 5680   0.028   4.315   1.545
 1892TIP3   OH2 5681   5.960   3.563   2.118
 1892TIP3    H1 5682   5.918   3.649   2.124
 1892TIP3    H2 5683   6.029   3.575   2.053
 1893TIP3   OH2 5684   0.004   5.014   1.556
 1893TIP3    H1 5685  -0.017   4.948   1.622
 1893TIP3    H2 5686   0.076   5.064   1.594
 1894TIP3   OH2 5687   2.826   5.447   3.971
 1894TIP3    H1 5688   2.792   5.383   4.034
 1894TIP3    H2 5689   2.748   5.479   3.926
 1895TIP3   OH2 5690   5.244   3.698   2.918
 1895TIP3    H1 5691   5.242   3.688   3.013
 1895TIP3    H2 5692   5.332   3.731   2.899
 1896TIP3   OH2 5693   4.165   5.580   5.171
 1896TIP3    H1 5694   4.078   5.613   5.193
 1896TIP3    H2 5695   4.161   5.561   5.077
 1897TIP3   OH2 5696   6.197   3.282   4.317
 1897TIP3    H1 5697   6.148   3.233   4.382
 1897TIP3    H2 5698   6.141   3.283   4.239
 1898TIP3   OH2 5699   3.047   1.394   2.219
 1898TIP3    H1 5700   3.058   1.305   2.253
 1898TIP3    H2 5701   3.065   1.451   2.294
 1899TIP3   OH2 5702   2.515   2.442   3.019
 1899TIP3    H1 5703   2.456   2.410   2.951
 1899TIP3    H2 5704   2.543   2.363   3.065
 1900TIP3   OH2 5705   4.394   1.911   2.972
 1900TIP3    H1 5706   4.302   1.889   2.954
 1900TIP3    H2 5707   4.443   1.836   2.939
 1901TIP3   OH2 5708   4.655   5.792   2.199
 1901TIP3    H1 5709   4.564   5.769   2.177
 1901TIP3    H2 5710   4.706   5.765   2.123
 1902TIP3   OH2 5711   5.702   5.130   5.158
 1902TIP3    H1 5712   5.725   5.040   5.134
 1902TIP3    H2 5713   5.725   5.137   5.250
 1903TIP3   OH2 5714   1.427   0.408   4.158
 1903TIP3    H1 5715   1.467   0.323   4.174
 1903TIP3    H2 5716   1.407   0.442   4.245
 1904TIP3   OH2 5717   1.017   5.616   2.386
 1904TIP3    H1 5718   1.023   5.683   2.318
 1904TIP3    H2 5719   1.069   5.650   2.459
 1905TIP3   OH2 5720   6.176   5.393   1.680
 1905TIP3    H1 5721   6.264   5.428   1.667
 1905TIP3    H2 5722   6.118   5.469   1.675
 1906TIP3   OH2 5723   1.127   2.246   1.759
 1906TIP3    H1 5724   1.140   2.329   1.804
 1906TIP3    H2 5725   1.198   2.190   1.791
 1907TIP3   OH2 5726   0.189   1.731   2.679
 1907TIP3    H1 5727   0.160   1.808   2.630
 1907TIP3    H2 5728   0.208   1.764   2.767
 1908TIP3   OH2 5729   4.492   2.411   4.330
 1908TIP3    H1 5730   4.443   2.425   4.249
 1908TIP3    H2 5731   4.473   2.488   4.383
 1909TIP3   OH2 5732   0.554   1.780   0.603
 1909TIP3    H1 5733   0.530   1.768   0.511
 1909TIP3    H2 5734   0.488   1.731   0.652
 1910TIP3   OH2 5735   0.895   3.994   2.093
 1910TIP3    H1 5736   0.841   4.040   2.158
 1910TIP3    H2 5737   0.841   3.993   2.014
 1911TIP3   OH2 5738   3.420   4.554   5.116
 1911TIP3    H1 5739   3.363   4.500   5.171
 1911TIP3    H2 5740   3.449   4.496   5.046
 1912TIP3   OH2 5741   3.147   3.016   2.729
 1912TIP3    H1 5742   3.090   2.987   2.659
 1912TIP3    H2 5743   3.230   2.971   2.713
 1913TIP3   OH2 5744   0.435   2.436   3.754
 1913TIP3    H1 5745   0.514   2.408   3.707
 1913TIP3    H2 5746   0.438   2.389   3.837
 1914TIP3   OH2 5747   5.315   2.530   2.059
 1914TIP3    H1 5748   5.338   2.495   1.973
 1914TIP3    H2 5749   5.248   2.470   2.092
 1915TIP3   OH2 5750   3.284   1.809   2.804
 1915TIP3    H1 5751   3.329   1.891   2.825
 1915TIP3    H2 5752   3.328   1.743   2.858
 1916TIP3   OH2 5753   3.487   2.278   0.538
 1916TIP3    H1 5754   3.562   2.223   0.559
 1916TIP3    H2 5755   3.507   2.315   0.452
 1917TIP3   OH2 5756   6.198   3.308   1.246
 1917TIP3    H1 5757   6.112   3.267   1.236
 1917TIP3    H2 5758   6.226   3.328   1.157
 1918TIP3   OH2 5759   3.810   4.406   1.853
 1918TIP3    H1 5760   3.889   4.451   1.820
 1918TIP3    H2 5761   3.828   4.391   1.945
 1919TIP3   OH2 5762   0.731   5.665   5.005
 1919TIP3    H1 5763   0.690   5.706   5.082
 1919TIP3    H2 5764   0.789   5.733   4.970
 1920TIP3   OH2 5765   2.178   2.947   3.296
 1920TIP3    H1 5766   2.142   2.889   3.229
 1920TIP3    H2 5767   2.263   2.974   3.261
 1921TIP3   OH2 5768   2.162   2.452   1.003
 1921TIP3    H1 5769   2.130   2.363   0.989
 1921TIP3    H2 5770   2.174   2.459   1.097
 1922TIP3   OH2 5771   0.441   0.242   1.352
 1922TIP3    H1 5772   0.429   0.326   1.396
 1922TIP3    H2 5773   0.354   0.219   1.320
 1923TIP3   OH2 5774   1.090   2.802   0.708
 1923TIP3    H1 5775   1.126   2.808   0.797
 1923TIP3    H2 5776   1.106   2.711   0.682
 1924TIP3   OH2 5777   4.991   2.119   4.576
 1924TIP3    H1 5778   4.902   2.125   4.541
 1924TIP3    H2 5779   5.048   2.118   4.499
 1925TIP3   OH2 5780   2.941   4.963   0.496
 1925TIP3    H1 5781   2.961   4.981   0.588
 1925TIP3    H2 5782   3.002   5.018   0.447
 1926TIP3   OH2 5783   5.366   5.265   3.733
 1926TIP3    H1 5784   5.350   5.293   3.643
 1926TIP3    H2 5785   5.398   5.344   3.778
 1927TIP3   OH2 5786   3.349   1.244   4.562
 1927TIP3    H1 5787   3.300   1.168   4.593
 1927TIP3    H2 5788   3.304   1.319   4.600
 1928TIP3   OH2 5789   3.757   2.563   2.493
 1928TIP3    H1 5790   3.753   2.485   2.548
 1928TIP3    H2 5791   3.780   2.634   2.553
 1929TIP3   OH2 5792   6.236   0.429   0.954
 1929TIP3    H1 5793   6.203   0.509   0.913
 1929TIP3    H2 5794   6.309   0.402   0.897
 1930TIP3   OH2 5795   6.228   4.281   0.670
 1930TIP3    H1 5796   6.144   4.245   0.644
 1930TIP3    H2 5797   6.218   4.300   0.764
 1931TIP3   OH2 5798   2.528   0.365   2.406
 1931TIP3    H1 5799   2.440   0.401   2.420
 1931TIP3    H2 5800   2.575   0.435   2.360
 1932TIP3   OH2 5801   2.653   1.874   4.705
 1932TIP3    H1 5802   2.735   1.836   4.673
 1932TIP3    H2 5803   2.671   1.897   4.796
 1933TIP3   OH2 5804   0.296   3.418   0.149
 1933TIP3    H1 5805   0.287   3.480   0.077
 1933TIP3    H2 5806   0.209   3.380   0.159
 1934TIP3   OH2 5807   1.535   0.367   3.051
 1934TIP3    H1 5808   1.467   0.390   2.988
 1934TIP3    H2 5809   1.520   0.427   3.125
 1935TIP3   OH2 5810   0.673   2.219   3.206
 1935TIP3    H1 5811   0.758   2.246   3.174
 1935TIP3    H2 5812   0.636   2.166   3.135
 1936TIP3   OH2 5813   4.873   4.681   4.550
 1936TIP3    H1 5814   4.859   4.704   4.642
 1936TIP3    H2 5815   4.838   4.592   4.543
 1937TIP3   OH2 5816   4.636   4.988   1.490
 1937TIP3    H1 5817   4.661   4.897   1.472
 1937TIP3    H2 5818   4.645   5.033   1.406
 1938TIP3   OH2 5819   0.372   4.204   2.571
 1938TIP3    H1 5820   0.425   4.148   2.627
 1938TIP3    H2 5821   0.424   4.283   2.559
 1939TIP3   OH2 5822   1.215   5.922   0.078
 1939TIP3    H1 5823   1.265   5.963   0.007
 1939TIP3    H2 5824   1.242   5.969   0.156
 1940TIP3   OH2 5825   3.984   1.303   0.150
 1940TIP3    H1 5826   3.957   1.369   0.213
 1940TIP3    H2 5827   3.939   1.223   0.178
 1941TIP3   OH2 5828   0.191   1.574   3.218
 1941TIP3    H1 5829   0.224   1.506   3.278
 1941TIP3    H2 5830   0.231   1.655   3.248
 1942TIP3   OH2 5831  -0.024   4.179   4.881
 1942TIP3    H1 5832   0.034   4.256   4.872
 1942TIP3    H2 5833   0.031   4.113   4.922
 1943TIP3   OH2 5834   4.872   2.603   2.827
 1943TIP3    H1 5835   4.944   2.646   2.783
 1943TIP3    H2 5836   4.799   2.664   2.821
 1944TIP3   OH2 5837   1.406   3.807   4.837
 1944TIP3    H1 5838   1.499   3.833   4.841
 1944TIP3    H2 5839   1.362   3.882   4.799
 1945TIP3   OH2 5840   2.557   3.333   2.699
 1945TIP3    H1 5841   2.604   3.250   2.707
 1945TIP3    H2 5842   2.514   3.344   2.783
 1946TIP3   OH2 5843   3.407   4.995   1.990
 1946TIP3    H1 5844   3.421   5.034   2.076
 1946TIP3    H2 5845   3.314   5.010   1.972
 1947TIP3   OH2 5846   3.719   2.356   2.656
 1947TIP3    H1 5847   3.674   2.373   2.739
 1947TIP3    H2 5848   3.652   2.322   2.598
 1948TIP3   OH2 5849   0.635   2.265   4.231
 1948TIP3    H1 5850   0.567   2.198   4.224
 1948TIP3    H2 5851   0.665   2.258   4.322
 1949TIP3   OH2 5852   6.246   0.931   3.670
 1949TIP3    H1 5853   6.169   0.980   3.700
 1949TIP3    H2 5854   6.281   0.984   3.599
 1950TIP3   OH2 5855   6.013   0.156   1.877
 1950TIP3    H1 5856   5.945   0.173   1.812
 1950TIP3    H2 5857   6.058   0.077   1.845
 1951TIP3   OH2 5858   3.406   1.105   0.967
 1951TIP3    H1 5859   3.395   1.162   0.890
 1951TIP3    H2 5860   3.457   1.031   0.934
 1952TIP3   OH2 5861   2.242   0.365   3.807
 1952TIP3    H1 5862   2.161   0.342   3.762
 1952TIP3    H2 5863   2.286   0.281   3.821
 1953TIP3   OH2 5864   4.267   0.082   3.722
 1953TIP3    H1 5865   4.308   0.136   3.654
 1953TIP3    H2 5866   4.204   0.027   3.674
 1954TIP3   OH2 5867   2.066   6.005   3.310
 1954TIP3    H1 5868   2.011   6.047   3.376
 1954TIP3    H2 5869   2.012   5.932   3.278
 1955TIP3   OH2 5870   4.349   0.942   2.705
 1955TIP3    H1 5871   4.275   0.935   2.765
 1955TIP3    H2 5872   4.426   0.934   2.762
 1956TIP3   OH2 5873   5.221   4.014   4.432
 1956TIP3    H1 5874   5.307   4.023   4.391
 1956TIP3    H2 5875   5.189   4.103   4.442
 1957TIP3   OH2 5876   5.240   1.776   4.351
 1957TIP3    H1 5877   5.146   1.790   4.363
 1957TIP3    H2 5878   5.263   1.833   4.277
 1958TIP3   OH2 5879   1.431   3.332   0.924
 1958TIP3    H1 5880   1.425   3.253   0.870
 1958TIP3    H2 5881   1.503   3.314   0.985
 1959TIP3   OH2 5882   1.280   3.509   2.974
 1959TIP3    H1 5883   1.264   3.420   3.006
 1959TIP3    H2 5884   1.323   3.496   2.889
 1960TIP3   OH2 5885   0.043   5.893   2.982
 1960TIP3    H1 5886   0.027   5.934   2.897
 1960TIP3    H2 5887  -0.018   5.819   2.985
 1961TIP3   OH2 5888   1.401   4.356   4.285
 1961TIP3    H1 5889   1.355   4.290   4.232
 1961TIP3    H2 5890   1.490   4.356   4.250
 1962TIP3   OH2 5891   1.118   0.051   3.877
 1962TIP3    H1 5892   1.107  -0.006   3.953
 1962TIP3    H2 5893   1.075   0.005   3.805
 1963TIP3   OH2 5894   1.932   2.258   0.028
 1963TIP3    H1 5895   1.926   2.339   0.077
 1963TIP3    H2 5896   1.843   2.243  -0.005
 1964TIP3   OH2 5897   0.208   0.086   4.797
 1964TIP3    H1 5898   0.277   0.019   4.800
 1964TIP3    H2 5899   0.253   0.168   4.817
 1965TIP3   OH2 5900   4.712   0.915   0.370
 1965TIP3    H1 5901   4.661   0.932   0.449
 1965TIP3    H2 5902   4.708   0.820   0.359
 1966TIP3   OH2 5903   2.814   4.527   1.650
 1966TIP3    H1 5904   2.739   4.492   1.603
 1966TIP3    H2 5905   2.889   4.511   1.592
 1967TIP3   OH2 5906   2.264   2.019   1.541
 1967TIP3    H1 5907   2.307   2.053   1.462
 1967TIP3    H2 5908   2.333   1.969   1.585
 1968TIP3   OH2 5909   3.168   5.401   3.663
 1968TIP3    H1 5910   3.175   5.333   3.595
 1968TIP3    H2 5911   3.083   5.441   3.648
 1969TIP3   OH2 5912   2.354   2.992   4.143
 1969TIP3    H1 5913   2.336   2.968   4.233
 1969TIP3    H2 5914   2.443   3.026   4.144
 1970TIP3   OH2 5915   5.973   2.667   0.878
 1970TIP3    H1 5916   5.886   2.654   0.917
 1970TIP3    H2 5917   5.956   2.726   0.803
 1971TIP3   OH2 5918   5.817   1.114   1.809
 1971TIP3    H1 5919   5.799   1.094   1.901
 1971TIP3    H2 5920   5.765   1.051   1.760
 1972TIP3   OH2 5921   6.322   2.675   4.966
 1972TIP3    H1 5922   6.346   2.595   5.012
 1972TIP3    H2 5923   6.253   2.713   5.021
 1973TIP3   OH2 5924   1.113   1.914   0.428
 1973TIP3    H1 5925   1.152   1.883   0.509
 1973TIP3    H2 5926   1.147   1.856   0.360
 1974TIP3   OH2 5927   3.026   2.177   0.884
 1974TIP3    H1 5928   3.087   2.104   0.882
 1974TIP3    H2 5929   3.015   2.202   0.792
 1975TIP3   OH2 5930   5.895   3.928   2.435
 1975TIP3    H1 5931   5.879   4.020   2.415
 1975TIP3    H2 5932   5.856   3.880   2.362
 1976TIP3   OH2 5933   6.010   4.880   1.047
 1976TIP3    H1 5934   6.021   4.854   1.139
 1976TIP3    H2 5935   6.097   4.911   1.020
 1977TIP3   OH2 5936   4.702   1.675   2.797
 1977TIP3    H1 5937   4.640   1.739   2.761
 1977TIP3    H2 5938   4.736   1.717   2.875
 1978TIP3   OH2 5939   1.069   3.786   4.336
 1978TIP3    H1 5940   1.080   3.752   4.424
 1978TIP3    H2 5941   0.975   3.804   4.328
 1979TIP3   OH2 5942   2.101   2.717   3.472
 1979TIP3    H1 5943   2.174   2.656   3.471
 1979TIP3    H2 5944   2.136   2.798   3.434
 1980TIP3   OH2 5945   4.302   2.313   3.078
 1980TIP3    H1 5946   4.371   2.280   3.020
 1980TIP3    H2 5947   4.229   2.253   3.063
 1981TIP3   OH2 5948   1.533   4.405   0.519
 1981TIP3    H1 5949   1.504   4.492   0.492
 1981TIP3    H2 5950   1.626   4.402   0.498
 1982TIP3   OH2 5951   3.228   1.125   1.683
 1982TIP3    H1 5952   3.200   1.143   1.594
 1982TIP3    H2 5953   3.155   1.153   1.738
 1983TIP3   OH2 5954   4.925   5.170   3.476
 1983TIP3    H1 5955   4.870   5.118   3.533
 1983TIP3    H2 5956   4.870   5.189   3.400
 1984TIP3   OH2 5957   4.723   5.517   2.347
 1984TIP3    H1 5958   4.675   5.597   2.367
 1984TIP3    H2 5959   4.815   5.541   2.360
 1985TIP3   OH2 5960   4.819   3.152   3.835
 1985TIP3    H1 5961   4.727   3.123   3.832
 1985TIP3    H2 5962   4.855   3.127   3.750
 1986TIP3   OH2 5963   5.158   3.746   4.052
 1986TIP3    H1 5964   5.172   3.691   3.975
 1986TIP3    H2 5965   5.237   3.734   4.105
 1987TIP3   OH2 5966   1.369   2.198   0.709
 1987TIP3    H1 5967   1.379   2.264   0.640
 1987TIP3    H2 5968   1.274   2.187   0.718
 1988TIP3   OH2 5969   3.570   0.616   5.012
 1988TIP3    H1 5970   3.544   0.682   4.949
 1988TIP3    H2 5971   3.580   0.663   5.095
 1989TIP3   OH2 5972   5.793   1.082   4.133
 1989TIP3    H1 5973   5.773   1.150   4.069
 1989TIP3    H2 5974   5.768   1.000   4.089
 1990TIP3   OH2 5975   2.522   0.206   2.859
 1990TIP3    H1 5976   2.469   0.155   2.920
 1990TIP3    H2 5977   2.465   0.221   2.784
 1991TIP3   OH2 5978   1.700   3.430   3.280
 1991TIP3    H1 5979   1.612   3.465   3.296
 1991TIP3    H2 5980   1.696   3.394   3.192
 1992TIP3   OH2 5981   5.812   3.173   3.047
 1992TIP3    H1 5982   5.866   3.129   3.113
 1992TIP3    H2 5983   5.816   3.115   2.971
 1993TIP3   OH2 5984   1.579   4.148   3.691
 1993TIP3    H1 5985   1.524   4.148   3.613
 1993TIP3    H2 5986   1.602   4.056   3.705
 1994TIP3   OH2 5987   3.981   3.929   1.840
 1994TIP3    H1 5988   4.062   3.878   1.837
 1994TIP3    H2 5989   3.912   3.863   1.841
 1995TIP3   OH2 5990   3.950   3.949   4.264
 1995TIP3    H1 5991   3.961   3.857   4.292
 1995TIP3    H2 5992   4.011   3.998   4.320
 1996TIP3   OH2 5993   3.417   1.334   1.790
 1996TIP3    H1 5994   3.344   1.299   1.739
 1996TIP3    H2 5995   3.378   1.399   1.848
 1997TIP3   OH2 5996   5.091   2.103   4.324
 1997TIP3    H1 5997   5.092   2.007   4.330
 1997TIP3    H2 5998   5.011   2.123   4.276
 1998TIP3   OH2 5999   0.722   1.849   5.096
 1998TIP3    H1 6000   0.628   1.843   5.076
 1998TIP3    H2 6001   0.725   1.866   5.190
 1999TIP3   OH2 6002   1.604   1.140   1.260
 1999TIP3    H1 6003   1.540   1.081   1.220
 1999TIP3    H2 6004   1.599   1.121   1.353
 2000TIP3   OH2 6005   2.307   1.240   3.396
 2000TIP3    H1 6006   2.236   1.301   3.417
 2000TIP3    H2 6007   2.349   1.224   3.480
 2001TIP3   OH2 6008   2.571   3.945   4.494
 2001TIP3    H1 6009   2.539   4.028   4.459
 2001TIP3    H2 6010   2.636   3.915   4.431
 2002TIP3   OH2 6011   3.351   0.865   2.834
 2002TIP3    H1 6012   3.303   0.810   2.897
 2002TIP3    H2 6013   3.283   0.900   2.777
 2003TIP3   OH2 6014   5.532   2.714   0.650
 2003TIP3    H1 6015   5.546   2.685   0.740
 2003TIP3    H2 6016   5.518   2.633   0.600
 2004TIP3   OH2 6017   0.818   3.018   3.956
 2004TIP3    H1 6018   0.729   2.998   3.985
 2004TIP3    H2 6019   0.863   3.045   4.037
 2005TIP3   OH2 6020   3.372   5.990   4.614
 2005TIP3    H1 6021   3.357   5.914   4.670
 2005TIP3    H2 6022   3.467   5.990   4.598
 2006TIP3   OH2 6023   2.821   3.359   1.281
 2006TIP3    H1 6024   2.851   3.268   1.290
 2006TIP3    H2 6025   2.777   3.361   1.197
 2007TIP3   OH2 6026   3.906   1.276   5.135
 2007TIP3    H1 6027   3.946   1.339   5.074
 2007TIP3    H2 6028   3.857   1.330   5.197
 2008TIP3   OH2 6029   0.812   5.645   4.008
 2008TIP3    H1 6030   0.846   5.680   4.091
 2008TIP3    H2 6031   0.878   5.669   3.943
 2009TIP3   OH2 6032   2.253   4.468   2.641
 2009TIP3    H1 6033   2.257   4.428   2.728
 2009TIP3    H2 6034   2.160   4.469   2.619
 2010TIP3   OH2 6035   2.144   0.712   2.546
 2010TIP3    H1 6036   2.086   0.693   2.620
 2010TIP3    H2 6037   2.131   0.805   2.528
 2011TIP3   OH2 6038   0.564   5.209   0.597
 2011TIP3    H1 6039   0.530   5.124   0.567
 2011TIP3    H2 6040   0.500   5.272   0.565
 2012TIP3   OH2 6041   6.231   3.478   0.312
 2012TIP3    H1 6042   6.180   3.524   0.245
 2012TIP3    H2 6043   6.274   3.408   0.264
 2013TIP3   OH2 6044   5.649   0.932   0.800
 2013TIP3    H1 6045   5.609   0.905   0.717
 2013TIP3    H2 6046   5.584   0.909   0.866
 2014TIP3   OH2 6047   4.153   5.006   3.165
 2014TIP3    H1 6048   4.177   4.916   3.143
 2014TIP3    H2 6049   4.107   5.039   3.088
 2015TIP3   OH2 6050   2.046   1.894   4.790
 2015TIP3    H1 6051   2.047   1.881   4.885
 2015TIP3    H2 6052   1.966   1.851   4.761
 2016TIP3   OH2 6053   0.424   2.991   4.420
 2016TIP3    H1 6054   0.513   3.019   4.441
 2016TIP3    H2 6055   0.369   3.047   4.474
 2017TIP3   OH2 6056   2.418   3.388   1.739
 2017TIP3    H1 6057   2.462   3.309   1.772
 2017TIP3    H2 6058   2.354   3.355   1.676
 2018TIP3   OH2 6059   2.317   1.407   5.037
 2018TIP3    H1 6060   2.402   1.438   5.005
 2018TIP3    H2 6061   2.266   1.391   4.957
 2019TIP3   OH2 6062   5.197   5.121   0.508
 2019TIP3    H1 6063   5.182   5.080   0.593
 2019TIP3    H2 6064   5.183   5.051   0.445
 2020TIP3   OH2 6065   5.059   1.543   3.126
 2020TIP3    H1 6066   5.052   1.528   3.032
 2020TIP3    H2 6067   5.129   1.607   3.135
 2021TIP3   OH2 6068   4.088   0.957   1.961
 2021TIP3    H1 6069   4.105   1.039   1.914
 2021TIP3    H2 6070   4.173   0.914   1.966
 2022TIP3   OH2 6071   3.523   2.672   3.029
 2022TIP3    H1 6072   3.490   2.759   3.052
 2022TIP3    H2 6073   3.486   2.614   3.096
 2023TIP3   OH2 6074   5.348   0.558   1.356
 2023TIP3    H1 6075   5.356   0.500   1.431
 2023TIP3    H2 6076   5.406   0.631   1.375
 2024TIP3   OH2 6077   4.590   0.579   0.842
 2024TIP3    H1 6078   4.560   0.645   0.779
 2024TIP3    H2 6079   4.632   0.512   0.788
 2025TIP3   OH2 6080   3.787   0.398   1.017
 2025TIP3    H1 6081   3.826   0.484   1.004
 2025TIP3    H2 6082   3.826   0.366   1.098
 2026TIP3   OH2 6083   2.866   1.294   1.849
 2026TIP3    H1 6084   2.781   1.273   1.887
 2026TIP3    H2 6085   2.928   1.238   1.897
 2027TIP3   OH2 6086   2.849   4.847   0.201
 2027TIP3    H1 6087   2.934   4.821   0.235
 2027TIP3    H2 6088   2.826   4.925   0.252
 2028TIP3   OH2 6089   4.522   5.033   4.561
 2028TIP3    H1 6090   4.462   5.040   4.487
 2028TIP3    H2 6091   4.467   5.046   4.638
 2029TIP3   OH2 6092   0.231   4.536   2.407
 2029TIP3    H1 6093   0.210   4.626   2.384
 2029TIP3    H2 6094   0.317   4.520   2.368
 2030TIP3   OH2 6095   3.735   2.622   4.353
 2030TIP3    H1 6096   3.659   2.576   4.389
 2030TIP3    H2 6097   3.805   2.557   4.354
 2031TIP3   OH2 6098   3.442   4.269   1.751
 2031TIP3    H1 6099   3.522   4.222   1.728
 2031TIP3    H2 6100   3.468   4.361   1.755
 2032TIP3   OH2 6101   4.048   2.974   4.410
 2032TIP3    H1 6102   4.014   3.053   4.367
 2032TIP3    H2 6103   4.138   2.995   4.432
 2033TIP3   OH2 6104   4.567   2.902   0.220
 2033TIP3    H1 6105   4.639   2.925   0.279
 2033TIP3    H2 6106   4.583   2.954   0.141
 2034TIP3   OH2 6107   4.083   2.922   3.257
 2034TIP3    H1 6108   3.991   2.916   3.284
 2034TIP3    H2 6109   4.129   2.862   3.314
 2035TIP3   OH2 6110   0.146   0.558   4.424
 2035TIP3    H1 6111   0.195   0.584   4.502
 2035TIP3    H2 6112   0.083   0.493   4.455
 2036TIP3   OH2 6113   3.234   5.318   2.215
 2036TIP3    H1 6114   3.292   5.243   2.228
 2036TIP3    H2 6115   3.251   5.345   2.125
 2037TIP3   OH2 6116   4.192   3.338   1.429
 2037TIP3    H1 6117   4.146   3.307   1.507
 2037TIP3    H2 6118   4.135   3.407   1.393
 2038TIP3   OH2 6119   3.865   3.177   1.335
 2038TIP3    H1 6120   3.853   3.125   1.255
 2038TIP3    H2 6121   3.934   3.239   1.312
 2039TIP3   OH2 6122   4.772   5.923   2.433
 2039TIP3    H1 6123   4.742   5.885   2.350
 2039TIP3    H2 6124   4.861   5.954   2.415
 2040TIP3   OH2 6125   5.889   2.973   5.130
 2040TIP3    H1 6126   5.928   3.033   5.194
 2040TIP3    H2 6127   5.851   2.903   5.182
 2041TIP3   OH2 6128   6.035   1.442   1.977
 2041TIP3    H1 6129   6.090   1.364   1.987
 2041TIP3    H2 6130   6.076   1.507   2.035
 2042TIP3   OH2 6131   3.428   5.015   1.015
 2042TIP3    H1 6132   3.478   4.986   0.939
 2042TIP3    H2 6133   3.349   4.961   1.014
 2043TIP3   OH2 6134   5.274   1.969   3.224
 2043TIP3    H1 6135   5.324   2.040   3.263
 2043TIP3    H2 6136   5.266   1.992   3.131
 2044TIP3   OH2 6137   4.074   2.822   0.318
 2044TIP3    H1 6138   4.094   2.732   0.343
 2044TIP3    H2 6139   4.159   2.867   0.322
 2045TIP3   OH2 6140   4.189   2.666   4.036
 2045TIP3    H1 6141   4.121   2.708   4.088
 2045TIP3    H2 6142   4.189   2.714   3.953
 2046TIP3   OH2 6143   2.622   1.563   2.584
 2046TIP3    H1 6144   2.685   1.515   2.637
 2046TIP3    H2 6145   2.555   1.498   2.562
 2047TIP3   OH2 6146   4.858   1.408   0.579
 2047TIP3    H1 6147   4.863   1.313   0.585
 2047TIP3    H2 6148   4.803   1.424   0.502
 2048TIP3   OH2 6149   5.925   3.148   0.216
 2048TIP3    H1 6150   5.981   3.180   0.145
 2048TIP3    H2 6151   5.836   3.171   0.189
 2049TIP3   OH2 6152   4.447   3.906   5.102
 2049TIP3    H1 6153   4.378   3.864   5.051
 2049TIP3    H2 6154   4.494   3.833   5.144
 2050TIP3   OH2 6155   6.244   5.194   4.893
 2050TIP3    H1 6156   6.247   5.128   4.961
 2050TIP3    H2 6157   6.151   5.202   4.871
 2051TIP3   OH2 6158   3.643   0.325   1.580
 2051TIP3    H1 6159   3.595   0.381   1.519
 2051TIP3    H2 6160   3.732   0.360   1.581
 2052TIP3   OH2 6161   1.892   0.720   2.120
 2052TIP3    H1 6162   1.844   0.748   2.198
 2052TIP3    H2 6163   1.906   0.801   2.071
 2053TIP3   OH2 6164   4.155   2.322   4.235
 2053TIP3    H1 6165   4.215   2.373   4.181
 2053TIP3    H2 6166   4.137   2.243   4.183
 2054TIP3   OH2 6167   3.037   2.850   1.496
 2054TIP3    H1 6168   3.062   2.892   1.414
 2054TIP3    H2 6169   3.047   2.756   1.478
 2055TIP3   OH2 6170   3.615   5.673   4.837
 2055TIP3    H1 6171   3.601   5.586   4.800
 2055TIP3    H2 6172   3.704   5.672   4.870
 2056TIP3   OH2 6173   5.974   2.170   2.332
 2056TIP3    H1 6174   5.907   2.193   2.268
 2056TIP3    H2 6175   6.057   2.190   2.289
 2057TIP3   OH2 6176   0.803   2.707   0.009
 2057TIP3    H1 6177   0.733   2.771  -0.006
 2057TIP3    H2 6178   0.880   2.746  -0.033
 2058TIP3   OH2 6179   4.750   2.120   2.918
 2058TIP3    H1 6180   4.735   2.032   2.954
 2058TIP3    H2 6181   4.773   2.104   2.826
 2059TIP3   OH2 6182   2.766   0.500   2.203
 2059TIP3    H1 6183   2.854   0.520   2.170
 2059TIP3    H2 6184   2.781   0.460   2.289
 2060TIP3   OH2 6185   1.393   5.035   0.511
 2060TIP3    H1 6186   1.301   5.019   0.489
 2060TIP3    H2 6187   1.440   4.962   0.471
 2061TIP3   OH2 6188   4.215   4.164   3.525
 2061TIP3    H1 6189   4.250   4.076   3.539
 2061TIP3    H2 6190   4.260   4.195   3.446
 2062TIP3   OH2 6191   6.278   1.548   2.527
 2062TIP3    H1 6192   6.372   1.533   2.525
 2062TIP3    H2 6193   6.247   1.499   2.604
 2063TIP3   OH2 6194   1.307   1.366   5.146
 2063TIP3    H1 6195   1.377   1.315   5.107
 2063TIP3    H2 6196   1.338   1.386   5.235
 2064TIP3   OH2 6197   0.398   2.567   1.367
 2064TIP3    H1 6198   0.362   2.505   1.304
 2064TIP3    H2 6199   0.453   2.514   1.424
 2065TIP3   OH2 6200   5.354   4.969   2.954
 2065TIP3    H1 6201   5.416   4.975   3.027
 2065TIP3    H2 6202   5.408   4.939   2.880
 2066TIP3   OH2 6203   1.812   4.414   0.532
 2066TIP3    H1 6204   1.898   4.403   0.490
 2066TIP3    H2 6205   1.824   4.486   0.593
 2067TIP3   OH2 6206   4.963   5.030   4.079
 2067TIP3    H1 6207   5.049   5.069   4.092
 2067TIP3    H2 6208   4.915   5.093   4.026
 2068TIP3   OH2 6209   2.665   3.204   2.127
 2068TIP3    H1 6210   2.754   3.182   2.152
 2068TIP3    H2 6211   2.617   3.209   2.210
 2069TIP3   OH2 6212   1.231   5.775   1.019
 2069TIP3    H1 6213   1.202   5.865   1.031
 2069TIP3    H2 6214   1.231   5.737   1.106
 2070TIP3   OH2 6215   4.508   1.544   1.040
 2070TIP3    H1 6216   4.535   1.455   1.063
 2070TIP3    H2 6217   4.444   1.568   1.108
 2071TIP3   OH2 6218   5.752   5.437   3.516
 2071TIP3    H1 6219   5.814   5.365   3.516
 2071TIP3    H2 6220   5.710   5.433   3.430
 2072TIP3   OH2 6221   6.363   3.714   1.442
 2072TIP3    H1 6222   6.312   3.776   1.493
 2072TIP3    H2 6223   6.303   3.643   1.422
 2073TIP3   OH2 6224   4.579   4.840   3.233
 2073TIP3    H1 6225   4.554   4.924   3.272
 2073TIP3    H2 6226   4.497   4.792   3.224
 2074TIP3   OH2 6227   1.904   0.883   3.179
 2074TIP3    H1 6228   1.894   0.791   3.153
 2074TIP3    H2 6229   1.943   0.879   3.266
 2075TIP3   OH2 6230   1.973   4.909   2.069
 2075TIP3    H1 6231   1.969   5.004   2.084
 2075TIP3    H2 6232   1.923   4.871   2.141
 2076TIP3   OH2 6233   6.097   4.697   3.612
 2076TIP3    H1 6234   6.090   4.778   3.560
 2076TIP3    H2 6235   6.064   4.721   3.698
 2077TIP3   OH2 6236   1.659   5.196   3.170
 2077TIP3    H1 6237   1.734   5.228   3.221
 2077TIP3    H2 6238   1.605   5.274   3.156
 2078TIP3   OH2 6239   3.755   2.477   1.701
 2078TIP3    H1 6240   3.729   2.410   1.638
 2078TIP3    H2 6241   3.815   2.534   1.652
 2079TIP3   OH2 6242   3.972   3.431   0.714
 2079TIP3    H1 6243   3.939   3.355   0.666
 2079TIP3    H2 6244   3.944   3.417   0.805
 2080TIP3   OH2 6245   1.061   5.815   4.927
 2080TIP3    H1 6246   1.039   5.875   4.998
 2080TIP3    H2 6247   1.035   5.862   4.847
 2081TIP3   OH2 6248   4.114   4.675   3.351
 2081TIP3    H1 6249   4.098   4.600   3.408
 2081TIP3    H2 6250   4.028   4.700   3.318
 2082TIP3   OH2 6251   2.828   1.188   2.521
 2082TIP3    H1 6252   2.886   1.254   2.558
 2082TIP3    H2 6253   2.794   1.141   2.598
 2083TIP3   OH2 6254   4.956   4.503   0.894
 2083TIP3    H1 6255   5.042   4.514   0.853
 2083TIP3    H2 6256   4.897   4.558   0.841
 2084TIP3   OH2 6257   4.078   4.570   3.873
 2084TIP3    H1 6258   4.127   4.635   3.922
 2084TIP3    H2 6259   4.141   4.501   3.854
 2085TIP3   OH2 6260   1.478   2.414   1.087
 2085TIP3    H1 6261   1.526   2.335   1.062
 2085TIP3    H2 6262   1.503   2.430   1.178
 2086TIP3   OH2 6263   2.475   3.498   4.764
 2086TIP3    H1 6264   2.414   3.464   4.830
 2086TIP3    H2 6265   2.481   3.428   4.699
 2087TIP3   OH2 6266   5.907   4.254   0.650
 2087TIP3    H1 6267   5.939   4.341   0.625
 2087TIP3    H2 6268   5.897   4.207   0.567
 2088TIP3   OH2 6269   3.281   0.994   3.199
 2088TIP3    H1 6270   3.201   1.043   3.220
 2088TIP3    H2 6271   3.347   1.062   3.189
 2089TIP3   OH2 6272   2.628   4.854   1.808
 2089TIP3    H1 6273   2.587   4.861   1.895
 2089TIP3    H2 6274   2.557   4.827   1.750
 2090TIP3   OH2 6275   1.997   2.807   4.949
 2090TIP3    H1 6276   1.984   2.856   4.868
 2090TIP3    H2 6277   1.948   2.855   5.015
 2091TIP3   OH2 6278   2.997   5.233   2.842
 2091TIP3    H1 6279   2.942   5.273   2.909
 2091TIP3    H2 6280   3.045   5.164   2.888
 2092TIP3   OH2 6281   2.762   3.586   0.013
 2092TIP3    H1 6282   2.799   3.501   0.036
 2092TIP3    H2 6283   2.768   3.637   0.093
 2093TIP3   OH2 6284   1.906   3.651   1.271
 2093TIP3    H1 6285   1.837   3.714   1.293
 2093TIP3    H2 6286   1.880   3.617   1.185
 2094TIP3   OH2 6287   4.835   1.534   4.535
 2094TIP3    H1 6288   4.766   1.529   4.602
 2094TIP3    H2 6289   4.845   1.628   4.519
 2095TIP3   OH2 6290   5.839   2.216   3.445
 2095TIP3    H1 6291   5.928   2.213   3.481
 2095TIP3    H2 6292   5.783   2.190   3.519
 2096TIP3   OH2 6293   0.118   4.208   3.621
 2096TIP3    H1 6294   0.070   4.135   3.583
 2096TIP3    H2 6295   0.209   4.193   3.595
 2097TIP3   OH2 6296   3.191   5.393   3.941
 2097TIP3    H1 6297   3.214   5.375   3.850
 2097TIP3    H2 6298   3.130   5.324   3.965
 2098TIP3   OH2 6299   2.601   2.199   2.349
 2098TIP3    H1 6300   2.687   2.158   2.340
 2098TIP3    H2 6301   2.616   2.277   2.403
 2099TIP3   OH2 6302   6.085   0.189   4.130
 2099TIP3    H1 6303   6.130   0.120   4.082
 2099TIP3    H2 6304   6.152   0.256   4.145
 2100TIP3   OH2 6305   2.729   2.343   1.991
 2100TIP3    H1 6306   2.728   2.396   2.071
 2100TIP3    H2 6307   2.656   2.282   2.002
 2101TIP3   OH2 6308   1.503   2.929   2.207
 2101TIP3    H1 6309   1.576   2.892   2.157
 2101TIP3    H2 6310   1.470   2.999   2.152
 2102TIP3   OH2 6311   4.611   0.840   3.935
 2102TIP3    H1 6312   4.646   0.897   3.866
 2102TIP3    H2 6313   4.666   0.762   3.931
 2103TIP3   OH2 6314   6.197   4.108   3.866
 2103TIP3    H1 6315   6.165   4.019   3.849
 2103TIP3    H2 6316   6.292   4.099   3.870
 2104TIP3   OH2 6317   2.874   5.321   0.732
 2104TIP3    H1 6318   2.791   5.329   0.685
 2104TIP3    H2 6319   2.851   5.274   0.812
 2105TIP3   OH2 6320   3.419   1.497   1.360
 2105TIP3    H1 6321   3.340   1.491   1.307
 2105TIP3    H2 6322   3.441   1.406   1.381
 2106TIP3   OH2 6323   0.203   0.494   0.226
 2106TIP3    H1 6324   0.193   0.430   0.296
 2106TIP3    H2 6325   0.124   0.484   0.173
 2107TIP3   OH2 6326   0.928   3.767   2.303
 2107TIP3    H1 6327   0.951   3.677   2.327
 2107TIP3    H2 6328   0.889   3.803   2.383
 2108TIP3   OH2 6329   5.002   1.737   4.857
 2108TIP3    H1 6330   4.924   1.752   4.804
 2108TIP3    H2 6331   5.040   1.657   4.822
 2109TIP3   OH2 6332   0.534   2.376   1.082
 2109TIP3    H1 6333   0.589   2.430   1.138
 2109TIP3    H2 6334   0.595   2.334   1.022
 2110TIP3   OH2 6335   4.210   5.265   3.303
 2110TIP3    H1 6336   4.162   5.194   3.260
 2110TIP3    H2 6337   4.152   5.294   3.374
 2111TIP3   OH2 6338   4.272   0.368   3.002
 2111TIP3    H1 6339   4.328   0.294   2.979
 2111TIP3    H2 6340   4.249   0.354   3.093
 2112TIP3   OH2 6341   4.706   4.574   4.852
 2112TIP3    H1 6342   4.732   4.482   4.845
 2112TIP3    H2 6343   4.611   4.571   4.864
 2113TIP3   OH2 6344   3.705   3.106   4.400
 2113TIP3    H1 6345   3.642   3.132   4.333
 2113TIP3    H2 6346   3.686   3.014   4.416
 2114TIP3   OH2 6347   4.400   5.822   0.385
 2114TIP3    H1 6348   4.422   5.737   0.422
 2114TIP3    H2 6349   4.445   5.824   0.301
 2115TIP3   OH2 6350   2.604   2.761   4.813
 2115TIP3    H1 6351   2.554   2.681   4.798
 2115TIP3    H2 6352   2.695   2.733   4.813
 2116TIP3   OH2 6353   6.150   5.402   3.803
 2116TIP3    H1 6354   6.217   5.471   3.809
 2116TIP3    H2 6355   6.200   5.320   3.807
 2117TIP3   OH2 6356   2.585   5.661   2.558
 2117TIP3    H1 6357   2.493   5.671   2.532
 2117TIP3    H2 6358   2.616   5.750   2.571
 2118TIP3   OH2 6359   0.881   1.903   0.857
 2118TIP3    H1 6360   0.785   1.902   0.867
 2118TIP3    H2 6361   0.914   1.880   0.943
 2119TIP3   OH2 6362   1.379   3.275   4.843
 2119TIP3    H1 6363   1.403   3.193   4.887
 2119TIP3    H2 6364   1.352   3.248   4.755
 2120TIP3   OH2 6365   4.298   0.507   0.227
 2120TIP3    H1 6366   4.359   0.496   0.155
 2120TIP3    H2 6367   4.211   0.502   0.186
 2121TIP3   OH2 6368   6.343   2.437   5.098
 2121TIP3    H1 6369   6.263   2.385   5.091
 2121TIP3    H2 6370   6.332   2.488   5.178
 2122TIP3   OH2 6371   1.528   3.368   0.398
 2122TIP3    H1 6372   1.458   3.423   0.363
 2122TIP3    H2 6373   1.483   3.306   0.455
 2123TIP3   OH2 6374   0.375   2.362   5.051
 2123TIP3    H1 6375   0.294   2.378   5.004
 2123TIP3    H2 6376   0.390   2.441   5.103
 2124TIP3   OH2 6377   0.079   4.462   3.980
 2124TIP3    H1 6378   0.075   4.557   3.991
 2124TIP3    H2 6379   0.135   4.432   4.051
 2125TIP3   OH2 6380   2.585   4.099   3.138
 2125TIP3    H1 6381   2.495   4.091   3.170
 2125TIP3    H2 6382   2.637   4.049   3.201
 2126TIP3   OH2 6383   1.267   4.734   4.502
 2126TIP3    H1 6384   1.321   4.709   4.427
 2126TIP3    H2 6385   1.304   4.817   4.532
 2127TIP3   OH2 6386   3.188   1.034   2.644
 2127TIP3    H1 6387   3.132   0.987   2.582
 2127TIP3    H2 6388   3.141   1.116   2.661
 2128TIP3   OH2 6389   4.652   0.631   2.131
 2128TIP3    H1 6390   4.661   0.555   2.188
 2128TIP3    H2 6391   4.597   0.692   2.180
 2129TIP3   OH2 6392   6.190   1.956  -0.008
 2129TIP3    H1 6393   6.148   1.926   0.073
 2129TIP3    H2 6394   6.231   1.877  -0.044
 2130TIP3   OH2 6395   5.609   0.963   1.708
 2130TIP3    H1 6396   5.634   0.892   1.650
 2130TIP3    H2 6397   5.564   0.920   1.781
 2131TIP3   OH2 6398   1.851   0.011   3.827
 2131TIP3    H1 6399   1.776  -0.009   3.771
 2131TIP3    H2 6400   1.927  -0.001   3.769
 2132TIP3   OH2 6401   2.431   1.329   0.842
 2132TIP3    H1 6402   2.483   1.301   0.918
 2132TIP3    H2 6403   2.444   1.260   0.777
 2133TIP3   OH2 6404   5.104   3.541   1.989
 2133TIP3    H1 6405   5.116   3.544   1.895
 2133TIP3    H2 6406   5.078   3.451   2.007
 2134TIP3   OH2 6407   3.675   1.740   1.254
 2134TIP3    H1 6408   3.741   1.807   1.241
 2134TIP3    H2 6409   3.696   1.700   1.338
 2135TIP3   OH2 6410   2.703   2.227   2.674
 2135TIP3    H1 6411   2.798   2.228   2.664
 2135TIP3    H2 6412   2.677   2.139   2.648
 2136TIP3   OH2 6413   6.118   3.800   4.156
 2136TIP3    H1 6414   6.122   3.738   4.083
 2136TIP3    H2 6415   6.089   3.882   4.116
 2137TIP3   OH2 6416   0.888   5.265   4.770
 2137TIP3    H1 6417   0.913   5.349   4.734
 2137TIP3    H2 6418   0.945   5.254   4.846
 2138TIP3   OH2 6419   2.659   5.245   2.280
 2138TIP3    H1 6420   2.584   5.277   2.230
 2138TIP3    H2 6421   2.735   5.287   2.239
 2139TIP3   OH2 6422   1.508   2.531   4.087
 2139TIP3    H1 6423   1.444   2.601   4.100
 2139TIP3    H2 6424   1.475   2.458   4.140
 2140TIP3   OH2 6425   0.469   5.211   0.280
 2140TIP3    H1 6426   0.403   5.142   0.271
 2140TIP3    H2 6427   0.429   5.275   0.339
 2141TIP3   OH2 6428   5.037   5.512   0.257
 2141TIP3    H1 6429   5.097   5.585   0.240
 2141TIP3    H2 6430   4.977   5.512   0.183
 2142TIP3   OH2 6431   4.935   2.115   0.836
 2142TIP3    H1 6432   4.881   2.193   0.837
 2142TIP3    H2 6433   4.873   2.043   0.826
 2143TIP3   OH2 6434   1.133   0.846   3.431
 2143TIP3    H1 6435   1.103   0.782   3.367
 2143TIP3    H2 6436   1.205   0.803   3.476
 2144TIP3   OH2 6437   2.274   0.582   4.704
 2144TIP3    H1 6438   2.231   0.571   4.789
 2144TIP3    H2 6439   2.303   0.673   4.703
 2145TIP3   OH2 6440   3.823   3.013   3.623
 2145TIP3    H1 6441   3.810   2.981   3.533
 2145TIP3    H2 6442   3.827   2.934   3.676
 2146TIP3   OH2 6443   0.144   0.400   2.715
 2146TIP3    H1 6444   0.067   0.449   2.688
 2146TIP3    H2 6445   0.204   0.466   2.749
 2147TIP3   OH2 6446   5.967   4.504   0.593
 2147TIP3    H1 6447   5.998   4.509   0.503
 2147TIP3    H2 6448   6.019   4.569   0.640
 2148TIP3   OH2 6449   5.757   3.275   4.529
 2148TIP3    H1 6450   5.688   3.251   4.592
 2148TIP3    H2 6451   5.781   3.364   4.552
 2149TIP3   OH2 6452   6.278   0.583   2.625
 2149TIP3    H1 6453   6.337   0.642   2.672
 2149TIP3    H2 6454   6.191   0.602   2.661
 2150TIP3   OH2 6455   0.922   3.173   0.130
 2150TIP3    H1 6456   0.834   3.176   0.170
 2150TIP3    H2 6457   0.965   3.099   0.173
 2151TIP3   OH2 6458   1.368   5.092   3.268
 2151TIP3    H1 6459   1.440   5.094   3.331
 2151TIP3    H2 6460   1.344   4.999   3.262
 2152TIP3   OH2 6461   3.706   4.265   4.328
 2152TIP3    H1 6462   3.773   4.241   4.264
 2152TIP3    H2 6463   3.671   4.182   4.359
 2153TIP3   OH2 6464   2.067   5.391   2.993
 2153TIP3    H1 6465   2.104   5.333   2.927
 2153TIP3    H2 6466   1.984   5.421   2.955
 2154TIP3   OH2 6467   1.198   5.294   4.156
 2154TIP3    H1 6468   1.112   5.331   4.133
 2154TIP3    H2 6469   1.260   5.345   4.104
 2155TIP3   OH2 6470   3.079   0.676   2.697
 2155TIP3    H1 6471   3.070   0.586   2.730
 2155TIP3    H2 6472   3.009   0.684   2.632
 2156TIP3   OH2 6473   4.472   1.012   1.171
 2156TIP3    H1 6474   4.394   1.022   1.226
 2156TIP3    H2 6475   4.492   0.919   1.175
 2157TIP3   OH2 6476   4.241   3.683   0.753
 2157TIP3    H1 6477   4.251   3.593   0.723
 2157TIP3    H2 6478   4.331   3.715   0.764
 2158TIP3   OH2 6479   0.218   5.857   4.801
 2158TIP3    H1 6480   0.307   5.863   4.765
 2158TIP3    H2 6481   0.210   5.932   4.859
 2159TIP3   OH2 6482   0.898   2.000   3.974
 2159TIP3    H1 6483   0.891   2.080   3.922
 2159TIP3    H2 6484   0.986   2.004   4.011
 2160TIP3   OH2 6485   0.625   5.481   4.814
 2160TIP3    H1 6486   0.590   5.405   4.861
 2160TIP3    H2 6487   0.674   5.529   4.880
 2161TIP3   OH2 6488   5.884   5.368   3.106
 2161TIP3    H1 6489   5.842   5.354   3.021
 2161TIP3    H2 6490   5.945   5.440   3.090
 2162TIP3   OH2 6491   6.092   4.731   1.749
 2162TIP3    H1 6492   6.099   4.774   1.664
 2162TIP3    H2 6493   6.182   4.706   1.771
 2163TIP3   OH2 6494   0.194   5.720   1.826
 2163TIP3    H1 6495   0.240   5.737   1.908
 2163TIP3    H2 6496   0.144   5.800   1.810
 2164TIP3   OH2 6497   1.015   5.040   3.742
 2164TIP3    H1 6498   0.924   5.056   3.718
 2164TIP3    H2 6499   1.056   5.126   3.738
 2165TIP3   OH2 6500   2.142   3.692   4.393
 2165TIP3    H1 6501   2.131   3.640   4.473
 2165TIP3    H2 6502   2.231   3.671   4.363
 2166TIP3   OH2 6503   4.865   1.102   0.254
 2166TIP3    H1 6504   4.791   1.055   0.292
 2166TIP3    H2 6505   4.833   1.191   0.241
 2167TIP3   OH2 6506   3.264   5.594   1.776
 2167TIP3    H1 6507   3.345   5.635   1.804
 2167TIP3    H2 6508   3.240   5.639   1.696
 2168TIP3   OH2 6509   0.970   1.272   3.472
 2168TIP3    H1 6510   1.010   1.357   3.453
 2168TIP3    H2 6511   0.877   1.291   3.484
 2169TIP3   OH2 6512  -0.002   2.513   4.051
 2169TIP3    H1 6513   0.044   2.510   4.135
 2169TIP3    H2 6514   0.064   2.544   3.989
 2170TIP3   OH2 6515   1.568   1.569   4.909
 2170TIP3    H1 6516   1.622   1.597   4.983
 2170TIP3    H2 6517   1.489   1.622   4.915
 2171TIP3   OH2 6518   0.530   1.163   0.600
 2171TIP3    H1 6519   0.453   1.110   0.619
 2171TIP3    H2 6520   0.580   1.164   0.682
 2172TIP3   OH2 6521   2.159   1.811   2.318
 2172TIP3    H1 6522   2.228   1.747   2.301
 2172TIP3    H2 6523   2.135   1.798   2.410
 2173TIP3   OH2 6524   5.137   0.565   2.867
 2173TIP3    H1 6525   5.229   0.576   2.890
 2173TIP3    H2 6526   5.123   0.626   2.795
 2174TIP3   OH2 6527   3.463   5.709   0.633
 2174TIP3    H1 6528   3.441   5.742   0.546
 2174TIP3    H2 6529   3.520   5.634   0.617
 2175TIP3   OH2 6530   0.447   0.071   2.659
 2175TIP3    H1 6531   0.478   0.031   2.577
 2175TIP3    H2 6532   0.424  -0.004   2.715
 2176TIP3   OH2 6533   2.783   3.813   1.020
 2176TIP3    H1 6534   2.707   3.802   0.962
 2176TIP3    H2 6535   2.846   3.748   0.989
 2177TIP3   OH2 6536   2.337   4.072   4.999
 2177TIP3    H1 6537   2.365   4.136   5.064
 2177TIP3    H2 6538   2.398   3.998   5.010
 2178TIP3   OH2 6539   1.713   1.781   3.023
 2178TIP3    H1 6540   1.658   1.705   3.005
 2178TIP3    H2 6541   1.659   1.856   2.998
 2179TIP3   OH2 6542   5.467   3.681   3.568
 2179TIP3    H1 6543   5.495   3.768   3.594
 2179TIP3    H2 6544   5.544   3.625   3.580
 2180TIP3   OH2 6545   0.566   1.623   2.753
 2180TIP3    H1 6546   0.529   1.582   2.675
 2180TIP3    H2 6547   0.601   1.707   2.721
 2181TIP3   OH2 6548   1.977   2.842   1.129
 2181TIP3    H1 6549   1.971   2.927   1.086
 2181TIP3    H2 6550   2.066   2.813   1.111
 2182TIP3   OH2 6551   4.739   0.868   0.739
 2182TIP3    H1 6552   4.686   0.934   0.694
 2182TIP3    H2 6553   4.680   0.829   0.803
 2183TIP3   OH2 6554   3.546   1.736   2.254
 2183TIP3    H1 6555   3.622   1.786   2.224
 2183TIP3    H2 6556   3.539   1.756   2.347
 2184TIP3   OH2 6557   4.579   2.055   4.664
 2184TIP3    H1 6558   4.626   2.130   4.700
 2184TIP3    H2 6559   4.563   1.998   4.739
 2185TIP3   OH2 6560   6.134   1.731   2.894
 2185TIP3    H1 6561   6.120   1.638   2.873
 2185TIP3    H2 6562   6.092   1.742   2.979
 2186TIP3   OH2 6563   5.242   0.407   3.487
 2186TIP3    H1 6564   5.217   0.458   3.564
 2186TIP3    H2 6565   5.190   0.444   3.416
 2187TIP3   OH2 6566   5.832   4.250   1.264
 2187TIP3    H1 6567   5.878   4.173   1.297
 2187TIP3    H2 6568   5.901   4.310   1.237
 2188TIP3   OH2 6569   5.969   4.140   2.071
 2188TIP3    H1 6570   6.056   4.107   2.051
 2188TIP3    H2 6571   5.909   4.079   2.028
 2189TIP3   OH2 6572   0.033   4.840   1.337
 2189TIP3    H1 6573  -0.019   4.766   1.368
 2189TIP3    H2 6574   0.010   4.911   1.397
 2190TIP3   OH2 6575   0.104   2.005   3.121
 2190TIP3    H1 6576   0.058   1.967   3.046
 2190TIP3    H2 6577   0.153   2.078   3.085
 2191TIP3   OH2 6578   1.134   3.941   0.268
 2191TIP3    H1 6579   1.076   4.016   0.281
 2191TIP3    H2 6580   1.183   3.934   0.351
 2192TIP3   OH2 6581   5.327   5.953   1.212
 2192TIP3    H1 6582   5.266   5.886   1.241
 2192TIP3    H2 6583   5.282   6.035   1.226
 2193TIP3   OH2 6584   5.733   4.839   1.491
 2193TIP3    H1 6585   5.647   4.837   1.533
 2193TIP3    H2 6586   5.774   4.756   1.516
 2194TIP3   OH2 6587   4.411   2.660   4.262
 2194TIP3    H1 6588   4.416   2.592   4.194
 2194TIP3    H2 6589   4.391   2.740   4.214
 2195TIP3   OH2 6590   0.925   1.779   0.609
 2195TIP3    H1 6591   0.886   1.818   0.688
 2195TIP3    H2 6592   0.987   1.845   0.579
 2196TIP3   OH2 6593   5.564   1.178   0.082
 2196TIP3    H1 6594   5.471   1.196   0.069
 2196TIP3    H2 6595   5.605   1.201  -0.002
 2197TIP3   OH2 6596   0.983   0.767   3.820
 2197TIP3    H1 6597   0.975   0.854   3.858
 2197TIP3    H2 6598   0.921   0.714   3.869
 2198TIP3   OH2 6599   3.710   3.677   1.839
 2198TIP3    H1 6600   3.689   3.764   1.874
 2198TIP3    H2 6601   3.732   3.693   1.747
 2199TIP3   OH2 6602   4.822   2.803   1.720
 2199TIP3    H1 6603   4.772   2.831   1.796
 2199TIP3    H2 6604   4.898   2.758   1.756
 2200TIP3   OH2 6605   2.657   0.759   4.588
 2200TIP3    H1 6606   2.705   0.792   4.512
 2200TIP3    H2 6607   2.616   0.837   4.626
 2201TIP3   OH2 6608   0.511   3.328   4.237
 2201TIP3    H1 6609   0.552   3.254   4.281
 2201TIP3    H2 6610   0.417   3.311   4.244
 2202TIP3   OH2 6611   4.887   4.430   2.082
 2202TIP3    H1 6612   4.881   4.449   2.175
 2202TIP3    H2 6613   4.872   4.335   2.076
 2203TIP3   OH2 6614   3.127   4.213   1.327
 2203TIP3    H1 6615   3.146   4.215   1.233
 2203TIP3    H2 6616   3.198   4.265   1.366
 2204TIP3   OH2 6617   1.590   0.280   4.388
 2204TIP3    H1 6618   1.599   0.361   4.439
 2204TIP3    H2 6619   1.669   0.231   4.407
 2205TIP3   OH2 6620   0.978   2.409   0.354
 2205TIP3    H1 6621   1.006   2.402   0.263
 2205TIP3    H2 6622   0.957   2.320   0.380
 2206TIP3   OH2 6623   0.515   1.754   0.046
 2206TIP3    H1 6624   0.582   1.823   0.047
 2206TIP3    H2 6625   0.465   1.768   0.126
 2207TIP3   OH2 6626   1.240   3.774   3.538
 2207TIP3    H1 6627   1.165   3.765   3.480
 2207TIP3    H2 6628   1.216   3.843   3.599
 2208TIP3   OH2 6629   1.283   4.988   2.688
 2208TIP3    H1 6630   1.346   5.054   2.658
 2208TIP3    H2 6631   1.270   5.008   2.781
 2209TIP3   OH2 6632   1.135   3.462   4.235
 2209TIP3    H1 6633   1.061   3.413   4.272
 2209TIP3    H2 6634   1.110   3.554   4.245
 2210TIP3   OH2 6635   4.870   0.057   4.850
 2210TIP3    H1 6636   4.842   0.056   4.942
 2210TIP3    H2 6637   4.928  -0.019   4.842
 2211TIP3   OH2 6638   3.716   1.192   2.278
 2211TIP3    H1 6639   3.758   1.273   2.247
 2211TIP3    H2 6640   3.785   1.126   2.272
 2212TIP3   OH2 6641   2.729   3.898   1.269
 2212TIP3    H1 6642   2.730   3.861   1.180
 2212TIP3    H2 6643   2.636   3.912   1.287
 2213TIP3   OH2 6644   6.010   3.106   0.727
 2213TIP3    H1 6645   5.921   3.135   0.707
 2213TIP3    H2 6646   6.052   3.100   0.642
 2214TIP3   OH2 6647   4.189   2.609   1.805
 2214TIP3    H1 6648   4.100   2.591   1.835
 2214TIP3    H2 6649   4.227   2.522   1.789
 2215TIP3   OH2 6650   0.071   0.061   1.788
 2215TIP3    H1 6651   0.103  -0.005   1.850
 2215TIP3    H2 6652   0.134   0.133   1.795
 2216TIP3   OH2 6653   2.690   3.078   2.658
 2216TIP3    H1 6654   2.759   3.012   2.651
 2216TIP3    H2 6655   2.609   3.028   2.658
 2217TIP3   OH2 6656   1.484   1.404   1.907
 2217TIP3    H1 6657   1.525   1.320   1.928
 2217TIP3    H2 6658   1.554   1.469   1.919
 2218TIP3   OH2 6659   5.996   1.502   2.431
 2218TIP3    H1 6660   6.044   1.513   2.513
 2218TIP3    H2 6661   6.003   1.409   2.411
 2219TIP3   OH2 6662   4.260   3.686   1.388
 2219TIP3    H1 6663   4.271   3.744   1.463
 2219TIP3    H2 6664   4.233   3.744   1.317
 2220TIP3   OH2 6665   3.265   2.063   0.781
 2220TIP3    H1 6666   3.274   2.015   0.864
 2220TIP3    H2 6667   3.321   2.015   0.720
 2221TIP3   OH2 6668   3.837   3.722   1.276
 2221TIP3    H1 6669   3.926   3.759   1.279
 2221TIP3    H2 6670   3.779   3.798   1.283
 2222TIP3   OH2 6671   0.224   3.359   3.186
 2222TIP3    H1 6672   0.129   3.351   3.183
 2222TIP3    H2 6673   0.256   3.300   3.118
 2223TIP3   OH2 6674   5.528   1.113   3.277
 2223TIP3    H1 6675   5.557   1.203   3.297
 2223TIP3    H2 6676   5.460   1.095   3.342
 2224TIP3   OH2 6677   2.563   5.896   1.351
 2224TIP3    H1 6678   2.604   5.909   1.436
 2224TIP3    H2 6679   2.632   5.858   1.297
 2225TIP3   OH2 6680   5.008   0.733   1.506
 2225TIP3    H1 6681   5.027   0.723   1.413
 2225TIP3    H2 6682   5.082   0.782   1.541
 2226TIP3   OH2 6683   0.186   5.565   0.173
 2226TIP3    H1 6684   0.177   5.471   0.182
 2226TIP3    H2 6685   0.159   5.584   0.083
 2227TIP3   OH2 6686   3.129   5.880   5.147
 2227TIP3    H1 6687   3.185   5.890   5.070
 2227TIP3    H2 6688   3.089   5.965   5.160
 2228TIP3   OH2 6689   5.387   4.406   1.376
 2228TIP3    H1 6690   5.482   4.400   1.388
 2228TIP3    H2 6691   5.365   4.329   1.323
 2229TIP3   OH2 6692   4.560   1.107   3.481
 2229TIP3    H1 6693   4.485   1.128   3.426
 2229TIP3    H2 6694   4.635   1.111   3.421
 2230TIP3   OH2 6695   2.304   3.815   3.122
 2230TIP3    H1 6696   2.332   3.724   3.113
 2230TIP3    H2 6697   2.256   3.833   3.041
 2231TIP3   OH2 6698   0.258   3.606   1.512
 2231TIP3    H1 6699   0.212   3.529   1.545
 2231TIP3    H2 6700   0.190   3.673   1.502
 2232TIP3   OH2 6701   3.064   5.611   1.307
 2232TIP3    H1 6702   3.065   5.558   1.227
 2232TIP3    H2 6703   3.154   5.607   1.339
 2233TIP3   OH2 6704   2.533   3.361   4.017
 2233TIP3    H1 6705   2.459   3.423   4.016
 2233TIP3    H2 6706   2.584   3.386   4.094
 2234TIP3   OH2 6707   3.476   0.994   1.648
 2234TIP3    H1 6708   3.471   1.050   1.726
 2234TIP3    H2 6709   3.386   0.963   1.634
 2235TIP3   OH2 6710   2.904   4.308   3.985
 2235TIP3    H1 6711   2.952   4.227   3.966
 2235TIP3    H2 6712   2.950   4.346   4.061
 2236TIP3   OH2 6713   4.087   2.963   1.355
 2236TIP3    H1 6714   4.171   3.003   1.379
 2236TIP3    H2 6715   4.099   2.870   1.370
 2237TIP3   OH2 6716   6.053   5.580   5.167
 2237TIP3    H1 6717   6.016   5.515   5.106
 2237TIP3    H2 6718   6.136   5.606   5.127
 2238TIP3   OH2 6719   1.820   3.117   2.889
 2238TIP3    H1 6720   1.819   3.054   2.961
 2238TIP3    H2 6721   1.890   3.086   2.832
 2239TIP3   OH2 6722   3.266   5.354   0.308
 2239TIP3    H1 6723   3.210   5.278   0.323
 2239TIP3    H2 6724   3.205   5.425   0.289
 2240TIP3   OH2 6725   1.257   0.509   3.174
 2240TIP3    H1 6726   1.310   0.562   3.233
 2240TIP3    H2 6727   1.307   0.506   3.092
 2241TIP3   OH2 6728   5.198   1.713   0.831
 2241TIP3    H1 6729   5.186   1.701   0.736
 2241TIP3    H2 6730   5.213   1.624   0.864
 2242TIP3   OH2 6731   2.113   0.728   3.321
 2242TIP3    H1 6732   2.075   0.641   3.330
 2242TIP3    H2 6733   2.172   0.737   3.395
 2243TIP3   OH2 6734   3.328   0.183   0.863
 2243TIP3    H1 6735   3.355   0.257   0.809
 2243TIP3    H2 6736   3.273   0.130   0.805
 2244TIP3   OH2 6737   0.827   0.629   3.991
 2244TIP3    H1 6738   0.762   0.591   3.931
 2244TIP3    H2 6739   0.844   0.560   4.055
 2245TIP3   OH2 6740   2.460   4.498   2.867
 2245TIP3    H1 6741   2.546   4.529   2.838
 2245TIP3    H2 6742   2.408   4.494   2.787
 2246TIP3   OH2 6743   6.218   0.412   4.042
 2246TIP3    H1 6744   6.139   0.466   4.050
 2246TIP3    H2 6745   6.290   0.473   4.058
 2247TIP3   OH2 6746   4.498   3.063   2.801
 2247TIP3    H1 6747   4.514   3.149   2.762
 2247TIP3    H2 6748   4.553   3.003   2.751
 2248TIP3   OH2 6749   2.477   2.181   5.015
 2248TIP3    H1 6750   2.389   2.198   5.049
 2248TIP3    H2 6751   2.494   2.090   5.037
 2249TIP3   OH2 6752   1.047   0.307   3.165
 2249TIP3    H1 6753   1.112   0.374   3.184
 2249TIP3    H2 6754   0.964   0.345   3.193
 2250TIP3   OH2 6755   1.682   0.795   1.417
 2250TIP3    H1 6756   1.693   0.839   1.333
 2250TIP3    H2 6757   1.652   0.707   1.395
 2251TIP3   OH2 6758   5.156   4.572   4.565
 2251TIP3    H1 6759   5.071   4.600   4.598
 2251TIP3    H2 6760   5.139   4.543   4.475
 2252TIP3   OH2 6761   5.059   4.875   0.429
 2252TIP3    H1 6762   5.065   4.909   0.339
 2252TIP3    H2 6763   5.118   4.800   0.430
 2253TIP3   OH2 6764   1.130   1.050   2.103
 2253TIP3    H1 6765   1.174   1.010   2.177
 2253TIP3    H2 6766   1.039   1.057   2.130
 2254TIP3   OH2 6767   1.766   2.799   2.332
 2254TIP3    H1 6768   1.783   2.710   2.363
 2254TIP3    H2 6769   1.715   2.840   2.403
 2255TIP3   OH2 6770   6.059   4.802   1.304
 2255TIP3    H1 6771   5.974   4.773   1.336
 2255TIP3    H2 6772   6.098   4.723   1.265
 2256TIP3   OH2 6773   3.398   1.286   0.458
 2256TIP3    H1 6774   3.391   1.200   0.418
 2256TIP3    H2 6775   3.340   1.342   0.405
 2257TIP3   OH2 6776   1.364   0.514   5.174
 2257TIP3    H1 6777   1.428   0.506   5.104
 2257TIP3    H2 6778   1.319   0.597   5.157
 2258TIP3   OH2 6779   2.300   0.105   4.928
 2258TIP3    H1 6780   2.217   0.140   4.897
 2258TIP3    H2 6781   2.364   0.174   4.907
 2259TIP3   OH2 6782   4.142   2.860   1.928
 2259TIP3    H1 6783   4.213   2.923   1.943
 2259TIP3    H2 6784   4.168   2.812   1.850
 2260TIP3   OH2 6785   4.750   2.701   1.464
 2260TIP3    H1 6786   4.771   2.728   1.553
 2260TIP3    H2 6787   4.699   2.773   1.428
 2261TIP3   OH2 6788   0.151   2.645   4.721
 2261TIP3    H1 6789   0.092   2.713   4.686
 2261TIP3    H2 6790   0.125   2.565   4.675
 2262TIP3   OH2 6791   4.022   4.642   4.801
 2262TIP3    H1 6792   4.010   4.708   4.733
 2262TIP3    H2 6793   4.085   4.681   4.861
 2263TIP3   OH2 6794   2.819   1.313   1.118
 2263TIP3    H1 6795   2.894   1.292   1.174
 2263TIP3    H2 6796   2.744   1.314   1.177
 2264TIP3   OH2 6797   2.343   0.575   0.246
 2264TIP3    H1 6798   2.260   0.542   0.280
 2264TIP3    H2 6799   2.334   0.670   0.250
 2265TIP3   OH2 6800   2.616   1.319   4.226
 2265TIP3    H1 6801   2.523   1.298   4.236
 2265TIP3    H2 6802   2.660   1.233   4.224
 2266TIP3   OH2 6803   1.417   0.664   0.842
 2266TIP3    H1 6804   1.431   0.569   0.851
 2266TIP3    H2 6805   1.502   0.703   0.860
 2267TIP3   OH2 6806   6.359   2.282  -0.019
 2267TIP3    H1 6807   6.412   2.274   0.060
 2267TIP3    H2 6808   6.297   2.209  -0.014
 2268TIP3   OH2 6809   4.243   1.653   3.717
 2268TIP3    H1 6810   4.228   1.710   3.792
 2268TIP3    H2 6811   4.318   1.599   3.743
 2269TIP3   OH2 6812   5.116   2.060   0.122
 2269TIP3    H1 6813   5.183   2.025   0.181
 2269TIP3    H2 6814   5.036   2.059   0.175
 2270TIP3   OH2 6815   3.833   1.126   1.735
 2270TIP3    H1 6816   3.781   1.060   1.779
 2270TIP3    H2 6817   3.782   1.207   1.743
 2271TIP3   OH2 6818   2.825   1.324   1.584
 2271TIP3    H1 6819   2.859   1.333   1.674
 2271TIP3    H2 6820   2.891   1.367   1.530
 2272TIP3   OH2 6821   5.471   2.364   2.852
 2272TIP3    H1 6822   5.415   2.359   2.774
 2272TIP3    H2 6823   5.480   2.273   2.881
 2273TIP3   OH2 6824   3.014   5.055   0.751
 2273TIP3    H1 6825   3.024   5.140   0.795
 2273TIP3    H2 6826   3.026   4.991   0.821
 2274TIP3   OH2 6827   6.295   2.774   0.862
 2274TIP3    H1 6828   6.318   2.681   0.851
 2274TIP3    H2 6829   6.199   2.775   0.858
 2275TIP3   OH2 6830   5.702   0.343   1.436
 2275TIP3    H1 6831   5.678   0.308   1.351
 2275TIP3    H2 6832   5.623   0.384   1.469
 2276TIP3   OH2 6833   4.652   5.949   0.688
 2276TIP3    H1 6834   4.715   6.021   0.694
 2276TIP3    H2 6835   4.683   5.897   0.614
 2277TIP3   OH2 6836   0.308   1.759   1.690
 2277TIP3    H1 6837   0.317   1.703   1.768
 2277TIP3    H2 6838   0.218   1.743   1.660
 2278TIP3   OH2 6839   0.820   4.147   0.423
 2278TIP3    H1 6840   0.844   4.159   0.515
 2278TIP3    H2 6841   0.765   4.222   0.402
 2279TIP3   OH2 6842   4.858   4.792   4.813
 2279TIP3    H1 6843   4.800   4.868   4.806
 2279TIP3    H2 6844   4.806   4.728   4.861
 2280TIP3   OH2 6845   6.295   1.938   1.065
 2280TIP3    H1 6846   6.295   1.846   1.092
 2280TIP3    H2 6847   6.203   1.965   1.074
 2281TIP3   OH2 6848   1.817   5.376   1.886
 2281TIP3    H1 6849   1.906   5.403   1.862
 2281TIP3    H2 6850   1.769   5.376   1.803
 2282TIP3   OH2 6851   0.876   0.048   5.032
 2282TIP3    H1 6852   0.843  -0.028   5.079
 2282TIP3    H2 6853   0.929   0.096   5.096
 2283TIP3   OH2 6854   4.315   4.979   0.440
 2283TIP3    H1 6855   4.289   5.060   0.396
 2283TIP3    H2 6856   4.366   4.931   0.374
 2284TIP3   OH2 6857   4.684   3.021   0.723
 2284TIP3    H1 6858   4.683   3.117   0.720
 2284TIP3    H2 6859   4.777   2.997   0.724
 2285TIP3   OH2 6860   4.041   0.574   3.144
 2285TIP3    H1 6861   4.131   0.541   3.150
 2285TIP3    H2 6862   4.024   0.615   3.228
 2286TIP3   OH2 6863   4.970   2.129   3.089
 2286TIP3    H1 6864   4.932   2.069   3.152
 2286TIP3    H2 6865   4.904   2.136   3.020
 2287TIP3   OH2 6866   6.284   5.163   3.788
 2287TIP3    H1 6867   6.340   5.115   3.849
 2287TIP3    H2 6868   6.332   5.159   3.705
 2288TIP3   OH2 6869   4.695   5.750   1.144
 2288TIP3    H1 6870   4.654   5.700   1.215
 2288TIP3    H2 6871   4.762   5.691   1.109
 2289TIP3   OH2 6872   2.895   0.313   2.865
 2289TIP3    H1 6873   2.955   0.347   2.798
 2289TIP3    H2 6874   2.893   0.380   2.932
 2290TIP3   OH2 6875   6.243   4.674   2.394
 2290TIP3    H1 6876   6.213   4.586   2.371
 2290TIP3    H2 6877   6.334   4.678   2.365
 2291TIP3   OH2 6878   1.622   4.574   3.430
 2291TIP3    H1 6879   1.676   4.500   3.458
 2291TIP3    H2 6880   1.665   4.651   3.466
 2292TIP3   OH2 6881   0.750   4.036   0.909
 2292TIP3    H1 6882   0.733   4.117   0.957
 2292TIP3    H2 6883   0.836   4.007   0.940
 2293TIP3   OH2 6884   3.445   2.971   3.333
 2293TIP3    H1 6885   3.367   2.983   3.280
 2293TIP3    H2 6886   3.518   2.991   3.273
 2294TIP3   OH2 6887   2.323   0.859   4.679
 2294TIP3    H1 6888   2.376   0.826   4.751
 2294TIP3    H2 6889   2.367   0.940   4.653
 2295TIP3   OH2 6890   5.960   2.741   0.592
 2295TIP3    H1 6891   6.049   2.774   0.595
 2295TIP3    H2 6892   5.910   2.810   0.549
 2296TIP3   OH2 6893   1.911   1.744   2.183
 2296TIP3    H1 6894   1.982   1.790   2.229
 2296TIP3    H2 6895   1.922   1.652   2.206
 2297TIP3   OH2 6896   0.544   5.835   1.796
 2297TIP3    H1 6897   0.581   5.749   1.812
 2297TIP3    H2 6898   0.478   5.846   1.864
 2298TIP3   OH2 6899   5.892   5.532   4.599
 2298TIP3    H1 6900   5.840   5.613   4.607
 2298TIP3    H2 6901   5.881   5.506   4.507
 2299TIP3   OH2 6902   3.967   3.591   2.517
 2299TIP3    H1 6903   3.940   3.523   2.578
 2299TIP3    H2 6904   3.961   3.672   2.568
 2300TIP3   OH2 6905   4.814   5.006   4.522
 2300TIP3    H1 6906   4.728   4.994   4.564
 2300TIP3    H2 6907   4.795   5.003   4.428
 2301TIP3   OH2 6908   2.876   4.248   4.946
 2301TIP3    H1 6909   2.911   4.285   4.865
 2301TIP3    H2 6910   2.953   4.239   5.003
 2302TIP3   OH2 6911   2.181   1.671   0.367
 2302TIP3    H1 6912   2.256   1.680   0.308
 2302TIP3    H2 6913   2.149   1.760   0.379
 2303TIP3   OH2 6914   0.944   5.079   1.617
 2303TIP3    H1 6915   1.037   5.055   1.622
 2303TIP3    H2 6916   0.933   5.112   1.528
 2304TIP3   OH2 6917   4.092   3.312   1.897
 2304TIP3    H1 6918   4.156   3.241   1.894
 2304TIP3    H2 6919   4.059   3.318   1.808
 2305TIP3   OH2 6920   3.381   1.237   2.280
 2305TIP3    H1 6921   3.418   1.294   2.348
 2305TIP3    H2 6922   3.301   1.201   2.320
 2306TIP3   OH2 6923   0.998   2.744   3.900
 2306TIP3    H1 6924   1.077   2.723   3.851
 2306TIP3    H2 6925   0.972   2.831   3.868
 2307TIP3   OH2 6926   5.792   1.718   3.426
 2307TIP3    H1 6927   5.766   1.802   3.388
 2307TIP3    H2 6928   5.713   1.687   3.471
 2308TIP3   OH2 6929   4.246   1.394   1.103
 2308TIP3    H1 6930   4.270   1.468   1.160
 2308TIP3    H2 6931   4.207   1.330   1.163
 2309TIP3   OH2 6932   3.369   3.424   2.381
 2309TIP3    H1 6933   3.337   3.462   2.463
 2309TIP3    H2 6934   3.437   3.362   2.409
 2310TIP3   OH2 6935   3.454   0.837   4.537
 2310TIP3    H1 6936   3.529   0.779   4.548
 2310TIP3    H2 6937   3.485   0.904   4.475
 2311TIP3   OH2 6938   1.956   5.815   3.163
 2311TIP3    H1 6939   1.923   5.725   3.167
 2311TIP3    H2 6940   1.913   5.854   3.088
 2312TIP3   OH2 6941   1.456   1.413   4.349
 2312TIP3    H1 6942   1.534   1.373   4.309
 2312TIP3    H2 6943   1.480   1.423   4.442
 2313TIP3   OH2 6944   3.742   3.854   2.449
 2313TIP3    H1 6945   3.783   3.775   2.486
 2313TIP3    H2 6946   3.675   3.821   2.389
 2314TIP3   OH2 6947   5.392   5.146   3.383
 2314TIP3    H1 6948   5.472   5.100   3.358
 2314TIP3    H2 6949   5.353   5.091   3.451
 2315TIP3   OH2 6950   2.986   0.074   2.501
 2315TIP3    H1 6951   2.961   0.047   2.590
 2315TIP3    H2 6952   3.077   0.103   2.510
 2316TIP3   OH2 6953   5.067   1.498   2.853
 2316TIP3    H1 6954   5.156   1.472   2.829
 2316TIP3    H2 6955   5.017   1.487   2.772
 2317TIP3   OH2 6956   4.422   3.770   0.133
 2317TIP3    H1 6957   4.331   3.743   0.129
 2317TIP3    H2 6958   4.456   3.753   0.045
 2318TIP3   OH2 6959   5.990   5.251   3.640
 2318TIP3    H1 6960   6.062   5.290   3.589
 2318TIP3    H2 6961   5.995   5.294   3.725
 2319TIP3   OH2 6962   1.840   5.124   3.797
 2319TIP3    H1 6963   1.889   5.050   3.763
 2319TIP3    H2 6964   1.754   5.088   3.821
 2320TIP3   OH2 6965   1.364   0.468   1.927
 2320TIP3    H1 6966   1.394   0.384   1.962
 2320TIP3    H2 6967   1.358   0.526   2.004
 2321TIP3   OH2 6968   1.165   5.698   4.262
 2321TIP3    H1 6969   1.121   5.676   4.344
 2321TIP3    H2 6970   1.248   5.736   4.289
 2322TIP3   OH2 6971   0.422   2.820   4.797
 2322TIP3    H1 6972   0.498   2.833   4.854
 2322TIP3    H2 6973   0.406   2.907   4.760
 2323TIP3   OH2 6974   3.142   0.405   3.968
 2323TIP3    H1 6975   3.224   0.454   3.975
 2323TIP3    H2 6976   3.074   0.473   3.970
 2324TIP3   OH2 6977   0.407   5.378   1.927
 2324TIP3    H1 6978   0.312   5.383   1.933
 2324TIP3    H2 6979   0.425   5.284   1.921
 2325TIP3   OH2 6980   4.412   3.379   4.954
 2325TIP3    H1 6981   4.418   3.416   4.866
 2325TIP3    H2 6982   4.340   3.427   4.995
 2326TIP3   OH2 6983   2.605   2.459   0.652
 2326TIP3    H1 6984   2.521   2.498   0.675
 2326TIP3    H2 6985   2.656   2.464   0.732
 2327TIP3   OH2 6986   5.084   1.883   5.121
 2327TIP3    H1 6987   5.107   1.841   5.204
 2327TIP3    H2 6988   5.036   1.816   5.073
 2328TIP3   OH2 6989   3.168   1.247   0.195
 2328TIP3    H1 6990   3.183   1.341   0.194
 2328TIP3    H2 6991   3.113   1.233   0.273
 2329TIP3   OH2 6992   1.626   0.073   3.052
 2329TIP3    H1 6993   1.647   0.001   2.992
 2329TIP3    H2 6994   1.537   0.099   3.029
 2330TIP3   OH2 6995   2.137   5.386   2.737
 2330TIP3    H1 6996   2.171   5.380   2.648
 2330TIP3    H2 6997   2.208   5.425   2.788
 2331TIP3   OH2 6998   5.088   2.302   3.256
 2331TIP3    H1 6999   5.073   2.221   3.208
 2331TIP3    H2 7000   5.049   2.286   3.342
 2332TIP3   OH2 7001   0.761   2.240   5.030
 2332TIP3    H1 7002   0.833   2.288   5.071
 2332TIP3    H2 7003   0.798   2.207   4.948
 2333TIP3   OH2 7004   1.240   0.119   3.319
 2333TIP3    H1 7005   1.166   0.170   3.351
 2333TIP3    H2 7006   1.203   0.034   3.296
 2334TIP3   OH2 7007   4.843   5.729   2.792
 2334TIP3    H1 7008   4.813   5.746   2.881
 2334TIP3    H2 7009   4.920   5.785   2.781
 2335TIP3   OH2 7010   2.900   1.744   4.641
 2335TIP3    H1 7011   2.848   1.688   4.582
 2335TIP3    H2 7012   2.925   1.686   4.713
 2336TIP3   OH2 7013   0.444   5.727   0.711
 2336TIP3    H1 7014   0.361   5.774   0.708
 2336TIP3    H2 7015   0.462   5.716   0.804
 2337TIP3   OH2 7016   3.444   5.088   2.246
 2337TIP3    H1 7017   3.484   5.154   2.304
 2337TIP3    H2 7018   3.410   5.022   2.305
 2338TIP3   OH2 7019   0.859   5.170   2.425
 2338TIP3    H1 7020   0.783   5.117   2.403
 2338TIP3    H2 7021   0.906   5.118   2.490
 2339TIP3   OH2 7022   1.411   4.728   3.066
 2339TIP3    H1 7023   1.426   4.800   3.005
 2339TIP3    H2 7024   1.442   4.650   3.019
 2340TIP3   OH2 7025   3.486   0.968   2.378
 2340TIP3    H1 7026   3.477   1.035   2.446
 2340TIP3    H2 7027   3.435   0.894   2.410
 2341TIP3   OH2 7028   5.720   2.571   4.593
 2341TIP3    H1 7029   5.811   2.542   4.601
 2341TIP3    H2 7030   5.718   2.655   4.638
 2342TIP3   OH2 7031   1.340   0.402   3.903
 2342TIP3    H1 7032   1.377   0.416   3.990
 2342TIP3    H2 7033   1.277   0.473   3.892
 2343TIP3   OH2 7034   0.115   2.688   0.211
 2343TIP3    H1 7035   0.046   2.622   0.209
 2343TIP3    H2 7036   0.119   2.717   0.302
 2344TIP3   OH2 7037   4.283   4.429   3.403
 2344TIP3    H1 7038   4.358   4.370   3.406
 2344TIP3    H2 7039   4.313   4.508   3.448
 2345TIP3   OH2 7040   1.704   2.023   1.832
 2345TIP3    H1 7041   1.779   2.019   1.773
 2345TIP3    H2 7042   1.741   2.013   1.920
 2346TIP3   OH2 7043   2.489   4.184   0.055
 2346TIP3    H1 7044   2.582   4.176   0.035
 2346TIP3    H2 7045   2.462   4.096   0.081
 2347TIP3   OH2 7046   4.241   0.540   0.674
 2347TIP3    H1 7047   4.222   0.577   0.588
 2347TIP3    H2 7048   4.261   0.448   0.657
 2348TIP3   OH2 7049   6.217   3.847   3.754
 2348TIP3    H1 7050   6.172   3.768   3.722
 2348TIP3    H2 7051   6.308   3.820   3.766
 2349TIP3   OH2 7052   1.239   1.495   1.936
 2349TIP3    H1 7053   1.330   1.467   1.929
 2349TIP3    H2 7054   1.189   1.413   1.931
 2350TIP3   OH2 7055   0.882   0.085  -0.008
 2350TIP3    H1 7056   0.890   0.089   0.087
 2350TIP3    H2 7057   0.892  -0.008  -0.029
 2351TIP3   OH2 7058   3.443   1.141   2.578
 2351TIP3    H1 7059   3.364   1.122   2.629
 2351TIP3    H2 7060   3.422   1.222   2.532
 2352TIP3   OH2 7061   2.628   5.574   0.606
 2352TIP3    H1 7062   2.560   5.512   0.580
 2352TIP3    H2 7063   2.585   5.660   0.601
 2353TIP3   OH2 7064   2.398   5.185   4.821
 2353TIP3    H1 7065   2.336   5.191   4.748
 2353TIP3    H2 7066   2.426   5.276   4.835
 2354TIP3   OH2 7067   4.763   0.944   1.786
 2354TIP3    H1 7068   4.679   0.966   1.826
 2354TIP3    H2 7069   4.815   1.024   1.793
 2355TIP3   OH2 7070   4.020   0.574   1.154
 2355TIP3    H1 7071   3.936   0.575   1.200
 2355TIP3    H2 7072   4.081   0.533   1.216
 2356TIP3   OH2 7073   3.433   4.891   3.268
 2356TIP3    H1 7074   3.424   4.816   3.210
 2356TIP3    H2 7075   3.501   4.865   3.330
 2357TIP3   OH2 7076   4.642   5.743   4.003
 2357TIP3    H1 7077   4.623   5.690   4.080
 2357TIP3    H2 7078   4.589   5.822   4.015
 2358TIP3   OH2 7079   4.451   0.369   2.122
 2358TIP3    H1 7080   4.389   0.297   2.131
 2358TIP3    H2 7081   4.461   0.404   2.210
 2359TIP3   OH2 7082   2.101   5.004   1.794
 2359TIP3    H1 7083   2.061   4.971   1.874
 2359TIP3    H2 7084   2.195   5.006   1.813
 2360TIP3   OH2 7085   3.861   2.872   1.501
 2360TIP3    H1 7086   3.920   2.915   1.440
 2360TIP3    H2 7087   3.824   2.943   1.553
 2361TIP3   OH2 7088   2.175   5.292   3.279
 2361TIP3    H1 7089   2.170   5.368   3.338
 2361TIP3    H2 7090   2.245   5.238   3.316
 2362TIP3   OH2 7091   0.673   2.232   4.497
 2362TIP3    H1 7092   0.599   2.292   4.504
 2362TIP3    H2 7093   0.645   2.155   4.546
 2363TIP3   OH2 7094   1.499   1.956   0.634
 2363TIP3    H1 7095   1.490   1.992   0.546
 2363TIP3    H2 7096   1.453   2.019   0.691
 2364TIP3   OH2 7097   0.602   4.132   4.126
 2364TIP3    H1 7098   0.588   4.093   4.040
 2364TIP3    H2 7099   0.644   4.216   4.108
 2365TIP3   OH2 7100   3.304   2.075   3.551
 2365TIP3    H1 7101   3.208   2.074   3.554
 2365TIP3    H2 7102   3.328   1.986   3.524
 2366TIP3   OH2 7103   3.934   5.824   3.718
 2366TIP3    H1 7104   3.943   5.734   3.750
 2366TIP3    H2 7105   3.840   5.833   3.698
 2367TIP3   OH2 7106   5.493   3.033   3.747
 2367TIP3    H1 7107   5.460   3.025   3.836
 2367TIP3    H2 7108   5.583   3.064   3.758
 2368TIP3   OH2 7109   5.086   0.954   4.689
 2368TIP3    H1 7110   5.110   0.862   4.681
 2368TIP3    H2 7111   5.036   0.958   4.772
 2369TIP3   OH2 7112   2.508   3.725   4.046
 2369TIP3    H1 7113   2.519   3.755   3.956
 2369TIP3    H2 7114   2.456   3.793   4.088
 2370TIP3   OH2 7115   0.818   4.537   3.882
 2370TIP3    H1 7116   0.913   4.542   3.890
 2370TIP3    H2 7117   0.797   4.598   3.812
 2371TIP3   OH2 7118   5.134   3.399   0.835
 2371TIP3    H1 7119   5.193   3.418   0.908
 2371TIP3    H2 7120   5.180   3.433   0.758
 2372TIP3   OH2 7121   0.964   2.144   0.467
 2372TIP3    H1 7122   0.994   2.126   0.556
 2372TIP3    H2 7123   0.994   2.068   0.416
 2373TIP3   OH2 7124   4.341   0.065   4.286
 2373TIP3    H1 7125   4.357   0.018   4.204
 2373TIP3    H2 7126   4.407   0.030   4.346
 2374TIP3   OH2 7127   4.880   3.012   4.069
 2374TIP3    H1 7128   4.793   2.974   4.085
 2374TIP3    H2 7129   4.866   3.076   3.999
 2375TIP3   OH2 7130   1.445   2.313   2.136
 2375TIP3    H1 7131   1.465   2.336   2.045
 2375TIP3    H2 7132   1.438   2.217   2.136
 2376TIP3   OH2 7133   3.639   4.253   3.544
 2376TIP3    H1 7134   3.667   4.309   3.471
 2376TIP3    H2 7135   3.553   4.287   3.568
 2377TIP3   OH2 7136   0.987   4.122   1.714
 2377TIP3    H1 7137   0.957   4.159   1.631
 2377TIP3    H2 7138   0.907   4.112   1.766
 2378TIP3   OH2 7139   3.179   2.637   4.992
 2378TIP3    H1 7140   3.222   2.617   4.909
 2378TIP3    H2 7141   3.170   2.552   5.035
 2379TIP3   OH2 7142   4.291   0.007   1.860
 2379TIP3    H1 7143   4.287   0.097   1.828
 2379TIP3    H2 7144   4.213  -0.002   1.916
 2380TIP3   OH2 7145   4.222   0.965   0.211
 2380TIP3    H1 7146   4.192   0.894   0.154
 2380TIP3    H2 7147   4.153   0.973   0.277
 2381TIP3   OH2 7148   5.404   3.972   4.221
 2381TIP3    H1 7149   5.391   3.877   4.219
 2381TIP3    H2 7150   5.386   4.001   4.132
 2382TIP3   OH2 7151   5.578   5.893   4.538
 2382TIP3    H1 7152   5.497   5.926   4.498
 2382TIP3    H2 7153   5.646   5.917   4.475
 2383TIP3   OH2 7154   3.579   0.336   0.025
 2383TIP3    H1 7155   3.668   0.304   0.011
 2383TIP3    H2 7156   3.574   0.355   0.118
 2384TIP3   OH2 7157   2.515   3.637   1.533
 2384TIP3    H1 7158   2.461   3.565   1.500
 2384TIP3    H2 7159   2.605   3.610   1.512
 2385TIP3   OH2 7160   6.232   2.578   1.851
 2385TIP3    H1 7161   6.271   2.490   1.855
 2385TIP3    H2 7162   6.203   2.595   1.941
 2386TIP3   OH2 7163   3.396   2.908   0.877
 2386TIP3    H1 7164   3.410   2.999   0.851
 2386TIP3    H2 7165   3.448   2.857   0.815
 2387TIP3   OH2 7166   4.807   0.841   4.637
 2387TIP3    H1 7167   4.845   0.804   4.716
 2387TIP3    H2 7168   4.856   0.922   4.622
 2388TIP3   OH2 7169   6.026   1.066   3.748
 2388TIP3    H1 7170   6.003   0.992   3.805
 2388TIP3    H2 7171   5.945   1.086   3.701
 2389TIP3   OH2 7172   5.545   3.739   0.438
 2389TIP3    H1 7173   5.526   3.812   0.497
 2389TIP3    H2 7174   5.464   3.688   0.436
 2390TIP3   OH2 7175   1.762   1.941   2.079
 2390TIP3    H1 7176   1.803   1.865   2.120
 2390TIP3    H2 7177   1.694   1.968   2.141
 2391TIP3   OH2 7178   5.140   1.261   3.142
 2391TIP3    H1 7179   5.102   1.349   3.147
 2391TIP3    H2 7180   5.100   1.222   3.065
 2392TIP3   OH2 7181   0.464   4.075   3.277
 2392TIP3    H1 7182   0.519   4.048   3.204
 2392TIP3    H2 7183   0.391   4.014   3.276
 2393TIP3   OH2 7184   3.320   2.256   1.481
 2393TIP3    H1 7185   3.230   2.283   1.464
 2393TIP3    H2 7186   3.324   2.242   1.576
 2394TIP3   OH2 7187   2.445   3.549   1.166
 2394TIP3    H1 7188   2.454   3.639   1.196
 2394TIP3    H2 7189   2.473   3.496   1.240
 2395TIP3   OH2 7190   4.015   5.941   2.506
 2395TIP3    H1 7191   4.022   5.997   2.583
 2395TIP3    H2 7192   4.015   6.001   2.432
 2396TIP3   OH2 7193   4.398   5.409   1.530
 2396TIP3    H1 7194   4.395   5.314   1.542
 2396TIP3    H2 7195   4.419   5.421   1.437
 2397TIP3   OH2 7196   1.306   2.618   1.066
 2397TIP3    H1 7197   1.337   2.530   1.088
 2397TIP3    H2 7198   1.379   2.676   1.087
 2398TIP3   OH2 7199   6.303   1.161   3.489
 2398TIP3    H1 7200   6.242   1.234   3.484
 2398TIP3    H2 7201   6.372   1.182   3.426
 2399TIP3   OH2 7202   1.170   1.338   2.216
 2399TIP3    H1 7203   1.168   1.283   2.295
 2399TIP3    H2 7204   1.086   1.320   2.173
 2400TIP3   OH2 7205   1.171   0.201   2.727
 2400TIP3    H1 7206   1.144   0.192   2.635
 2400TIP3    H2 7207   1.142   0.288   2.752
 2401TIP3   OH2 7208   4.591   1.418   2.946
 2401TIP3    H1 7209   4.619   1.358   2.877
 2401TIP3    H2 7210   4.586   1.503   2.902
 2402TIP3   OH2 7211   0.052   2.453   1.543
 2402TIP3    H1 7212  -0.040   2.464   1.567
 2402TIP3    H2 7213   0.082   2.541   1.522
 2403TIP3   OH2 7214   1.628   3.669   3.020
 2403TIP3    H1 7215   1.669   3.648   2.937
 2403TIP3    H2 7216   1.597   3.585   3.054
 2404TIP3   OH2 7217   1.290   5.117   0.886
 2404TIP3    H1 7218   1.253   5.141   0.802
 2404TIP3    H2 7219   1.291   5.021   0.885
 2405TIP3   OH2 7220   4.695   3.009   3.034
 2405TIP3    H1 7221   4.608   3.034   3.002
 2405TIP3    H2 7222   4.678   2.943   3.101
 2406TIP3   OH2 7223   5.201   0.607   4.039
 2406TIP3    H1 7224   5.176   0.551   4.113
 2406TIP3    H2 7225   5.202   0.695   4.075
 2407TIP3   OH2 7226   5.921   5.889   4.240
 2407TIP3    H1 7227   6.008   5.917   4.213
 2407TIP3    H2 7228   5.864   5.910   4.166
 2408TIP3   OH2 7229   0.604   1.482  -0.002
 2408TIP3    H1 7230   0.565   1.568   0.017
 2408TIP3    H2 7231   0.571   1.426   0.068
 2409TIP3   OH2 7232   4.948   5.847   5.152
 2409TIP3    H1 7233   4.936   5.765   5.104
 2409TIP3    H2 7234   4.866   5.857   5.201
 2410TIP3   OH2 7235   3.858   0.868   2.776
 2410TIP3    H1 7236   3.782   0.816   2.749
 2410TIP3    H2 7237   3.835   0.958   2.754
 2411TIP3   OH2 7238   3.314   0.633   4.012
 2411TIP3    H1 7239   3.356   0.669   3.934
 2411TIP3    H2 7240   3.236   0.687   4.025
 2412TIP3   OH2 7241   0.321   5.831   4.503
 2412TIP3    H1 7242   0.395   5.890   4.517
 2412TIP3    H2 7243   0.336   5.759   4.564
 2413TIP3   OH2 7244   3.466   2.477   3.226
 2413TIP3    H1 7245   3.550   2.458   3.269
 2413TIP3    H2 7246   3.419   2.529   3.291
 2414TIP3   OH2 7247   0.974   0.933   0.595
 2414TIP3    H1 7248   1.069   0.935   0.581
 2414TIP3    H2 7249   0.957   0.848   0.636
 2415TIP3   OH2 7250   0.752   0.717   0.163
 2415TIP3    H1 7251   0.802   0.780   0.112
 2415TIP3    H2 7252   0.809   0.694   0.236
 2416TIP3   OH2 7253   5.389   3.221   2.621
 2416TIP3    H1 7254   5.421   3.227   2.711
 2416TIP3    H2 7255   5.352   3.308   2.603
 2417TIP3   OH2 7256   6.160   4.489   1.588
 2417TIP3    H1 7257   6.123   4.404   1.564
 2417TIP3    H2 7258   6.254   4.479   1.571
 2418TIP3   OH2 7259   0.980   5.824   3.844
 2418TIP3    H1 7260   1.007   5.821   3.936
 2418TIP3    H2 7261   1.047   5.877   3.801
 2419TIP3   OH2 7262   5.383   5.225   0.162
 2419TIP3    H1 7263   5.308   5.222   0.223
 2419TIP3    H2 7264   5.420   5.137   0.167
 2420TIP3   OH2 7265   5.048   2.452   0.719
 2420TIP3    H1 7266   4.959   2.450   0.755
 2420TIP3    H2 7267   5.076   2.361   0.718
 2421TIP3   OH2 7268   0.832   3.389   4.728
 2421TIP3    H1 7269   0.880   3.310   4.705
 2421TIP3    H2 7270   0.740   3.365   4.721
 2422TIP3   OH2 7271   2.645   2.827   3.840
 2422TIP3    H1 7272   2.564   2.875   3.822
 2422TIP3    H2 7273   2.688   2.819   3.754
 2423TIP3   OH2 7274   1.079   5.627   4.497
 2423TIP3    H1 7275   0.990   5.607   4.524
 2423TIP3    H2 7276   1.133   5.567   4.549
 2424TIP3   OH2 7277   3.895   4.971   1.492
 2424TIP3    H1 7278   3.857   5.058   1.503
 2424TIP3    H2 7279   3.859   4.940   1.409
 2425TIP3   OH2 7280   3.463   0.839   3.353
 2425TIP3    H1 7281   3.410   0.888   3.291
 2425TIP3    H2 7282   3.420   0.753   3.358
 2426TIP3   OH2 7283   2.539   4.514   3.249
 2426TIP3    H1 7284   2.546   4.610   3.254
 2426TIP3    H2 7285   2.446   4.498   3.236
 2427TIP3   OH2 7286   2.735   0.788   3.980
 2427TIP3    H1 7287   2.702   0.768   4.067
 2427TIP3    H2 7288   2.748   0.883   3.981
 2428TIP3   OH2 7289   0.316   0.959   1.960
 2428TIP3    H1 7290   0.388   1.009   1.998
 2428TIP3    H2 7291   0.359   0.891   1.907
 2429TIP3   OH2 7292   3.323   1.328   1.133
 2429TIP3    H1 7293   3.261   1.263   1.099
 2429TIP3    H2 7294   3.406   1.280   1.142
 2430TIP3   OH2 7295   3.202   4.860   2.928
 2430TIP3    H1 7296   3.239   4.904   3.005
 2430TIP3    H2 7297   3.117   4.827   2.958
 2431TIP3   OH2 7298   4.928   3.298   2.574
 2431TIP3    H1 7299   4.898   3.211   2.599
 2431TIP3    H2 7300   4.962   3.336   2.655
 2432TIP3   OH2 7301   0.055   3.971   0.441
 2432TIP3    H1 7302   0.030   3.880   0.457
 2432TIP3    H2 7303   0.118   3.991   0.510
 2433TIP3   OH2 7304   4.049   0.755   3.347
 2433TIP3    H1 7305   4.109   0.816   3.305
 2433TIP3    H2 7306   4.049   0.781   3.439
 2434TIP3   OH2 7307   2.069   3.177   0.657
 2434TIP3    H1 7308   2.139   3.226   0.616
 2434TIP3    H2 7309   2.110   3.135   0.732
 2435TIP3   OH2 7310   2.540   0.481   0.078
 2435TIP3    H1 7311   2.560   0.529  -0.002
 2435TIP3    H2 7312   2.464   0.526   0.115
 2436TIP3   OH2 7313   0.241   3.449   0.598
 2436TIP3    H1 7314   0.222   3.372   0.545
 2436TIP3    H2 7315   0.324   3.430   0.641
 2437TIP3   OH2 7316   6.140   4.719   0.702
 2437TIP3    H1 7317   6.142   4.798   0.648
 2437TIP3    H2 7318   6.226   4.679   0.689
 2438TIP3   OH2 7319   4.539   5.509   0.402
 2438TIP3    H1 7320   4.460   5.516   0.349
 2438TIP3    H2 7321   4.512   5.534   0.490
 2439TIP3   OH2 7322   3.336   3.812   4.862
 2439TIP3    H1 7323   3.354   3.718   4.872
 2439TIP3    H2 7324   3.400   3.841   4.796
 2440TIP3   OH2 7325   0.238   4.718   0.160
 2440TIP3    H1 7326   0.183   4.753   0.090
 2440TIP3    H2 7327   0.326   4.749   0.138
 2441TIP3   OH2 7328   3.018   3.030   0.980
 2441TIP3    H1 7329   3.041   3.090   1.051
 2441TIP3    H2 7330   2.931   3.059   0.951
 2442TIP3   OH2 7331   5.970   0.928   1.408
 2442TIP3    H1 7332   5.977   0.930   1.313
 2442TIP3    H2 7333   6.036   0.989   1.439
 2443TIP3   OH2 7334   3.863   3.426   0.962
 2443TIP3    H1 7335   3.928   3.380   1.014
 2443TIP3    H2 7336   3.791   3.364   0.953
 2444TIP3   OH2 7337   1.847   2.550   2.213
 2444TIP3    H1 7338   1.935   2.562   2.249
 2444TIP3    H2 7339   1.796   2.515   2.286
 2445TIP3   OH2 7340   2.297   5.529   2.918
 2445TIP3    H1 7341   2.219   5.515   2.971
 2445TIP3    H2 7342   2.324   5.618   2.938
 2446TIP3   OH2 7343   3.303   5.781   2.956
 2446TIP3    H1 7344   3.236   5.766   3.023
 2446TIP3    H2 7345   3.351   5.698   2.951
 2447TIP3   OH2 7346   1.329   1.409   0.719
 2447TIP3    H1 7347   1.260   1.345   0.739
 2447TIP3    H2 7348   1.377   1.419   0.801
 2448TIP3   OH2 7349   4.346   3.953   3.617
 2448TIP3    H1 7350   4.417   3.969   3.679
 2448TIP3    H2 7351   4.279   3.906   3.668
 2449TIP3   OH2 7352   0.921   4.880   3.949
 2449TIP3    H1 7353   0.951   4.789   3.955
 2449TIP3    H2 7354   0.992   4.925   3.903
 2450TIP3   OH2 7355   6.314   0.613   0.450
 2450TIP3    H1 7356   6.373   0.554   0.497
 2450TIP3    H2 7357   6.363   0.638   0.371
 2451TIP3   OH2 7358   2.594   4.510   1.470
 2451TIP3    H1 7359   2.562   4.528   1.381
 2451TIP3    H2 7360   2.523   4.462   1.512
 2452TIP3   OH2 7361   3.105   4.926   3.976
 2452TIP3    H1 7362   3.043   4.887   3.914
 2452TIP3    H2 7363   3.191   4.904   3.941
 2453TIP3   OH2 7364   3.971   3.992   4.605
 2453TIP3    H1 7365   3.885   4.034   4.604
 2453TIP3    H2 7366   4.032   4.064   4.619
 2454TIP3   OH2 7367   2.457   2.086   3.983
 2454TIP3    H1 7368   2.415   2.029   4.048
 2454TIP3    H2 7369   2.404   2.166   3.985
 2455TIP3   OH2 7370   1.695   1.755   3.638
 2455TIP3    H1 7371   1.726   1.845   3.625
 2455TIP3    H2 7372   1.754   1.719   3.703
 2456TIP3   OH2 7373   2.800   2.563   4.205
 2456TIP3    H1 7374   2.821   2.526   4.291
 2456TIP3    H2 7375   2.712   2.530   4.186
 2457TIP3   OH2 7376   4.557   1.111   0.857
 2457TIP3    H1 7377   4.476   1.152   0.828
 2457TIP3    H2 7378   4.531   1.022   0.881
 2458TIP3   OH2 7379   2.617   5.408   4.191
 2458TIP3    H1 7380   2.598   5.326   4.236
 2458TIP3    H2 7381   2.620   5.474   4.260
 2459TIP3   OH2 7382   0.665   0.252   5.058
 2459TIP3    H1 7383   0.682   0.293   5.143
 2459TIP3    H2 7384   0.679   0.158   5.073
 2460TIP3   OH2 7385   0.396   2.867   2.678
 2460TIP3    H1 7386   0.401   2.863   2.774
 2460TIP3    H2 7387   0.438   2.950   2.655
 2461TIP3   OH2 7388   3.393   1.813   4.185
 2461TIP3    H1 7389   3.325   1.750   4.210
 2461TIP3    H2 7390   3.388   1.881   4.251
 2462TIP3   OH2 7391   1.631   0.306   3.868
 2462TIP3    H1 7392   1.543   0.291   3.904
 2462TIP3    H2 7393   1.680   0.342   3.942
 2463TIP3   OH2 7394   4.818   4.746   2.710
 2463TIP3    H1 7395   4.835   4.786   2.795
 2463TIP3    H2 7396   4.817   4.819   2.648
 2464TIP3   OH2 7397   2.040   0.531   4.578
 2464TIP3    H1 7398   2.048   0.511   4.485
 2464TIP3    H2 7399   2.130   0.532   4.610
 2465TIP3   OH2 7400   1.842   5.676   1.853
 2465TIP3    H1 7401   1.920   5.620   1.853
 2465TIP3    H2 7402   1.843   5.718   1.767
 2466TIP3   OH2 7403   1.626   0.619   0.017
 2466TIP3    H1 7404   1.684   0.645   0.088
 2466TIP3    H2 7405   1.622   0.523   0.023
 2467TIP3   OH2 7406   6.160   5.594   4.901
 2467TIP3    H1 7407   6.162   5.673   4.954
 2467TIP3    H2 7408   6.242   5.596   4.852
 2468TIP3   OH2 7409   1.026   3.237   4.577
 2468TIP3    H1 7410   1.091   3.307   4.583
 2468TIP3    H2 7411   1.064   3.173   4.517
 2469TIP3   OH2 7412   4.502   1.841   2.668
 2469TIP3    H1 7413   4.436   1.783   2.629
 2469TIP3    H2 7414   4.488   1.926   2.627
 2470TIP3   OH2 7415   3.336   5.724   0.377
 2470TIP3    H1 7416   3.274   5.656   0.404
 2470TIP3    H2 7417   3.299   5.805   0.411
 2471TIP3   OH2 7418   3.925   0.455   1.545
 2471TIP3    H1 7419   4.014   0.462   1.510
 2471TIP3    H2 7420   3.934   0.483   1.636
 2472TIP3   OH2 7421   4.189   0.545   2.804
 2472TIP3    H1 7422   4.226   0.497   2.878
 2472TIP3    H2 7423   4.107   0.500   2.785
 2473TIP3   OH2 7424   3.129   3.310   1.457
 2473TIP3    H1 7425   3.041   3.282   1.434
 2473TIP3    H2 7426   3.117   3.395   1.500
 2474TIP3   OH2 7427   5.564   0.591   4.869
 2474TIP3    H1 7428   5.567   0.498   4.893
 2474TIP3    H2 7429   5.487   0.624   4.915
 2475TIP3   OH2 7430   3.914   4.887   2.012
 2475TIP3    H1 7431   3.897   4.879   1.918
 2475TIP3    H2 7432   3.905   4.797   2.045
 2476TIP3   OH2 7433   2.740   0.379   3.566
 2476TIP3    H1 7434   2.659   0.416   3.602
 2476TIP3    H2 7435   2.768   0.315   3.631
 2477TIP3   OH2 7436   5.910   3.368   3.716
 2477TIP3    H1 7437   5.835   3.328   3.759
 2477TIP3    H2 7438   5.980   3.302   3.722
 2478TIP3   OH2 7439   1.080   0.702   3.071
 2478TIP3    H1 7440   1.107   0.628   3.125
 2478TIP3    H2 7441   1.161   0.744   3.046
 2479TIP3   OH2 7442   1.986   3.894   4.948
 2479TIP3    H1 7443   2.018   3.983   4.962
 2479TIP3    H2 7444   2.009   3.873   4.857
 2480TIP3   OH2 7445   2.058   2.889   0.588
 2480TIP3    H1 7446   1.998   2.960   0.611
 2480TIP3    H2 7447   2.010   2.809   0.610
 2481TIP3   OH2 7448   3.010   2.054   2.959
 2481TIP3    H1 7449   2.964   1.970   2.949
 2481TIP3    H2 7450   3.025   2.062   3.053
 2482TIP3   OH2 7451   6.120   2.209   1.810
 2482TIP3    H1 7452   6.179   2.136   1.793
 2482TIP3    H2 7453   6.117   2.257   1.727
 2483TIP3   OH2 7454   4.006   2.156   4.988
 2483TIP3    H1 7455   3.911   2.152   4.993
 2483TIP3    H2 7456   4.036   2.140   5.077
 2484TIP3   OH2 7457   3.410   1.537   4.427
 2484TIP3    H1 7458   3.397   1.539   4.521
 2484TIP3    H2 7459   3.345   1.598   4.392
 2485TIP3   OH2 7460   0.267   2.786   0.729
 2485TIP3    H1 7461   0.336   2.720   0.730
 2485TIP3    H2 7462   0.249   2.804   0.822
 2486TIP3   OH2 7463   0.266   1.184   2.179
 2486TIP3    H1 7464   0.239   1.257   2.235
 2486TIP3    H2 7465   0.188   1.128   2.174
 2487TIP3   OH2 7466   4.343   4.320   5.177
 2487TIP3    H1 7467   4.273   4.258   5.161
 2487TIP3    H2 7468   4.416   4.288   5.125
 2488TIP3   OH2 7469   2.749   4.853   3.181
 2488TIP3    H1 7470   2.807   4.790   3.138
 2488TIP3    H2 7471   2.695   4.888   3.110
 2489TIP3   OH2 7472   3.457   0.213   1.732
 2489TIP3    H1 7473   3.368   0.220   1.697
 2489TIP3    H2 7474   3.513   0.242   1.660
 2490TIP3   OH2 7475   0.550   0.772   2.912
 2490TIP3    H1 7476   0.496   0.847   2.934
 2490TIP3    H2 7477   0.523   0.748   2.823
 2491TIP3   OH2 7478   4.427   1.507   2.649
 2491TIP3    H1 7479   4.393   1.418   2.663
 2491TIP3    H2 7480   4.401   1.555   2.727
 2492TIP3   OH2 7481   0.632   2.873   4.124
 2492TIP3    H1 7482   0.550   2.825   4.119
 2492TIP3    H2 7483   0.668   2.849   4.209
 2493TIP3   OH2 7484   0.364   4.531   1.286
 2493TIP3    H1 7485   0.454   4.562   1.279
 2493TIP3    H2 7486   0.368   4.440   1.254
 2494TIP3   OH2 7487   3.934   2.104   4.392
 2494TIP3    H1 7488   3.922   2.197   4.374
 2494TIP3    H2 7489   3.893   2.060   4.317
 2495TIP3   OH2 7490   1.523   5.339   1.600
 2495TIP3    H1 7491   1.483   5.372   1.519
 2495TIP3    H2 7492   1.599   5.396   1.614
 2496TIP3   OH2 7493   1.025   3.973   0.698
 2496TIP3    H1 7494   1.067   3.892   0.725
 2496TIP3    H2 7495   0.947   3.944   0.651
 2497TIP3   OH2 7496   5.646   0.961   4.625
 2497TIP3    H1 7497   5.668   0.912   4.547
 2497TIP3    H2 7498   5.558   0.996   4.608
 2498TIP3   OH2 7499   5.609   2.378   0.161
 2498TIP3    H1 7500   5.637   2.335   0.242
 2498TIP3    H2 7501   5.600   2.307   0.098
 2499TIP3   OH2 7502   3.325   1.046   3.674
 2499TIP3    H1 7503   3.254   1.036   3.610
 2499TIP3    H2 7504   3.381   1.113   3.636
 2500TIP3   OH2 7505   3.904   2.976   2.920
 2500TIP3    H1 7506   3.912   3.072   2.920
 2500TIP3    H2 7507   3.994   2.945   2.909
 2501TIP3   OH2 7508   1.246   1.202   0.053
 2501TIP3    H1 7509   1.303   1.148  -0.001
 2501TIP3    H2 7510   1.289   1.205   0.138
 2502TIP3   OH2 7511   5.275   2.287   1.441
 2502TIP3    H1 7512   5.250   2.229   1.369
 2502TIP3    H2 7513   5.335   2.236   1.494
 2503TIP3   OH2 7514   0.230   5.001   2.204
 2503TIP3    H1 7515   0.326   5.005   2.202
 2503TIP3    H2 7516   0.205   4.998   2.111
 2504TIP3   OH2 7517   1.466   2.209   3.705
 2504TIP3    H1 7518   1.531   2.148   3.672
 2504TIP3    H2 7519   1.484   2.216   3.799
 2505TIP3   OH2 7520   5.086   2.743   2.708
 2505TIP3    H1 7521   5.161   2.726   2.651
 2505TIP3    H2 7522   5.087   2.838   2.721
 2506TIP3   OH2 7523   5.440   3.126   3.495
 2506TIP3    H1 7524   5.412   3.056   3.435
 2506TIP3    H2 7525   5.479   3.079   3.569
 2507TIP3   OH2 7526   1.322   3.558   1.088
 2507TIP3    H1 7527   1.311   3.475   1.041
 2507TIP3    H2 7528   1.410   3.587   1.066
 2508TIP3   OH2 7529   3.808   1.308   0.845
 2508TIP3    H1 7530   3.886   1.358   0.870
 2508TIP3    H2 7531   3.749   1.317   0.919
 2509TIP3   OH2 7532   6.238   2.872   1.194
 2509TIP3    H1 7533   6.147   2.897   1.207
 2509TIP3    H2 7534   6.252   2.800   1.255
 2510TIP3   OH2 7535   1.094   0.401   1.820
 2510TIP3    H1 7536   1.059   0.359   1.898
 2510TIP3    H2 7537   1.189   0.395   1.830
 2511TIP3   OH2 7538   4.306   3.038   4.501
 2511TIP3    H1 7539   4.360   2.962   4.522
 2511TIP3    H2 7540   4.328   3.103   4.567
 2512TIP3   OH2 7541   4.279   5.698   3.999
 2512TIP3    H1 7542   4.308   5.729   3.914
 2512TIP3    H2 7543   4.349   5.723   4.059
 2513TIP3   OH2 7544   3.328   4.010   2.502
 2513TIP3    H1 7545   3.276   4.090   2.501
 2513TIP3    H2 7546   3.416   4.039   2.526
 2514TIP3   OH2 7547   4.486   0.169   0.177
 2514TIP3    H1 7548   4.560   0.167   0.238
 2514TIP3    H2 7549   4.521   0.132   0.096
 2515TIP3   OH2 7550   4.497   2.636   2.289
 2515TIP3    H1 7551   4.483   2.711   2.347
 2515TIP3    H2 7552   4.409   2.606   2.267
 2516TIP3   OH2 7553   3.213   4.298   5.042
 2516TIP3    H1 7554   3.254   4.281   5.127
 2516TIP3    H2 7555   3.214   4.214   4.998
 2517TIP3   OH2 7556   3.898   5.053   0.924
 2517TIP3    H1 7557   3.928   5.117   0.859
 2517TIP3    H2 7558   3.866   5.106   0.997
 2518TIP3   OH2 7559   3.836   2.436   2.244
 2518TIP3    H1 7560   3.892   2.364   2.274
 2518TIP3    H2 7561   3.822   2.490   2.322
 2519TIP3   OH2 7562   1.028   1.037   3.622
 2519TIP3    H1 7563   0.981   1.102   3.569
 2519TIP3    H2 7564   1.059   0.972   3.559
 2520TIP3   OH2 7565   5.864   4.591   1.582
 2520TIP3    H1 7566   5.824   4.537   1.650
 2520TIP3    H2 7567   5.959   4.580   1.595
 2521TIP3   OH2 7568   4.627   0.623   0.319
 2521TIP3    H1 7569   4.590   0.653   0.402
 2521TIP3    H2 7570   4.576   0.668   0.252
 2522TIP3   OH2 7571   2.010   0.358   2.425
 2522TIP3    H1 7572   1.953   0.354   2.502
 2522TIP3    H2 7573   1.955   0.399   2.357
 2523TIP3   OH2 7574   3.550   3.781   1.456
 2523TIP3    H1 7575   3.592   3.845   1.399
 2523TIP3    H2 7576   3.471   3.755   1.409
 2524TIP3   OH2 7577   5.703   5.259   4.251
 2524TIP3    H1 7578   5.791   5.226   4.231
 2524TIP3    H2 7579   5.672   5.296   4.168
 2525TIP3   OH2 7580   0.097   0.370   0.761
 2525TIP3    H1 7581   0.169   0.319   0.799
 2525TIP3    H2 7582   0.138   0.418   0.689
 2526TIP3   OH2 7583   2.687   1.027   4.225
 2526TIP3    H1 7584   2.759   1.018   4.288
 2526TIP3    H2 7585   2.632   0.950   4.241
 2527TIP3   OH2 7586   2.514   4.703   3.886
 2527TIP3    H1 7587   2.603   4.696   3.852
 2527TIP3    H2 7588   2.458   4.680   3.812
 2528TIP3   OH2 7589   5.008   2.367   4.708
 2528TIP3    H1 7590   5.012   2.279   4.669
 2528TIP3    H2 7591   4.986   2.351   4.800
 2529TIP3   OH2 7592   3.180   2.609   1.454
 2529TIP3    H1 7593   3.183   2.572   1.542
 2529TIP3    H2 7594   3.265   2.653   1.444
 2530TIP3   OH2 7595   5.727   0.924   2.649
 2530TIP3    H1 7596   5.723   0.850   2.588
 2530TIP3    H2 7597   5.708   0.885   2.735
 2531TIP3   OH2 7598   4.514   4.202   2.831
 2531TIP3    H1 7599   4.558   4.255   2.766
 2531TIP3    H2 7600   4.582   4.147   2.868
 2532TIP3   OH2 7601   6.360   2.298   4.371
 2532TIP3    H1 7602   6.274   2.280   4.333
 2532TIP3    H2 7603   6.422   2.256   4.312
 2533TIP3   OH2 7604   6.097   1.728   3.165
 2533TIP3    H1 7605   6.100   1.813   3.209
 2533TIP3    H2 7606   6.053   1.670   3.228
 2534TIP3   OH2 7607   0.860   4.066   3.107
 2534TIP3    H1 7608   0.949   4.031   3.103
 2534TIP3    H2 7609   0.866   4.142   3.164
 2535TIP3   OH2 7610   2.851   3.588   0.468
 2535TIP3    H1 7611   2.878   3.512   0.417
 2535TIP3    H2 7612   2.892   3.662   0.424
 2536TIP3   OH2 7613   4.769   5.009   4.259
 2536TIP3    H1 7614   4.839   5.048   4.206
 2536TIP3    H2 7615   4.702   4.984   4.195
 2537TIP3   OH2 7616   3.291   2.313   0.914
 2537TIP3    H1 7617   3.383   2.310   0.939
 2537TIP3    H2 7618   3.271   2.225   0.883
 2538TIP3   OH2 7619   3.698   5.036   3.713
 2538TIP3    H1 7620   3.749   4.965   3.674
 2538TIP3    H2 7621   3.607   5.005   3.709
 2539TIP3   OH2 7622   3.684   4.604   4.890
 2539TIP3    H1 7623   3.734   4.671   4.936
 2539TIP3    H2 7624   3.693   4.525   4.943
 2540TIP3   OH2 7625   4.096   0.133   3.072
 2540TIP3    H1 7626   4.175   0.092   3.104
 2540TIP3    H2 7627   4.025   0.089   3.118
 2541TIP3   OH2 7628   0.314   0.727   4.291
 2541TIP3    H1 7629   0.293   0.638   4.321
 2541TIP3    H2 7630   0.296   0.783   4.366
 2542TIP3   OH2 7631   4.599   4.471   3.215
 2542TIP3    H1 7632   4.529   4.526   3.252
 2542TIP3    H2 7633   4.609   4.503   3.126
 2543TIP3   OH2 7634   5.454   2.642   4.492
 2543TIP3    H1 7635   5.451   2.733   4.520
 2543TIP3    H2 7636   5.376   2.602   4.530
 2544TIP3   OH2 7637   1.560   0.887   4.089
 2544TIP3    H1 7638   1.504   0.911   4.015
 2544TIP3    H2 7639   1.649   0.884   4.052
 2545TIP3   OH2 7640   1.239   6.006   4.821
 2545TIP3    H1 7641   1.193   5.954   4.888
 2545TIP3    H2 7642   1.230   5.955   4.741
 2546TIP3   OH2 7643   0.787   3.293   4.085
 2546TIP3    H1 7644   0.792   3.297   4.181
 2546TIP3    H2 7645   0.707   3.341   4.064
 2547TIP3   OH2 7646   4.467   4.249   4.788
 2547TIP3    H1 7647   4.513   4.221   4.867
 2547TIP3    H2 7648   4.447   4.342   4.803
 2548TIP3   OH2 7649   3.815   2.317   0.361
 2548TIP3    H1 7650   3.877   2.368   0.414
 2548TIP3    H2 7651   3.855   2.313   0.274
 2549TIP3   OH2 7652   5.358   2.401   3.211
 2549TIP3    H1 7653   5.267   2.394   3.181
 2549TIP3    H2 7654   5.378   2.314   3.246
 2550TIP3   OH2 7655   1.241   5.920   2.290
 2550TIP3    H1 7656   1.163   5.870   2.269
 2550TIP3    H2 7657   1.294   5.917   2.211
 2551TIP3   OH2 7658   4.614   4.696   1.505
 2551TIP3    H1 7659   4.647   4.712   1.594
 2551TIP3    H2 7660   4.540   4.637   1.517
 2552TIP3   OH2 7661   2.288   2.753   1.937
 2552TIP3    H1 7662   2.224   2.748   2.008
 2552TIP3    H2 7663   2.345   2.826   1.962
 2553TIP3   OH2 7664   4.634   0.791   4.946
 2553TIP3    H1 7665   4.550   0.825   4.913
 2553TIP3    H2 7666   4.635   0.699   4.920
 2554TIP3   OH2 7667   3.698   0.850   1.550
 2554TIP3    H1 7668   3.636   0.902   1.601
 2554TIP3    H2 7669   3.645   0.809   1.481
 2555TIP3   OH2 7670   2.362   5.264   1.003
 2555TIP3    H1 7671   2.399   5.177   0.994
 2555TIP3    H2 7672   2.317   5.281   0.921
 2556TIP3   OH2 7673   1.893   4.551   3.060
 2556TIP3    H1 7674   1.803   4.582   3.064
 2556TIP3    H2 7675   1.888   4.468   3.012
 2557TIP3   OH2 7676   1.993   0.740   0.670
 2557TIP3    H1 7677   1.990   0.795   0.749
 2557TIP3    H2 7678   2.081   0.753   0.635
 2558TIP3   OH2 7679   3.380   1.031   3.957
 2558TIP3    H1 7680   3.390   1.119   3.993
 2558TIP3    H2 7681   3.357   1.045   3.865
 2559TIP3   OH2 7682   4.291   3.786   3.026
 2559TIP3    H1 7683   4.298   3.693   3.004
 2559TIP3    H2 7684   4.378   3.810   3.056
 2560TIP3   OH2 7685   1.653   4.627   1.325
 2560TIP3    H1 7686   1.655   4.546   1.274
 2560TIP3    H2 7687   1.623   4.600   1.412
 2561TIP3   OH2 7688   4.866   4.110   4.003
 2561TIP3    H1 7689   4.813   4.124   4.082
 2561TIP3    H2 7690   4.873   4.196   3.962
 2562TIP3   OH2 7691   4.091  -0.004   4.464
 2562TIP3    H1 7692   4.104   0.047   4.384
 2562TIP3    H2 7693   4.169   0.013   4.516
 2563TIP3   OH2 7694   2.555   1.461   3.845
 2563TIP3    H1 7695   2.606   1.385   3.816
 2563TIP3    H2 7696   2.621   1.526   3.869
 2564TIP3   OH2 7697   3.452   0.816   3.777
 2564TIP3    H1 7698   3.533   0.864   3.788
 2564TIP3    H2 7699   3.390   0.880   3.741
 2565TIP3   OH2 7700   2.180   3.552   4.084
 2565TIP3    H1 7701   2.235   3.596   4.019
 2565TIP3    H2 7702   2.234   3.550   4.164
 2566TIP3   OH2 7703   4.598   4.154   4.544
 2566TIP3    H1 7704   4.645   4.226   4.502
 2566TIP3    H2 7705   4.567   4.191   4.627
 2567TIP3   OH2 7706   1.331   4.408   4.802
 2567TIP3    H1 7707   1.400   4.342   4.808
 2567TIP3    H2 7708   1.315   4.417   4.708
 2568TIP3   OH2 7709   0.021   4.718   3.470
 2568TIP3    H1 7710  -0.037   4.753   3.402
 2568TIP3    H2 7711   0.011   4.623   3.464
 2569TIP3   OH2 7712   3.803   3.043   0.376
 2569TIP3    H1 7713   3.780   2.983   0.447
 2569TIP3    H2 7714   3.863   2.993   0.320
 2570TIP3   OH2 7715   1.590   4.170   2.861
 2570TIP3    H1 7716   1.534   4.220   2.801
 2570TIP3    H2 7717   1.541   4.089   2.877
 2571TIP3   OH2 7718   1.851   0.639   3.009
 2571TIP3    H1 7719   1.783   0.698   2.977
 2571TIP3    H2 7720   1.923   0.649   2.947
 2572TIP3   OH2 7721   5.358   4.401   3.469
 2572TIP3    H1 7722   5.370   4.364   3.381
 2572TIP3    H2 7723   5.373   4.495   3.458
 2573TIP3   OH2 7724   2.797   2.315   0.493
 2573TIP3    H1 7725   2.874   2.313   0.550
 2573TIP3    H2 7726   2.730   2.361   0.543
 2574TIP3   OH2 7727   4.170   0.752   0.039
 2574TIP3    H1 7728   4.102   0.713   0.094
 2574TIP3    H2 7729   4.148   0.722  -0.050
 2575TIP3   OH2 7730   3.155   2.734   1.952
 2575TIP3    H1 7731   3.238   2.781   1.963
 2575TIP3    H2 7732   3.120   2.766   1.869
 2576TIP3   OH2 7733   4.721   2.820   2.798
 2576TIP3    H1 7734   4.656   2.830   2.868
 2576TIP3    H2 7735   4.781   2.894   2.811
 2577TIP3   OH2 7736   1.348   3.163   1.703
 2577TIP3    H1 7737   1.256   3.163   1.729
 2577TIP3    H2 7738   1.371   3.255   1.697
 2578TIP3   OH2 7739   2.710   3.222   0.349
 2578TIP3    H1 7740   2.643   3.278   0.387
 2578TIP3    H2 7741   2.663   3.146   0.316
 2579TIP3   OH2 7742   1.834   0.620   1.025
 2579TIP3    H1 7743   1.777   0.547   1.048
 2579TIP3    H2 7744   1.922   0.582   1.020
 2580TIP3   OH2 7745   4.197   4.762   4.290
 2580TIP3    H1 7746   4.231   4.715   4.366
 2580TIP3    H2 7747   4.102   4.750   4.294
 2581TIP3   OH2 7748   2.045   1.113   1.109
 2581TIP3    H1 7749   1.958   1.147   1.133
 2581TIP3    H2 7750   2.090   1.189   1.072
 2582TIP3   OH2 7751   0.702   5.444   2.608
 2582TIP3    H1 7752   0.737   5.533   2.603
 2582TIP3    H2 7753   0.779   5.388   2.599
 2583TIP3   OH2 7754   0.912   3.456   2.837
 2583TIP3    H1 7755   0.919   3.545   2.870
 2583TIP3    H2 7756   1.001   3.430   2.815
 2584TIP3   OH2 7757   0.973   3.985   1.054
 2584TIP3    H1 7758   1.030   3.910   1.073
 2584TIP3    H2 7759   1.013   4.058   1.102
 2585TIP3   OH2 7760   3.611   1.176   4.286
 2585TIP3    H1 7761   3.594   1.270   4.292
 2585TIP3    H2 7762   3.662   1.157   4.364
 2586TIP3   OH2 7763   3.899   4.319   1.234
 2586TIP3    H1 7764   3.931   4.406   1.210
 2586TIP3    H2 7765   3.905   4.316   1.329
 2587TIP3   OH2 7766   1.161   3.864   1.351
 2587TIP3    H1 7767   1.145   3.840   1.442
 2587TIP3    H2 7768   1.221   3.938   1.356
 2588TIP3   OH2 7769   3.142   5.952   0.791
 2588TIP3    H1 7770   3.167   5.859   0.795
 2588TIP3    H2 7771   3.202   5.995   0.851
 2589TIP3   OH2 7772   5.663   1.433   1.426
 2589TIP3    H1 7773   5.628   1.474   1.505
 2589TIP3    H2 7774   5.712   1.357   1.458
 2590TIP3   OH2 7775   4.367   3.789   3.865
 2590TIP3    H1 7776   4.273   3.792   3.881
 2590TIP3    H2 7777   4.383   3.702   3.830
 2591TIP3   OH2 7778   5.810   0.704   2.495
 2591TIP3    H1 7779   5.873   0.772   2.471
 2591TIP3    H2 7780   5.857   0.621   2.482
 2592TIP3   OH2 7781   2.091   4.362   0.493
 2592TIP3    H1 7782   2.091   4.428   0.562
 2592TIP3    H2 7783   2.179   4.325   0.495
 2593TIP3   OH2 7784   5.628   2.661   1.571
 2593TIP3    H1 7785   5.683   2.589   1.541
 2593TIP3    H2 7786   5.554   2.662   1.510
 2594TIP3   OH2 7787   3.664   5.677   0.054
 2594TIP3    H1 7788   3.719   5.733   0.108
 2594TIP3    H2 7789   3.577   5.683   0.094
 2595TIP3   OH2 7790   6.198   1.587   2.185
 2595TIP3    H1 7791   6.284   1.575   2.146
 2595TIP3    H2 7792   6.200   1.537   2.266
 2596TIP3   OH2 7793   3.274   2.184   4.510
 2596TIP3    H1 7794   3.178   2.178   4.509
 2596TIP3    H2 7795   3.295   2.212   4.599
 2597TIP3   OH2 7796   4.764   3.495   2.391
 2597TIP3    H1 7797   4.776   3.400   2.389
 2597TIP3    H2 7798   4.709   3.514   2.314
 2598TIP3   OH2 7799   1.811   5.501   2.902
 2598TIP3    H1 7800   1.744   5.461   2.847
 2598TIP3    H2 7801   1.866   5.552   2.842
 2599TIP3   OH2 7802   5.817   4.211   3.126
 2599TIP3    H1 7803   5.793   4.243   3.213
 2599TIP3    H2 7804   5.851   4.123   3.142
 2600TIP3   OH2 7805   2.992   4.150   3.054
 2600TIP3    H1 7806   2.983   4.149   3.149
 2600TIP3    H2 7807   2.904   4.130   3.021
 2601TIP3   OH2 7808   3.233   4.883   1.589
 2601TIP3    H1 7809   3.192   4.810   1.635
 2601TIP3    H2 7810   3.325   4.857   1.578
 2602TIP3   OH2 7811   2.610   3.538   4.218
 2602TIP3    H1 7812   2.695   3.581   4.230
 2602TIP3    H2 7813   2.562   3.597   4.160
 2603TIP3   OH2 7814   0.307   1.560   0.221
 2603TIP3    H1 7815   0.302   1.467   0.242
 2603TIP3    H2 7816   0.218   1.583   0.193
 2604TIP3   OH2 7817   0.090   1.931   2.392
 2604TIP3    H1 7818   0.090   1.964   2.482
 2604TIP3    H2 7819  -0.003   1.919   2.371
 2605TIP3   OH2 7820   5.472   1.744   0.668
 2605TIP3    H1 7821   5.515   1.767   0.750
 2605TIP3    H2 7822   5.440   1.655   0.682
 2606TIP3   OH2 7823   2.129   0.470   0.354
 2606TIP3    H1 7824   2.047   0.480   0.403
 2606TIP3    H2 7825   2.129   0.379   0.325
 2607TIP3   OH2 7826   4.969   1.032   4.138
 2607TIP3    H1 7827   4.883   1.063   4.111
 2607TIP3    H2 7828   5.030   1.092   4.095
 2608TIP3   OH2 7829   2.707   5.038   3.729
 2608TIP3    H1 7830   2.691   5.125   3.693
 2608TIP3    H2 7831   2.632   4.986   3.699
 2609TIP3   OH2 7832   4.162   5.261   4.881
 2609TIP3    H1 7833   4.252   5.243   4.855
 2609TIP3    H2 7834   4.170   5.328   4.949
 2610TIP3   OH2 7835   5.244   2.717   1.202
 2610TIP3    H1 7836   5.205   2.717   1.290
 2610TIP3    H2 7837   5.334   2.686   1.216
 2611TIP3   OH2 7838   0.276   0.829   4.025
 2611TIP3    H1 7839   0.276   0.790   4.112
 2611TIP3    H2 7840   0.357   0.799   3.985
 2612TIP3   OH2 7841   5.290   3.088   0.826
 2612TIP3    H1 7842   5.346   3.120   0.756
 2612TIP3    H2 7843   5.290   2.993   0.814
 2613TIP3   OH2 7844   1.246   1.438   4.174
 2613TIP3    H1 7845   1.182   1.445   4.245
 2613TIP3    H2 7846   1.331   1.441   4.219
 2614TIP3   OH2 7847   1.904   0.541   0.492
 2614TIP3    H1 7848   1.923   0.617   0.547
 2614TIP3    H2 7849   1.818   0.511   0.522
 2615TIP3   OH2 7850   4.384   5.218   0.668
 2615TIP3    H1 7851   4.447   5.193   0.601
 2615TIP3    H2 7852   4.437   5.236   0.746
 2616TIP3   OH2 7853   0.120   5.346   1.962
 2616TIP3    H1 7854   0.132   5.372   2.054
 2616TIP3    H2 7855   0.030   5.314   1.958
 2617TIP3   OH2 7856   1.685   5.286   3.950
 2617TIP3    H1 7857   1.622   5.217   3.969
 2617TIP3    H2 7858   1.756   5.241   3.904
 2618TIP3   OH2 7859   3.987   5.923   3.123
 2618TIP3    H1 7860   4.073   5.963   3.135
 2618TIP3    H2 7861   3.932   5.994   3.087
 2619TIP3   OH2 7862   4.098   4.420   0.654
 2619TIP3    H1 7863   4.131   4.374   0.731
 2619TIP3    H2 7864   4.149   4.385   0.581
 2620TIP3   OH2 7865   2.207   3.999   4.751
 2620TIP3    H1 7866   2.254   4.026   4.830
 2620TIP3    H2 7867   2.251   3.919   4.722
 2621TIP3   OH2 7868   5.810   0.026   0.817
 2621TIP3    H1 7869   5.830   0.070   0.734
 2621TIP3    H2 7870   5.857   0.078   0.883
 2622TIP3   OH2 7871   1.922   1.453   1.927
 2622TIP3    H1 7872   2.007   1.411   1.942
 2622TIP3    H2 7873   1.945   1.538   1.889
 2623TIP3   OH2 7874   5.435   4.432   5.136
 2623TIP3    H1 7875   5.442   4.527   5.138
 2623TIP3    H2 7876   5.495   4.402   5.205
 2624TIP3   OH2 7877   0.560   0.501   4.292
 2624TIP3    H1 7878   0.527   0.412   4.295
 2624TIP3    H2 7879   0.524   0.543   4.371
 2625TIP3   OH2 7880   4.651   5.786   0.233
 2625TIP3    H1 7881   4.673   5.704   0.189
 2625TIP3    H2 7882   4.727   5.805   0.288
 2626TIP3   OH2 7883   2.982   0.608   4.444
 2626TIP3    H1 7884   3.073   0.581   4.433
 2626TIP3    H2 7885   2.931   0.536   4.408
 2627TIP3   OH2 7886   2.359   0.470   1.882
 2627TIP3    H1 7887   2.349   0.534   1.811
 2627TIP3    H2 7888   2.345   0.385   1.839
 2628TIP3   OH2 7889   6.160   3.847   1.535
 2628TIP3    H1 7890   6.140   3.939   1.555
 2628TIP3    H2 7891   6.116   3.797   1.604
 2629TIP3   OH2 7892   3.426   2.401   4.982
 2629TIP3    H1 7893   3.369   2.413   5.059
 2629TIP3    H2 7894   3.515   2.398   5.018
 2630TIP3   OH2 7895   1.834   3.240   4.780
 2630TIP3    H1 7896   1.914   3.240   4.832
 2630TIP3    H2 7897   1.772   3.293   4.830
 2631TIP3   OH2 7898   4.054   5.600   3.879
 2631TIP3    H1 7899   4.136   5.625   3.922
 2631TIP3    H2 7900   4.081   5.573   3.791
 2632TIP3   OH2 7901   3.249   3.208   0.301
 2632TIP3    H1 7902   3.279   3.153   0.373
 2632TIP3    H2 7903   3.161   3.234   0.326
 2633TIP3   OH2 7904   0.046   5.955   3.274
 2633TIP3    H1 7905  -0.003   5.940   3.194
 2633TIP3    H2 7906   0.076   5.868   3.300
 2634TIP3   OH2 7907   4.206   0.174   1.492
 2634TIP3    H1 7908   4.289   0.139   1.459
 2634TIP3    H2 7909   4.220   0.184   1.586
 2635TIP3   OH2 7910   1.098   1.912   1.602
 2635TIP3    H1 7911   1.096   1.994   1.552
 2635TIP3    H2 7912   1.084   1.940   1.693
 2636TIP3   OH2 7913   0.424   1.154   1.129
 2636TIP3    H1 7914   0.390   1.107   1.053
 2636TIP3    H2 7915   0.427   1.088   1.198
 2637TIP3   OH2 7916   3.526   3.888   0.507
 2637TIP3    H1 7917   3.495   3.974   0.535
 2637TIP3    H2 7918   3.610   3.905   0.465
 2638TIP3   OH2 7919   4.597   5.892   2.873
 2638TIP3    H1 7920   4.586   5.799   2.890
 2638TIP3    H2 7921   4.651   5.924   2.945
 2639TIP3   OH2 7922   2.319   3.845   2.039
 2639TIP3    H1 7923   2.253   3.808   2.097
 2639TIP3    H2 7924   2.347   3.772   1.984
 2640TIP3   OH2 7925   4.698   4.315   2.626
 2640TIP3    H1 7926   4.768   4.282   2.570
 2640TIP3    H2 7927   4.715   4.409   2.632
 2641TIP3   OH2 7928   2.716   1.330   2.332
 2641TIP3    H1 7929   2.756   1.292   2.410
 2641TIP3    H2 7930   2.745   1.273   2.261
 2642TIP3   OH2 7931   4.313   1.601   1.245
 2642TIP3    H1 7932   4.299   1.696   1.242
 2642TIP3    H2 7933   4.374   1.588   1.317
 2643TIP3   OH2 7934   2.683   2.795   4.402
 2643TIP3    H1 7935   2.694   2.700   4.414
 2643TIP3    H2 7936   2.768   2.825   4.370
 2644TIP3   OH2 7937   0.179   3.315   2.107
 2644TIP3    H1 7938   0.262   3.314   2.059
 2644TIP3    H2 7939   0.115   3.282   2.044
 2645TIP3   OH2 7940   5.299   2.673   2.542
 2645TIP3    H1 7941   5.381   2.720   2.555
 2645TIP3    H2 7942   5.314   2.586   2.579
 2646TIP3   OH2 7943   1.080   5.650   0.820
 2646TIP3    H1 7944   1.090   5.726   0.877
 2646TIP3    H2 7945   1.002   5.605   0.854
 2647TIP3   OH2 7946   3.709   0.667   4.554
 2647TIP3    H1 7947   3.700   0.574   4.530
 2647TIP3    H2 7948   3.752   0.706   4.478
 2648TIP3   OH2 7949   0.495   3.710   1.324
 2648TIP3    H1 7950   0.405   3.700   1.356
 2648TIP3    H2 7951   0.526   3.621   1.311
 2649TIP3   OH2 7952   4.038   4.868   1.097
 2649TIP3    H1 7953   4.132   4.878   1.110
 2649TIP3    H2 7954   4.008   4.955   1.069
 2650TIP3   OH2 7955   3.240   0.131   2.592
 2650TIP3    H1 7956   3.268   0.199   2.531
 2650TIP3    H2 7957   3.287   0.149   2.673
 2651TIP3   OH2 7958   3.460   1.898   0.628
 2651TIP3    H1 7959   3.512   1.834   0.677
 2651TIP3    H2 7960   3.408   1.847   0.567
 2652TIP3   OH2 7961   0.178   2.738   1.698
 2652TIP3    H1 7962   0.140   2.703   1.617
 2652TIP3    H2 7963   0.199   2.660   1.750
 2653TIP3   OH2 7964   6.049   1.710   1.913
 2653TIP3    H1 7965   6.016   1.620   1.910
 2653TIP3    H2 7966   6.065   1.733   1.822
 2654TIP3   OH2 7967   5.571   0.717   1.424
 2654TIP3    H1 7968   5.614   0.779   1.366
 2654TIP3    H2 7969   5.639   0.691   1.487
 2655TIP3   OH2 7970   5.953   4.563   3.955
 2655TIP3    H1 7971   5.959   4.524   3.867
 2655TIP3    H2 7972   5.947   4.657   3.939
 2656TIP3   OH2 7973   1.388   2.399   1.684
 2656TIP3    H1 7974   1.455   2.356   1.737
 2656TIP3    H2 7975   1.329   2.440   1.748
 2657TIP3   OH2 7976   6.223   4.258   1.222
 2657TIP3    H1 7977   6.224   4.239   1.316
 2657TIP3    H2 7978   6.309   4.230   1.191
 2658TIP3   OH2 7979   3.580   4.482   0.171
 2658TIP3    H1 7980   3.542   4.476   0.259
 2658TIP3    H2 7981   3.674   4.491   0.186
 2659TIP3   OH2 7982   6.370   1.095   4.719
 2659TIP3    H1 7983   6.333   1.029   4.660
 2659TIP3    H2 7984   6.349   1.179   4.677
 2660TIP3   OH2 7985   0.623   2.374   2.212
 2660TIP3    H1 7986   0.621   2.442   2.145
 2660TIP3    H2 7987   0.657   2.417   2.290
 2661TIP3   OH2 7988   5.386   4.333   3.731
 2661TIP3    H1 7989   5.369   4.351   3.639
 2661TIP3    H2 7990   5.377   4.238   3.739
 2662TIP3   OH2 7991   2.006   3.133   3.380
 2662TIP3    H1 7992   1.981   3.184   3.303
 2662TIP3    H2 7993   2.061   3.062   3.345
 2663TIP3   OH2 7994   5.608   0.124   0.427
 2663TIP3    H1 7995   5.547   0.105   0.497
 2663TIP3    H2 7996   5.555   0.165   0.359
 2664TIP3   OH2 7997   4.114   2.055   0.643
 2664TIP3    H1 7998   4.142   2.107   0.719
 2664TIP3    H2 7999   4.166   2.089   0.571
 2665TIP3   OH2 8000   4.657   2.309   4.755
 2665TIP3    H1 8001   4.582   2.340   4.806
 2665TIP3    H2 8002   4.726   2.294   4.820
 2666TIP3   OH2 8003   5.708   4.831   5.140
 2666TIP3    H1 8004   5.740   4.846   5.051
 2666TIP3    H2 8005   5.698   4.736   5.146
 2667TIP3   OH2 8006   4.916   0.424   3.602
 2667TIP3    H1 8007   4.907   0.519   3.611
 2667TIP3    H2 8008   4.929   0.393   3.691
 2668TIP3   OH2 8009   1.948   2.700   0.402
 2668TIP3    H1 8010   1.913   2.786   0.378
 2668TIP3    H2 8011   2.043   2.714   0.407
 2669TIP3   OH2 8012   1.029   1.070   4.331
 2669TIP3    H1 8013   0.943   1.105   4.351
 2669TIP3    H2 8014   1.075   1.070   4.414
 2670TIP3   OH2 8015   0.035   1.088   2.577
 2670TIP3    H1 8016  -0.018   1.013   2.548
 2670TIP3    H2 8017  -0.019   1.130   2.644
 2671TIP3   OH2 8018   0.680   3.053   3.317
 2671TIP3    H1 8019   0.618   3.070   3.246
 2671TIP3    H2 8020   0.630   3.002   3.381
 2672TIP3   OH2 8021   5.037   4.289   3.713
 2672TIP3    H1 8022   5.033   4.371   3.664
 2672TIP3    H2 8023   4.992   4.308   3.796
 2673TIP3   OH2 8024   5.867   3.425   4.834
 2673TIP3    H1 8025   5.959   3.397   4.833
 2673TIP3    H2 8026   5.852   3.455   4.924
 2674TIP3   OH2 8027   2.746   1.935   2.649
 2674TIP3    H1 8028   2.691   1.888   2.586
 2674TIP3    H2 8029   2.728   1.892   2.732
 2675TIP3   OH2 8030   0.238   3.074   4.085
 2675TIP3    H1 8031   0.152   3.070   4.126
 2675TIP3    H2 8032   0.291   3.011   4.134
 2676TIP3   OH2 8033   0.596   0.858   4.256
 2676TIP3    H1 8034   0.509   0.820   4.252
 2676TIP3    H2 8035   0.651   0.789   4.293
 2677TIP3   OH2 8036   3.488   4.245   0.962
 2677TIP3    H1 8037   3.553   4.199   1.016
 2677TIP3    H2 8038   3.469   4.325   1.011
 2678TIP3   OH2 8039   0.611   2.562   5.017
 2678TIP3    H1 8040   0.663   2.485   5.042
 2678TIP3    H2 8041   0.581   2.543   4.928
 2679TIP3   OH2 8042   2.790   5.157   4.144
 2679TIP3    H1 8043   2.732   5.172   4.219
 2679TIP3    H2 8044   2.764   5.072   4.110
 2680TIP3   OH2 8045   5.971   3.748   4.735
 2680TIP3    H1 8046   5.924   3.781   4.659
 2680TIP3    H2 8047   6.039   3.814   4.752
 2681TIP3   OH2 8048   5.511   1.296   3.651
 2681TIP3    H1 8049   5.572   1.223   3.658
 2681TIP3    H2 8050   5.565   1.375   3.659
 2682TIP3   OH2 8051   6.251   0.105   3.290
 2682TIP3    H1 8052   6.316   0.080   3.357
 2682TIP3    H2 8053   6.173   0.053   3.311
 2683TIP3   OH2 8054   3.381   4.847   0.381
 2683TIP3    H1 8055   3.286   4.858   0.376
 2683TIP3    H2 8056   3.410   4.919   0.437
 2684TIP3   OH2 8057   1.927   2.445   0.288
 2684TIP3    H1 8058   2.011   2.402   0.303
 2684TIP3    H2 8059   1.942   2.537   0.310
 2685TIP3   OH2 8060   4.470   4.650   3.863
 2685TIP3    H1 8061   4.429   4.683   3.783
 2685TIP3    H2 8062   4.405   4.663   3.931
 2686TIP3   OH2 8063   2.487   2.645   2.208
 2686TIP3    H1 8064   2.574   2.679   2.188
 2686TIP3    H2 8065   2.469   2.584   2.136
 2687TIP3   OH2 8066   0.829   3.810   1.317
 2687TIP3    H1 8067   0.733   3.810   1.324
 2687TIP3    H2 8068   0.846   3.819   1.223
 2688TIP3   OH2 8069   5.500   0.027   1.547
 2688TIP3    H1 8070   5.444   0.092   1.590
 2688TIP3    H2 8071   5.578   0.022   1.602
 2689TIP3   OH2 8072   3.178   0.852   4.314
 2689TIP3    H1 8073   3.198   0.784   4.377
 2689TIP3    H2 8074   3.210   0.933   4.355
 2690TIP3   OH2 8075   1.164   0.771   0.359
 2690TIP3    H1 8076   1.223   0.838   0.394
 2690TIP3    H2 8077   1.086   0.819   0.331
 2691TIP3   OH2 8078   0.848   3.577   1.071
 2691TIP3    H1 8079   0.906   3.630   1.126
 2691TIP3    H2 8080   0.878   3.595   0.982
 2692TIP3   OH2 8081   5.880   1.085   0.162
 2692TIP3    H1 8082   5.867   1.040   0.078
 2692TIP3    H2 8083   5.804   1.060   0.215
 2693TIP3   OH2 8084   1.942   1.854   2.790
 2693TIP3    H1 8085   2.000   1.810   2.851
 2693TIP3    H2 8086   1.866   1.881   2.843
 2694TIP3   OH2 8087   3.385   2.240   4.760
 2694TIP3    H1 8088   3.452   2.177   4.733
 2694TIP3    H2 8089   3.424   2.286   4.834
 2695TIP3   OH2 8090   0.213   5.946   0.295
 2695TIP3    H1 8091   0.309   5.943   0.299
 2695TIP3    H2 8092   0.186   5.864   0.336
 2696TIP3   OH2 8093   0.366   4.899   0.737
 2696TIP3    H1 8094   0.456   4.910   0.706
 2696TIP3    H2 8095   0.355   4.804   0.744
 2697TIP3   OH2 8096   5.084   4.349   2.456
 2697TIP3    H1 8097   4.996   4.384   2.472
 2697TIP3    H2 8098   5.114   4.394   2.377
 2698TIP3   OH2 8099   5.937   4.537   3.414
 2698TIP3    H1 8100   5.947   4.523   3.320
 2698TIP3    H2 8101   5.865   4.600   3.421
 2699TIP3   OH2 8102   1.029   5.567   3.641
 2699TIP3    H1 8103   1.049   5.605   3.555
 2699TIP3    H2 8104   1.097   5.600   3.699
 2700TIP3   OH2 8105   1.654   2.594   1.972
 2700TIP3    H1 8106   1.691   2.550   2.049
 2700TIP3    H2 8107   1.698   2.553   1.898
 2701TIP3   OH2 8108   0.498   2.969   2.923
 2701TIP3    H1 8109   0.453   2.970   3.007
 2701TIP3    H2 8110   0.590   2.987   2.945
 2702TIP3   OH2 8111   2.862   3.124   1.402
 2702TIP3    H1 8112   2.800   3.073   1.350
 2702TIP3    H2 8113   2.824   3.124   1.490
 2703TIP3   OH2 8114   5.079   1.346   2.587
 2703TIP3    H1 8115   5.109   1.432   2.559
 2703TIP3    H2 8116   5.018   1.319   2.518
 2704TIP3   OH2 8117   4.059   1.217   1.215
 2704TIP3    H1 8118   3.970   1.188   1.197
 2704TIP3    H2 8119   4.095   1.147   1.271
 2705TIP3   OH2 8120   3.596   0.277   2.657
 2705TIP3    H1 8121   3.606   0.306   2.747
 2705TIP3    H2 8122   3.570   0.185   2.665
 2706TIP3   OH2 8123   4.615   3.479   3.475
 2706TIP3    H1 8124   4.606   3.405   3.534
 2706TIP3    H2 8125   4.534   3.529   3.487
 2707TIP3   OH2 8126   1.180   4.656   0.547
 2707TIP3    H1 8127   1.270   4.679   0.522
 2707TIP3    H2 8128   1.175   4.675   0.640
 2708TIP3   OH2 8129   3.097   3.065   3.605
 2708TIP3    H1 8130   3.003   3.064   3.586
 2708TIP3    H2 8131   3.127   2.977   3.581
 2709TIP3   OH2 8132   3.096   0.401   3.679
 2709TIP3    H1 8133   3.122   0.415   3.770
 2709TIP3    H2 8134   3.146   0.325   3.651
 2710TIP3   OH2 8135   0.023   3.395   3.940
 2710TIP3    H1 8136   0.000   3.344   3.862
 2710TIP3    H2 8137  -0.060   3.417   3.981
 2711TIP3   OH2 8138   3.060   5.701   4.701
 2711TIP3    H1 8139   3.017   5.684   4.784
 2711TIP3    H2 8140   3.028   5.787   4.673
 2712TIP3   OH2 8141   0.971   0.912   0.257
 2712TIP3    H1 8142   0.963   0.957   0.173
 2712TIP3    H2 8143   0.937   0.975   0.321
 2713TIP3   OH2 8144   3.617   4.868   4.537
 2713TIP3    H1 8145   3.683   4.861   4.468
 2713TIP3    H2 8146   3.605   4.778   4.568
 2714TIP3   OH2 8147   1.019   3.163   1.208
 2714TIP3    H1 8148   1.111   3.178   1.185
 2714TIP3    H2 8149   1.024   3.114   1.290
 2715TIP3   OH2 8150   5.789   1.311   0.928
 2715TIP3    H1 8151   5.719   1.373   0.911
 2715TIP3    H2 8152   5.804   1.316   1.022
 2716TIP3   OH2 8153   2.734   4.107   2.303
 2716TIP3    H1 8154   2.643   4.084   2.289
 2716TIP3    H2 8155   2.731   4.193   2.344
 2717TIP3   OH2 8156   2.585   4.431   4.540
 2717TIP3    H1 8157   2.625   4.505   4.586
 2717TIP3    H2 8158   2.561   4.370   4.609
 2718TIP3   OH2 8159   6.236   3.420   2.056
 2718TIP3    H1 8160   6.176   3.388   2.123
 2718TIP3    H2 8161   6.289   3.344   2.033
 2719TIP3   OH2 8162   5.885   1.983   4.080
 2719TIP3    H1 8163   5.851   2.037   4.151
 2719TIP3    H2 8164   5.976   1.966   4.105
 2720TIP3   OH2 8165   6.048   3.072   4.767
 2720TIP3    H1 8166   6.086   3.062   4.854
 2720TIP3    H2 8167   5.985   3.000   4.761
 2721TIP3   OH2 8168   3.544   0.296   3.643
 2721TIP3    H1 8169   3.620   0.339   3.605
 2721TIP3    H2 8170   3.581   0.230   3.701
 2722TIP3   OH2 8171   1.722   5.328   0.128
 2722TIP3    H1 8172   1.714   5.277   0.208
 2722TIP3    H2 8173   1.637   5.319   0.085
 2723TIP3   OH2 8174   1.181   3.746   0.641
 2723TIP3    H1 8175   1.130   3.696   0.578
 2723TIP3    H2 8176   1.248   3.790   0.588
 2724TIP3   OH2 8177   0.892   2.919   3.713
 2724TIP3    H1 8178   0.848   2.952   3.791
 2724TIP3    H2 8179   0.832   2.852   3.679
 2725TIP3   OH2 8180   4.885   4.865   3.713
 2725TIP3    H1 8181   4.824   4.923   3.666
 2725TIP3    H2 8182   4.837   4.837   3.791
 2726TIP3   OH2 8183   2.211   1.409   2.923
 2726TIP3    H1 8184   2.295   1.382   2.961
 2726TIP3    H2 8185   2.147   1.392   2.992
 2727TIP3   OH2 8186   4.522   1.284   1.149
 2727TIP3    H1 8187   4.503   1.198   1.112
 2727TIP3    H2 8188   4.606   1.273   1.193
 2728TIP3   OH2 8189   2.956   5.581   2.323
 2728TIP3    H1 8190   2.980   5.559   2.234
 2728TIP3    H2 8191   2.940   5.497   2.366
 2729TIP3   OH2 8192   4.862   4.932   2.922
 2729TIP3    H1 8193   4.854   4.883   3.003
 2729TIP3    H2 8194   4.908   5.013   2.946
 2730TIP3   OH2 8195   4.186   0.389   4.016
 2730TIP3    H1 8196   4.254   0.344   3.966
 2730TIP3    H2 8197   4.224   0.400   4.103
 2731TIP3   OH2 8198   5.277   3.031   0.543
 2731TIP3    H1 8199   5.221   2.986   0.605
 2731TIP3    H2 8200   5.233   3.020   0.458
 2732TIP3   OH2 8201   1.193   0.620   0.115
 2732TIP3    H1 8202   1.133   0.630   0.189
 2732TIP3    H2 8203   1.146   0.658   0.041
 2733TIP3   OH2 8204   4.633   0.797   2.758
 2733TIP3    H1 8205   4.609   0.726   2.816
 2733TIP3    H2 8206   4.624   0.876   2.811
 2734TIP3   OH2 8207   0.212   0.623   3.617
 2734TIP3    H1 8208   0.228   0.669   3.535
 2734TIP3    H2 8209   0.116   0.616   3.622
 2735TIP3   OH2 8210   4.930   1.909   1.355
 2735TIP3    H1 8211   5.010   1.937   1.310
 2735TIP3    H2 8212   4.860   1.955   1.309
 2736TIP3   OH2 8213   3.717   3.277   3.664
 2736TIP3    H1 8214   3.624   3.283   3.686
 2736TIP3    H2 8215   3.738   3.184   3.667
 2737TIP3   OH2 8216   3.077   4.401   0.370
 2737TIP3    H1 8217   3.123   4.421   0.451
 2737TIP3    H2 8218   3.140   4.350   0.319
 2738TIP3   OH2 8219   5.590   2.159   2.441
 2738TIP3    H1 8220   5.657   2.169   2.509
 2738TIP3    H2 8221   5.622   2.212   2.368
 2739TIP3   OH2 8222   4.286   4.079   1.865
 2739TIP3    H1 8223   4.378   4.054   1.864
 2739TIP3    H2 8224   4.244   4.014   1.921
 2740TIP3   OH2 8225   5.988   5.365   2.441
 2740TIP3    H1 8226   5.966   5.272   2.435
 2740TIP3    H2 8227   5.967   5.390   2.531
 2741TIP3   OH2 8228   3.312   3.493   0.206
 2741TIP3    H1 8229   3.361   3.482   0.125
 2741TIP3    H2 8230   3.329   3.412   0.255
 2742TIP3   OH2 8231   3.363   0.588   3.669
 2742TIP3    H1 8232   3.413   0.516   3.708
 2742TIP3    H2 8233   3.395   0.666   3.715
 2743TIP3   OH2 8234   4.698   3.668   0.219
 2743TIP3    H1 8235   4.736   3.629   0.298
 2743TIP3    H2 8236   4.604   3.674   0.238
 2744TIP3   OH2 8237   4.624   0.417   4.276
 2744TIP3    H1 8238   4.612   0.361   4.200
 2744TIP3    H2 8239   4.566   0.491   4.260
 2745TIP3   OH2 8240   3.387   0.345   0.632
 2745TIP3    H1 8241   3.408   0.391   0.551
 2745TIP3    H2 8242   3.377   0.253   0.605
 2746TIP3   OH2 8243   0.038   4.239   4.415
 2746TIP3    H1 8244   0.058   4.318   4.365
 2746TIP3    H2 8245  -0.038   4.201   4.371
 2747TIP3   OH2 8246   5.010   2.620   1.401
 2747TIP3    H1 8247   4.920   2.652   1.390
 2747TIP3    H2 8248   5.026   2.567   1.323
 2748TIP3   OH2 8249   2.988   5.413   3.307
 2748TIP3    H1 8250   3.038   5.494   3.301
 2748TIP3    H2 8251   3.011   5.377   3.393
 2749TIP3   OH2 8252   5.212   4.647   3.760
 2749TIP3    H1 8253   5.176   4.710   3.822
 2749TIP3    H2 8254   5.182   4.676   3.674
 2750TIP3   OH2 8255   4.645   4.567   1.023
 2750TIP3    H1 8256   4.737   4.542   1.013
 2750TIP3    H2 8257   4.626   4.619   0.945
 2751TIP3   OH2 8258   0.124   5.712   0.424
 2751TIP3    H1 8259   0.143   5.634   0.372
 2751TIP3    H2 8260   0.099   5.679   0.510
 2752TIP3   OH2 8261   1.704   0.203   0.680
 2752TIP3    H1 8262   1.667   0.288   0.658
 2752TIP3    H2 8263   1.639   0.139   0.652
 2753TIP3   OH2 8264   1.419   3.426   2.452
 2753TIP3    H1 8265   1.491   3.368   2.474
 2753TIP3    H2 8266   1.411   3.421   2.357
 2754TIP3   OH2 8267   0.294   5.397   4.646
 2754TIP3    H1 8268   0.339   5.340   4.709
 2754TIP3    H2 8269   0.201   5.381   4.661
 2755TIP3   OH2 8270   1.017   1.649   1.809
 2755TIP3    H1 8271   1.036   1.650   1.903
 2755TIP3    H2 8272   1.097   1.612   1.769
 2756TIP3   OH2 8273   5.129   1.387   0.623
 2756TIP3    H1 8274   5.120   1.369   0.717
 2756TIP3    H2 8275   5.043   1.420   0.597
 2757TIP3   OH2 8276   1.020   5.052   2.102
 2757TIP3    H1 8277   0.952   5.119   2.108
 2757TIP3    H2 8278   0.974   4.973   2.075
 2758TIP3   OH2 8279   4.626   1.420   0.792
 2758TIP3    H1 8280   4.571   1.411   0.870
 2758TIP3    H2 8281   4.637   1.515   0.783
 2759TIP3   OH2 8282   1.350   1.750   1.553
 2759TIP3    H1 8283   1.267   1.785   1.586
 2759TIP3    H2 8284   1.329   1.723   1.463
 2760TIP3   OH2 8285   1.262   4.917   4.854
 2760TIP3    H1 8286   1.257   4.823   4.872
 2760TIP3    H2 8287   1.216   4.958   4.927
 2761TIP3   OH2 8288   4.174   4.386   4.229
 2761TIP3    H1 8289   4.098   4.338   4.197
 2761TIP3    H2 8290   4.151   4.412   4.318
 2762TIP3   OH2 8291   0.124   0.781   2.722
 2762TIP3    H1 8292   0.165   0.866   2.706
 2762TIP3    H2 8293   0.194   0.729   2.763
 2763TIP3   OH2 8294   2.123   2.111   2.953
 2763TIP3    H1 8295   2.127   2.206   2.963
 2763TIP3    H2 8296   2.139   2.096   2.860
 2764TIP3   OH2 8297   2.074   5.499   1.850
 2764TIP3    H1 8298   2.143   5.435   1.835
 2764TIP3    H2 8299   2.111   5.582   1.818
 2765TIP3   OH2 8300   1.410   5.791   4.972
 2765TIP3    H1 8301   1.411   5.883   4.999
 2765TIP3    H2 8302   1.401   5.741   5.053
 2766TIP3   OH2 8303   0.285   1.998   2.076
 2766TIP3    H1 8304   0.315   2.069   2.133
 2766TIP3    H2 8305   0.316   1.918   2.119
 2767TIP3   OH2 8306   3.721   0.862   0.713
 2767TIP3    H1 8307   3.738   0.836   0.623
 2767TIP3    H2 8308   3.657   0.933   0.705
 2768TIP3   OH2 8309   0.834   2.256   0.128
 2768TIP3    H1 8310   0.918   2.274   0.170
 2768TIP3    H2 8311   0.854   2.254   0.035
 2769TIP3   OH2 8312   5.097   0.259   3.883
 2769TIP3    H1 8313   5.100   0.281   3.977
 2769TIP3    H2 8314   5.008   0.279   3.857
 2770TIP3   OH2 8315   0.702   4.686   4.186
 2770TIP3    H1 8316   0.682   4.745   4.259
 2770TIP3    H2 8317   0.653   4.723   4.112
 2771TIP3   OH2 8318   3.388   3.253   0.981
 2771TIP3    H1 8319   3.374   3.344   1.006
 2771TIP3    H2 8320   3.308   3.228   0.934
 2772TIP3   OH2 8321   4.806   0.115   0.891
 2772TIP3    H1 8322   4.770   0.033   0.855
 2772TIP3    H2 8323   4.798   0.105   0.986
 2773TIP3   OH2 8324   2.330   0.578   3.946
 2773TIP3    H1 8325   2.310   0.510   3.881
 2773TIP3    H2 8326   2.250   0.630   3.951
 2774TIP3   OH2 8327   0.615   4.986   4.898
 2774TIP3    H1 8328   0.689   4.950   4.948
 2774TIP3    H2 8329   0.649   4.996   4.809
 2775TIP3   OH2 8330   0.067   2.746   2.450
 2775TIP3    H1 8331   0.120   2.677   2.491
 2775TIP3    H2 8332   0.122   2.781   2.380
 2776TIP3   OH2 8333   2.846   0.658   5.025
 2776TIP3    H1 8334   2.844   0.666   5.121
 2776TIP3    H2 8335   2.825   0.746   4.994
 2777TIP3   OH2 8336   4.329   2.930   0.342
 2777TIP3    H1 8337   4.418   2.961   0.322
 2777TIP3    H2 8338   4.331   2.837   0.317
 2778TIP3   OH2 8339   0.566   2.655   4.595
 2778TIP3    H1 8340   0.519   2.576   4.567
 2778TIP3    H2 8341   0.508   2.696   4.659
 2779TIP3   OH2 8342   5.409   4.677   0.713
 2779TIP3    H1 8343   5.428   4.719   0.797
 2779TIP3    H2 8344   5.467   4.601   0.711
 2780TIP3   OH2 8345   4.996   4.524   3.580
 2780TIP3    H1 8346   5.066   4.553   3.521
 2780TIP3    H2 8347   4.987   4.595   3.643
 2781TIP3   OH2 8348   3.417   1.672   1.598
 2781TIP3    H1 8349   3.471   1.684   1.676
 2781TIP3    H2 8350   3.477   1.643   1.530
 2782TIP3   OH2 8351   1.332   1.610   3.034
 2782TIP3    H1 8352   1.287   1.693   3.049
 2782TIP3    H2 8353   1.267   1.543   3.056
 2783TIP3   OH2 8354   6.201   1.641   4.178
 2783TIP3    H1 8355   6.105   1.648   4.178
 2783TIP3    H2 8356   6.230   1.701   4.246
 2784TIP3   OH2 8357   4.939   5.946   4.453
 2784TIP3    H1 8358   4.958   5.939   4.359
 2784TIP3    H2 8359   4.931   6.040   4.469
 2785TIP3   OH2 8360   3.812   0.036   2.150
 2785TIP3    H1 8361   3.737   0.017   2.094
 2785TIP3    H2 8362   3.782   0.106   2.208
 2786TIP3   OH2 8363   4.838   4.219   2.400
 2786TIP3    H1 8364   4.765   4.170   2.364
 2786TIP3    H2 8365   4.907   4.213   2.334
 2787TIP3   OH2 8366   3.738  -0.003   1.812
 2787TIP3    H1 8367   3.775   0.077   1.849
 2787TIP3    H2 8368   3.723   0.019   1.720
 2788TIP3   OH2 8369   5.863   4.999   3.373
 2788TIP3    H1 8370   5.925   5.072   3.363
 2788TIP3    H2 8371   5.868   4.951   3.290
 2789TIP3   OH2 8372   5.399   2.147   0.822
 2789TIP3    H1 8373   5.324   2.178   0.772
 2789TIP3    H2 8374   5.365   2.075   0.874
 2790TIP3   OH2 8375   3.011   1.917   2.437
 2790TIP3    H1 8376   2.926   1.958   2.421
 2790TIP3    H2 8377   3.030   1.869   2.356
 2791TIP3   OH2 8378   5.386   3.735   0.850
 2791TIP3    H1 8379   5.337   3.767   0.925
 2791TIP3    H2 8380   5.394   3.641   0.865
 2792TIP3   OH2 8381   3.976   1.340   2.306
 2792TIP3    H1 8382   3.973   1.313   2.398
 2792TIP3    H2 8383   4.034   1.277   2.264
 2793TIP3   OH2 8384   3.521   3.986   2.796
 2793TIP3    H1 8385   3.568   3.910   2.829
 2793TIP3    H2 8386   3.584   4.029   2.738
 2794TIP3   OH2 8387   2.034   1.550   0.173
 2794TIP3    H1 8388   1.982   1.475   0.202
 2794TIP3    H2 8389   2.097   1.565   0.243
 2795TIP3   OH2 8390   0.210   1.083   4.069
 2795TIP3    H1 8391   0.238   1.107   4.157
 2795TIP3    H2 8392   0.230   0.990   4.062
 2796TIP3   OH2 8393   1.557   4.232   3.226
 2796TIP3    H1 8394   1.532   4.322   3.246
 2796TIP3    H2 8395   1.482   4.196   3.178
 2797TIP3   OH2 8396   2.760   1.708   1.590
 2797TIP3    H1 8397   2.818   1.780   1.566
 2797TIP3    H2 8398   2.756   1.654   1.511
 2798TIP3   OH2 8399   2.866   0.229   3.788
 2798TIP3    H1 8400   2.956   0.244   3.760
 2798TIP3    H2 8401   2.873   0.193   3.876
 2799TIP3   OH2 8402   2.555   1.263   1.533
 2799TIP3    H1 8403   2.536   1.186   1.588
 2799TIP3    H2 8404   2.648   1.280   1.548
 2800TIP3   OH2 8405   6.031   1.039   4.226
 2800TIP3    H1 8406   6.027   0.955   4.271
 2800TIP3    H2 8407   5.942   1.055   4.196
 2801TIP3   OH2 8408   3.677   3.240   2.109
 2801TIP3    H1 8409   3.752   3.181   2.117
 2801TIP3    H2 8410   3.701   3.299   2.038
 2802TIP3   OH2 8411   4.134   3.444   4.347
 2802TIP3    H1 8412   4.144   3.463   4.254
 2802TIP3    H2 8413   4.086   3.361   4.350
 2803TIP3   OH2 8414   4.713   1.067   4.063
 2803TIP3    H1 8415   4.654   1.095   4.132
 2803TIP3    H2 8416   4.683   0.979   4.040
 2804TIP3   OH2 8417   5.381   4.815   0.451
 2804TIP3    H1 8418   5.465   4.784   0.416
 2804TIP3    H2 8419   5.382   4.786   0.542
 2805TIP3   OH2 8420   4.258   3.100   1.565
 2805TIP3    H1 8421   4.176   3.080   1.610
 2805TIP3    H2 8422   4.276   3.191   1.589
 2806TIP3   OH2 8423   3.169   3.724   0.275
 2806TIP3    H1 8424   3.219   3.799   0.240
 2806TIP3    H2 8425   3.220   3.648   0.249
 2807TIP3   OH2 8426   0.428   2.709   1.982
 2807TIP3    H1 8427   0.367   2.664   1.923
 2807TIP3    H2 8428   0.503   2.649   1.988
 2808TIP3   OH2 8429   4.847   5.605   1.414
 2808TIP3    H1 8430   4.850   5.513   1.391
 2808TIP3    H2 8431   4.756   5.620   1.441
 2809TIP3   OH2 8432   0.269   2.844   2.214
 2809TIP3    H1 8433   0.239   2.852   2.123
 2809TIP3    H2 8434   0.279   2.935   2.243
 2810TIP3   OH2 8435   1.282   4.181   4.053
 2810TIP3    H1 8436   1.243   4.115   3.995
 2810TIP3    H2 8437   1.374   4.153   4.061
 2811TIP3   OH2 8438   0.986   0.941   3.018
 2811TIP3    H1 8439   0.994   0.911   2.928
 2811TIP3    H2 8440   1.001   0.862   3.071
 2812TIP3   OH2 8441   4.253   0.657   0.928
 2812TIP3    H1 8442   4.266   0.597   0.855
 2812TIP3    H2 8443   4.261   0.601   1.006
 2813TIP3   OH2 8444   2.304   3.673   0.383
 2813TIP3    H1 8445   2.399   3.662   0.391
 2813TIP3    H2 8446   2.285   3.749   0.438
 2814TIP3   OH2 8447   6.219   5.215   2.734
 2814TIP3    H1 8448   6.137   5.265   2.740
 2814TIP3    H2 8449   6.274   5.267   2.676
 2815TIP3   OH2 8450   1.251   4.068   4.550
 2815TIP3    H1 8451   1.284   3.988   4.508
 2815TIP3    H2 8452   1.263   4.053   4.643
 2816TIP3   OH2 8453   3.611   3.983   3.284
 2816TIP3    H1 8454   3.690   4.022   3.247
 2816TIP3    H2 8455   3.643   3.928   3.356
 2817TIP3   OH2 8456   5.119   5.003   3.748
 2817TIP3    H1 8457   5.096   5.078   3.802
 2817TIP3    H2 8458   5.041   4.947   3.751
 2818TIP3   OH2 8459   3.076   0.267   0.260
 2818TIP3    H1 8460   3.066   0.214   0.339
 2818TIP3    H2 8461   3.031   0.217   0.192
 2819TIP3   OH2 8462   4.408   3.924   4.497
 2819TIP3    H1 8463   4.460   4.004   4.509
 2819TIP3    H2 8464   4.472   3.853   4.501
 2820TIP3   OH2 8465   2.494   4.206   2.479
 2820TIP3    H1 8466   2.421   4.203   2.418
 2820TIP3    H2 8467   2.551   4.275   2.444
 2821TIP3   OH2 8468   1.664   4.157   1.015
 2821TIP3    H1 8469   1.595   4.203   1.061
 2821TIP3    H2 8470   1.655   4.184   0.924
 2822TIP3   OH2 8471   0.286   5.564   2.607
 2822TIP3    H1 8472   0.333   5.517   2.538
 2822TIP3    H2 8473   0.338   5.551   2.686
 2823TIP3   OH2 8474   5.864   4.966   1.680
 2823TIP3    H1 8475   5.846   4.915   1.602
 2823TIP3    H2 8476   5.939   5.021   1.657
 2824TIP3   OH2 8477   4.787   1.828   3.006
 2824TIP3    H1 8478   4.868   1.813   2.958
 2824TIP3    H2 8479   4.815   1.861   3.092
 2825TIP3   OH2 8480   5.739   0.300   4.688
 2825TIP3    H1 8481   5.771   0.389   4.699
 2825TIP3    H2 8482   5.716   0.293   4.595
 2826TIP3   OH2 8483   2.874   1.938   4.299
 2826TIP3    H1 8484   2.800   1.904   4.248
 2826TIP3    H2 8485   2.865   2.033   4.294
 2827TIP3   OH2 8486   2.291   5.600   0.323
 2827TIP3    H1 8487   2.306   5.695   0.318
 2827TIP3    H2 8488   2.296   5.581   0.417
 2828TIP3   OH2 8489   4.151   2.071   4.102
 2828TIP3    H1 8490   4.083   2.022   4.149
 2828TIP3    H2 8491   4.131   2.057   4.010
 2829TIP3   OH2 8492   3.771   5.334   1.409
 2829TIP3    H1 8493   3.838   5.380   1.358
 2829TIP3    H2 8494   3.815   5.312   1.491
 2830TIP3   OH2 8495   5.340   4.805   1.998
 2830TIP3    H1 8496   5.402   4.731   2.000
 2830TIP3    H2 8497   5.268   4.774   1.944
 2831TIP3   OH2 8498   5.290   3.862   1.365
 2831TIP3    H1 8499   5.377   3.832   1.390
 2831TIP3    H2 8500   5.267   3.926   1.431
 2832TIP3   OH2 8501   2.401   2.314   0.484
 2832TIP3    H1 8502   2.473   2.363   0.523
 2832TIP3    H2 8503   2.387   2.240   0.544
 2833TIP3   OH2 8504   1.469   1.627   0.605
 2833TIP3    H1 8505   1.438   1.538   0.618
 2833TIP3    H2 8506   1.492   1.631   0.512
 2834TIP3   OH2 8507   4.210   2.434   0.135
 2834TIP3    H1 8508   4.285   2.377   0.152
 2834TIP3    H2 8509   4.216   2.453   0.041
 2835TIP3   OH2 8510   0.379   2.269   0.759
 2835TIP3    H1 8511   0.432   2.191   0.745
 2835TIP3    H2 8512   0.386   2.286   0.853
 2836TIP3   OH2 8513   6.174   5.041   2.944
 2836TIP3    H1 8514   6.178   5.112   2.880
 2836TIP3    H2 8515   6.264   5.011   2.953
 2837TIP3   OH2 8516   4.973   2.544   3.242
 2837TIP3    H1 8517   5.005   2.454   3.242
 2837TIP3    H2 8518   4.890   2.540   3.195
 2838TIP3   OH2 8519   5.221   5.868   4.323
 2838TIP3    H1 8520   5.153   5.910   4.270
 2838TIP3    H2 8521   5.180   5.791   4.360
 2839TIP3   OH2 8522   0.691   0.178   2.765
 2839TIP3    H1 8523   0.605   0.152   2.734
 2839TIP3    H2 8524   0.714   0.254   2.710
 2840TIP3   OH2 8525   5.251   2.569   3.554
 2840TIP3    H1 8526   5.271   2.547   3.645
 2840TIP3    H2 8527   5.333   2.557   3.507
 2841TIP3   OH2 8528   1.197   4.444   0.097
 2841TIP3    H1 8529   1.242   4.361   0.115
 2841TIP3    H2 8530   1.264   4.499   0.057
 2842TIP3   OH2 8531   3.414   4.415   3.525
 2842TIP3    H1 8532   3.421   4.384   3.435
 2842TIP3    H2 8533   3.400   4.509   3.517
 2843TIP3   OH2 8534   5.531   3.599   4.404
 2843TIP3    H1 8535   5.611   3.579   4.453
 2843TIP3    H2 8536   5.470   3.631   4.471
 2844TIP3   OH2 8537   1.624   0.488   4.572
 2844TIP3    H1 8538   1.693   0.469   4.636
 2844TIP3    H2 8539   1.626   0.583   4.563
 2845TIP3   OH2 8540   0.580   4.024   4.889
 2845TIP3    H1 8541   0.565   4.119   4.884
 2845TIP3    H2 8542   0.667   4.011   4.851
 2846TIP3   OH2 8543   3.236   5.953   3.505
 2846TIP3    H1 8544   3.214   6.009   3.430
 2846TIP3    H2 8545   3.185   5.989   3.577
 2847TIP3   OH2 8546   1.798   2.483   4.023
 2847TIP3    H1 8547   1.704   2.486   4.045
 2847TIP3    H2 8548   1.805   2.531   3.941
 2848TIP3   OH2 8549   4.905   0.326   2.167
 2848TIP3    H1 8550   4.937   0.259   2.227
 2848TIP3    H2 8551   4.827   0.287   2.128
 2849TIP3   OH2 8552   6.239   1.090   2.824
 2849TIP3    H1 8553   6.309   1.037   2.863
 2849TIP3    H2 8554   6.183   1.026   2.779
 2850TIP3   OH2 8555   4.841   2.243   3.867
 2850TIP3    H1 8556   4.869   2.334   3.854
 2850TIP3    H2 8557   4.747   2.250   3.886
 2851TIP3   OH2 8558   6.190   0.330   5.173
 2851TIP3    H1 8559   6.214   0.245   5.137
 2851TIP3    H2 8560   6.251   0.343   5.246
 2852TIP3   OH2 8561   4.760   1.731   3.398
 2852TIP3    H1 8562   4.680   1.679   3.407
 2852TIP3    H2 8563   4.830   1.666   3.388
 2853TIP3   OH2 8564   2.951   4.035   4.500
 2853TIP3    H1 8565   2.962   4.025   4.405
 2853TIP3    H2 8566   2.900   4.116   4.510
 2854TIP3   OH2 8567   1.933   4.529   4.403
 2854TIP3    H1 8568   2.014   4.506   4.358
 2854TIP3    H2 8569   1.923   4.623   4.388
 2855TIP3   OH2 8570   5.103   1.333   3.489
 2855TIP3    H1 8571   5.023   1.385   3.478
 2855TIP3    H2 8572   5.073   1.252   3.531
 2856TIP3   OH2 8573   6.017   1.266   5.068
 2856TIP3    H1 8574   6.101   1.242   5.107
 2856TIP3    H2 8575   6.034   1.272   4.974
 2857TIP3   OH2 8576   4.430   0.723   1.497
 2857TIP3    H1 8577   4.420   0.786   1.427
 2857TIP3    H2 8578   4.517   0.740   1.534
 2858TIP3   OH2 8579   4.036   5.218   2.218
 2858TIP3    H1 8580   4.107   5.207   2.155
 2858TIP3    H2 8581   3.956   5.206   2.167
 2859TIP3   OH2 8582   5.657   1.628   0.075
 2859TIP3    H1 8583   5.653   1.687   0.000
 2859TIP3    H2 8584   5.627   1.681   0.149
 2860TIP3   OH2 8585   0.127   2.309   3.094
 2860TIP3    H1 8586   0.088   2.302   3.006
 2860TIP3    H2 8587   0.220   2.323   3.077
 2861TIP3   OH2 8588   3.985   4.565   1.125
 2861TIP3    H1 8589   3.981   4.614   1.208
 2861TIP3    H2 8590   4.015   4.630   1.061
 2862TIP3   OH2 8591   1.013   5.075   0.996
 2862TIP3    H1 8592   0.970   5.071   0.911
 2862TIP3    H2 8593   0.955   5.026   1.055
 2863TIP3   OH2 8594   2.572   3.952   0.247
 2863TIP3    H1 8595   2.665   3.974   0.253
 2863TIP3    H2 8596   2.566   3.890   0.175
 2864TIP3   OH2 8597   1.217   5.733   1.418
 2864TIP3    H1 8598   1.193   5.715   1.509
 2864TIP3    H2 8599   1.249   5.650   1.385
 2865TIP3   OH2 8600   2.638   3.074   4.152
 2865TIP3    H1 8601   2.626   3.114   4.066
 2865TIP3    H2 8602   2.682   2.991   4.134
 2866TIP3   OH2 8603   4.066   5.153   1.207
 2866TIP3    H1 8604   4.127   5.081   1.223
 2866TIP3    H2 8605   4.101   5.197   1.129
 2867TIP3   OH2 8606   3.011   5.292   1.196
 2867TIP3    H1 8607   2.956   5.240   1.255
 2867TIP3    H2 8608   3.100   5.263   1.214
 2868TIP3   OH2 8609   4.691   5.951   3.139
 2868TIP3    H1 8610   4.678   5.985   3.227
 2868TIP3    H2 8611   4.737   5.868   3.152
 2869TIP3   OH2 8612   1.848   1.756   0.213
 2869TIP3    H1 8613   1.902   1.830   0.187
 2869TIP3    H2 8614   1.897   1.679   0.185
 2870TIP3   OH2 8615   4.436   4.543   2.234
 2870TIP3    H1 8616   4.500   4.614   2.226
 2870TIP3    H2 8617   4.489   4.465   2.255
 2871TIP3   OH2 8618   0.227   3.726   4.397
 2871TIP3    H1 8619   0.305   3.702   4.347
 2871TIP3    H2 8620   0.165   3.656   4.380
 2872TIP3   OH2 8621   4.655   4.136   3.721
 2872TIP3    H1 8622   4.698   4.053   3.701
 2872TIP3    H2 8623   4.595   4.115   3.792
 2873TIP3   OH2 8624   2.939   4.791   4.464
 2873TIP3    H1 8625   2.850   4.772   4.495
 2873TIP3    H2 8626   2.977   4.705   4.445
 2874TIP3   OH2 8627   2.004   5.889   0.427
 2874TIP3    H1 8628   2.045   5.924   0.348
 2874TIP3    H2 8629   1.911   5.879   0.403
 2875TIP3   OH2 8630   0.197   3.378   2.759
 2875TIP3    H1 8631   0.156   3.463   2.744
 2875TIP3    H2 8632   0.279   3.382   2.710
 2876TIP3   OH2 8633   1.514   1.286   0.503
 2876TIP3    H1 8634   1.471   1.307   0.585
 2876TIP3    H2 8635   1.601   1.256   0.529
 2877TIP3   OH2 8636   5.573   0.601   2.333
 2877TIP3    H1 8637   5.613   0.661   2.395
 2877TIP3    H2 8638   5.618   0.518   2.346
 2878TIP3   OH2 8639   6.201   2.459   3.321
 2878TIP3    H1 8640   6.141   2.386   3.309
 2878TIP3    H2 8641   6.210   2.497   3.234
 2879TIP3   OH2 8642   1.842   5.091   4.911
 2879TIP3    H1 8643   1.854   5.078   5.006
 2879TIP3    H2 8644   1.894   5.021   4.871
 2880TIP3   OH2 8645   4.695   3.524   1.059
 2880TIP3    H1 8646   4.654   3.468   1.125
 2880TIP3    H2 8647   4.638   3.517   0.983
 2881TIP3   OH2 8648   1.618   2.231   4.219
 2881TIP3    H1 8649   1.549   2.170   4.244
 2881TIP3    H2 8650   1.618   2.232   4.124
 2882TIP3   OH2 8651   1.878   4.455   3.566
 2882TIP3    H1 8652   1.924   4.530   3.528
 2882TIP3    H2 8653   1.867   4.478   3.658
 2883TIP3   OH2 8654   4.119   2.558   3.493
 2883TIP3    H1 8655   4.149   2.494   3.428
 2883TIP3    H2 8656   4.039   2.520   3.530
 2884TIP3   OH2 8657   1.322   2.561   2.210
 2884TIP3    H1 8658   1.348   2.470   2.199
 2884TIP3    H2 8659   1.379   2.594   2.279
 2885TIP3   OH2 8660   4.047   1.887   1.481
 2885TIP3    H1 8661   4.034   1.946   1.554
 2885TIP3    H2 8662   4.018   1.802   1.513
 2886TIP3   OH2 8663   6.137   2.465   1.618
 2886TIP3    H1 8664   6.166   2.529   1.683
 2886TIP3    H2 8665   6.104   2.518   1.545
 2887TIP3   OH2 8666   1.653   4.274   0.773
 2887TIP3    H1 8667   1.607   4.323   0.705
 2887TIP3    H2 8668   1.744   4.271   0.744
 2888TIP3   OH2 8669   2.590   1.048   1.725
 2888TIP3    H1 8670   2.597   1.074   1.817
 2888TIP3    H2 8671   2.679   1.023   1.700
 2889TIP3   OH2 8672   6.098   2.219   4.258
 2889TIP3    H1 8673   6.137   2.239   4.173
 2889TIP3    H2 8674   6.101   2.124   4.265
 2890TIP3   OH2 8675   3.186   4.987   1.306
 2890TIP3    H1 8676   3.221   4.963   1.392
 2890TIP3    H2 8677   3.171   5.081   1.312
 2891TIP3   OH2 8678   4.717   2.012   2.432
 2891TIP3    H1 8679   4.732   2.103   2.404
 2891TIP3    H2 8680   4.622   2.005   2.440
 2892TIP3   OH2 8681   3.837   4.672   3.305
 2892TIP3    H1 8682   3.810   4.582   3.283
 2892TIP3    H2 8683   3.759   4.711   3.346
 2893TIP3   OH2 8684   4.078   4.768   2.296
 2893TIP3    H1 8685   4.073   4.768   2.200
 2893TIP3    H2 8686   4.157   4.817   2.316
 2894TIP3   OH2 8687   0.489   4.091   1.887
 2894TIP3    H1 8688   0.400   4.121   1.871
 2894TIP3    H2 8689   0.485   3.996   1.871
 2895TIP3   OH2 8690   5.613   0.836   3.797
 2895TIP3    H1 8691   5.592   0.744   3.781
 2895TIP3    H2 8692   5.654   0.836   3.883
 2896TIP3   OH2 8693   0.556   5.159   4.421
 2896TIP3    H1 8694   0.552   5.126   4.331
 2896TIP3    H2 8695   0.480   5.217   4.428
 2897TIP3   OH2 8696   2.187   1.614   2.003
 2897TIP3    H1 8697   2.262   1.658   2.042
 2897TIP3    H2 8698   2.137   1.684   1.961
 2898TIP3   OH2 8699   4.875   0.504   1.570
 2898TIP3    H1 8700   4.830   0.519   1.653
 2898TIP3    H2 8701   4.922   0.586   1.553
 2899TIP3   OH2 8702   0.201   3.209   0.485
 2899TIP3    H1 8703   0.109   3.201   0.511
 2899TIP3    H2 8704   0.246   3.141   0.535
 2900TIP3   OH2 8705   5.088   2.333   0.079
 2900TIP3    H1 8706   5.159   2.349   0.017
 2900TIP3    H2 8707   5.084   2.238   0.088
 2901TIP3   OH2 8708   4.565   0.298   2.800
 2901TIP3    H1 8709   4.640   0.317   2.858
 2901TIP3    H2 8710   4.523   0.222   2.840
 2902TIP3   OH2 8711   4.691   2.317   2.032
 2902TIP3    H1 8712   4.717   2.246   1.974
 2902TIP3    H2 8713   4.704   2.396   1.980
 2903TIP3   OH2 8714   2.514   0.498   4.150
 2903TIP3    H1 8715   2.442   0.518   4.091
 2903TIP3    H2 8716   2.520   0.402   4.148
 2904TIP3   OH2 8717   5.838   2.513   1.639
 2904TIP3    H1 8718   5.834   2.433   1.586
 2904TIP3    H2 8719   5.898   2.491   1.710
 2905TIP3   OH2 8720   0.967   3.663   2.006
 2905TIP3    H1 8721   0.908   3.695   1.937
 2905TIP3    H2 8722   1.027   3.604   1.961
 2906TIP3   OH2 8723   5.360   0.645   3.005
 2906TIP3    H1 8724   5.354   0.738   2.982
 2906TIP3    H2 8725   5.449   0.620   2.982
 2907TIP3   OH2 8726   3.939   3.245   2.941
 2907TIP3    H1 8727   3.976   3.333   2.933
 2907TIP3    H2 8728   4.013   3.190   2.965
 2908TIP3   OH2 8729   0.122   2.261   2.825
 2908TIP3    H1 8730   0.059   2.289   2.757
 2908TIP3    H2 8731   0.193   2.220   2.776
 2909TIP3   OH2 8732   3.163   1.554   1.624
 2909TIP3    H1 8733   3.111   1.562   1.544
 2909TIP3    H2 8734   3.254   1.557   1.594
 2910TIP3   OH2 8735   2.549   4.363   1.802
 2910TIP3    H1 8736   2.506   4.407   1.729
 2910TIP3    H2 8737   2.576   4.278   1.767
 2911TIP3   OH2 8738   5.474   3.460   0.827
 2911TIP3    H1 8739   5.478   3.471   0.732
 2911TIP3    H2 8740   5.546   3.402   0.848
 2912TIP3   OH2 8741   6.126   3.685   3.075
 2912TIP3    H1 8742   6.034   3.665   3.089
 2912TIP3    H2 8743   6.143   3.661   2.984
 2913TIP3   OH2 8744   0.476   1.465   1.177
 2913TIP3    H1 8745   0.440   1.377   1.193
 2913TIP3    H2 8746   0.569   1.456   1.194
 2914TIP3   OH2 8747   0.333   2.445   0.011
 2914TIP3    H1 8748   0.265   2.381  -0.013
 2914TIP3    H2 8749   0.410   2.392   0.030
 2915TIP3   OH2 8750   5.398   4.786   2.706
 2915TIP3    H1 8751   5.312   4.778   2.749
 2915TIP3    H2 8752   5.443   4.704   2.727
 2916TIP3   OH2 8753   1.117  -0.001   1.567
 2916TIP3    H1 8754   1.208   0.022   1.582
 2916TIP3    H2 8755   1.067   0.061   1.619
 2917TIP3   OH2 8756   1.812   5.080   1.783
 2917TIP3    H1 8757   1.717   5.081   1.796
 2917TIP3    H2 8758   1.847   5.053   1.868
 2918TIP3   OH2 8759   0.461   4.481   0.178
 2918TIP3    H1 8760   0.419   4.396   0.165
 2918TIP3    H2 8761   0.394   4.535   0.219
 2919TIP3   OH2 8762   3.609   2.867   4.451
 2919TIP3    H1 8763   3.678   2.804   4.429
 2919TIP3    H2 8764   3.534   2.812   4.472
 2920TIP3   OH2 8765   0.849   1.945   0.091
 2920TIP3    H1 8766   0.937   1.930   0.058
 2920TIP3    H2 8767   0.847   1.899   0.175
 2921TIP3   OH2 8768   1.517   3.666   0.538
 2921TIP3    H1 8769   1.429   3.630   0.545
 2921TIP3    H2 8770   1.527   3.688   0.445
 2922TIP3   OH2 8771   6.200   5.027   2.142
 2922TIP3    H1 8772   6.142   4.996   2.072
 2922TIP3    H2 8773   6.233   5.111   2.109
 2923TIP3   OH2 8774   0.874   5.222   3.458
 2923TIP3    H1 8775   0.835   5.287   3.399
 2923TIP3    H2 8776   0.807   5.155   3.468
 2924TIP3   OH2 8777   5.700   3.227   3.964
 2924TIP3    H1 8778   5.678   3.295   4.027
 2924TIP3    H2 8779   5.684   3.145   4.010
 2925TIP3   OH2 8780   2.331   2.595   3.406
 2925TIP3    H1 8781   2.369   2.595   3.318
 2925TIP3    H2 8782   2.349   2.507   3.440
 2926TIP3   OH2 8783   1.700   5.839   2.915
 2926TIP3    H1 8784   1.641   5.906   2.948
 2926TIP3    H2 8785   1.649   5.759   2.916
 2927TIP3   OH2 8786   6.064   1.080   0.599
 2927TIP3    H1 8787   6.085   1.020   0.670
 2927TIP3    H2 8788   6.019   1.025   0.534
 2928TIP3   OH2 8789   1.064   5.247   0.688
 2928TIP3    H1 8790   0.975   5.219   0.708
 2928TIP3    H2 8791   1.083   5.314   0.753
 2929TIP3   OH2 8792   6.071   1.219   4.754
 2929TIP3    H1 8793   6.008   1.149   4.771
 2929TIP3    H2 8794   6.020   1.286   4.707
 2930TIP3   OH2 8795   5.044   4.539   2.914
 2930TIP3    H1 8796   5.072   4.449   2.900
 2930TIP3    H2 8797   5.049   4.552   3.008
 2931TIP3   OH2 8798   5.961   0.397   4.892
 2931TIP3    H1 8799   5.927   0.467   4.949
 2931TIP3    H2 8800   5.956   0.318   4.946
 2932TIP3   OH2 8801   3.376   4.709   2.274
 2932TIP3    H1 8802   3.357   4.780   2.336
 2932TIP3    H2 8803   3.318   4.726   2.200
 2933TIP3   OH2 8804   3.895   5.113   0.215
 2933TIP3    H1 8805   3.808   5.082   0.189
 2933TIP3    H2 8806   3.887   5.208   0.219
 2934TIP3   OH2 8807   2.130   2.224   1.374
 2934TIP3    H1 8808   2.103   2.132   1.382
 2934TIP3    H2 8809   2.212   2.229   1.422
 2935TIP3   OH2 8810   5.819   3.657   0.123
 2935TIP3    H1 8811   5.907   3.694   0.114
 2935TIP3    H2 8812   5.760   3.730   0.104
 2936TIP3   OH2 8813   5.288   4.058   1.823
 2936TIP3    H1 8814   5.257   3.979   1.866
 2936TIP3    H2 8815   5.290   4.124   1.893
 2937TIP3   OH2 8816   3.153   2.368   0.379
 2937TIP3    H1 8817   3.079   2.424   0.355
 2937TIP3    H2 8818   3.221   2.429   0.407
 2938TIP3   OH2 8819   1.781   5.863   4.795
 2938TIP3    H1 8820   1.791   5.953   4.763
 2938TIP3    H2 8821   1.807   5.868   4.887
 2939TIP3   OH2 8822   3.080   1.299   3.531
 2939TIP3    H1 8823   3.066   1.276   3.439
 2939TIP3    H2 8824   3.174   1.318   3.537
 2940TIP3   OH2 8825   5.996   1.798   0.797
 2940TIP3    H1 8826   6.083   1.813   0.760
 2940TIP3    H2 8827   5.998   1.707   0.827
 2941TIP3   OH2 8828   5.297   2.788   0.759
 2941TIP3    H1 8829   5.357   2.794   0.685
 2941TIP3    H2 8830   5.345   2.738   0.825
 2942TIP3   OH2 8831   2.080   0.669   2.847
 2942TIP3    H1 8832   2.130   0.707   2.919
 2942TIP3    H2 8833   2.135   0.598   2.814
 2943TIP3   OH2 8834   0.989   2.645   3.011
 2943TIP3    H1 8835   1.045   2.574   3.042
 2943TIP3    H2 8836   1.039   2.725   3.031
 2944TIP3   OH2 8837   5.812   4.116   2.865
 2944TIP3    H1 8838   5.825   4.132   2.959
 2944TIP3    H2 8839   5.899   4.124   2.827
 2945TIP3   OH2 8840   4.397   0.814   4.105
 2945TIP3    H1 8841   4.477   0.844   4.063
 2945TIP3    H2 8842   4.358   0.893   4.143
 2946TIP3   OH2 8843   6.197   4.729   4.626
 2946TIP3    H1 8844   6.245   4.696   4.550
 2946TIP3    H2 8845   6.130   4.786   4.588
 2947TIP3   OH2 8846   3.602   2.087   1.131
 2947TIP3    H1 8847   3.617   2.133   1.048
 2947TIP3    H2 8848   3.507   2.080   1.138
 2948TIP3   OH2 8849   1.138   1.345   4.879
 2948TIP3    H1 8850   1.052   1.376   4.853
 2948TIP3    H2 8851   1.195   1.366   4.805
 2949TIP3   OH2 8852   2.580   2.404   4.920
 2949TIP3    H1 8853   2.534   2.324   4.945
 2949TIP3    H2 8854   2.539   2.431   4.837
 2950TIP3   OH2 8855   0.047   5.530   1.644
 2950TIP3    H1 8856   0.081   5.585   1.714
 2950TIP3    H2 8857   0.036   5.589   1.570
 2951TIP3   OH2 8858   4.935   0.274   5.040
 2951TIP3    H1 8859   5.024   0.307   5.028
 2951TIP3    H2 8860   4.914   0.232   4.957
 2952TIP3   OH2 8861   6.174   3.694   4.406
 2952TIP3    H1 8862   6.201   3.772   4.454
 2952TIP3    H2 8863   6.154   3.725   4.318
 2953TIP3   OH2 8864   3.681   4.063   4.609
 2953TIP3    H1 8865   3.736   3.987   4.588
 2953TIP3    H2 8866   3.607   4.026   4.657
 2954TIP3   OH2 8867   1.219   3.285   3.121
 2954TIP3    H1 8868   1.158   3.254   3.054
 2954TIP3    H2 8869   1.280   3.213   3.134
 2955TIP3   OH2 8870   1.943   2.746   4.139
 2955TIP3    H1 8871   1.950   2.780   4.049
 2955TIP3    H2 8872   1.854   2.766   4.165
 2956TIP3   OH2 8873   1.099   1.109   4.586
 2956TIP3    H1 8874   1.141   1.038   4.635
 2956TIP3    H2 8875   1.035   1.146   4.647
 2957TIP3   OH2 8876   4.612   4.361   1.539
 2957TIP3    H1 8877   4.648   4.343   1.626
 2957TIP3    H2 8878   4.539   4.420   1.556
 2958TIP3   OH2 8879   3.191   1.625   4.283
 2958TIP3    H1 8880   3.151   1.576   4.210
 2958TIP3    H2 8881   3.124   1.689   4.308
 2959TIP3   OH2 8882   3.265   5.794   2.085
 2959TIP3    H1 8883   3.255   5.854   2.159
 2959TIP3    H2 8884   3.281   5.851   2.010
 2960TIP3   OH2 8885   3.447   3.045   1.310
 2960TIP3    H1 8886   3.533   3.042   1.267
 2960TIP3    H2 8887   3.460   3.103   1.385
 2961TIP3   OH2 8888   2.678   3.874   1.548
 2961TIP3    H1 8889   2.722   3.876   1.463
 2961TIP3    H2 8890   2.620   3.798   1.544
 2962TIP3   OH2 8891   0.110   0.959   2.145
 2962TIP3    H1 8892   0.186   0.958   2.087
 2962TIP3    H2 8893   0.144   0.928   2.229
 2963TIP3   OH2 8894   2.525   3.349   0.499
 2963TIP3    H1 8895   2.549   3.402   0.575
 2963TIP3    H2 8896   2.436   3.375   0.478
 2964TIP3   OH2 8897   0.713   2.803   4.415
 2964TIP3    H1 8898   0.676   2.740   4.477
 2964TIP3    H2 8899   0.753   2.871   4.469
 2965TIP3   OH2 8900   4.644   0.720   3.146
 2965TIP3    H1 8901   4.728   0.729   3.100
 2965TIP3    H2 8902   4.585   0.680   3.082
 2966TIP3   OH2 8903   5.275   4.274   3.128
 2966TIP3    H1 8904   5.328   4.289   3.050
 2966TIP3    H2 8905   5.187   4.304   3.104
 2967TIP3   OH2 8906   3.152   1.585   2.373
 2967TIP3    H1 8907   3.204   1.602   2.451
 2967TIP3    H2 8908   3.188   1.645   2.307
 2968TIP3   OH2 8909   4.765   2.476   3.696
 2968TIP3    H1 8910   4.819   2.523   3.633
 2968TIP3    H2 8911   4.771   2.528   3.776
 2969TIP3   OH2 8912   5.124   4.088   2.642
 2969TIP3    H1 8913   5.113   4.180   2.618
 2969TIP3    H2 8914   5.216   4.069   2.624
 2970TIP3   OH2 8915   2.256   1.169   2.585
 2970TIP3    H1 8916   2.206   1.232   2.638
 2970TIP3    H2 8917   2.189   1.115   2.544
 2971TIP3   OH2 8918   4.970   2.584   3.521
 2971TIP3    H1 8919   4.952   2.583   3.427
 2971TIP3    H2 8920   5.065   2.570   3.527
 2972TIP3   OH2 8921   0.884   4.169   3.958
 2972TIP3    H1 8922   0.806   4.219   3.932
 2972TIP3    H2 8923   0.926   4.224   4.025
 2973TIP3   OH2 8924   3.608   5.014   4.754
 2973TIP3    H1 8925   3.580   4.929   4.718
 2973TIP3    H2 8926   3.662   5.053   4.686
 2974TIP3   OH2 8927   3.487   1.065   1.233
 2974TIP3    H1 8928   3.524   0.978   1.240
 2974TIP3    H2 8929   3.470   1.077   1.139
 2975TIP3   OH2 8930   2.097   5.023   1.117
 2975TIP3    H1 8931   2.031   5.029   1.047
 2975TIP3    H2 8932   2.123   5.114   1.133
 2976TIP3   OH2 8933   2.649   1.919   2.080
 2976TIP3    H1 8934   2.738   1.930   2.047
 2976TIP3    H2 8935   2.602   1.995   2.045
 2977TIP3   OH2 8936   1.843   3.804   3.517
 2977TIP3    H1 8937   1.769   3.775   3.570
 2977TIP3    H2 8938   1.811   3.883   3.473
 2978TIP3   OH2 8939   0.862   0.433   3.679
 2978TIP3    H1 8940   0.857   0.357   3.622
 2978TIP3    H2 8941   0.917   0.405   3.753
 2979TIP3   OH2 8942   6.170   1.091   0.217
 2979TIP3    H1 8943   6.205   1.002   0.217
 2979TIP3    H2 8944   6.078   1.082   0.190
 2980TIP3   OH2 8945   3.558   2.804   3.714
 2980TIP3    H1 8946   3.634   2.799   3.770
 2980TIP3    H2 8947   3.559   2.893   3.680
 2981TIP3   OH2 8948   5.527   3.951   0.635
 2981TIP3    H1 8949   5.503   3.954   0.727
 2981TIP3    H2 8950   5.619   3.923   0.635
 2982TIP3   OH2 8951   5.169   1.712   0.553
 2982TIP3    H1 8952   5.258   1.687   0.526
 2982TIP3    H2 8953   5.121   1.724   0.471
 2983TIP3   OH2 8954   5.242   1.885   1.582
 2983TIP3    H1 8955   5.270   1.822   1.648
 2983TIP3    H2 8956   5.225   1.833   1.504
 2984TIP3   OH2 8957   0.558   1.738   2.328
 2984TIP3    H1 8958   0.624   1.731   2.396
 2984TIP3    H2 8959   0.602   1.783   2.256
 2985TIP3   OH2 8960   2.160   4.165   0.810
 2985TIP3    H1 8961   2.228   4.232   0.820
 2985TIP3    H2 8962   2.190   4.092   0.864
 2986TIP3   OH2 8963   2.542   1.497   4.915
 2986TIP3    H1 8964   2.552   1.409   4.880
 2986TIP3    H2 8965   2.538   1.554   4.838
 2987TIP3   OH2 8966   2.087   5.109   0.529
 2987TIP3    H1 8967   2.124   5.042   0.587
 2987TIP3    H2 8968   2.076   5.186   0.585
 2988TIP3   OH2 8969   2.431   0.381   0.459
 2988TIP3    H1 8970   2.338   0.395   0.441
 2988TIP3    H2 8971   2.433   0.339   0.545
 2989TIP3   OH2 8972   2.680   3.044   4.826
 2989TIP3    H1 8973   2.774   3.030   4.819
 2989TIP3    H2 8974   2.641   2.960   4.804
 2990TIP3   OH2 8975   2.868   0.604   4.716
 2990TIP3    H1 8976   2.778   0.637   4.712
 2990TIP3    H2 8977   2.901   0.613   4.627
 2991TIP3   OH2 8978   6.244   5.525   0.189
 2991TIP3    H1 8979   6.284   5.458   0.132
 2991TIP3    H2 8980   6.317   5.579   0.218
 2992TIP3   OH2 8981   1.728   3.283   0.221
 2992TIP3    H1 8982   1.769   3.370   0.219
 2992TIP3    H2 8983   1.640   3.300   0.255
 2993TIP3   OH2 8984   3.368   3.828   3.499
 2993TIP3    H1 8985   3.328   3.881   3.568
 2993TIP3    H2 8986   3.461   3.851   3.501
 2994TIP3   OH2 8987   5.207   1.838   1.920
 2994TIP3    H1 8988   5.233   1.748   1.937
 2994TIP3    H2 8989   5.236   1.887   1.997
 2995TIP3   OH2 8990   5.283   5.567   3.694
 2995TIP3    H1 8991   5.373   5.555   3.666
 2995TIP3    H2 8992   5.234   5.498   3.649
 2996TIP3   OH2 8993   2.204   3.727   5.105
 2996TIP3    H1 8994   2.147   3.792   5.065
 2996TIP3    H2 8995   2.274   3.713   5.041
 2997TIP3   OH2 8996   3.756   2.506   2.986
 2997TIP3    H1 8997   3.692   2.571   3.014
 2997TIP3    H2 8998   3.840   2.552   2.990
 2998TIP3   OH2 8999   3.698   4.083   2.601
 2998TIP3    H1 9000   3.659   4.141   2.536
 2998TIP3    H2 9001   3.721   4.004   2.553
 2999TIP3   OH2 9002   0.738   2.123   3.652
 2999TIP3    H1 9003   0.646   2.094   3.653
 2999TIP3    H2 9004   0.783   2.059   3.597
 3000TIP3   OH2 9005   0.368   0.865   3.677
 3000TIP3    H1 9006   0.427   0.879   3.751
 3000TIP3    H2 9007   0.315   0.789   3.703
 3001TIP3   OH2 9008  -0.009   2.900   2.718
 3001TIP3    H1 9009   0.009   2.856   2.635
 3001TIP3    H2 9010  -0.005   2.993   2.696
 3002TIP3   OH2 9011   5.685   1.513   0.648
 3002TIP3    H1 9012   5.745   1.538   0.577
 3002TIP3    H2 9013   5.606   1.484   0.603
 3003TIP3   OH2 9014   2.234   4.885   4.184
 3003TIP3    H1 9015   2.322   4.909   4.155
 3003TIP3    H2 9016   2.191   4.969   4.199
 3004TIP3   OH2 9017   5.162   5.190   4.409
 3004TIP3    H1 9018   5.126   5.103   4.426
 3004TIP3    H2 9019   5.183   5.224   4.496
 3005TIP3   OH2 9020   3.603   2.191   0.249
 3005TIP3    H1 9021   3.552   2.272   0.251
 3005TIP3    H2 9022   3.687   2.213   0.288
 3006TIP3   OH2 9023   2.077   0.493   4.305
 3006TIP3    H1 9024   2.110   0.449   4.226
 3006TIP3    H2 9025   2.011   0.554   4.271
 3007TIP3   OH2 9026   5.718   4.993   4.591
 3007TIP3    H1 9027   5.660   5.067   4.573
 3007TIP3    H2 9028   5.786   5.029   4.648
 3008TIP3   OH2 9029   3.943   3.614   4.493
 3008TIP3    H1 9030   3.948   3.550   4.564
 3008TIP3    H2 9031   4.026   3.662   4.498
 3009TIP3   OH2 9032   5.059   0.283   1.637
 3009TIP3    H1 9033   5.007   0.336   1.578
 3009TIP3    H2 9034   5.015   0.292   1.722
 3010TIP3   OH2 9035   3.570   0.031   3.320
 3010TIP3    H1 9036   3.534   0.059   3.236
 3010TIP3    H2 9037   3.623  -0.046   3.300
 3011TIP3   OH2 9038   6.164   3.347   1.617
 3011TIP3    H1 9039   6.242   3.401   1.629
 3011TIP3    H2 9040   6.178   3.271   1.674
 3012TIP3   OH2 9041   1.999   1.381   1.228
 3012TIP3    H1 9042   1.921   1.381   1.173
 3012TIP3    H2 9043   1.980   1.445   1.297
 3013TIP3   OH2 9044   2.889   1.870   1.924
 3013TIP3    H1 9045   2.844   1.927   1.862
 3013TIP3    H2 9046   2.976   1.857   1.886
 3014TIP3   OH2 9047   3.016   0.129   0.523
 3014TIP3    H1 9048   2.999   0.216   0.560
 3014TIP3    H2 9049   2.933   0.104   0.482
 3015TIP3   OH2 9050   1.657   4.348   4.211
 3015TIP3    H1 9051   1.734   4.397   4.184
 3015TIP3    H2 9052   1.687   4.258   4.220
 3016TIP3   OH2 9053   5.978   1.901   3.672
 3016TIP3    H1 9054   5.927   1.834   3.626
 3016TIP3    H2 9055   5.913   1.948   3.724
 3017TIP3   OH2 9056   6.234   4.950   5.081
 3017TIP3    H1 9057   6.262   4.919   4.996
 3017TIP3    H2 9058   6.244   4.875   5.139
 3018TIP3   OH2 9059   0.596   0.147   3.523
 3018TIP3    H1 9060   0.527   0.213   3.512
 3018TIP3    H2 9061   0.677   0.194   3.505
 3019TIP3   OH2 9062   0.860   5.135   4.119
 3019TIP3    H1 9063   0.908   5.195   4.062
 3019TIP3    H2 9064   0.859   5.052   4.071
 3020TIP3   OH2 9065   4.610   1.130   2.543
 3020TIP3    H1 9066   4.649   1.075   2.474
 3020TIP3    H2 9067   4.526   1.157   2.507
 3021TIP3   OH2 9068   0.527   0.450   1.730
 3021TIP3    H1 9069   0.586   0.491   1.793
 3021TIP3    H2 9070   0.584   0.393   1.678
 3022TIP3   OH2 9071   3.456   1.661   2.989
 3022TIP3    H1 9072   3.550   1.663   3.008
 3022TIP3    H2 9073   3.414   1.641   3.072
 3023TIP3   OH2 9074   2.046   5.043   4.359
 3023TIP3    H1 9075   2.014   5.104   4.292
 3023TIP3    H2 9076   2.016   5.080   4.442
 3024TIP3   OH2 9077   4.695   2.881   1.957
 3024TIP3    H1 9078   4.695   2.812   2.024
 3024TIP3    H2 9079   4.604   2.886   1.929
 3025TIP3   OH2 9080   4.778   1.272   1.219
 3025TIP3    H1 9081   4.842   1.339   1.195
 3025TIP3    H2 9082   4.796   1.199   1.160
 3026TIP3   OH2 9083   3.152   4.078   1.786
 3026TIP3    H1 9084   3.147   4.173   1.795
 3026TIP3    H2 9085   3.062   4.050   1.770
 3027TIP3   OH2 9086   0.549   4.153   2.842
 3027TIP3    H1 9087   0.542   4.119   2.931
 3027TIP3    H2 9088   0.531   4.076   2.786
 3028TIP3   OH2 9089   1.760   0.755   3.752
 3028TIP3    H1 9090   1.766   0.694   3.826
 3028TIP3    H2 9091   1.835   0.732   3.697
 3029TIP3   OH2 9092   4.140   3.909   3.228
 3029TIP3    H1 9093   4.193   3.888   3.151
 3029TIP3    H2 9094   4.063   3.955   3.192
 3030TIP3   OH2 9095   1.619   3.678   3.632
 3030TIP3    H1 9096   1.587   3.670   3.542
 3030TIP3    H2 9097   1.544   3.658   3.687
 3031TIP3   OH2 9098   1.907   1.399   3.658
 3031TIP3    H1 9099   1.974   1.385   3.591
 3031TIP3    H2 9100   1.829   1.423   3.609
 3032TIP3   OH2 9101   4.693   2.513   1.069
 3032TIP3    H1 9102   4.714   2.474   0.984
 3032TIP3    H2 9103   4.778   2.545   1.102
 3033TIP3   OH2 9104   2.963   0.582   0.172
 3033TIP3    H1 9105   2.909   0.660   0.171
 3033TIP3    H2 9106   2.913   0.519   0.223
 3034TIP3   OH2 9107   2.059   2.854   0.120
 3034TIP3    H1 9108   2.134   2.888   0.070
 3034TIP3    H2 9109   2.083   2.764   0.139
 3035TIP3   OH2 9110   1.079   0.707   1.363
 3035TIP3    H1 9111   1.140   0.741   1.298
 3035TIP3    H2 9112   1.100   0.755   1.443
 3036TIP3   OH2 9113   6.129   1.324   3.720
 3036TIP3    H1 9114   6.138   1.343   3.626
 3036TIP3    H2 9115   6.071   1.248   3.724
 3037TIP3   OH2 9116  -0.010   4.559   4.454
 3037TIP3    H1 9117   0.081   4.572   4.479
 3037TIP3    H2 9118  -0.038   4.481   4.502
 3038TIP3   OH2 9119   4.256   0.931   0.708
 3038TIP3    H1 9120   4.242   0.851   0.760
 3038TIP3    H2 9121   4.168   0.956   0.680
 3039TIP3   OH2 9122   4.230   3.852   1.605
 3039TIP3    H1 9123   4.179   3.932   1.586
 3039TIP3    H2 9124   4.246   3.857   1.699
 3040TIP3   OH2 9125   3.097   0.579   1.630
 3040TIP3    H1 9126   3.070   0.555   1.719
 3040TIP3    H2 9127   3.015   0.600   1.586
 3041TIP3   OH2 9128   2.075   4.288   2.777
 3041TIP3    H1 9129   2.111   4.213   2.730
 3041TIP3    H2 9130   1.985   4.297   2.744
 3042TIP3   OH2 9131   4.992   1.347   5.192
 3042TIP3    H1 9132   5.086   1.327   5.204
 3042TIP3    H2 9133   4.981   1.433   5.231
 3043TIP3   OH2 9134   5.704   2.070   2.981
 3043TIP3    H1 9135   5.694   2.092   2.888
 3043TIP3    H2 9136   5.615   2.050   3.011
 3044TIP3   OH2 9137   6.257   2.842   0.562
 3044TIP3    H1 9138   6.333   2.783   0.561
 3044TIP3    H2 9139   6.260   2.886   0.477
 3045TIP3   OH2 9140   0.370   3.333   2.374
 3045TIP3    H1 9141   0.293   3.370   2.330
 3045TIP3    H2 9142   0.373   3.378   2.458
 3046TIP3   OH2 9143   1.813   3.443   0.433
 3046TIP3    H1 9144   1.785   3.523   0.389
 3046TIP3    H2 9145   1.736   3.414   0.482
 3047TIP3   OH2 9146   4.512   2.508   2.991
 3047TIP3    H1 9147   4.430   2.458   2.998
 3047TIP3    H2 9148   4.501   2.580   3.054
 3048TIP3   OH2 9149   0.752   4.302   1.566
 3048TIP3    H1 9150   0.721   4.376   1.617
 3048TIP3    H2 9151   0.832   4.333   1.524
 3049TIP3   OH2 9152   1.786   1.232   0.595
 3049TIP3    H1 9153   1.841   1.310   0.598
 3049TIP3    H2 9154   1.750   1.223   0.683
 3050TIP3   OH2 9155   1.570   0.970   0.634
 3050TIP3    H1 9156   1.663   0.979   0.612
 3050TIP3    H2 9157   1.569   0.919   0.715
 3051TIP3   OH2 9158   2.939   0.042   2.249
 3051TIP3    H1 9159   2.962   0.048   2.342
 3051TIP3    H2 9160   2.858   0.093   2.242
 3052TIP3   OH2 9161   6.141   1.487   4.669
 3052TIP3    H1 9162   6.195   1.565   4.679
 3052TIP3    H2 9163   6.186   1.420   4.721
 3053TIP3   OH2 9164   5.469   1.633   4.304
 3053TIP3    H1 9165   5.437   1.593   4.223
 3053TIP3    H2 9166   5.395   1.683   4.337
 3054TIP3   OH2 9167   1.523   2.870   3.235
 3054TIP3    H1 9168   1.534   2.890   3.329
 3054TIP3    H2 9169   1.452   2.806   3.232
 3055TIP3   OH2 9170   0.746   0.561   2.413
 3055TIP3    H1 9171   0.832   0.539   2.378
 3055TIP3    H2 9172   0.745   0.657   2.417
 3056TIP3   OH2 9173   2.492   0.009   3.272
 3056TIP3    H1 9174   2.538   0.089   3.296
 3056TIP3    H2 9175   2.455   0.028   3.185
 3057TIP3   OH2 9176   4.083   4.112   0.871
 3057TIP3    H1 9177   4.025   4.132   0.798
 3057TIP3    H2 9178   4.124   4.196   0.892
 3058TIP3   OH2 9179   5.059   5.871   2.487
 3058TIP3    H1 9180   5.148   5.836   2.484
 3058TIP3    H2 9181   5.067   5.956   2.530
 3059TIP3   OH2 9182   0.417   3.346   1.019
 3059TIP3    H1 9183   0.458   3.432   1.009
 3059TIP3    H2 9184   0.386   3.344   1.109
 3060TIP3   OH2 9185   5.757   3.997   1.592
 3060TIP3    H1 9186   5.741   3.958   1.506
 3060TIP3    H2 9187   5.672   4.030   1.620
 3061TIP3   OH2 9188   3.196   0.207   1.594
 3061TIP3    H1 9189   3.186   0.135   1.531
 3061TIP3    H2 9190   3.107   0.235   1.614
 3062TIP3   OH2 9191   3.994   3.593   2.054
 3062TIP3    H1 9192   3.908   3.553   2.039
 3062TIP3    H2 9193   4.052   3.520   2.073
 3063TIP3   OH2 9194   1.951   2.986   2.692
 3063TIP3    H1 9195   2.045   2.995   2.680
 3063TIP3    H2 9196   1.942   2.917   2.758
 3064TIP3   OH2 9197   1.875   4.049   2.514
 3064TIP3    H1 9198   1.951   3.992   2.500
 3064TIP3    H2 9199   1.869   4.101   2.433
 3065TIP3   OH2 9200   5.697   5.837   3.532
 3065TIP3    H1 9201   5.664   5.763   3.583
 3065TIP3    H2 9202   5.632   5.906   3.545
 3066TIP3   OH2 9203   5.408  -0.014   4.956
 3066TIP3    H1 9204   5.497   0.000   4.926
 3066TIP3    H2 9205   5.383   0.069   4.998
 3067TIP3   OH2 9206   2.500   2.880   0.788
 3067TIP3    H1 9207   2.487   2.955   0.846
 3067TIP3    H2 9208   2.505   2.918   0.701
 3068TIP3   OH2 9209   6.244   2.802   4.736
 3068TIP3    H1 9210   6.260   2.758   4.819
 3068TIP3    H2 9211   6.238   2.894   4.758
 3069TIP3   OH2 9212   5.425   0.428   0.628
 3069TIP3    H1 9213   5.440   0.337   0.654
 3069TIP3    H2 9214   5.337   0.448   0.659
 3070TIP3   OH2 9215   6.229   2.053   3.618
 3070TIP3    H1 9216   6.145   2.008   3.626
 3070TIP3    H2 9217   6.270   2.014   3.540
 3071TIP3   OH2 9218   1.127   2.923   0.457
 3071TIP3    H1 9219   1.117   2.878   0.541
 3071TIP3    H2 9220   1.037   2.946   0.432
 3072TIP3   OH2 9221   5.532   3.159   4.366
 3072TIP3    H1 9222   5.475   3.178   4.440
 3072TIP3    H2 9223   5.611   3.211   4.382
 3073TIP3   OH2 9224   0.025   5.755   1.506
 3073TIP3    H1 9225   0.024   5.819   1.577
 3073TIP3    H2 9226   0.071   5.800   1.435
 3074TIP3   OH2 9227   4.285   0.181   2.214
 3074TIP3    H1 9228   4.242   0.106   2.174
 3074TIP3    H2 9229   4.213   0.234   2.249
 3075TIP3   OH2 9230   1.244   3.466   0.366
 3075TIP3    H1 9231   1.173   3.513   0.409
 3075TIP3    H2 9232   1.218   3.374   0.371
 3076TIP3   OH2 9233   2.023   3.752   0.041
 3076TIP3    H1 9234   1.944   3.697   0.042
 3076TIP3    H2 9235   1.991   3.840   0.057
 3077TIP3   OH2 9236   4.183   0.596   1.559
 3077TIP3    H1 9237   4.210   0.609   1.650
 3077TIP3    H2 9238   4.264   0.605   1.509
 3078TIP3   OH2 9239   5.612   3.338   1.860
 3078TIP3    H1 9240   5.699   3.372   1.839
 3078TIP3    H2 9241   5.563   3.414   1.890
 3079TIP3   OH2 9242   4.429  -0.014   2.644
 3079TIP3    H1 9243   4.352   0.042   2.651
 3079TIP3    H2 9244   4.452  -0.011   2.551
 3080TIP3   OH2 9245   5.009   2.596   1.090
 3080TIP3    H1 9246   4.957   2.668   1.053
 3080TIP3    H2 9247   5.099   2.628   1.088
 3081TIP3   OH2 9248   0.532   1.332   4.332
 3081TIP3    H1 9249   0.451   1.292   4.364
 3081TIP3    H2 9250   0.507   1.374   4.250
 3082TIP3   OH2 9251   4.735   1.186   4.521
 3082TIP3    H1 9252   4.796   1.230   4.580
 3082TIP3    H2 9253   4.691   1.258   4.475
 3083TIP3   OH2 9254   1.199   1.903   3.888
 3083TIP3    H1 9255   1.287   1.898   3.851
 3083TIP3    H2 9256   1.158   1.819   3.867
 3084TIP3   OH2 9257   1.101   5.017   5.083
 3084TIP3    H1 9258   1.146   4.951   5.136
 3084TIP3    H2 9259   1.008   4.995   5.092
 3085TIP3   OH2 9260   4.694   3.777   0.973
 3085TIP3    H1 9261   4.770   3.831   0.996
 3085TIP3    H2 9262   4.715   3.690   1.006
 3086TIP3   OH2 9263   5.944   0.335   1.311
 3086TIP3    H1 9264   5.870   0.317   1.369
 3086TIP3    H2 9265   5.916   0.411   1.259
 3087TIP3   OH2 9266   1.550   0.250   4.705
 3087TIP3    H1 9267   1.590   0.173   4.665
 3087TIP3    H2 9268   1.570   0.321   4.644
 3088TIP3   OH2 9269   3.565   1.681   0.775
 3088TIP3    H1 9270   3.576   1.691   0.870
 3088TIP3    H2 9271   3.536   1.590   0.764
 3089TIP3   OH2 9272   3.445   2.121   2.200
 3089TIP3    H1 9273   3.405   2.136   2.286
 3089TIP3    H2 9274   3.539   2.126   2.217
 3090TIP3   OH2 9275   1.247   5.295   1.102
 3090TIP3    H1 9276   1.268   5.229   1.036
 3090TIP3    H2 9277   1.156   5.278   1.125
 3091TIP3   OH2 9278   5.503   3.573   2.591
 3091TIP3    H1 9279   5.419   3.529   2.601
 3091TIP3    H2 9280   5.481   3.666   2.584
 3092TIP3   OH2 9281   6.107   5.751   4.649
 3092TIP3    H1 9282   6.184   5.713   4.607
 3092TIP3    H2 9283   6.099   5.704   4.732
 3093TIP3   OH2 9284   4.165   2.980   4.079
 3093TIP3    H1 9285   4.255   2.969   4.109
 3093TIP3    H2 9286   4.166   3.063   4.030
 3094TIP3   OH2 9287   5.691   3.639   0.763
 3094TIP3    H1 9288   5.716   3.729   0.783
 3094TIP3    H2 9289   5.596   3.643   0.751
 3095TIP3   OH2 9290   2.629   0.258   3.302
 3095TIP3    H1 9291   2.664   0.300   3.381
 3095TIP3    H2 9292   2.705   0.220   3.259
 3096TIP3   OH2 9293   4.778   3.280   3.079
 3096TIP3    H1 9294   4.763   3.186   3.071
 3096TIP3    H2 9295   4.699   3.320   3.043
 3097TIP3   OH2 9296   4.976   1.652   1.058
 3097TIP3    H1 9297   5.040   1.664   0.988
 3097TIP3    H2 9298   4.894   1.682   1.019
 3098TIP3   OH2 9299   1.203   0.882   4.691
 3098TIP3    H1 9300   1.173   0.863   4.780
 3098TIP3    H2 9301   1.262   0.810   4.670
 3099TIP3   OH2 9302   5.150   5.237   3.931
 3099TIP3    H1 9303   5.216   5.263   3.867
 3099TIP3    H2 9304   5.133   5.315   3.983
 3100TIP3   OH2 9305   4.291   5.502   0.282
 3100TIP3    H1 9306   4.232   5.445   0.331
 3100TIP3    H2 9307   4.233   5.547   0.220
 3101TIP3   OH2 9308   2.116   2.623   0.785
 3101TIP3    H1 9309   2.126   2.597   0.877
 3101TIP3    H2 9310   2.033   2.670   0.782
 3102TIP3   OH2 9311   3.789   2.727   2.739
 3102TIP3    H1 9312   3.793   2.812   2.782
 3102TIP3    H2 9313   3.860   2.676   2.779
 3103TIP3   OH2 9314   1.344   1.477   3.405
 3103TIP3    H1 9315   1.421   1.528   3.381
 3103TIP3    H2 9316   1.360   1.449   3.495
 3104TIP3   OH2 9317   0.347   0.311   3.093
 3104TIP3    H1 9318   0.436   0.277   3.105
 3104TIP3    H2 9319   0.359   0.404   3.073
 3105TIP3   OH2 9320   3.117   2.008   1.607
 3105TIP3    H1 9321   3.145   2.085   1.655
 3105TIP3    H2 9322   3.182   1.998   1.538
 3106TIP3   OH2 9323   2.290   2.280   2.071
 3106TIP3    H1 9324   2.196   2.262   2.063
 3106TIP3    H2 9325   2.300   2.311   2.161
 3107TIP3   OH2 9326   6.317   0.837   3.905
 3107TIP3    H1 9327   6.310   0.872   3.816
 3107TIP3    H2 9328   6.331   0.915   3.960
 3108TIP3   OH2 9329   2.724   5.695   2.049
 3108TIP3    H1 9330   2.807   5.705   2.003
 3108TIP3    H2 9331   2.738   5.738   2.133
 3109TIP3   OH2 9332   6.300   3.529   1.797
 3109TIP3    H1 9333   6.393   3.553   1.801
 3109TIP3    H2 9334   6.281   3.494   1.884
 3110TIP3   OH2 9335   1.895   3.533   4.489
 3110TIP3    H1 9336   1.931   3.523   4.401
 3110TIP3    H2 9337   1.811   3.486   4.487
 3111TIP3   OH2 9338   6.182   4.736   2.640
 3111TIP3    H1 9339   6.212   4.720   2.550
 3111TIP3    H2 9340   6.255   4.706   2.695
 3112TIP3   OH2 9341   2.242   3.435   0.483
 3112TIP3    H1 9342   2.269   3.526   0.469
 3112TIP3    H2 9343   2.170   3.422   0.421
 3113TIP3   OH2 9344   0.607   1.585   1.811
 3113TIP3    H1 9345   0.582   1.562   1.722
 3113TIP3    H2 9346   0.621   1.500   1.855
 3114TIP3   OH2 9347   5.188   5.497   1.104
 3114TIP3    H1 9348   5.266   5.552   1.102
 3114TIP3    H2 9349   5.148   5.509   1.018
 3115TIP3   OH2 9350   1.308   5.415   2.186
 3115TIP3    H1 9351   1.360   5.363   2.125
 3115TIP3    H2 9352   1.218   5.406   2.154
 3116TIP3   OH2 9353   5.616   1.885   0.910
 3116TIP3    H1 9354   5.674   1.918   0.841
 3116TIP3    H2 9355   5.565   1.962   0.937
 3117TIP3   OH2 9356   4.426   5.707   2.091
 3117TIP3    H1 9357   4.428   5.694   1.996
 3117TIP3    H2 9358   4.402   5.621   2.126
 3118TIP3   OH2 9359   0.707   0.827   2.438
 3118TIP3    H1 9360   0.733   0.864   2.522
 3118TIP3    H2 9361   0.633   0.880   2.410
 3119TIP3   OH2 9362   5.731   4.830   2.596
 3119TIP3    H1 9363   5.674   4.901   2.625
 3119TIP3    H2 9364   5.691   4.799   2.514
 3120TIP3   OH2 9365   4.740   4.057   0.203
 3120TIP3    H1 9366   4.665   4.104   0.239
 3120TIP3    H2 9367   4.794   4.125   0.163
 3121TIP3   OH2 9368   4.171   4.147   4.801
 3121TIP3    H1 9369   4.156   4.152   4.895
 3121TIP3    H2 9370   4.177   4.238   4.772
 3122TIP3   OH2 9371   4.535   2.976   4.820
 3122TIP3    H1 9372   4.603   3.024   4.869
 3122TIP3    H2 9373   4.465   3.039   4.808
 3123TIP3   OH2 9374   2.726   3.305   4.700
 3123TIP3    H1 9375   2.728   3.216   4.736
 3123TIP3    H2 9376   2.633   3.323   4.685
 3124TIP3   OH2 9377   3.119   1.817   1.800
 3124TIP3    H1 9378   3.164   1.736   1.776
 3124TIP3    H2 9379   3.108   1.863   1.717
 3125TIP3   OH2 9380   3.060   5.522   0.182
 3125TIP3    H1 9381   2.966   5.519   0.165
 3125TIP3    H2 9382   3.089   5.605   0.144
 3126TIP3   OH2 9383   5.500   5.957   4.967
 3126TIP3    H1 9384   5.553   6.034   4.946
 3126TIP3    H2 9385   5.531   5.889   4.906
 3127TIP3   OH2 9386   1.891   2.898   3.895
 3127TIP3    H1 9387   1.872   2.966   3.959
 3127TIP3    H2 9388   1.907   2.945   3.813
 3128TIP3   OH2 9389   4.388   3.865   3.371
 3128TIP3    H1 9390   4.293   3.864   3.356
 3128TIP3    H2 9391   4.398   3.904   3.458
 3129TIP3   OH2 9392   3.130   5.007   0.266
 3129TIP3    H1 9393   3.057   5.063   0.242
 3129TIP3    H2 9394   3.197   5.025   0.200
 3130TIP3   OH2 9395   1.477   5.116   4.095
 3130TIP3    H1 9396   1.401   5.060   4.080
 3130TIP3    H2 9397   1.544   5.058   4.131
 3131TIP3   OH2 9398   3.347   1.338   3.482
 3131TIP3    H1 9399   3.423   1.366   3.532
 3131TIP3    H2 9400   3.375   1.257   3.438
 3132TIP3   OH2 9401   5.381   0.062   3.910
 3132TIP3    H1 9402   5.336   0.081   3.992
 3132TIP3    H2 9403   5.324   0.001   3.864
 3133TIP3   OH2 9404   3.063   3.496   3.671
 3133TIP3    H1 9405   3.105   3.520   3.754
 3133TIP3    H2 9406   3.134   3.458   3.619
 3134TIP3   OH2 9407   5.549   4.908   3.880
 3134TIP3    H1 9408   5.613   4.933   3.947
 3134TIP3    H2 9409   5.568   4.816   3.861
 3135TIP3   OH2 9410   2.644   4.147   5.053
 3135TIP3    H1 9411   2.724   4.199   5.049
 3135TIP3    H2 9412   2.674   4.056   5.051
 3136TIP3   OH2 9413   1.418   5.770   2.701
 3136TIP3    H1 9414   1.483   5.701   2.692
 3136TIP3    H2 9415   1.366   5.745   2.777
 3137TIP3   OH2 9416   4.068   4.096   3.950
 3137TIP3    H1 9417   3.982   4.062   3.976
 3137TIP3    H2 9418   4.101   4.032   3.887
 3138TIP3   OH2 9419   2.969   2.120   2.667
 3138TIP3    H1 9420   2.909   2.052   2.636
 3138TIP3    H2 9421   3.000   2.088   2.752
 3139TIP3   OH2 9422   1.110   0.053   4.501
 3139TIP3    H1 9423   1.060   0.041   4.582
 3139TIP3    H2 9424   1.057   0.009   4.434
 3140TIP3   OH2 9425   1.519   5.941   2.519
 3140TIP3    H1 9426   1.510   5.900   2.605
 3140TIP3    H2 9427   1.513   5.869   2.457
 3141TIP3   OH2 9428   5.859   2.383   4.242
 3141TIP3    H1 9429   5.893   2.458   4.194
 3141TIP3    H2 9430   5.934   2.324   4.251
 3142TIP3   OH2 9431   0.561   5.959   1.348
 3142TIP3    H1 9432   0.564   5.889   1.413
 3142TIP3    H2 9433   0.542   6.038   1.400
 3143TIP3   OH2 9434   2.362   0.706   2.011
 3143TIP3    H1 9435   2.328   0.622   1.981
 3143TIP3    H2 9436   2.339   0.768   1.941
 3144TIP3   OH2 9437   3.370   5.157   5.017
 3144TIP3    H1 9438   3.294   5.198   4.976
 3144TIP3    H2 9439   3.445   5.185   4.963
 3145TIP3   OH2 9440   2.983   5.669   3.985
 3145TIP3    H1 9441   2.929   5.591   3.979
 3145TIP3    H2 9442   3.038   5.667   3.907
 3146TIP3   OH2 9443   1.796   1.619   5.040
 3146TIP3    H1 9444   1.836   1.687   5.095
 3146TIP3    H2 9445   1.857   1.545   5.046
 3147TIP3   OH2 9446   0.207   0.704   1.132
 3147TIP3    H1 9447   0.168   0.681   1.047
 3147TIP3    H2 9448   0.223   0.620   1.175
 3148TIP3   OH2 9449   1.727   3.151   3.346
 3148TIP3    H1 9450   1.811   3.130   3.385
 3148TIP3    H2 9451   1.733   3.245   3.326
 3149TIP3   OH2 9452   1.878   5.162   2.351
 3149TIP3    H1 9453   1.855   5.160   2.444
 3149TIP3    H2 9454   1.796   5.147   2.305
 3150TIP3   OH2 9455   4.103   5.809   0.110
 3150TIP3    H1 9456   4.188   5.784   0.075
 3150TIP3    H2 9457   4.045   5.736   0.086
 3151TIP3   OH2 9458   6.012   3.510   4.028
 3151TIP3    H1 9459   5.928   3.534   3.990
 3151TIP3    H2 9460   5.991   3.458   4.105
 3152TIP3   OH2 9461   1.424   2.148   0.062
 3152TIP3    H1 9462   1.365   2.196   0.004
 3152TIP3    H2 9463   1.366   2.105   0.125
 3153TIP3   OH2 9464   5.863   3.205   1.481
 3153TIP3    H1 9465   5.927   3.175   1.417
 3153TIP3    H2 9466   5.851   3.131   1.540
 3154TIP3   OH2 9467   4.659   3.122   4.392
 3154TIP3    H1 9468   4.669   3.180   4.467
 3154TIP3    H2 9469   4.677   3.177   4.316
 3155TIP3   OH2 9470   0.455   2.086   4.168
 3155TIP3    H1 9471   0.530   2.039   4.131
 3155TIP3    H2 9472   0.387   2.019   4.177
 3156TIP3   OH2 9473   0.042   3.049   0.776
 3156TIP3    H1 9474  -0.017   3.104   0.724
 3156TIP3    H2 9475   0.042   2.965   0.731
 3157TIP3   OH2 9476   0.195   4.320   4.188
 3157TIP3    H1 9477   0.200   4.235   4.143
 3157TIP3    H2 9478   0.222   4.301   4.278
 3158TIP3   OH2 9479   0.430   2.377   4.498
 3158TIP3    H1 9480   0.405   2.417   4.582
 3158TIP3    H2 9481   0.398   2.287   4.505
 3159TIP3   OH2 9482   4.704   5.903   4.270
 3159TIP3    H1 9483   4.737   5.814   4.285
 3159TIP3    H2 9484   4.670   5.931   4.355
 3160TIP3   OH2 9485   6.287   3.831   0.843
 3160TIP3    H1 9486   6.371   3.835   0.799
 3160TIP3    H2 9487   6.231   3.780   0.784
 3161TIP3   OH2 9488   2.118   3.098   0.297
 3161TIP3    H1 9489   2.113   3.029   0.230
 3161TIP3    H2 9490   2.057   3.071   0.365
 3162TIP3   OH2 9491   1.553   1.723   4.071
 3162TIP3    H1 9492   1.489   1.757   4.134
 3162TIP3    H2 9493   1.509   1.729   3.986
 3163TIP3   OH2 9494   3.036   0.675   3.242
 3163TIP3    H1 9495   2.992   0.596   3.276
 3163TIP3    H2 9496   3.093   0.703   3.314
 3164TIP3   OH2 9497   1.457   5.132   3.681
 3164TIP3    H1 9498   1.411   5.063   3.728
 3164TIP3    H2 9499   1.394   5.204   3.674
 3165TIP3   OH2 9500   3.554   5.675   1.864
 3165TIP3    H1 9501   3.548   5.671   1.960
 3165TIP3    H2 9502   3.636   5.723   1.848
 3166TIP3   OH2 9503   4.934   2.340   1.343
 3166TIP3    H1 9504   5.013   2.332   1.398
 3166TIP3    H2 9505   4.862   2.343   1.406
 3167TIP3   OH2 9506   4.761   4.569   0.163
 3167TIP3    H1 9507   4.854   4.578   0.140
 3167TIP3    H2 9508   4.761   4.510   0.238
 3168TIP3   OH2 9509   5.249   4.978   4.981
 3168TIP3    H1 9510   5.261   5.070   5.003
 3168TIP3    H2 9511   5.320   4.933   5.027
 3169TIP3   OH2 9512   0.153   1.867   0.075
 3169TIP3    H1 9513   0.194   1.946   0.111
 3169TIP3    H2 9514   0.184   1.864  -0.016
 3170TIP3   OH2 9515   1.211   1.386   3.161
 3170TIP3    H1 9516   1.157   1.322   3.209
 3170TIP3    H2 9517   1.279   1.410   3.223
 3171TIP3   OH2 9518   2.702   3.461   1.026
 3171TIP3    H1 9519   2.712   3.519   0.950
 3171TIP3    H2 9520   2.624   3.494   1.071
 3172TIP3   OH2 9521   2.303   3.664   0.104
 3172TIP3    H1 9522   2.212   3.679   0.078
 3172TIP3    H2 9523   2.298   3.643   0.197
 3173TIP3   OH2 9524   1.405   2.154   0.408
 3173TIP3    H1 9525   1.482   2.211   0.412
 3173TIP3    H2 9526   1.334   2.209   0.441
 3174TIP3   OH2 9527   5.990   4.422   4.175
 3174TIP3    H1 9528   5.962   4.480   4.105
 3174TIP3    H2 9529   6.064   4.374   4.138
 3175TIP3   OH2 9530   0.031   0.191   1.045
 3175TIP3    H1 9531  -0.032   0.233   0.987
 3175TIP3    H2 9532  -0.022   0.140   1.107
 3176TIP3   OH2 9533   5.779   1.374   4.660
 3176TIP3    H1 9534   5.780   1.455   4.608
 3176TIP3    H2 9535   5.786   1.304   4.595
 3177TIP3   OH2 9536   1.779   5.698   0.663
 3177TIP3    H1 9537   1.857   5.744   0.694
 3177TIP3    H2 9538   1.710   5.764   0.665
 3178TIP3   OH2 9539   5.590   2.303   2.020
 3178TIP3    H1 9540   5.527   2.294   1.949
 3178TIP3    H2 9541   5.644   2.378   1.995
 3179TIP3   OH2 9542   1.547   2.090   3.973
 3179TIP3    H1 9543   1.488   2.022   3.940
 3179TIP3    H2 9544   1.630   2.045   3.987
 3180TIP3   OH2 9545   4.064   3.092  -0.039
 3180TIP3    H1 9546   4.036   3.176  -0.001
 3180TIP3    H2 9547   4.037   3.027   0.025
 3181TIP3   OH2 9548   5.662   5.380   4.501
 3181TIP3    H1 9549   5.627   5.469   4.491
 3181TIP3    H2 9550   5.680   5.351   4.412
 3182TIP3   OH2 9551   4.396   3.027   1.046
 3182TIP3    H1 9552   4.452   2.950   1.048
 3182TIP3    H2 9553   4.397   3.060   1.136
 3183TIP3   OH2 9554   2.903   1.496   3.571
 3183TIP3    H1 9555   2.992   1.466   3.554
 3183TIP3    H2 9556   2.847   1.428   3.534
 3184TIP3   OH2 9557   5.810   1.097   5.173
 3184TIP3    H1 9558   5.865   1.173   5.151
 3184TIP3    H2 9559   5.756   1.083   5.095
 3185TIP3   OH2 9560   3.110   2.122   3.203
 3185TIP3    H1 9561   3.075   2.089   3.285
 3185TIP3    H2 9562   3.101   2.217   3.209
 3186TIP3   OH2 9563   4.776   1.830   4.677
 3186TIP3    H1 9564   4.697   1.839   4.730
 3186TIP3    H2 9565   4.765   1.893   4.606
 3187TIP3   OH2 9566   6.046   4.373   0.358
 3187TIP3    H1 9567   5.951   4.374   0.347
 3187TIP3    H2 9568   6.073   4.287   0.326
 3188TIP3   OH2 9569   4.383   5.522   1.248
 3188TIP3    H1 9570   4.365   5.576   1.171
 3188TIP3    H2 9571   4.416   5.439   1.212
 3189TIP3   OH2 9572   5.801   1.514   3.037
 3189TIP3    H1 9573   5.796   1.600   2.994
 3189TIP3    H2 9574   5.732   1.462   2.997
 3190TIP3   OH2 9575   5.444   4.330   2.298
 3190TIP3    H1 9576   5.414   4.417   2.323
 3190TIP3    H2 9577   5.538   4.340   2.285
 3191TIP3   OH2 9578   0.969   3.019   3.308
 3191TIP3    H1 9579   0.886   3.065   3.296
 3191TIP3    H2 9580   0.998   3.044   3.396
 3192TIP3   OH2 9581   6.097   1.191   1.347
 3192TIP3    H1 9582   6.175   1.184   1.402
 3192TIP3    H2 9583   6.120   1.257   1.282
 3193TIP3   OH2 9584   2.661   4.571   1.920
 3193TIP3    H1 9585   2.642   4.489   1.874
 3193TIP3    H2 9586   2.679   4.634   1.851
 3194TIP3   OH2 9587   1.881   4.721   0.123
 3194TIP3    H1 9588   1.842   4.777   0.056
 3194TIP3    H2 9589   1.968   4.757   0.136
 3195TIP3   OH2 9590   0.613   5.546   3.086
 3195TIP3    H1 9591   0.601   5.641   3.091
 3195TIP3    H2 9592   0.557   5.519   3.013
 3196TIP3   OH2 9593   3.441   1.201   3.203
 3196TIP3    H1 9594   3.525   1.174   3.239
 3196TIP3    H2 9595   3.443   1.296   3.206
 3197TIP3   OH2 9596   1.796   4.107   3.105
 3197TIP3    H1 9597   1.787   4.038   3.170
 3197TIP3    H2 9598   1.711   4.152   3.105
 3198TIP3   OH2 9599   0.892   3.340   4.359
 3198TIP3    H1 9600   0.854   3.429   4.360
 3198TIP3    H2 9601   0.876   3.307   4.448
 3199TIP3   OH2 9602   6.253   2.150   0.359
 3199TIP3    H1 9603   6.320   2.187   0.303
 3199TIP3    H2 9604   6.179   2.132   0.301
 3200TIP3   OH2 9605   1.583   5.543   0.444
 3200TIP3    H1 9606   1.675   5.537   0.466
 3200TIP3    H2 9607   1.537   5.517   0.524
 3201TIP3   OH2 9608   1.675   0.780   0.835
 3201TIP3    H1 9609   1.700   0.858   0.884
 3201TIP3    H2 9610   1.748   0.720   0.846
 3202TIP3   OH2 9611   3.715   2.416   0.693
 3202TIP3    H1 9612   3.652   2.346   0.675
 3202TIP3    H2 9613   3.799   2.381   0.661
 3203TIP3   OH2 9614   1.808   0.769   4.728
 3203TIP3    H1 9615   1.779   0.677   4.726
 3203TIP3    H2 9616   1.810   0.795   4.636
 3204TIP3   OH2 9617   6.027   5.566   0.585
 3204TIP3    H1 9618   6.094   5.499   0.575
 3204TIP3    H2 9619   6.068   5.646   0.553
 3205TIP3   OH2 9620   4.832   0.030   3.732
 3205TIP3    H1 9621   4.784  -0.021   3.667
 3205TIP3    H2 9622   4.922  -0.002   3.726
 3206TIP3   OH2 9623   3.184   4.507   3.237
 3206TIP3    H1 9624   3.248   4.568   3.273
 3206TIP3    H2 9625   3.182   4.435   3.300
 3207TIP3   OH2 9626   0.277   2.130   2.413
 3207TIP3    H1 9627   0.327   2.085   2.481
 3207TIP3    H2 9628   0.203   2.071   2.396
 3208TIP3   OH2 9629   4.050   2.328   4.724
 3208TIP3    H1 9630   4.045   2.337   4.819
 3208TIP3    H2 9631   4.139   2.357   4.702
 3209TIP3   OH2 9632   2.227   0.534   3.525
 3209TIP3    H1 9633   2.263   0.474   3.461
 3209TIP3    H2 9634   2.245   0.493   3.610
 3210TIP3   OH2 9635   2.391   2.649   0.726
 3210TIP3    H1 9636   2.300   2.631   0.750
 3210TIP3    H2 9637   2.402   2.743   0.738
 3211TIP3   OH2 9638   3.995   0.664   5.010
 3211TIP3    H1 9639   3.923   0.677   4.948
 3211TIP3    H2 9640   4.033   0.751   5.022
 3212TIP3   OH2 9641   5.283   5.540   4.332
 3212TIP3    H1 9642   5.365   5.570   4.293
 3212TIP3    H2 9643   5.272   5.451   4.298
 3213TIP3   OH2 9644   0.873   3.994   3.439
 3213TIP3    H1 9645   0.784   3.958   3.446
 3213TIP3    H2 9646   0.862   4.075   3.390
 3214TIP3   OH2 9647   3.760   5.606   2.854
 3214TIP3    H1 9648   3.689   5.543   2.862
 3214TIP3    H2 9649   3.764   5.627   2.761
 3215TIP3   OH2 9650   0.748   1.113   4.347
 3215TIP3    H1 9651   0.661   1.151   4.363
 3215TIP3    H2 9652   0.730   1.030   4.304
 3216TIP3   OH2 9653   3.889   1.799   0.343
 3216TIP3    H1 9654   3.843   1.835   0.419
 3216TIP3    H2 9655   3.940   1.872   0.309
 3217TIP3   OH2 9656   2.057   5.547   4.494
 3217TIP3    H1 9657   2.039   5.547   4.400
 3217TIP3    H2 9658   2.010   5.623   4.527
 3218TIP3   OH2 9659   3.021   5.213   5.038
 3218TIP3    H1 9660   2.995   5.124   5.013
 3218TIP3    H2 9661   3.053   5.252   4.958
 3219TIP3   OH2 9662   3.444   5.585   2.118
 3219TIP3    H1 9663   3.379   5.652   2.100
 3219TIP3    H2 9664   3.407   5.505   2.080
 3220TIP3   OH2 9665   3.657   1.197   3.770
 3220TIP3    H1 9666   3.663   1.194   3.865
 3220TIP3    H2 9667   3.721   1.263   3.744
 3221TIP3   OH2 9668   4.321   0.306   3.525
 3221TIP3    H1 9669   4.354   0.338   3.609
 3221TIP3    H2 9670   4.236   0.348   3.514
 3222TIP3   OH2 9671   2.541   5.271   0.594
 3222TIP3    H1 9672   2.555   5.267   0.689
 3222TIP3    H2 9673   2.487   5.195   0.575
 3223TIP3   OH2 9674   4.714   2.699   2.160
 3223TIP3    H1 9675   4.635   2.672   2.206
 3223TIP3    H2 9676   4.784   2.646   2.199
 3224TIP3   OH2 9677   0.564   3.569   0.948
 3224TIP3    H1 9678   0.545   3.662   0.938
 3224TIP3    H2 9679   0.650   3.566   0.991
 3225TIP3   OH2 9680   6.166   4.929   0.113
 3225TIP3    H1 9681   6.142   5.021   0.113
 3225TIP3    H2 9682   6.122   4.892   0.189
 3226TIP3   OH2 9683   3.561   1.586   0.065
 3226TIP3    H1 9684   3.601   1.586   0.152
 3226TIP3    H2 9685   3.629   1.555   0.006
 3227TIP3   OH2 9686   1.839   5.887   2.345
 3227TIP3    H1 9687   1.861   5.878   2.437
 3227TIP3    H2 9688   1.805   5.976   2.336
 3228TIP3   OH2 9689   5.547   5.561   4.194
 3228TIP3    H1 9690   5.614   5.620   4.161
 3228TIP3    H2 9691   5.560   5.480   4.146
 3229TIP3   OH2 9692   2.231   3.594   1.763
 3229TIP3    H1 9693   2.315   3.550   1.752
 3229TIP3    H2 9694   2.166   3.529   1.736
 3230TIP3   OH2 9695   2.369   1.127   0.619
 3230TIP3    H1 9696   2.364   1.140   0.524
 3230TIP3    H2 9697   2.463   1.119   0.636
 3231TIP3   OH2 9698   6.182   1.872   2.388
 3231TIP3    H1 9699   6.137   1.810   2.447
 3231TIP3    H2 9700   6.111   1.918   2.343
 3232TIP3   OH2 9701   3.216   1.295   2.028
 3232TIP3    H1 9702   3.155   1.343   2.085
 3232TIP3    H2 9703   3.279   1.255   2.088
 3233TIP3   OH2 9704   0.660   2.479   0.109
 3233TIP3    H1 9705   0.708   2.401   0.136
 3233TIP3    H2 9706   0.727   2.538   0.074
 3234TIP3   OH2 9707   2.097   1.780   0.642
 3234TIP3    H1 9708   2.009   1.817   0.626
 3234TIP3    H2 9709   2.154   1.832   0.586
 3235TIP3   OH2 9710   3.495   4.823   1.489
 3235TIP3    H1 9711   3.584   4.797   1.511
 3235TIP3    H2 9712   3.502   4.866   1.404
 3236TIP3   OH2 9713   0.607   5.135   2.610
 3236TIP3    H1 9714   0.659   5.171   2.682
 3236TIP3    H2 9715   0.666   5.075   2.564
 3237TIP3   OH2 9716   0.534   4.466   2.520
 3237TIP3    H1 9717   0.561   4.423   2.439
 3237TIP3    H2 9718   0.515   4.556   2.493
 3238TIP3   OH2 9719   0.838   0.208   2.354
 3238TIP3    H1 9720   0.828   0.169   2.267
 3238TIP3    H2 9721   0.790   0.291   2.348
 3239TIP3   OH2 9722   2.752   1.393   4.530
 3239TIP3    H1 9723   2.757   1.383   4.435
 3239TIP3    H2 9724   2.706   1.476   4.543
 3240TIP3   OH2 9725   2.745   2.183   0.957
 3240TIP3    H1 9726   2.840   2.174   0.965
 3240TIP3    H2 9727   2.732   2.263   0.907
 3241TIP3   OH2 9728   0.626   2.870   2.425
 3241TIP3    H1 9729   0.581   2.954   2.424
 3241TIP3    H2 9730   0.570   2.812   2.374
 3242TIP3   OH2 9731   0.034   5.744   3.989
 3242TIP3    H1 9732   0.016   5.700   3.906
 3242TIP3    H2 9733   0.107   5.803   3.969
 3243TIP3   OH2 9734   1.051   3.478   3.374
 3243TIP3    H1 9735   0.973   3.474   3.431
 3243TIP3    H2 9736   1.124   3.494   3.434
 3244TIP3   OH2 9737   2.824   2.637   0.621
 3244TIP3    H1 9738   2.749   2.578   0.627
 3244TIP3    H2 9739   2.794   2.711   0.570
 3245TIP3   OH2 9740   0.406   2.924   1.256
 3245TIP3    H1 9741   0.460   2.994   1.220
 3245TIP3    H2 9742   0.468   2.854   1.275
 3246TIP3   OH2 9743   6.343   2.714   2.919
 3246TIP3    H1 9744   6.428   2.673   2.902
 3246TIP3    H2 9745   6.337   2.784   2.855
 3247TIP3   OH2 9746   2.376   4.620   1.952
 3247TIP3    H1 9747   2.468   4.625   1.925
 3247TIP3    H2 9748   2.379   4.626   2.047
 3248TIP3   OH2 9749   5.401   3.645   5.000
 3248TIP3    H1 9750   5.332   3.584   5.026
 3248TIP3    H2 9751   5.406   3.708   5.071
 3249TIP3   OH2 9752   1.704   2.450   1.756
 3249TIP3    H1 9753   1.703   2.521   1.692
 3249TIP3    H2 9754   1.784   2.401   1.736
 3250TIP3   OH2 9755   5.048   4.793   3.955
 3250TIP3    H1 9756   4.988   4.720   3.971
 3250TIP3    H2 9757   5.011   4.865   4.006
 3251TIP3   OH2 9758   4.054   1.835   4.271
 3251TIP3    H1 9759   4.095   1.843   4.357
 3251TIP3    H2 9760   4.109   1.774   4.224
 3252TIP3   OH2 9761   5.929   0.207   2.394
 3252TIP3    H1 9762   5.999   0.180   2.334
 3252TIP3    H2 9763   5.881   0.126   2.413
 3253TIP3   OH2 9764   2.383   4.685   2.546
 3253TIP3    H1 9765   2.468   4.670   2.587
 3253TIP3    H2 9766   2.337   4.602   2.554
 3254TIP3   OH2 9767   0.420   1.260   4.867
 3254TIP3    H1 9768   0.333   1.258   4.905
 3254TIP3    H2 9769   0.426   1.179   4.816
 3255TIP3   OH2 9770   4.771   2.985   1.082
 3255TIP3    H1 9771   4.749   3.061   1.027
 3255TIP3    H2 9772   4.799   2.918   1.019
 3256TIP3   OH2 9773   1.412   5.341   3.140
 3256TIP3    H1 9774   1.377   5.411   3.195
 3256TIP3    H2 9775   1.365   5.262   3.169
 3257TIP3   OH2 9776   5.341   4.320   2.828
 3257TIP3    H1 9777   5.432   4.290   2.823
 3257TIP3    H2 9778   5.335   4.388   2.761
 3258TIP3   OH2 9779   1.870   1.316   0.245
 3258TIP3    H1 9780   1.941   1.258   0.272
 3258TIP3    H2 9781   1.862   1.378   0.318
 3259TIP3   OH2 9782   1.404   4.123   3.503
 3259TIP3    H1 9783   1.320   4.118   3.456
 3259TIP3    H2 9784   1.463   4.068   3.452
 3260TIP3   OH2 9785   2.626   1.226   0.084
 3260TIP3    H1 9786   2.624   1.285   0.160
 3260TIP3    H2 9787   2.619   1.138   0.121
 3261TIP3   OH2 9788   2.236   3.220   3.821
 3261TIP3    H1 9789   2.157   3.252   3.777
 3261TIP3    H2 9790   2.306   3.278   3.790
 3262TIP3   OH2 9791   2.584   2.761   0.448
 3262TIP3    H1 9792   2.496   2.751   0.485
 3262TIP3    H2 9793   2.596   2.682   0.394
 3263TIP3   OH2 9794   0.867   0.783   2.031
 3263TIP3    H1 9795   0.933   0.786   1.961
 3263TIP3    H2 9796   0.862   0.873   2.063
 3264TIP3   OH2 9797   3.009   1.784   2.815
 3264TIP3    H1 9798   3.104   1.785   2.804
 3264TIP3    H2 9799   2.976   1.751   2.731
 3265TIP3   OH2 9800   1.406   2.075   4.316
 3265TIP3    H1 9801   1.332   2.064   4.256
 3265TIP3    H2 9802   1.390   2.012   4.386
 3266TIP3   OH2 9803   1.680   2.789   4.185
 3266TIP3    H1 9804   1.644   2.748   4.106
 3266TIP3    H2 9805   1.638   2.875   4.188
 3267TIP3   OH2 9806   5.542   1.379   4.863
 3267TIP3    H1 9807   5.630   1.404   4.892
 3267TIP3    H2 9808   5.555   1.345   4.775
 3268TIP3   OH2 9809   3.870   1.318   3.322
 3268TIP3    H1 9810   3.797   1.265   3.290
 3268TIP3    H2 9811   3.863   1.401   3.275
 3269TIP3   OH2 9812   2.100   1.770   2.579
 3269TIP3    H1 9813   2.039   1.787   2.651
 3269TIP3    H2 9814   2.180   1.741   2.623
 3270TIP3   OH2 9815   1.540   1.700   0.870
 3270TIP3    H1 9816   1.502   1.658   0.793
 3270TIP3    H2 9817   1.488   1.779   0.883
 3271TIP3   OH2 9818   5.729   3.410   1.374
 3271TIP3    H1 9819   5.775   3.354   1.436
 3271TIP3    H2 9820   5.654   3.444   1.423
 3272TIP3   OH2 9821   1.938   3.504   4.205
 3272TIP3    H1 9822   1.872   3.559   4.162
 3272TIP3    H2 9823   2.019   3.524   4.158
 3273TIP3   OH2 9824   6.228   3.420   0.862
 3273TIP3    H1 9825   6.319   3.399   0.882
 3273TIP3    H2 9826   6.222   3.414   0.766
 3274TIP3   OH2 9827   1.868   0.052   2.864
 3274TIP3    H1 9828   1.816   0.132   2.862
 3274TIP3    H2 9829   1.886   0.032   2.772
 3275TIP3   OH2 9830   1.590   4.331   2.094
 3275TIP3    H1 9831   1.527   4.385   2.143
 3275TIP3    H2 9832   1.586   4.365   2.005
 3276TIP3   OH2 9833   0.443   5.622   0.291
 3276TIP3    H1 9834   0.366   5.609   0.236
 3276TIP3    H2 9835   0.517   5.599   0.234
 3277TIP3   OH2 9836   4.677   0.749   1.625
 3277TIP3    H1 9837   4.724   0.822   1.666
 3277TIP3    H2 9838   4.680   0.679   1.690
 3278TIP3   OH2 9839   3.915   5.636   0.802
 3278TIP3    H1 9840   3.965   5.565   0.761
 3278TIP3    H2 9841   3.847   5.592   0.853
 3279TIP3   OH2 9842   4.772   5.372   2.882
 3279TIP3    H1 9843   4.816   5.395   2.801
 3279TIP3    H2 9844   4.838   5.385   2.950
 3280TIP3   OH2 9845   5.408   4.677   4.713
 3280TIP3    H1 9846   5.477   4.707   4.654
 3280TIP3    H2 9847   5.356   4.616   4.660
 3281TIP3   OH2 9848   0.368   2.519   0.597
 3281TIP3    H1 9849   0.399   2.439   0.639
 3281TIP3    H2 9850   0.440   2.581   0.608
 3282TIP3   OH2 9851   5.702   5.271   2.471
 3282TIP3    H1 9852   5.748   5.226   2.399
 3282TIP3    H2 9853   5.727   5.222   2.549
 3283TIP3   OH2 9854   4.220   0.919   3.163
 3283TIP3    H1 9855   4.167   0.975   3.106
 3283TIP3    H2 9856   4.299   0.970   3.180
 3284TIP3   OH2 9857   0.809   5.569   2.072
 3284TIP3    H1 9858   0.820   5.520   2.153
 3284TIP3    H2 9859   0.717   5.595   2.071
 3285TIP3   OH2 9860   0.220   3.448   4.125
 3285TIP3    H1 9861   0.183   3.484   4.206
 3285TIP3    H2 9862   0.144   3.421   4.074
 3286TIP3   OH2 9863   0.411   5.478   3.343
 3286TIP3    H1 9864   0.472   5.441   3.407
 3286TIP3    H2 9865   0.458   5.471   3.259
 3287TIP3   OH2 9866   2.565   1.156   1.019
 3287TIP3    H1 9867   2.530   1.116   1.099
 3287TIP3    H2 9868   2.649   1.193   1.046
 3288TIP3   OH2 9869   1.359   1.788   3.531
 3288TIP3    H1 9870   1.380   1.756   3.443
 3288TIP3    H2 9871   1.336   1.880   3.518
 3289TIP3   OH2 9872   1.115   2.786   0.976
 3289TIP3    H1 9873   1.118   2.842   1.053
 3289TIP3    H2 9874   1.187   2.724   0.988
 3290TIP3   OH2 9875   3.479   3.425   0.669
 3290TIP3    H1 9876   3.477   3.393   0.759
 3290TIP3    H2 9877   3.473   3.520   0.677
 3291TIP3   OH2 9878   0.338   3.770   3.545
 3291TIP3    H1 9879   0.333   3.846   3.603
 3291TIP3    H2 9880   0.424   3.778   3.503
 3292TIP3   OH2 9881   3.148   0.106   4.480
 3292TIP3    H1 9882   3.187   0.182   4.523
 3292TIP3    H2 9883   3.198   0.032   4.515
 3293TIP3   OH2 9884   4.729   4.718   3.866
 3293TIP3    H1 9885   4.648   4.671   3.846
 3293TIP3    H2 9886   4.758   4.683   3.950
 3294TIP3   OH2 9887   5.961   2.066   4.589
 3294TIP3    H1 9888   5.927   2.005   4.524
 3294TIP3    H2 9889   5.911   2.147   4.576
 3295TIP3   OH2 9890   4.815   0.699   3.611
 3295TIP3    H1 9891   4.789   0.774   3.664
 3295TIP3    H2 9892   4.798   0.727   3.521
 3296TIP3   OH2 9893   0.086   2.624   1.118
 3296TIP3    H1 9894   0.022   2.609   1.049
 3296TIP3    H2 9895   0.125   2.538   1.133
 3297TIP3   OH2 9896   3.251   0.402   1.094
 3297TIP3    H1 9897   3.268   0.384   1.187
 3297TIP3    H2 9898   3.304   0.338   1.047
 3298TIP3   OH2 9899   0.685   4.931   0.290
 3298TIP3    H1 9900   0.734   5.012   0.297
 3298TIP3    H2 9901   0.746   4.868   0.252
 3299TIP3   OH2 9902   0.853   4.760   4.690
 3299TIP3    H1 9903   0.928   4.709   4.658
 3299TIP3    H2 9904   0.880   4.851   4.680
 3300TIP3   OH2 9905   3.882   4.181   0.247
 3300TIP3    H1 9906   3.873   4.267   0.206
 3300TIP3    H2 9907   3.969   4.181   0.285
 3301TIP3   OH2 9908   4.010   4.872   3.912
 3301TIP3    H1 9909   4.091   4.910   3.948
 3301TIP3    H2 9910   3.940   4.915   3.961
 3302TIP3   OH2 9911   3.423   4.722   1.186
 3302TIP3    H1 9912   3.391   4.748   1.100
 3302TIP3    H2 9913   3.458   4.803   1.224
 3303TIP3   OH2 9914   5.457   3.478   3.111
 3303TIP3    H1 9915   5.417   3.552   3.157
 3303TIP3    H2 9916   5.545   3.508   3.089
 3304TIP3   OH2 9917   3.602   4.792   3.475
 3304TIP3    H1 9918   3.636   4.737   3.545
 3304TIP3    H2 9919   3.551   4.859   3.521
 3305TIP3   OH2 9920   4.948   3.517   4.578
 3305TIP3    H1 9921   4.973   3.498   4.669
 3305TIP3    H2 9922   4.875   3.457   4.561
 3306TIP3   OH2 9923   1.424   3.676   0.276
 3306TIP3    H1 9924   1.415   3.714   0.189
 3306TIP3    H2 9925   1.368   3.598   0.274
 3307TIP3   OH2 9926   2.561   2.518   1.228
 3307TIP3    H1 9927   2.650   2.496   1.252
 3307TIP3    H2 9928   2.508   2.493   1.303
 3308TIP3   OH2 9929   3.440   3.174   1.992
 3308TIP3    H1 9930   3.439   3.254   1.940
 3308TIP3    H2 9931   3.513   3.185   2.052
 3309TIP3   OH2 9932   3.936   2.287   1.527
 3309TIP3    H1 9933   3.979   2.362   1.567
 3309TIP3    H2 9934   3.898   2.322   1.446
 3310TIP3   OH2 9935   5.047   1.787   0.324
 3310TIP3    H1 9936   5.098   1.803   0.245
 3310TIP3    H2 9937   4.983   1.858   0.325
 3311TIP3   OH2 9938   1.422   4.318   1.135
 3311TIP3    H1 9939   1.414   4.336   1.229
 3311TIP3    H2 9940   1.409   4.404   1.094
 3312TIP3   OH2 9941   4.328   0.297   0.838
 3312TIP3    H1 9942   4.342   0.229   0.904
 3312TIP3    H2 9943   4.373   0.374   0.873
 3313TIP3   OH2 9944   2.851   5.483   1.122
 3313TIP3    H1 9945   2.915   5.420   1.158
 3313TIP3    H2 9946   2.894   5.519   1.045
 3314TIP3   OH2 9947   2.214   4.744   2.799
 3314TIP3    H1 9948   2.268   4.762   2.722
 3314TIP3    H2 9949   2.275   4.708   2.864
 3315TIP3   OH2 9950   0.282   0.729   3.376
 3315TIP3    H1 9951   0.358   0.780   3.406
 3315TIP3    H2 9952   0.320   0.654   3.331
 3316TIP3   OH2 9953   4.092   3.914   3.750
 3316TIP3    H1 9954   4.049   3.970   3.685
 3316TIP3    H2 9955   4.027   3.847   3.770
 3317TIP3   OH2 9956   1.448   2.599   1.513
 3317TIP3    H1 9957   1.425   2.525   1.570
 3317TIP3    H2 9958   1.364   2.638   1.489
 3318TIP3   OH2 9959   2.122   1.792   3.209
 3318TIP3    H1 9960   2.029   1.777   3.224
 3318TIP3    H2 9961   2.157   1.812   3.296
 3319TIP3   OH2 9962   0.282   5.013   0.243
 3319TIP3    H1 9963   0.308   4.931   0.286
 3319TIP3    H2 9964   0.285   4.992   0.149
 3320TIP3   OH2 9965   2.631   5.858   2.857
 3320TIP3    H1 9966   2.656   5.865   2.765
 3320TIP3    H2 9967   2.621   5.949   2.886
 3321TIP3   OH2 9968   2.137   4.613   3.749
 3321TIP3    H1 9969   2.145   4.606   3.654
 3321TIP3    H2 9970   2.200   4.682   3.773
 3322TIP3   OH2 9971   0.503   1.432   0.529
 3322TIP3    H1 9972   0.551   1.354   0.557
 3322TIP3    H2 9973   0.430   1.398   0.477
 3323TIP3   OH2 9974   2.817   3.012   3.237
 3323TIP3    H1 9975   2.833   3.091   3.186
 3323TIP3    H2 9976   2.764   2.957   3.180
 3324TIP3   OH2 9977   2.603   0.285   3.948
 3324TIP3    H1 9978   2.636   0.367   3.912
 3324TIP3    H2 9979   2.673   0.253   4.005
 3325TIP3   OH2 9980   3.956   3.696   3.156
 3325TIP3    H1 9981   3.939   3.616   3.206
 3325TIP3    H2 9982   3.996   3.756   3.220
 3326TIP3   OH2 9983   2.688   0.774   3.595
 3326TIP3    H1 9984   2.766   0.737   3.637
 3326TIP3    H2 9985   2.722   0.815   3.515
 3327TIP3   OH2 9986   0.007   1.846   4.831
 3327TIP3    H1 9987  -0.067   1.884   4.785
 3327TIP3    H2 9988   0.052   1.920   4.872
 3328TIP3   OH2 9989   0.739   3.652   0.638
 3328TIP3    H1 9990   0.723   3.739   0.675
 3328TIP3    H2 9991   0.675   3.644   0.568
 3329TIP3   OH2 9992   3.363   3.346   4.080
 3329TIP3    H1 9993   3.427   3.298   4.029
 3329TIP3    H2 9994   3.324   3.281   4.138
 3330TIP3   OH2 9995   5.804   1.892   1.405
 3330TIP3    H1 9996   5.744   1.914   1.333
 3330TIP3    H2 9997   5.883   1.861   1.361
 3331TIP3   OH2 9998   3.491   5.372   0.166
 3331TIP3    H1 9999   3.445   5.440   0.117
 3331TIP3    H210000   3.432   5.349   0.237
 3332TIP3   OH210001   0.531   5.701   2.393
 3332TIP3    H110002   0.620   5.702   2.428
 3332TIP3    H210003   0.532   5.765   2.322
 3333TIP3   OH210004   1.634   4.293   1.457
 3333TIP3    H110005   1.550   4.250   1.449
 3333TIP3    H210006   1.615   4.376   1.501
 3334TIP3   OH210007   1.285   4.328   3.188
 3334TIP3    H110008   1.289   4.235   3.165
 3334TIP3    H210009   1.223   4.365   3.125
 3335TIP3   OH210010   4.502   2.423   1.251
 3335TIP3    H110011   4.563   2.465   1.192
 3335TIP3    H210012   4.475   2.343   1.206
 3336TIP3   OH210013   4.441   4.992   0.914
 3336TIP3    H110014   4.392   4.962   0.837
 3336TIP3    H210015   4.528   4.953   0.904
 3337TIP3   OH210016   4.540   4.892   1.972
 3337TIP3    H110017   4.449   4.896   1.944
 3337TIP3    H210018   4.553   4.973   2.021
 3338TIP3   OH210019   3.275   2.241   2.444
 3338TIP3    H110020   3.279   2.171   2.510
 3338TIP3    H210021   3.365   2.252   2.415
 3339TIP3   OH210022   6.069   0.908   2.724
 3339TIP3    H110023   6.085   0.822   2.764
 3339TIP3    H210024   6.063   0.890   2.630
 3340TIP3   OH210025   5.665   0.190   1.958
 3340TIP3    H110026   5.749   0.175   2.001
 3340TIP3    H210027   5.682   0.261   1.896
 3341TIP3   OH210028   5.124   5.818   0.567
 3341TIP3    H110029   5.099   5.830   0.658
 3341TIP3    H210030   5.202   5.763   0.570
 3342TIP3   OH210031   5.935   5.944   1.705
 3342TIP3    H110032   5.859   5.906   1.661
 3342TIP3    H210033   5.929   6.037   1.687
 3343TIP3   OH210034   0.828   1.220   4.642
 3343TIP3    H110035   0.802   1.260   4.559
 3343TIP3    H210036   0.847   1.294   4.699
 3344TIP3   OH210037   4.291   3.474   2.212
 3344TIP3    H110038   4.355   3.411   2.181
 3344TIP3    H210039   4.331   3.559   2.193
 3345TIP3   OH210040   2.448   1.974   3.490
 3345TIP3    H110041   2.491   1.970   3.575
 3345TIP3    H210042   2.385   2.046   3.499
 3346TIP3   OH210043   5.269   5.086   0.773
 3346TIP3    H110044   5.329   5.038   0.830
 3346TIP3    H210045   5.271   5.176   0.805
 3347TIP3   OH210046   3.052   0.534   2.206
 3347TIP3    H110047   3.081   0.616   2.246
 3347TIP3    H210048   3.133   0.483   2.194
 3348TIP3   OH210049   4.248   3.412   0.716
 3348TIP3    H110050   4.155   3.412   0.735
 3348TIP3    H210051   4.282   3.335   0.762
 3349TIP3   OH210052   4.761   0.974   2.959
 3349TIP3    H110053   4.795   1.045   3.013
 3349TIP3    H210054   4.827   0.960   2.892
 3350TIP3   OH210055   6.137   0.157   2.678
 3350TIP3    H110056   6.044   0.159   2.698
 3350TIP3    H210057   6.153   0.239   2.630
 3351TIP3   OH210058   3.879   5.569   3.446
 3351TIP3    H110059   3.797   5.607   3.414
 3351TIP3    H210060   3.905   5.508   3.376
 3352TIP3   OH210061   1.210   0.822   0.739
 3352TIP3    H110062   1.247   0.889   0.681
 3352TIP3    H210063   1.286   0.786   0.785
 3353TIP3   OH210064   6.373   0.835   4.321
 3353TIP3    H110065   6.447   0.784   4.357
 3353TIP3    H210066   6.299   0.812   4.377
 3354TIP3   OH210067   5.173   3.986   0.049
 3354TIP3    H110068   5.222   4.065   0.071
 3354TIP3    H210069   5.130   4.008  -0.034
 3355TIP3   OH210070   1.921   4.410   4.104
 3355TIP3    H110071   1.945   4.502   4.113
 3355TIP3    H210072   1.991   4.363   4.150
 3356TIP3   OH210073   4.111   1.085   3.764
 3356TIP3    H110074   4.186   1.061   3.709
 3356TIP3    H210075   4.051   1.130   3.704
 3357TIP3   OH210076   6.018   0.602   0.518
 3357TIP3    H110077   5.975   0.531   0.471
 3357TIP3    H210078   6.111   0.587   0.505
 3358TIP3   OH210079   5.818   4.674   0.209
 3358TIP3    H110080   5.791   4.704   0.122
 3358TIP3    H210081   5.832   4.579   0.198
 3359TIP3   OH210082   3.179   3.160   0.814
 3359TIP3    H110083   3.192   3.110   0.733
 3359TIP3    H210084   3.115   3.110   0.864
 3360TIP3   OH210085   0.480   2.377   1.780
 3360TIP3    H110086   0.554   2.438   1.781
 3360TIP3    H210087   0.512   2.300   1.826
 3361TIP3   OH210088   0.846   0.720   5.026
 3361TIP3    H110089   0.899   0.661   5.081
 3361TIP3    H210090   0.756   0.698   5.050
 3362TIP3   OH210091   4.904   1.693   0.661
 3362TIP3    H110092   4.994   1.709   0.631
 3362TIP3    H210093   4.898   1.598   0.670
 3363TIP3   OH210094   3.498   0.819   5.179
 3363TIP3    H110095   3.405   0.796   5.185
 3363TIP3    H210096   3.497   0.912   5.155
 3364TIP3   OH210097   0.849   1.655   2.263
 3364TIP3    H110098   0.783   1.717   2.234
 3364TIP3    H210099   0.844   1.657   2.358
 3365TIP3   OH210100   5.319   4.678   3.069
 3365TIP3    H110101   5.247   4.618   3.089
 3365TIP3    H210102   5.286   4.764   3.095
 3366TIP3   OH210103   6.281   2.910   2.020
 3366TIP3    H110104   6.219   2.965   2.067
 3366TIP3    H210105   6.247   2.821   2.031
 3367TIP3   OH210106   4.457   2.332   0.600
 3367TIP3    H110107   4.538   2.356   0.644
 3367TIP3    H210108   4.485   2.287   0.520
 3368TIP3   OH210109   0.609   0.374   2.198
 3368TIP3    H110110   0.542   0.442   2.197
 3368TIP3    H210111   0.691   0.421   2.180
 3369TIP3   OH210112   1.141   4.183   0.567
 3369TIP3    H110113   1.110   4.096   0.590
 3369TIP3    H210114   1.236   4.175   0.566
 3370TIP3   OH210115   2.511   0.931   2.210
 3370TIP3    H110116   2.437   0.930   2.149
 3370TIP3    H210117   2.492   0.860   2.271
 3371TIP3   OH210118   6.238   0.369   3.619
 3371TIP3    H110119   6.175   0.333   3.682
 3371TIP3    H210120   6.204   0.342   3.533
 3372TIP3   OH210121   4.332   4.832   2.386
 3372TIP3    H110122   4.328   4.790   2.300
 3372TIP3    H210123   4.423   4.822   2.414
 3373TIP3   OH210124   0.384   1.787   3.464
 3373TIP3    H110125   0.296   1.795   3.500
 3373TIP3    H210126   0.440   1.837   3.523
 3374TIP3   OH210127   0.510   0.243   4.608
 3374TIP3    H110128   0.529   0.281   4.693
 3374TIP3    H210129   0.595   0.239   4.564
 3375TIP3   OH210130   4.976   2.867   2.117
 3375TIP3    H110131   5.019   2.827   2.193
 3375TIP3    H210132   4.894   2.818   2.107
 3376TIP3   OH210133   1.808   1.708   4.169
 3376TIP3    H110134   1.724   1.665   4.149
 3376TIP3    H210135   1.785   1.782   4.224
 3377TIP3   OH210136   3.515   3.704   0.715
 3377TIP3    H110137   3.534   3.766   0.645
 3377TIP3    H210138   3.589   3.713   0.776
 3378TIP3   OH210139   0.657   5.865   2.846
 3378TIP3    H110140   0.750   5.864   2.824
 3378TIP3    H210141   0.616   5.913   2.774
 3379TIP3   OH210142   5.713   2.747   2.781
 3379TIP3    H110143   5.667   2.668   2.810
 3379TIP3    H210144   5.774   2.715   2.715
 3380TIP3   OH210145   6.116   0.387   4.631
 3380TIP3    H110146   6.083   0.390   4.541
 3380TIP3    H210147   6.048   0.429   4.683
 3381TIP3   OH210148   5.830   4.975   0.643
 3381TIP3    H110149   5.920   4.984   0.613
 3381TIP3    H210150   5.799   5.065   0.653
 3382TIP3   OH210151   2.329   0.147   2.076
 3382TIP3    H110152   2.354   0.186   1.992
 3382TIP3    H210153   2.331   0.220   2.138
 3383TIP3   OH210154   3.622   2.994   3.109
 3383TIP3    H110155   3.627   2.978   3.014
 3383TIP3    H210156   3.712   2.988   3.139
 3384TIP3   OH210157   1.336   2.988   1.133
 3384TIP3    H110158   1.355   3.055   1.199
 3384TIP3    H210159   1.393   2.914   1.156
 3385TIP3   OH210160   5.804   3.505   0.981
 3385TIP3    H110161   5.770   3.550   0.904
 3385TIP3    H210162   5.780   3.562   1.054
 3386TIP3   OH210163   5.330   0.381   1.103
 3386TIP3    H110164   5.312   0.438   1.178
 3386TIP3    H210165   5.262   0.314   1.107
 3387TIP3   OH210166   0.706   0.563   1.891
 3387TIP3    H110167   0.758   0.607   1.958
 3387TIP3    H210168   0.717   0.618   1.813
 3388TIP3   OH210169   2.113   4.236   3.763
 3388TIP3    H110170   2.104   4.296   3.690
 3388TIP3    H210171   2.078   4.153   3.731
 3389TIP3   OH210172   0.571   3.906   0.026
 3389TIP3    H110173   0.593   3.972   0.092
 3389TIP3    H210174   0.492   3.940  -0.016
 3390TIP3   OH210175   5.189   2.636   0.084
 3390TIP3    H110176   5.265   2.695   0.090
 3390TIP3    H210177   5.207   2.583   0.006
 3391TIP3   OH210178   2.409   2.845   4.429
 3391TIP3    H110179   2.503   2.847   4.410
 3391TIP3    H210180   2.379   2.760   4.394
 3392TIP3   OH210181   3.742   3.698   0.869
 3392TIP3    H110182   3.815   3.637   0.880
 3392TIP3    H210183   3.779   3.772   0.821
 3393TIP3   OH210184   0.508   3.804   1.873
 3393TIP3    H110185   0.563   3.795   1.951
 3393TIP3    H210186   0.458   3.723   1.869
 3394TIP3   OH210187   5.993   1.530   0.854
 3394TIP3    H110188   5.996   1.479   0.773
 3394TIP3    H210189   5.909   1.507   0.893
 3395TIP3   OH210190   5.842   5.657   0.335
 3395TIP3    H110191   5.902   5.721   0.373
 3395TIP3    H210192   5.805   5.701   0.258
 3396TIP3   OH210193   6.057   1.781   1.626
 3396TIP3    H110194   5.987   1.716   1.616
 3396TIP3    H210195   6.025   1.858   1.578
 3397TIP3   OH210196   4.120   4.592   2.526
 3397TIP3    H110197   4.196   4.635   2.564
 3397TIP3    H210198   4.094   4.647   2.453
 3398TIP3   OH210199   5.130   3.122   4.913
 3398TIP3    H110200   5.104   3.146   5.002
 3398TIP3    H210201   5.204   3.179   4.893
 3399TIP3   OH210202   0.701   1.701   4.786
 3399TIP3    H110203   0.687   1.732   4.876
 3399TIP3    H210204   0.627   1.643   4.769
 3400TIP3   OH210205   3.110   0.607   4.982
 3400TIP3    H110206   3.140   0.639   5.067
 3400TIP3    H210207   3.020   0.641   4.974
 3401TIP3   OH210208   3.890   0.492   2.722
 3401TIP3    H110209   3.897   0.411   2.771
 3401TIP3    H210210   3.844   0.553   2.780
 3402TIP3   OH210211   2.491   5.259   3.982
 3402TIP3    H110212   2.567   5.243   4.038
 3402TIP3    H210213   2.483   5.355   3.978
 3403TIP3   OH210214   0.928   2.334   4.411
 3403TIP3    H110215   0.837   2.312   4.430
 3403TIP3    H210216   0.924   2.422   4.373
 3404TIP3   OH210217   4.306   1.335   3.739
 3404TIP3    H110218   4.367   1.262   3.732
 3404TIP3    H210219   4.292   1.364   3.649
 3405TIP3   OH210220   5.388   5.675   1.144
 3405TIP3    H110221   5.464   5.626   1.112
 3405TIP3    H210222   5.426   5.755   1.181
 3406TIP3   OH210223   5.584   5.242   0.794
 3406TIP3    H110224   5.539   5.191   0.727
 3406TIP3    H210225   5.672   5.256   0.759
 3407TIP3   OH210226   1.877   5.929   3.884
 3407TIP3    H110227   1.816   5.869   3.927
 3407TIP3    H210228   1.954   5.930   3.940
 3408TIP3   OH210229   2.665   3.505   1.789
 3408TIP3    H110230   2.580   3.470   1.760
 3408TIP3    H210231   2.664   3.495   1.884
 3409TIP3   OH210232   1.887   5.237   2.666
 3409TIP3    H110233   1.904   5.198   2.752
 3409TIP3    H210234   1.962   5.293   2.650
 3410TIP3   OH210235   5.329   4.209   1.185
 3410TIP3    H110236   5.341   4.177   1.095
 3410TIP3    H210237   5.383   4.152   1.238
 3411TIP3   OH210238   5.355   5.828   4.083
 3411TIP3    H110239   5.302   5.771   4.028
 3411TIP3    H210240   5.301   5.846   4.160
 3412TIP3   OH210241   6.272   3.689   2.142
 3412TIP3    H110242   6.254   3.595   2.129
 3412TIP3    H210243   6.190   3.732   2.120
 3413TIP3   OH210244   3.805   1.015   3.010
 3413TIP3    H110245   3.719   0.993   2.974
 3413TIP3    H210246   3.818   0.952   3.081
 3414TIP3   OH210247   5.988   5.400   4.849
 3414TIP3    H110248   5.942   5.417   4.767
 3414TIP3    H210249   6.043   5.478   4.863
 3415TIP3   OH210250   2.795   4.555   1.186
 3415TIP3    H110251   2.840   4.497   1.125
 3415TIP3    H210252   2.866   4.597   1.236
 3416TIP3   OH210253   0.862   1.037   2.190
 3416TIP3    H110254   0.841   1.130   2.189
 3416TIP3    H210255   0.837   1.008   2.278
 3417TIP3   OH210256   2.624   5.782   0.164
 3417TIP3    H110257   2.573   5.831   0.230
 3417TIP3    H210258   2.642   5.847   0.096
 3418TIP3   OH210259   4.786   3.428   3.895
 3418TIP3    H110260   4.829   3.441   3.980
 3418TIP3    H210261   4.769   3.334   3.890
 3419TIP3   OH210262   0.592   0.040   4.900
 3419TIP3    H110263   0.661   0.017   4.838
 3419TIP3    H210264   0.584   0.135   4.893
 3420TIP3   OH210265   5.576   3.335   0.273
 3420TIP3    H110266   5.516   3.388   0.220
 3420TIP3    H210267   5.660   3.381   0.266
 3421TIP3   OH210268   0.510   3.243   4.550
 3421TIP3    H110269   0.430   3.287   4.522
 3421TIP3    H210270   0.561   3.233   4.470
 3422TIP3   OH210271   3.976   2.497   4.967
 3422TIP3    H110272   4.032   2.456   5.033
 3422TIP3    H210273   3.937   2.572   5.012
 3423TIP3   OH210274   4.623   3.920   4.708
 3423TIP3    H110275   4.695   3.976   4.682
 3423TIP3    H210276   4.564   3.977   4.757
 3424TIP3   OH210277   6.051   4.778   0.305
 3424TIP3    H110278   6.022   4.857   0.351
 3424TIP3    H210279   5.970   4.732   0.284
 3425TIP3   OH210280   6.172   2.656   2.097
 3425TIP3    H110281   6.094   2.707   2.119
 3425TIP3    H210282   6.185   2.600   2.173
 3426TIP3   OH210283   6.048   0.810   4.420
 3426TIP3    H110284   5.955   0.830   4.418
 3426TIP3    H210285   6.053   0.716   4.407
 3427TIP3   OH210286   0.163   3.560   3.488
 3427TIP3    H110287   0.211   3.514   3.557
 3427TIP3    H210288   0.216   3.639   3.471
 3428TIP3   OH210289   5.157   2.220   2.885
 3428TIP3    H110290   5.114   2.173   2.956
 3428TIP3    H210291   5.088   2.272   2.845
 3429TIP3   OH210292   2.511   0.277   4.549
 3429TIP3    H110293   2.462   0.337   4.492
 3429TIP3    H210294   2.509   0.318   4.635
 3430TIP3   OH210295   1.957   1.955   1.373
 3430TIP3    H110296   2.017   1.921   1.306
 3430TIP3    H210297   1.875   1.969   1.327
 3431TIP3   OH210298   4.999   0.937   3.872
 3431TIP3    H110299   5.003   0.957   3.965
 3431TIP3    H210300   5.032   0.848   3.865
 3432TIP3   OH210301   0.805   1.789   1.737
 3432TIP3    H110302   0.892   1.763   1.767
 3432TIP3    H210303   0.747   1.721   1.772
 3433TIP3   OH210304   1.523   1.535   0.316
 3433TIP3    H110305   1.580   1.513   0.389
 3433TIP3    H210306   1.527   1.459   0.258
 3434TIP3   OH210307   5.049   1.145   0.870
 3434TIP3    H110308   5.064   1.062   0.827
 3434TIP3    H210309   4.958   1.167   0.849
 3435TIP3   OH210310   0.922   4.640   2.699
 3435TIP3    H110311   0.907   4.599   2.614
 3435TIP3    H210312   1.006   4.685   2.689
 3436TIP3   OH210313   0.632   0.262   3.181
 3436TIP3    H110314   0.671   0.284   3.266
 3436TIP3    H210315   0.663   0.173   3.163
 3437TIP3   OH210316   0.607   0.379   4.823
 3437TIP3    H110317   0.657   0.458   4.802
 3437TIP3    H210318   0.641   0.351   4.909
 3438TIP3   OH210319   0.525   5.415   2.398
 3438TIP3    H110320   0.504   5.508   2.401
 3438TIP3    H210321   0.581   5.400   2.474
 3439TIP3   OH210322   6.280   4.413   2.014
 3439TIP3    H110323   6.216   4.461   1.961
 3439TIP3    H210324   6.364   4.449   1.987
 3440TIP3   OH210325   5.531   1.935   0.077
 3440TIP3    H110326   5.575   2.020   0.084
 3440TIP3    H210327   5.482   1.927   0.159
 3441TIP3   OH210328   5.297   2.205   3.803
 3441TIP3    H110329   5.238   2.138   3.770
 3441TIP3    H210330   5.242   2.262   3.857
 3442TIP3   OH210331   2.959   4.340   2.042
 3442TIP3    H110332   2.896   4.277   2.008
 3442TIP3    H210333   3.005   4.373   1.965
 3443TIP3   OH210334   2.286   0.831   0.340
 3443TIP3    H110335   2.208   0.841   0.286
 3443TIP3    H210336   2.334   0.912   0.328
 3444TIP3   OH210337   5.604   3.924   3.651
 3444TIP3    H110338   5.580   3.999   3.597
 3444TIP3    H210339   5.698   3.912   3.635
 3445TIP3   OH210340   0.582   3.443   3.942
 3445TIP3    H110341   0.554   3.377   3.880
 3445TIP3    H210342   0.513   3.447   4.007
 3446TIP3   OH210343   0.254   5.871   3.877
 3446TIP3    H110344   0.233   5.964   3.873
 3446TIP3    H210345   0.345   5.866   3.845
 3447TIP3   OH210346   2.460   3.819   1.319
 3447TIP3    H110347   2.449   3.762   1.395
 3447TIP3    H210348   2.371   3.834   1.288
 3448TIP3   OH210349   5.540   5.793   2.122
 3448TIP3    H110350   5.516   5.823   2.034
 3448TIP3    H210351   5.484   5.716   2.137
 3449TIP3   OH210352   0.304   4.778   4.943
 3449TIP3    H110353   0.250   4.739   4.874
 3449TIP3    H210354   0.321   4.867   4.912
 3450TIP3   OH210355   2.212   4.318   4.001
 3450TIP3    H110356   2.271   4.382   3.961
 3450TIP3    H210357   2.157   4.287   3.929
 3451TIP3   OH210358   0.499   3.357   0.736
 3451TIP3    H110359   0.503   3.351   0.831
 3451TIP3    H210360   0.590   3.370   0.709
 3452TIP3   OH210361   1.532   1.791   1.827
 3452TIP3    H110362   1.549   1.775   1.734
 3452TIP3    H210363   1.578   1.872   1.847
 3453TIP3   OH210364   4.780   2.902   5.198
 3453TIP3    H110365   4.750   2.812   5.208
 3453TIP3    H210366   4.701   2.950   5.170
 3454TIP3   OH210367   1.223   5.746   1.703
 3454TIP3    H110368   1.271   5.679   1.752
 3454TIP3    H210369   1.131   5.719   1.709
 3455TIP3   OH210370   0.667   5.701   4.292
 3455TIP3    H110371   0.753   5.738   4.273
 3455TIP3    H210372   0.687   5.615   4.330
 3456TIP3   OH210373   3.284   5.055   4.674
 3456TIP3    H110374   3.375   5.035   4.694
 3456TIP3    H210375   3.289   5.113   4.598
 3457TIP3   OH210376   1.790   0.544   1.636
 3457TIP3    H110377   1.801   0.451   1.657
 3457TIP3    H210378   1.841   0.590   1.703
 3458TIP3   OH210379   5.588   4.005   4.012
 3458TIP3    H110380   5.522   4.048   3.957
 3458TIP3    H210381   5.568   3.912   4.004
 3459TIP3   OH210382   3.955   4.473   5.005
 3459TIP3    H110383   3.921   4.549   5.053
 3459TIP3    H210384   3.967   4.504   4.916
 3460TIP3   OH210385   0.090   0.654   4.823
 3460TIP3    H110386   0.115   0.714   4.893
 3460TIP3    H210387   0.015   0.606   4.858
 3461TIP3   OH210388   2.626   1.100   3.354
 3461TIP3    H110389   2.667   1.022   3.393
 3461TIP3    H210390   2.532   1.082   3.359
 3462TIP3   OH210391   5.488   0.472   4.010
 3462TIP3    H110392   5.536   0.530   4.069
 3462TIP3    H210393   5.403   0.514   3.999
 3463TIP3   OH210394   4.879   3.765   4.648
 3463TIP3    H110395   4.897   3.672   4.639
 3463TIP3    H210396   4.964   3.808   4.634
 3464TIP3   OH210397   2.163   2.385   3.662
 3464TIP3    H110398   2.141   2.419   3.749
 3464TIP3    H210399   2.147   2.458   3.603
 3465TIP3   OH210400   2.287   1.386   1.258
 3465TIP3    H110401   2.333   1.452   1.309
 3465TIP3    H210402   2.200   1.424   1.244
 3466TIP3   OH210403   4.610   5.459   3.909
 3466TIP3    H110404   4.593   5.499   3.995
 3466TIP3    H210405   4.607   5.532   3.848
 3467TIP3   OH210406   1.934   3.564   3.359
 3467TIP3    H110407   1.897   3.643   3.398
 3467TIP3    H210408   1.858   3.507   3.343
 3468TIP3   OH210409   4.902   0.408   2.606
 3468TIP3    H110410   4.990   0.442   2.590
 3468TIP3    H210411   4.893   0.410   2.702
 3469TIP3   OH210412   0.867   0.782   4.560
 3469TIP3    H110413   0.961   0.792   4.545
 3469TIP3    H210414   0.838   0.720   4.493
 3470TIP3   OH210415   5.548   2.075   4.727
 3470TIP3    H110416   5.498   2.015   4.670
 3470TIP3    H210417   5.501   2.073   4.810
 3471TIP3   OH210418   5.314   1.227   3.799
 3471TIP3    H110419   5.384   1.263   3.744
 3471TIP3    H210420   5.317   1.133   3.783
 3472TIP3   OH210421   3.747   4.383   3.267
 3472TIP3    H110422   3.661   4.387   3.225
 3472TIP3    H210423   3.808   4.366   3.195
 3473TIP3   OH210424   5.593   4.100   2.098
 3473TIP3    H110425   5.662   4.144   2.148
 3473TIP3    H210426   5.536   4.171   2.068
 3474TIP3   OH210427   3.071   3.421   1.141
 3474TIP3    H110428   3.103   3.340   1.179
 3474TIP3    H210429   3.007   3.453   1.205
 3475TIP3   OH210430   0.729   2.258   0.603
 3475TIP3    H110431   0.682   2.318   0.545
 3475TIP3    H210432   0.812   2.243   0.559
 3476TIP3   OH210433   5.846   1.298   3.468
 3476TIP3    H110434   5.894   1.265   3.392
 3476TIP3    H210435   5.755   1.302   3.440
 3477TIP3   OH210436   3.280   5.148   4.409
 3477TIP3    H110437   3.262   5.188   4.323
 3477TIP3    H210438   3.213   5.080   4.417
 3478TIP3   OH210439   2.752   4.230   4.465
 3478TIP3    H110440   2.699   4.299   4.506
 3478TIP3    H210441   2.765   4.259   4.375
 3479TIP3   OH210442   4.849   0.025  -0.006
 3479TIP3    H110443   4.892   0.063   0.071
 3479TIP3    H210444   4.770   0.078  -0.018
 3480TIP3   OH210445   5.056   3.700   3.658
 3480TIP3    H110446   4.961   3.693   3.668
 3480TIP3    H210447   5.076   3.641   3.586
 3481TIP3   OH210448   5.676   0.195   3.622
 3481TIP3    H110449   5.606   0.255   3.651
 3481TIP3    H210450   5.695   0.143   3.700
 3482TIP3   OH210451   3.491   2.845   5.046
 3482TIP3    H110452   3.533   2.841   4.960
 3482TIP3    H210453   3.407   2.888   5.030
 3483TIP3   OH210454   2.047   1.108   3.876
 3483TIP3    H110455   2.049   1.076   3.786
 3483TIP3    H210456   1.974   1.171   3.878
 3484TIP3   OH210457   0.906   2.158   4.804
 3484TIP3    H110458   0.957   2.217   4.748
 3484TIP3    H210459   0.929   2.071   4.774
 3485TIP3   OH210460   0.910   1.579   3.080
 3485TIP3    H110461   0.987   1.627   3.051
 3485TIP3    H210462   0.859   1.565   3.000
 3486TIP3   OH210463   1.804   3.867   4.467
 3486TIP3    H110464   1.868   3.900   4.529
 3486TIP3    H210465   1.829   3.775   4.453
 3487TIP3   OH210466   2.575   4.052   1.899
 3487TIP3    H110467   2.502   4.080   1.954
 3487TIP3    H210468   2.544   3.971   1.859
 3488TIP3   OH210469   4.180   0.300   1.752
 3488TIP3    H110470   4.254   0.360   1.763
 3488TIP3    H210471   4.103   0.357   1.749
 3489TIP3   OH210472   0.951   4.904   3.238
 3489TIP3    H110473   0.988   4.991   3.223
 3489TIP3    H210474   1.019   4.857   3.287
 3490TIP3   OH210475   0.440   3.311   1.964
 3490TIP3    H110476   0.406   3.296   1.875
 3490TIP3    H210477   0.519   3.258   1.968
 3491TIP3   OH210478   5.583   4.662   4.927
 3491TIP3    H110479   5.514   4.659   4.861
 3491TIP3    H210480   5.634   4.582   4.912
 3492TIP3   OH210481   3.499   2.810   0.044
 3492TIP3    H110482   3.403   2.813   0.042
 3492TIP3    H210483   3.522   2.856   0.125
 3493TIP3   OH210484   1.496   4.856   3.302
 3493TIP3    H110485   1.455   4.805   3.372
 3493TIP3    H210486   1.468   4.814   3.221
 3494TIP3   OH210487   3.837   1.461   2.080
 3494TIP3    H110488   3.749   1.428   2.097
 3494TIP3    H210489   3.887   1.437   2.157
 3495TIP3   OH210490   3.374   2.892   2.888
 3495TIP3    H110491   3.466   2.917   2.877
 3495TIP3    H210492   3.357   2.830   2.817
 3496TIP3   OH210493   4.189   3.751   1.896
 3496TIP3    H110494   4.143   3.727   1.976
 3496TIP3    H210495   4.186   3.671   1.842
 3497TIP3   OH210496   3.982   1.102   0.682
 3497TIP3    H110497   4.014   1.151   0.758
 3497TIP3    H210498   3.898   1.144   0.661
 3498TIP3   OH210499   2.394   2.092   2.986
 3498TIP3    H110500   2.402   2.055   2.898
 3498TIP3    H210501   2.303   2.122   2.991
 3499TIP3   OH210502   2.615   3.773   2.682
 3499TIP3    H110503   2.554   3.711   2.722
 3499TIP3    H210504   2.675   3.719   2.631
 3500TIP3   OH210505   1.601   0.898   4.983
 3500TIP3    H110506   1.622   0.905   4.889
 3500TIP3    H210507   1.670   0.843   5.019
 3501TIP3   OH210508   2.222   1.697   4.674
 3501TIP3    H110509   2.148   1.709   4.615
 3501TIP3    H210510   2.212   1.765   4.740
 3502TIP3   OH210511   0.549   5.587   2.815
 3502TIP3    H110512   0.582   5.677   2.813
 3502TIP3    H210513   0.602   5.541   2.751
 3503TIP3   OH210514   6.304   0.970   1.473
 3503TIP3    H110515   6.293   0.924   1.556
 3503TIP3    H210516   6.319   1.061   1.498
 3504TIP3   OH210517   1.685   3.940   2.109
 3504TIP3    H110518   1.739   3.922   2.031
 3504TIP3    H210519   1.709   4.029   2.134
 3505TIP3   OH210520   3.729   4.962   0.028
 3505TIP3    H110521   3.685   4.899  -0.028
 3505TIP3    H210522   3.659   5.000   0.082
 3506TIP3   OH210523   6.076   5.100   3.979
 3506TIP3    H110524   6.120   5.158   4.041
 3506TIP3    H210525   6.145   5.071   3.919
 3507TIP3   OH210526   5.792   2.501   0.663
 3507TIP3    H110527   5.716   2.495   0.605
 3507TIP3    H210528   5.838   2.580   0.634
 3508TIP3   OH210529   5.691   2.499   2.931
 3508TIP3    H110530   5.611   2.470   2.888
 3508TIP3    H210531   5.684   2.463   3.020
 3509TIP3   OH210532   4.065   2.748   4.579
 3509TIP3    H110533   4.034   2.793   4.501
 3509TIP3    H210534   4.160   2.740   4.566
 3510TIP3   OH210535   1.275   3.008   2.431
 3510TIP3    H110536   1.236   2.934   2.385
 3510TIP3    H210537   1.230   3.085   2.394
 3511TIP3   OH210538   4.196   1.992   4.450
 3511TIP3    H110539   4.113   2.031   4.425
 3511TIP3    H210540   4.225   2.043   4.526
 3512TIP3   OH210541   4.074   2.192   0.939
 3512TIP3    H110542   4.022   2.112   0.933
 3512TIP3    H210543   4.011   2.261   0.959
 3513TIP3   OH210544   4.957   2.016   3.919
 3513TIP3    H110545   4.919   1.967   3.846
 3513TIP3    H210546   4.922   2.104   3.910
 3514TIP3   OH210547   4.554   0.527   2.376
 3514TIP3    H110548   4.465   0.533   2.412
 3514TIP3    H210549   4.587   0.443   2.409
 3515TIP3   OH210550   0.213   1.955   3.782
 3515TIP3    H110551   0.183   1.912   3.702
 3515TIP3    H210552   0.235   1.883   3.841
 3516TIP3   OH210553   4.655   3.458   4.328
 3516TIP3    H110554   4.569   3.462   4.370
 3516TIP3    H210555   4.713   3.422   4.395
 3517TIP3   OH210556   1.951   2.938   4.736
 3517TIP3    H110557   2.027   2.994   4.719
 3517TIP3    H210558   1.898   2.945   4.657
 3518TIP3   OH210559   3.345   3.261   4.825
 3518TIP3    H110560   3.327   3.225   4.912
 3518TIP3    H210561   3.342   3.186   4.766
 3519TIP3   OH210562   2.688   4.938   3.430
 3519TIP3    H110563   2.622   4.893   3.483
 3519TIP3    H210564   2.684   4.895   3.345
 3520TIP3   OH210565   6.197   4.967   0.561
 3520TIP3    H110566   6.288   4.958   0.534
 3520TIP3    H210567   6.157   5.020   0.492
 3521TIP3   OH210568   5.163   4.568   0.616
 3521TIP3    H110569   5.227   4.632   0.648
 3521TIP3    H210570   5.173   4.493   0.674
 3522TIP3   OH210571   0.651   4.897   3.879
 3522TIP3    H110572   0.745   4.890   3.897
 3522TIP3    H210573   0.637   4.844   3.801
 3523TIP3   OH210574   2.628   1.736   1.844
 3523TIP3    H110575   2.695   1.749   1.910
 3523TIP3    H210576   2.676   1.730   1.761
 3524TIP3   OH210577   1.353   4.671   4.022
 3524TIP3    H110578   1.385   4.592   3.979
 3524TIP3    H210579   1.393   4.669   4.109
 3525TIP3   OH210580   6.077   0.227   0.183
 3525TIP3    H110581   6.091   0.148   0.236
 3525TIP3    H210582   6.010   0.275   0.230
 3526TIP3   OH210583   2.039   1.463   2.682
 3526TIP3    H110584   1.965   1.423   2.729
 3526TIP3    H210585   2.106   1.474   2.748
 3527TIP3   OH210586   2.758   3.904   4.273
 3527TIP3    H110587   2.844   3.946   4.264
 3527TIP3    H210588   2.776   3.811   4.278
 3528TIP3   OH210589   4.020   1.273   1.579
 3528TIP3    H110590   3.958   1.202   1.594
 3528TIP3    H210591   3.980   1.325   1.510
 3529TIP3   OH210592   5.426   4.301   4.905
 3529TIP3    H110593   5.343   4.325   4.864
 3529TIP3    H210594   5.417   4.330   4.996
 3530TIP3   OH210595   3.857   2.800   3.380
 3530TIP3    H110596   3.863   2.731   3.446
 3530TIP3    H210597   3.764   2.807   3.360
 3531TIP3   OH210598   3.802   5.259   2.893
 3531TIP3    H110599   3.845   5.335   2.932
 3531TIP3    H210600   3.796   5.196   2.964
 3532TIP3   OH210601   4.204   0.537   4.838
 3532TIP3    H110602   4.134   0.471   4.837
 3532TIP3    H210603   4.186   0.589   4.916
 3533TIP3   OH210604   3.839   2.742   1.215
 3533TIP3    H110605   3.925   2.760   1.177
 3533TIP3    H210606   3.823   2.650   1.196
 3534TIP3   OH210607   4.132   0.195   0.668
 3534TIP3    H110608   4.141   0.217   0.576
 3534TIP3    H210609   4.204   0.242   0.711
 3535TIP3   OH210610   0.871   4.274   4.969
 3535TIP3    H110611   0.819   4.283   5.048
 3535TIP3    H210612   0.834   4.337   4.908
 3536TIP3   OH210613   6.197   4.995   2.404
 3536TIP3    H110614   6.189   4.900   2.413
 3536TIP3    H210615   6.206   5.010   2.310
 3537TIP3   OH210616   0.535   5.984   3.887
 3537TIP3    H110617   0.506   5.976   3.978
 3537TIP3    H210618   0.549   6.078   3.875
 3538TIP3   OH210619   5.967   1.658   5.010
 3538TIP3    H110620   6.059   1.645   4.987
 3538TIP3    H210621   5.966   1.743   5.054
 3539TIP3   OH210622   3.784   4.307   4.638
 3539TIP3    H110623   3.738   4.231   4.601
 3539TIP3    H210624   3.716   4.356   4.684
 3540TIP3   OH210625   0.659   2.527   1.977
 3540TIP3    H110626   0.713   2.580   2.035
 3540TIP3    H210627   0.721   2.476   1.925
 3541TIP3   OH210628   0.967   1.335   1.362
 3541TIP3    H110629   1.027   1.288   1.420
 3541TIP3    H210630   1.011   1.417   1.343
 3542TIP3   OH210631   2.315   1.473   4.366
 3542TIP3    H110632   2.366   1.395   4.344
 3542TIP3    H210633   2.235   1.440   4.405
 3543TIP3   OH210634   5.065   5.944   2.785
 3543TIP3    H110635   5.123   5.962   2.859
 3543TIP3    H210636   5.022   6.027   2.767
 3544TIP3   OH210637   5.740   1.651   4.572
 3544TIP3    H110638   5.723   1.614   4.485
 3544TIP3    H210639   5.655   1.649   4.616
 3545TIP3   OH210640   1.937   1.172   1.423
 3545TIP3    H110641   1.973   1.202   1.339
 3545TIP3    H210642   1.908   1.252   1.466
 3546TIP3   OH210643   0.589   5.442   4.015
 3546TIP3    H110644   0.510   5.495   4.003
 3546TIP3    H210645   0.660   5.505   4.023
 3547TIP3   OH210646   3.647   5.270   0.466
 3547TIP3    H110647   3.564   5.312   0.489
 3547TIP3    H210648   3.701   5.280   0.544
 3548TIP3   OH210649   5.549   3.032   4.125
 3548TIP3    H110650   5.535   3.073   4.210
 3548TIP3    H210651   5.575   2.942   4.145
 3549TIP3   OH210652   1.973   4.738   0.605
 3549TIP3    H110653   2.015   4.824   0.600
 3549TIP3    H210654   1.978   4.705   0.515
 3550TIP3   OH210655   4.659   4.696   2.102
 3550TIP3    H110656   4.643   4.631   2.034
 3550TIP3    H210657   4.605   4.771   2.077
 3551TIP3   OH210658   0.070   4.510   0.027
 3551TIP3    H110659   0.124   4.563   0.086
 3551TIP3    H210660  -0.019   4.543   0.040
 3552TIP3   OH210661   3.128   4.978   1.018
 3552TIP3    H110662   3.190   4.993   1.089
 3552TIP3    H210663   3.059   4.925   1.058
 3553TIP3   OH210664   1.158   2.805   2.276
 3553TIP3    H110665   1.103   2.765   2.343
 3553TIP3    H210666   1.203   2.732   2.234
 3554TIP3   OH210667   4.289   1.875   5.182
 3554TIP3    H110668   4.206   1.907   5.218
 3554TIP3    H210669   4.264   1.829   5.102
 3555TIP3   OH210670   0.409   2.032   1.133
 3555TIP3    H110671   0.373   2.061   1.217
 3555TIP3    H210672   0.356   2.077   1.067
 3556TIP3   OH210673   0.531   2.104   4.977
 3556TIP3    H110674   0.613   2.150   4.997
 3556TIP3    H210675   0.467   2.174   4.963
 3557TIP3   OH210676   3.603   5.000   0.754
 3557TIP3    H110677   3.540   5.009   0.683
 3557TIP3    H210678   3.684   4.972   0.711
 3558TIP3   OH210679   4.499   1.162   3.760
 3558TIP3    H110680   4.580   1.175   3.809
 3558TIP3    H210681   4.527   1.140   3.672
 3559TIP3   OH210682   0.266   0.597   2.878
 3559TIP3    H110683   0.358   0.614   2.857
 3559TIP3    H210684   0.252   0.644   2.960
 3560TIP3   OH210685   0.086   4.236   0.094
 3560TIP3    H110686   0.069   4.329   0.075
 3560TIP3    H210687   0.180   4.231   0.109
 3561TIP3   OH210688   4.805   4.411   4.548
 3561TIP3    H110689   4.803   4.342   4.482
 3561TIP3    H210690   4.844   4.370   4.625
 3562TIP3   OH210691   0.815   2.490   3.340
 3562TIP3    H110692   0.729   2.513   3.374
 3562TIP3    H210693   0.876   2.534   3.400
 3563TIP3   OH210694   4.103   5.611   2.299
 3563TIP3    H110695   4.144   5.677   2.354
 3563TIP3    H210696   4.175   5.575   2.246
 3564TIP3   OH210697   2.663   3.458   2.060
 3564TIP3    H110698   2.644   3.512   2.137
 3564TIP3    H210699   2.661   3.368   2.093
 3565TIP3   OH210700   0.445   4.733   3.399
 3565TIP3    H110701   0.540   4.745   3.396
 3565TIP3    H210702   0.433   4.639   3.408
 3566TIP3   OH210703   0.528   0.651   1.276
 3566TIP3    H110704   0.605   0.594   1.276
 3566TIP3    H210705   0.486   0.636   1.192
 3567TIP3   OH210706   0.629   3.204   4.797
 3567TIP3    H110707   0.559   3.251   4.842
 3567TIP3    H210708   0.591   3.180   4.712
 3568TIP3   OH210709   5.903   0.117   4.542
 3568TIP3    H110710   5.960   0.043   4.563
 3568TIP3    H210711   5.872   0.149   4.627
 3569TIP3   OH210712   1.368   1.361   3.943
 3569TIP3    H110713   1.320   1.391   3.866
 3569TIP3    H210714   1.308   1.376   4.017
 3570TIP3   OH210715   5.373   4.901   1.629
 3570TIP3    H110716   5.443   4.960   1.657
 3570TIP3    H210717   5.405   4.813   1.648
 3571TIP3   OH210718   4.328   4.721   3.211
 3571TIP3    H110719   4.250   4.724   3.265
 3571TIP3    H210720   4.310   4.654   3.145
 3572TIP3   OH210721   2.202   3.191   0.029
 3572TIP3    H110722   2.164   3.121  -0.024
 3572TIP3    H210723   2.273   3.149   0.078
 3573TIP3   OH210724   0.578   1.088   0.336
 3573TIP3    H110725   0.547   1.160   0.280
 3573TIP3    H210726   0.543   1.108   0.422
 3574TIP3   OH210727   4.057   3.012   0.703
 3574TIP3    H110728   4.074   2.920   0.686
 3574TIP3    H210729   3.976   3.012   0.754
 3575TIP3   OH210730   4.542   3.847   3.138
 3575TIP3    H110731   4.610   3.911   3.161
 3575TIP3    H210732   4.499   3.827   3.221
 3576TIP3   OH210733   2.348   1.719   2.743
 3576TIP3    H110734   2.365   1.625   2.734
 3576TIP3    H210735   2.428   1.754   2.782
 3577TIP3   OH210736   1.418   0.183   1.962
 3577TIP3    H110737   1.466   0.175   1.880
 3577TIP3    H210738   1.355   0.110   1.960
 3578TIP3   OH210739   5.458   0.797   3.254
 3578TIP3    H110740   5.489   0.888   3.259
 3578TIP3    H210741   5.457   0.777   3.161
 3579TIP3   OH210742   6.127   5.993   2.597
 3579TIP3    H110743   6.037   6.018   2.574
 3579TIP3    H210744   6.160   5.948   2.519
 3580TIP3   OH210745   5.567   4.206   0.482
 3580TIP3    H110746   5.571   4.255   0.564
 3580TIP3    H210747   5.602   4.119   0.504
 3581TIP3   OH210748   1.666   3.880   1.809
 3581TIP3    H110749   1.584   3.831   1.806
 3581TIP3    H210750   1.730   3.820   1.769
 3582TIP3   OH210751   1.291   5.898   0.502
 3582TIP3    H110752   1.230   5.927   0.569
 3582TIP3    H210753   1.288   5.967   0.435
 3583TIP3   OH210754   1.604   1.833   1.460
 3583TIP3    H110755   1.623   1.926   1.473
 3583TIP3    H210756   1.509   1.827   1.471
 3584TIP3   OH210757   1.904   2.106   4.969
 3584TIP3    H110758   1.890   2.014   4.993
 3584TIP3    H210759   1.945   2.145   5.047
 3585TIP3   OH210760   5.141   5.610   2.860
 3585TIP3    H110761   5.123   5.537   2.919
 3585TIP3    H210762   5.155   5.685   2.919
 3586TIP3   OH210763   4.087   2.017   3.848
 3586TIP3    H110764   4.030   1.941   3.851
 3586TIP3    H210765   4.036   2.084   3.801
 3587TIP3   OH210766   0.804   2.867   1.950
 3587TIP3    H110767   0.825   2.899   2.038
 3587TIP3    H210768   0.710   2.883   1.940
 3588TIP3   OH210769   5.030   2.718   0.720
 3588TIP3    H110770   5.020   2.637   0.670
 3588TIP3    H210771   5.124   2.736   0.717
 3589TIP3   OH210772   1.373   1.728   4.348
 3589TIP3    H110773   1.392   1.634   4.347
 3589TIP3    H210774   1.412   1.760   4.430
 3590TIP3   OH210775   5.239   0.716   3.790
 3590TIP3    H110776   5.228   0.685   3.880
 3590TIP3    H210777   5.310   0.663   3.755
 3591TIP3   OH210778   1.607   2.408   4.448
 3591TIP3    H110779   1.693   2.418   4.488
 3591TIP3    H210780   1.623   2.358   4.367
 3592TIP3   OH210781   0.222   0.402   4.781
 3592TIP3    H110782   0.294   0.406   4.844
 3592TIP3    H210783   0.185   0.490   4.783
 3593TIP3   OH210784   5.592   1.337   2.939
 3593TIP3    H110785   5.572   1.389   2.862
 3593TIP3    H210786   5.536   1.259   2.931
 3594TIP3   OH210787   1.979   4.631   2.645
 3594TIP3    H110788   1.906   4.665   2.697
 3594TIP3    H210789   2.052   4.626   2.707
 3595TIP3   OH210790   5.099   5.782   1.728
 3595TIP3    H110791   5.046   5.802   1.651
 3595TIP3    H210792   5.063   5.838   1.797
 3596TIP3   OH210793   4.584   4.149   5.028
 3596TIP3    H110794   4.548   4.061   5.022
 3596TIP3    H210795   4.634   4.150   5.110
 3597TIP3   OH210796   0.621   1.106   3.563
 3597TIP3    H110797   0.533   1.096   3.525
 3597TIP3    H210798   0.632   1.201   3.572
 3598TIP3   OH210799   4.547   0.152   1.785
 3598TIP3    H110800   4.530   0.228   1.729
 3598TIP3    H210801   4.461   0.113   1.801
 3599TIP3   OH210802   0.886   5.815   3.383
 3599TIP3    H110803   0.875   5.910   3.376
 3599TIP3    H210804   0.799   5.779   3.364
 3600TIP3   OH210805   5.951   5.231   4.596
 3600TIP3    H110806   5.941   5.208   4.504
 3600TIP3    H210807   6.001   5.313   4.596
 3601TIP3   OH210808   6.232   2.102   2.230
 3601TIP3    H110809   6.315   2.145   2.208
 3601TIP3    H210810   6.244   2.011   2.204
 3602TIP3   OH210811   1.257   3.035   5.123
 3602TIP3    H110812   1.337   3.071   5.084
 3602TIP3    H210813   1.288   2.982   5.197
 3603TIP3   OH210814   3.390   4.517   2.699
 3603TIP3    H110815   3.455   4.452   2.672
 3603TIP3    H210816   3.351   4.480   2.778
 3604TIP3   OH210817   0.729   1.867   2.890
 3604TIP3    H110818   0.693   1.871   2.802
 3604TIP3    H210819   0.682   1.795   2.932
 3605TIP3   OH210820   2.050   3.659   2.055
 3605TIP3    H110821   2.060   3.589   1.991
 3605TIP3    H210822   2.037   3.738   2.003
 3606TIP3   OH210823   3.656   2.458   5.158
 3606TIP3    H110824   3.585   2.506   5.201
 3606TIP3    H210825   3.735   2.509   5.177
 3607TIP3   OH210826   3.157   3.974   2.196
 3607TIP3    H110827   3.174   4.064   2.223
 3607TIP3    H210828   3.238   3.945   2.154
 3608TIP3   OH210829   5.052   5.446   4.095
 3608TIP3    H110830   5.130   5.400   4.126
 3608TIP3    H210831   5.085   5.527   4.057
 3609TIP3   OH210832   2.822   5.596   3.135
 3609TIP3    H110833   2.893   5.532   3.130
 3609TIP3    H210834   2.784   5.582   3.221
 3610TIP3   OH210835   2.887   3.317   2.527
 3610TIP3    H110836   2.833   3.247   2.490
 3610TIP3    H210837   2.974   3.302   2.491
 3611TIP3   OH210838   2.923   4.809   1.343
 3611TIP3    H110839   2.996   4.870   1.354
 3611TIP3    H210840   2.872   4.817   1.424
 3612TIP3   OH210841   3.329   4.769   2.666
 3612TIP3    H110842   3.304   4.785   2.756
 3612TIP3    H210843   3.348   4.675   2.662
 3613TIP3   OH210844   3.550   1.589   1.040
 3613TIP3    H110845   3.581   1.643   1.113
 3613TIP3    H210846   3.579   1.500   1.062
 3614TIP3   OH210847   1.117   2.493   0.710
 3614TIP3    H110848   1.155   2.538   0.634
 3614TIP3    H210849   1.029   2.530   0.719
 3615TIP3   OH210850   5.624   5.212   3.795
 3615TIP3    H110851   5.683   5.168   3.734
 3615TIP3    H210852   5.538   5.206   3.753
 3616TIP3   OH210853   6.172   1.364   4.065
 3616TIP3    H110854   6.129   1.366   3.980
 3616TIP3    H210855   6.172   1.456   4.094
 3617TIP3   OH210856   5.311   5.906   2.324
 3617TIP3    H110857   5.261   5.941   2.250
 3617TIP3    H210858   5.310   5.811   2.311
 3618TIP3   OH210859   1.149   4.195   3.401
 3618TIP3    H110860   1.150   4.290   3.393
 3618TIP3    H210861   1.058   4.171   3.385
 3619TIP3   OH210862   3.851   5.659   2.216
 3619TIP3    H110863   3.834   5.586   2.157
 3619TIP3    H210864   3.939   5.642   2.250
 3620TIP3   OH210865   1.893   4.119   1.959
 3620TIP3    H110866   1.824   4.159   1.907
 3620TIP3    H210867   1.941   4.193   1.997
 3621TIP3   OH210868   6.145   3.305   3.464
 3621TIP3    H110869   6.069   3.251   3.441
 3621TIP3    H210870   6.107   3.387   3.495
 3622TIP3   OH210871   0.117   4.881   3.220
 3622TIP3    H110872   0.116   4.878   3.125
 3622TIP3    H210873   0.043   4.937   3.243
 3623TIP3   OH210874   2.528   1.482   1.880
 3623TIP3    H110875   2.580   1.549   1.835
 3623TIP3    H210876   2.518   1.515   1.969
 3624TIP3   OH210877   2.308   3.337   0.755
 3624TIP3    H110878   2.273   3.370   0.672
 3624TIP3    H210879   2.391   3.385   0.766
 3625TIP3   OH210880   3.887   2.474   4.086
 3625TIP3    H110881   3.826   2.548   4.086
 3625TIP3    H210882   3.972   2.513   4.108
 3626TIP3   OH210883   3.273   0.209   3.579
 3626TIP3    H110884   3.267   0.150   3.504
 3626TIP3    H210885   3.367   0.220   3.593
 3627TIP3   OH210886   0.374   0.838   5.160
 3627TIP3    H110887   0.364   0.744   5.145
 3627TIP3    H210888   0.420   0.870   5.082
 3628TIP3   OH210889   1.146   1.811   1.091
 3628TIP3    H110890   1.186   1.870   1.156
 3628TIP3    H210891   1.056   1.842   1.083
 3629TIP3   OH210892   5.272   1.294   1.819
 3629TIP3    H110893   5.226   1.286   1.903
 3629TIP3    H210894   5.351   1.241   1.830
 3630TIP3   OH210895   3.540   2.655   2.345
 3630TIP3    H110896   3.478   2.623   2.411
 3630TIP3    H210897   3.626   2.634   2.381
 3631TIP3   OH210898   2.402   4.448   0.445
 3631TIP3    H110899   2.496   4.430   0.433
 3631TIP3    H210900   2.358   4.380   0.395
 3632TIP3   OH210901   2.132   3.803   1.579
 3632TIP3    H110902   2.184   3.879   1.604
 3632TIP3    H210903   2.167   3.731   1.632
 3633TIP3   OH210904   4.968   4.886   1.334
 3633TIP3    H110905   4.998   4.862   1.421
 3633TIP3    H210906   4.984   4.809   1.280
 3634TIP3   OH210907   1.221   5.001   4.107
 3634TIP3    H110908   1.193   5.091   4.121
 3634TIP3    H210909   1.167   4.949   4.166
 3635TIP3   OH210910   4.409   1.262   4.433
 3635TIP3    H110911   4.479   1.312   4.391
 3635TIP3    H210912   4.341   1.326   4.452
 3636TIP3   OH210913   4.472   1.266   1.730
 3636TIP3    H110914   4.518   1.350   1.723
 3636TIP3    H210915   4.471   1.232   1.641
 3637TIP3   OH210916   6.030   3.776   3.497
 3637TIP3    H110917   6.071   3.689   3.503
 3637TIP3    H210918   6.057   3.809   3.411
 3638TIP3   OH210919   1.413   2.352   3.121
 3638TIP3    H110920   1.502   2.358   3.086
 3638TIP3    H210921   1.357   2.361   3.044
 3639TIP3   OH210922   0.940   5.698   1.716
 3639TIP3    H110923   0.913   5.697   1.624
 3639TIP3    H210924   0.895   5.773   1.754
 3640TIP3   OH210925   3.570   3.431   1.249
 3640TIP3    H110926   3.552   3.358   1.189
 3640TIP3    H210927   3.584   3.506   1.191
 3641TIP3   OH210928   1.947   2.909   1.655
 3641TIP3    H110929   1.856   2.929   1.679
 3641TIP3    H210930   1.969   2.831   1.707
 3642TIP3   OH210931   5.774   3.190   4.900
 3642TIP3    H110932   5.784   3.277   4.861
 3642TIP3    H210933   5.863   3.159   4.913
 3643TIP3   OH210934   0.177   2.462   3.644
 3643TIP3    H110935   0.165   2.409   3.566
 3643TIP3    H210936   0.254   2.425   3.687
 3644TIP3   OH210937   3.484   5.269   2.449
 3644TIP3    H110938   3.511   5.263   2.540
 3644TIP3    H210939   3.409   5.328   2.449
 3645TIP3   OH210940   4.532   0.605   2.924
 3645TIP3    H110941   4.523   0.527   2.869
 3645TIP3    H210942   4.450   0.609   2.973
 3646TIP3   OH210943   0.020   3.075   4.278
 3646TIP3    H110944  -0.045   3.144   4.280
 3646TIP3    H210945  -0.024   2.998   4.315
 3647TIP3   OH210946   2.807   4.688   4.021
 3647TIP3    H110947   2.793   4.629   4.095
 3647TIP3    H210948   2.887   4.655   3.979
 3648TIP3   OH210949   1.388   4.596   2.579
 3648TIP3    H110950   1.403   4.611   2.486
 3648TIP3    H210951   1.301   4.630   2.596
 3649TIP3   OH210952   0.144   0.445   3.234
 3649TIP3    H110953   0.193   0.397   3.167
 3649TIP3    H210954   0.060   0.400   3.239
 3650TIP3   OH210955   4.692   3.311   0.682
 3650TIP3    H110956   4.640   3.295   0.761
 3650TIP3    H210957   4.629   3.315   0.611
 3651TIP3   OH210958   2.697   4.390   2.427
 3651TIP3    H110959   2.681   4.453   2.357
 3651TIP3    H210960   2.779   4.419   2.466
 3652TIP3   OH210961   5.185   0.850   3.329
 3652TIP3    H110962   5.168   0.847   3.424
 3652TIP3    H210963   5.278   0.833   3.321
 3653TIP3   OH210964   1.093   1.456   0.263
 3653TIP3    H110965   1.118   1.372   0.301
 3653TIP3    H210966   1.038   1.498   0.329
 3654TIP3   OH210967   0.342   5.786   2.070
 3654TIP3    H110968   0.403   5.835   2.125
 3654TIP3    H210969   0.256   5.806   2.106
 3655TIP3   OH210970   1.470   3.095   1.961
 3655TIP3    H110971   1.482   3.005   1.931
 3655TIP3    H210972   1.416   3.136   1.894
 3656TIP3   OH210973   2.829   3.504   4.896
 3656TIP3    H110974   2.810   3.440   4.827
 3656TIP3    H210975   2.814   3.456   4.977
 3657TIP3   OH210976   4.058   0.331   2.305
 3657TIP3    H110977   4.040   0.255   2.361
 3657TIP3    H210978   3.982   0.335   2.246
 3658TIP3   OH210979   0.165   0.187   1.332
 3658TIP3    H110980   0.164   0.137   1.250
 3658TIP3    H210981   0.073   0.193   1.358
 3659TIP3   OH210982   1.902   2.022   4.453
 3659TIP3    H110983   1.889   2.063   4.538
 3659TIP3    H210984   1.896   2.094   4.390
 3660TIP3   OH210985   3.517   1.689   1.836
 3660TIP3    H110986   3.502   1.762   1.896
 3660TIP3    H210987   3.451   1.624   1.859
 3661TIP3   OH210988   2.620   3.809   3.531
 3661TIP3    H110989   2.705   3.772   3.558
 3661TIP3    H210990   2.625   3.813   3.435
 3662TIP3   OH210991   3.899   5.241   3.975
 3662TIP3    H110992   3.810   5.246   3.941
 3662TIP3    H210993   3.892   5.189   4.055
 3663TIP3   OH210994   3.199   2.414   5.142
 3663TIP3    H110995   3.229   2.360   5.215
 3663TIP3    H210996   3.111   2.382   5.123
 3664TIP3   OH210997   0.098   2.562   4.300
 3664TIP3    H110998   0.091   2.477   4.343
 3664TIP3    H210999   0.179   2.600   4.336
 3665TIP3   OH211000   5.360   5.453   3.928
 3665TIP3    H111001   5.327   5.541   3.916
 3665TIP3    H211002   5.435   5.464   3.987
 3666TIP3   OH211003   0.908   4.450   2.073
 3666TIP3    H111004   0.872   4.427   1.987
 3666TIP3    H211005   0.892   4.544   2.081
 3667TIP3   OH211006   2.198   2.500   0.461
 3667TIP3    H111007   2.168   2.483   0.550
 3667TIP3    H211008   2.278   2.447   0.452
 3668TIP3   OH211009   2.269   5.546   4.726
 3668TIP3    H111010   2.244   5.459   4.695
 3668TIP3    H211011   2.214   5.606   4.676
 3669TIP3   OH211012   2.670   4.494   0.038
 3669TIP3    H111013   2.597   4.527   0.090
 3669TIP3    H211014   2.734   4.465   0.103
 3670TIP3   OH211015   0.040   5.555   4.206
 3670TIP3    H111016   0.076   5.466   4.199
 3670TIP3    H211017   0.083   5.604   4.137
 3671TIP3   OH211018   5.585   5.036   1.708
 3671TIP3    H111019   5.596   5.020   1.802
 3671TIP3    H211020   5.672   5.020   1.671
 3672TIP3   OH211021   3.227   2.085   0.445
 3672TIP3    H111022   3.292   2.142   0.404
 3672TIP3    H211023   3.232   2.105   0.538
 3673TIP3   OH211024   5.748   3.590   3.542
 3673TIP3    H111025   5.711   3.509   3.578
 3673TIP3    H211026   5.826   3.606   3.594
 3674TIP3   OH211027   5.248   3.468   2.526
 3674TIP3    H111028   5.210   3.458   2.439
 3674TIP3    H211029   5.175   3.493   2.581
 3675TIP3   OH211030   0.955   1.713   4.426
 3675TIP3    H111031   0.875   1.764   4.435
 3675TIP3    H211032   1.012   1.745   4.496
 3676TIP3   OH211033   6.233   5.820   2.009
 3676TIP3    H111034   6.161   5.777   2.056
 3676TIP3    H211035   6.273   5.750   1.958
 3677TIP3   OH211036   1.628   2.265   0.775
 3677TIP3    H111037   1.543   2.233   0.745
 3677TIP3    H211038   1.651   2.208   0.848
 3678TIP3   OH211039   0.783   4.570   1.102
 3678TIP3    H111040   0.812   4.583   1.192
 3678TIP3    H211041   0.834   4.633   1.051
 3679TIP3   OH211042   5.074   5.494   3.336
 3679TIP3    H111043   5.086   5.585   3.361
 3679TIP3    H211044   5.050   5.450   3.418
 3680TIP3   OH211045   6.362   1.198   0.432
 3680TIP3    H111046   6.310   1.190   0.352
 3680TIP3    H211047   6.396   1.110   0.448
 3681TIP3   OH211048   0.747   3.331   3.417
 3681TIP3    H111049   0.753   3.370   3.329
 3681TIP3    H211050   0.751   3.237   3.402
 3682TIP3   OH211051   4.765   3.365   4.815
 3682TIP3    H111052   4.790   3.420   4.890
 3682TIP3    H211053   4.765   3.276   4.850
 3683TIP3   OH211054   3.124   3.773   1.722
 3683TIP3    H111055   3.055   3.830   1.688
 3683TIP3    H211056   3.106   3.765   1.815
 3684TIP3   OH211057   4.029   0.315   4.789
 3684TIP3    H111058   4.079   0.243   4.826
 3684TIP3    H211059   3.954   0.325   4.847
 3685TIP3   OH211060   1.450   2.727   4.971
 3685TIP3    H111061   1.485   2.740   5.059
 3685TIP3    H211062   1.504   2.782   4.915
 3686TIP3   OH211063   3.447   0.757   0.445
 3686TIP3    H111064   3.366   0.714   0.416
 3686TIP3    H211065   3.450   0.741   0.539
 3687TIP3   OH211066   0.720   1.360   3.536
 3687TIP3    H111067   0.728   1.402   3.621
 3687TIP3    H211068   0.699   1.431   3.475
 3688TIP3   OH211069   4.532   1.901   4.897
 3688TIP3    H111070   4.604   1.912   4.958
 3688TIP3    H211071   4.510   1.808   4.902
 3689TIP3   OH211072   0.700   0.986   4.664
 3689TIP3    H111073   0.745   0.920   4.612
 3689TIP3    H211074   0.753   1.065   4.652
 3690TIP3   OH211075   1.886   2.558   4.942
 3690TIP3    H111076   1.948   2.629   4.924
 3690TIP3    H211077   1.925   2.481   4.900
 3691TIP3   OH211078   0.015   3.236   1.895
 3691TIP3    H111079   0.095   3.208   1.850
 3691TIP3    H211080  -0.054   3.180   1.859
 3692TIP3   OH211081   1.041   1.155   3.167
 3692TIP3    H111082   1.122   1.133   3.213
 3692TIP3    H211083   1.026   1.080   3.109
 3693TIP3   OH211084   3.939   4.158   2.024
 3693TIP3    H111085   3.949   4.117   1.938
 3693TIP3    H211086   3.949   4.086   2.086
 3694TIP3   OH211087   2.736   4.635   3.711
 3694TIP3    H111088   2.778   4.710   3.669
 3694TIP3    H211089   2.799   4.604   3.776
 3695TIP3   OH211090   5.119   4.840   1.562
 3695TIP3    H111091   5.191   4.889   1.602
 3695TIP3    H211092   5.162   4.779   1.501
 3696TIP3   OH211093   6.228   5.680   2.931
 3696TIP3    H111094   6.167   5.693   2.859
 3696TIP3    H211095   6.307   5.646   2.889
 3697TIP3   OH211096   5.692   2.416   1.343
 3697TIP3    H111097   5.650   2.334   1.318
 3697TIP3    H211098   5.786   2.398   1.335
 3698TIP3   OH211099   5.928   4.505   1.070
 3698TIP3    H111100   5.836   4.513   1.097
 3698TIP3    H211101   5.932   4.552   0.986
 3699TIP3   OH211102   1.110   5.580   2.014
 3699TIP3    H111103   1.073   5.615   1.933
 3699TIP3    H211104   1.064   5.628   2.083
 3700TIP3   OH211105   6.187   1.060   1.768
 3700TIP3    H111106   6.131   1.137   1.753
 3700TIP3    H211107   6.261   1.093   1.819
 3701TIP3   OH211108   0.995   2.685   1.274
 3701TIP3    H111109   1.005   2.606   1.328
 3701TIP3    H211110   0.978   2.652   1.186
 3702TIP3   OH211111   3.525   5.276   1.493
 3702TIP3    H111112   3.607   5.274   1.443
 3702TIP3    H211113   3.516   5.368   1.519
 3703TIP3   OH211114   5.183   2.486   1.635
 3703TIP3    H111115   5.144   2.552   1.578
 3703TIP3    H211116   5.205   2.414   1.576
 3704TIP3   OH211117   4.222   2.049   3.251
 3704TIP3    H111118   4.165   2.105   3.304
 3704TIP3    H211119   4.305   2.096   3.248
 3705TIP3   OH211120   0.508   0.833   1.484
 3705TIP3    H111121   0.545   0.770   1.423
 3705TIP3    H211122   0.581   0.892   1.505
 3706TIP3   OH211123   2.710   1.319   0.573
 3706TIP3    H111124   2.805   1.330   0.561
 3706TIP3    H211125   2.702   1.242   0.629
 3707TIP3   OH211126   1.762   2.558   2.505
 3707TIP3    H111127   1.784   2.530   2.594
 3707TIP3    H211128   1.670   2.580   2.508
 3708TIP3   OH211129   5.542   4.435   4.034
 3708TIP3    H111130   5.456   4.395   4.042
 3708TIP3    H211131   5.525   4.529   4.025
 3709TIP3   OH211132   3.904   2.858   0.068
 3709TIP3    H111133   3.926   2.817   0.152
 3709TIP3    H211134   3.926   2.792   0.003
 3710TIP3   OH211135   5.829   5.979   5.099
 3710TIP3    H111136   5.750   5.926   5.107
 3710TIP3    H211137   5.895   5.932   5.150
 3711TIP3   OH211138   4.377   5.388   3.540
 3711TIP3    H111139   4.289   5.354   3.527
 3711TIP3    H211140   4.414   5.393   3.451
 3712TIP3   OH211141   0.255   0.809   3.075
 3712TIP3    H111142   0.276   0.804   3.168
 3712TIP3    H211143   0.234   0.901   3.059
 3713TIP3   OH211144   1.089   6.007   0.683
 3713TIP3    H111145   1.063   5.919   0.713
 3713TIP3    H211146   1.020   6.032   0.621
 3714TIP3   OH211147   3.943   3.981   2.246
 3714TIP3    H111148   4.010   3.914   2.255
 3714TIP3    H211149   3.870   3.949   2.299
 3715TIP3   OH211150   1.977   1.015   0.556
 3715TIP3    H111151   1.941   1.104   0.551
 3715TIP3    H211152   1.912   0.960   0.512
 3716TIP3   OH211153   6.141   3.550   1.404
 3716TIP3    H111154   6.148   3.481   1.338
 3716TIP3    H211155   6.116   3.505   1.484
 3717TIP3   OH211156   2.528   3.185   1.883
 3717TIP3    H111157   2.576   3.224   1.956
 3717TIP3    H211158   2.483   3.109   1.921
 3718TIP3   OH211159   1.407   5.476   0.622
 3718TIP3    H111160   1.348   5.457   0.549
 3718TIP3    H211161   1.349   5.485   0.698
 3719TIP3   OH211162   0.536   5.231   1.207
 3719TIP3    H111163   0.503   5.314   1.242
 3719TIP3    H211164   0.458   5.182   1.182
 3720TIP3   OH211165   1.490   4.783   1.177
 3720TIP3    H111166   1.512   4.876   1.177
 3720TIP3    H211167   1.549   4.744   1.242
 3721TIP3   OH211168   3.036   5.204   4.029
 3721TIP3    H111169   2.956   5.218   4.080
 3721TIP3    H211170   3.065   5.116   4.055
 3722TIP3   OH211171   1.887   3.846   2.924
 3722TIP3    H111172   1.851   3.916   2.980
 3722TIP3    H211173   1.979   3.870   2.914
 3723TIP3   OH211174   6.281   1.108   0.968
 3723TIP3    H111175   6.286   1.053   1.046
 3723TIP3    H211176   6.233   1.055   0.904
 3724TIP3   OH211177   1.646   1.489   3.569
 3724TIP3    H111178   1.652   1.580   3.597
 3724TIP3    H211179   1.563   1.458   3.605
 3725TIP3   OH211180   1.906   5.954   1.574
 3725TIP3    H111181   1.982   5.916   1.530
 3725TIP3    H211182   1.920   6.048   1.569
 3726TIP3   OH211183   5.883   2.616   2.591
 3726TIP3    H111184   5.965   2.657   2.620
 3726TIP3    H211185   5.903   2.581   2.504
 3727TIP3   OH211186   2.542   3.498   0.726
 3727TIP3    H111187   2.507   3.585   0.746
 3727TIP3    H211188   2.635   3.513   0.711
 3728TIP3   OH211189   2.995   5.277   2.580
 3728TIP3    H111190   3.029   5.197   2.540
 3728TIP3    H211191   3.002   5.262   2.674
 3729TIP3   OH211192   3.350   1.883   5.002
 3729TIP3    H111193   3.369   1.889   5.096
 3729TIP3    H211194   3.433   1.902   4.960
 3730TIP3   OH211195   6.040   5.698   2.728
 3730TIP3    H111196   6.036   5.739   2.641
 3730TIP3    H211197   5.964   5.732   2.774
 3731TIP3   OH211198   5.687   4.601   3.587
 3731TIP3    H111199   5.608   4.613   3.640
 3731TIP3    H211200   5.661   4.628   3.499
 3732TIP3   OH211201   5.596   2.019   4.352
 3732TIP3    H111202   5.519   2.007   4.408
 3732TIP3    H211203   5.668   1.980   4.403
 3733TIP3   OH211204   6.297   2.582   3.757
 3733TIP3    H111205   6.380   2.564   3.712
 3733TIP3    H211206   6.258   2.495   3.769
 3734TIP3   OH211207   3.936   0.354   3.292
 3734TIP3    H111208   3.846   0.321   3.293
 3734TIP3    H211209   3.931   0.436   3.242
 3735TIP3   OH211210   6.256   1.614   4.933
 3735TIP3    H111211   6.296   1.700   4.925
 3735TIP3    H211212   6.314   1.566   4.992
 3736TIP3   OH211213   1.004   3.549   3.903
 3736TIP3    H111214   0.915   3.551   3.937
 3736TIP3    H211215   0.997   3.502   3.819
 3737TIP3   OH211216   0.798   5.707   2.529
 3737TIP3    H111217   0.829   5.742   2.613
 3737TIP3    H211218   0.876   5.667   2.489
 3738TIP3   OH211219   1.469   3.945   2.287
 3738TIP3    H111220   1.514   3.934   2.203
 3738TIP3    H211221   1.505   4.025   2.324
 3739TIP3   OH211222   2.518   2.980   1.692
 3739TIP3    H111223   2.509   3.074   1.711
 3739TIP3    H211224   2.608   2.971   1.659
 3740TIP3   OH211225   3.004   2.888   4.488
 3740TIP3    H111226   3.083   2.878   4.435
 3740TIP3    H211227   2.998   2.983   4.504
 3741TIP3   OH211228   5.493   5.853   2.799
 3741TIP3    H111229   5.433   5.917   2.837
 3741TIP3    H211230   5.574   5.901   2.785
 3742TIP3   OH211231   5.723   3.844   2.652
 3742TIP3    H111232   5.783   3.851   2.578
 3742TIP3    H211233   5.643   3.886   2.622
 3743TIP3   OH211234   2.884   0.493   4.020
 3743TIP3    H111235   2.822   0.518   3.951
 3743TIP3    H211236   2.880   0.397   4.023
 3744TIP3   OH211237   5.384   2.096   2.906
 3744TIP3    H111238   5.399   2.053   2.822
 3744TIP3    H211239   5.302   2.143   2.894
 3745TIP3   OH211240   5.743   4.942   1.033
 3745TIP3    H111241   5.833   4.911   1.028
 3745TIP3    H211242   5.745   5.014   1.097
 3746TIP3   OH211243   0.796   4.058   4.758
 3746TIP3    H111244   0.808   4.084   4.667
 3746TIP3    H211245   0.838   4.127   4.809
 3747TIP3   OH211246   0.989   1.891   5.020
 3747TIP3    H111247   0.981   1.891   4.925
 3747TIP3    H211248   0.902   1.865   5.052
 3748TIP3   OH211249   3.764   5.320   1.022
 3748TIP3    H111250   3.722   5.404   1.001
 3748TIP3    H211251   3.857   5.335   1.011
 3749TIP3   OH211252   0.321   2.433   0.354
 3749TIP3    H111253   0.358   2.504   0.301
 3749TIP3    H211254   0.357   2.448   0.442
 3750TIP3   OH211255   0.460   5.705   5.127
 3750TIP3    H111256   0.493   5.756   5.053
 3750TIP3    H211257   0.379   5.749   5.153
 3751TIP3   OH211258   3.620   2.738   1.789
 3751TIP3    H111259   3.573   2.812   1.751
 3751TIP3    H211260   3.675   2.777   1.857
 3752TIP3   OH211261   0.419   4.317   3.091
 3752TIP3    H111262   0.421   4.241   3.149
 3752TIP3    H211263   0.334   4.358   3.108
 3753TIP3   OH211264   2.924   2.709   4.680
 3753TIP3    H111265   3.017   2.700   4.699
 3753TIP3    H211266   2.918   2.783   4.620
 3754TIP3   OH211267   0.115   5.124   2.434
 3754TIP3    H111268   0.034   5.072   2.434
 3754TIP3    H211269   0.151   5.111   2.347
 3755TIP3   OH211270   1.861   5.219   1.279
 3755TIP3    H111271   1.939   5.168   1.301
 3755TIP3    H211272   1.796   5.191   1.343
 3756TIP3   OH211273   4.833   5.305   4.238
 3756TIP3    H111274   4.909   5.355   4.207
 3756TIP3    H211275   4.798   5.263   4.160
 3757TIP3   OH211276   3.109   3.324   1.752
 3757TIP3    H111277   3.193   3.346   1.789
 3757TIP3    H211278   3.073   3.407   1.721
 3758TIP3   OH211279   4.538   1.715   0.732
 3758TIP3    H111280   4.522   1.790   0.790
 3758TIP3    H211281   4.455   1.668   0.729
 3759TIP3   OH211282   4.267   2.210   4.915
 3759TIP3    H111283   4.289   2.150   4.843
 3759TIP3    H211284   4.176   2.190   4.936
 3760TIP3   OH211285   2.034   4.946   3.110
 3760TIP3    H111286   2.034   4.994   3.193
 3760TIP3    H211287   2.058   4.856   3.134
 3761TIP3   OH211288   3.291   2.452   2.883
 3761TIP3    H111289   3.259   2.534   2.919
 3761TIP3    H211290   3.215   2.394   2.884
 3762TIP3   OH211291   6.113   3.289   0.058
 3762TIP3    H111292   6.028   3.326   0.033
 3762TIP3    H211293   6.177   3.346   0.017
 3763TIP3   OH211294   4.829   1.242   1.755
 3763TIP3    H111295   4.888   1.313   1.733
 3763TIP3    H211296   4.748   1.261   1.708
 3764TIP3   OH211297   1.335   0.191   1.630
 3764TIP3    H111298   1.425   0.161   1.633
 3764TIP3    H211299   1.335   0.261   1.565
 3765TIP3   OH211300   3.515   2.663   2.739
 3765TIP3    H111301   3.493   2.638   2.829
 3765TIP3    H211302   3.610   2.661   2.736
 3766TIP3   OH211303   3.725   0.762   3.543
 3766TIP3    H111304   3.728   0.732   3.452
 3766TIP3    H211305   3.728   0.682   3.595
 3767TIP3   OH211306   6.315   5.905   0.189
 3767TIP3    H111307   6.408   5.918   0.207
 3767TIP3    H211308   6.308   5.910   0.093
 3768TIP3   OH211309   0.756   2.633   4.794
 3768TIP3    H111310   0.697   2.635   4.718
 3768TIP3    H211311   0.709   2.682   4.862
 3769TIP3   OH211312   0.793   5.060   4.599
 3769TIP3    H111313   0.801   5.123   4.528
 3769TIP3    H211314   0.803   5.113   4.679
 3770TIP3   OH211315   4.059   4.632   0.862
 3770TIP3    H111316   4.049   4.570   0.789
 3770TIP3    H211317   4.071   4.716   0.819
 3771TIP3   OH211318   0.657   0.167   1.917
 3771TIP3    H111319   0.632   0.259   1.926
 3771TIP3    H211320   0.682   0.158   1.825
 3772TIP3   OH211321   4.923   3.337   1.778
 3772TIP3    H111322   4.921   3.267   1.844
 3772TIP3    H211323   5.010   3.330   1.739
 3773TIP3   OH211324   3.350   2.767   1.664
 3773TIP3    H111325   3.350   2.795   1.572
 3773TIP3    H211326   3.282   2.820   1.705
 3774TIP3   OH211327   3.886   1.810   3.807
 3774TIP3    H111328   3.824   1.860   3.859
 3774TIP3    H211329   3.897   1.728   3.855
 3775TIP3   OH211330   1.052   1.575   1.264
 3775TIP3    H111331   1.044   1.616   1.350
 3775TIP3    H211332   1.089   1.644   1.209
 3776TIP3   OH211333   3.823   5.815   4.094
 3776TIP3    H111334   3.735   5.841   4.066
 3776TIP3    H211335   3.828   5.722   4.074
 3777TIP3   OH211336   2.782   4.904   2.561
 3777TIP3    H111337   2.760   4.934   2.473
 3777TIP3    H211338   2.865   4.859   2.551
 3778TIP3   OH211339   2.091   1.284   4.443
 3778TIP3    H111340   2.116   1.216   4.505
 3778TIP3    H211341   1.997   1.296   4.457
 3779TIP3   OH211342   6.040   1.182   2.504
 3779TIP3    H111343   6.005   1.099   2.471
 3779TIP3    H211344   5.996   1.195   2.587
 3780TIP3   OH211345   4.173   0.802   3.591
 3780TIP3    H111346   4.193   0.772   3.679
 3780TIP3    H211347   4.259   0.816   3.550
 3781TIP3   OH211348   3.671   5.272   3.212
 3781TIP3    H111349   3.575   5.271   3.205
 3781TIP3    H211350   3.689   5.243   3.301
 3782TIP3   OH211351   0.664   0.300   1.075
 3782TIP3    H111352   0.574   0.333   1.065
 3782TIP3    H211353   0.719   0.377   1.058
 3783TIP3   OH211354   2.451   4.387   4.303
 3783TIP3    H111355   2.409   4.305   4.327
 3783TIP3    H211356   2.504   4.410   4.379
 3784TIP3   OH211357   6.319   5.654   3.734
 3784TIP3    H111358   6.276   5.678   3.652
 3784TIP3    H211359   6.410   5.636   3.710
 3785TIP3   OH211360   2.262   0.928   0.962
 3785TIP3    H111361   2.189   0.870   0.985
 3785TIP3    H211362   2.285   0.971   1.045
 3786TIP3   OH211363   0.732   0.906   2.702
 3786TIP3    H111364   0.653   0.946   2.739
 3786TIP3    H211365   0.750   0.831   2.759
 3787TIP3   OH211366   5.543   4.955   4.256
 3787TIP3    H111367   5.473   4.990   4.201
 3787TIP3    H211368   5.590   5.032   4.288
 3788TIP3   OH211369   3.721   1.675   3.018
 3788TIP3    H111370   3.777   1.638   3.087
 3788TIP3    H211371   3.776   1.672   2.940
 3789TIP3   OH211372   2.330   5.859   1.528
 3789TIP3    H111373   2.403   5.849   1.467
 3789TIP3    H211374   2.263   5.905   1.478
 3790TIP3   OH211375   1.223   5.972   3.095
 3790TIP3    H111376   1.245   5.881   3.077
 3790TIP3    H211377   1.301   6.021   3.070
 3791TIP3   OH211378   2.114   3.076   2.976
 3791TIP3    H111379   2.055   3.026   3.032
 3791TIP3    H211380   2.109   3.166   3.009
 3792TIP3   OH211381   2.846   5.586   0.445
 3792TIP3    H111382   2.784   5.588   0.519
 3792TIP3    H211383   2.824   5.506   0.397
 3793TIP3   OH211384   4.425   5.861   4.137
 3793TIP3    H111385   4.492   5.890   4.198
 3793TIP3    H211386   4.384   5.943   4.106
 3794TIP3   OH211387   2.226   3.865   0.615
 3794TIP3    H111388   2.164   3.883   0.544
 3794TIP3    H211389   2.186   3.793   0.664
 3795TIP3   OH211390   2.836   2.006   3.173
 3795TIP3    H111391   2.791   2.071   3.120
 3795TIP3    H211392   2.766   1.953   3.211
 3796TIP3   OH211393   0.077   3.684   3.762
 3796TIP3    H111394   0.087   3.590   3.779
 3796TIP3    H211395   0.158   3.723   3.793
 3797TIP3   OH211396   1.777   0.677   0.250
 3797TIP3    H111397   1.696   0.709   0.290
 3797TIP3    H211398   1.819   0.626   0.319
 3798TIP3   OH211399   6.342   3.254   3.670
 3798TIP3    H111400   6.278   3.292   3.610
 3798TIP3    H211401   6.322   3.160   3.670
 3799TIP3   OH211402   2.515   3.117   5.039
 3799TIP3    H111403   2.538   3.080   4.954
 3799TIP3    H211404   2.599   3.141   5.078
 3800TIP3   OH211405   5.926   1.472   2.773
 3800TIP3    H111406   5.949   1.379   2.770
 3800TIP3    H211407   5.925   1.493   2.867
 3801TIP3   OH211408   2.057   4.207   3.064
 3801TIP3    H111409   1.971   4.169   3.076
 3801TIP3    H211410   2.066   4.218   2.969
 3802TIP3   OH211411   3.086   2.260   1.938
 3802TIP3    H111412   3.021   2.325   1.912
 3802TIP3    H211413   3.037   2.197   1.991
 3803TIP3   OH211414   4.785   1.093   1.031
 3803TIP3    H111415   4.716   1.114   0.967
 3803TIP3    H211416   4.823   1.012   0.999
 3804TIP3   OH211417   6.132   2.277   5.114
 3804TIP3    H111418   6.080   2.315   5.185
 3804TIP3    H211419   6.070   2.227   5.062
 3805TIP3   OH211420   6.112   2.262   3.496
 3805TIP3    H111421   6.132   2.356   3.499
 3805TIP3    H211422   6.163   2.224   3.567
 3806TIP3   OH211423   5.291   1.149   5.060
 3806TIP3    H111424   5.269   1.214   4.994
 3806TIP3    H211425   5.378   1.118   5.037
 3807TIP3   OH211426   3.245   2.229   0.171
 3807TIP3    H111427   3.308   2.288   0.128
 3807TIP3    H211428   3.219   2.276   0.250
 3808TIP3   OH211429   2.353   3.498   4.328
 3808TIP3    H111430   2.443   3.483   4.299
 3808TIP3    H211431   2.327   3.415   4.369
 3809TIP3   OH211432   5.555   1.440   4.081
 3809TIP3    H111433   5.587   1.371   4.023
 3809TIP3    H211434   5.460   1.431   4.079
 3810TIP3   OH211435   2.011   3.281   2.077
 3810TIP3    H111436   2.087   3.226   2.058
 3810TIP3    H211437   1.935   3.226   2.061
 3811TIP3   OH211438   3.184   3.940   0.440
 3811TIP3    H111439   3.106   3.907   0.485
 3811TIP3    H211440   3.206   3.871   0.377
 3812TIP3   OH211441   6.035   1.305   1.735
 3812TIP3    H111442   5.958   1.253   1.758
 3812TIP3    H211443   6.049   1.361   1.811
 3813TIP3   OH211444   0.714   3.125   0.516
 3813TIP3    H111445   0.769   3.095   0.589
 3813TIP3    H211446   0.664   3.198   0.552
 3814TIP3   OH211447   4.082   3.902   0.628
 3814TIP3    H111448   4.151   3.960   0.595
 3814TIP3    H211449   4.123   3.816   0.630
 3815TIP3   OH211450   2.538   2.651   2.786
 3815TIP3    H111451   2.532   2.580   2.723
 3815TIP3    H211452   2.520   2.609   2.871
 3816TIP3   OH211453   3.210   0.785   5.189
 3816TIP3    H111454   3.142   0.839   5.228
 3816TIP3    H211455   3.220   0.819   5.100
 3817TIP3   OH211456   2.039   4.429   0.191
 3817TIP3    H111457   1.975   4.357   0.192
 3817TIP3    H211458   2.119   4.391   0.227
 3818TIP3   OH211459   1.206   0.645   4.072
 3818TIP3    H111460   1.146   0.720   4.078
 3818TIP3    H211461   1.233   0.644   3.980
 3819TIP3   OH211462   5.655  -0.012   4.202
 3819TIP3    H111463   5.737   0.037   4.199
 3819TIP3    H211464   5.663  -0.075   4.129
 3820TIP3   OH211465   2.191   4.945   0.723
 3820TIP3    H111466   2.180   4.962   0.817
 3820TIP3    H211467   2.273   4.896   0.716
 3821TIP3   OH211468   3.279   1.962   2.351
 3821TIP3    H111469   3.194   1.969   2.395
 3821TIP3    H211470   3.257   1.945   2.259
 3822TIP3   OH211471   0.209   2.250   4.218
 3822TIP3    H111472   0.220   2.154   4.217
 3822TIP3    H211473   0.297   2.283   4.239
 3823TIP3   OH211474   0.370   4.235   0.080
 3823TIP3    H111475   0.400   4.159   0.130
 3823TIP3    H211476   0.412   4.225  -0.006
 3824TIP3   OH211477   4.663   2.511   1.841
 3824TIP3    H111478   4.733   2.550   1.789
 3824TIP3    H211479   4.592   2.576   1.837
 3825TIP3   OH211480   4.841   4.553   3.336
 3825TIP3    H111481   4.766   4.500   3.308
 3825TIP3    H211482   4.870   4.511   3.418
 3826TIP3   OH211483   3.650   4.429   2.546
 3826TIP3    H111484   3.737   4.433   2.585
 3826TIP3    H211485   3.628   4.520   2.527
 3827TIP3   OH211486   6.191   1.374   2.729
 3827TIP3    H111487   6.139   1.405   2.803
 3827TIP3    H211488   6.221   1.287   2.755
 3828TIP3   OH211489   1.281   3.953   4.237
 3828TIP3    H111490   1.317   3.897   4.306
 3828TIP3    H211491   1.195   3.915   4.218
 3829TIP3   OH211492   4.382   5.663   0.651
 3829TIP3    H111493   4.297   5.691   0.616
 3829TIP3    H211494   4.412   5.738   0.702
 3830TIP3   OH211495   3.472   4.058   4.047
 3830TIP3    H111496   3.466   3.967   4.016
 3830TIP3    H211497   3.407   4.105   3.996
 3831TIP3   OH211498   4.982   1.472   1.688
 3831TIP3    H111499   4.945   1.467   1.600
 3831TIP3    H211500   4.926   1.534   1.735
 3832TIP3   OH211501   4.701   5.016   4.837
 3832TIP3    H111502   4.722   5.109   4.832
 3832TIP3    H211503   4.606   5.013   4.842
 3833TIP3   OH211504   4.308   2.121   4.653
 3833TIP3    H111505   4.393   2.100   4.616
 3833TIP3    H211506   4.291   2.211   4.626
 3834TIP3   OH211507   0.372   5.396   4.356
 3834TIP3    H111508   0.335   5.392   4.444
 3834TIP3    H211509   0.363   5.488   4.330
 3835TIP3   OH211510   4.797   4.313   4.917
 3835TIP3    H111511   4.733   4.264   4.968
 3835TIP3    H211512   4.837   4.373   4.979
 3836TIP3   OH211513   3.620   3.197   0.250
 3836TIP3    H111514   3.656   3.190   0.162
 3836TIP3    H211515   3.686   3.159   0.307
 3837TIP3   OH211516   2.727   0.849   0.678
 3837TIP3    H111517   2.818   0.841   0.706
 3837TIP3    H211518   2.676   0.807   0.747
 3838TIP3   OH211519   3.242   0.441   4.386
 3838TIP3    H111520   3.282   0.404   4.465
 3838TIP3    H211521   3.316   0.472   4.334
 3839TIP3   OH211522   2.683   0.411   4.956
 3839TIP3    H111523   2.746   0.481   4.938
 3839TIP3    H211524   2.697   0.391   5.049
 3840TIP3   OH211525   1.675   2.873   1.982
 3840TIP3    H111526   1.683   2.884   1.887
 3840TIP3    H211527   1.671   2.778   1.994
 3841TIP3   OH211528   1.124   2.115   3.744
 3841TIP3    H111529   1.157   2.044   3.799
 3841TIP3    H211530   1.045   2.079   3.703
 3842TIP3   OH211531   4.216   5.928   4.713
 3842TIP3    H111532   4.190   5.989   4.644
 3842TIP3    H211533   4.311   5.939   4.720
 3843TIP3   OH211534   4.826   3.799   3.927
 3843TIP3    H111535   4.775   3.870   3.889
 3843TIP3    H211536   4.763   3.748   3.977
 3844TIP3   OH211537   1.940   0.390   2.688
 3844TIP3    H111538   2.012   0.377   2.749
 3844TIP3    H211539   1.866   0.344   2.728
 3845TIP3   OH211540   4.308   4.222   3.120
 3845TIP3    H111541   4.365   4.190   3.191
 3845TIP3    H211542   4.353   4.299   3.086
 3846TIP3   OH211543   5.057   5.165   1.805
 3846TIP3    H111544   5.103   5.143   1.724
 3846TIP3    H211545   4.965   5.152   1.785
 3847TIP3   OH211546   1.883   2.190   4.249
 3847TIP3    H111547   1.925   2.274   4.267
 3847TIP3    H211548   1.789   2.210   4.252
 3848TIP3   OH211549   3.520   4.435   1.467
 3848TIP3    H111550   3.560   4.505   1.417
 3848TIP3    H211551   3.538   4.457   1.558
 3849TIP3   OH211552   1.856   1.714   3.248
 3849TIP3    H111553   1.832   1.747   3.161
 3849TIP3    H211554   1.799   1.638   3.261
 3850TIP3   OH211555   4.128   5.112   2.895
 3850TIP3    H111556   4.092   5.103   2.807
 3850TIP3    H211557   4.223   5.118   2.881
 3851TIP3   OH211558   3.934   4.673   4.346
 3851TIP3    H111559   3.922   4.578   4.350
 3851TIP3    H211560   3.855   4.705   4.302
 3852TIP3   OH211561   2.326   1.255   1.809
 3852TIP3    H111562   2.261   1.263   1.879
 3852TIP3    H211563   2.329   1.342   1.769
 3853TIP3   OH211564   0.156   1.665   2.962
 3853TIP3    H111565   0.088   1.731   2.951
 3853TIP3    H211566   0.183   1.672   3.053
 3854TIP3   OH211567   4.048   0.063   1.988
 3854TIP3    H111568   3.997   0.108   1.921
 3854TIP3    H211569   3.983   0.033   2.052
 3855TIP3   OH211570   4.548   2.797   1.023
 3855TIP3    H111571   4.557   2.755   0.938
 3855TIP3    H211572   4.623   2.765   1.074
 3856TIP3   OH211573   0.568   2.858   3.492
 3856TIP3    H111574   0.642   2.829   3.544
 3856TIP3    H211575   0.570   2.802   3.414
 3857TIP3   OH211576   1.189   3.686   2.609
 3857TIP3    H111577   1.190   3.596   2.577
 3857TIP3    H211578   1.273   3.723   2.580
 3858TIP3   OH211579   6.254   1.813   4.409
 3858TIP3    H111580   6.339   1.800   4.453
 3858TIP3    H211581   6.193   1.758   4.458
 3859TIP3   OH211582   1.675   4.793   4.467
 3859TIP3    H111583   1.738   4.802   4.396
 3859TIP3    H211584   1.683   4.703   4.496
 3860TIP3   OH211585   5.029   0.900   0.713
 3860TIP3    H111586   4.936   0.918   0.705
 3860TIP3    H211587   5.035   0.806   0.729
 3861TIP3   OH211588   3.223   5.113   3.753
 3861TIP3    H111589   3.178   5.073   3.828
 3861TIP3    H211590   3.153   5.148   3.698
 3862TIP3   OH211591   0.772   4.636   5.092
 3862TIP3    H111592   0.719   4.598   5.163
 3862TIP3    H211593   0.707   4.666   5.028
 3863TIP3   OH211594   0.063   2.807   3.378
 3863TIP3    H111595  -0.019   2.780   3.421
 3863TIP3    H211596   0.039   2.817   3.286
 3864TIP3   OH211597   1.853   0.884   3.479
 3864TIP3    H111598   1.889   0.799   3.503
 3864TIP3    H211599   1.915   0.947   3.515
 3865TIP3   OH211600   6.118   0.582   0.109
 3865TIP3    H111601   6.031   0.559   0.141
 3865TIP3    H211602   6.106   0.592   0.014
 3866TIP3   OH211603   0.067   0.064   3.768
 3866TIP3    H111604   0.012  -0.011   3.747
 3866TIP3    H211605   0.066   0.069   3.863
 3867TIP3   OH211606   5.665   3.166   0.060
 3867TIP3    H111607   5.599   3.201   0.120
 3867TIP3    H211608   5.665   3.228  -0.013
 3868TIP3   OH211609   5.567   4.117   3.443
 3868TIP3    H111610   5.536   4.097   3.355
 3868TIP3    H211611   5.624   4.193   3.433
 3869TIP3   OH211612   0.352   5.162   3.108
 3869TIP3    H111613   0.341   5.112   3.189
 3869TIP3    H211614   0.426   5.221   3.126
 3870TIP3   OH211615   4.583   3.250   3.286
 3870TIP3    H111616   4.623   3.334   3.309
 3870TIP3    H211617   4.651   3.185   3.305
 3871TIP3   OH211618   2.516   1.938   1.667
 3871TIP3    H111619   2.583   1.997   1.701
 3871TIP3    H211620   2.525   1.859   1.720
 3872TIP3   OH211621   1.552   2.620   3.096
 3872TIP3    H111622   1.463   2.630   3.127
 3872TIP3    H211623   1.543   2.591   3.005
 3873TIP3   OH211624   5.174   1.857   3.745
 3873TIP3    H111625   5.087   1.853   3.705
 3873TIP3    H211626   5.220   1.781   3.709
 3874TIP3   OH211627   5.348   0.871   2.884
 3874TIP3    H111628   5.269   0.873   2.937
 3874TIP3    H211629   5.370   0.963   2.871
 3875TIP3   OH211630   4.450   4.399   3.634
 3875TIP3    H111631   4.370   4.346   3.639
 3875TIP3    H211632   4.421   4.489   3.652
 3876TIP3   OH211633   1.149   4.663   1.307
 3876TIP3    H111634   1.153   4.738   1.249
 3876TIP3    H211635   1.172   4.588   1.252
 3877TIP3   OH211636   5.761   5.088   1.304
 3877TIP3    H111637   5.782   5.146   1.377
 3877TIP3    H211638   5.753   5.001   1.343
 3878TIP3   OH211639   6.208   5.266   4.173
 3878TIP3    H111640   6.197   5.356   4.142
 3878TIP3    H211641   6.302   5.250   4.166
 3879TIP3   OH211642   0.342   0.108   3.902
 3879TIP3    H111643   0.250   0.127   3.920
 3879TIP3    H211644   0.387   0.192   3.911
 3880TIP3   OH211645   2.709   5.630   3.795
 3880TIP3    H111646   2.798   5.658   3.819
 3880TIP3    H211647   2.653   5.698   3.832
 3881TIP3   OH211648   0.960   4.191   4.589
 3881TIP3    H111649   1.013   4.169   4.513
 3881TIP3    H211650   1.008   4.261   4.633
 3882TIP3   OH211651   4.877   4.396   1.814
 3882TIP3    H111652   4.838   4.310   1.828
 3882TIP3    H211653   4.904   4.424   1.902
 3883TIP3   OH211654   4.713   2.468   4.525
 3883TIP3    H111655   4.714   2.389   4.579
 3883TIP3    H211656   4.664   2.442   4.446
 3884TIP3   OH211657   2.967   3.830   0.577
 3884TIP3    H111658   2.955   3.735   0.579
 3884TIP3    H211659   2.907   3.863   0.645
 3885TIP3   OH211660   4.745   5.278   0.034
 3885TIP3    H111661   4.715   5.249  -0.053
 3885TIP3    H211662   4.756   5.197   0.083
 3886TIP3   OH211663   2.334   2.887   4.678
 3886TIP3    H111664   2.364   2.857   4.593
 3886TIP3    H211665   2.376   2.827   4.741
 3887TIP3   OH211666   4.750   3.320   4.558
 3887TIP3    H111667   4.817   3.254   4.574
 3887TIP3    H211668   4.715   3.340   4.645
 3888TIP3   OH211669   4.504   1.921   0.911
 3888TIP3    H111670   4.428   1.888   0.959
 3888TIP3    H211671   4.511   2.013   0.937
 3889TIP3   OH211672   4.061   5.752   2.889
 3889TIP3    H111673   4.094   5.802   2.964
 3889TIP3    H211674   4.016   5.816   2.835
 3890TIP3   OH211675   3.618   5.945   4.931
 3890TIP3    H111676   3.594   5.856   4.906
 3890TIP3    H211677   3.706   5.937   4.968
 3891TIP3   OH211678   3.540   3.470   4.510
 3891TIP3    H111679   3.600   3.396   4.499
 3891TIP3    H211680   3.562   3.507   4.595
 3892TIP3   OH211681   2.036   2.235   0.770
 3892TIP3    H111682   2.052   2.239   0.864
 3892TIP3    H211683   1.966   2.298   0.754
 3893TIP3   OH211684   1.226   0.632   3.796
 3893TIP3    H111685   1.158   0.698   3.810
 3893TIP3    H211686   1.200   0.588   3.715
 3894TIP3   OH211687   4.418   4.445   2.969
 3894TIP3    H111688   4.455   4.518   2.919
 3894TIP3    H211689   4.447   4.367   2.922
 3895TIP3   OH211690   1.440   6.010   1.102
 3895TIP3    H111691   1.346   5.997   1.119
 3895TIP3    H211692   1.472   5.923   1.079
 3896TIP3   OH211693   1.135   0.694   2.553
 3896TIP3    H111694   1.088   0.701   2.470
 3896TIP3    H211695   1.213   0.749   2.541
 3897TIP3   OH211696   4.395   2.376   2.051
 3897TIP3    H111697   4.488   2.358   2.041
 3897TIP3    H211698   4.361   2.378   1.962
 3898TIP3   OH211699   2.763   2.549   2.255
 3898TIP3    H111700   2.837   2.607   2.236
 3898TIP3    H211701   2.722   2.588   2.332
 3899TIP3   OH211702   5.532   3.850   2.024
 3899TIP3    H111703   5.530   3.942   2.053
 3899TIP3    H211704   5.500   3.853   1.934
 3900TIP3   OH211705   5.122   3.516   0.212
 3900TIP3    H111706   5.084   3.598   0.181
 3900TIP3    H211707   5.048   3.469   0.251
 3901TIP3   OH211708   5.016   4.562   2.298
 3901TIP3    H111709   5.045   4.597   2.382
 3901TIP3    H211710   4.971   4.636   2.256
 3902TIP3   OH211711   5.559   2.231   0.598
 3902TIP3    H111712   5.567   2.138   0.576
 3902TIP3    H211713   5.548   2.232   0.693
 3903TIP3   OH211714   2.593   3.216   3.137
 3903TIP3    H111715   2.657   3.201   3.067
 3903TIP3    H211716   2.638   3.275   3.198
 3904TIP3   OH211717   2.715   2.754   3.552
 3904TIP3    H111718   2.626   2.784   3.534
 3904TIP3    H211719   2.769   2.832   3.540
 3905TIP3   OH211720   2.709   5.279   2.542
 3905TIP3    H111721   2.705   5.291   2.447
 3905TIP3    H211722   2.773   5.343   2.572
 3906TIP3   OH211723   1.947   4.136   0.629
 3906TIP3    H111724   2.018   4.138   0.692
 3906TIP3    H211725   1.976   4.193   0.558
 3907TIP3   OH211726   5.708   1.497   4.361
 3907TIP3    H111727   5.763   1.455   4.293
 3907TIP3    H211728   5.636   1.537   4.312
 3908TIP3   OH211729   5.260   4.649   4.092
 3908TIP3    H111730   5.205   4.723   4.067
 3908TIP3    H211731   5.344   4.688   4.114
 3909TIP3   OH211732   5.378  -0.020   1.074
 3909TIP3    H111733   5.290   0.017   1.086
 3909TIP3    H211734   5.411   0.024   0.996
 3910TIP3   OH211735   6.289   1.970   1.856
 3910TIP3    H111736   6.260   1.922   1.934
 3910TIP3    H211737   6.295   1.903   1.788
 3911TIP3   OH211738   1.054   2.521   4.119
 3911TIP3    H111739   1.075   2.601   4.070
 3911TIP3    H211740   1.000   2.550   4.192
 3912TIP3   OH211741   6.055   1.894   5.083
 3912TIP3    H111742   5.994   1.960   5.115
 3912TIP3    H211743   6.142   1.931   5.099
 3913TIP3   OH211744   5.161   4.214   3.483
 3913TIP3    H111745   5.217   4.290   3.466
 3913TIP3    H211746   5.130   4.226   3.572
 3914TIP3   OH211747   4.364   3.097   2.060
 3914TIP3    H111748   4.419   3.174   2.074
 3914TIP3    H211749   4.308   3.093   2.138
 3915TIP3   OH211750   0.888   4.919   1.195
 3915TIP3    H111751   0.796   4.947   1.199
 3915TIP3    H211752   0.887   4.831   1.235
 3916TIP3   OH211753   4.264   4.748   4.640
 3916TIP3    H111754   4.184   4.800   4.632
 3916TIP3    H211755   4.323   4.803   4.691
 3917TIP3   OH211756   1.811   0.265   0.298
 3917TIP3    H111757   1.846   0.181   0.328
 3917TIP3    H211758   1.802   0.316   0.378
 3918TIP3   OH211759   0.240   5.695   3.642
 3918TIP3    H111760   0.310   5.700   3.577
 3918TIP3    H211761   0.244   5.779   3.688
 3919TIP3   OH211762   2.954   5.301   4.567
 3919TIP3    H111763   2.951   5.206   4.556
 3919TIP3    H211764   2.867   5.323   4.602
 3920TIP3   OH211765   4.010   4.372   3.419
 3920TIP3    H111766   4.097   4.384   3.381
 3920TIP3    H211767   3.951   4.368   3.344
 3921TIP3   OH211768   2.925   4.587   2.142
 3921TIP3    H111769   2.846   4.594   2.196
 3921TIP3    H211770   2.925   4.496   2.111
 3922TIP3   OH211771   4.691   2.869   4.286
 3922TIP3    H111772   4.681   2.958   4.320
 3922TIP3    H211773   4.653   2.813   4.354
 3923TIP3   OH211774   5.359   3.203   4.551
 3923TIP3    H111775   5.291   3.245   4.498
 3923TIP3    H211776   5.327   3.209   4.641
 3924TIP3   OH211777   0.731   3.121   2.978
 3924TIP3    H111778   0.819   3.095   3.004
 3924TIP3    H211779   0.737   3.215   2.964
 3925TIP3   OH211780   0.766   0.702   3.128
 3925TIP3    H111781   0.782   0.755   3.206
 3925TIP3    H211782   0.687   0.739   3.089
 3926TIP3   OH211783   2.250   2.685   0.276
 3926TIP3    H111784   2.328   2.737   0.297
 3926TIP3    H211785   2.242   2.625   0.350
 3927TIP3   OH211786   0.252   2.205   3.780
 3927TIP3    H111787   0.220   2.116   3.797
 3927TIP3    H211788   0.317   2.221   3.848
 3928TIP3   OH211789   4.310   4.104   4.145
 3928TIP3    H111790   4.240   4.064   4.198
 3928TIP3    H211791   4.307   4.197   4.167
 3929TIP3   OH211792   5.608   3.102   4.701
 3929TIP3    H111793   5.669   3.112   4.775
 3929TIP3    H211794   5.526   3.138   4.733
 3930TIP3   OH211795   4.047   2.013   0.263
 3930TIP3    H111796   4.124   2.024   0.319
 3930TIP3    H211797   4.042   2.095   0.214
 3931TIP3   OH211798   2.564   0.860   0.924
 3931TIP3    H111799   2.542   0.791   0.987
 3931TIP3    H211800   2.483   0.910   0.915
 3932TIP3   OH211801   0.944   1.017   3.891
 3932TIP3    H111802   0.851   1.036   3.904
 3932TIP3    H211803   0.958   1.025   3.797
 3933TIP3   OH211804   4.240   1.452   1.566
 3933TIP3    H111805   4.206   1.363   1.577
 3933TIP3    H211806   4.248   1.486   1.656
 3934TIP3   OH211807   1.343   4.588   1.066
 3934TIP3    H111808   1.301   4.637   0.996
 3934TIP3    H211809   1.374   4.654   1.127
 3935TIP3   OH211810   0.118   2.493   0.789
 3935TIP3    H111811   0.090   2.453   0.707
 3935TIP3    H211812   0.214   2.494   0.784
 3936TIP3   OH211813   3.538   3.735   2.290
 3936TIP3    H111814   3.449   3.755   2.319
 3936TIP3    H211815   3.538   3.753   2.196
 3937TIP3   OH211816   1.174   4.854   1.075
 3937TIP3    H111817   1.127   4.936   1.063
 3937TIP3    H211818   1.260   4.880   1.109
 3938TIP3   OH211819   4.365   1.925   2.182
 3938TIP3    H111820   4.300   1.979   2.138
 3938TIP3    H211821   4.420   1.987   2.229
 3939TIP3   OH211822   2.043   1.088   3.573
 3939TIP3    H111823   1.988   1.152   3.526
 3939TIP3    H211824   2.115   1.069   3.513
 3940TIP3   OH211825   1.197   5.303   3.367
 3940TIP3    H111826   1.262   5.361   3.406
 3940TIP3    H211827   1.246   5.223   3.347
 3941TIP3   OH211828   3.529   1.935   0.210
 3941TIP3    H111829   3.558   2.020   0.243
 3941TIP3    H211830   3.590   1.915   0.138
 3942TIP3   OH211831   0.470   0.270   0.092
 3942TIP3    H111832   0.436   0.349   0.135
 3942TIP3    H211833   0.409   0.201   0.119
 3943TIP3   OH211834   5.011   0.564   2.246
 3943TIP3    H111835   4.985   0.480   2.210
 3943TIP3    H211836   5.100   0.578   2.214
 3944TIP3   OH211837   3.690   5.378   4.257
 3944TIP3    H111838   3.607   5.372   4.209
 3944TIP3    H211839   3.681   5.458   4.310
 3945TIP3   OH211840   4.468   4.026   3.925
 3945TIP3    H111841   4.394   4.053   3.980
 3945TIP3    H211842   4.456   3.932   3.914
 3946TIP3   OH211843   5.503   2.676   2.237
 3946TIP3    H111844   5.453   2.611   2.187
 3946TIP3    H211845   5.436   2.729   2.281
 3947TIP3   OH211846   2.137   0.977   2.184
 3947TIP3    H111847   2.095   0.978   2.098
 3947TIP3    H211848   2.147   1.069   2.207
 3948TIP3   OH211849   3.763   2.371   4.733
 3948TIP3    H111850   3.781   2.464   4.744
 3948TIP3    H211851   3.844   2.335   4.696
 3949TIP3   OH211852   3.682   3.509   0.492
 3949TIP3    H111853   3.665   3.603   0.497
 3949TIP3    H211854   3.643   3.473   0.572
 3950TIP3   OH211855   3.440   4.274   3.284
 3950TIP3    H111856   3.452   4.296   3.192
 3950TIP3    H211857   3.478   4.186   3.293
 3951TIP3   OH211858   4.334   1.642   2.863
 3951TIP3    H111859   4.320   1.564   2.916
 3951TIP3    H211860   4.258   1.646   2.805
 3952TIP3   OH211861   2.073   3.415   2.889
 3952TIP3    H111862   2.047   3.426   2.797
 3952TIP3    H211863   2.011   3.469   2.938
 3953TIP3   OH211864   0.424   3.966   1.139
 3953TIP3    H111865   0.369   4.044   1.148
 3953TIP3    H211866   0.378   3.898   1.187
 3954TIP3   OH211867   0.113   1.320   4.270
 3954TIP3    H111868   0.063   1.388   4.313
 3954TIP3    H211869   0.182   1.297   4.332
 3955TIP3   OH211870   3.875   0.396   2.094
 3955TIP3    H111871   3.790   0.367   2.127
 3955TIP3    H211872   3.895   0.474   2.146
 3956TIP3   OH211873   3.723   0.245   3.427
 3956TIP3    H111874   3.688   0.326   3.390
 3956TIP3    H211875   3.659   0.178   3.401
 3957TIP3   OH211876   5.444   0.583   3.683
 3957TIP3    H111877   5.493   0.607   3.604
 3957TIP3    H211878   5.477   0.495   3.705
 3958TIP3   OH211879   5.334   3.246   2.197
 3958TIP3    H111880   5.343   3.339   2.179
 3958TIP3    H211881   5.241   3.233   2.215
 3959TIP3   OH211882   3.697   1.595   4.511
 3959TIP3    H111883   3.729   1.633   4.430
 3959TIP3    H211884   3.646   1.666   4.552
 3960TIP3   OH211885   2.232   3.251   4.349
 3960TIP3    H111886   2.198   3.231   4.261
 3960TIP3    H211887   2.172   3.205   4.408
 3961TIP3   OH211888   1.104   2.724   0.193
 3961TIP3    H111889   1.128   2.816   0.202
 3961TIP3    H211890   1.088   2.713   0.099
 3962TIP3   OH211891   4.050   3.368   2.368
 3962TIP3    H111892   3.996   3.440   2.400
 3962TIP3    H211893   4.112   3.409   2.307
 3963TIP3   OH211894   5.382   2.386   1.832
 3963TIP3    H111895   5.359   2.295   1.812
 3963TIP3    H211896   5.352   2.436   1.756
 3964TIP3   OH211897   6.170   2.701   3.459
 3964TIP3    H111898   6.117   2.738   3.389
 3964TIP3    H211899   6.192   2.613   3.428
 3965TIP3   OH211900   3.989   5.477   2.971
 3965TIP3    H111901   4.081   5.492   2.992
 3965TIP3    H211902   3.958   5.562   2.939
 3966TIP3   OH211903   1.279   4.052   4.831
 3966TIP3    H111904   1.200   4.020   4.876
 3966TIP3    H211905   1.315   4.118   4.890
 3967TIP3   OH211906   5.145   4.315   5.135
 3967TIP3    H111907   5.136   4.357   5.049
 3967TIP3    H211908   5.192   4.380   5.189
 3968TIP3   OH211909   3.354   4.517   4.750
 3968TIP3    H111910   3.417   4.499   4.820
 3968TIP3    H211911   3.270   4.524   4.795
 3969TIP3   OH211912   5.957   2.855   2.059
 3969TIP3    H111913   5.969   2.818   1.971
 3969TIP3    H211914   5.867   2.833   2.082
 3970TIP3   OH211915   4.084   2.621   1.212
 3970TIP3    H111916   4.167   2.633   1.165
 3970TIP3    H211917   4.103   2.649   1.301
 3971TIP3   OH211918   2.774   1.894   3.891
 3971TIP3    H111919   2.729   1.878   3.975
 3971TIP3    H211920   2.814   1.810   3.869
 3972TIP3   OH211921   3.347   2.935   2.574
 3972TIP3    H111922   3.358   2.909   2.483
 3972TIP3    H211923   3.427   2.983   2.595
 3973TIP3   OH211924   0.219   5.885   0.607
 3973TIP3    H111925   0.192   5.844   0.524
 3973TIP3    H211926   0.176   5.970   0.606
 3974TIP3   OH211927   5.905   0.552   3.857
 3974TIP3    H111928   5.857   0.552   3.774
 3974TIP3    H211929   5.936   0.642   3.867
 3975TIP3   OH211930   2.415   3.007   3.162
 3975TIP3    H111931   2.445   2.953   3.088
 3975TIP3    H211932   2.475   3.081   3.162
 3976TIP3   OH211933   0.845   0.467   4.553
 3976TIP3    H111934   0.938   0.489   4.556
 3976TIP3    H211935   0.812   0.492   4.639
 3977TIP3   OH211936   2.289   5.911   3.417
 3977TIP3    H111937   2.217   5.941   3.361
 3977TIP3    H211938   2.248   5.848   3.476
 3978TIP3   OH211939   6.250   1.677   1.162
 3978TIP3    H111940   6.257   1.584   1.138
 3978TIP3    H211941   6.254   1.677   1.257
 3979TIP3   OH211942   3.409   5.710   5.064
 3979TIP3    H111943   3.356   5.782   5.030
 3979TIP3    H211944   3.474   5.694   4.996
 3980TIP3   OH211945   3.913   3.626   4.224
 3980TIP3    H111946   3.892   3.539   4.192
 3980TIP3    H211947   3.924   3.616   4.319
 3981TIP3   OH211948   4.494   3.388   0.034
 3981TIP3    H111949   4.486   3.483   0.030
 3981TIP3    H211950   4.412   3.358   0.073
 3982TIP3   OH211951   1.294   2.122   3.229
 3982TIP3    H111952   1.324   2.210   3.205
 3982TIP3    H211953   1.301   2.119   3.324
 3983TIP3   OH211954   6.201   4.305   4.059
 3983TIP3    H111955   6.288   4.329   4.029
 3983TIP3    H211956   6.181   4.223   4.014
 3984TIP3   OH211957   5.832   5.643   4.117
 3984TIP3    H111958   5.884   5.681   4.045
 3984TIP3    H211959   5.853   5.697   4.193
 3985TIP3   OH211960   5.669   2.310   3.146
 3985TIP3    H111961   5.684   2.221   3.116
 3985TIP3    H211962   5.574   2.315   3.159
 3986TIP3   OH211963   4.585   4.733   4.488
 3986TIP3    H111964   4.543   4.775   4.564
 3986TIP3    H211965   4.679   4.743   4.505
 3987TIP3   OH211966   1.847   5.470   2.360
 3987TIP3    H111967   1.844   5.537   2.291
 3987TIP3    H211968   1.899   5.399   2.323
 3988TIP3   OH211969   5.217   3.846   1.949
 3988TIP3    H111970   5.138   3.847   2.003
 3988TIP3    H211971   5.246   3.755   1.951
 3989TIP3   OH211972   4.101   2.636   2.129
 3989TIP3    H111973   4.058   2.620   2.045
 3989TIP3    H211974   4.116   2.731   2.130
 3990TIP3   OH211975   2.209   5.250   1.978
 3990TIP3    H111976   2.267   5.175   1.963
 3990TIP3    H211977   2.121   5.216   1.963
 3991TIP3   OH211978   0.664   1.841   1.328
 3991TIP3    H111979   0.717   1.829   1.408
 3991TIP3    H211980   0.574   1.840   1.359
 3992TIP3   OH211981   5.474   3.099   0.341
 3992TIP3    H111982   5.512   3.184   0.322
 3992TIP3    H211983   5.409   3.116   0.408
 3993TIP3   OH211984   1.958   5.561   3.904
 3993TIP3    H111985   1.977   5.467   3.905
 3993TIP3    H211986   1.964   5.586   3.812
 3994TIP3   OH211987   0.423   3.470   2.607
 3994TIP3    H111988   0.433   3.563   2.628
 3994TIP3    H211989   0.511   3.434   2.617
 3995TIP3   OH211990   1.519   5.224   0.673
 3995TIP3    H111991   1.459   5.166   0.625
 3995TIP3    H211992   1.508   5.310   0.632
 3996TIP3   OH211993   3.335   4.732   0.929
 3996TIP3    H111994   3.404   4.725   0.863
 3996TIP3    H211995   3.282   4.653   0.918
 3997TIP3   OH211996   6.209   2.659   1.374
 3997TIP3    H111997   6.122   2.674   1.412
 3997TIP3    H211998   6.197   2.582   1.318
 3998TIP3   OH211999   1.386   5.365   2.870
 3998TIP3    H112000   1.381   5.356   2.965
 3998TIP3    H212001   1.477   5.391   2.853
 3999TIP3   OH212002   4.964   1.239   1.432
 3999TIP3    H112003   4.994   1.189   1.356
 3999TIP3    H212004   4.878   1.274   1.405
 4000TIP3   OH212005   1.662   3.430   4.600
 4000TIP3    H112006   1.629   3.340   4.593
 4000TIP3    H212007   1.691   3.437   4.691
 4001TIP3   OH212008   0.918   0.643   0.396
 4001TIP3    H112009   1.011   0.667   0.397
 4001TIP3    H212010   0.894   0.639   0.489
 4002TIP3   OH212011   4.526   5.468   2.793
 4002TIP3    H112012   4.511   5.450   2.700
 4002TIP3    H212013   4.615   5.437   2.809
 4003TIP3   OH212014   3.158   0.602   4.692
 4003TIP3    H112015   3.152   0.608   4.787
 4003TIP3    H212016   3.137   0.511   4.671
 4004TIP3   OH212017   4.466   4.409   0.689
 4004TIP3    H112018   4.531   4.349   0.652
 4004TIP3    H212019   4.382   4.367   0.671
 4005TIP3   OH212020   3.593   5.052   1.617
 4005TIP3    H112021   3.555   5.126   1.570
 4005TIP3    H212022   3.549   4.975   1.580
 4006TIP3   OH212023   4.422   4.339   1.324
 4006TIP3    H112024   4.454   4.279   1.256
 4006TIP3    H212025   4.500   4.362   1.375
 4007TIP3   OH212026   4.478   3.722   1.159
 4007TIP3    H112027   4.547   3.725   1.093
 4007TIP3    H212028   4.408   3.672   1.118
 4008TIP3   OH212029   0.393   1.586   3.796
 4008TIP3    H112030   0.361   1.503   3.762
 4008TIP3    H212031   0.460   1.615   3.734
 4009TIP3   OH212032   0.905   3.743   2.936
 4009TIP3    H112033   0.894   3.764   3.029
 4009TIP3    H212034   1.000   3.743   2.922
 4010TIP3   OH212035   1.117   2.900   3.104
 4010TIP3    H112036   1.075   2.934   3.184
 4010TIP3    H212037   1.200   2.946   3.099
 4011TIP3   OH212038   2.458   0.693   3.081
 4011TIP3    H112039   2.407   0.775   3.075
 4011TIP3    H212040   2.502   0.686   2.996
 4012TIP3   OH212041   6.211   3.465   0.576
 4012TIP3    H112042   6.175   3.552   0.592
 4012TIP3    H212043   6.218   3.459   0.480
 4013TIP3   OH212044   2.278   2.276   4.019
 4013TIP3    H112045   2.233   2.347   3.973
 4013TIP3    H212046   2.267   2.296   4.112
 4014TIP3   OH212047   0.223   3.986   0.641
 4014TIP3    H112048   0.203   3.897   0.669
 4014TIP3    H212049   0.176   4.042   0.703
 4015TIP3   OH212050   2.946   4.176   0.484
 4015TIP3    H112051   2.949   4.249   0.422
 4015TIP3    H212052   2.983   4.211   0.565
 4016TIP3   OH212053   5.837   3.242   2.156
 4016TIP3    H112054   5.862   3.239   2.063
 4016TIP3    H212055   5.745   3.214   2.157
 4017TIP3   OH212056   3.970   5.166   2.647
 4017TIP3    H112057   3.930   5.210   2.721
 4017TIP3    H212058   3.957   5.226   2.573
 4018TIP3   OH212059   5.237   3.192   3.289
 4018TIP3    H112060   5.284   3.154   3.363
 4018TIP3    H212061   5.306   3.230   3.234
 4019TIP3   OH212062   3.918   0.100   4.655
 4019TIP3    H112063   3.945   0.189   4.677
 4019TIP3    H212064   3.971   0.076   4.579
 4020TIP3   OH212065   2.223   2.685   2.610
 4020TIP3    H112066   2.187   2.768   2.639
 4020TIP3    H212067   2.199   2.679   2.517
 4021TIP3   OH212068   5.952   4.820   2.746
 4021TIP3    H112069   5.887   4.805   2.677
 4021TIP3    H212070   6.035   4.789   2.707
 4022TIP3   OH212071   1.765   5.519   4.096
 4022TIP3    H112072   1.823   5.550   4.027
 4022TIP3    H212073   1.730   5.436   4.063
 4023TIP3   OH212074   4.289   5.972   5.064
 4023TIP3    H112075   4.223   5.904   5.052
 4023TIP3    H212076   4.326   5.986   4.977
 4024TIP3   OH212077   0.969   2.242   2.855
 4024TIP3    H112078   0.980   2.260   2.762
 4024TIP3    H212079   0.902   2.174   2.859
 4025TIP3   OH212080   5.112   0.543   2.506
 4025TIP3    H112081   5.195   0.509   2.473
 4025TIP3    H212082   5.053   0.540   2.430
 4026TIP3   OH212083   0.559   1.230   3.220
 4026TIP3    H112084   0.580   1.152   3.271
 4026TIP3    H212085   0.642   1.275   3.210
 4027TIP3   OH212086   5.058   3.494   4.822
 4027TIP3    H112087   5.149   3.470   4.802
 4027TIP3    H212088   5.063   3.584   4.853
 4028TIP3   OH212089   6.206   4.388   4.650
 4028TIP3    H112090   6.236   4.312   4.699
 4028TIP3    H212091   6.226   4.462   4.707
 4029TIP3   OH212092   1.563   3.880   2.887
 4029TIP3    H112093   1.562   3.799   2.938
 4029TIP3    H212094   1.601   3.855   2.803
 4030TIP3   OH212095   5.465   2.938   2.875
 4030TIP3    H112096   5.482   2.911   2.785
 4030TIP3    H212097   5.371   2.953   2.878
 4031TIP3   OH212098   0.938   1.545   0.487
 4031TIP3    H112099   1.023   1.505   0.504
 4031TIP3    H212100   0.945   1.634   0.522
 4032TIP3   OH212101   1.787   4.755   2.802
 4032TIP3    H112102   1.697   4.726   2.800
 4032TIP3    H212103   1.786   4.834   2.856
 4033TIP3   OH212104   3.046   2.154   3.514
 4033TIP3    H112105   3.060   2.247   3.532
 4033TIP3    H212106   2.952   2.146   3.499
 4034TIP3   OH212107   3.728   5.784   3.068
 4034TIP3    H112108   3.811   5.815   3.106
 4034TIP3    H212109   3.754   5.714   3.008
 4035TIP3   OH212110   5.009   3.929   1.322
 4035TIP3    H112111   5.080   3.865   1.330
 4035TIP3    H212112   5.027   3.993   1.390
 4036TIP3   OH212113   1.293   0.967   0.531
 4036TIP3    H112114   1.389   0.963   0.528
 4036TIP3    H212115   1.272   1.057   0.507
 4037TIP3   OH212116   6.322   4.000   3.531
 4037TIP3    H112117   6.295   3.936   3.596
 4037TIP3    H212118   6.277   3.974   3.451
 4038TIP3   OH212119   2.303   4.009   0.309
 4038TIP3    H112120   2.391   3.972   0.303
 4038TIP3    H212121   2.246   3.937   0.281
 4039TIP3   OH212122   3.143   5.737   0.033
 4039TIP3    H112123   3.095   5.817   0.051
 4039TIP3    H212124   3.137   5.725  -0.062
 4040TIP3   OH212125   0.717   0.464   1.331
 4040TIP3    H112126   0.803   0.470   1.373
 4040TIP3    H212127   0.701   0.370   1.325
 4041TIP3   OH212128   0.317   0.941   1.275
 4041TIP3    H112129   0.381   0.930   1.346
 4041TIP3    H212130   0.300   0.852   1.244
 4042TIP3   OH212131   3.849   1.790   3.484
 4042TIP3    H112132   3.833   1.858   3.419
 4042TIP3    H212133   3.868   1.837   3.565
 4043TIP3   OH212134   1.291   4.420   1.836
 4043TIP3    H112135   1.360   4.431   1.771
 4043TIP3    H212136   1.210   4.436   1.787
 4044TIP3   OH212137   5.406   3.271   1.054
 4044TIP3    H112138   5.466   3.259   0.980
 4044TIP3    H212139   5.428   3.357   1.089
 4045TIP3   OH212140   0.491   5.120   3.830
 4045TIP3    H112141   0.479   5.146   3.921
 4045TIP3    H212142   0.564   5.057   3.832
 4046TIP3   OH212143   0.640   3.738   2.930
 4046TIP3    H112144   0.733   3.740   2.910
 4046TIP3    H212145   0.624   3.650   2.963
 4047TIP3   OH212146   2.271   1.203   5.224
 4047TIP3    H112147   2.290   1.274   5.163
 4047TIP3    H212148   2.175   1.203   5.232
 4048TIP3   OH212149   6.092   1.353   0.286
 4048TIP3    H112150   6.011   1.367   0.237
 4048TIP3    H212151   6.088   1.262   0.314
 4049TIP3   OH212152   3.289   4.547   0.513
 4049TIP3    H112153   3.270   4.475   0.573
 4049TIP3    H212154   3.366   4.519   0.464
 4050TIP3   OH212155   5.712   4.359   4.600
 4050TIP3    H112156   5.632   4.337   4.552
 4050TIP3    H212157   5.775   4.383   4.532
 4051TIP3   OH212158   1.130   1.275   2.871
 4051TIP3    H112159   1.040   1.243   2.874
 4051TIP3    H212160   1.139   1.326   2.952
 4052TIP3   OH212161   4.066   1.909   2.192
 4052TIP3    H112162   4.141   1.860   2.224
 4052TIP3    H212163   4.042   1.967   2.265
 4053TIP3   OH212164   5.419   3.692   4.174
 4053TIP3    H112165   5.489   3.707   4.110
 4053TIP3    H212166   5.464   3.679   4.257
 4054TIP3   OH212167   5.576   0.484   2.947
 4054TIP3    H112168   5.609   0.516   2.864
 4054TIP3    H212169   5.572   0.388   2.937
 4055TIP3   OH212170   0.662   3.683   3.411
 4055TIP3    H112171   0.672   3.608   3.352
 4055TIP3    H212172   0.599   3.740   3.368
 4056TIP3   OH212173   4.138   1.007   1.623
 4056TIP3    H112174   4.097   1.065   1.559
 4056TIP3    H212175   4.168   1.065   1.693
 4057TIP3   OH212176   4.201   3.410   3.204
 4057TIP3    H112177   4.169   3.406   3.295
 4057TIP3    H212178   4.144   3.349   3.156
 4058TIP3   OH212179   4.023   5.956   3.971
 4058TIP3    H112180   3.962   5.907   4.026
 4058TIP3    H212181   4.020   5.911   3.886
 4059TIP3   OH212182   2.426   1.754   2.012
 4059TIP3    H112183   2.498   1.750   1.950
 4059TIP3    H212184   2.463   1.796   2.090
 4060TIP3   OH212185   0.154   1.878   4.479
 4060TIP3    H112186   0.149   1.953   4.539
 4060TIP3    H212187   0.224   1.824   4.515
 4061TIP3   OH212188   0.099   2.065   3.403
 4061TIP3    H112189   0.104   2.160   3.412
 4061TIP3    H212190   0.088   2.051   3.309
 4062TIP3   OH212191   0.230   1.291   1.743
 4062TIP3    H112192   0.215   1.285   1.648
 4062TIP3    H212193   0.324   1.274   1.753
 4063TIP3   OH212194   0.671   2.708   1.071
 4063TIP3    H112195   0.757   2.671   1.055
 4063TIP3    H212196   0.656   2.692   1.165
 4064TIP3   OH212197   1.241   5.419   4.576
 4064TIP3    H112198   1.258   5.369   4.656
 4064TIP3    H212199   1.190   5.359   4.521
 4065TIP3   OH212200   5.357   0.976   3.810
 4065TIP3    H112201   5.298   0.901   3.796
 4065TIP3    H212202   5.444   0.937   3.812
 4066TIP3   OH212203   1.826   0.174   3.265
 4066TIP3    H112204   1.798   0.264   3.251
 4066TIP3    H212205   1.773   0.123   3.204
 4067TIP3   OH212206   5.344   1.562   0.367
 4067TIP3    H112207   5.255   1.526   0.358
 4067TIP3    H212208   5.376   1.568   0.278
 4068TIP3   OH212209   3.324   2.606   3.675
 4068TIP3    H112210   3.275   2.577   3.752
 4068TIP3    H212211   3.400   2.653   3.710
 4069TIP3   OH212212   1.091   6.017   1.406
 4069TIP3    H112213   1.140   5.935   1.393
 4069TIP3    H212214   1.006   6.000   1.367
 4070TIP3   OH212215   2.400   2.970   3.835
 4070TIP3    H112216   2.389   3.018   3.917
 4070TIP3    H212217   2.318   2.985   3.788
 4071TIP3   OH212218   2.284   4.816   1.132
 4071TIP3    H112219   2.221   4.888   1.128
 4071TIP3    H212220   2.236   4.740   1.098
 4072TIP3   OH212221   1.695   3.327   2.761
 4072TIP3    H112222   1.774   3.278   2.785
 4072TIP3    H212223   1.623   3.268   2.782
 4073TIP3   OH212224   3.675   4.165   1.186
 4073TIP3    H112225   3.622   4.234   1.226
 4073TIP3    H212226   3.763   4.203   1.179
 4074TIP3   OH212227   1.839   2.739   0.812
 4074TIP3    H112228   1.772   2.792   0.855
 4074TIP3    H212229   1.815   2.649   0.832
 4075TIP3   OH212230   2.675   1.801   4.142
 4075TIP3    H112231   2.592   1.802   4.190
 4075TIP3    H212232   2.697   1.708   4.135
 4076TIP3   OH212233   2.348   4.897   0.292
 4076TIP3    H112234   2.315   4.824   0.344
 4076TIP3    H212235   2.399   4.856   0.223
 4077TIP3   OH212236   4.138   3.841   5.063
 4077TIP3    H112237   4.189   3.762   5.081
 4077TIP3    H212238   4.097   3.824   4.978
 4078TIP3   OH212239   2.868   3.357   0.114
 4078TIP3    H112240   2.951   3.396   0.143
 4078TIP3    H212241   2.829   3.321   0.194
 4079TIP3   OH212242   0.195   0.867   2.408
 4079TIP3    H112243   0.220   0.935   2.471
 4079TIP3    H212244   0.269   0.806   2.408
 4080TIP3   OH212245   2.973   4.483   4.697
 4080TIP3    H112246   2.887   4.520   4.717
 4080TIP3    H212247   3.020   4.482   4.781
 4081TIP3   OH212248   1.174   3.535   1.567
 4081TIP3    H112249   1.090   3.516   1.524
 4081TIP3    H212250   1.240   3.514   1.501
 4082TIP3   OH212251   2.927   2.945   1.940
 4082TIP3    H112252   2.883   3.019   1.983
 4082TIP3    H212253   2.999   2.985   1.891
 4083TIP3   OH212254   0.173   3.960   4.219
 4083TIP3    H112255   0.099   4.009   4.256
 4083TIP3    H212256   0.183   3.885   4.279
 4084TIP3   OH212257   1.504   4.775   4.723
 4084TIP3    H112258   1.546   4.855   4.690
 4084TIP3    H212259   1.414   4.780   4.692
 4085TIP3   OH212260   0.466   5.285   2.828
 4085TIP3    H112261   0.560   5.301   2.840
 4085TIP3    H212262   0.457   5.264   2.736
 4086TIP3   OH212263   6.217   3.616   4.974
 4086TIP3    H112264   6.172   3.697   4.951
 4086TIP3    H212265   6.270   3.595   4.897
 4087TIP3   OH212266   2.319   2.874   0.499
 4087TIP3    H112267   2.341   2.960   0.534
 4087TIP3    H212268   2.228   2.860   0.527
 4088TIP3   OH212269   2.571   2.215   1.509
 4088TIP3    H112270   2.643   2.169   1.467
 4088TIP3    H212271   2.492   2.178   1.470
 4089TIP3   OH212272   3.281   5.357   3.224
 4089TIP3    H112273   3.352   5.419   3.245
 4089TIP3    H212274   3.204   5.412   3.213
 4090TIP3   OH212275   3.545   4.955   1.247
 4090TIP3    H112276   3.495   4.994   1.176
 4090TIP3    H212277   3.637   4.965   1.222
 4091TIP3   OH212278   0.765   3.993   2.700
 4091TIP3    H112279   0.813   3.920   2.662
 4091TIP3    H212280   0.674   3.962   2.705
 4092TIP3   OH212281   4.641   3.408   0.304
 4092TIP3    H112282   4.581   3.369   0.368
 4092TIP3    H212283   4.595   3.402   0.221
 4093TIP3   OH212284   1.009   0.127   0.585
 4093TIP3    H112285   1.095   0.117   0.625
 4093TIP3    H212286   0.995   0.045   0.537
 4094TIP3   OH212287   5.147   4.795   2.791
 4094TIP3    H112288   5.114   4.716   2.833
 4094TIP3    H212289   5.097   4.866   2.831
 4095TIP3   OH212290   4.911   5.097   0.997
 4095TIP3    H112291   4.953   5.096   0.912
 4095TIP3    H212292   4.983   5.100   1.060
 4096TIP3   OH212293   2.318   4.291   0.247
 4096TIP3    H112294   2.373   4.262   0.173
 4096TIP3    H212295   2.308   4.212   0.301
 4097TIP3   OH212296   0.547   2.053   0.669
 4097TIP3    H112297   0.623   2.104   0.643
 4097TIP3    H212298   0.569   1.962   0.648
 4098TIP3   OH212299   3.192   1.435   5.030
 4098TIP3    H112300   3.148   1.495   5.091
 4098TIP3    H212301   3.240   1.492   4.970
 4099TIP3   OH212302   5.482   2.843   4.861
 4099TIP3    H112303   5.391   2.868   4.848
 4099TIP3    H212304   5.482   2.747   4.852
 4100TIP3   OH212305   5.284   2.143   1.750
 4100TIP3    H112306   5.272   2.066   1.695
 4100TIP3    H212307   5.202   2.149   1.800
 4101TIP3   OH212308   3.832   4.714   5.089
 4101TIP3    H112309   3.750   4.701   5.137
 4101TIP3    H212310   3.855   4.805   5.104
 4102TIP3   OH212311   5.100   0.827   3.578
 4102TIP3    H112312   5.024   0.770   3.588
 4102TIP3    H212313   5.163   0.795   3.643
 4103TIP3   OH212314   2.918   5.713   3.424
 4103TIP3    H112315   2.889   5.771   3.354
 4103TIP3    H212316   3.012   5.732   3.434
 4104TIP3   OH212317   3.110   0.489   1.905
 4104TIP3    H112318   3.025   0.445   1.912
 4104TIP3    H212319   3.164   0.449   1.972
 4105TIP3   OH212320   1.131   1.210   0.467
 4105TIP3    H112321   1.152   1.218   0.560
 4105TIP3    H212322   1.043   1.172   0.466
 4106TIP3   OH212323   4.349   3.964   0.500
 4106TIP3    H112324   4.394   3.972   0.417
 4106TIP3    H212325   4.380   3.881   0.536
 4107TIP3   OH212326   4.010   4.935   0.399
 4107TIP3    H112327   3.972   4.999   0.339
 4107TIP3    H212328   4.076   4.985   0.448
 4108TIP3   OH212329   1.733   2.305   3.026
 4108TIP3    H112330   1.759   2.213   3.021
 4108TIP3    H212331   1.729   2.334   2.934
 4109TIP3   OH212332   4.180   4.350   2.042
 4109TIP3    H112333   4.154   4.258   2.044
 4109TIP3    H212334   4.185   4.376   2.134
 4110TIP3   OH212335   3.486   0.473   0.435
 4110TIP3    H112336   3.546   0.410   0.396
 4110TIP3    H212337   3.500   0.554   0.385
 4111TIP3   OH212338   2.613   5.178   4.344
 4111TIP3    H112339   2.567   5.210   4.422
 4111TIP3    H212340   2.586   5.087   4.337
 4112TIP3   OH212341   1.581   4.954   2.461
 4112TIP3    H112342   1.646   4.953   2.530
 4112TIP3    H212343   1.579   5.045   2.431
 4113TIP3   OH212344   5.060   2.390   2.116
 4113TIP3    H112345   5.045   2.304   2.077
 4113TIP3    H212346   4.981   2.407   2.168
 4114TIP3   OH212347   3.405   3.321   1.438
 4114TIP3    H112348   3.312   3.333   1.417
 4114TIP3    H212349   3.451   3.382   1.381
 4115TIP3   OH212350   0.651   4.264   3.615
 4115TIP3    H112351   0.671   4.287   3.705
 4115TIP3    H212352   0.736   4.265   3.570
 4116TIP3   OH212353   2.424   1.058   0.292
 4116TIP3    H112354   2.509   1.028   0.260
 4116TIP3    H212355   2.403   1.133   0.235
 4117TIP3   OH212356   4.774   2.498   3.046
 4117TIP3    H112357   4.809   2.534   2.964
 4117TIP3    H212358   4.679   2.493   3.030
 4118TIP3   OH212359   1.176   3.757   2.878
 4118TIP3    H112360   1.192   3.764   2.784
 4118TIP3    H212361   1.225   3.679   2.905
 4119TIP3   OH212362   4.427   0.746   0.148
 4119TIP3    H112363   4.359   0.681   0.131
 4119TIP3    H212364   4.379   0.823   0.179
 4120TIP3   OH212365   4.218   4.772   1.828
 4120TIP3    H112366   4.191   4.803   1.741
 4120TIP3    H212367   4.185   4.682   1.833
 4121TIP3   OH212368   4.203   0.642   2.341
 4121TIP3    H112369   4.262   0.589   2.395
 4121TIP3    H212370   4.130   0.664   2.399
 4122TIP3   OH212371   0.691   4.447   2.740
 4122TIP3    H112372   0.763   4.510   2.735
 4122TIP3    H212373   0.640   4.463   2.660
 4123TIP3   OH212374   1.174   4.377   5.029
 4123TIP3    H112375   1.098   4.413   4.982
 4123TIP3    H212376   1.246   4.384   4.967
 4124TIP3   OH212377   5.054   4.252   4.337
 4124TIP3    H112378   4.961   4.238   4.318
 4124TIP3    H212379   5.071   4.342   4.309
 4125TIP3   OH212380   5.061   2.027   1.150
 4125TIP3    H112381   5.026   2.114   1.132
 4125TIP3    H212382   5.047   1.978   1.069
 4126TIP3   OH212383   2.993   2.410   3.668
 4126TIP3    H112384   2.900   2.413   3.645
 4126TIP3    H212385   3.020   2.502   3.668
 4127TIP3   OH212386   5.439   0.822   1.872
 4127TIP3    H112387   5.347   0.795   1.867
 4127TIP3    H212388   5.462   0.811   1.964
 4128TIP3   OH212389   0.672   4.356   4.599
 4128TIP3    H112390   0.674   4.290   4.530
 4128TIP3    H212391   0.602   4.416   4.573
 4129TIP3   OH212392   4.377   3.316   1.689
 4129TIP3    H112393   4.406   3.373   1.760
 4129TIP3    H212394   4.456   3.269   1.662
 4130TIP3   OH212395   4.498   0.452   3.262
 4130TIP3    H112396   4.509   0.543   3.290
 4130TIP3    H212397   4.404   0.443   3.246
 4131TIP3   OH212398   5.746   1.397   0.274
 4131TIP3    H112399   5.739   1.470   0.214
 4131TIP3    H212400   5.761   1.320   0.218
 4132TIP3   OH212401   2.615   4.173   0.614
 4132TIP3    H112402   2.652   4.210   0.534
 4132TIP3    H212403   2.520   4.173   0.599
 4133TIP3   OH212404   2.419   5.910   1.096
 4133TIP3    H112405   2.452   5.904   1.185
 4133TIP3    H212406   2.360   5.985   1.097
 4134TIP3   OH212407   0.504   2.679   3.271
 4134TIP3    H112408   0.554   2.671   3.189
 4134TIP3    H212409   0.436   2.743   3.251
 4135TIP3   OH212410   1.767   3.057   3.647
 4135TIP3    H112411   1.742   2.987   3.586
 4135TIP3    H212412   1.684   3.100   3.669
 4136TIP3   OH212413   3.685   1.316   1.097
 4136TIP3    H112414   3.721   1.229   1.116
 4136TIP3    H212415   3.749   1.376   1.134
 4137TIP3   OH212416   3.030   3.027   2.423
 4137TIP3    H112417   3.073   3.112   2.432
 4137TIP3    H212418   3.087   2.978   2.364
 4138TIP3   OH212419   2.365   1.204   3.651
 4138TIP3    H112420   2.371   1.146   3.726
 4138TIP3    H212421   2.372   1.292   3.688
 4139TIP3   OH212422   4.151   4.127   5.106
 4139TIP3    H112423   4.066   4.143   5.147
 4139TIP3    H212424   4.167   4.034   5.119
 4140TIP3   OH212425   4.291   2.439   1.493
 4140TIP3    H112426   4.239   2.370   1.451
 4140TIP3    H212427   4.363   2.455   1.432
 4141TIP3   OH212428   2.585   0.744   4.214
 4141TIP3    H112429   2.566   0.650   4.223
 4141TIP3    H212430   2.514   0.777   4.159
 4142TIP3   OH212431   1.715   4.460   0.085
 4142TIP3    H112432   1.756   4.546   0.073
 4142TIP3    H212433   1.724   4.417  -0.001
 4143TIP3   OH212434   1.671   0.083   2.454
 4143TIP3    H112435   1.611   0.012   2.435
 4143TIP3    H212436   1.655   0.148   2.385
 4144TIP3   OH212437   5.563   3.522   3.786
 4144TIP3    H112438   5.477   3.547   3.752
 4144TIP3    H212439   5.566   3.427   3.778
 4145TIP3   OH212440   3.417   3.958   3.068
 4145TIP3    H112441   3.485   3.970   3.134
 4145TIP3    H212442   3.447   4.009   2.992
 4146TIP3   OH212443   1.905   5.951   0.734
 4146TIP3    H112444   1.967   6.023   0.725
 4146TIP3    H212445   1.829   5.978   0.683
 4147TIP3   OH212446   1.582   2.158   1.028
 4147TIP3    H112447   1.519   2.165   1.100
 4147TIP3    H212448   1.588   2.065   1.010
 4148TIP3   OH212449   4.272   1.049   2.468
 4148TIP3    H112450   4.276   0.980   2.534
 4148TIP3    H212451   4.289   1.004   2.385
 4149TIP3   OH212452   1.036   5.281   2.932
 4149TIP3    H112453   1.108   5.237   2.888
 4149TIP3    H212454   0.996   5.336   2.865
 4150TIP3   OH212455   2.940   3.743   1.303
 4150TIP3    H112456   2.967   3.740   1.211
 4150TIP3    H212457   2.865   3.802   1.304
 4151TIP3   OH212458   1.169   0.346   3.601
 4151TIP3    H112459   1.147   0.254   3.589
 4151TIP3    H212460   1.109   0.376   3.669
 4152TIP3   OH212461   0.352   0.536   2.004
 4152TIP3    H112462   0.383   0.494   1.924
 4152TIP3    H212463   0.287   0.600   1.973
 4153TIP3   OH212464   1.115   5.996   3.369
 4153TIP3    H112465   1.132   5.987   3.275
 4153TIP3    H212466   1.100   5.907   3.399
 4154TIP3   OH212467   4.004   2.210   2.278
 4154TIP3    H112468   4.030   2.160   2.355
 4154TIP3    H212469   4.087   2.241   2.241
 4155TIP3   OH212470   4.666   1.393   3.213
 4155TIP3    H112471   4.653   1.408   3.119
 4155TIP3    H212472   4.577   1.397   3.250
 4156TIP3   OH212473   5.693   2.871   0.120
 4156TIP3    H112474   5.734   2.865   0.207
 4156TIP3    H212475   5.655   2.959   0.118
 4157TIP3   OH212476   4.797   0.103   1.177
 4157TIP3    H112477   4.773   0.148   1.258
 4157TIP3    H212478   4.810   0.012   1.203
 4158TIP3   OH212479   0.895   2.429   1.838
 4158TIP3    H112480   0.879   2.439   1.744
 4158TIP3    H212481   0.971   2.485   1.856
 4159TIP3   OH212482   1.622   3.793   0.778
 4159TIP3    H112483   1.596   3.730   0.846
 4159TIP3    H212484   1.578   3.763   0.699
 4160TIP3   OH212485   6.207   3.027   3.036
 4160TIP3    H112486   6.222   3.067   3.122
 4160TIP3    H212487   6.247   3.088   2.974
 4161TIP3   OH212488   1.131   3.696   4.570
 4161TIP3    H112489   1.076   3.745   4.632
 4161TIP3    H212490   1.155   3.616   4.617
 4162TIP3   OH212491   0.197   1.838   0.917
 4162TIP3    H112492   0.248   1.852   0.997
 4162TIP3    H212493   0.174   1.926   0.887
 4163TIP3   OH212494   5.533   1.374   0.453
 4163TIP3    H112495   5.453   1.414   0.419
 4163TIP3    H212496   5.597   1.386   0.383
 4164TIP3   OH212497   3.303   5.246   1.304
 4164TIP3    H112498   3.370   5.245   1.373
 4164TIP3    H212499   3.338   5.306   1.238
 4165TIP3   OH212500   5.550   4.681   1.651
 4165TIP3    H112501   5.580   4.612   1.592
 4165TIP3    H212502   5.556   4.642   1.738
 4166TIP3   OH212503   4.278   3.074   5.077
 4166TIP3    H112504   4.234   3.132   5.140
 4166TIP3    H212505   4.320   3.133   5.015
 4167TIP3   OH212506   0.963   3.423  -0.010
 4167TIP3    H112507   0.930   3.478   0.061
 4167TIP3    H212508   0.949   3.334   0.021
 4168TIP3   OH212509   3.555   2.287   2.428
 4168TIP3    H112510   3.517   2.371   2.454
 4168TIP3    H212511   3.590   2.302   2.341
 4169TIP3   OH212512   1.283   1.867   3.069
 4169TIP3    H112513   1.310   1.950   3.108
 4169TIP3    H212514   1.211   1.889   3.011
 4170TIP3   OH212515   4.391   1.146   0.111
 4170TIP3    H112516   4.328   1.085   0.150
 4170TIP3    H212517   4.449   1.090   0.060
 4171TIP3   OH212518   5.752   0.961   0.396
 4171TIP3    H112519   5.743   1.043   0.444
 4171TIP3    H212520   5.677   0.908   0.423
 4172TIP3   OH212521   5.392   1.803   5.080
 4172TIP3    H112522   5.352   1.887   5.058
 4172TIP3    H212523   5.479   1.807   5.042
 4173TIP3   OH212524   0.769   1.289   0.086
 4173TIP3    H112525   0.750   1.341   0.164
 4173TIP3    H212526   0.725   1.335   0.015
 4174TIP3   OH212527   6.198   1.206   4.478
 4174TIP3    H112528   6.169   1.181   4.390
 4174TIP3    H212529   6.121   1.193   4.533
 4175TIP3   OH212530   6.123   1.735   0.444
 4175TIP3    H112531   6.180   1.811   0.442
 4175TIP3    H212532   6.176   1.666   0.484
 4176TIP3   OH212533   0.256   0.419   5.148
 4176TIP3    H112534   0.213   0.334   5.158
 4176TIP3    H212535   0.219   0.472   5.219
 4177TIP3   OH212536   4.977   3.748   0.168
 4177TIP3    H112537   4.883   3.730   0.170
 4177TIP3    H212538   4.992   3.805   0.244
 4178TIP3   OH212539   1.390   1.067   3.092
 4178TIP3    H112540   1.380   0.997   3.157
 4178TIP3    H212541   1.309   1.118   3.099
 4179TIP3   OH212542   3.416   0.193   1.990
 4179TIP3    H112543   3.465   0.222   1.913
 4179TIP3    H212544   3.432   0.099   1.995
 4180TIP3   OH212545   5.958   5.191   4.298
 4180TIP3    H112546   6.038   5.233   4.265
 4180TIP3    H212547   5.969   5.099   4.277
 4181TIP3   OH212548   3.208   4.727   2.005
 4181TIP3    H112549   3.208   4.741   1.910
 4181TIP3    H212550   3.130   4.772   2.036
 4182TIP3   OH212551   2.929   2.408   5.069
 4182TIP3    H112552   2.885   2.492   5.079
 4182TIP3    H212553   2.859   2.344   5.060
 4183TIP3   OH212554   3.964   2.321   0.618
 4183TIP3    H112555   4.037   2.378   0.640
 4183TIP3    H212556   3.994   2.233   0.640
 4184TIP3   OH212557   6.245   5.782   5.070
 4184TIP3    H112558   6.336   5.775   5.098
 4184TIP3    H212559   6.226   5.876   5.075
 4185TIP3   OH212560   4.317   4.245   4.552
 4185TIP3    H112561   4.345   4.225   4.641
 4185TIP3    H212562   4.347   4.334   4.537
 4186TIP3   OH212563   2.681   4.926   0.570
 4186TIP3    H112564   2.679   4.962   0.659
 4186TIP3    H212565   2.768   4.949   0.537
 4187TIP3   OH212566   2.780   2.825   2.873
 4187TIP3    H112567   2.704   2.812   2.816
 4187TIP3    H212568   2.750   2.795   2.959
 4188TIP3   OH212569   3.551   4.053   3.716
 4188TIP3    H112570   3.616   4.026   3.782
 4188TIP3    H212571   3.596   4.122   3.666
 4189TIP3   OH212572   4.081   3.621   1.655
 4189TIP3    H112573   4.002   3.674   1.639
 4189TIP3    H212574   4.148   3.661   1.599
 4190TIP3   OH212575   1.647   2.523   4.733
 4190TIP3    H112576   1.703   2.546   4.807
 4190TIP3    H212577   1.685   2.443   4.697
 4191TIP3   OH212578   1.863   2.116   2.704
 4191TIP3    H112579   1.770   2.121   2.724
 4191TIP3    H212580   1.886   2.024   2.715
 4192TIP3   OH212581   6.211   4.390   3.770
 4192TIP3    H112582   6.162   4.316   3.806
 4192TIP3    H212583   6.298   4.383   3.809
 4193TIP3   OH212584   3.012   5.805   0.557
 4193TIP3    H112585   3.002   5.800   0.652
 4193TIP3    H212586   2.979   5.721   0.525
 4194TIP3   OH212587   2.375   4.398   1.601
 4194TIP3    H112588   2.375   4.303   1.611
 4194TIP3    H212589   2.285   4.419   1.574
 4195TIP3   OH212590   0.347   2.015   2.838
 4195TIP3    H112591   0.347   1.984   2.748
 4195TIP3    H212592   0.345   2.111   2.831
 4196TIP3   OH212593   4.882   1.576   3.820
 4196TIP3    H112594   4.815   1.517   3.855
 4196TIP3    H212595   4.959   1.521   3.809
 4197TIP3   OH212596   4.058   3.807   4.804
 4197TIP3    H112597   4.004   3.872   4.759
 4197TIP3    H212598   4.147   3.826   4.776
 4198TIP3   OH212599   1.698   3.085   0.568
 4198TIP3    H112600   1.614   3.129   0.566
 4198TIP3    H212601   1.749   3.133   0.633
 4199TIP3   OH212602   0.884   4.765   0.198
 4199TIP3    H112603   0.893   4.685   0.146
 4199TIP3    H212604   0.892   4.736   0.289
 4200TIP3   OH212605   5.996   2.094   2.930
 4200TIP3    H112606   5.938   2.030   2.889
 4200TIP3    H212607   5.982   2.084   3.024
 4201TIP3   OH212608   2.231   4.128   2.361
 4201TIP3    H112609   2.198   4.083   2.439
 4201TIP3    H212610   2.173   4.099   2.291
 4202TIP3   OH212611   2.773  -0.028   5.139
 4202TIP3    H112612   2.723  -0.053   5.062
 4202TIP3    H212613   2.787   0.066   5.129
 4203TIP3   OH212614   3.302   1.197   0.730
 4203TIP3    H112615   3.329   1.205   0.639
 4203TIP3    H212616   3.226   1.255   0.738
 4204TIP3   OH212617   3.408   3.756   2.037
 4204TIP3    H112618   3.459   3.758   1.955
 4204TIP3    H212619   3.371   3.844   2.044
 4205TIP3   OH212620   3.552   4.518   1.729
 4205TIP3    H112621   3.519   4.601   1.764
 4205TIP3    H212622   3.640   4.509   1.765
 4206TIP3   OH212623   5.427   5.630   1.669
 4206TIP3    H112624   5.411   5.655   1.578
 4206TIP3    H212625   5.409   5.536   1.671
 4207TIP3   OH212626   6.024   5.405   2.726
 4207TIP3    H112627   6.063   5.492   2.728
 4207TIP3    H212628   5.933   5.419   2.751
 4208TIP3   OH212629   2.922   3.562   1.705
 4208TIP3    H112630   2.837   3.532   1.674
 4208TIP3    H212631   2.909   3.580   1.798
 4209TIP3   OH212632   1.893   0.047   4.109
 4209TIP3    H112633   1.883   0.140   4.087
 4209TIP3    H212634   1.879   0.001   4.026
 4210TIP3   OH212635   2.224   2.143   3.566
 4210TIP3    H112636   2.201   2.230   3.598
 4210TIP3    H212637   2.215   2.085   3.641
 4211TIP3   OH212638   2.793   1.016   0.450
 4211TIP3    H112639   2.763   0.953   0.515
 4211TIP3    H212640   2.843   0.964   0.387
 4212TIP3   OH212641   1.187   5.870   4.577
 4212TIP3    H112642   1.134   5.795   4.550
 4212TIP3    H212643   1.276   5.835   4.586
 4213TIP3   OH212644   1.461   2.974   1.518
 4213TIP3    H112645   1.425   2.928   1.442
 4213TIP3    H212646   1.385   3.006   1.566
 4214TIP3   OH212647   4.850   0.011   3.390
 4214TIP3    H112648   4.839   0.102   3.418
 4214TIP3    H212649   4.785  -0.037   3.442
 4215TIP3   OH212650   0.334   1.247   3.072
 4215TIP3    H112651   0.333   1.333   3.031
 4215TIP3    H212652   0.423   1.235   3.103
 4216TIP3   OH212653   2.946   1.943   0.710
 4216TIP3    H112654   2.999   1.975   0.637
 4216TIP3    H212655   2.972   1.851   0.718
 4217TIP3   OH212656   5.034   2.157   1.978
 4217TIP3    H112657   4.947   2.130   1.948
 4217TIP3    H212658   5.050   2.102   2.055
 4218TIP3   OH212659   1.148   1.289   3.708
 4218TIP3    H112660   1.137   1.194   3.705
 4218TIP3    H212661   1.074   1.324   3.658
 4219TIP3   OH212662   5.060   0.592   0.940
 4219TIP3    H112663   5.078   0.503   0.912
 4219TIP3    H212664   5.004   0.628   0.870
 4220TIP3   OH212665   6.329   4.593   3.114
 4220TIP3    H112666   6.264   4.554   3.172
 4220TIP3    H212667   6.322   4.687   3.130
 4221TIP3   OH212668   2.508   0.518   3.633
 4221TIP3    H112669   2.565   0.589   3.604
 4221TIP3    H212670   2.423   0.537   3.592
 4222TIP3   OH212671   3.379   2.770   1.384
 4222TIP3    H112672   3.468   2.790   1.355
 4222TIP3    H212673   3.323   2.829   1.334
 4223TIP3   OH212674   4.321   4.666   1.045
 4223TIP3    H112675   4.397   4.687   0.991
 4223TIP3    H212676   4.246   4.680   0.989
 4224TIP3   OH212677   1.714   2.402   2.763
 4224TIP3    H112678   1.645   2.461   2.792
 4224TIP3    H212679   1.671   2.343   2.700
 4225TIP3   OH212680   1.176   0.340   5.054
 4225TIP3    H112681   1.232   0.395   5.108
 4225TIP3    H212682   1.235   0.300   4.990
 4226TIP3   OH212683   3.868   4.306   2.897
 4226TIP3    H112684   3.873   4.348   2.811
 4226TIP3    H212685   3.934   4.352   2.949
 4227TIP3   OH212686   2.249   4.005   1.778
 4227TIP3    H112687   2.204   3.935   1.827
 4227TIP3    H212688   2.284   4.063   1.846
 4228TIP3   OH212689   2.904   3.133   2.166
 4228TIP3    H112690   2.982   3.139   2.110
 4228TIP3    H212691   2.938   3.110   2.252
 4229TIP3   OH212692   4.877   4.444   5.143
 4229TIP3    H112693   4.824   4.381   5.191
 4229TIP3    H212694   4.967   4.424   5.170
 4230TIP3   OH212695   2.057   2.572   4.615
 4230TIP3    H112696   2.050   2.655   4.568
 4230TIP3    H212697   2.096   2.595   4.699
 4231TIP3   OH212698   5.868   4.050   5.035
 4231TIP3    H112699   5.854   4.073   4.943
 4231TIP3    H212700   5.927   3.975   5.032
 4232TIP3   OH212701   4.253   3.115   0.561
 4232TIP3    H112702   4.258   3.068   0.478
 4232TIP3    H212703   4.169   3.087   0.599
 4233TIP3   OH212704   5.089   4.038   5.136
 4233TIP3    H112705   5.125   4.127   5.139
 4233TIP3    H212706   5.041   4.035   5.053
 4234TIP3   OH212707   0.276   4.697   1.685
 4234TIP3    H112708   0.300   4.606   1.674
 4234TIP3    H212709   0.291   4.737   1.599
 4235TIP3   OH212710   1.890   1.215   2.358
 4235TIP3    H112711   1.797   1.206   2.337
 4235TIP3    H212712   1.893   1.215   2.454
 4236TIP3   OH212713   5.857   1.626   0.430
 4236TIP3    H112714   5.931   1.688   0.423
 4236TIP3    H212715   5.888   1.548   0.384
 4237TIP3   OH212716   5.864   5.534   0.883
 4237TIP3    H112717   5.908   5.449   0.881
 4237TIP3    H212718   5.900   5.581   0.807
 4238TIP3   OH212719   4.122   5.555   3.592
 4238TIP3    H112720   4.033   5.541   3.559
 4238TIP3    H212721   4.151   5.468   3.620
 4239TIP3   OH212722   4.231   3.176   0.877
 4239TIP3    H112723   4.282   3.108   0.920
 4239TIP3    H212724   4.173   3.129   0.817
 4240TIP3   OH212725   5.871   2.671   0.305
 4240TIP3    H112726   5.827   2.733   0.363
 4240TIP3    H212727   5.910   2.606   0.364
 4241TIP3   OH212728   1.241   0.346   2.348
 4241TIP3    H112729   1.298   0.282   2.305
 4241TIP3    H212730   1.200   0.297   2.419
 4242TIP3   OH212731   3.187   2.720   4.642
 4242TIP3    H112732   3.182   2.678   4.556
 4242TIP3    H212733   3.253   2.669   4.689
 4243TIP3   OH212734   4.196   3.141   2.287
 4243TIP3    H112735   4.278   3.159   2.333
 4243TIP3    H212736   4.130   3.190   2.337
 4244TIP3   OH212737   0.422   3.730   4.870
 4244TIP3    H112738   0.486   3.800   4.856
 4244TIP3    H212739   0.362   3.738   4.796
 4245TIP3   OH212740   4.882   4.926   2.490
 4245TIP3    H112741   4.924   4.890   2.413
 4245TIP3    H212742   4.927   5.009   2.506
 4246TIP3   OH212743   5.316   1.558   2.011
 4246TIP3    H112744   5.342   1.477   1.966
 4246TIP3    H212745   5.387   1.573   2.074
 4247TIP3   OH212746   4.794   1.589   0.364
 4247TIP3    H112747   4.708   1.628   0.381
 4247TIP3    H212748   4.856   1.654   0.398
 4248TIP3   OH212749   3.584   5.433   4.739
 4248TIP3    H112750   3.594   5.371   4.811
 4248TIP3    H212751   3.535   5.385   4.673
 4249TIP3   OH212752   1.312   4.187   0.079
 4249TIP3    H112753   1.263   4.118   0.034
 4249TIP3    H212754   1.403   4.158   0.075
 4250TIP3   OH212755   1.168   4.228   0.872
 4250TIP3    H112756   1.155   4.178   0.791
 4250TIP3    H212757   1.176   4.162   0.940
 4251TIP3   OH212758   0.161   0.319   0.422
 4251TIP3    H112759   0.078   0.276   0.442
 4251TIP3    H212760   0.228   0.255   0.444
 4252TIP3   OH212761   3.855   4.462   0.256
 4252TIP3    H112762   3.860   4.412   0.338
 4252TIP3    H212763   3.912   4.537   0.271
 4253TIP3   OH212764   4.911   4.621   0.481
 4253TIP3    H112765   4.904   4.612   0.576
 4253TIP3    H212766   5.004   4.609   0.462
 4254TIP3   OH212767   5.038   2.373   2.482
 4254TIP3    H112768   4.951   2.365   2.444
 4254TIP3    H212769   5.090   2.306   2.438
 4255TIP3   OH212770   6.125   1.373   3.442
 4255TIP3    H112771   6.152   1.437   3.376
 4255TIP3    H212772   6.031   1.362   3.428
 4256TIP3   OH212773   3.096   4.921   4.844
 4256TIP3    H112774   3.134   4.984   4.783
 4256TIP3    H212775   3.160   4.850   4.847
 4257TIP3   OH212776   1.823   4.239   2.709
 4257TIP3    H112777   1.843   4.161   2.657
 4257TIP3    H212778   1.739   4.220   2.750
 4258TIP3   OH212779   5.076   5.534   4.785
 4258TIP3    H112780   5.101   5.454   4.739
 4258TIP3    H212781   5.148   5.551   4.846
 4259TIP3   OH212782   5.214   2.860   4.897
 4259TIP3    H112783   5.182   2.946   4.925
 4259TIP3    H212784   5.242   2.817   4.977
 4260TIP3   OH212785   2.720   2.912   1.280
 4260TIP3    H112786   2.638   2.864   1.266
 4260TIP3    H212787   2.788   2.850   1.254
 4261TIP3   OH212788   5.490   0.700   4.179
 4261TIP3    H112789   5.562   0.746   4.223
 4261TIP3    H212790   5.452   0.644   4.247
 4262TIP3   OH212791   1.787   4.132   5.012
 4262TIP3    H112792   1.802   4.208   4.956
 4262TIP3    H212793   1.874   4.092   5.022
 4263TIP3   OH212794   3.305   2.523   4.763
 4263TIP3    H112795   3.369   2.482   4.821
 4263TIP3    H212796   3.239   2.456   4.749
 4264TIP3   OH212797   3.545   5.869   0.247
 4264TIP3    H112798   3.554   5.953   0.293
 4264TIP3    H212799   3.469   5.828   0.289
 4265TIP3   OH212800   1.449   5.431   4.924
 4265TIP3    H112801   1.429   5.379   5.002
 4265TIP3    H212802   1.365   5.469   4.899
 4266TIP3   OH212803   3.361   1.826   3.487
 4266TIP3    H112804   3.358   1.735   3.517
 4266TIP3    H212805   3.358   1.820   3.391
 4267TIP3   OH212806   1.457   5.337   0.047
 4267TIP3    H112807   1.432   5.412   0.100
 4267TIP3    H212808   1.392   5.334  -0.023
 4268TIP3   OH212809   0.888   1.834   1.132
 4268TIP3    H112810   0.846   1.755   1.097
 4268TIP3    H212811   0.815   1.891   1.158
 4269TIP3   OH212812   6.314   4.566   2.833
 4269TIP3    H112813   6.403   4.594   2.811
 4269TIP3    H212814   6.305   4.586   2.926
 4270TIP3   OH212815   1.734   4.802   3.601
 4270TIP3    H112816   1.692   4.867   3.657
 4270TIP3    H212817   1.802   4.763   3.655
 4271TIP3   OH212818   3.777   1.858   2.159
 4271TIP3    H112819   3.857   1.838   2.208
 4271TIP3    H212820   3.794   1.825   2.071
 4272TIP3   OH212821   5.256   1.115   2.306
 4272TIP3    H112822   5.228   1.169   2.232
 4272TIP3    H212823   5.175   1.081   2.343
 4273TIP3   OH212824   0.657   4.327   3.885
 4273TIP3    H112825   0.702   4.411   3.878
 4273TIP3    H212826   0.578   4.346   3.935
 4274TIP3   OH212827   3.743   2.376   2.000
 4274TIP3    H112828   3.759   2.389   2.094
 4274TIP3    H212829   3.658   2.332   1.996
 4275TIP3   OH212830   5.812   1.908   0.381
 4275TIP3    H112831   5.816   1.908   0.477
 4275TIP3    H212832   5.738   1.852   0.360
 4276TIP3   OH212833   2.160   0.995   5.005
 4276TIP3    H112834   2.085   0.936   5.003
 4276TIP3    H212835   2.151   1.041   5.089
 4277TIP3   OH212836   4.894   3.500   5.053
 4277TIP3    H112837   4.886   3.592   5.025
 4277TIP3    H212838   4.987   3.482   5.047
 4278TIP3   OH212839   1.886   1.495   2.997
 4278TIP3    H112840   1.938   1.572   3.016
 4278TIP3    H212841   1.796   1.526   2.994
 4279TIP3   OH212842   4.988   4.272   1.070
 4279TIP3    H112843   4.939   4.281   1.152
 4279TIP3    H212844   4.958   4.346   1.017
 4280TIP3   OH212845   3.333   2.148   1.222
 4280TIP3    H112846   3.324   2.146   1.317
 4280TIP3    H212847   3.365   2.236   1.203
 4281TIP3   OH212848   3.172   2.559   1.176
 4281TIP3    H112849   3.148   2.537   1.266
 4281TIP3    H212850   3.268   2.552   1.175
 4282TIP3   OH212851   2.330   2.136   0.293
 4282TIP3    H112852   2.401   2.152   0.231
 4282TIP3    H212853   2.314   2.221   0.334
 4283TIP3   OH212854   0.008   1.946   4.006
 4283TIP3    H112855   0.079   1.933   3.944
 4283TIP3    H212856  -0.063   1.983   3.954
 4284TIP3   OH212857   2.692   1.450   0.314
 4284TIP3    H112858   2.672   1.421   0.403
 4284TIP3    H212859   2.779   1.489   0.320
 4285TIP3   OH212860   2.391   2.103   1.306
 4285TIP3    H112861   2.444   2.158   1.249
 4285TIP3    H212862   2.394   2.016   1.265
 4286TIP3   OH212863   5.273   2.366   4.396
 4286TIP3    H112864   5.182   2.393   4.387
 4286TIP3    H212865   5.295   2.325   4.312
 4287TIP3   OH212866   0.110   3.631   2.952
 4287TIP3    H112867   0.124   3.591   3.038
 4287TIP3    H212868   0.127   3.724   2.965
 4288TIP3   OH212869   4.007   5.977   0.319
 4288TIP3    H112870   3.939   5.920   0.355
 4288TIP3    H212871   4.037   5.931   0.240
 4289TIP3   OH212872   0.553   1.845   1.911
 4289TIP3    H112873   0.580   1.762   1.872
 4289TIP3    H212874   0.458   1.842   1.910
 4290TIP3   OH212875   4.428   4.510   4.193
 4290TIP3    H112876   4.335   4.489   4.200
 4290TIP3    H212877   4.471   4.425   4.183
 4291TIP3   OH212878   2.388   2.450   1.449
 4291TIP3    H112879   2.310   2.448   1.506
 4291TIP3    H212880   2.461   2.431   1.508
 4292TIP3   OH212881   5.399   2.182   2.239
 4292TIP3    H112882   5.462   2.239   2.195
 4292TIP3    H212883   5.452   2.123   2.292
 4293TIP3   OH212884   2.926   4.040   3.660
 4293TIP3    H112885   2.851   4.097   3.649
 4293TIP3    H212886   2.892   3.963   3.704
 4294TIP3   OH212887   4.846   4.630   4.103
 4294TIP3    H112888   4.759   4.621   4.141
 4294TIP3    H212889   4.899   4.667   4.172
 4295TIP3   OH212890   5.246   2.617   4.180
 4295TIP3    H112891   5.221   2.648   4.267
 4295TIP3    H212892   5.192   2.668   4.120
 4296TIP3   OH212893   5.750   4.316   3.402
 4296TIP3    H112894   5.718   4.406   3.395
 4296TIP3    H212895   5.838   4.326   3.438
 4297TIP3   OH212896   3.161   2.820   3.538
 4297TIP3    H112897   3.221   2.746   3.544
 4297TIP3    H212898   3.138   2.825   3.445
 4298TIP3   OH212899   4.421   3.002   1.822
 4298TIP3    H112900   4.410   3.027   1.914
 4298TIP3    H212901   4.475   3.072   1.785
 4299TIP3   OH212902   1.067   2.807   1.589
 4299TIP3    H112903   1.126   2.778   1.519
 4299TIP3    H212904   1.010   2.731   1.605
 4300TIP3   OH212905   5.155   1.023   2.654
 4300TIP3    H112906   5.124   1.108   2.687
 4300TIP3    H212907   5.249   1.033   2.645
 4301TIP3   OH212908   1.007   1.678   1.512
 4301TIP3    H112909   1.030   1.770   1.518
 4301TIP3    H212910   0.940   1.665   1.580
 4302TIP3   OH212911   3.129   5.551   0.514
 4302TIP3    H112912   3.159   5.461   0.527
 4302TIP3    H212913   3.053   5.544   0.457
 4303TIP3   OH212914   1.610   2.037   2.308
 4303TIP3    H112915   1.610   2.005   2.398
 4303TIP3    H212916   1.667   2.115   2.310
 4304TIP3   OH212917   5.066   5.761   1.204
 4304TIP3    H112918   5.130   5.692   1.223
 4304TIP3    H212919   4.982   5.725   1.236
 4305TIP3   OH212920   1.482   4.971   2.104
 4305TIP3    H112921   1.437   4.894   2.141
 4305TIP3    H212922   1.528   4.937   2.027
 4306TIP3   OH212923   6.012   6.000   1.968
 4306TIP3    H112924   5.994   5.978   1.876
 4306TIP3    H212925   6.100   5.965   1.984
 4307TIP3   OH212926   1.023   4.412   0.490
 4307TIP3    H112927   1.081   4.488   0.495
 4307TIP3    H212928   1.076   4.339   0.523
 4308TIP3   OH212929   1.283   4.662   4.921
 4308TIP3    H112930   1.324   4.582   4.889
 4308TIP3    H212931   1.195   4.636   4.947
 4309TIP3   OH212932   1.748   3.437   1.954
 4309TIP3    H112933   1.718   3.473   2.037
 4309TIP3    H212934   1.778   3.349   1.976
 4310TIP3   OH212935   4.602   4.783   2.401
 4310TIP3    H112936   4.692   4.769   2.373
 4310TIP3    H212937   4.590   4.722   2.474
 4311TIP3   OH212938   3.383   5.060   0.578
 4311TIP3    H112939   3.342   5.136   0.535
 4311TIP3    H212940   3.332   5.048   0.658
 4312TIP3   OH212941   5.788   5.389   1.474
 4312TIP3    H112942   5.708   5.365   1.522
 4312TIP3    H212943   5.758   5.455   1.411
 4313TIP3   OH212944   1.384   2.429   0.520
 4313TIP3    H112945   1.473   2.446   0.552
 4313TIP3    H212946   1.346   2.516   0.509
 4314TIP3   OH212947   4.150   3.189   2.665
 4314TIP3    H112948   4.155   3.101   2.626
 4314TIP3    H212949   4.239   3.205   2.698
 4315TIP3   OH212950   4.347   5.060   2.498
 4315TIP3    H112951   4.337   4.998   2.425
 4315TIP3    H212952   4.292   5.134   2.474
 4316TIP3   OH212953   5.727   4.266   2.246
 4316TIP3    H112954   5.749   4.265   2.339
 4316TIP3    H212955   5.809   4.291   2.202
 4317TIP3   OH212956   0.129   2.117   4.634
 4317TIP3    H112957   0.047   2.142   4.592
 4317TIP3    H212958   0.128   2.162   4.718
 4318TIP3   OH212959   0.669   1.674   4.291
 4318TIP3    H112960   0.676   1.753   4.345
 4318TIP3    H212961   0.665   1.707   4.201
 4319TIP3   OH212962   0.759   3.386   0.681
 4319TIP3    H112963   0.836   3.363   0.733
 4319TIP3    H212964   0.760   3.482   0.679
 4320TIP3   OH212965   5.182   5.246   4.678
 4320TIP3    H112966   5.203   5.222   4.768
 4320TIP3    H212967   5.101   5.198   4.659
 4321TIP3   OH212968   3.858   0.570   3.829
 4321TIP3    H112969   3.882   0.519   3.751
 4321TIP3    H212970   3.833   0.505   3.894
 4322TIP3   OH212971   4.479   4.849   0.227
 4322TIP3    H112972   4.476   4.755   0.212
 4322TIP3    H212973   4.562   4.864   0.273
 4323TIP3   OH212974   3.964   5.303   4.281
 4323TIP3    H112975   3.875   5.337   4.273
 4323TIP3    H212976   3.952   5.212   4.308
 4324TIP3   OH212977   3.517   0.152   2.362
 4324TIP3    H112978   3.457   0.082   2.337
 4324TIP3    H212979   3.568   0.115   2.433
 4325TIP3   OH212980   2.294   1.928   0.088
 4325TIP3    H112981   2.204   1.958   0.102
 4325TIP3    H212982   2.347   1.984   0.145
 4326TIP3   OH212983   1.967   2.484   1.980
 4326TIP3    H112984   1.942   2.496   2.072
 4326TIP3    H212985   1.974   2.389   1.969
 4327TIP3   OH212986   4.041   2.214   3.014
 4327TIP3    H112987   4.017   2.123   3.032
 4327TIP3    H212988   3.962   2.264   3.034
 4328TIP3   OH212989   0.745   3.791   3.730
 4328TIP3    H112990   0.804   3.843   3.785
 4328TIP3    H212991   0.731   3.845   3.652
 4329TIP3   OH212992   2.231   2.991   3.599
 4329TIP3    H112993   2.227   3.086   3.614
 4329TIP3    H212994   2.180   2.977   3.520
 4330TIP3   OH212995   2.727   0.551   1.749
 4330TIP3    H112996   2.808   0.513   1.780
 4330TIP3    H212997   2.689   0.594   1.826
 4331TIP3   OH212998   1.281   5.101   2.936
 4331TIP3    H112999   1.275   5.111   3.031
 4331TIP3    H213000   1.375   5.086   2.920
 4332TIP3   OH213001   0.780   5.046   1.859
 4332TIP3    H113002   0.830   5.074   1.782
 4332TIP3    H213003   0.799   5.113   1.925
 4333TIP3   OH213004   2.523   4.905   4.354
 4333TIP3    H113005   2.450   4.908   4.416
 4333TIP3    H213006   2.495   4.845   4.286
 4334TIP3   OH213007   5.307   5.246   1.909
 4334TIP3    H113008   5.332   5.188   1.980
 4334TIP3    H213009   5.226   5.208   1.874
 4335TIP3   OH213010   5.517   0.085   0.860
 4335TIP3    H113011   5.530   0.179   0.875
 4335TIP3    H213012   5.605   0.048   0.864
 4336TIP3   OH213013   3.949   0.634   0.885
 4336TIP3    H113014   4.012   0.645   0.813
 4336TIP3    H213015   4.003   0.617   0.962
 4337TIP3   OH213016   0.888   0.881   1.308
 4337TIP3    H113017   0.914   0.958   1.359
 4337TIP3    H213018   0.945   0.811   1.339
 4338TIP3   OH213019   0.600   0.460   0.762
 4338TIP3    H113020   0.554   0.426   0.685
 4338TIP3    H213021   0.687   0.419   0.758
 4339TIP3   OH213022   1.631   2.850   3.511
 4339TIP3    H113023   1.662   2.774   3.462
 4339TIP3    H213024   1.580   2.813   3.583
 4340TIP3   OH213025   1.067   0.814   1.838
 4340TIP3    H113026   1.120   0.827   1.759
 4340TIP3    H213027   1.131   0.807   1.909
 4341TIP3   OH213028   3.268   4.462   2.935
 4341TIP3    H113029   3.215   4.384   2.915
 4341TIP3    H213030   3.258   4.474   3.030
 4342TIP3   OH213031   1.242   0.764   2.035
 4342TIP3    H113032   1.278   0.684   2.073
 4342TIP3    H213033   1.245   0.828   2.106
 4343TIP3   OH213034   1.618   5.723   3.701
 4343TIP3    H113035   1.576   5.665   3.765
 4343TIP3    H213036   1.649   5.798   3.752
 4344TIP3   OH213037   4.375   2.357   2.465
 4344TIP3    H113038   4.330   2.385   2.385
 4344TIP3    H213039   4.315   2.382   2.536
 4345TIP3   OH213040   1.126   3.025   2.045
 4345TIP3    H113041   1.201   2.972   2.016
 4345TIP3    H213042   1.085   2.974   2.114
 4346TIP3   OH213043   2.805   0.227   4.091
 4346TIP3    H113044   2.836   0.280   4.164
 4346TIP3    H213045   2.882   0.176   4.064
 4347TIP3   OH213046   1.416   1.354   3.651
 4347TIP3    H113047   1.444   1.277   3.601
 4347TIP3    H213048   1.328   1.332   3.682
 4348TIP3   OH213049   0.838   4.574   3.180
 4348TIP3    H113050   0.928   4.582   3.147
 4348TIP3    H213051   0.838   4.492   3.229
 4349TIP3   OH213052   2.256   2.761   1.029
 4349TIP3    H113053   2.335   2.796   1.070
 4349TIP3    H213054   2.261   2.667   1.041
 4350TIP3   OH213055   1.369   2.509   3.841
 4350TIP3    H113056   1.319   2.589   3.858
 4350TIP3    H213057   1.387   2.473   3.928
 4351TIP3   OH213058   2.629   0.625   1.989
 4351TIP3    H113059   2.648   0.585   2.074
 4351TIP3    H213060   2.534   0.622   1.983
 4352TIP3   OH213061   3.753   2.444   1.344
 4352TIP3    H113062   3.723   2.526   1.384
 4352TIP3    H213063   3.673   2.392   1.332
 4353TIP3   OH213064   2.682   0.155   2.134
 4353TIP3    H113065   2.684   0.238   2.182
 4353TIP3    H213066   2.654   0.180   2.046
 4354TIP3   OH213067   3.530   4.756   1.875
 4354TIP3    H113068   3.500   4.828   1.930
 4354TIP3    H213069   3.608   4.790   1.831
 4355TIP3   OH213070   3.048   4.291   2.839
 4355TIP3    H113071   3.070   4.244   2.920
 4355TIP3    H213072   3.038   4.221   2.773
 4356TIP3   OH213073   4.256   3.204   3.912
 4356TIP3    H113074   4.335   3.152   3.896
 4356TIP3    H213075   4.279   3.260   3.986
 4357TIP3   OH213076   0.713   1.985   1.583
 4357TIP3    H113077   0.621   1.992   1.609
 4357TIP3    H213078   0.753   1.929   1.649
 4358TIP3   OH213079   0.387   1.353   1.994
 4358TIP3    H113080   0.469   1.346   1.946
 4358TIP3    H213081   0.369   1.264   2.025
 4359TIP3   OH213082   3.515   1.219   1.443
 4359TIP3    H113083   3.486   1.182   1.359
 4359TIP3    H213084   3.518   1.143   1.501
 4360TIP3   OH213085   3.041   1.847   2.185
 4360TIP3    H113086   2.984   1.777   2.156
 4360TIP3    H213087   3.119   1.840   2.130
 4361TIP3   OH213088   2.847   0.977   1.567
 4361TIP3    H113089   2.836   1.022   1.484
 4361TIP3    H213090   2.855   0.885   1.543
 4362TIP3   OH213091   5.362   5.588   0.243
 4362TIP3    H113092   5.307   5.658   0.278
 4362TIP3    H213093   5.329   5.509   0.285
 4363TIP3   OH213094   6.168   4.213   2.286
 4363TIP3    H113095   6.229   4.139   2.280
 4363TIP3    H213096   6.117   4.208   2.205
 4364TIP3   OH213097   2.503   2.225   4.422
 4364TIP3    H113098   2.416   2.262   4.409
 4364TIP3    H213099   2.488   2.141   4.465
 4365TIP3   OH213100   3.956   1.448   2.570
 4365TIP3    H113101   3.981   1.357   2.589
 4365TIP3    H213102   3.871   1.458   2.612
 4366TIP3   OH213103   4.352   1.185   3.334
 4366TIP3    H113104   4.339   1.237   3.255
 4366TIP3    H213105   4.263   1.164   3.362
 4367TIP3   OH213106   2.752   0.788   3.075
 4367TIP3    H113107   2.706   0.717   3.029
 4367TIP3    H213108   2.793   0.838   3.004
 4368TIP3   OH213109   1.853   2.393   4.563
 4368TIP3    H113110   1.926   2.454   4.566
 4368TIP3    H213111   1.881   2.320   4.618
 4369TIP3   OH213112   1.528   2.843   3.918
 4369TIP3    H113113   1.503   2.931   3.948
 4369TIP3    H213114   1.445   2.800   3.900
 4370TIP3   OH213115   5.193   5.823   3.049
 4370TIP3    H113116   5.241   5.901   3.022
 4370TIP3    H213117   5.234   5.797   3.132
 4371TIP3   OH213118   2.900   0.161   3.283
 4371TIP3    H113119   2.885   0.101   3.210
 4371TIP3    H213120   2.988   0.195   3.268
 4372TIP3   OH213121   5.090   1.504   2.170
 4372TIP3    H113122   5.015   1.545   2.127
 4372TIP3    H213123   5.164   1.518   2.111
 4373TIP3   OH213124   0.600   3.971   3.061
 4373TIP3    H113125   0.621   3.890   3.015
 4373TIP3    H213126   0.685   4.012   3.079
 4374TIP3   OH213127   5.809   1.916   2.091
 4374TIP3    H113128   5.870   1.855   2.132
 4374TIP3    H213129   5.863   1.971   2.034
 4375TIP3   OH213130   2.343   4.562   0.105
 4375TIP3    H113131   2.408   4.631   0.120
 4375TIP3    H213132   2.331   4.521   0.191
 4376TIP3   OH213133   3.455   0.552   4.247
 4376TIP3    H113134   3.423   0.591   4.165
 4376TIP3    H213135   3.549   0.566   4.245
 4377TIP3   OH213136   4.185   4.521   0.028
 4377TIP3    H113137   4.109   4.560   0.071
 4377TIP3    H213138   4.148   4.459  -0.035
 4378TIP3   OH213139   2.879   4.159   1.157
 4378TIP3    H113140   2.813   4.090   1.165
 4378TIP3    H213141   2.869   4.211   1.237
 4379TIP3   OH213142   2.422   3.523   5.148
 4379TIP3    H113143   2.474   3.603   5.153
 4379TIP3    H213144   2.378   3.517   5.233
 4380TIP3   OH213145   0.262   0.998   4.767
 4380TIP3    H113146   0.181   1.048   4.771
 4380TIP3    H213147   0.295   0.998   4.856
 4381TIP3   OH213148   0.204   1.488   2.564
 4381TIP3    H113149   0.196   1.569   2.614
 4381TIP3    H213150   0.297   1.485   2.539
 4382TIP3   OH213151   5.175   5.207   2.766
 4382TIP3    H113152   5.246   5.271   2.765
 4382TIP3    H213153   5.166   5.182   2.857
 4383TIP3   OH213154   1.342   3.920   0.467
 4383TIP3    H113155   1.401   3.916   0.392
 4383TIP3    H213156   1.375   3.994   0.519
 4384TIP3   OH213157   1.469   4.435   3.892
 4384TIP3    H113158   1.439   4.388   3.814
 4384TIP3    H213159   1.437   4.384   3.966
 4385TIP3   OH213160   0.903   5.120   0.247
 4385TIP3    H113161   0.953   5.198   0.271
 4385TIP3    H213162   0.957   5.076   0.182
 4386TIP3   OH213163   4.665   2.618   5.191
 4386TIP3    H113164   4.663   2.523   5.184
 4386TIP3    H213165   4.629   2.649   5.107
 4387TIP3   OH213166   4.428   0.114   1.324
 4387TIP3    H113167   4.454   0.190   1.272
 4387TIP3    H213168   4.510   0.077   1.356
 4388TIP3   OH213169   1.316   4.894   3.537
 4388TIP3    H113170   1.253   4.945   3.487
 4388TIP3    H213171   1.272   4.874   3.619
 4389TIP3   OH213172   0.851   4.926   5.055
 4389TIP3    H113173   0.833   4.983   5.130
 4389TIP3    H213174   0.836   4.837   5.088
 4390TIP3   OH213175   5.957   4.145   0.898
 4390TIP3    H113176   5.929   4.171   0.810
 4390TIP3    H213177   6.040   4.190   0.911
 4391TIP3   OH213178   6.130   5.209   0.086
 4391TIP3    H113179   6.086   5.240   0.166
 4391TIP3    H213180   6.181   5.284   0.056
 4392TIP3   OH213181   5.360   2.024   2.651
 4392TIP3    H113182   5.415   2.083   2.599
 4392TIP3    H213183   5.274   2.029   2.609
 4393TIP3   OH213184   0.864   1.367   2.189
 4393TIP3    H113185   0.871   1.459   2.215
 4393TIP3    H213186   0.843   1.321   2.271
 4394TIP3   OH213187   2.198   2.908   2.777
 4394TIP3    H113188   2.203   2.835   2.839
 4394TIP3    H213189   2.209   2.986   2.832
 4395TIP3   OH213190   3.486   5.727   4.342
 4395TIP3    H113191   3.485   5.819   4.314
 4395TIP3    H213192   3.517   5.730   4.432
 4396TIP3   OH213193   4.851   4.772   3.176
 4396TIP3    H113194   4.847   4.693   3.229
 4396TIP3    H213195   4.764   4.812   3.187
 4397TIP3   OH213196   6.028   0.189   0.895
 4397TIP3    H113197   6.065   0.275   0.916
 4397TIP3    H213198   6.080   0.158   0.821
 4398TIP3   OH213199   1.037   2.478   1.465
 4398TIP3    H113200   1.056   2.388   1.491
 4398TIP3    H213201   0.964   2.505   1.521
 4399TIP3   OH213202   4.943   3.065   3.541
 4399TIP3    H113203   4.973   3.151   3.570
 4399TIP3    H213204   5.022   3.012   3.537
 4400TIP3   OH213205   6.152   1.935   4.726
 4400TIP3    H113206   6.095   1.878   4.777
 4400TIP3    H213207   6.092   1.982   4.668
 4401TIP3   OH213208   3.978   0.919   3.928
 4401TIP3    H113209   4.048   0.942   3.866
 4401TIP3    H213210   3.897   0.936   3.880
 4402TIP3   OH213211   2.003   1.672   0.992
 4402TIP3    H113212   1.926   1.614   0.984
 4402TIP3    H213213   1.972   1.757   0.962
 4403TIP3   OH213214   4.550   5.865   3.389
 4403TIP3    H113215   4.461   5.894   3.407
 4403TIP3    H213216   4.540   5.787   3.335
 4404TIP3   OH213217   2.019   0.441   1.914
 4404TIP3    H113218   1.933   0.402   1.927
 4404TIP3    H213219   2.001   0.527   1.875
 4405TIP3   OH213220   0.535   2.374   2.916
 4405TIP3    H113221   0.450   2.389   2.958
 4405TIP3    H213222   0.599   2.412   2.977
 4406TIP3   OH213223   0.700   2.385   3.713
 4406TIP3    H113224   0.750   2.388   3.795
 4406TIP3    H213225   0.710   2.295   3.683
 4407TIP3   OH213226   4.587   4.249   4.144
 4407TIP3    H113227   4.605   4.278   4.055
 4407TIP3    H213228   4.573   4.154   4.135
 4408TIP3   OH213229   0.651   2.042   4.725
 4408TIP3    H113230   0.733   2.065   4.770
 4408TIP3    H213231   0.584   2.052   4.792
 4409TIP3   OH213232   4.710   5.141   2.742
 4409TIP3    H113233   4.742   5.072   2.799
 4409TIP3    H213234   4.721   5.221   2.794
 4410TIP3   OH213235   0.536   3.890   1.605
 4410TIP3    H113236   0.503   3.826   1.542
 4410TIP3    H213237   0.537   3.844   1.689
 4411TIP3   OH213238   1.480   0.611   4.840
 4411TIP3    H113239   1.472   0.656   4.756
 4411TIP3    H213240   1.419   0.537   4.834
 4412TIP3   OH213241   5.862   3.387   1.714
 4412TIP3    H113242   5.893   3.322   1.777
 4412TIP3    H213243   5.862   3.341   1.630
 4413TIP3   OH213244   6.058   5.708   1.118
 4413TIP3    H113245   6.080   5.688   1.209
 4413TIP3    H213246   6.075   5.627   1.071
 4414TIP3   OH213247   4.677   1.819   4.235
 4414TIP3    H113248   4.613   1.890   4.242
 4414TIP3    H213249   4.637   1.757   4.175
 4415TIP3   OH213250   2.854   2.850   2.572
 4415TIP3    H113251   2.922   2.875   2.509
 4415TIP3    H213252   2.896   2.788   2.630
 4416TIP3   OH213253   5.308   4.165   0.763
 4416TIP3    H113254   5.393   4.159   0.718
 4416TIP3    H213255   5.251   4.210   0.700
 4417TIP3   OH213256   5.103   1.530   4.724
 4417TIP3    H113257   5.073   1.476   4.650
 4417TIP3    H213258   5.167   1.476   4.769
 4418TIP3   OH213259   5.071   4.949   4.488
 4418TIP3    H113260   5.111   4.926   4.571
 4418TIP3    H213261   4.977   4.947   4.505
 4419TIP3   OH213262   0.692   3.778   2.108
 4419TIP3    H113263   0.775   3.759   2.153
 4419TIP3    H213264   0.642   3.828   2.173
 4420TIP3   OH213265   0.936   0.462   5.125
 4420TIP3    H113266   0.879   0.387   5.143
 4420TIP3    H213267   1.009   0.425   5.076
 4421TIP3   OH213268   1.634   2.851   4.781
 4421TIP3    H113269   1.630   2.801   4.699
 4421TIP3    H213270   1.725   2.879   4.788
 4422TIP3   OH213271   2.894   4.348   0.968
 4422TIP3    H113272   2.892   4.301   0.884
 4422TIP3    H213273   2.877   4.281   1.034
 4423TIP3   OH213274   1.754   2.540   0.520
 4423TIP3    H113275   1.820   2.581   0.463
 4423TIP3    H213276   1.692   2.610   0.538
 4424TIP3   OH213277   4.463   4.317   2.440
 4424TIP3    H113278   4.391   4.323   2.503
 4424TIP3    H213279   4.541   4.337   2.492
 4425TIP3   OH213280   3.584   0.409   4.562
 4425TIP3    H113281   3.536   0.471   4.616
 4425TIP3    H213282   3.579   0.326   4.611
 4426TIP3   OH213283   1.220   4.007   2.167
 4426TIP3    H113284   1.231   4.075   2.100
 4426TIP3    H213285   1.309   3.975   2.183
 4427TIP3   OH213286   5.540   0.821   0.528
 4427TIP3    H113287   5.516   0.735   0.494
 4427TIP3    H213288   5.476   0.881   0.490
 4428TIP3   OH213289   3.001   2.176   0.031
 4428TIP3    H113290   3.043   2.215  -0.046
 4428TIP3    H213291   3.066   2.185   0.101
 4429TIP3   OH213292   3.876   5.170   4.617
 4429TIP3    H113293   3.804   5.206   4.566
 4429TIP3    H213294   3.955   5.211   4.581
 4430TIP3   OH213295   6.118   2.121   1.234
 4430TIP3    H113296   6.079   2.124   1.147
 4430TIP3    H213297   6.192   2.182   1.229
 4431TIP3   OH213298   5.282   4.357   0.279
 4431TIP3    H113299   5.269   4.294   0.351
 4431TIP3    H213300   5.243   4.314   0.203
 4432TIP3   OH213301   1.169   2.492   5.014
 4432TIP3    H113302   1.230   2.454   4.951
 4432TIP3    H213303   1.224   2.541   5.074
 4433TIP3   OH213304   2.020   3.292   3.153
 4433TIP3    H113305   2.108   3.329   3.146
 4433TIP3    H213306   1.969   3.337   3.086
 4434TIP3   OH213307   4.605   5.241   0.481
 4434TIP3    H113308   4.692   5.242   0.439
 4434TIP3    H213309   4.562   5.320   0.447
 4435TIP3   OH213310   0.463   1.444   2.482
 4435TIP3    H113311   0.556   1.422   2.491
 4435TIP3    H213312   0.451   1.461   2.389
 4436TIP3   OH213313   0.160   1.333   1.210
 4436TIP3    H113314   0.174   1.285   1.129
 4436TIP3    H213315   0.190   1.274   1.279
 4437TIP3   OH213316   0.664   0.586   3.793
 4437TIP3    H113317   0.740   0.561   3.741
 4437TIP3    H213318   0.592   0.534   3.758
 4438TIP3   OH213319   3.982   1.575   3.938
 4438TIP3    H113320   3.989   1.547   4.030
 4438TIP3    H213321   4.044   1.519   3.892
 4439TIP3   OH213322   4.588   4.119   2.288
 4439TIP3    H113323   4.571   4.211   2.311
 4439TIP3    H213324   4.505   4.088   2.252
 4440TIP3   OH213325   0.679   2.055   1.070
 4440TIP3    H113326   0.586   2.039   1.089
 4440TIP3    H213327   0.679   2.102   0.986
 4441TIP3   OH213328   3.922   0.467   0.507
 4441TIP3    H113329   3.884   0.453   0.420
 4441TIP3    H213330   3.882   0.400   0.562
 4442TIP3   OH213331   4.245   0.970   1.354
 4442TIP3    H113332   4.205   0.963   1.440
 4442TIP3    H213333   4.198   0.908   1.299
 4443TIP3   OH213334   1.756   0.448   3.609
 4443TIP3    H113335   1.697   0.390   3.562
 4443TIP3    H213336   1.728   0.442   3.700
 4444TIP3   OH213337   5.591   2.117   5.069
 4444TIP3    H113338   5.501   2.110   5.100
 4444TIP3    H213339   5.600   2.209   5.044
 4445TIP3   OH213340   2.917   4.096   2.648
 4445TIP3    H113341   2.916   4.001   2.644
 4445TIP3    H213342   2.825   4.122   2.642
 4446TIP3   OH213343   3.015   1.529   2.862
 4446TIP3    H113344   3.048   1.520   2.952
 4446TIP3    H213345   3.004   1.623   2.850
 4447TIP3   OH213346   0.872   1.143   0.430
 4447TIP3    H113347   0.802   1.164   0.368
 4447TIP3    H213348   0.837   1.070   0.481
 4448TIP3   OH213349   3.156   2.859   3.951
 4448TIP3    H113350   3.092   2.806   3.903
 4448TIP3    H213351   3.102   2.913   4.009
 4449TIP3   OH213352   2.230   5.112   0.157
 4449TIP3    H113353   2.160   5.165   0.194
 4449TIP3    H213354   2.257   5.054   0.228
 4450TIP3   OH213355   4.167   3.888   2.787
 4450TIP3    H113356   4.155   3.981   2.803
 4450TIP3    H213357   4.212   3.855   2.865
 4451TIP3   OH213358   4.085   5.270   3.544
 4451TIP3    H113359   4.112   5.269   3.636
 4451TIP3    H213360   4.052   5.182   3.528
 4452TIP3   OH213361   2.556   5.034   3.078
 4452TIP3    H113362   2.461   5.039   3.075
 4452TIP3    H213363   2.583   5.109   3.130
 4453TIP3   OH213364   0.249   5.080   1.656
 4453TIP3    H113365   0.275   5.172   1.653
 4453TIP3    H213366   0.309   5.036   1.596
 4454TIP3   OH213367   2.196   4.709   1.576
 4454TIP3    H113368   2.118   4.763   1.568
 4454TIP3    H213369   2.177   4.651   1.650
 4455TIP3   OH213370   1.630   4.911   3.841
 4455TIP3    H113371   1.669   4.837   3.887
 4455TIP3    H213372   1.537   4.907   3.863
 4456TIP3   OH213373   5.137   2.850   3.579
 4456TIP3    H113374   5.160   2.887   3.664
 4456TIP3    H213375   5.147   2.756   3.590
 4457TIP3   OH213376   5.331   1.910   0.970
 4457TIP3    H113377   5.254   1.872   0.927
 4457TIP3    H213378   5.347   1.853   1.046
 4458TIP3   OH213379   5.130   0.024   3.281
 4458TIP3    H113380   5.056   0.005   3.339
 4458TIP3    H213381   5.176   0.097   3.323
 4459TIP3   OH213382   5.622   4.154   0.118
 4459TIP3    H113383   5.633   4.151   0.022
 4459TIP3    H213384   5.681   4.224   0.146
 4460TIP3   OH213385   4.535   2.979   5.133
 4460TIP3    H113386   4.440   2.975   5.126
 4460TIP3    H213387   4.552   3.059   5.183
 4461TIP3   OH213388   3.111   1.898   1.302
 4461TIP3    H113389   3.088   1.847   1.224
 4461TIP3    H213390   3.205   1.882   1.314
 4462TIP3   OH213391   1.742   1.173   5.107
 4462TIP3    H113392   1.654   1.210   5.111
 4462TIP3    H213393   1.740   1.113   5.032
 4463TIP3   OH213394   2.749   5.336   5.025
 4463TIP3    H113395   2.749   5.343   5.120
 4463TIP3    H213396   2.840   5.317   5.002
 4464TIP3   OH213397   5.699   0.881   1.272
 4464TIP3    H113398   5.710   0.976   1.277
 4464TIP3    H213399   5.765   0.853   1.208
 4465TIP3   OH213400   3.214   1.473   4.648
 4465TIP3    H113401   3.129   1.461   4.690
 4465TIP3    H213402   3.248   1.554   4.685
 4466TIP3   OH213403   1.913   5.219   1.568
 4466TIP3    H113404   1.868   5.191   1.648
 4466TIP3    H213405   1.999   5.178   1.573
 4467TIP3   OH213406   1.426   1.735   5.160
 4467TIP3    H113407   1.431   1.683   5.241
 4467TIP3    H213408   1.376   1.680   5.100
 4468TIP3   OH213409   3.780   1.027   4.463
 4468TIP3    H113410   3.749   0.938   4.445
 4468TIP3    H213411   3.760   1.041   4.555
 4469TIP3   OH213412   0.573   2.953   0.812
 4469TIP3    H113413   0.645   2.990   0.863
 4469TIP3    H213414   0.498   2.954   0.872
 4470TIP3   OH213415   3.222   5.183   3.472
 4470TIP3    H113416   3.244   5.095   3.442
 4470TIP3    H213417   3.253   5.240   3.402
 4471TIP3   OH213418   6.138   0.173   4.835
 4471TIP3    H113419   6.202   0.170   4.764
 4471TIP3    H213420   6.077   0.242   4.809
 4472TIP3   OH213421   2.388   2.576   4.353
 4472TIP3    H113422   2.467   2.550   4.401
 4472TIP3    H213423   2.336   2.496   4.350
 4473TIP3   OH213424   1.190   2.736   4.467
 4473TIP3    H113425   1.250   2.673   4.425
 4473TIP3    H213426   1.194   2.714   4.560
 4474TIP3   OH213427   3.198   3.898   3.217
 4474TIP3    H113428   3.279   3.934   3.181
 4474TIP3    H213429   3.146   3.875   3.140
 4475TIP3   OH213430   5.353   0.893   1.235
 4475TIP3    H113431   5.270   0.860   1.270
 4475TIP3    H213432   5.417   0.878   1.305
 4476TIP3   OH213433   5.659   4.327   3.805
 4476TIP3    H113434   5.582   4.291   3.761
 4476TIP3    H213435   5.623   4.380   3.876
 4477TIP3   OH213436   3.089   4.628   2.356
 4477TIP3    H113437   3.184   4.634   2.346
 4477TIP3    H213438   3.055   4.615   2.268
 4478TIP3   OH213439   2.858   0.805   1.947
 4478TIP3    H113440   2.764   0.786   1.955
 4478TIP3    H213441   2.898   0.719   1.935
 4479TIP3   OH213442   5.312   2.061   5.004
 4479TIP3    H113443   5.302   2.136   4.945
 4479TIP3    H213444   5.224   2.045   5.038
 4480TIP3   OH213445   3.028   5.076   3.246
 4480TIP3    H113446   2.943   5.076   3.202
 4480TIP3    H213447   3.014   5.129   3.325
 4481TIP3   OH213448   4.336   1.443   4.741
 4481TIP3    H113449   4.283   1.393   4.803
 4481TIP3    H213450   4.293   1.430   4.657
 4482TIP3   OH213451   3.563   2.540   0.103
 4482TIP3    H113452   3.528   2.622   0.068
 4482TIP3    H213453   3.640   2.566   0.154
 4483TIP3   OH213454   2.787   0.038   0.334
 4483TIP3    H113455   2.743  -0.030   0.385
 4483TIP3    H213456   2.716   0.092   0.300
 4484TIP3   OH213457   5.612   1.897   1.595
 4484TIP3    H113458   5.661   1.871   1.673
 4484TIP3    H213459   5.679   1.908   1.527
 4485TIP3   OH213460   5.571   1.821   2.531
 4485TIP3    H113461   5.615   1.906   2.530
 4485TIP3    H213462   5.641   1.758   2.548
 4486TIP3   OH213463   5.329   2.434   0.292
 4486TIP3    H113464   5.313   2.514   0.342
 4486TIP3    H213465   5.333   2.463   0.201
 4487TIP3   OH213466   5.489   4.058   0.995
 4487TIP3    H113467   5.518   3.970   1.020
 4487TIP3    H213468   5.570   4.106   0.979
 4488TIP3   OH213469   1.628   2.547   3.630
 4488TIP3    H113470   1.660   2.583   3.713
 4488TIP3    H213471   1.691   2.579   3.565
 4489TIP3   OH213472   0.228   3.054   3.490
 4489TIP3    H113473   0.206   3.120   3.556
 4489TIP3    H213474   0.144   3.020   3.460
 4490TIP3   OH213475   1.496   4.327   2.646
 4490TIP3    H113476   1.470   4.413   2.612
 4490TIP3    H213477   1.487   4.268   2.572
 4491TIP3   OH213478   4.040   3.433   3.745
 4491TIP3    H113479   4.108   3.380   3.787
 4491TIP3    H213480   3.981   3.369   3.705
 4492TIP3   OH213481   3.513   1.429   0.751
 4492TIP3    H113482   3.589   1.391   0.708
 4492TIP3    H213483   3.469   1.354   0.792
 4493TIP3   OH213484   5.434   1.225   0.757
 4493TIP3    H113485   5.460   1.210   0.848
 4493TIP3    H213486   5.383   1.148   0.733
 4494TIP3   OH213487   3.081   5.056   2.453
 4494TIP3    H113488   3.048   4.988   2.512
 4494TIP3    H213489   3.076   5.016   2.366
 4495TIP3   OH213490   2.283   3.075   1.048
 4495TIP3    H113491   2.365   3.112   1.015
 4495TIP3    H213492   2.241   3.036   0.971
 4496TIP3   OH213493   5.521   0.539   0.103
 4496TIP3    H113494   5.462   0.604   0.065
 4496TIP3    H213495   5.563   0.584   0.176
 4497TIP3   OH213496   2.574   4.941   0.035
 4497TIP3    H113497   2.601   5.011   0.094
 4497TIP3    H213498   2.595   4.972  -0.052
 4498TIP3   OH213499   5.571   1.548   2.117
 4498TIP3    H113500   5.648   1.527   2.064
 4498TIP3    H213501   5.573   1.644   2.124
 4499TIP3   OH213502   2.711   5.943   2.597
 4499TIP3    H113503   2.647   5.985   2.540
 4499TIP3    H213504   2.788   6.000   2.592
 4500TIP3   OH213505   2.114   4.279   1.729
 4500TIP3    H113506   2.142   4.355   1.781
 4500TIP3    H213507   2.162   4.206   1.767
 4501TIP3   OH213508   3.928   0.531   1.835
 4501TIP3    H113509   3.926   0.623   1.809
 4501TIP3    H213510   3.931   0.532   1.930
 4502TIP3   OH213511   5.249   0.848   4.132
 4502TIP3    H113512   5.322   0.818   4.186
 4502TIP3    H213513   5.181   0.872   4.196
 4503TIP3   OH213514   4.358   2.627   5.085
 4503TIP3    H113515   4.284   2.662   5.035
 4503TIP3    H213516   4.430   2.685   5.064
 4504TIP3   OH213517   5.885   4.454   3.716
 4504TIP3    H113518   5.829   4.526   3.685
 4504TIP3    H213519   5.825   4.381   3.727
 4505TIP3   OH213520   2.589   1.314   1.272
 4505TIP3    H113521   2.581   1.287   1.364
 4505TIP3    H213522   2.499   1.331   1.244
 4506TIP3   OH213523   4.918   5.187   0.706
 4506TIP3    H113524   4.906   5.277   0.734
 4506TIP3    H213525   4.922   5.192   0.610
 4507TIP3   OH213526   3.525   5.808   0.881
 4507TIP3    H113527   3.503   5.774   0.794
 4507TIP3    H213528   3.590   5.876   0.864
 4508TIP3   OH213529   0.531   5.594   2.061
 4508TIP3    H113530   0.467   5.665   2.057
 4508TIP3    H213531   0.489   5.521   2.016
 4509TIP3   OH213532   2.648   5.310   3.674
 4509TIP3    H113533   2.589   5.359   3.732
 4509TIP3    H213534   2.679   5.375   3.611
 4510TIP3   OH213535   2.609   5.875   4.543
 4510TIP3    H113536   2.573   5.814   4.608
 4510TIP3    H213537   2.697   5.842   4.526
 4511TIP3   OH213538   4.336   0.913   1.868
 4511TIP3    H113539   4.344   0.927   1.773
 4511TIP3    H213540   4.410   0.960   1.905
 4512TIP3   OH213541   5.402   4.617   1.076
 4512TIP3    H113542   5.379   4.704   1.107
 4512TIP3    H213543   5.318   4.570   1.072
 4513TIP3   OH213544   3.439   1.301   4.016
 4513TIP3    H113545   3.513   1.310   3.957
 4513TIP3    H213546   3.465   1.348   4.095
 4514TIP3   OH213547   3.567   1.848   4.519
 4514TIP3    H113548   3.472   1.852   4.532
 4514TIP3    H213549   3.577   1.835   4.424
 4515TIP3   OH213550   1.885   2.160   4.690
 4515TIP3    H113551   1.936   2.174   4.770
 4515TIP3    H213552   1.816   2.099   4.717
 4516TIP3   OH213553   4.912   5.259   2.268
 4516TIP3    H113554   4.858   5.311   2.328
 4516TIP3    H213555   4.982   5.224   2.322
 4517TIP3   OH213556   1.964   0.698   1.467
 4517TIP3    H113557   1.874   0.666   1.466
 4517TIP3    H213558   1.957   0.789   1.498
 4518TIP3   OH213559   4.523   1.754   3.805
 4518TIP3    H113560   4.590   1.820   3.788
 4518TIP3    H213561   4.558   1.674   3.768
 4519TIP3   OH213562   6.136   5.425   4.543
 4519TIP3    H113563   6.072   5.495   4.556
 4519TIP3    H213564   6.140   5.414   4.448
 4520TIP3   OH213565   3.501   5.918   3.521
 4520TIP3    H113566   3.530   6.008   3.535
 4520TIP3    H213567   3.408   5.925   3.502
 4521TIP3   OH213568   1.531   0.763   0.448
 4521TIP3    H113569   1.543   0.798   0.536
 4521TIP3    H213570   1.530   0.841   0.392
 4522TIP3   OH213571   3.632   0.416   3.129
 4522TIP3    H113572   3.625   0.323   3.108
 4522TIP3    H213573   3.571   0.459   3.068
 4523TIP3   OH213574   5.994   1.808   0.194
 4523TIP3    H113575   6.056   1.755   0.245
 4523TIP3    H213576   5.954   1.866   0.258
 4524TIP3   OH213577   1.254   2.746   4.753
 4524TIP3    H113578   1.181   2.779   4.805
 4524TIP3    H213579   1.324   2.732   4.816
 4525TIP3   OH213580   0.457   4.695   2.258
 4525TIP3    H113581   0.550   4.703   2.235
 4525TIP3    H213582   0.427   4.785   2.270
 4526TIP3   OH213583   2.661   1.718   0.468
 4526TIP3    H113584   2.685   1.810   0.456
 4526TIP3    H213585   2.580   1.707   0.418
 4527TIP3   OH213586   4.927   1.143   2.004
 4527TIP3    H113587   4.861   1.178   2.063
 4527TIP3    H213588   4.906   1.181   1.918
 4528TIP3   OH213589   2.044   0.683   1.738
 4528TIP3    H113590   1.999   0.705   1.656
 4528TIP3    H213591   2.135   0.669   1.711
 4529TIP3   OH213592   1.529   4.588   0.251
 4529TIP3    H113593   1.471   4.580   0.175
 4529TIP3    H213594   1.594   4.518   0.239
 4530TIP3   OH213595   1.225   3.196   0.349
 4530TIP3    H113596   1.245   3.111   0.309
 4530TIP3    H213597   1.172   3.175   0.425
 4531TIP3   OH213598   2.665   5.065   0.810
 4531TIP3    H113599   2.759   5.073   0.826
 4531TIP3    H213600   2.624   5.083   0.895
 4532TIP3   OH213601   4.816   4.494   1.262
 4532TIP3    H113602   4.859   4.553   1.199
 4532TIP3    H213603   4.754   4.550   1.309
 4533TIP3   OH213604   3.012   4.493   4.184
 4533TIP3    H113605   3.059   4.484   4.267
 4533TIP3    H213606   3.067   4.549   4.130
 4534TIP3   OH213607   4.521   0.940   3.231
 4534TIP3    H113608   4.592   1.001   3.213
 4534TIP3    H213609   4.562   0.853   3.227
 4535TIP3   OH213610   1.071   2.350   4.692
 4535TIP3    H113611   1.014   2.394   4.628
 4535TIP3    H213612   1.160   2.365   4.658
 4536TIP3   OH213613   5.263   0.365   0.189
 4536TIP3    H113614   5.206   0.327   0.256
 4536TIP3    H213615   5.258   0.460   0.205
 4537TIP3   OH213616   0.938   1.949   3.575
 4537TIP3    H113617   0.995   1.873   3.562
 4537TIP3    H213618   0.894   1.960   3.490
 4538TIP3   OH213619   5.480   5.175   4.564
 4538TIP3    H113620   5.528   5.254   4.537
 4538TIP3    H213621   5.396   5.209   4.596
 4539TIP3   OH213622   6.148   1.954   4.212
 4539TIP3    H113623   6.170   1.905   4.292
 4539TIP3    H213624   6.204   1.916   4.145
 4540TIP3   OH213625   0.987   4.381   1.429
 4540TIP3    H113626   1.017   4.422   1.348
 4540TIP3    H213627   0.983   4.288   1.408
 4541TIP3   OH213628   1.357   4.505   3.398
 4541TIP3    H113629   1.450   4.525   3.403
 4541TIP3    H213630   1.348   4.452   3.318
 4542TIP3   OH213631   5.612   5.162   2.916
 4542TIP3    H113632   5.589   5.121   2.833
 4542TIP3    H213633   5.708   5.166   2.915
 4543TIP3   OH213634   2.074   1.152   4.692
 4543TIP3    H113635   2.096   1.079   4.750
 4543TIP3    H213636   2.129   1.225   4.722
 4544TIP3   OH213637   0.630   5.143   1.465
 4544TIP3    H113638   0.572   5.201   1.515
 4544TIP3    H213639   0.666   5.199   1.396
 4545TIP3   OH213640   2.521   5.334   2.897
 4545TIP3    H113641   2.457   5.354   2.965
 4545TIP3    H213642   2.579   5.410   2.895
 4546TIP3   OH213643   0.617   1.526   1.495
 4546TIP3    H113644   0.643   1.488   1.411
 4546TIP3    H213645   0.580   1.612   1.472
 4547TIP3   OH213646   1.823   0.499   4.741
 4547TIP3    H113647   1.865   0.505   4.827
 4547TIP3    H213648   1.896   0.491   4.679
 4548TIP3   OH213649   2.969   2.095   4.636
 4548TIP3    H113650   3.012   2.134   4.712
 4548TIP3    H213651   2.881   2.074   4.666
 4549TIP3   OH213652   2.221   4.662   0.364
 4549TIP3    H113653   2.162   4.594   0.334
 4549TIP3    H213654   2.293   4.615   0.407
 4550TIP3   OH213655   6.364   1.931   0.468
 4550TIP3    H113656   6.311   1.904   0.543
 4550TIP3    H213657   6.321   2.010   0.436
 4551TIP3   OH213658   1.241   2.346   0.903
 4551TIP3    H113659   1.209   2.377   0.818
 4551TIP3    H213660   1.306   2.411   0.929
 4552TIP3   OH213661   6.290   4.379   3.467
 4552TIP3    H113662   6.311   4.333   3.386
 4552TIP3    H213663   6.330   4.326   3.536
 4553TIP3   OH213664   2.709   2.166   3.965
 4553TIP3    H113665   2.616   2.142   3.974
 4553TIP3    H213666   2.752   2.085   3.937
 4554TIP3   OH213667   0.616   2.886  -0.032
 4554TIP3    H113668   0.576   2.965   0.006
 4554TIP3    H213669   0.548   2.819  -0.025
 4555TIP3   OH213670   4.861   2.758   4.917
 4555TIP3    H113671   4.841   2.758   4.823
 4555TIP3    H213672   4.948   2.718   4.922
 4556TIP3   OH213673   5.758   1.609   4.029
 4556TIP3    H113674   5.691   1.542   4.045
 4556TIP3    H213675   5.716   1.671   3.969
 4557TIP3   OH213676   1.135   5.213   4.419
 4557TIP3    H113677   1.157   5.245   4.332
 4557TIP3    H213678   1.161   5.121   4.419
 4558TIP3   OH213679   2.802   3.561   0.763
 4558TIP3    H113680   2.844   3.537   0.680
 4558TIP3    H213681   2.874   3.567   0.826
 4559TIP3   OH213682   4.298   0.782   4.985
 4559TIP3    H113683   4.297   0.876   5.002
 4559TIP3    H213684   4.319   0.774   4.892
 4560TIP3   OH213685   1.323   5.394   3.689
 4560TIP3    H113686   1.311   5.488   3.676
 4560TIP3    H213687   1.234   5.357   3.684
 4561TIP3   OH213688   0.290   1.279   4.490
 4561TIP3    H113689   0.361   1.246   4.545
 4561TIP3    H213690   0.245   1.343   4.545
 4562TIP3   OH213691   1.146   1.746   4.192
 4562TIP3    H113692   1.233   1.770   4.225
 4562TIP3    H213693   1.095   1.727   4.270
 4563TIP3   OH213694   1.841   2.035   3.030
 4563TIP3    H113695   1.845   1.972   3.102
 4563TIP3    H213696   1.932   2.059   3.013
 4564TIP3   OH213697   2.388   5.131   3.408
 4564TIP3    H113698   2.392   5.065   3.477
 4564TIP3    H213699   2.433   5.207   3.446
 4565TIP3   OH213700   5.764   5.636   0.623
 4565TIP3    H113701   5.743   5.667   0.535
 4565TIP3    H213702   5.854   5.604   0.616
 4566TIP3   OH213703   2.095   4.495   0.723
 4566TIP3    H113704   2.061   4.442   0.795
 4566TIP3    H213705   2.070   4.585   0.746
 4567TIP3   OH213706   3.015   1.576   1.398
 4567TIP3    H113707   2.923   1.564   1.377
 4567TIP3    H213708   3.040   1.658   1.355
 4568TIP3   OH213709   1.324   1.612   1.330
 4568TIP3    H113710   1.285   1.552   1.266
 4568TIP3    H213711   1.400   1.564   1.364
 4569TIP3   OH213712   2.466   2.823   1.179
 4569TIP3    H113713   2.423   2.880   1.243
 4569TIP3    H213714   2.498   2.749   1.231
 4570TIP3   OH213715   0.903   4.665   0.471
 4570TIP3    H113716   0.888   4.571   0.469
 4570TIP3    H213717   0.992   4.675   0.506
 4571TIP3   OH213718   5.558   1.620   1.611
 4571TIP3    H113719   5.553   1.709   1.576
 4571TIP3    H213720   5.472   1.606   1.652
 4572TIP3   OH213721   1.801   3.532   0.063
 4572TIP3    H113722   1.841   3.450   0.035
 4572TIP3    H213723   1.730   3.547   0.001
 4573TIP3   OH213724   0.415   3.776   0.307
 4573TIP3    H113725   0.478   3.720   0.263
 4573TIP3    H213726   0.358   3.715   0.355
 4574TIP3   OH213727   3.199   3.233   2.881
 4574TIP3    H113728   3.108   3.261   2.877
 4574TIP3    H213729   3.197   3.141   2.854
 4575TIP3   OH213730   2.552   1.120   3.995
 4575TIP3    H113731   2.474   1.153   4.040
 4575TIP3    H213732   2.614   1.100   4.064
 4576TIP3   OH213733   1.380   1.127   4.514
 4576TIP3    H113734   1.394   1.170   4.430
 4576TIP3    H213735   1.285   1.131   4.527
 4577TIP3   OH213736   2.856   5.219   1.415
 4577TIP3    H113737   2.810   5.300   1.437
 4577TIP3    H213738   2.787   5.152   1.413
 4578TIP3   OH213739   0.588   4.912   0.545
 4578TIP3    H113740   0.602   4.936   0.453
 4578TIP3    H213741   0.664   4.858   0.567
 4579TIP3   OH213742   6.387   3.532   4.366
 4579TIP3    H113743   6.337   3.459   4.330
 4579TIP3    H213744   6.321   3.598   4.389
 4580TIP3   OH213745   3.261   4.117   4.270
 4580TIP3    H113746   3.293   4.196   4.225
 4580TIP3    H213747   3.284   4.045   4.212
 4581TIP3   OH213748   3.145   0.918   4.057
 4581TIP3    H113749   3.232   0.944   4.026
 4581TIP3    H213750   3.154   0.915   4.153
 4582TIP3   OH213751   5.876   0.058   0.073
 4582TIP3    H113752   5.795   0.043   0.120
 4582TIP3    H213753   5.919   0.128   0.121
 4583TIP3   OH213754   0.381   3.148   3.295
 4583TIP3    H113755   0.327   3.116   3.367
 4583TIP3    H213756   0.341   3.232   3.271
 4584TIP3   OH213757   4.142   1.935   3.564
 4584TIP3    H113758   4.135   1.915   3.657
 4584TIP3    H213759   4.108   2.024   3.555
 4585TIP3   OH213760   2.651   4.648   2.667
 4585TIP3    H113761   2.720   4.598   2.623
 4585TIP3    H213762   2.673   4.740   2.652
 4586TIP3   OH213763   2.193   5.889   2.137
 4586TIP3    H113764   2.182   5.899   2.043
 4586TIP3    H213765   2.287   5.874   2.149
 4587TIP3   OH213766   0.166   5.673   0.869
 4587TIP3    H113767   0.097   5.633   0.922
 4587TIP3    H213768   0.131   5.671   0.780
 4588TIP3   OH213769   5.679   0.269   5.215
 4588TIP3    H113770   5.688   0.274   5.120
 4588TIP3    H213771   5.619   0.341   5.237
 4589TIP3   OH213772   5.482   1.675   4.701
 4589TIP3    H113773   5.404   1.680   4.646
 4589TIP3    H213774   5.449   1.683   4.790
 4590TIP3   OH213775   5.880   1.041   4.804
 4590TIP3    H113776   5.861   1.005   4.718
 4590TIP3    H213777   5.793   1.057   4.842
 4591TIP3   OH213778   2.669   2.678   2.485
 4591TIP3    H113779   2.621   2.745   2.436
 4591TIP3    H213780   2.741   2.725   2.527
 4592TIP3   OH213781   5.398   0.220   5.119
 4592TIP3    H113782   5.376   0.295   5.175
 4592TIP3    H213783   5.474   0.250   5.068
 4593TIP3   OH213784   3.020   5.692   4.255
 4593TIP3    H113785   3.006   5.671   4.163
 4593TIP3    H213786   3.105   5.652   4.276
 4594TIP3   OH213787   5.666   5.497   4.786
 4594TIP3    H113788   5.751   5.517   4.826
 4594TIP3    H213789   5.687   5.475   4.695
 4595TIP3   OH213790   1.163   5.627   0.554
 4595TIP3    H113791   1.120   5.648   0.637
 4595TIP3    H213792   1.211   5.706   0.531
 4596TIP3   OH213793   0.872   3.625   0.174
 4596TIP3    H113794   0.846   3.693   0.236
 4596TIP3    H213795   0.793   3.608   0.123
 4597TIP3   OH213796   6.005   0.097   1.484
 4597TIP3    H113797   6.062   0.086   1.560
 4597TIP3    H213798   5.937   0.030   1.495
 4598TIP3   OH213799   2.162   4.561   1.803
 4598TIP3    H113800   2.244   4.575   1.851
 4598TIP3    H213801   2.100   4.621   1.844
 4599TIP3   OH213802   2.052   0.234   3.029
 4599TIP3    H113803   2.005   0.151   3.034
 4599TIP3    H213804   2.050   0.268   3.118
 4600TIP3   OH213805   1.420   0.319   1.022
 4600TIP3    H113806   1.376   0.383   1.080
 4600TIP3    H213807   1.387   0.234   1.052
 4601TIP3   OH213808   1.067   3.468   0.718
 4601TIP3    H113809   1.160   3.490   0.721
 4601TIP3    H213810   1.026   3.540   0.669
 4602TIP3   OH213811   6.367   3.216   4.557
 4602TIP3    H113812   6.374   3.131   4.514
 4602TIP3    H213813   6.330   3.274   4.491
 4603TIP3   OH213814   1.999   4.202   4.380
 4603TIP3    H113815   2.005   4.201   4.475
 4603TIP3    H213816   2.049   4.279   4.353
 4604TIP3   OH213817   1.271   0.304   0.519
 4604TIP3    H113818   1.285   0.379   0.461
 4604TIP3    H213819   1.256   0.230   0.459
 4605TIP3   OH213820   1.682   0.743   4.480
 4605TIP3    H113821   1.599   0.782   4.507
 4605TIP3    H213822   1.714   0.799   4.409
 4606TIP3   OH213823   5.236   0.674   2.180
 4606TIP3    H113824   5.214   0.716   2.263
 4606TIP3    H213825   5.326   0.702   2.162
 4607TIP3   OH213826   2.434   0.910   3.765
 4607TIP3    H113827   2.506   0.853   3.737
 4607TIP3    H213828   2.478   0.983   3.808
 4608TIP3   OH213829   0.526   5.885   4.887
 4608TIP3    H113830   0.568   5.831   4.820
 4608TIP3    H213831   0.550   5.975   4.865
 4609TIP3   OH213832   3.664   2.623   0.502
 4609TIP3    H113833   3.705   2.574   0.432
 4609TIP3    H213834   3.653   2.559   0.573
 4610TIP3   OH213835   5.072   1.325   4.240
 4610TIP3    H113836   5.040   1.268   4.310
 4610TIP3    H213837   5.142   1.275   4.198
 4611TIP3   OH213838   4.503   1.226   1.429
 4611TIP3    H113839   4.482   1.245   1.338
 4611TIP3    H213840   4.576   1.164   1.425
 4612TIP3   OH213841   3.353   5.724   1.099
 4612TIP3    H113842   3.411   5.755   1.029
 4612TIP3    H213843   3.295   5.797   1.116
 4613TIP3   OH213844   0.857   2.985   4.540
 4613TIP3    H113845   0.943   3.021   4.519
 4613TIP3    H213846   0.850   2.994   4.635
 4614TIP3   OH213847   0.812   1.497   2.852
 4614TIP3    H113848   0.734   1.515   2.799
 4614TIP3    H213849   0.861   1.434   2.800
 4615TIP3   OH213850   2.600   5.221   1.612
 4615TIP3    H113851   2.659   5.147   1.626
 4615TIP3    H213852   2.644   5.295   1.654
 4616TIP3   OH213853   2.690   5.353   0.388
 4616TIP3    H113854   2.637   5.352   0.308
 4616TIP3    H213855   2.638   5.305   0.452
 4617TIP3   OH213856   3.660   4.971   2.569
 4617TIP3    H113857   3.704   4.999   2.489
 4617TIP3    H213858   3.698   5.026   2.638
 4618TIP3   OH213859   0.796   4.003   4.275
 4618TIP3    H113860   0.742   4.050   4.211
 4618TIP3    H213861   0.832   4.071   4.331
 4619TIP3   OH213862   4.929   3.814   0.746
 4619TIP3    H113863   5.023   3.832   0.736
 4619TIP3    H213864   4.924   3.753   0.820
 4620TIP3   OH213865   5.648   1.821   5.011
 4620TIP3    H113866   5.612   1.909   4.998
 4620TIP3    H213867   5.717   1.814   4.945
 4621TIP3   OH213868   5.672   4.616   1.143
 4621TIP3    H113869   5.671   4.693   1.199
 4621TIP3    H213870   5.581   4.606   1.114
 4622TIP3   OH213871   0.012   3.598   2.700
 4622TIP3    H113872  -0.023   3.683   2.673
 4622TIP3    H213873   0.049   3.614   2.787
 4623TIP3   OH213874   2.230   2.361   3.069
 4623TIP3    H113875   2.181   2.392   3.145
 4623TIP3    H213876   2.310   2.323   3.105
 4624TIP3   OH213877   1.742   4.729   1.641
 4624TIP3    H113878   1.825   4.687   1.661
 4624TIP3    H213879   1.676   4.675   1.683
 4625TIP3   OH213880   3.027   0.332   4.229
 4625TIP3    H113881   3.089   0.343   4.301
 4625TIP3    H213882   3.072   0.370   4.153
 4626TIP3   OH213883   2.784   5.065   1.732
 4626TIP3    H113884   2.768   4.971   1.740
 4626TIP3    H213885   2.876   5.072   1.709
 4627TIP3   OH213886   5.559   2.482   0.494
 4627TIP3    H113887   5.518   2.476   0.408
 4627TIP3    H213888   5.539   2.398   0.536
 4628TIP3   OH213889   5.851   4.726   4.440
 4628TIP3    H113890   5.788   4.664   4.404
 4628TIP3    H213891   5.797   4.789   4.488
 4629TIP3   OH213892   3.762   3.318   3.934
 4629TIP3    H113893   3.744   3.307   3.841
 4629TIP3    H213894   3.708   3.251   3.977
 4630TIP3   OH213895   1.877   3.751   1.667
 4630TIP3    H113896   1.862   3.657   1.665
 4630TIP3    H213897   1.935   3.768   1.593
 4631TIP3   OH213898   4.870   0.803   2.150
 4631TIP3    H113899   4.925   0.737   2.192
 4631TIP3    H213900   4.793   0.754   2.120
 4632TIP3   OH213901   2.277   1.196   3.999
 4632TIP3    H113902   2.217   1.229   4.066
 4632TIP3    H213903   2.222   1.142   3.942
 4633TIP3   OH213904   3.953   2.539   1.895
 4633TIP3    H113905   3.897   2.600   1.846
 4633TIP3    H213906   3.895   2.465   1.917
 4634TIP3   OH213907   5.823   5.270   0.666
 4634TIP3    H113908   5.836   5.340   0.602
 4634TIP3    H213909   5.894   5.282   0.730
 4635TIP3   OH213910   0.405   4.322   1.061
 4635TIP3    H113911   0.467   4.251   1.049
 4635TIP3    H213912   0.452   4.401   1.034
 4636TIP3   OH213913   5.844   0.007   2.066
 4636TIP3    H113914   5.779  -0.013   2.133
 4636TIP3    H213915   5.893   0.081   2.101
 4637TIP3   OH213916   1.344   0.456   2.840
 4637TIP3    H113917   1.259   0.478   2.800
 4637TIP3    H213918   1.407   0.465   2.768
 4638TIP3   OH213919   0.280   0.476   2.287
 4638TIP3    H113920   0.188   0.450   2.291
 4638TIP3    H213921   0.300   0.478   2.193
 4639TIP3   OH213922   4.234   5.814   1.404
 4639TIP3    H113923   4.163   5.752   1.388
 4639TIP3    H213924   4.231   5.874   1.329
 4640TIP3   OH213925   1.867   0.414   2.195
 4640TIP3    H113926   1.922   0.476   2.147
 4640TIP3    H213927   1.830   0.358   2.127
 4641TIP3   OH213928   1.345   5.476   2.460
 4641TIP3    H113929   1.344   5.480   2.364
 4641TIP3    H213930   1.426   5.521   2.484
 4642TIP3   OH213931   2.159   1.670   4.192
 4642TIP3    H113932   2.080   1.675   4.245
 4642TIP3    H213933   2.205   1.593   4.226
 4643TIP3   OH213934   3.514   0.813   0.154
 4643TIP3    H113935   3.496   0.853   0.069
 4643TIP3    H213936   3.427   0.795   0.190
 4644TIP3   OH213937   3.002   2.165   1.341
 4644TIP3    H113938   3.041   2.079   1.330
 4644TIP3    H213939   3.002   2.203   1.254
 4645TIP3   OH213940   5.382   3.259   5.125
 4645TIP3    H113941   5.436   3.291   5.197
 4645TIP3    H213942   5.418   3.173   5.104
 4646TIP3   OH213943   3.954   2.143   3.598
 4646TIP3    H113944   3.939   2.237   3.582
 4646TIP3    H213945   3.867   2.103   3.588
 4647TIP3   OH213946   3.061   1.821   4.451
 4647TIP3    H113947   3.011   1.808   4.532
 4647TIP3    H213948   3.002   1.867   4.392
 4648TIP3   OH213949   5.505   3.723   1.460
 4648TIP3    H113950   5.484   3.656   1.395
 4648TIP3    H213951   5.516   3.674   1.542
 4649TIP3   OH213952   4.788   1.886   5.027
 4649TIP3    H113953   4.822   1.806   5.064
 4649TIP3    H213954   4.861   1.924   4.978
 4650TIP3   OH213955   5.691   5.676   3.892
 4650TIP3    H113956   5.775   5.648   3.929
 4650TIP3    H213957   5.668   5.755   3.941
 4651TIP3   OH213958   3.559   2.327   0.959
 4651TIP3    H113959   3.612   2.283   0.893
 4651TIP3    H213960   3.597   2.414   0.967
 4652TIP3   OH213961   0.739   4.185   2.507
 4652TIP3    H113962   0.755   4.121   2.577
 4652TIP3    H213963   0.815   4.177   2.450
 4653TIP3   OH213964   0.043   4.987   2.677
 4653TIP3    H113965  -0.043   5.030   2.671
 4653TIP3    H213966   0.101   5.044   2.627
 4654TIP3   OH213967   3.900   5.561   1.789
 4654TIP3    H113968   3.882   5.646   1.829
 4654TIP3    H213969   3.992   5.567   1.761
 4655TIP3   OH213970   6.260   2.147   2.541
 4655TIP3    H113971   6.164   2.144   2.540
 4655TIP3    H213972   6.283   2.181   2.454
 4656TIP3   OH213973   4.396   5.079   2.761
 4656TIP3    H113974   4.369   5.059   2.671
 4656TIP3    H213975   4.492   5.078   2.758
 4657TIP3   OH213976   0.671   5.575   1.811
 4657TIP3    H113977   0.730   5.590   1.884
 4657TIP3    H213978   0.701   5.492   1.772
 4658TIP3   OH213979   1.337   4.371   1.392
 4658TIP3    H113980   1.257   4.420   1.372
 4658TIP3    H213981   1.385   4.427   1.453
 4659TIP3   OH213982   4.513   2.810   2.985
 4659TIP3    H113983   4.474   2.759   3.055
 4659TIP3    H213984   4.448   2.878   2.965
 4660TIP3   OH213985   3.424   1.406   2.477
 4660TIP3    H113986   3.516   1.423   2.497
 4660TIP3    H213987   3.378   1.485   2.506
 4661TIP3   OH213988   4.290   4.194   0.662
 4661TIP3    H113989   4.257   4.152   0.741
 4661TIP3    H213990   4.319   4.121   0.607
 4662TIP3   OH213991   5.099   4.096   1.538
 4662TIP3    H113992   5.050   4.045   1.602
 4662TIP3    H213993   5.121   4.177   1.584
 4663TIP3   OH213994   2.709   3.519   2.570
 4663TIP3    H113995   2.785   3.461   2.562
 4663TIP3    H213996   2.645   3.468   2.620
 4664TIP3   OH213997   4.125   4.249   1.719
 4664TIP3    H113998   4.183   4.194   1.772
 4664TIP3    H213999   4.046   4.196   1.707
 4665TIP3   OH214000   3.225   3.515   4.503
 4665TIP3    H114001   3.319   3.527   4.492
 4665TIP3    H214002   3.195   3.595   4.547
 4666TIP3   OH214003   6.021   0.503   2.262
 4666TIP3    H114004   6.049   0.577   2.208
 4666TIP3    H214005   6.090   0.438   2.252
 4667TIP3   OH214006   2.112   5.852   1.377
 4667TIP3    H114007   2.154   5.769   1.354
 4667TIP3    H214008   2.122   5.907   1.299
 4668TIP3   OH214009   1.331   2.737   4.125
 4668TIP3    H114010   1.386   2.811   4.151
 4668TIP3    H214011   1.241   2.768   4.137
 4669TIP3   OH214012   5.606   2.838   3.508
 4669TIP3    H114013   5.512   2.834   3.493
 4669TIP3    H214014   5.628   2.754   3.548
 4670TIP3   OH214015   4.750   0.946   3.724
 4670TIP3    H114016   4.831   0.919   3.768
 4670TIP3    H214017   4.756   1.042   3.722
 4671TIP3   OH214018   2.976   0.463   3.426
 4671TIP3    H114019   3.042   0.467   3.496
 4671TIP3    H214020   2.910   0.402   3.459
 4672TIP3   OH214021   3.425   5.401   4.178
 4672TIP3    H114022   3.465   5.454   4.109
 4672TIP3    H214023   3.349   5.452   4.206
 4673TIP3   OH214024   1.322   1.468   1.656
 4673TIP3    H114025   1.354   1.446   1.743
 4673TIP3    H214026   1.344   1.561   1.646
 4674TIP3   OH214027   0.436   5.655   4.690
 4674TIP3    H114028   0.356   5.603   4.697
 4674TIP3    H214029   0.507   5.592   4.705
 4675TIP3   OH214030   0.433   5.822   3.497
 4675TIP3    H114031   0.481   5.872   3.563
 4675TIP3    H214032   0.398   5.888   3.437
 4676TIP3   OH214033   6.025   2.730   3.236
 4676TIP3    H114034   5.937   2.695   3.220
 4676TIP3    H214035   6.082   2.681   3.177
 4677TIP3   OH214036   4.592   0.197   4.991
 4677TIP3    H114037   4.646   0.189   4.913
 4677TIP3    H214038   4.514   0.244   4.961
 4678TIP3   OH214039   1.427   4.138   0.599
 4678TIP3    H114040   1.498   4.106   0.655
 4678TIP3    H214041   1.457   4.225   0.570
 4679TIP3   OH214042   1.663   0.527   1.397
 4679TIP3    H114043   1.691   0.531   1.488
 4679TIP3    H214044   1.713   0.455   1.359
 4680TIP3   OH214045   4.882   5.324   4.532
 4680TIP3    H114046   4.856   5.257   4.470
 4680TIP3    H214047   4.935   5.385   4.481
 4681TIP3   OH214048   0.426   0.593   5.043
 4681TIP3    H114049   0.503   0.596   5.100
 4681TIP3    H214050   0.369   0.527   5.083
 4682TIP3   OH214051   5.972   5.229   5.071
 4682TIP3    H114052   5.884   5.191   5.075
 4682TIP3    H214053   5.970   5.287   4.995
 4683TIP3   OH214054   0.839   4.747   0.773
 4683TIP3    H114055   0.775   4.686   0.736
 4683TIP3    H214056   0.877   4.700   0.847
 4684TIP3   OH214057   5.694   0.822   2.905
 4684TIP3    H114058   5.718   0.731   2.923
 4684TIP3    H214059   5.727   0.870   2.981
 4685TIP3   OH214060   4.525   0.737   1.176
 4685TIP3    H114061   4.489   0.655   1.142
 4685TIP3    H214062   4.607   0.711   1.219
 4686TIP3   OH214063   6.006   2.135   4.892
 4686TIP3    H114064   5.928   2.080   4.893
 4686TIP3    H214065   6.078   2.075   4.874
 4687TIP3   OH214066   4.842   2.817   3.605
 4687TIP3    H114067   4.921   2.766   3.586
 4687TIP3    H214068   4.865   2.906   3.578
 4688TIP3   OH214069   2.457   4.790   1.622
 4688TIP3    H114070   2.452   4.823   1.532
 4688TIP3    H214071   2.388   4.724   1.627
 4689TIP3   OH214072   1.689   2.084   1.554
 4689TIP3    H114073   1.711   2.173   1.527
 4689TIP3    H214074   1.772   2.047   1.583
 4690TIP3   OH214075   0.881   0.615   2.876
 4690TIP3    H114076   0.888   0.651   2.964
 4690TIP3    H214077   0.810   0.552   2.882
 4691TIP3   OH214078   3.778   2.103   2.763
 4691TIP3    H114079   3.863   2.137   2.792
 4691TIP3    H214080   3.725   2.182   2.749
 4692TIP3   OH214081   4.223   2.426   2.250
 4692TIP3    H114082   4.199   2.515   2.227
 4692TIP3    H214083   4.269   2.393   2.173
 4693TIP3   OH214084   4.067   1.014   4.883
 4693TIP3    H114085   4.132   1.032   4.951
 4693TIP3    H214086   4.094   1.068   4.809
 4694TIP3   OH214087   0.747   1.464   0.304
 4694TIP3    H114088   0.659   1.469   0.341
 4694TIP3    H214089   0.805   1.476   0.379
 4695TIP3   OH214090   0.232   2.965   3.816
 4695TIP3    H114091   0.258   2.998   3.902
 4695TIP3    H214092   0.140   2.940   3.827
 4696TIP3   OH214093   3.305   1.087   4.344
 4696TIP3    H114094   3.377   1.073   4.283
 4696TIP3    H214095   3.345   1.135   4.417
 4697TIP3   OH214096   3.098   1.723   5.040
 4697TIP3    H114097   3.180   1.767   5.021
 4697TIP3    H214098   3.065   1.765   5.119
 4698TIP3   OH214099   5.353   1.646   2.505
 4698TIP3    H114100   5.398   1.581   2.451
 4698TIP3    H214101   5.420   1.711   2.525
 4699TIP3   OH214102   2.012   5.843   0.977
 4699TIP3    H114103   1.945   5.874   0.917
 4699TIP3    H214104   1.967   5.835   1.061
 4700TIP3   OH214105   1.514   4.779   2.766
 4700TIP3    H114106   1.487   4.866   2.737
 4700TIP3    H214107   1.477   4.720   2.701
 4701TIP3   OH214108   6.056   3.580   1.045
 4701TIP3    H114109   6.112   3.535   0.982
 4701TIP3    H214110   5.978   3.525   1.051
 4702TIP3   OH214111   3.494   5.316   0.866
 4702TIP3    H114112   3.584   5.284   0.870
 4702TIP3    H214113   3.440   5.239   0.885
 4703TIP3   OH214114   3.361   4.435   1.973
 4703TIP3    H114115   3.432   4.385   2.014
 4703TIP3    H214116   3.367   4.522   2.012
 4704TIP3   OH214117   2.723   3.461   3.220
 4704TIP3    H114118   2.769   3.428   3.143
 4704TIP3    H214119   2.793   3.493   3.278
 4705TIP3   OH214120   0.865   3.011   4.822
 4705TIP3    H114121   0.785   3.063   4.816
 4705TIP3    H214122   0.841   2.936   4.877
 4706TIP3   OH214123   3.787   4.785   1.180
 4706TIP3    H114124   3.755   4.826   1.100
 4706TIP3    H214125   3.882   4.795   1.175
 4707TIP3   OH214126   1.282   3.069   2.711
 4707TIP3    H114127   1.267   3.052   2.618
 4707TIP3    H214128   1.217   3.016   2.756
 4708TIP3   OH214129   2.541   3.138   1.304
 4708TIP3    H114130   2.456   3.108   1.336
 4708TIP3    H214131   2.595   3.059   1.301
 4709TIP3   OH214132   6.138   2.616   2.384
 4709TIP3    H114133   6.147   2.710   2.396
 4709TIP3    H214134   6.226   2.581   2.402
 4710TIP3   OH214135   5.262   0.471   1.813
 4710TIP3    H114136   5.190   0.435   1.865
 4710TIP3    H214137   5.230   0.556   1.782
 4711TIP3   OH214138   4.305   4.623   3.611
 4711TIP3    H114139   4.305   4.718   3.626
 4711TIP3    H214140   4.219   4.594   3.641
 4712TIP3   OH214141   1.976   4.316   4.620
 4712TIP3    H114142   1.943   4.397   4.582
 4712TIP3    H214143   2.063   4.338   4.654
 4713TIP3   OH214144   2.601   4.153   1.526
 4713TIP3    H114145   2.676   4.201   1.490
 4713TIP3    H214146   2.626   4.061   1.520
 4714TIP3   OH214147   3.562   4.494   0.465
 4714TIP3    H114148   3.631   4.559   0.473
 4714TIP3    H214149   3.577   4.433   0.537
 4715TIP3   OH214150   2.945   5.890   1.420
 4715TIP3    H114151   2.883   5.835   1.467
 4715TIP3    H214152   3.002   5.828   1.373
 4716TIP3   OH214153   1.136   2.183   1.497
 4716TIP3    H114154   1.227   2.162   1.474
 4716TIP3    H214155   1.140   2.208   1.589
 4717TIP3   OH214156   4.703   2.951   1.340
 4717TIP3    H114157   4.710   2.961   1.245
 4717TIP3    H214158   4.715   3.039   1.375
 4718TIP3   OH214159   0.016   1.358   4.854
 4718TIP3    H114160  -0.008   1.265   4.856
 4718TIP3    H214161   0.011   1.385   4.946
 4719TIP3   OH214162   5.930   5.873   3.385
 4719TIP3    H114163   5.856   5.859   3.443
 4719TIP3    H214164   5.913   5.958   3.344
 4720TIP3   OH214165   2.320   5.206   3.757
 4720TIP3    H114166   2.344   5.123   3.716
 4720TIP3    H214167   2.392   5.225   3.817
 4721TIP3   OH214168   2.167   5.800   2.808
 4721TIP3    H114169   2.200   5.804   2.898
 4721TIP3    H214170   2.234   5.841   2.755
 4722TIP3   OH214171   3.857   5.237   1.631
 4722TIP3    H114172   3.777   5.245   1.684
 4722TIP3    H214173   3.919   5.191   1.688
 4723TIP3   OH214174   2.351   0.854   3.453
 4723TIP3    H114175   2.385   0.765   3.445
 4723TIP3    H214176   2.362   0.876   3.546
 4724TIP3   OH214177   4.565   2.189   0.989
 4724TIP3    H114178   4.603   2.267   0.948
 4724TIP3    H214179   4.472   2.211   1.000
 4725TIP3   OH214180   4.365   2.461   4.081
 4725TIP3    H114181   4.315   2.535   4.046
 4725TIP3    H214182   4.380   2.404   4.005
 4726TIP3   OH214183   4.822   1.825   0.890
 4726TIP3    H114184   4.728   1.820   0.874
 4726TIP3    H214185   4.861   1.774   0.818
 4727TIP3   OH214186   2.325   3.429   3.421
 4727TIP3    H114187   2.360   3.514   3.449
 4727TIP3    H214188   2.241   3.422   3.467
 4728TIP3   OH214189   1.684   1.936   3.357
 4728TIP3    H114190   1.739   1.870   3.315
 4728TIP3    H214191   1.691   1.918   3.451
 4729TIP3   OH214192   4.752   2.412   2.512
 4729TIP3    H114193   4.720   2.488   2.561
 4729TIP3    H214194   4.771   2.347   2.580
 4730TIP3   OH214195   0.034   2.360   1.938
 4730TIP3    H114196   0.077   2.283   1.902
 4730TIP3    H214197   0.025   2.341   2.032
 4731TIP3   OH214198   3.342   4.767   4.877
 4731TIP3    H114199   3.378   4.704   4.815
 4731TIP3    H214200   3.419   4.807   4.918
 4732TIP3   OH214201   5.950   3.751   5.031
 4732TIP3    H114202   5.864   3.719   5.060
 4732TIP3    H214203   5.954   3.728   4.938
 4733TIP3   OH214204   3.219   3.630   0.550
 4733TIP3    H114205   3.213   3.654   0.457
 4733TIP3    H214206   3.296   3.676   0.581
 4734TIP3   OH214207   3.263   1.956   1.027
 4734TIP3    H114208   3.284   1.874   1.070
 4734TIP3    H214209   3.285   2.024   1.091
 4735TIP3   OH214210   5.383   3.257   4.844
 4735TIP3    H114211   5.380   3.256   4.940
 4735TIP3    H214212   5.437   3.333   4.822
 4736TIP3   OH214213   4.029   4.370   3.128
 4736TIP3    H114214   4.116   4.343   3.157
 4736TIP3    H214215   4.042   4.457   3.091
 4737TIP3   OH214216   4.812   5.253   3.240
 4737TIP3    H114217   4.838   5.303   3.162
 4737TIP3    H214218   4.722   5.282   3.258
 4738TIP3   OH214219   2.963   2.743   3.720
 4738TIP3    H114220   2.901   2.784   3.660
 4738TIP3    H214221   3.048   2.755   3.679
 4739TIP3   OH214222   1.782   4.617   0.994
 4739TIP3    H114223   1.774   4.627   0.899
 4739TIP3    H214224   1.785   4.523   1.008
 4740TIP3   OH214225   1.124   2.311   0.147
 4740TIP3    H114226   1.187   2.339   0.081
 4740TIP3    H214227   1.168   2.238   0.192
 4741TIP3   OH214228   5.067   3.425   2.342
 4741TIP3    H114229   5.041   3.377   2.263
 4741TIP3    H214230   5.003   3.400   2.408
 4742TIP3   OH214231   4.193   5.801   3.672
 4742TIP3    H114232   4.109   5.846   3.665
 4742TIP3    H214233   4.181   5.720   3.622
 4743TIP3   OH214234   2.960   5.236   3.762
 4743TIP3    H114235   2.888   5.299   3.769
 4743TIP3    H214236   2.965   5.196   3.848
 4744TIP3   OH214237   3.504   5.503   3.150
 4744TIP3    H114238   3.597   5.492   3.167
 4744TIP3    H214239   3.497   5.508   3.055
 4745TIP3   OH214240   0.217   2.767   4.983
 4745TIP3    H114241   0.268   2.773   4.902
 4745TIP3    H214242   0.129   2.743   4.955
 4746TIP3   OH214243   1.848   1.290   3.879
 4746TIP3    H114244   1.858   1.337   3.796
 4746TIP3    H214245   1.879   1.352   3.946
 4747TIP3   OH214246   0.478   4.499   3.651
 4747TIP3    H114247   0.490   4.430   3.586
 4747TIP3    H214248   0.394   4.478   3.693
 4748TIP3   OH214249   6.325   0.025   0.497
 4748TIP3    H114250   6.389  -0.042   0.470
 4748TIP3    H214251   6.263   0.029   0.425
 4749TIP3   OH214252   1.665   4.416   2.944
 4749TIP3    H114253   1.684   4.323   2.932
 4749TIP3    H214254   1.570   4.422   2.940
 4750TIP3   OH214255   1.669   0.419   1.079
 4750TIP3    H114256   1.620   0.346   1.040
 4750TIP3    H214257   1.661   0.405   1.173
 4751TIP3   OH214258   4.668   3.880  -0.013
 4751TIP3    H114259   4.677   3.958   0.041
 4751TIP3    H214260   4.665   3.807   0.049
 4752TIP3   OH214261   5.673   0.240   3.346
 4752TIP3    H114262   5.678   0.231   3.441
 4752TIP3    H214263   5.764   0.237   3.316
 4753TIP3   OH214264   1.625   3.899   3.797
 4753TIP3    H114265   1.720   3.896   3.810
 4753TIP3    H214266   1.610   3.843   3.720
 4754TIP3   OH214267   4.277   5.001   0.083
 4754TIP3    H114268   4.336   4.943   0.130
 4754TIP3    H214269   4.220   5.037   0.151
 4755TIP3   OH214270   1.711   1.630   1.262
 4755TIP3    H114271   1.728   1.539   1.283
 4755TIP3    H214272   1.640   1.656   1.320
 4756TIP3   OH214273   0.513   4.878   4.113
 4756TIP3    H114274   0.459   4.954   4.134
 4756TIP3    H214275   0.564   4.904   4.037
 4757TIP3   OH214276   2.417   4.126   4.380
 4757TIP3    H114277   2.334   4.081   4.367
 4757TIP3    H214278   2.418   4.150   4.473
 4758TIP3   OH214279   3.838   3.243   4.971
 4758TIP3    H114280   3.825   3.277   5.060
 4758TIP3    H214281   3.751   3.215   4.944
 4759TIP3   OH214282   2.029   1.763   4.468
 4759TIP3    H114283   1.965   1.833   4.455
 4759TIP3    H214284   1.978   1.689   4.502
 4760TIP3   OH214285   0.421   3.694   0.660
 4760TIP3    H114286   0.466   3.775   0.638
 4760TIP3    H214287   0.484   3.645   0.714
 4761TIP3   OH214288   4.218   0.350   3.270
 4761TIP3    H114289   4.243   0.269   3.314
 4761TIP3    H214290   4.141   0.381   3.319
 4762TIP3   OH214291   6.270   3.472   3.238
 4762TIP3    H114292   6.234   3.540   3.182
 4762TIP3    H214293   6.263   3.507   3.327
 4763TIP3   OH214294   0.321   4.166   4.876
 4763TIP3    H114295   0.377   4.180   4.952
 4763TIP3    H214296   0.267   4.091   4.899
 4764TIP3   OH214297   3.207   4.766   5.157
 4764TIP3    H114298   3.145   4.698   5.183
 4764TIP3    H214299   3.239   4.739   5.071
 4765TIP3   OH214300   0.178   5.573   3.226
 4765TIP3    H114301   0.201   5.535   3.141
 4765TIP3    H214302   0.261   5.573   3.275
 4766TIP3   OH214303   2.191   0.418   2.839
 4766TIP3    H114304   2.262   0.387   2.783
 4766TIP3    H214305   2.174   0.345   2.899
 4767TIP3   OH214306   3.605   2.373   3.498
 4767TIP3    H114307   3.588   2.279   3.503
 4767TIP3    H214308   3.666   2.390   3.570
 4768TIP3   OH214309   4.945   3.884   1.051
 4768TIP3    H114310   5.005   3.928   0.992
 4768TIP3    H214311   4.956   3.929   1.135
 4769TIP3   OH214312   0.815   5.284   3.864
 4769TIP3    H114313   0.783   5.231   3.791
 4769TIP3    H214314   0.764   5.365   3.860
 4770TIP3   OH214315   0.212   3.953   3.304
 4770TIP3    H114316   0.167   3.871   3.281
 4770TIP3    H214317   0.161   3.988   3.377
 4771TIP3   OH214318   6.151   0.305   2.065
 4771TIP3    H114319   6.110   0.259   1.992
 4771TIP3    H214320   6.236   0.333   2.030
 4772TIP3   OH214321   4.073   5.025   5.053
 4772TIP3    H114322   4.080   5.121   5.049
 4772TIP3    H214323   3.984   5.007   5.023
 4773TIP3   OH214324   0.248   4.237   1.806
 4773TIP3    H114325   0.187   4.293   1.854
 4773TIP3    H214326   0.193   4.170   1.765
 4774TIP3   OH214327   0.825   2.948   2.218
 4774TIP3    H114328   0.876   3.026   2.238
 4774TIP3    H214329   0.769   2.935   2.295
 4775TIP3   OH214330   5.945   2.386   4.824
 4775TIP3    H114331   5.922   2.382   4.731
 4775TIP3    H214332   5.951   2.294   4.851
 4776TIP3   OH214333   3.621   0.176   1.293
 4776TIP3    H114334   3.594   0.123   1.217
 4776TIP3    H214335   3.673   0.116   1.347
 4777TIP3   OH214336   0.920   3.472   2.312
 4777TIP3    H114337   0.873   3.392   2.334
 4777TIP3    H214338   0.886   3.498   2.227
 4778TIP3   OH214339   5.223   1.408   1.359
 4778TIP3    H114340   5.211   1.336   1.421
 4778TIP3    H214341   5.317   1.411   1.344
 4779TIP3   OH214342   1.481   2.734   2.411
 4779TIP3    H114343   1.442   2.784   2.482
 4779TIP3    H214344   1.492   2.796   2.339
 4780TIP3   OH214345   2.189   3.696   2.682
 4780TIP3    H114346   2.141   3.617   2.657
 4780TIP3    H214347   2.271   3.664   2.717
 4781TIP3   OH214348   0.538   3.126   2.298
 4781TIP3    H114349   0.466   3.190   2.299
 4781TIP3    H214350   0.611   3.171   2.339
 4782TIP3   OH214351   0.379   4.537   2.035
 4782TIP3    H114352   0.380   4.576   2.122
 4782TIP3    H214353   0.429   4.598   1.980
 4783TIP3   OH214354   2.859   4.147   0.797
 4783TIP3    H114355   2.947   4.119   0.771
 4783TIP3    H214356   2.802   4.118   0.725
 4784TIP3   OH214357   2.008   4.674   3.453
 4784TIP3    H114358   1.976   4.730   3.382
 4784TIP3    H214359   2.095   4.648   3.425
 4785TIP3   OH214360   4.827   5.758   4.630
 4785TIP3    H114361   4.881   5.796   4.700
 4785TIP3    H214362   4.861   5.798   4.550
 4786TIP3   OH214363   2.048   2.075   4.016
 4786TIP3    H114364   2.012   2.098   4.101
 4786TIP3    H214365   2.118   2.138   4.001
 4787TIP3   OH214366   4.427   4.300   1.048
 4787TIP3    H114367   4.508   4.249   1.047
 4787TIP3    H214368   4.455   4.390   1.066
 4788TIP3   OH214369   5.293   5.751   1.459
 4788TIP3    H114370   5.239   5.780   1.532
 4788TIP3    H214371   5.347   5.827   1.438
 4789TIP3   OH214372   4.822   1.604   2.073
 4789TIP3    H114373   4.775   1.686   2.091
 4789TIP3    H214374   4.854   1.615   1.983
 4790TIP3   OH214375   4.775   4.221   4.341
 4790TIP3    H114376   4.735   4.265   4.266
 4790TIP3    H214377   4.752   4.129   4.330
 4791TIP3   OH214378   0.596   0.973   0.958
 4791TIP3    H114379   0.507   0.937   0.966
 4791TIP3    H214380   0.583   1.054   0.909
 4792TIP3   OH214381   6.140   3.772   1.227
 4792TIP3    H114382   6.100   3.714   1.162
 4792TIP3    H214383   6.136   3.723   1.309
 4793TIP3   OH214384   4.698   5.341   2.053
 4793TIP3    H114385   4.721   5.385   2.135
 4793TIP3    H214386   4.774   5.355   1.996
 4794TIP3   OH214387   3.572   1.971   4.891
 4794TIP3    H114388   3.621   1.929   4.821
 4794TIP3    H214389   3.606   2.061   4.894
 4795TIP3   OH214390   0.953   5.607   2.829
 4795TIP3    H114391   0.909   5.562   2.901
 4795TIP3    H214392   1.023   5.548   2.803
 4796TIP3   OH214393   0.221   1.452   4.696
 4796TIP3    H114394   0.154   1.433   4.761
 4796TIP3    H214395   0.297   1.480   4.747
 4797TIP3   OH214396   0.559   2.022   3.057
 4797TIP3    H114397   0.622   1.958   3.022
 4797TIP3    H214398   0.480   2.009   3.005
 4798TIP3   OH214399   2.065   3.684   0.756
 4798TIP3    H114400   2.013   3.606   0.735
 4798TIP3    H214401   2.000   3.752   0.772
 4799TIP3   OH214402   5.210   4.000   4.725
 4799TIP3    H114403   5.231   4.011   4.633
 4799TIP3    H214404   5.147   4.070   4.744
 4800TIP3   OH214405   5.191   4.866   2.306
 4800TIP3    H114406   5.251   4.911   2.247
 4800TIP3    H214407   5.127   4.934   2.331
 4801TIP3   OH214408   4.745   3.702   3.359
 4801TIP3    H114409   4.737   3.609   3.376
 4801TIP3    H214410   4.735   3.710   3.264
 4802TIP3   OH214411   0.911   0.166   0.304
 4802TIP3    H114412   0.995   0.155   0.349
 4802TIP3    H214413   0.918   0.250   0.259
 4803TIP3   OH214414   0.014   1.646   4.646
 4803TIP3    H114415   0.101   1.611   4.664
 4803TIP3    H214416   0.008   1.723   4.702
 4804TIP3   OH214417   2.196   0.131   2.435
 4804TIP3    H114418   2.139   0.192   2.388
 4804TIP3    H214419   2.137   0.065   2.471
 4805TIP3   OH214420   5.917   0.466   4.120
 4805TIP3    H114421   5.910   0.506   4.033
 4805TIP3    H214422   5.924   0.372   4.102
 4806TIP3   OH214423   5.955   4.415   2.139
 4806TIP3    H114424   5.968   4.323   2.115
 4806TIP3    H214425   5.967   4.463   2.057
 4807TIP3   OH214426   2.521   1.898   0.250
 4807TIP3    H114427   2.575   1.907   0.172
 4807TIP3    H214428   2.558   1.961   0.312
 4808TIP3   OH214429   3.048   4.664   0.266
 4808TIP3    H114430   3.109   4.673   0.193
 4808TIP3    H214431   3.053   4.572   0.291
 4809TIP3   OH214432   3.331   1.902   3.212
 4809TIP3    H114433   3.313   1.995   3.223
 4809TIP3    H214434   3.408   1.899   3.156
 4810TIP3   OH214435   4.025   5.400   4.554
 4810TIP3    H114436   4.010   5.433   4.466
 4810TIP3    H214437   4.111   5.358   4.550
 4811TIP3   OH214438   1.752   0.247   1.340
 4811TIP3    H114439   1.683   0.182   1.329
 4811TIP3    H214440   1.771   0.246   1.433
 4812TIP3   OH214441   4.494   3.332   2.116
 4812TIP3    H114442   4.527   3.388   2.046
 4812TIP3    H214443   4.565   3.329   2.180
 4813TIP3   OH214444   5.736   1.140   1.420
 4813TIP3    H114445   5.784   1.060   1.442
 4813TIP3    H214446   5.651   1.129   1.463
 4814TIP3   OH214447   0.987   2.286   3.464
 4814TIP3    H114448   0.946   2.199   3.468
 4814TIP3    H214449   0.914   2.345   3.447
 4815TIP3   OH214450   3.521   3.140   3.970
 4815TIP3    H114451   3.432   3.120   3.943
 4815TIP3    H214452   3.562   3.055   3.986
 4816TIP3   OH214453   3.310   1.172   2.956
 4816TIP3    H114454   3.358   1.229   3.015
 4816TIP3    H214455   3.360   1.091   2.954
 4817TIP3   OH214456   3.611   4.350   3.037
 4817TIP3    H114457   3.677   4.326   2.972
 4817TIP3    H214458   3.576   4.434   3.005
 4818TIP3   OH214459   4.817   5.842   0.485
 4818TIP3    H114460   4.854   5.784   0.551
 4818TIP3    H214461   4.884   5.848   0.417
 4819TIP3   OH214462   2.431   1.627   0.257
 4819TIP3    H114463   2.521   1.594   0.250
 4819TIP3    H214464   2.439   1.721   0.239
 4820TIP3   OH214465   3.229   3.976   1.435
 4820TIP3    H114466   3.283   4.028   1.376
 4820TIP3    H214467   3.142   4.016   1.430
 4821TIP3   OH214468   0.343   3.065   4.696
 4821TIP3    H114469   0.273   3.089   4.756
 4821TIP3    H214470   0.390   3.146   4.679
 4822TIP3   OH214471   2.566   1.241   4.907
 4822TIP3    H114472   2.484   1.226   4.861
 4822TIP3    H214473   2.551   1.206   4.995
 4823TIP3   OH214474   3.201   1.188   4.908
 4823TIP3    H114475   3.161   1.271   4.934
 4823TIP3    H214476   3.176   1.177   4.816
 4824TIP3   OH214477   4.308   2.356   1.787
 4824TIP3    H114478   4.253   2.325   1.715
 4824TIP3    H214479   4.397   2.332   1.760
 4825TIP3   OH214480   4.537   4.761   5.106
 4825TIP3    H114481   4.501   4.823   5.169
 4825TIP3    H214482   4.504   4.676   5.134
 4826TIP3   OH214483   3.561   0.215   4.749
 4826TIP3    H114484   3.514   0.148   4.798
 4826TIP3    H214485   3.648   0.218   4.790
 4827TIP3   OH214486   2.843   0.661   1.500
 4827TIP3    H114487   2.795   0.660   1.417
 4827TIP3    H214488   2.789   0.609   1.559
 4828TIP3   OH214489   5.551   1.276   2.157
 4828TIP3    H114490   5.580   1.367   2.169
 4828TIP3    H214491   5.543   1.266   2.062
 4829TIP3   OH214492   3.707   3.477   2.002
 4829TIP3    H114493   3.651   3.516   2.069
 4829TIP3    H214494   3.716   3.544   1.935
 4830TIP3   OH214495   4.813   0.514   5.115
 4830TIP3    H114496   4.744   0.518   5.048
 4830TIP3    H214497   4.842   0.423   5.112
 4831TIP3   OH214498   0.311   3.201   2.961
 4831TIP3    H114499   0.256   3.252   2.901
 4831TIP3    H214500   0.348   3.132   2.906
 4832TIP3   OH214501   0.630   3.367   3.652
 4832TIP3    H114502   0.650   3.364   3.558
 4832TIP3    H214503   0.588   3.452   3.665
 4833TIP3   OH214504   5.835   5.750   2.901
 4833TIP3    H114505   5.742   5.729   2.905
 4833TIP3    H214506   5.863   5.752   2.993
 4834TIP3   OH214507   1.040   4.604   4.578
 4834TIP3    H114508   1.063   4.513   4.560
 4834TIP3    H214509   1.117   4.654   4.552
 4835TIP3   OH214510   0.570   5.391   5.096
 4835TIP3    H114511   0.612   5.474   5.121
 4835TIP3    H214512   0.478   5.415   5.081
 4836TIP3   OH214513   1.850   4.826   1.189
 4836TIP3    H114514   1.827   4.758   1.126
 4836TIP3    H214515   1.924   4.871   1.150
 4837TIP3   OH214516   4.199   1.558   2.317
 4837TIP3    H114517   4.211   1.466   2.341
 4837TIP3    H214518   4.110   1.562   2.283
 4838TIP3   OH214519   5.825   2.286   3.795
 4838TIP3    H114520   5.820   2.191   3.812
 4838TIP3    H214521   5.735   2.316   3.801
 4839TIP3   OH214522   3.193   3.816   5.154
 4839TIP3    H114523   3.169   3.893   5.204
 4839TIP3    H214524   3.140   3.822   5.074
 4840TIP3   OH214525   4.511   2.810   2.612
 4840TIP3    H114526   4.574   2.845   2.550
 4840TIP3    H214527   4.564   2.780   2.686
 4841TIP3   OH214528   3.295   5.838   2.671
 4841TIP3    H114529   3.297   5.805   2.760
 4841TIP3    H214530   3.228   5.785   2.628
 4842TIP3   OH214531   3.751   3.803   4.599
 4842TIP3    H114532   3.710   3.733   4.649
 4842TIP3    H214533   3.814   3.758   4.542
 4843TIP3   OH214534   4.022   3.430   5.050
 4843TIP3    H114535   3.934   3.412   5.018
 4843TIP3    H214536   4.049   3.348   5.092
 4844TIP3   OH214537   0.254   3.140   1.753
 4844TIP3    H114538   0.260   3.100   1.666
 4844TIP3    H214539   0.249   3.066   1.814
 4845TIP3   OH214540   1.689   1.754   0.482
 4845TIP3    H114541   1.774   1.772   0.523
 4845TIP3    H214542   1.625   1.775   0.549
 4846TIP3   OH214543   2.684   5.018   4.721
 4846TIP3    H114544   2.618   4.951   4.708
 4846TIP3    H214545   2.635   5.100   4.730
 4847TIP3   OH214546   5.814   1.878   4.440
 4847TIP3    H114547   5.883   1.834   4.390
 4847TIP3    H214548   5.767   1.808   4.484
 4848TIP3   OH214549   1.250   3.437   3.957
 4848TIP3    H114550   1.267   3.445   4.051
 4848TIP3    H214551   1.161   3.468   3.946
 4849TIP3   OH214552   2.038   4.097   3.412
 4849TIP3    H114553   1.969   4.129   3.468
 4849TIP3    H214554   2.052   4.167   3.348
 4850TIP3   OH214555   6.085   2.352   2.880
 4850TIP3    H114556   5.998   2.374   2.848
 4850TIP3    H214557   6.082   2.257   2.895
 4851TIP3   OH214558   4.012   1.345   1.897
 4851TIP3    H114559   3.953   1.399   1.949
 4851TIP3    H214560   3.963   1.327   1.816
 4852TIP3   OH214561   3.967   2.657   3.092
 4852TIP3    H114562   3.988   2.731   3.149
 4852TIP3    H214563   4.047   2.641   3.042
 4853TIP3   OH214564   3.769  -0.006   4.398
 4853TIP3    H114565   3.784   0.010   4.491
 4853TIP3    H214566   3.852   0.016   4.356
 4854TIP3   OH214567   3.599   5.180   3.956
 4854TIP3    H114568   3.512   5.161   3.990
 4854TIP3    H214569   3.616   5.110   3.893
 4855TIP3   OH214570   1.518   3.019   0.130
 4855TIP3    H114571   1.511   3.110   0.100
 4855TIP3    H214572   1.611   2.999   0.123
 4856TIP3   OH214573   0.672   5.436   4.385
 4856TIP3    H114574   0.581   5.435   4.356
 4856TIP3    H214575   0.702   5.345   4.375
 4857TIP3   OH214576   3.202   5.963   0.415
 4857TIP3    H114577   3.189   5.981   0.322
 4857TIP3    H214578   3.121   5.919   0.442
 4858TIP3   OH214579   0.146   4.210   1.164
 4858TIP3    H114580   0.205   4.224   1.238
 4858TIP3    H214581   0.197   4.235   1.087
 4859TIP3   OH214582   0.634   0.034   0.956
 4859TIP3    H114583   0.647   0.104   1.020
 4859TIP3    H214584   0.644   0.077   0.871
 4860TIP3   OH214585   4.940   1.756   1.829
 4860TIP3    H114586   4.922   1.802   1.747
 4860TIP3    H214587   5.029   1.781   1.853
 4861TIP3   OH214588   0.964   3.101   4.181
 4861TIP3    H114589   0.977   3.126   4.273
 4861TIP3    H214590   0.947   3.184   4.136
 4862TIP3   OH214591   5.791   1.650   2.568
 4862TIP3    H114592   5.819   1.587   2.502
 4862TIP3    H214593   5.870   1.667   2.621
 4863TIP3   OH214594   5.137   2.119   2.449
 4863TIP3    H114595   5.089   2.062   2.510
 4863TIP3    H214596   5.120   2.081   2.363
 4864TIP3   OH214597   1.949   0.029   0.412
 4864TIP3    H114598   2.023   0.063   0.463
 4864TIP3    H214599   1.991  -0.016   0.338
 4865TIP3   OH214600   5.115   2.766   3.190
 4865TIP3    H114601   5.068   2.683   3.201
 4865TIP3    H214602   5.200   2.741   3.155
 4866TIP3   OH214603   5.337   4.839   1.229
 4866TIP3    H114604   5.303   4.784   1.300
 4866TIP3    H214605   5.260   4.886   1.197
 4867TIP3   OH214606   4.590   0.059   4.724
 4867TIP3    H114607   4.636   0.018   4.651
 4867TIP3    H214608   4.521   0.111   4.682
 4868TIP3   OH214609   5.485   5.368   2.743
 4868TIP3    H114610   5.506   5.321   2.663
 4868TIP3    H214611   5.475   5.459   2.716
 4869TIP3   OH214612   2.084   1.485   2.415
 4869TIP3    H114613   2.001   1.511   2.374
 4869TIP3    H214614   2.063   1.479   2.508
 4870TIP3   OH214615   0.413   0.791   1.774
 4870TIP3    H114616   0.450   0.816   1.690
 4870TIP3    H214617   0.368   0.708   1.757
 4871TIP3   OH214618   0.821   1.604   0.970
 4871TIP3    H114619   0.797   1.512   0.955
 4871TIP3    H214620   0.747   1.654   0.935
 4872TIP3   OH214621   0.773   0.789   0.943
 4872TIP3    H114622   0.702   0.853   0.936
 4872TIP3    H214623   0.851   0.842   0.961
 4873TIP3   OH214624   2.583   1.161   3.095
 4873TIP3    H114625   2.626   1.110   3.164
 4873TIP3    H214626   2.576   1.101   3.021
 4874TIP3   OH214627   1.931   1.360   5.037
 4874TIP3    H114628   1.859   1.301   5.060
 4874TIP3    H214629   1.975   1.317   4.964
 4875TIP3   OH214630   3.690   0.854   2.475
 4875TIP3    H114631   3.623   0.893   2.420
 4875TIP3    H214632   3.647   0.779   2.516
 4876TIP3   OH214633   2.485   4.599   1.177
 4876TIP3    H114634   2.444   4.671   1.129
 4876TIP3    H214635   2.579   4.614   1.168
 4877TIP3   OH214636   4.326   3.918   4.768
 4877TIP3    H114637   4.339   3.890   4.678
 4877TIP3    H214638   4.298   4.009   4.761
 4878TIP3   OH214639   1.443   1.951   1.169
 4878TIP3    H114640   1.369   1.988   1.121
 4878TIP3    H214641   1.464   2.016   1.235
 4879TIP3   OH214642   1.197   0.106   0.038
 4879TIP3    H114643   1.208   0.201   0.030
 4879TIP3    H214644   1.135   0.084  -0.031
 4880TIP3   OH214645   4.693   4.197   1.803
 4880TIP3    H114646   4.658   4.226   1.887
 4880TIP3    H214647   4.645   4.117   1.784
 4881TIP3   OH214648   5.197   3.883   0.569
 4881TIP3    H114649   5.271   3.911   0.623
 4881TIP3    H214650   5.236   3.865   0.483
 4882TIP3   OH214651   6.061   3.635   2.803
 4882TIP3    H114652   5.991   3.686   2.844
 4882TIP3    H214653   6.018   3.557   2.769
 4883TIP3   OH214654   6.075   4.795   2.987
 4883TIP3    H114655   6.018   4.782   2.911
 4883TIP3    H214656   6.117   4.880   2.972
 4884TIP3   OH214657   0.934   5.430   0.164
 4884TIP3    H114658   0.848   5.398   0.190
 4884TIP3    H214659   0.990   5.413   0.239
 4885TIP3   OH214660   5.993   0.761   3.502
 4885TIP3    H114661   5.975   0.695   3.436
 4885TIP3    H214662   6.075   0.735   3.542
 4886TIP3   OH214663   5.169   2.995   3.830
 4886TIP3    H114664   5.142   2.945   3.907
 4886TIP3    H214665   5.203   3.078   3.866
 4887TIP3   OH214666   1.785   5.000   3.007
 4887TIP3    H114667   1.849   4.958   3.064
 4887TIP3    H214668   1.745   5.068   3.062
 4888TIP3   OH214669   5.498   1.714   3.924
 4888TIP3    H114670   5.472   1.782   3.988
 4888TIP3    H214671   5.520   1.763   3.845
 4889TIP3   OH214672   3.175   0.388   2.998
 4889TIP3    H114673   3.141   0.304   3.028
 4889TIP3    H214674   3.101   0.448   3.006
 4890TIP3   OH214675   4.355   3.729   4.166
 4890TIP3    H114676   4.268   3.763   4.145
 4890TIP3    H214677   4.360   3.646   4.117
 4891TIP3   OH214678   5.859   3.217   3.398
 4891TIP3    H114679   5.879   3.258   3.314
 4891TIP3    H214680   5.814   3.136   3.376
 4892TIP3   OH214681   5.551   2.272   3.923
 4892TIP3    H114682   5.571   2.178   3.926
 4892TIP3    H214683   5.467   2.277   3.878
 4893TIP3   OH214684   0.925   1.071   1.859
 4893TIP3    H114685   0.988   1.143   1.858
 4893TIP3    H214686   0.977   0.995   1.832
 4894TIP3   OH214687   2.701   5.437   1.977
 4894TIP3    H114688   2.736   5.522   2.004
 4894TIP3    H214689   2.615   5.432   2.019
 4895TIP3   OH214690   6.308   5.868   4.232
 4895TIP3    H114691   6.234   5.927   4.220
 4895TIP3    H214692   6.321   5.828   4.146
 4896TIP3   OH214693   5.743   3.165   0.671
 4896TIP3    H114694   5.698   3.246   0.647
 4896TIP3    H214695   5.675   3.098   0.668
 4897TIP3   OH214696   5.503   4.106   1.671
 4897TIP3    H114697   5.427   4.076   1.721
 4897TIP3    H214698   5.481   4.197   1.649
 4898TIP3   OH214699   0.821   5.483   1.423
 4898TIP3    H114700   0.805   5.486   1.518
 4898TIP3    H214701   0.864   5.566   1.404
 4899TIP3   OH214702   5.946   3.756   0.821
 4899TIP3    H114703   5.961   3.816   0.895
 4899TIP3    H214704   5.939   3.669   0.861
 4900TIP3   OH214705   0.544   4.537   0.987
 4900TIP3    H114706   0.591   4.525   0.904
 4900TIP3    H214707   0.610   4.568   1.048
 4901TIP3   OH214708   1.163   3.985   3.688
 4901TIP3    H114709   1.088   3.987   3.747
 4901TIP3    H214710   1.176   4.077   3.663
 4902TIP3   OH214711   1.507   1.360   0.114
 4902TIP3    H114712   1.596   1.326   0.102
 4902TIP3    H214713   1.450   1.289   0.086
 4903TIP3   OH214714   2.891   4.471   2.587
 4903TIP3    H114715   2.982   4.474   2.558
 4903TIP3    H214716   2.894   4.499   2.678
 4904TIP3   OH214717   4.231   2.708   0.826
 4904TIP3    H114718   4.271   2.660   0.899
 4904TIP3    H214719   4.292   2.780   0.809
 4905TIP3   OH214720   2.997   2.219   4.383
 4905TIP3    H114721   2.983   2.172   4.466
 4905TIP3    H214722   2.918   2.202   4.332
 4906TIP3   OH214723   1.852   3.996   0.019
 4906TIP3    H114724   1.860   4.040   0.104
 4906TIP3    H214725   1.913   4.042  -0.038
 4907TIP3   OH214726   5.598   5.869   4.218
 4907TIP3    H114727   5.616   5.963   4.220
 4907TIP3    H214728   5.517   5.861   4.167
 4908TIP3   OH214729   3.118   1.545   3.116
 4908TIP3    H114730   3.115   1.634   3.152
 4908TIP3    H214731   3.193   1.504   3.157
 4909TIP3   OH214732   2.223   4.348   2.183
 4909TIP3    H114733   2.159   4.408   2.222
 4909TIP3    H214734   2.219   4.270   2.239
 4910TIP3   OH214735   1.028   2.690   1.853
 4910TIP3    H114736   1.058   2.747   1.782
 4910TIP3    H214737   0.952   2.735   1.891
 4911TIP3   OH214738   3.839   0.356   1.299
 4911TIP3    H114739   3.865   0.355   1.391
 4911TIP3    H214740   3.763   0.298   1.295
 4912TIP3   OH214741   0.456   3.409   1.672
 4912TIP3    H114742   0.489   3.321   1.656
 4912TIP3    H214743   0.418   3.436   1.588
 4913TIP3   OH214744   6.339   4.712   3.795
 4913TIP3    H114745   6.331   4.735   3.702
 4913TIP3    H214746   6.305   4.623   3.802
 4914TIP3   OH214747   3.400   4.927   2.472
 4914TIP3    H114748   3.481   4.962   2.509
 4914TIP3    H214749   3.353   4.890   2.547
 4915TIP3   OH214750   0.369   2.317   2.113
 4915TIP3    H114751   0.453   2.325   2.160
 4915TIP3    H214752   0.392   2.274   2.031
 4916TIP3   OH214753   3.507   5.620   2.595
 4916TIP3    H114754   3.566   5.600   2.523
 4916TIP3    H214755   3.420   5.595   2.563
 4917TIP3   OH214756   2.605   2.834   5.074
 4917TIP3    H114757   2.593   2.816   4.981
 4917TIP3    H214758   2.518   2.860   5.105
 4918TIP3   OH214759   4.521   3.707   4.826
 4918TIP3    H114760   4.565   3.779   4.780
 4918TIP3    H214761   4.428   3.728   4.818
 4919TIP3   OH214762   0.104   4.068   4.644
 4919TIP3    H114763   0.066   4.117   4.571
 4919TIP3    H214764   0.113   4.133   4.714
 4920TIP3   OH214765   0.142   3.858   1.255
 4920TIP3    H114766   0.075   3.892   1.196
 4920TIP3    H214767   0.101   3.782   1.297
 4921TIP3   OH214768   1.154   1.723   4.626
 4921TIP3    H114769   1.235   1.769   4.607
 4921TIP3    H214770   1.181   1.634   4.649
 4922TIP3   OH214771   5.423   3.724   4.724
 4922TIP3    H114772   5.425   3.696   4.815
 4922TIP3    H214773   5.502   3.777   4.713
 4923TIP3   OH214774   5.829   2.259   0.791
 4923TIP3    H114775   5.797   2.347   0.770
 4923TIP3    H214776   5.797   2.243   0.880
 4924TIP3   OH214777   1.133   1.255   1.906
 4924TIP3    H114778   1.143   1.196   1.980
 4924TIP3    H214779   1.194   1.221   1.840
 4925TIP3   OH214780   1.559  -0.002   3.993
 4925TIP3    H114781   1.481  -0.013   3.939
 4925TIP3    H214782   1.616   0.055   3.942
 4926TIP3   OH214783   5.504   2.563   4.782
 4926TIP3    H114784   5.430   2.521   4.739
 4926TIP3    H214785   5.581   2.533   4.734
 4927TIP3   OH214786   0.214   2.646   2.811
 4927TIP3    H114787   0.307   2.670   2.817
 4927TIP3    H214788   0.200   2.630   2.718
 4928TIP3   OH214789   3.759   1.718   4.268
 4928TIP3    H114790   3.854   1.714   4.260
 4928TIP3    H214791   3.728   1.738   4.180
 4929TIP3   OH214792   4.757   4.423   2.903
 4929TIP3    H114793   4.788   4.350   2.850
 4929TIP3    H214794   4.830   4.485   2.905
 4930TIP3   OH214795   1.128   1.062   4.955
 4930TIP3    H114796   1.221   1.054   4.975
 4930TIP3    H214797   1.121   1.146   4.908
 4931TIP3   OH214798   2.167   0.121   0.582
 4931TIP3    H114799   2.132   0.168   0.658
 4931TIP3    H214800   2.250   0.164   0.564
 4932TIP3   OH214801   2.765   3.957   3.306
 4932TIP3    H114802   2.812   3.893   3.253
 4932TIP3    H214803   2.828   4.026   3.323
 4933TIP3   OH214804   2.484   5.613   3.988
 4933TIP3    H114805   2.513   5.574   4.071
 4933TIP3    H214806   2.528   5.697   3.984
 4934TIP3   OH214807   4.462   3.301   0.515
 4934TIP3    H114808   4.383   3.356   0.519
 4934TIP3    H214809   4.430   3.213   0.533
 4935TIP3   OH214810   4.385   5.918   0.846
 4935TIP3    H114811   4.440   5.976   0.899
 4935TIP3    H214812   4.296   5.949   0.860
 4936TIP3   OH214813   1.307   2.048   3.512
 4936TIP3    H114814   1.216   2.029   3.534
 4936TIP3    H214815   1.331   2.121   3.568
 4937TIP3   OH214816   5.739   5.869   2.390
 4937TIP3    H114817   5.683   5.797   2.417
 4937TIP3    H214818   5.687   5.917   2.325
 4938TIP3   OH214819   6.117   3.716   0.611
 4938TIP3    H114820   6.108   3.766   0.530
 4938TIP3    H214821   6.044   3.745   0.665
 4939TIP3   OH214822   4.727   0.427   1.017
 4939TIP3    H114823   4.816   0.462   1.007
 4939TIP3    H214824   4.677   0.470   0.948
 4940TIP3   OH214825   5.616   3.720   3.029
 4940TIP3    H114826   5.543   3.747   3.086
 4940TIP3    H214827   5.686   3.700   3.090
 4941TIP3   OH214828   0.162   5.709   5.051
 4941TIP3    H114829   0.129   5.625   5.018
 4941TIP3    H214830   0.185   5.758   4.972
 4942TIP3   OH214831   6.032   0.804   3.892
 4942TIP3    H114832   6.128   0.801   3.898
 4942TIP3    H214833   6.002   0.781   3.980
 4943TIP3   OH214834   1.538   0.569   3.278
 4943TIP3    H114835   1.561   0.662   3.288
 4943TIP3    H214836   1.618   0.523   3.303
 4944TIP3   OH214837   5.838   4.410   5.089
 4944TIP3    H114838   5.889   4.336   5.056
 4944TIP3    H214839   5.759   4.411   5.035
 4945TIP3   OH214840   3.279   2.985   4.678
 4945TIP3    H114841   3.227   3.060   4.648
 4945TIP3    H214842   3.240   2.909   4.634
 4946TIP3   OH214843   5.004   1.116   4.408
 4946TIP3    H114844   4.920   1.109   4.453
 4946TIP3    H214845   4.994   1.060   4.331
 4947TIP3   OH214846   2.677   0.551   3.862
 4947TIP3    H114847   2.605   0.570   3.801
 4947TIP3    H214848   2.698   0.635   3.902
 4948TIP3   OH214849   3.574   4.508   1.167
 4948TIP3    H114850   3.660   4.509   1.126
 4948TIP3    H214851   3.539   4.596   1.152
 4949TIP3   OH214852   4.698   0.094   2.379
 4949TIP3    H114853   4.675   0.171   2.430
 4949TIP3    H214854   4.615   0.058   2.349
 4950TIP3   OH214855   3.888   5.024   4.162
 4950TIP3    H114856   3.934   5.033   4.245
 4950TIP3    H214857   3.801   4.990   4.186
 4951TIP3   OH214858   4.432   5.811   1.608
 4951TIP3    H114859   4.364   5.825   1.542
 4951TIP3    H214860   4.459   5.899   1.634
 4952TIP3   OH214861   0.157   2.119   1.872
 4952TIP3    H114862   0.201   2.082   1.948
 4952TIP3    H214863   0.071   2.076   1.871
 4953TIP3   OH214864   3.258   2.956   4.978
 4953TIP3    H114865   3.184   2.897   4.991
 4953TIP3    H214866   3.278   2.948   4.884
 4954TIP3   OH214867   5.945   2.327   1.355
 4954TIP3    H114868   6.013   2.269   1.321
 4954TIP3    H214869   5.925   2.292   1.442
 4955TIP3   OH214870   4.804   2.626   4.091
 4955TIP3    H114871   4.775   2.662   4.008
 4955TIP3    H214872   4.761   2.679   4.158
 4956TIP3   OH214873   4.857   3.742   2.317
 4956TIP3    H114874   4.839   3.650   2.339
 4956TIP3    H214875   4.899   3.777   2.396
 4957TIP3   OH214876   2.942   5.940   3.989
 4957TIP3    H114877   2.946   5.954   3.895
 4957TIP3    H214878   2.961   5.846   4.000
 4958TIP3   OH214879   3.881   4.615   2.088
 4958TIP3    H114880   3.915   4.564   2.162
 4958TIP3    H214881   3.788   4.627   2.108
 4959TIP3   OH214882   3.515   4.339   4.940
 4959TIP3    H114883   3.596   4.291   4.959
 4959TIP3    H214884   3.461   4.276   4.892
 4960TIP3   OH214885   1.681   3.368   1.099
 4960TIP3    H114886   1.766   3.410   1.082
 4960TIP3    H214887   1.694   3.320   1.181
 4961TIP3   OH214888   5.838   2.396   2.735
 4961TIP3    H114889   5.770   2.429   2.793
 4961TIP3    H214890   5.858   2.469   2.676
 4962TIP3   OH214891   2.225   2.745   5.190
 4962TIP3    H114892   2.285   2.693   5.136
 4962TIP3    H214893   2.242   2.836   5.165
 4963TIP3   OH214894   4.663   2.288   4.130
 4963TIP3    H114895   4.609   2.289   4.209
 4963TIP3    H214896   4.751   2.313   4.160
 4964TIP3   OH214897   1.094   5.257   4.934
 4964TIP3    H114898   1.108   5.350   4.953
 4964TIP3    H214899   1.107   5.214   5.019
 4965TIP3   OH214900   0.134   0.241   3.578
 4965TIP3    H114901   0.121   0.190   3.658
 4965TIP3    H214902   0.095   0.327   3.598
 4966TIP3   OH214903   5.418   2.159   3.332
 4966TIP3    H114904   5.504   2.155   3.374
 4966TIP3    H214905   5.356   2.161   3.404
 4967TIP3   OH214906   0.639   3.463   0.370
 4967TIP3    H114907   0.563   3.408   0.390
 4967TIP3    H214908   0.615   3.510   0.291
 4968TIP3   OH214909   4.639   3.875   2.180
 4968TIP3    H114910   4.650   3.950   2.239
 4968TIP3    H214911   4.705   3.812   2.209
 4969TIP3   OH214912   1.896   3.246   1.525
 4969TIP3    H114913   1.846   3.183   1.474
 4969TIP3    H214914   1.967   3.195   1.564
 4970TIP3   OH214915   2.881   5.273   3.076
 4970TIP3    H114916   2.944   5.327   3.125
 4970TIP3    H214917   2.811   5.254   3.139
 4971TIP3   OH214918   0.802   0.637   4.340
 4971TIP3    H114919   0.844   0.559   4.374
 4971TIP3    H214920   0.725   0.605   4.292
 4972TIP3   OH214921   1.474   5.609   2.969
 4972TIP3    H114922   1.450   5.517   2.980
 4972TIP3    H214923   1.401   5.657   3.009
 4973TIP3   OH214924   0.592   1.585   3.454
 4973TIP3    H114925   0.634   1.628   3.380
 4973TIP3    H214926   0.556   1.657   3.506
 4974TIP3   OH214927   2.218   2.095   4.424
 4974TIP3    H114928   2.272   2.016   4.433
 4974TIP3    H214929   2.144   2.080   4.484
 4975TIP3   OH214930   0.393   5.662   4.286
 4975TIP3    H114931   0.488   5.672   4.284
 4975TIP3    H214932   0.364   5.718   4.358
 4976TIP3   OH214933   2.120   1.496   1.542
 4976TIP3    H114934   2.135   1.558   1.470
 4976TIP3    H214935   2.180   1.525   1.611
 4977TIP3   OH214936   0.592   3.992   3.510
 4977TIP3    H114937   0.559   4.018   3.424
 4977TIP3    H214938   0.600   4.074   3.558
 4978TIP3   OH214939   6.101   3.913   0.337
 4978TIP3    H114940   6.146   3.983   0.288
 4978TIP3    H214941   6.077   3.849   0.271
 4979TIP3   OH214942   1.246   1.797   0.636
 4979TIP3    H114943   1.267   1.846   0.716
 4979TIP3    H214944   1.324   1.744   0.619
 4980TIP3   OH214945   2.167   4.410   4.951
 4980TIP3    H114946   2.075   4.425   4.931
 4980TIP3    H214947   2.203   4.497   4.965
 4981TIP3   OH214948   4.534   3.968   4.217
 4981TIP3    H114949   4.448   3.998   4.190
 4981TIP3    H214950   4.517   3.912   4.293
 4982TIP3   OH214951   5.534   4.707   4.149
 4982TIP3    H114952   5.615   4.664   4.176
 4982TIP3    H214953   5.550   4.800   4.166
 4983TIP3   OH214954   4.051   3.892   0.211
 4983TIP3    H114955   3.962   3.864   0.189
 4983TIP3    H214956   4.039   3.968   0.267
 4984TIP3   OH214957   3.765   1.830   4.715
 4984TIP3    H114958   3.743   1.818   4.622
 4984TIP3    H214959   3.832   1.899   4.714
 4985TIP3   OH214960   5.843   2.157   2.588
 4985TIP3    H114961   5.879   2.226   2.644
 4985TIP3    H214962   5.877   2.176   2.501
 4986TIP3   OH214963   1.487   3.782   0.020
 4986TIP3    H114964   1.412   3.838   0.002
 4986TIP3    H214965   1.559   3.822  -0.029
 4987TIP3   OH214966   6.240   0.511   4.925
 4987TIP3    H114967   6.187   0.446   4.878
 4987TIP3    H214968   6.219   0.498   5.017
 4988TIP3   OH214969   5.769   1.964   3.327
 4988TIP3    H114970   5.835   1.918   3.275
 4988TIP3    H214971   5.808   2.050   3.345
 4989TIP3   OH214972   1.214   5.588   4.812
 4989TIP3    H114973   1.231   5.575   4.719
 4989TIP3    H214974   1.243   5.677   4.830
 4990TIP3   OH214975   6.327   1.473   4.427
 4990TIP3    H114976   6.335   1.543   4.492
 4990TIP3    H214977   6.286   1.401   4.474
 4991TIP3   OH214978   1.887   4.798   4.306
 4991TIP3    H114979   1.920   4.755   4.227
 4991TIP3    H214980   1.947   4.872   4.320
 4992TIP3   OH214981   2.014   3.204   3.641
 4992TIP3    H114982   2.033   3.147   3.566
 4992TIP3    H214983   1.924   3.183   3.664
 4993TIP3   OH214984   0.702   3.582   5.137
 4993TIP3    H114985   0.795   3.585   5.160
 4993TIP3    H214986   0.695   3.508   5.077
 4994TIP3   OH214987   1.724   2.700   3.819
 4994TIP3    H114988   1.805   2.750   3.831
 4994TIP3    H214989   1.656   2.757   3.853
 4995TIP3   OH214990   2.156   3.055   2.032
 4995TIP3    H114991   2.103   2.979   2.054
 4995TIP3    H214992   2.246   3.027   2.044
 4996TIP3   OH214993   6.268   3.917   3.008
 4996TIP3    H114994   6.270   3.905   2.913
 4996TIP3    H214995   6.216   3.844   3.041
 4997TIP3   OH214996   1.545   2.254   1.846
 4997TIP3    H114997   1.602   2.329   1.828
 4997TIP3    H214998   1.606   2.182   1.863
 4998TIP3   OH214999   0.447   0.525   1.018
 4998TIP3    H115000   0.358   0.511   0.987
 4998TIP3    H215001   0.501   0.520   0.939
 4999TIP3   OH215002   4.299   4.969   1.162
 4999TIP3    H115003   4.350   4.894   1.193
 4999TIP3    H215004   4.344   4.998   1.084
 5000TIP3   OH215005   3.474   0.481   0.847
 5000TIP3    H115006   3.424   0.428   0.786
 5000TIP3    H215007   3.565   0.464   0.824
 5001TIP3   OH215008   0.985   0.467   1.563
 5001TIP3    H115009   0.927   0.543   1.572
 5001TIP3    H215010   1.012   0.447   1.653
 5002TIP3   OH215011   3.765   1.904   2.578
 5002TIP3    H115012   3.764   1.964   2.653
 5002TIP3    H215013   3.677   1.913   2.540
 5003TIP3   OH215014   4.503   1.018   0.546
 5003TIP3    H115015   4.415   1.018   0.584
 5003TIP3    H215016   4.516   1.108   0.517
 5004TIP3   OH215017   4.917   0.663   4.365
 5004TIP3    H115018   4.931   0.748   4.406
 5004TIP3    H215019   4.889   0.606   4.437
 5005TIP3   OH215020   0.997   0.834   2.763
 5005TIP3    H115021   0.937   0.763   2.784
 5005TIP3    H215022   1.066   0.794   2.711
 5006TIP3   OH215023   1.551   2.638   0.917
 5006TIP3    H115024   1.560   2.552   0.957
 5006TIP3    H215025   1.569   2.699   0.989
 5007TIP3   OH215026   2.644   3.795   2.156
 5007TIP3    H115027   2.734   3.819   2.137
 5007TIP3    H215028   2.599   3.879   2.169
 5008TIP3   OH215029   3.610   3.122   4.871
 5008TIP3    H115030   3.580   3.157   4.787
 5008TIP3    H215031   3.605   3.027   4.860
 5009TIP3   OH215032   5.903   0.784   2.212
 5009TIP3    H115033   5.966   0.762   2.143
 5009TIP3    H215034   5.824   0.736   2.188
 5010TIP3   OH215035   6.055   1.513   4.406
 5010TIP3    H115036   6.145   1.524   4.376
 5010TIP3    H215037   6.063   1.504   4.501
 5011TIP3   OH215038   1.272   2.354   4.113
 5011TIP3    H115039   1.278   2.304   4.194
 5011TIP3    H215040   1.212   2.425   4.134
 5012TIP3   OH215041   2.459   4.835   0.763
 5012TIP3    H115042   2.473   4.784   0.683
 5012TIP3    H215043   2.537   4.819   0.815
 5013TIP3   OH215044   1.534   0.867   3.606
 5013TIP3    H115045   1.613   0.862   3.659
 5013TIP3    H215046   1.462   0.853   3.668
 5014TIP3   OH215047   1.136   2.126   5.014
 5014TIP3    H115048   1.104   2.037   5.029
 5014TIP3    H215049   1.059   2.182   5.024
 5015TIP3   OH215050   4.071   4.382   4.693
 5015TIP3    H115051   3.975   4.382   4.695
 5015TIP3    H215052   4.094   4.474   4.697
 5016TIP3   OH215053   3.060   5.102   1.664
 5016TIP3    H115054   3.126   5.036   1.642
 5016TIP3    H215055   3.099   5.185   1.637
 5017TIP3   OH215056   3.836   2.754   3.747
 5017TIP3    H115057   3.856   2.671   3.705
 5017TIP3    H215058   3.921   2.788   3.775
 5018TIP3   OH215059   2.387   0.528   1.265
 5018TIP3    H115060   2.385   0.622   1.246
 5018TIP3    H215061   2.311   0.513   1.321
 5019TIP3   OH215062   0.985   0.488   2.256
 5019TIP3    H115063   1.002   0.581   2.268
 5019TIP3    H215064   1.062   0.445   2.295
 5020TIP3   OH215065   1.124   3.235   3.757
 5020TIP3    H115066   1.034   3.264   3.767
 5020TIP3    H215067   1.173   3.286   3.821
 5021TIP3   OH215068   0.752   5.149   0.002
 5021TIP3    H115069   0.787   5.063  -0.024
 5021TIP3    H215070   0.795   5.168   0.085
 5022TIP3   OH215071   0.146   0.159   2.189
 5022TIP3    H115072   0.239   0.157   2.209
 5022TIP3    H215073   0.118   0.068   2.190
 5023TIP3   OH215074   2.925   5.017   4.597
 5023TIP3    H115075   2.830   5.025   4.604
 5023TIP3    H215076   2.940   4.927   4.569
 5024TIP3   OH215077   4.047   4.538   1.862
 5024TIP3    H115078   4.085   4.454   1.888
 5024TIP3    H215079   3.988   4.561   1.934
 5025TIP3   OH215080   6.371   4.464   4.978
 5025TIP3    H115081   6.298   4.524   4.988
 5025TIP3    H215082   6.380   4.421   5.063
 5026TIP3   OH215083   0.708   1.224   1.111
 5026TIP3    H115084   0.735   1.136   1.135
 5026TIP3    H215085   0.616   1.228   1.137
 5027TIP3   OH215086   5.339   4.966   0.223
 5027TIP3    H115087   5.328   4.910   0.299
 5027TIP3    H215088   5.256   4.959   0.176
 5028TIP3   OH215089   5.064   5.771   3.447
 5028TIP3    H115090   4.990   5.802   3.394
 5028TIP3    H215091   5.024   5.741   3.529
 5029TIP3   OH215092   6.207   1.849   2.097
 5029TIP3    H115093   6.213   1.761   2.134
 5029TIP3    H215094   6.129   1.846   2.041
 5030TIP3   OH215095   1.081   3.710   1.152
 5030TIP3    H115096   1.117   3.770   1.218
 5030TIP3    H215097   1.155   3.657   1.124
 5031TIP3   OH215098   5.602   0.800   0.137
 5031TIP3    H115099   5.657   0.852   0.080
 5031TIP3    H215100   5.564   0.863   0.198
 5032TIP3   OH215101   5.124   2.840   4.064
 5032TIP3    H115102   5.176   2.885   4.131
 5032TIP3    H215103   5.034   2.867   4.081
 5033TIP3   OH215104   4.209   0.751   4.559
 5033TIP3    H115105   4.276   0.778   4.622
 5033TIP3    H215106   4.126   0.762   4.606
 5034TIP3   OH215107   1.047   1.966   1.873
 5034TIP3    H115108   1.046   1.894   1.936
 5034TIP3    H215109   1.126   2.015   1.895
 5035TIP3   OH215110   6.336   5.341   1.293
 5035TIP3    H115111   6.305   5.324   1.382
 5035TIP3    H215112   6.431   5.335   1.299
 5036TIP3   OH215113   4.272   3.398   4.116
 5036TIP3    H115114   4.356   3.423   4.075
 5036TIP3    H215115   4.297   3.337   4.185
 5037TIP3   OH215116   3.682   1.382   1.729
 5037TIP3    H115117   3.701   1.458   1.675
 5037TIP3    H215118   3.587   1.385   1.743
 5038TIP3   OH215119   5.043   2.800   0.432
 5038TIP3    H115120   5.011   2.710   0.421
 5038TIP3    H215121   5.017   2.845   0.352
 5039TIP3   OH215122   5.824   3.096   4.235
 5039TIP3    H115123   5.817   3.060   4.323
 5039TIP3    H215124   5.831   3.019   4.178
 5040TIP3   OH215125   1.399   3.606   3.790
 5040TIP3    H115126   1.358   3.554   3.860
 5040TIP3    H215127   1.382   3.697   3.815
 5041TIP3   OH215128   1.092   1.624   0.792
 5041TIP3    H115129   1.146   1.674   0.731
 5041TIP3    H215130   1.005   1.662   0.784
 5042TIP3   OH215131   2.999   2.022   0.326
 5042TIP3    H115132   3.006   1.967   0.249
 5042TIP3    H215133   3.086   2.059   0.338
 5043TIP3   OH215134   5.926   0.471   1.967
 5043TIP3    H115135   5.985   0.449   2.039
 5043TIP3    H215136   5.974   0.446   1.888
 5044TIP3   OH215137   5.152   0.867   4.397
 5044TIP3    H115138   5.118   0.951   4.427
 5044TIP3    H215139   5.239   0.861   4.435
 5045TIP3   OH215140   1.825   4.949   2.602
 5045TIP3    H115141   1.828   4.893   2.680
 5045TIP3    H215142   1.841   5.037   2.634
 5046TIP3   OH215143   4.337   1.093   3.988
 5046TIP3    H115144   4.247   1.099   3.955
 5046TIP3    H215145   4.391   1.086   3.910
 5047TIP3   OH215146   0.998   1.010   1.529
 5047TIP3    H115147   1.083   0.969   1.544
 5047TIP3    H215148   1.015   1.104   1.537
 5048TIP3   OH215149   0.559   5.460   1.341
 5048TIP3    H115150   0.647   5.488   1.368
 5048TIP3    H215151   0.505   5.538   1.352
 5049TIP3   OH215152   2.860   3.675   4.183
 5049TIP3    H115153   2.851   3.708   4.093
 5049TIP3    H215154   2.954   3.666   4.196
 5050TIP3   OH215155   0.984   0.919   1.048
 5050TIP3    H115156   0.966   0.913   1.142
 5050TIP3    H215157   0.997   1.012   1.032
 5051TIP3   OH215158   0.298   5.011   4.811
 5051TIP3    H115159   0.369   5.000   4.747
 5051TIP3    H215160   0.221   5.030   4.759
 5052TIP3   OH215161   0.452   0.694   2.367
 5052TIP3    H115162   0.394   0.622   2.343
 5052TIP3    H215163   0.521   0.693   2.301
 5053TIP3   OH215164   6.166   2.557   3.047
 5053TIP3    H115165   6.236   2.612   3.011
 5053TIP3    H215166   6.143   2.499   2.974
 5054TIP3   OH215167   4.484   1.111   4.225
 5054TIP3    H115168   4.412   1.135   4.166
 5054TIP3    H215169   4.489   1.185   4.286
 5055TIP3   OH215170   0.175   1.230   0.951
 5055TIP3    H115171   0.188   1.265   0.863
 5055TIP3    H215172   0.091   1.185   0.947
 5056TIP3   OH215173   3.497   2.945   0.286
 5056TIP3    H115174   3.521   3.031   0.252
 5056TIP3    H215175   3.408   2.931   0.254
 5057TIP3   OH215176   5.062   3.649   1.126
 5057TIP3    H115177   5.142   3.692   1.094
 5057TIP3    H215178   4.997   3.719   1.128
 5058TIP3   OH215179   0.544   5.180   4.111
 5058TIP3    H115180   0.635   5.164   4.087
 5058TIP3    H215181   0.535   5.275   4.112
 5059TIP3   OH215182   2.944   4.160   0.047
 5059TIP3    H115183   3.026   4.194   0.011
 5059TIP3    H215184   2.938   4.071   0.012
 5060TIP3   OH215185   2.852   4.008   0.246
 5060TIP3    H115186   2.877   4.061   0.322
 5060TIP3    H215187   2.875   4.062   0.171
 5061TIP3   OH215188   5.225   2.139   3.515
 5061TIP3    H115189   5.211   2.225   3.555
 5061TIP3    H215190   5.137   2.110   3.490
 5062TIP3   OH215191   4.270   2.093   1.978
 5062TIP3    H115192   4.192   2.132   1.939
 5062TIP3    H215193   4.338   2.160   1.968
 5063TIP3   OH215194   3.843   4.370   0.532
 5063TIP3    H115195   3.769   4.368   0.593
 5063TIP3    H215196   3.919   4.390   0.587
 5064TIP3   OH215197   6.247   1.673   1.466
 5064TIP3    H115198   6.298   1.614   1.522
 5064TIP3    H215199   6.178   1.708   1.523
 5065TIP3   OH215200   1.301   5.102   0.245
 5065TIP3    H115201   1.217   5.058   0.234
 5065TIP3    H215202   1.364   5.047   0.199
 5066TIP3   OH215203   2.139   1.726   2.925
 5066TIP3    H115204   2.151   1.742   3.019
 5066TIP3    H215205   2.221   1.687   2.896
 5067TIP3   OH215206   5.959   0.465   2.515
 5067TIP3    H115207   5.960   0.370   2.503
 5067TIP3    H215208   5.981   0.500   2.428
 5068TIP3   OH215209   1.400   1.704   2.055
 5068TIP3    H115210   1.333   1.656   2.005
 5068TIP3    H215211   1.456   1.743   1.988
 5069TIP3   OH215212   3.764   3.460   1.492
 5069TIP3    H115213   3.752   3.550   1.522
 5069TIP3    H215214   3.684   3.441   1.443
 5070TIP3   OH215215   2.265   4.950   2.122
 5070TIP3    H115216   2.181   4.906   2.131
 5070TIP3    H215217   2.273   5.002   2.202
 5071TIP3   OH215218   2.804   2.431   2.959
 5071TIP3    H115219   2.751   2.506   2.933
 5071TIP3    H215220   2.742   2.370   2.999
 5072TIP3   OH215221   4.442   4.857   4.846
 5072TIP3    H115222   4.516   4.829   4.900
 5072TIP3    H215223   4.373   4.878   4.910
 5073TIP3   OH215224   5.112   0.917   5.098
 5073TIP3    H115225   5.073   0.936   5.183
 5073TIP3    H215226   5.172   0.990   5.082
 5074TIP3   OH215227   0.656   4.382   2.276
 5074TIP3    H115228   0.730   4.323   2.291
 5074TIP3    H215229   0.675   4.423   2.191
 5075TIP3   OH215230   4.384   3.479   2.494
 5075TIP3    H115231   4.378   3.574   2.506
 5075TIP3    H215232   4.342   3.463   2.410
 5076TIP3   OH215233   1.929   2.098   1.076
 5076TIP3    H115234   1.846   2.057   1.101
 5076TIP3    H215235   1.919   2.190   1.100
 5077TIP3   OH215236   2.284   5.641   1.309
 5077TIP3    H115237   2.365   5.607   1.348
 5077TIP3    H215238   2.299   5.637   1.215
 5078TIP3   OH215239   5.515   2.160   3.635
 5078TIP3    H115240   5.437   2.125   3.679
 5078TIP3    H215241   5.519   2.252   3.662
 5079TIP3   OH215242   2.781   1.437   5.086
 5079TIP3    H115243   2.853   1.478   5.038
 5079TIP3    H215244   2.704   1.450   5.031
 5080TIP3   OH215245   1.583   3.969   4.567
 5080TIP3    H115246   1.497   3.935   4.543
 5080TIP3    H215247   1.644   3.921   4.511
 5081TIP3   OH215248   5.621   5.373   4.026
 5081TIP3    H115249   5.606   5.298   3.968
 5081TIP3    H215250   5.713   5.395   4.013
 5082TIP3   OH215251   2.940   1.684   0.610
 5082TIP3    H115252   2.979   1.721   0.531
 5082TIP3    H215253   2.848   1.673   0.589
 5083TIP3   OH215254   4.284   5.473   2.142
 5083TIP3    H115255   4.291   5.402   2.078
 5083TIP3    H215256   4.304   5.432   2.226
 5084TIP3   OH215257   5.663   4.808   0.808
 5084TIP3    H115258   5.693   4.845   0.891
 5084TIP3    H215259   5.696   4.868   0.742
 5085TIP3   OH215260   0.734   0.396   2.945
 5085TIP3    H115261   0.715   0.310   2.908
 5085TIP3    H215262   0.710   0.389   3.037
 5086TIP3   OH215263   4.081   3.711   2.287
 5086TIP3    H115264   4.038   3.672   2.363
 5086TIP3    H215265   4.021   3.693   2.214
 5087TIP3   OH215266   2.075   1.093   3.042
 5087TIP3    H115267   2.134   1.084   3.117
 5087TIP3    H215268   1.992   1.055   3.072
 5088TIP3   OH215269   6.301   4.991   0.964
 5088TIP3    H115270   6.292   4.899   0.991
 5088TIP3    H215271   6.394   5.001   0.943
 5089TIP3   OH215272   4.328   2.407   4.605
 5089TIP3    H115273   4.406   2.406   4.659
 5089TIP3    H215274   4.309   2.500   4.592
 5090TIP3   OH215275   4.487   1.531   1.447
 5090TIP3    H115276   4.556   1.469   1.471
 5090TIP3    H215277   4.409   1.499   1.493
 5091TIP3   OH215278   4.184   3.554   1.137
 5091TIP3    H115279   4.165   3.589   1.224
 5091TIP3    H215280   4.168   3.626   1.077
 5092TIP3   OH215281   5.772   2.490   1.983
 5092TIP3    H115282   5.831   2.516   1.912
 5092TIP3    H215283   5.800   2.542   2.058
 5093TIP3   OH215284   4.491   2.487   3.619
 5093TIP3    H115285   4.560   2.475   3.683
 5093TIP3    H215286   4.423   2.425   3.644
 5094TIP3   OH215287   2.218   0.109   3.518
 5094TIP3    H115288   2.211   0.056   3.438
 5094TIP3    H215289   2.128   0.137   3.536
 5095TIP3   OH215290   5.289   2.481   5.107
 5095TIP3    H115291   5.261   2.571   5.094
 5095TIP3    H215292   5.245   2.454   5.188
 5096TIP3   OH215293   1.738   1.550   0.992
 5096TIP3    H115294   1.740   1.580   1.083
 5096TIP3    H215295   1.684   1.615   0.947
 5097TIP3   OH215296   1.384   5.230   1.989
 5097TIP3    H115297   1.461   5.206   1.937
 5097TIP3    H215298   1.366   5.152   2.042
 5098TIP3   OH215299   3.624   5.227   4.509
 5098TIP3    H115300   3.627   5.232   4.413
 5098TIP3    H215301   3.538   5.262   4.532
 5099TIP3   OH215302   4.020   3.212   3.569
 5099TIP3    H115303   3.957   3.139   3.569
 5099TIP3    H215304   4.094   3.179   3.619
 5100TIP3   OH215305   6.306   4.490   0.493
 5100TIP3    H115306   6.230   4.482   0.434
 5100TIP3    H215307   6.305   4.410   0.545
 5101TIP3   OH215308   2.948   3.329   2.799
 5101TIP3    H115309   2.952   3.423   2.819
 5101TIP3    H215310   2.933   3.326   2.704
 5102TIP3   OH215311   1.529   4.262   4.582
 5102TIP3    H115312   1.447   4.254   4.533
 5102TIP3    H215313   1.567   4.174   4.580
 5103TIP3   OH215314   2.910   4.875   3.811
 5103TIP3    H115315   2.929   4.846   3.721
 5103TIP3    H215316   2.837   4.935   3.801
 5104TIP3   OH215317   5.678   2.867   2.088
 5104TIP3    H115318   5.628   2.933   2.136
 5104TIP3    H215319   5.637   2.784   2.111
 5105TIP3   OH215320   0.041   5.049   4.670
 5105TIP3    H115321   0.024   4.981   4.735
 5105TIP3    H215322   0.018   5.131   4.714
 5106TIP3   OH215323   4.565   1.721   0.458
 5106TIP3    H115324   4.480   1.751   0.425
 5106TIP3    H215325   4.553   1.711   0.552
 5107TIP3   OH215326   2.326   1.782   1.221
 5107TIP3    H115327   2.407   1.793   1.271
 5107TIP3    H215328   2.344   1.824   1.137
 5108TIP3   OH215329   1.186   0.068   0.358
 5108TIP3    H115330   1.206  -0.011   0.409
 5108TIP3    H215331   1.200   0.042   0.267
 5109TIP3   OH215332   3.021   3.501   5.146
 5109TIP3    H115333   2.933   3.492   5.109
 5109TIP3    H215334   3.066   3.557   5.083
 5110TIP3   OH215335   3.229   2.539   3.960
 5110TIP3    H115336   3.172   2.545   4.036
 5110TIP3    H215337   3.218   2.448   3.930
 5111TIP3   OH215338   5.702   2.686   1.112
 5111TIP3    H115339   5.787   2.648   1.132
 5111TIP3    H215340   5.684   2.745   1.186
 5112TIP3   OH215341   4.968   5.074   4.737
 5112TIP3    H115342   5.026   4.998   4.751
 5112TIP3    H215343   4.899   5.041   4.680
 5113TIP3   OH215344   1.558   2.746   0.243
 5113TIP3    H115345   1.590   2.766   0.331
 5113TIP3    H215346   1.525   2.829   0.209
 5114TIP3   OH215347   0.038   5.408   2.236
 5114TIP3    H115348  -0.046   5.411   2.282
 5114TIP3    H215349   0.092   5.473   2.282
 5115TIP3   OH215350   6.242   3.579   3.500
 5115TIP3    H115351   6.337   3.586   3.497
 5115TIP3    H215352   6.220   3.579   3.593
 5116TIP3   OH215353   2.577   3.038   3.584
 5116TIP3    H115354   2.503   2.979   3.567
 5116TIP3    H215355   2.541   3.126   3.571
 5117TIP3   OH215356   4.307   1.707   4.426
 5117TIP3    H115357   4.286   1.692   4.334
 5117TIP3    H215358   4.339   1.797   4.429
 5118TIP3   OH215359   2.368   0.641   5.091
 5118TIP3    H115360   2.409   0.692   5.021
 5118TIP3    H215361   2.296   0.594   5.048
 5119TIP3   OH215362   3.744   4.834   0.916
 5119TIP3    H115363   3.669   4.855   0.860
 5119TIP3    H215364   3.794   4.916   0.921
 5120TIP3   OH215365   4.881   5.419   3.796
 5120TIP3    H115366   4.927   5.405   3.879
 5120TIP3    H215367   4.792   5.443   3.822
 5121TIP3   OH215368   3.044   1.128   4.341
 5121TIP3    H115369   3.139   1.131   4.338
 5121TIP3    H215370   3.018   1.217   4.363
 5122TIP3   OH215371   0.768   1.457   2.572
 5122TIP3    H115372   0.862   1.448   2.583
 5122TIP3    H215373   0.756   1.547   2.542
 5123TIP3   OH215374   5.381   4.736   5.095
 5123TIP3    H115375   5.462   4.717   5.047
 5123TIP3    H215376   5.403   4.811   5.150
 5124TIP3   OH215377   2.759   2.191   4.234
 5124TIP3    H115378   2.743   2.211   4.142
 5124TIP3    H215379   2.672   2.182   4.273
 5125TIP3   OH215380   2.275   0.786   0.632
 5125TIP3    H115381   2.285   0.815   0.542
 5125TIP3    H215382   2.263   0.866   0.683
 5126TIP3   OH215383   4.260   0.322   4.278
 5126TIP3    H115384   4.286   0.230   4.282
 5126TIP3    H215385   4.301   0.361   4.355
 5127TIP3   OH215386   5.458   5.391   3.023
 5127TIP3    H115387   5.464   5.341   2.942
 5127TIP3    H215388   5.392   5.345   3.075
 5128TIP3   OH215389   3.808   3.809   2.924
 5128TIP3    H115390   3.768   3.762   2.852
 5128TIP3    H215391   3.793   3.753   3.001
 5129TIP3   OH215392   4.430   0.425   1.853
 5129TIP3    H115393   4.438   0.406   1.946
 5129TIP3    H215394   4.387   0.511   1.850
 5130TIP3   OH215395   2.967   1.422   4.773
 5130TIP3    H115396   2.908   1.369   4.720
 5130TIP3    H215397   2.914   1.499   4.797
 5131TIP3   OH215398   0.721   1.858   2.127
 5131TIP3    H115399   0.693   1.946   2.152
 5131TIP3    H215400   0.684   1.845   2.040
 5132TIP3   OH215401   1.920   3.585   3.038
 5132TIP3    H115402   1.943   3.591   3.131
 5132TIP3    H215403   1.891   3.674   3.015
 5133TIP3   OH215404   1.589   5.765   3.261
 5133TIP3    H115405   1.528   5.712   3.209
 5133TIP3    H215406   1.671   5.717   3.258
 5134TIP3   OH215407   5.628   4.930   1.979
 5134TIP3    H115408   5.698   4.906   2.041
 5134TIP3    H215409   5.551   4.885   2.012
 5135TIP3   OH215410   2.256   1.781   3.461
 5135TIP3    H115411   2.306   1.716   3.412
 5135TIP3    H215412   2.319   1.851   3.479
 5136TIP3   OH215413   2.286   0.460   2.493
 5136TIP3    H115414   2.260   0.544   2.531
 5136TIP3    H215415   2.206   0.423   2.458
 5137TIP3   OH215416   1.794   3.135   1.981
 5137TIP3    H115417   1.806   3.042   1.958
 5137TIP3    H215418   1.701   3.143   2.002
 5138TIP3   OH215419   4.370   0.197   4.665
 5138TIP3    H115420   4.323   0.277   4.640
 5138TIP3    H215421   4.324   0.165   4.742
 5139TIP3   OH215422   3.211   0.766   3.059
 5139TIP3    H115423   3.147   0.718   3.112
 5139TIP3    H215424   3.218   0.852   3.102
 5140TIP3   OH215425   5.131   1.199   1.105
 5140TIP3    H115426   5.102   1.180   1.016
 5140TIP3    H215427   5.125   1.294   1.113
 5141TIP3   OH215428   4.477   3.515   1.853
 5141TIP3    H115429   4.426   3.503   1.933
 5141TIP3    H215430   4.489   3.610   1.845
 5142TIP3   OH215431   3.505   5.953   3.039
 5142TIP3    H115432   3.428   5.899   3.022
 5142TIP3    H215433   3.578   5.891   3.045
 5143TIP3   OH215434   0.769   1.981   3.377
 5143TIP3    H115435   0.743   2.021   3.294
 5143TIP3    H215436   0.741   1.889   3.369
 5144TIP3   OH215437   5.861   0.179   2.698
 5144TIP3    H115438   5.787   0.238   2.685
 5144TIP3    H215439   5.836   0.098   2.653
 5145TIP3   OH215440   5.342   2.711   0.384
 5145TIP3    H115441   5.364   2.780   0.321
 5145TIP3    H215442   5.248   2.721   0.399
 5146TIP3   OH215443   0.960   5.416   4.078
 5146TIP3    H115444   0.892   5.479   4.102
 5146TIP3    H215445   0.935   5.386   3.991
 5147TIP3   OH215446   0.294   1.607   1.923
 5147TIP3    H115447   0.225   1.611   1.989
 5147TIP3    H215448   0.341   1.525   1.943
 5148TIP3   OH215449   5.535   4.091   4.440
 5148TIP3    H115450   5.459   4.149   4.443
 5148TIP3    H215451   5.519   4.034   4.364
 5149TIP3   OH215452   4.072   1.683  -0.026
 5149TIP3    H115453   4.138   1.701   0.040
 5149TIP3    H215454   3.988   1.690   0.020
 5150TIP3   OH215455   4.698   0.545   1.854
 5150TIP3    H115456   4.653   0.461   1.849
 5150TIP3    H215457   4.701   0.565   1.948
 5151TIP3   OH215458   3.828   4.051   3.070
 5151TIP3    H115459   3.835   4.134   3.023
 5151TIP3    H215460   3.808   3.986   3.003
 5152TIP3   OH215461   0.669   2.489   0.476
 5152TIP3    H115462   0.618   2.541   0.413
 5152TIP3    H215463   0.760   2.513   0.459
 5153TIP3   OH215464   2.638   0.573   0.763
 5153TIP3    H115465   2.544   0.556   0.763
 5153TIP3    H215466   2.652   0.631   0.688
 5154TIP3   OH215467   1.408   4.863   0.855
 5154TIP3    H115468   1.445   4.777   0.837
 5154TIP3    H215469   1.315   4.855   0.833
 5155TIP3   OH215470   3.151   0.634   0.631
 5155TIP3    H115471   3.155   0.616   0.537
 5155TIP3    H215472   3.242   0.644   0.658
 5156TIP3   OH215473   3.570   2.752   3.433
 5156TIP3    H115474   3.538   2.738   3.522
 5156TIP3    H215475   3.497   2.796   3.388
 5157TIP3   OH215476   4.387   4.524   4.510
 5157TIP3    H115477   4.370   4.610   4.549
 5157TIP3    H215478   4.462   4.538   4.451
 5158TIP3   OH215479   3.237   2.946   0.603
 5158TIP3    H115480   3.203   2.863   0.636
 5158TIP3    H215481   3.332   2.934   0.598
 5159TIP3   OH215482   2.404   2.192   0.919
 5159TIP3    H115483   2.332   2.205   0.980
 5159TIP3    H215484   2.442   2.280   0.909
 5160TIP3   OH215485   3.500   2.296   2.816
 5160TIP3    H115486   3.470   2.208   2.837
 5160TIP3    H215487   3.439   2.354   2.863
 5161TIP3   OH215488   2.360   0.814   1.268
 5161TIP3    H115489   2.392   0.900   1.238
 5161TIP3    H215490   2.356   0.822   1.363
 5162TIP3   OH215491   4.591   4.943   4.035
 5162TIP3    H115492   4.568   4.880   4.103
 5162TIP3    H215493   4.601   4.890   3.956
 5163TIP3   OH215494   3.430   0.069   4.153
 5163TIP3    H115495   3.489   0.006   4.193
 5163TIP3    H215496   3.467   0.155   4.175
 5164TIP3   OH215497   5.056   5.650   4.364
 5164TIP3    H115498   5.146   5.619   4.354
 5164TIP3    H215499   5.024   5.606   4.442
 5165TIP3   OH215500   1.928   2.000   1.662
 5165TIP3    H115501   2.007   2.043   1.696
 5165TIP3    H215502   1.953   1.971   1.574
 5166TIP3   OH215503   0.262   1.188   1.427
 5166TIP3    H115504   0.357   1.201   1.429
 5166TIP3    H215505   0.249   1.109   1.375
 5167TIP3   OH215506   2.098   4.595   2.286
 5167TIP3    H115507   2.030   4.561   2.228
 5167TIP3    H215508   2.065   4.680   2.314
 5168TIP3   OH215509   1.088   0.571   0.804
 5168TIP3    H115510   1.151   0.501   0.789
 5168TIP3    H215511   1.137   0.652   0.790
 5169TIP3   OH215512   2.557   0.665   3.333
 5169TIP3    H115513   2.513   0.693   3.253
 5169TIP3    H215514   2.635   0.720   3.338
 5170TIP3   OH215515   6.365   5.896   1.145
 5170TIP3    H115516   6.306   5.938   1.207
 5170TIP3    H215517   6.423   5.966   1.115
 5171TIP3   OH215518   4.611   0.436   3.840
 5171TIP3    H115519   4.651   0.506   3.891
 5171TIP3    H215520   4.550   0.480   3.781
 5172TIP3   OH215521   2.014   1.347   3.181
 5172TIP3    H115522   1.966   1.328   3.262
 5172TIP3    H215523   1.951   1.395   3.127
 5173TIP3   OH215524   3.173   4.285   3.397
 5173TIP3    H115525   3.258   4.245   3.377
 5173TIP3    H215526   3.109   4.219   3.372
 5174TIP3   OH215527   4.833   5.042   1.706
 5174TIP3    H115528   4.806   5.093   1.630
 5174TIP3    H215529   4.795   4.955   1.692
 5175TIP3   OH215530   2.621   1.802   2.451
 5175TIP3    H115531   2.558   1.782   2.382
 5175TIP3    H215532   2.639   1.718   2.493
 5176TIP3   OH215533   3.154   5.670   3.751
 5176TIP3    H115534   3.216   5.640   3.818
 5176TIP3    H215535   3.195   5.646   3.668
 5177TIP3   OH215536   3.722   0.444   2.502
 5177TIP3    H115537   3.672   0.370   2.535
 5177TIP3    H215538   3.780   0.468   2.574
 5178TIP3   OH215539   2.453   5.511   1.073
 5178TIP3    H115540   2.441   5.417   1.055
 5178TIP3    H215541   2.368   5.550   1.052
 5179TIP3   OH215542   3.734   0.965   0.430
 5179TIP3    H115543   3.769   1.003   0.349
 5179TIP3    H215544   3.765   0.874   0.428
 5180TIP3   OH215545   6.130   5.573   2.327
 5180TIP3    H115546   6.119   5.573   2.232
 5180TIP3    H215547   6.080   5.498   2.357
 5181TIP3   OH215548   3.802   1.068   0.147
 5181TIP3    H115549   3.720   1.118   0.145
 5181TIP3    H215550   3.822   1.052   0.055
 5182TIP3   OH215551   0.290   1.197   2.562
 5182TIP3    H115552   0.197   1.175   2.572
 5182TIP3    H215553   0.291   1.293   2.562
 5183TIP3   OH215554   5.291   3.922   0.303
 5183TIP3    H115555   5.247   3.977   0.238
 5183TIP3    H215556   5.378   3.962   0.313
 5184TIP3   OH215557   3.686   2.107   0.851
 5184TIP3    H115558   3.748   2.046   0.891
 5184TIP3    H215559   3.701   2.099   0.757
 5185TIP3   OH215560   1.423   5.817   4.310
 5185TIP3    H115561   1.425   5.748   4.376
 5185TIP3    H215562   1.460   5.893   4.354
 5186TIP3   OH215563   5.074   3.954   2.970
 5186TIP3    H115564   5.120   3.884   3.015
 5186TIP3    H215565   5.138   4.025   2.962
 5187TIP3   OH215566   5.706   0.802   4.038
 5187TIP3    H115567   5.769   0.792   4.109
 5187TIP3    H215568   5.628   0.755   4.068
 5188TIP3   OH215569   1.808   3.869   0.446
 5188TIP3    H115570   1.783   3.819   0.369
 5188TIP3    H215571   1.781   3.815   0.520
 5189TIP3   OH215572   2.446   2.359   3.536
 5189TIP3    H115573   2.494   2.385   3.614
 5189TIP3    H215574   2.360   2.333   3.568
 5190TIP3   OH215575   5.684   3.890   4.676
 5190TIP3    H115576   5.731   3.951   4.733
 5190TIP3    H215577   5.654   3.944   4.603
 5191TIP3   OH215578   3.690   2.967   1.238
 5191TIP3    H115579   3.721   2.967   1.329
 5191TIP3    H215580   3.735   2.892   1.198
 5192TIP3   OH215581   2.582   1.982   3.723
 5192TIP3    H115582   2.659   1.938   3.759
 5192TIP3    H215583   2.531   2.008   3.799
 5193TIP3   OH215584   3.758   5.365   0.232
 5193TIP3    H115585   3.736   5.325   0.316
 5193TIP3    H215586   3.673   5.390   0.194
 5194TIP3   OH215587   1.675   3.652   2.478
 5194TIP3    H115588   1.691   3.741   2.509
 5194TIP3    H215589   1.751   3.632   2.423
 5195TIP3   OH215590   4.755   0.263   1.435
 5195TIP3    H115591   4.764   0.189   1.494
 5195TIP3    H215592   4.791   0.337   1.484
 5196TIP3   OH215593   3.959   2.634   1.600
 5196TIP3    H115594   3.947   2.697   1.530
 5196TIP3    H215595   4.052   2.639   1.621
 5197TIP3   OH215596   6.038   4.950   1.920
 5197TIP3    H115597   5.954   4.980   1.885
 5197TIP3    H215598   6.048   4.861   1.886
 5198TIP3   OH215599   3.609   5.637   2.339
 5198TIP3    H115600   3.693   5.662   2.301
 5198TIP3    H215601   3.554   5.617   2.263
 5199TIP3   OH215602   0.560   3.368   2.916
 5199TIP3    H115603   0.467   3.345   2.917
 5199TIP3    H215604   0.587   3.356   2.825
 5200TIP3   OH215605   2.666   4.767   4.954
 5200TIP3    H115606   2.590   4.802   4.908
 5200TIP3    H215607   2.646   4.779   5.047
 5201TIP3   OH215608   6.250   2.285   4.803
 5201TIP3    H115609   6.311   2.220   4.836
 5201TIP3    H215610   6.181   2.290   4.870
 5202TIP3   OH215611   5.686   4.388   4.882
 5202TIP3    H115612   5.702   4.396   4.788
 5202TIP3    H215613   5.598   4.350   4.889
 5203TIP3   OH215614   2.217   5.563   3.189
 5203TIP3    H115615   2.148   5.587   3.250
 5203TIP3    H215616   2.192   5.476   3.157
 5204TIP3   OH215617   5.802   1.982   0.689
 5204TIP3    H115618   5.882   1.931   0.702
 5204TIP3    H215619   5.806   2.050   0.756
 5205TIP3   OH215620   4.901   3.497   4.133
 5205TIP3    H115621   4.948   3.577   4.157
 5205TIP3    H215622   4.842   3.481   4.206
 5206TIP3   OH215623   0.640   4.013   2.275
 5206TIP3    H115624   0.660   4.065   2.352
 5206TIP3    H215625   0.553   4.043   2.248
 5207TIP3   OH215626   1.251   0.603   3.513
 5207TIP3    H115627   1.345   0.597   3.532
 5207TIP3    H215628   1.223   0.513   3.500
 5208TIP3   OH215629   2.734   0.059   3.525
 5208TIP3    H115630   2.793   0.019   3.589
 5208TIP3    H215631   2.792   0.107   3.466
 5209TIP3   OH215632   3.069   0.677   1.152
 5209TIP3    H115633   3.117   0.597   1.133
 5209TIP3    H215634   3.008   0.687   1.079
 5210TIP3   OH215635   4.304   4.695   4.062
 5210TIP3    H115636   4.241   4.718   4.131
 5210TIP3    H215637   4.374   4.648   4.108
 5211TIP3   OH215638   6.062   3.588   2.454
 5211TIP3    H115639   6.147   3.568   2.416
 5211TIP3    H215640   6.081   3.636   2.534
 5212TIP3   OH215641   5.691   4.207   5.213
 5212TIP3    H115642   5.736   4.167   5.139
 5212TIP3    H215643   5.722   4.297   5.214
 5213TIP3   OH215644   0.216   5.962   0.877
 5213TIP3    H115645   0.175   5.976   0.791
 5213TIP3    H215646   0.218   5.867   0.888
 5214TIP3   OH215647   3.781   0.829   3.258
 5214TIP3    H115648   3.707   0.769   3.249
 5214TIP3    H215649   3.855   0.773   3.281
 5215TIP3   OH215650   5.859   0.113   3.085
 5215TIP3    H115651   5.867   0.097   3.180
 5215TIP3    H215652   5.771   0.082   3.063
 5216TIP3   OH215653   2.665   5.592   0.948
 5216TIP3    H115654   2.707   5.535   1.013
 5216TIP3    H215655   2.572   5.579   0.962
 5217TIP3   OH215656   0.390   1.014   3.448
 5217TIP3    H115657   0.317   1.065   3.412
 5217TIP3    H215658   0.350   0.961   3.517
 5218TIP3   OH215659   2.181   0.287   3.275
 5218TIP3    H115660   2.178   0.211   3.333
 5218TIP3    H215661   2.274   0.310   3.272
 5219TIP3   OH215662   5.936   1.145   2.747
 5219TIP3    H115663   5.968   1.055   2.741
 5219TIP3    H215664   5.872   1.143   2.818
 5220TIP3   OH215665   3.226   5.673   0.727
 5220TIP3    H115666   3.320   5.666   0.708
 5220TIP3    H215667   3.183   5.639   0.648
 5221TIP3   OH215668   2.218   2.125   4.718
 5221TIP3    H115669   2.300   2.099   4.759
 5221TIP3    H215670   2.154   2.061   4.749
 5222TIP3   OH215671   0.308   5.308   0.478
 5222TIP3    H115672   0.304   5.373   0.548
 5222TIP3    H215673   0.219   5.273   0.473
 5223TIP3   OH215674   5.059   4.144   0.321
 5223TIP3    H115675   5.017   4.172   0.240
 5223TIP3    H215676   5.045   4.049   0.324
 5224TIP3   OH215677   4.820   5.275   4.794
 5224TIP3    H115678   4.891   5.211   4.783
 5224TIP3    H215679   4.816   5.321   4.711
 5225TIP3   OH215680   3.560   0.528   1.419
 5225TIP3    H115681   3.579   0.516   1.325
 5225TIP3    H215682   3.465   0.528   1.424
 5226TIP3   OH215683   0.713   4.768   3.314
 5226TIP3    H115684   0.781   4.835   3.316
 5226TIP3    H215685   0.758   4.690   3.279
 5227TIP3   OH215686   5.347   2.870   3.422
 5227TIP3    H115687   5.262   2.860   3.464
 5227TIP3    H215688   5.334   2.837   3.333
 5228TIP3   OH215689   5.491   2.643   0.923
 5228TIP3    H115690   5.464   2.556   0.951
 5228TIP3    H215691   5.558   2.670   0.987
 5229TIP3   OH215692   2.719   4.601   4.740
 5229TIP3    H115693   2.698   4.660   4.668
 5229TIP3    H215694   2.727   4.658   4.816
 5230TIP3   OH215695   3.669   4.790   0.319
 5230TIP3    H115696   3.661   4.884   0.304
 5230TIP3    H215697   3.588   4.766   0.364
 5231TIP3   OH215698   0.220   5.376   3.886
 5231TIP3    H115699   0.258   5.452   3.930
 5231TIP3    H215700   0.183   5.323   3.956
 5232TIP3   OH215701   5.180   2.036   2.162
 5232TIP3    H115702   5.222   1.956   2.190
 5232TIP3    H215703   5.239   2.106   2.191
 5233TIP3   OH215704   2.531   3.148   0.967
 5233TIP3    H115705   2.520   3.132   1.060
 5233TIP3    H215706   2.618   3.186   0.958
 5234TIP3   OH215707   6.151   5.392   3.494
 5234TIP3    H115708   6.245   5.376   3.493
 5234TIP3    H215709   6.142   5.480   3.456
 5235TIP3   OH215710   1.136   3.051   4.816
 5235TIP3    H115711   1.044   3.039   4.792
 5235TIP3    H215712   1.135   3.076   4.908
 5236TIP3   OH215713   0.500   0.570   3.219
 5236TIP3    H115714   0.553   0.641   3.253
 5236TIP3    H215715   0.562   0.497   3.206
 5237TIP3   OH215716   0.449   1.759   0.346
 5237TIP3    H115717   0.376   1.812   0.378
 5237TIP3    H215718   0.407   1.682   0.307
 5238TIP3   OH215719   1.388   2.883   0.560
 5238TIP3    H115720   1.424   2.967   0.588
 5238TIP3    H215721   1.327   2.905   0.490
 5239TIP3   OH215722   3.873   1.985   2.989
 5239TIP3    H115723   3.918   1.910   2.951
 5239TIP3    H215724   3.808   2.010   2.923
 5240TIP3   OH215725   1.414   4.496   2.906
 5240TIP3    H115726   1.439   4.495   2.814
 5240TIP3    H215727   1.326   4.459   2.908
 5241TIP3   OH215728   5.964   2.663   1.453
 5241TIP3    H115729   5.914   2.591   1.491
 5241TIP3    H215730   5.924   2.742   1.489
 5242TIP3   OH215731   2.526   3.843   0.884
 5242TIP3    H115732   2.454   3.782   0.901
 5242TIP3    H215733   2.494   3.928   0.914
 5243TIP3   OH215734   3.985   3.442   1.298
 5243TIP3    H115735   4.011   3.504   1.231
 5243TIP3    H215736   3.909   3.482   1.340
 5244TIP3   OH215737   1.407   3.155   4.439
 5244TIP3    H115738   1.382   3.096   4.510
 5244TIP3    H215739   1.492   3.190   4.466
 5245TIP3   OH215740   0.825   3.304   1.102
 5245TIP3    H115741   0.864   3.388   1.083
 5245TIP3    H215742   0.897   3.251   1.138
 5246TIP3   OH215743   1.092   5.291   3.649
 5246TIP3    H115744   1.057   5.380   3.646
 5246TIP3    H215745   1.074   5.255   3.562
 5247TIP3   OH215746   1.816   3.193   4.282
 5247TIP3    H115747   1.844   3.223   4.369
 5247TIP3    H215748   1.781   3.272   4.240
 5248TIP3   OH215749   2.430   0.432   3.333
 5248TIP3    H115750   2.464   0.520   3.320
 5248TIP3    H215751   2.507   0.375   3.332
 5249TIP3   OH215752   5.109   4.359   1.642
 5249TIP3    H115753   5.075   4.402   1.563
 5249TIP3    H215754   5.035   4.361   1.703
 5250TIP3   OH215755   0.547   5.257   2.158
 5250TIP3    H115756   0.542   5.324   2.226
 5250TIP3    H215757   0.503   5.295   2.082
 5251TIP3   OH215758   0.118   0.891   5.115
 5251TIP3    H115759   0.053   0.855   5.175
 5251TIP3    H215760   0.200   0.847   5.140
 5252TIP3   OH215761   6.172   4.565   0.157
 5252TIP3    H115762   6.132   4.487   0.195
 5252TIP3    H215763   6.156   4.634   0.222
 5253TIP3   OH215764   6.016   0.120   1.157
 5253TIP3    H115765   6.023   0.196   1.215
 5253TIP3    H215766   6.014   0.158   1.069
 5254TIP3   OH215767   6.171   3.089   1.758
 5254TIP3    H115768   6.091   3.044   1.730
 5254TIP3    H215769   6.242   3.033   1.725
 5255TIP3   OH215770   1.360   3.816   4.484
 5255TIP3    H115771   1.279   3.766   4.498
 5255TIP3    H215772   1.425   3.750   4.461
 5256TIP3   OH215773   1.961   4.004   4.663
 5256TIP3    H115774   1.924   4.092   4.655
 5256TIP3    H215775   2.055   4.018   4.677
 5257TIP3   OH215776   4.065   4.878   0.754
 5257TIP3    H115777   4.007   4.917   0.819
 5257TIP3    H215778   4.096   4.952   0.702
 5258TIP3   OH215779   2.081   3.445   3.541
 5258TIP3    H115780   2.025   3.467   3.466
 5258TIP3    H215781   2.067   3.351   3.554
 5259TIP3   OH215782   2.243   2.338   4.289
 5259TIP3    H115783   2.242   2.261   4.346
 5259TIP3    H215784   2.154   2.372   4.292
 5260TIP3   OH215785   0.207   4.998   0.934
 5260TIP3    H115786   0.252   4.936   0.990
 5260TIP3    H215787   0.261   5.002   0.855
 5261TIP3   OH215788   0.405   4.839   1.486
 5261TIP3    H115789   0.481   4.857   1.541
 5261TIP3    H215790   0.440   4.785   1.415
 5262TIP3   OH215791   2.243   3.303   1.529
 5262TIP3    H115792   2.183   3.242   1.571
 5262TIP3    H215793   2.187   3.368   1.487
 5263TIP3   OH215794   1.897   3.993   3.822
 5263TIP3    H115795   1.875   4.040   3.902
 5263TIP3    H215796   1.904   4.061   3.755
 5264TIP3   OH215797   2.104   0.299   1.099
 5264TIP3    H115798   2.057   0.256   1.028
 5264TIP3    H215799   2.186   0.249   1.107
 5265TIP3   OH215800   3.060   5.686   2.590
 5265TIP3    H115801   3.076   5.657   2.500
 5265TIP3    H215802   2.971   5.656   2.609
 5266TIP3   OH215803   0.263   2.517   1.841
 5266TIP3    H115804   0.331   2.461   1.803
 5266TIP3    H215805   0.217   2.460   1.903
 5267TIP3   OH215806   2.278   0.656   4.294
 5267TIP3    H115807   2.363   0.623   4.321
 5267TIP3    H215808   2.215   0.593   4.329
 5268TIP3   OH215809   0.192   1.978   4.199
 5268TIP3    H115810   0.113   1.961   4.148
 5268TIP3    H215811   0.185   1.921   4.275
 5269TIP3   OH215812   1.723   0.300   2.871
 5269TIP3    H115813   1.658   0.292   2.941
 5269TIP3    H215814   1.672   0.290   2.790
 5270TIP3   OH215815   0.209   1.826   5.126
 5270TIP3    H115816   0.280   1.768   5.099
 5270TIP3    H215817   0.253   1.898   5.172
 5271TIP3   OH215818   1.613   5.177   2.260
 5271TIP3    H115819   1.570   5.105   2.214
 5271TIP3    H215820   1.611   5.250   2.197
 5272TIP3   OH215821   5.799   3.939   1.968
 5272TIP3    H115822   5.759   3.906   1.888
 5272TIP3    H215823   5.728   3.939   2.033
 5273TIP3   OH215824   4.312   2.270   1.066
 5273TIP3    H115825   4.287   2.256   1.158
 5273TIP3    H215826   4.236   2.240   1.016
 5274TIP3   OH215827   5.388   1.931   4.512
 5274TIP3    H115828   5.350   1.873   4.447
 5274TIP3    H215829   5.323   1.935   4.582
 5275TIP3   OH215830   2.869   5.023   4.914
 5275TIP3    H115831   2.812   5.015   4.838
 5275TIP3    H215832   2.955   4.996   4.882
 5276TIP3   OH215833   2.675   2.742   3.102
 5276TIP3    H115834   2.728   2.677   3.148
 5276TIP3    H215835   2.589   2.737   3.145
 5277TIP3   OH215836   2.191   1.983   3.791
 5277TIP3    H115837   2.178   2.067   3.835
 5277TIP3    H215838   2.171   1.917   3.857
 5278TIP3   OH215839   2.119   3.283   4.880
 5278TIP3    H115840   2.092   3.243   4.963
 5278TIP3    H215841   2.200   3.330   4.902
 5279TIP3   OH215842   4.174   1.784   4.940
 5279TIP3    H115843   4.143   1.811   4.854
 5279TIP3    H215844   4.095   1.777   4.993
 5280TIP3   OH215845   0.804   5.577   4.609
 5280TIP3    H115846   0.765   5.545   4.690
 5280TIP3    H215847   0.756   5.533   4.539
 5281TIP3   OH215848   3.108   4.032   0.735
 5281TIP3    H115849   3.171   3.968   0.767
 5281TIP3    H215850   3.087   4.004   0.646
 5282TIP3   OH215851   4.703   5.060   3.595
 5282TIP3    H115852   4.637   5.066   3.527
 5282TIP3    H215853   4.680   5.129   3.658
 5283TIP3   OH215854   4.635   4.176   0.939
 5283TIP3    H115855   4.569   4.122   0.896
 5283TIP3    H215856   4.681   4.220   0.867
 5284TIP3   OH215857   4.808   4.173   1.440
 5284TIP3    H115858   4.889   4.166   1.491
 5284TIP3    H215859   4.749   4.223   1.496
 5285TIP3   OH215860   5.707   2.736   4.335
 5285TIP3    H115861   5.751   2.744   4.250
 5285TIP3    H215862   5.742   2.809   4.387
 5286TIP3   OH215863   5.659   3.062   1.841
 5286TIP3    H115864   5.651   3.041   1.934
 5286TIP3    H215865   5.649   3.157   1.836
 5287TIP3   OH215866   3.049   0.846   4.711
 5287TIP3    H115867   2.969   0.798   4.729
 5287TIP3    H215868   3.114   0.778   4.691
 5288TIP3   OH215869   2.359   0.245   2.660
 5288TIP3    H115870   2.344   0.318   2.601
 5288TIP3    H215871   2.304   0.174   2.626
 5289TIP3   OH215872   5.054   1.816   2.876
 5289TIP3    H115873   5.088   1.866   2.802
 5289TIP3    H215874   5.131   1.774   2.914
 5290TIP3   OH215875   6.022   0.287   3.837
 5290TIP3    H115876   6.053   0.291   3.927
 5290TIP3    H215877   5.980   0.372   3.822
 5291TIP3   OH215878   5.225   0.632   0.206
 5291TIP3    H115879   5.149   0.688   0.220
 5291TIP3    H215880   5.238   0.632   0.112
 5292TIP3   OH215881   0.373   2.289   2.710
 5292TIP3    H115882   0.436   2.248   2.651
 5292TIP3    H215883   0.426   2.325   2.781
 5293TIP3   OH215884   5.029   1.212   2.899
 5293TIP3    H115885   5.054   1.299   2.867
 5293TIP3    H215886   4.948   1.193   2.852
 5294TIP3   OH215887   5.055   3.189   1.486
 5294TIP3    H115888   5.030   3.102   1.517
 5294TIP3    H215889   5.083   3.235   1.565
 5295TIP3   OH215890   5.788   1.758   2.920
 5295TIP3    H115891   5.811   1.811   2.843
 5295TIP3    H215892   5.718   1.806   2.963
 5296TIP3   OH215893   3.323   3.500   1.036
 5296TIP3    H115894   3.227   3.502   1.043
 5296TIP3    H215895   3.349   3.592   1.038
 5297TIP3   OH215896   1.916   0.098   3.519
 5297TIP3    H115897   1.905   0.108   3.425
 5297TIP3    H215898   1.839   0.049   3.547
 5298TIP3   OH215899   5.706   1.210   2.615
 5298TIP3    H115900   5.718   1.117   2.595
 5298TIP3    H215901   5.782   1.233   2.667
 5299TIP3   OH215902   2.394   3.434   3.715
 5299TIP3    H115903   2.421   3.439   3.624
 5299TIP3    H215904   2.330   3.504   3.725
 5300TIP3   OH215905   1.713   5.336   4.633
 5300TIP3    H115906   1.714   5.393   4.556
 5300TIP3    H215907   1.736   5.394   4.706
 5301TIP3   OH215908   5.269   1.361   4.858
 5301TIP3    H115909   5.363   1.377   4.871
 5301TIP3    H215910   5.266   1.284   4.802
 5302TIP3   OH215911   4.273   5.257   4.462
 5302TIP3    H115912   4.249   5.300   4.379
 5302TIP3    H215913   4.368   5.247   4.457
 5303TIP3   OH215914   3.639   2.888   4.089
 5303TIP3    H115915   3.576   2.899   4.160
 5303TIP3    H215916   3.608   2.811   4.041
 5304TIP3   OH215917   5.293   5.866   3.330
 5304TIP3    H115918   5.371   5.819   3.359
 5304TIP3    H215919   5.223   5.834   3.388
 5305TIP3   OH215920   1.163   4.189   4.325
 5305TIP3    H115921   1.192   4.153   4.409
 5305TIP3    H215922   1.181   4.120   4.262
 5306TIP3   OH215923   0.019   0.630   4.110
 5306TIP3    H115924   0.012   0.685   4.032
 5306TIP3    H215925   0.019   0.692   4.183
 5307TIP3   OH215926   0.638   2.840   4.988
 5307TIP3    H115927   0.615   2.759   5.034
 5307TIP3    H215928   0.634   2.907   5.056
 5308TIP3   OH215929   0.802   5.844   4.685
 5308TIP3    H115930   0.822   5.760   4.645
 5308TIP3    H215931   0.779   5.901   4.611
 5309TIP3   OH215932   2.598   1.795   2.906
 5309TIP3    H115933   2.671   1.756   2.954
 5309TIP3    H215934   2.530   1.808   2.972
 5310TIP3   OH215935   5.960   4.611   2.323
 5310TIP3    H115936   5.981   4.540   2.262
 5310TIP3    H215937   6.040   4.623   2.374
 5311TIP3   OH215938   5.638   5.431   3.246
 5311TIP3    H115939   5.720   5.413   3.200
 5311TIP3    H215940   5.570   5.406   3.183
 5312TIP3   OH215941   3.848   1.599   3.273
 5312TIP3    H115942   3.812   1.615   3.361
 5312TIP3    H215943   3.917   1.664   3.264
 5313TIP3   OH215944   3.405   1.928   1.473
 5313TIP3    H115945   3.367   1.857   1.524
 5313TIP3    H215946   3.420   1.891   1.386
 5314TIP3   OH215947   5.358   0.082   4.202
 5314TIP3    H115948   5.442   0.050   4.235
 5314TIP3    H215949   5.292   0.039   4.256
 5315TIP3   OH215950   0.291   1.014   0.594
 5315TIP3    H115951   0.227   0.981   0.531
 5315TIP3    H215952   0.246   1.086   0.637
 5316TIP3   OH215953   1.722   4.842   0.357
 5316TIP3    H115954   1.811   4.846   0.323
 5316TIP3    H215955   1.676   4.783   0.297
 5317TIP3   OH215956   4.533   0.630   5.160
 5317TIP3    H115957   4.460   0.651   5.102
 5317TIP3    H215958   4.604   0.688   5.131
 5318TIP3   OH215959   5.557   0.591   4.423
 5318TIP3    H115960   5.586   0.501   4.411
 5318TIP3    H215961   5.637   0.641   4.435
 5319TIP3   OH215962   1.544   3.616   5.081
 5319TIP3    H115963   1.543   3.561   5.159
 5319TIP3    H215964   1.637   3.638   5.069
 5320TIP3   OH215965   2.415   0.226   0.695
 5320TIP3    H115966   2.418   0.288   0.767
 5320TIP3    H215967   2.476   0.157   0.720
 5321TIP3   OH215968   3.075   2.481   4.189
 5321TIP3    H115969   2.985   2.464   4.162
 5321TIP3    H215970   3.066   2.547   4.258
 5322TIP3   OH215971   2.197   1.009   3.280
 5322TIP3    H115972   2.238   0.938   3.330
 5322TIP3    H215973   2.252   1.085   3.298
 5323TIP3   OH215974   0.880   4.690   1.348
 5323TIP3    H115975   0.968   4.660   1.327
 5323TIP3    H215976   0.883   4.711   1.441
 5324TIP3   OH215977   2.020   1.980   0.149
 5324TIP3    H115978   2.003   2.017   0.062
 5324TIP3    H215979   1.984   2.045   0.209
 5325TIP3   OH215980   4.002   4.239   2.486
 5325TIP3    H115981   3.982   4.151   2.452
 5325TIP3    H215982   3.937   4.253   2.555
 5326TIP3   OH215983   2.419   3.635   2.868
 5326TIP3    H115984   2.435   3.542   2.884
 5326TIP3    H215985   2.487   3.680   2.918
 5327TIP3   OH215986   1.449   3.958   1.086
 5327TIP3    H115987   1.456   3.873   1.043
 5327TIP3    H215988   1.531   4.002   1.065
 5328TIP3   OH215989   1.944   4.702   1.890
 5328TIP3    H115990   1.962   4.767   1.958
 5328TIP3    H215991   1.849   4.693   1.891
 5329TIP3   OH215992   2.446   4.929   2.421
 5329TIP3    H115993   2.402   4.862   2.474
 5329TIP3    H215994   2.530   4.889   2.397
 5330TIP3   OH215995   1.773   1.322   1.132
 5330TIP3    H115996   1.695   1.275   1.160
 5330TIP3    H215997   1.742   1.383   1.065
 5331TIP3   OH215998   2.367   3.338   4.957
 5331TIP3    H115999   2.396   3.406   5.017
 5331TIP3    H216000   2.416   3.260   4.983
 5332TIP3   OH216001   3.604   1.154   0.601
 5332TIP3    H116002   3.535   1.201   0.554
 5332TIP3    H216003   3.640   1.094   0.535
 5333TIP3   OH216004   4.467   3.440   4.684
 5333TIP3    H116005   4.509   3.521   4.711
 5333TIP3    H216006   4.431   3.458   4.598
 5334TIP3   OH216007   0.670   5.357   0.335
 5334TIP3    H116008   0.617   5.282   0.307
 5334TIP3    H216009   0.645   5.371   0.426
 5335TIP3   OH216010   4.212   2.451   0.616
 5335TIP3    H116011   4.302   2.419   0.605
 5335TIP3    H216012   4.220   2.525   0.676
 5336TIP3   OH216013   0.735   0.979   1.588
 5336TIP3    H116014   0.717   1.060   1.636
 5336TIP3    H216015   0.821   0.994   1.548
 5337TIP3   OH216016   3.478   2.476   1.273
 5337TIP3    H116017   3.489   2.534   1.199
 5337TIP3    H216018   3.455   2.533   1.346
 5338TIP3   OH216019   3.636   2.972   2.842
 5338TIP3    H116020   3.637   3.055   2.795
 5338TIP3    H216021   3.729   2.951   2.857
 5339TIP3   OH216022   3.857   1.088   1.105
 5339TIP3    H116023   3.877   1.016   1.045
 5339TIP3    H216024   3.841   1.045   1.189
 5340TIP3   OH216025   3.880   4.332   2.210
 5340TIP3    H116026   3.876   4.262   2.144
 5340TIP3    H216027   3.951   4.307   2.268
 5341TIP3   OH216028   0.916   1.871   4.755
 5341TIP3    H116029   0.974   1.801   4.725
 5341TIP3    H216030   0.829   1.831   4.759
 5342TIP3   OH216031   6.049   3.203   4.069
 5342TIP3    H116032   6.049   3.148   3.991
 5342TIP3    H216033   5.968   3.180   4.115
 5343TIP3   OH216034   5.592   5.640   4.440
 5343TIP3    H116035   5.568   5.625   4.348
 5343TIP3    H216036   5.572   5.733   4.455
 5344TIP3   OH216037   2.724   4.647   0.525
 5344TIP3    H116038   2.798   4.644   0.586
 5344TIP3    H216039   2.681   4.730   0.544
 5345TIP3   OH216040   5.777   5.390   0.385
 5345TIP3    H116041   5.763   5.482   0.366
 5345TIP3    H216042   5.689   5.356   0.404
 5346TIP3   OH216043   6.054   3.652   1.694
 5346TIP3    H116044   6.025   3.561   1.684
 5346TIP3    H216045   6.130   3.646   1.752
 5347TIP3   OH216046   1.587   2.124   2.702
 5347TIP3    H116047   1.520   2.151   2.765
 5347TIP3    H216048   1.544   2.057   2.648
 5348TIP3   OH216049   2.496   0.568   4.449
 5348TIP3    H116050   2.421   0.558   4.507
 5348TIP3    H216051   2.562   0.613   4.502
 5349TIP3   OH216052   5.024   4.869   5.066
 5349TIP3    H116053   5.097   4.921   5.031
 5349TIP3    H216054   4.966   4.856   4.990
 5350TIP3   OH216055   2.161   3.717   2.292
 5350TIP3    H116056   2.129   3.687   2.207
 5350TIP3    H216057   2.225   3.651   2.318
 5351TIP3   OH216058   5.432   3.766   3.202
 5351TIP3    H116059   5.436   3.862   3.202
 5351TIP3    H216060   5.406   3.744   3.291
 5352TIP3   OH216061   2.404   0.693   2.301
 5352TIP3    H116062   2.378   0.694   2.209
 5352TIP3    H216063   2.328   0.657   2.347
 5353TIP3   OH216064   1.313   2.067   1.908
 5353TIP3    H116065   1.393   2.059   1.856
 5353TIP3    H216066   1.343   2.063   1.999
 5354TIP3   OH216067   2.299   3.982   0.988
 5354TIP3    H116068   2.257   4.019   1.066
 5354TIP3    H216069   2.274   3.890   0.989
 5355TIP3   OH216070   1.521   1.172   4.763
 5355TIP3    H116071   1.614   1.160   4.744
 5355TIP3    H216072   1.476   1.147   4.682
 5356TIP3   OH216073   6.296   2.482   0.180
 5356TIP3    H116074   6.236   2.437   0.122
 5356TIP3    H216075   6.383   2.449   0.156
 5357TIP3   OH216076   3.210   2.229   4.213
 5357TIP3    H116077   3.208   2.324   4.200
 5357TIP3    H216078   3.146   2.213   4.283
 5358TIP3   OH216079   0.101   4.752   0.772
 5358TIP3    H116080   0.075   4.750   0.865
 5358TIP3    H216081   0.175   4.692   0.766
 5359TIP3   OH216082   3.676   4.316   0.745
 5359TIP3    H116083   3.722   4.383   0.796
 5359TIP3    H216084   3.625   4.267   0.810
 5360TIP3   OH216085   2.983   2.134   2.164
 5360TIP3    H116086   3.010   2.043   2.173
 5360TIP3    H216087   2.922   2.149   2.237
 5361TIP3   OH216088   1.739   2.616   1.531
 5361TIP3    H116089   1.789   2.683   1.484
 5361TIP3    H216090   1.652   2.654   1.543
 5362TIP3   OH216091   5.854   2.073   5.136
 5362TIP3    H116092   5.780   2.039   5.084
 5362TIP3    H216093   5.827   2.161   5.162
 5363TIP3   OH216094   4.402   0.110   2.968
 5363TIP3    H116095   4.423   0.028   2.923
 5363TIP3    H216096   4.440   0.100   3.055
 5364TIP3   OH216097   4.934   3.430   0.557
 5364TIP3    H116098   4.878   3.374   0.611
 5364TIP3    H216099   4.888   3.514   0.553
 5365TIP3   OH216100   3.903   0.750   0.415
 5365TIP3    H116101   3.851   0.724   0.339
 5365TIP3    H216102   3.905   0.672   0.471
 5366TIP3   OH216103   1.242   1.813   2.247
 5366TIP3    H116104   1.255   1.771   2.331
 5366TIP3    H216105   1.313   1.779   2.192
 5367TIP3   OH216106   3.933   4.798   3.068
 5367TIP3    H116107   3.918   4.893   3.070
 5367TIP3    H216108   3.902   4.767   3.152
 5368TIP3   OH216109   1.585   1.123   2.680
 5368TIP3    H116110   1.514   1.163   2.629
 5368TIP3    H216111   1.586   1.172   2.762
 5369TIP3   OH216112   0.790   5.778   0.653
 5369TIP3    H116113   0.707   5.734   0.634
 5369TIP3    H216114   0.852   5.740   0.591
 5370TIP3   OH216115   5.638   5.807   1.243
 5370TIP3    H116116   5.706   5.863   1.282
 5370TIP3    H216117   5.686   5.741   1.194
 5371TIP3   OH216118   2.486   1.756   4.337
 5371TIP3    H116119   2.413   1.694   4.334
 5371TIP3    H216120   2.461   1.819   4.405
 5372TIP3   OH216121   5.501   4.135   1.377
 5372TIP3    H116122   5.586   4.100   1.353
 5372TIP3    H216123   5.500   4.134   1.473
 5373TIP3   OH216124   1.448   5.224   5.137
 5373TIP3    H116125   1.504   5.164   5.187
 5373TIP3    H216126   1.448   5.189   5.048
 5374TIP3   OH216127   2.041   3.203   5.124
 5374TIP3    H116128   1.971   3.155   5.168
 5374TIP3    H216129   2.066   3.271   5.187
 5375TIP3   OH216130   5.113   0.912   2.016
 5375TIP3    H116131   5.079   1.000   2.001
 5375TIP3    H216132   5.052   0.873   2.078
 5376TIP3   OH216133   5.289   1.986   0.337
 5376TIP3    H116134   5.292   2.080   0.357
 5376TIP3    H216135   5.268   1.944   0.420
 5377TIP3   OH216136   2.201   0.153   1.479
 5377TIP3    H116137   2.206   0.206   1.399
 5377TIP3    H216138   2.109   0.155   1.504
 5378TIP3   OH216139   4.212   5.410   4.254
 5378TIP3    H116140   4.200   5.505   4.250
 5378TIP3    H216141   4.125   5.374   4.238
 5379TIP3   OH216142   2.232   5.406   0.802
 5379TIP3    H116143   2.162   5.383   0.741
 5379TIP3    H216144   2.187   5.454   0.872
 5380TIP3   OH216145   3.954   0.720   4.116
 5380TIP3    H116146   3.943   0.653   4.048
 5380TIP3    H216147   3.961   0.802   4.067
 5381TIP3   OH216148   4.533   2.100   0.463
 5381TIP3    H116149   4.601   2.111   0.397
 5381TIP3    H216150   4.580   2.072   0.542
 5382TIP3   OH216151   4.168   0.107   5.165
 5382TIP3    H116152   4.165   0.032   5.224
 5382TIP3    H216153   4.094   0.161   5.191
 5383TIP3   OH216154   0.756   2.676   3.576
 5383TIP3    H116155   0.741   2.625   3.656
 5383TIP3    H216156   0.850   2.667   3.560
 5384TIP3   OH216157   6.351   5.610   1.076
 5384TIP3    H116158   6.279   5.563   1.116
 5384TIP3    H216159   6.332   5.702   1.090
 5385TIP3   OH216160   4.271   4.833   2.665
 5385TIP3    H116161   4.303   4.881   2.589
 5385TIP3    H216162   4.176   4.839   2.660
 5386TIP3   OH216163   2.616   5.843   3.935
 5386TIP3    H116164   2.631   5.891   4.017
 5386TIP3    H216165   2.649   5.902   3.867
 5387TIP3   OH216166   4.893   5.411   1.876
 5387TIP3    H116167   4.975   5.460   1.865
 5387TIP3    H216168   4.882   5.365   1.792
 5388TIP3   OH216169   5.830   2.023   0.054
 5388TIP3    H116170   5.819   1.928   0.060
 5388TIP3    H216171   5.916   2.039   0.094
 5389TIP3   OH216172   1.419   2.126   1.592
 5389TIP3    H116173   1.420   2.219   1.613
 5389TIP3    H216174   1.503   2.093   1.624
 5390TIP3   OH216175   0.218   4.453   3.735
 5390TIP3    H116176   0.201   4.465   3.828
 5390TIP3    H216177   0.194   4.361   3.717
 5391TIP3   OH216178   0.384   3.596   5.098
 5391TIP3    H116179   0.387   3.668   5.035
 5391TIP3    H216180   0.470   3.595   5.138
 5392TIP3   OH216181   4.157   0.504   5.171
 5392TIP3    H116182   4.189   0.572   5.230
 5392TIP3    H216183   4.094   0.549   5.115
 5393TIP3   OH216184   5.016   5.420   3.064
 5393TIP3    H116185   5.093   5.370   3.037
 5393TIP3    H216186   5.030   5.436   3.158
 5394TIP3   OH216187   4.097   0.810   2.858
 5394TIP3    H116188   4.009   0.820   2.821
 5394TIP3    H216189   4.112   0.715   2.859
 5395TIP3   OH216190   6.232   2.739   4.259
 5395TIP3    H116191   6.313   2.689   4.269
 5395TIP3    H216192   6.189   2.731   4.344
 5396TIP3   OH216193   1.140   3.023   4.424
 5396TIP3    H116194   1.168   2.941   4.464
 5396TIP3    H216195   1.194   3.031   4.345
 5397TIP3   OH216196   1.551   5.117   4.875
 5397TIP3    H116197   1.645   5.123   4.858
 5397TIP3    H216198   1.532   5.023   4.867
 5398TIP3   OH216199   1.989   2.449   4.233
 5398TIP3    H116200   1.943   2.473   4.152
 5398TIP3    H216201   1.988   2.529   4.286
 5399TIP3   OH216202   1.633   3.944   4.849
 5399TIP3    H116203   1.696   4.006   4.885
 5399TIP3    H216204   1.654   3.940   4.755
 5400TIP3   OH216205   1.253   3.479   3.563
 5400TIP3    H116206   1.263   3.572   3.582
 5400TIP3    H216207   1.277   3.435   3.644
 5401TIP3   OH216208   6.380   3.600   1.102
 5401TIP3    H116209   6.375   3.589   1.007
 5401TIP3    H216210   6.289   3.608   1.130
 5402TIP3   OH216211   4.687   5.729   3.724
 5402TIP3    H116212   4.659   5.729   3.815
 5402TIP3    H216213   4.607   5.706   3.675
 5403TIP3   OH216214   2.876   1.787   0.172
 5403TIP3    H116215   2.873   1.872   0.127
 5403TIP3    H216216   2.787   1.752   0.162
 5404TIP3   OH216217   4.729   4.223   0.591
 5404TIP3    H116218   4.772   4.246   0.673
 5404TIP3    H216219   4.696   4.134   0.605
 5405TIP3   OH216220   2.278   4.689   4.909
 5405TIP3    H116221   2.356   4.643   4.940
 5405TIP3    H216222   2.282   4.681   4.814
 5406TIP3   OH216223   3.353   5.765   4.753
 5406TIP3    H116224   3.425   5.701   4.751
 5406TIP3    H216225   3.274   5.711   4.757
 5407TIP3   OH216226   5.235   5.370   0.407
 5407TIP3    H116227   5.148   5.385   0.369
 5407TIP3    H216228   5.224   5.291   0.460
 5408TIP3   OH216229   4.106   3.732   4.024
 5408TIP3    H116230   4.055   3.698   4.098
 5408TIP3    H216231   4.043   3.735   3.952
 5409TIP3   OH216232   1.187   4.160   1.170
 5409TIP3    H116233   1.272   4.194   1.142
 5409TIP3    H216234   1.204   4.068   1.190
 5410TIP3   OH216235   3.440   4.933   3.676
 5410TIP3    H116236   3.384   5.008   3.697
 5410TIP3    H216237   3.422   4.870   3.746
 5411TIP3   OH216238   1.406   1.124   4.235
 5411TIP3    H116239   1.488   1.133   4.186
 5411TIP3    H216240   1.338   1.147   4.172
 5412TIP3   OH216241   3.806   5.833   1.870
 5412TIP3    H116242   3.759   5.910   1.900
 5412TIP3    H216243   3.877   5.822   1.934
 5413TIP3   OH216244   3.260   4.706   4.143
 5413TIP3    H116245   3.263   4.795   4.179
 5413TIP3    H216246   3.290   4.650   4.214
 5414TIP3   OH216247   3.616   2.856   4.779
 5414TIP3    H116248   3.706   2.823   4.780
 5414TIP3    H216249   3.573   2.807   4.709
 5415TIP3   OH216250   0.647   0.986   1.231
 5415TIP3    H116251   0.726   0.941   1.260
 5415TIP3    H216252   0.640   0.964   1.138
 5416TIP3   OH216253   3.991   3.968   1.531
 5416TIP3    H116254   3.955   4.040   1.583
 5416TIP3    H216255   4.003   4.004   1.444
 5417TIP3   OH216256   5.081   3.605   2.712
 5417TIP3    H116257   5.150   3.632   2.773
 5417TIP3    H216258   4.999   3.621   2.759
 5418TIP3   OH216259   6.177   3.913   2.483
 5418TIP3    H116260   6.210   3.911   2.393
 5418TIP3    H216261   6.082   3.921   2.473
 5419TIP3   OH216262   5.390   1.491   0.682
 5419TIP3    H116263   5.397   1.404   0.723
 5419TIP3    H216264   5.303   1.492   0.642
 5420TIP3   OH216265   3.651   4.555   4.349
 5420TIP3    H116266   3.651   4.578   4.442
 5420TIP3    H216267   3.640   4.460   4.348
 5421TIP3   OH216268   5.252   1.929   4.751
 5421TIP3    H116269   5.262   1.976   4.834
 5421TIP3    H216270   5.191   1.858   4.771
 5422TIP3   OH216271   3.609   6.017   2.329
 5422TIP3    H116272   3.608   5.993   2.421
 5422TIP3    H216273   3.524   5.987   2.295
 5423TIP3   OH216274   2.012   4.877   0.321
 5423TIP3    H116275   2.093   4.840   0.356
 5423TIP3    H216276   2.006   4.965   0.359
 5424TIP3   OH216277   2.738   4.778   1.548
 5424TIP3    H116278   2.656   4.804   1.590
 5424TIP3    H216279   2.758   4.692   1.586
 5425TIP3   OH216280   1.507   3.017   5.003
 5425TIP3    H116281   1.552   2.954   4.948
 5425TIP3    H216282   1.561   3.024   5.082
 5426TIP3   OH216283   0.075   0.707   1.966
 5426TIP3    H116284   0.061   0.801   1.957
 5426TIP3    H216285   0.112   0.680   1.882
 5427TIP3   OH216286   0.275   4.615   4.377
 5427TIP3    H116287   0.226   4.632   4.296
 5427TIP3    H216288   0.342   4.551   4.351
 5428TIP3   OH216289   5.376   2.920   2.064
 5428TIP3    H116290   5.319   2.879   2.129
 5428TIP3    H216291   5.403   3.003   2.104
 5429TIP3   OH216292   6.071   4.560   4.866
 5429TIP3    H116293   6.105   4.612   4.938
 5429TIP3    H216294   5.999   4.612   4.830
 5430TIP3   OH216295   3.625   3.661   1.103
 5430TIP3    H116296   3.698   3.677   1.163
 5430TIP3    H216297   3.665   3.656   1.017
 5431TIP3   OH216298   5.136   1.886   4.081
 5431TIP3    H116299   5.149   1.804   4.034
 5431TIP3    H216300   5.077   1.937   4.024
 5432TIP3   OH216301   3.704   4.187   3.944
 5432TIP3    H116302   3.736   4.097   3.939
 5432TIP3    H216303   3.618   4.180   3.986
 5433TIP3   OH216304   1.473   1.380   0.969
 5433TIP3    H116305   1.416   1.381   1.046
 5433TIP3    H216306   1.535   1.451   0.984
 5434TIP3   OH216307   5.324   1.436   2.771
 5434TIP3    H116308   5.395   1.496   2.749
 5434TIP3    H216309   5.307   1.389   2.689
 5435TIP3   OH216310   1.037   5.595   3.344
 5435TIP3    H116311   0.999   5.680   3.364
 5435TIP3    H216312   0.963   5.535   3.346
 5436TIP3   OH216313   1.397   3.062   0.863
 5436TIP3    H116314   1.352   3.029   0.940
 5436TIP3    H216315   1.461   2.994   0.842
 5437TIP3   OH216316   5.857   3.390   4.253
 5437TIP3    H116317   5.844   3.296   4.249
 5437TIP3    H216318   5.915   3.403   4.328
 5438TIP3   OH216319   4.204   0.118   2.742
 5438TIP3    H116320   4.246   0.103   2.827
 5438TIP3    H216321   4.134   0.180   2.760
 5439TIP3   OH216322   1.314   1.885   0.879
 5439TIP3    H116323   1.284   1.975   0.893
 5439TIP3    H216324   1.285   1.838   0.957
 5440TIP3   OH216325   2.742   1.542   1.360
 5440TIP3    H116326   2.722   1.597   1.285
 5440TIP3    H216327   2.673   1.476   1.360
 5441TIP3   OH216328   5.159   0.671   1.200
 5441TIP3    H116329   5.232   0.626   1.242
 5441TIP3    H216330   5.173   0.658   1.106
 5442TIP3   OH216331   0.539   1.024   2.109
 5442TIP3    H116332   0.549   0.997   2.201
 5442TIP3    H216333   0.535   1.119   2.113
 5443TIP3   OH216334   1.086   0.066   2.961
 5443TIP3    H116335   1.119   0.118   2.888
 5443TIP3    H216336   1.069   0.130   3.031
 5444TIP3   OH216337   1.957   1.465   0.706
 5444TIP3    H116338   2.008   1.385   0.692
 5444TIP3    H216339   1.930   1.460   0.798
 5445TIP3   OH216340   6.291   0.670   3.599
 5445TIP3    H116341   6.258   0.611   3.666
 5445TIP3    H216342   6.264   0.757   3.627
 5446TIP3   OH216343   4.624   1.493   1.737
 5446TIP3    H116344   4.530   1.504   1.753
 5446TIP3    H216345   4.656   1.581   1.718
 5447TIP3   OH216346   2.931   2.083   5.036
 5447TIP3    H116347   3.010   2.104   4.987
 5447TIP3    H216348   2.963   2.036   5.113
 5448TIP3   OH216349   3.052   2.017   4.050
 5448TIP3    H116350   2.957   2.013   4.037
 5448TIP3    H216351   3.064   2.066   4.131
 5449TIP3   OH216352   3.836   3.951   4.016
 5449TIP3    H116353   3.873   3.949   4.105
 5449TIP3    H216354   3.868   3.871   3.975
 5450TIP3   OH216355   4.987   3.016   0.692
 5450TIP3    H116356   4.983   3.063   0.608
 5450TIP3    H216357   5.015   2.927   0.668
 5451TIP3   OH216358   3.368   3.713   3.839
 5451TIP3    H116359   3.453   3.724   3.881
 5451TIP3    H216360   3.389   3.687   3.749
 5452TIP3   OH216361   1.793   1.418   4.563
 5452TIP3    H116362   1.777   1.405   4.469
 5452TIP3    H216363   1.737   1.491   4.587
 5453TIP3   OH216364   1.883   1.294   1.704
 5453TIP3    H116365   1.892   1.356   1.776
 5453TIP3    H216366   1.788   1.286   1.691
 5454TIP3   OH216367   5.889   1.062   0.884
 5454TIP3    H116368   5.854   1.149   0.902
 5454TIP3    H216369   5.837   1.031   0.809
 5455TIP3   OH216370   4.333   2.700   4.519
 5455TIP3    H116371   4.333   2.695   4.424
 5455TIP3    H216372   4.417   2.739   4.542
 5456TIP3   OH216373   5.178   0.952   3.079
 5456TIP3    H116374   5.183   0.930   3.172
 5456TIP3    H216375   5.093   0.993   3.068
 5457TIP3   OH216376   0.182   3.363   1.621
 5457TIP3    H116377   0.227   3.294   1.670
 5457TIP3    H216378   0.129   3.316   1.557
 5458TIP3   OH216379   1.137   1.070   4.072
 5458TIP3    H116380   1.092   1.075   4.157
 5458TIP3    H216381   1.067   1.068   4.008
 5459TIP3   OH216382   0.141   5.302   4.224
 5459TIP3    H116383   0.229   5.320   4.257
 5459TIP3    H216384   0.111   5.226   4.274
 5460TIP3   OH216385   3.931   1.709   2.844
 5460TIP3    H116386   3.968   1.624   2.868
 5460TIP3    H216387   3.988   1.742   2.775
 5461TIP3   OH216388   2.949   3.866   2.881
 5461TIP3    H116389   2.875   3.924   2.901
 5461TIP3    H216390   3.025   3.925   2.876
 5462TIP3   OH216391   2.881   0.092   4.498
 5462TIP3    H116392   2.852   0.181   4.519
 5462TIP3    H216393   2.971   0.102   4.467
 5463TIP3   OH216394   0.599   1.321   3.806
 5463TIP3    H116395   0.643   1.406   3.802
 5463TIP3    H216396   0.508   1.341   3.785
 5464TIP3   OH216397   5.823   0.245   1.676
 5464TIP3    H116398   5.822   0.235   1.581
 5464TIP3    H216399   5.779   0.328   1.692
 5465TIP3   OH216400   4.830   0.286   3.392
 5465TIP3    H116401   4.845   0.358   3.453
 5465TIP3    H216402   4.844   0.324   3.306
 5466TIP3   OH216403   5.388   5.603   1.936
 5466TIP3    H116404   5.406   5.624   1.845
 5466TIP3    H216405   5.305   5.556   1.934
 5467TIP3   OH216406   3.888   1.471   1.169
 5467TIP3    H116407   3.965   1.441   1.119
 5467TIP3    H216408   3.924   1.498   1.253
 5468TIP3   OH216409   2.448   0.057   3.635
 5468TIP3    H116410   2.363   0.076   3.596
 5468TIP3    H216411   2.511   0.081   3.567
 5469TIP3   OH216412   2.558   4.040   4.122
 5469TIP3    H116413   2.631   3.979   4.132
 5469TIP3    H216414   2.515   4.039   4.207
 5470TIP3   OH216415   4.454   1.160   4.910
 5470TIP3    H116416   4.398   1.127   4.981
 5470TIP3    H216417   4.411   1.241   4.882
 5471TIP3   OH216418   5.580   4.707   2.390
 5471TIP3    H116419   5.493   4.673   2.371
 5471TIP3    H216420   5.632   4.628   2.409
 5472TIP3   OH216421   0.577   2.177   2.526
 5472TIP3    H116422   0.624   2.247   2.480
 5472TIP3    H216423   0.646   2.122   2.562
 5473TIP3   OH216424   0.084   2.411   0.536
 5473TIP3    H116425   0.174   2.386   0.554
 5473TIP3    H216426   0.087   2.448   0.447
 5474TIP3   OH216427   1.760   4.112   4.270
 5474TIP3    H116428   1.717   4.038   4.312
 5474TIP3    H216429   1.850   4.110   4.303
 5475TIP3   OH216430  -0.028   1.937   5.150
 5475TIP3    H116431   0.014   1.995   5.213
 5475TIP3    H216432   0.035   1.866   5.137
 5476TIP3   OH216433   0.122   3.961   4.975
 5476TIP3    H116434   0.176   3.967   5.054
 5476TIP3    H216435   0.117   3.867   4.956
 5477TIP3   OH216436   4.357   5.644   1.834
 5477TIP3    H116437   4.298   5.569   1.838
 5477TIP3    H216438   4.356   5.671   1.742
 5478TIP3   OH216439   0.595   4.709   1.299
 5478TIP3    H116440   0.681   4.673   1.322
 5478TIP3    H216441   0.613   4.797   1.268
 5479TIP3   OH216442   3.015   1.079   3.281
 5479TIP3    H116443   2.945   1.040   3.228
 5479TIP3    H216444   3.008   1.173   3.265
 5480TIP3   OH216445   6.037   4.514   3.147
 5480TIP3    H116446   6.084   4.595   3.169
 5480TIP3    H216447   5.960   4.544   3.098
 5481TIP3   OH216448   3.192   2.518   4.460
 5481TIP3    H116449   3.248   2.532   4.384
 5481TIP3    H216450   3.219   2.434   4.495
 5482TIP3   OH216451   4.988   1.057   3.318
 5482TIP3    H116452   5.058   0.993   3.319
 5482TIP3    H216453   5.033   1.142   3.314
 5483TIP3   OH216454   0.954   1.515   5.159
 5483TIP3    H116455   1.025   1.473   5.110
 5483TIP3    H216456   0.998   1.579   5.215
 5484TIP3   OH216457   1.416   0.806   0.037
 5484TIP3    H116458   1.340   0.765   0.078
 5484TIP3    H216459   1.476   0.733   0.020
 5485TIP3   OH216460   2.969   3.017   4.067
 5485TIP3    H116461   2.912   3.086   4.035
 5485TIP3    H216462   2.909   2.950   4.100
 5486TIP3   OH216463   0.588   0.429   2.617
 5486TIP3    H116464   0.531   0.389   2.550
 5486TIP3    H216465   0.632   0.500   2.570
 5487TIP3   OH216466   0.656   2.849   1.605
 5487TIP3    H116467   0.585   2.838   1.669
 5487TIP3    H216468   0.715   2.912   1.647
 5488TIP3   OH216469   6.144   2.678   4.498
 5488TIP3    H116470   6.101   2.601   4.535
 5488TIP3    H216471   6.182   2.723   4.573
 5489TIP3   OH216472   0.453   2.667   2.291
 5489TIP3    H116473   0.379   2.722   2.263
 5489TIP3    H216474   0.417   2.579   2.294
 5490TIP3   OH216475   3.640   5.931   2.596
 5490TIP3    H116476   3.697   5.854   2.590
 5490TIP3    H216477   3.561   5.899   2.640
 5491TIP3   OH216478   3.626   0.040   0.753
 5491TIP3    H116479   3.531   0.046   0.765
 5491TIP3    H216480   3.648  -0.048   0.785
 5492TIP3   OH216481   2.675   2.666   0.926
 5492TIP3    H116482   2.606   2.721   0.888
 5492TIP3    H216483   2.709   2.718   0.999
 5493TIP3   OH216484   1.907   1.640   3.813
 5493TIP3    H116485   1.914   1.579   3.740
 5493TIP3    H216486   1.976   1.704   3.798
 5494TIP3   OH216487   1.445   3.442   1.708
 5494TIP3    H116488   1.491   3.494   1.774
 5494TIP3    H216489   1.375   3.498   1.677
 5495TIP3   OH216490   0.037   5.375   2.561
 5495TIP3    H116491   0.045   5.304   2.498
 5495TIP3    H216492   0.121   5.375   2.608
 5496TIP3   OH216493   4.855   1.556   0.113
 5496TIP3    H116494   4.777   1.600   0.078
 5496TIP3    H216495   4.839   1.549   0.207
 5497TIP3   OH216496   4.734   2.255   2.299
 5497TIP3    H116497   4.735   2.301   2.215
 5497TIP3    H216498   4.736   2.324   2.365
 5498TIP3   OH216499   4.016   1.998   2.474
 5498TIP3    H116500   3.929   1.982   2.510
 5498TIP3    H216501   4.061   1.914   2.482
 5499TIP3   OH216502   0.443   3.780   2.321
 5499TIP3    H116503   0.357   3.805   2.287
 5499TIP3    H216504   0.492   3.862   2.324
 5500TIP3   OH216505   3.429   3.168   0.523
 5500TIP3    H116506   3.407   3.250   0.567
 5500TIP3    H216507   3.472   3.196   0.442
 5501TIP3   OH216508   2.766   0.904   4.999
 5501TIP3    H116509   2.705   0.915   5.072
 5501TIP3    H216510   2.834   0.969   5.014
 5502TIP3   OH216511   1.543   5.052   2.851
 5502TIP3    H116512   1.585   5.135   2.831
 5502TIP3    H216513   1.603   5.009   2.913
 5503TIP3   OH216514   0.843   0.619   3.460
 5503TIP3    H116515   0.853   0.551   3.526
 5503TIP3    H216516   0.810   0.695   3.508
 5504TIP3   OH216517   5.597   3.542   1.634
 5504TIP3    H116518   5.679   3.590   1.648
 5504TIP3    H216519   5.556   3.539   1.720
 5505TIP3   OH216520   2.155   3.253   4.097
 5505TIP3    H116521   2.195   3.225   4.015
 5505TIP3    H216522   2.156   3.348   4.093
 5506TIP3   OH216523   5.257   2.897   1.431
 5506TIP3    H116524   5.240   2.949   1.352
 5506TIP3    H216525   5.174   2.898   1.478
 5507TIP3   OH216526   5.888   5.977   3.648
 5507TIP3    H116527   5.817   5.929   3.605
 5507TIP3    H216528   5.846   6.055   3.685
 5508TIP3   OH216529   2.310   5.160   2.808
 5508TIP3    H116530   2.334   5.125   2.894
 5508TIP3    H216531   2.215   5.150   2.804
 5509TIP3   OH216532   4.177   1.327   2.888
 5509TIP3    H116533   4.128   1.246   2.894
 5509TIP3    H216534   4.256   1.304   2.838
 5510TIP3   OH216535   2.966   0.168  -0.019
 5510TIP3    H116536   2.885   0.218  -0.014
 5510TIP3    H216537   2.945   0.084   0.022
 5511TIP3   OH216538   4.718   0.773   4.206
 5511TIP3    H116539   4.768   0.710   4.258
 5511TIP3    H216540   4.650   0.805   4.266
 5512TIP3   OH216541   2.819   2.949   1.619
 5512TIP3    H116542   2.874   2.947   1.541
 5512TIP3    H216543   2.855   3.020   1.673
 5513TIP3   OH216544   1.175   2.491   1.924
 5513TIP3    H116545   1.144   2.571   1.881
 5513TIP3    H216546   1.173   2.512   2.018
 5514TIP3   OH216547   4.429   2.669   3.193
 5514TIP3    H116548   4.356   2.674   3.255
 5514TIP3    H216549   4.506   2.692   3.245
 5515TIP3   OH216550   5.334   0.431   2.362
 5515TIP3    H116551   5.355   0.355   2.307
 5515TIP3    H216552   5.374   0.505   2.317
 5516TIP3   OH216553   4.647   3.639   2.998
 5516TIP3    H116554   4.600   3.701   3.053
 5516TIP3    H216555   4.739   3.666   3.003
 5517TIP3   OH216556   5.966   5.275   0.907
 5517TIP3    H116557   6.045   5.223   0.901
 5517TIP3    H216558   5.956   5.293   1.000
 5518TIP3   OH216559   1.597   3.665   2.156
 5518TIP3    H116560   1.624   3.757   2.157
 5518TIP3    H216561   1.662   3.620   2.211
 5519TIP3   OH216562   0.133   1.850   3.556
 5519TIP3    H116563   0.055   1.795   3.547
 5519TIP3    H216564   0.120   1.921   3.493
 5520TIP3   OH216565   3.162   4.620   1.277
 5520TIP3    H116566   3.256   4.641   1.276
 5520TIP3    H216567   3.119   4.704   1.264
 5521TIP3   OH216568   5.982   0.080   3.597
 5521TIP3    H116569   5.988   0.094   3.692
 5521TIP3    H216570   6.020  -0.007   3.584
 5522TIP3   OH216571   2.305   4.293   3.402
 5522TIP3    H116572   2.225   4.324   3.359
 5522TIP3    H216573   2.313   4.202   3.376
 5523TIP3   OH216574   3.187   5.682   3.415
 5523TIP3    H116575   3.263   5.631   3.444
 5523TIP3    H216576   3.202   5.769   3.450
 5524TIP3   OH216577   0.104   0.921   0.409
 5524TIP3    H116578   0.026   0.878   0.373
 5524TIP3    H216579   0.173   0.855   0.403
 5525TIP3   OH216580   3.106   1.157   1.080
 5525TIP3    H116581   3.145   1.096   1.018
 5525TIP3    H216582   3.013   1.158   1.057
 5526TIP3   OH216583   0.137   1.829   1.449
 5526TIP3    H116584   0.055   1.793   1.481
 5526TIP3    H216585   0.165   1.770   1.380
 5527TIP3   OH216586   0.520   0.944   4.943
 5527TIP3    H116587   0.545   1.002   5.015
 5527TIP3    H216588   0.583   0.962   4.874
 5528TIP3   OH216589   3.472   0.361   5.077
 5528TIP3    H116590   3.478   0.446   5.032
 5528TIP3    H216591   3.381   0.334   5.066
 5529TIP3   OH216592   0.304   4.249   1.422
 5529TIP3    H116593   0.249   4.175   1.447
 5529TIP3    H216594   0.381   4.242   1.479
 5530TIP3   OH216595   6.026   5.327   0.305
 5530TIP3    H116596   5.935   5.319   0.333
 5530TIP3    H216597   6.050   5.417   0.326
 5531TIP3   OH216598   1.695   1.876   4.399
 5531TIP3    H116599   1.761   1.942   4.419
 5531TIP3    H216600   1.611   1.920   4.415
 5532TIP3   OH216601   5.266   5.300   4.194
 5532TIP3    H116602   5.240   5.251   4.272
 5532TIP3    H216603   5.303   5.233   4.136
 5533TIP3   OH216604   0.415   0.160   2.208
 5533TIP3    H116605   0.471   0.090   2.174
 5533TIP3    H216606   0.469   0.239   2.204
 5534TIP3   OH216607   4.153   1.686   2.629
 5534TIP3    H116608   4.217   1.725   2.570
 5534TIP3    H216609   4.089   1.644   2.571
 5535TIP3   OH216610   2.759   1.115   2.169
 5535TIP3    H116611   2.694   1.094   2.102
 5535TIP3    H216612   2.768   1.034   2.220
 5536TIP3   OH216613   1.120   5.046   0.506
 5536TIP3    H116614   1.100   5.128   0.551
 5536TIP3    H216615   1.035   5.018   0.470
 5537TIP3   OH216616   5.010   0.143   3.051
 5537TIP3    H116617   5.052   0.093   2.980
 5537TIP3    H216618   5.067   0.128   3.127
 5538TIP3   OH216619   5.547   2.953   0.941
 5538TIP3    H116620   5.540   3.010   0.865
 5538TIP3    H216621   5.632   2.910   0.931
 5539TIP3   OH216622   0.597   5.129   3.379
 5539TIP3    H116623   0.522   5.078   3.350
 5539TIP3    H216624   0.591   5.211   3.331
 5540TIP3   OH216625   0.466   3.761   3.209
 5540TIP3    H116626   0.498   3.815   3.137
 5540TIP3    H216627   0.499   3.673   3.190
 5541TIP3   OH216628   3.407   1.742   0.383
 5541TIP3    H116629   3.439   1.813   0.327
 5541TIP3    H216630   3.479   1.679   0.386
 5542TIP3   OH216631   3.814   0.029   0.557
 5542TIP3    H116632   3.808   0.109   0.505
 5542TIP3    H216633   3.733   0.025   0.607
 5543TIP3   OH216634   2.799   5.583   0.097
 5543TIP3    H116635   2.734   5.615   0.159
 5543TIP3    H216636   2.760   5.597   0.011
 5544TIP3   OH216637   1.320   2.836   2.000
 5544TIP3    H116638   1.387   2.827   2.069
 5544TIP3    H216639   1.283   2.748   1.991
 5545TIP3   OH216640   1.642   1.232   0.823
 5545TIP3    H116641   1.695   1.178   0.880
 5545TIP3    H216642   1.566   1.255   0.876
 5546TIP3   OH216643   0.160   5.369   3.474
 5546TIP3    H116644   0.218   5.337   3.544
 5546TIP3    H216645   0.219   5.411   3.411
 5547TIP3   OH216646   0.029   0.363   4.557
 5547TIP3    H116647   0.094   0.364   4.628
 5547TIP3    H216648  -0.055   0.359   4.602
 5548TIP3   OH216649   3.031   2.632   0.368
 5548TIP3    H116650   3.114   2.647   0.415
 5548TIP3    H216651   2.989   2.718   0.366
 5549TIP3   OH216652   0.822   3.866   0.333
 5549TIP3    H116653   0.798   3.935   0.271
 5549TIP3    H216654   0.809   3.907   0.419
 5550TIP3   OH216655   2.614   0.981   1.276
 5550TIP3    H116656   2.563   0.981   1.357
 5550TIP3    H216657   2.692   1.033   1.297
 5551TIP3   OH216658   6.326   3.299   2.935
 5551TIP3    H116659   6.241   3.337   2.909
 5551TIP3    H216660   6.386   3.327   2.866
 5552TIP3   OH216661   2.378   1.640   2.298
 5552TIP3    H116662   2.417   1.590   2.226
 5552TIP3    H216663   2.392   1.585   2.375
 5553TIP3   OH216664   3.030   5.827   3.079
 5553TIP3    H116665   3.012   5.880   3.002
 5553TIP3    H216666   3.011   5.885   3.153
 5554TIP3   OH216667   2.658   5.015   1.392
 5554TIP3    H116668   2.708   4.940   1.425
 5554TIP3    H216669   2.568   4.984   1.387
 5555TIP3   OH216670   0.395   4.207   3.525
 5555TIP3    H116671   0.472   4.225   3.579
 5555TIP3    H216672   0.429   4.199   3.436
 5556TIP3   OH216673   0.608   0.678   2.141
 5556TIP3    H116674   0.588   0.659   2.049
 5556TIP3    H216675   0.693   0.722   2.139
 5557TIP3   OH216676   2.414   0.898   2.521
 5557TIP3    H116677   2.347   0.964   2.540
 5557TIP3    H216678   2.381   0.852   2.444
 5558TIP3   OH216679   2.504   4.713   4.158
 5558TIP3    H116680   2.494   4.744   4.069
 5558TIP3    H216681   2.595   4.683   4.163
 5559TIP3   OH216682   6.129   0.896   0.820
 5559TIP3    H116683   6.111   0.816   0.771
 5559TIP3    H216684   6.050   0.912   0.871
 5560TIP3   OH216685   3.115   1.679   3.575
 5560TIP3    H116686   3.031   1.634   3.569
 5560TIP3    H216687   3.119   1.733   3.496
 5561TIP3   OH216688   5.760   5.497   1.221
 5561TIP3    H116689   5.853   5.518   1.210
 5561TIP3    H216690   5.728   5.484   1.132
 5562TIP3   OH216691   3.467   4.696   3.071
 5562TIP3    H116692   3.542   4.703   3.012
 5562TIP3    H216693   3.393   4.675   3.014
 5563TIP3   OH216694   0.261   2.728   3.562
 5563TIP3    H116695   0.205   2.769   3.496
 5563TIP3    H216696   0.228   2.638   3.569
 5564TIP3   OH216697   1.989   4.925   3.697
 5564TIP3    H116698   2.070   4.925   3.749
 5564TIP3    H216699   2.019   4.918   3.606
 5565TIP3   OH216700   2.636   0.944   0.146
 5565TIP3    H116701   2.725   0.972   0.125
 5565TIP3    H216702   2.643   0.851   0.164
 5566TIP3   OH216703   1.472   4.219   4.987
 5566TIP3    H116704   1.505   4.307   4.999
 5566TIP3    H216705   1.548   4.162   4.997
 5567TIP3   OH216706   4.618   2.901   2.322
 5567TIP3    H116707   4.638   2.861   2.238
 5567TIP3    H216708   4.674   2.979   2.326
 5568TIP3   OH216709   5.336   0.447   4.588
 5568TIP3    H116710   5.414   0.501   4.573
 5568TIP3    H216711   5.359   0.361   4.552
 5569TIP3   OH216712   2.084   2.471   3.916
 5569TIP3    H116713   2.088   2.559   3.953
 5569TIP3    H216714   2.031   2.421   3.978
 5570TIP3   OH216715   2.115   3.881   2.488
 5570TIP3    H116716   2.147   3.810   2.544
 5570TIP3    H216717   2.122   3.846   2.399
 5571TIP3   OH216718   5.843   0.523   4.583
 5571TIP3    H116719   5.808   0.606   4.616
 5571TIP3    H216720   5.925   0.547   4.540
 5572TIP3   OH216721  -0.015   4.840   2.004
 5572TIP3    H116722   0.073   4.876   1.994
 5572TIP3    H216723  -0.051   4.887   2.080
 5573TIP3   OH216724   1.678   4.936   4.117
 5573TIP3    H116725   1.677   4.841   4.108
 5573TIP3    H216726   1.711   4.951   4.206
 5574TIP3   OH216727   2.267   1.467   3.822
 5574TIP3    H116728   2.360   1.491   3.815
 5574TIP3    H216729   2.266   1.397   3.887
 5575TIP3   OH216730   4.689   3.862   3.616
 5575TIP3    H116731   4.722   3.785   3.662
 5575TIP3    H216732   4.706   3.843   3.524
 5576TIP3   OH216733   4.564   3.775   1.829
 5576TIP3    H116734   4.657   3.758   1.845
 5576TIP3    H216735   4.563   3.847   1.766
 5577TIP3   OH216736   0.272   0.235   0.924
 5577TIP3    H116737   0.202   0.220   0.988
 5577TIP3    H216738   0.325   0.156   0.928
 5578TIP3   OH216739   1.298   5.666   3.726
 5578TIP3    H116740   1.321   5.746   3.679
 5578TIP3    H216741   1.319   5.684   3.817
 5579TIP3   OH216742   0.540   5.813   3.085
 5579TIP3    H116743   0.585   5.846   3.008
 5579TIP3    H216744   0.447   5.826   3.066
 5580TIP3   OH216745   5.637   1.614   5.191
 5580TIP3    H116746   5.665   1.554   5.122
 5580TIP3    H216747   5.635   1.700   5.148
 5581TIP3   OH216748   5.865   4.215   2.474
 5581TIP3    H116749   5.906   4.293   2.438
 5581TIP3    H216750   5.928   4.184   2.539
 5582TIP3   OH216751   4.793   1.947   0.503
 5582TIP3    H116752   4.760   1.972   0.589
 5582TIP3    H216753   4.786   1.852   0.501
 5583TIP3   OH216754   2.894   1.157   4.995
 5583TIP3    H116755   2.884   1.239   5.043
 5583TIP3    H216756   2.867   1.178   4.905
 5584TIP3   OH216757   5.024   1.017   2.390
 5584TIP3    H116758   5.012   0.960   2.466
 5584TIP3    H216759   4.963   1.090   2.404
 5585TIP3   OH216760   5.423   3.809   2.289
 5585TIP3    H116761   5.331   3.796   2.312
 5585TIP3    H216762   5.421   3.838   2.198
 5586TIP3   OH216763   5.705   2.454   2.337
 5586TIP3    H116764   5.634   2.518   2.341
 5586TIP3    H216765   5.698   2.417   2.249
 5587TIP3   OH216766   5.589   1.119   4.344
 5587TIP3    H116767   5.626   1.102   4.257
 5587TIP3    H216768   5.617   1.045   4.397
 5588TIP3   OH216769   5.239   5.845   2.008
 5588TIP3    H116770   5.289   5.764   2.011
 5588TIP3    H216771   5.150   5.819   2.031
 5589TIP3   OH216772   6.025   1.979   0.991
 5589TIP3    H116773   6.000   1.942   1.076
 5589TIP3    H216774   5.996   1.914   0.927
 5590TIP3   OH216775   4.647   0.495   4.904
 5590TIP3    H116776   4.630   0.446   4.824
 5590TIP3    H216777   4.574   0.475   4.962
 5591TIP3   OH216778   4.697   0.967   2.333
 5591TIP3    H116779   4.677   0.900   2.399
 5591TIP3    H216780   4.764   0.927   2.278
 5592TIP3   OH216781   4.146   1.709   0.399
 5592TIP3    H116782   4.051   1.723   0.401
 5592TIP3    H216783   4.179   1.761   0.473
 5593TIP3   OH216784   5.780   3.755   1.700
 5593TIP3    H116785   5.863   3.709   1.689
 5593TIP3    H216786   5.799   3.845   1.676
 5594TIP3   OH216787   2.028   0.248   0.061
 5594TIP3    H116788   2.101   0.258   0.123
 5594TIP3    H216789   1.950   0.270   0.113
 5595TIP3   OH216790   3.156   3.164   0.050
 5595TIP3    H116791   3.212   3.162   0.128
 5595TIP3    H216792   3.196   3.231  -0.006
 5596TIP3   OH216793   5.159   5.667   3.945
 5596TIP3    H116794   5.161   5.633   3.856
 5596TIP3    H216795   5.073   5.709   3.952
 5597TIP3   OH216796   5.757   1.645   1.161
 5597TIP3    H116797   5.743   1.554   1.187
 5597TIP3    H216798   5.691   1.694   1.211
 5598TIP3   OH216799   4.258   4.292   2.603
 5598TIP3    H116800   4.179   4.260   2.560
 5598TIP3    H216801   4.276   4.227   2.671
 5599TIP3   OH216802   3.325   4.495   4.395
 5599TIP3    H116803   3.402   4.466   4.443
 5599TIP3    H216804   3.252   4.484   4.456
 5600TIP3   OH216805   1.826   1.504   0.458
 5600TIP3    H116806   1.789   1.592   0.460
 5600TIP3    H216807   1.891   1.503   0.528
 5601TIP3   OH216808   2.639   1.537   0.682
 5601TIP3    H116809   2.645   1.614   0.625
 5601TIP3    H216810   2.642   1.462   0.622
 5602TIP3   OH216811  -0.001   1.139   3.875
 5602TIP3    H116812  -0.047   1.196   3.812
 5602TIP3    H216813   0.079   1.113   3.829
 5603TIP3   OH216814   3.230   0.736   1.941
 5603TIP3    H116815   3.225   0.789   1.861
 5603TIP3    H216816   3.170   0.663   1.926
 5604TIP3   OH216817   5.957   1.381   1.496
 5604TIP3    H116818   5.981   1.367   1.588
 5604TIP3    H216819   5.988   1.303   1.451
 5605TIP3   OH216820   3.940   3.824   2.644
 5605TIP3    H116821   3.872   3.880   2.680
 5605TIP3    H216822   4.012   3.829   2.707
 5606TIP3   OH216823   5.776   2.969   4.490
 5606TIP3    H116824   5.744   3.056   4.512
 5606TIP3    H216825   5.745   2.914   4.562
 5607TIP3   OH216826   0.558   4.661   4.893
 5607TIP3    H116827   0.570   4.636   4.801
 5607TIP3    H216828   0.479   4.715   4.893
 5608TIP3   OH216829   1.320   0.789   2.988
 5608TIP3    H116830   1.346   0.878   2.967
 5608TIP3    H216831   1.347   0.737   2.913
 5609TIP3   OH216832   3.044   2.284   0.615
 5609TIP3    H116833   3.124   2.319   0.655
 5609TIP3    H216834   3.068   2.265   0.525
 5610TIP3   OH216835   4.211   1.251   4.210
 5610TIP3    H116836   4.138   1.198   4.180
 5610TIP3    H216837   4.225   1.224   4.301
 5611TIP3   OH216838   2.576   1.584   3.467
 5611TIP3    H116839   2.596   1.651   3.533
 5611TIP3    H216840   2.637   1.513   3.486
 5612TIP3   OH216841   3.784   5.638   4.464
 5612TIP3    H116842   3.816   5.595   4.543
 5612TIP3    H216843   3.720   5.702   4.495
 5613TIP3   OH216844   1.369   4.503   2.082
 5613TIP3    H116845   1.292   4.466   2.125
 5613TIP3    H216846   1.352   4.492   1.988
 5614TIP3   OH216847   1.129   3.779   4.000
 5614TIP3    H116848   1.064   3.709   3.998
 5614TIP3    H216849   1.166   3.776   4.088
 5615TIP3   OH216850   0.344   0.382   3.930
 5615TIP3    H116851   0.267   0.375   3.874
 5615TIP3    H216852   0.412   0.418   3.872
 5616TIP3   OH216853   5.257   0.820   0.963
 5616TIP3    H116854   5.311   0.853   1.035
 5616TIP3    H216855   5.172   0.863   0.975
 5617TIP3   OH216856   1.635   4.864   0.612
 5617TIP3    H116857   1.690   4.855   0.534
 5617TIP3    H216858   1.642   4.956   0.637
 5618TIP3   OH216859   4.423   2.871   4.109
 5618TIP3    H116860   4.490   2.913   4.163
 5618TIP3    H216861   4.455   2.879   4.019
 5619TIP3   OH216862   2.701   0.418   2.715
 5619TIP3    H116863   2.753   0.369   2.780
 5619TIP3    H216864   2.613   0.381   2.723
 5620TIP3   OH216865   0.913   2.613   1.015
 5620TIP3    H116866   0.970   2.685   0.988
 5620TIP3    H216867   0.904   2.559   0.936
 5621TIP3   OH216868   0.714   1.457   4.507
 5621TIP3    H116869   0.661   1.410   4.443
 5621TIP3    H216870   0.717   1.547   4.474
 5622TIP3   OH216871   5.131   0.184   1.393
 5622TIP3    H116872   5.103   0.214   1.479
 5622TIP3    H216873   5.115   0.089   1.394
 5623TIP3   OH216874   0.554   4.455   3.321
 5623TIP3    H116875   0.576   4.492   3.235
 5623TIP3    H216876   0.625   4.394   3.340
 5624TIP3   OH216877   4.777   1.983   3.248
 5624TIP3    H116878   4.759   1.903   3.297
 5624TIP3    H216879   4.691   2.023   3.235
 5625TIP3   OH216880   2.100   1.661   1.271
 5625TIP3    H116881   2.054   1.675   1.189
 5625TIP3    H216882   2.184   1.707   1.260
 5626TIP3   OH216883   3.379   4.150   4.770
 5626TIP3    H116884   3.285   4.142   4.786
 5626TIP3    H216885   3.386   4.172   4.677
 5627TIP3   OH216886   4.492   0.964   2.945
 5627TIP3    H116887   4.586   0.981   2.938
 5627TIP3    H216888   4.471   0.984   3.037
 5628TIP3   OH216889   4.356   1.597   1.817
 5628TIP3    H116890   4.326   1.687   1.813
 5628TIP3    H216891   4.335   1.568   1.906
 5629TIP3   OH216892   0.713   1.450   5.018
 5629TIP3    H116893   0.789   1.482   5.067
 5629TIP3    H216894   0.641   1.454   5.081
 5630TIP3   OH216895   2.384   0.140   3.885
 5630TIP3    H116896   2.446   0.186   3.942
 5630TIP3    H216897   2.431   0.127   3.803
 5631TIP3   OH216898   2.257   2.364   4.628
 5631TIP3    H116899   2.232   2.272   4.637
 5631TIP3    H216900   2.175   2.412   4.628
 5632TIP3   OH216901   5.530   2.388   5.025
 5632TIP3    H116902   5.529   2.445   4.948
 5632TIP3    H216903   5.444   2.398   5.064
 5633TIP3   OH216904   2.315   1.094   1.196
 5633TIP3    H116905   2.323   1.185   1.224
 5633TIP3    H216906   2.229   1.067   1.228
 5634TIP3   OH216907   3.278   1.723   4.754
 5634TIP3    H116908   3.281   1.778   4.832
 5634TIP3    H216909   3.273   1.786   4.681
 5635TIP3   OH216910   1.045   1.529   3.387
 5635TIP3    H116911   0.996   1.496   3.312
 5635TIP3    H216912   1.137   1.520   3.362
 5636TIP3   OH216913   1.526   5.372   4.228
 5636TIP3    H116914   1.504   5.298   4.172
 5636TIP3    H216915   1.452   5.433   4.216
 5637TIP3   OH216916   4.016   0.137   1.163
 5637TIP3    H116917   3.991   0.091   1.243
 5637TIP3    H216918   3.946   0.118   1.101
 5638TIP3   OH216919   1.240   4.173   1.942
 5638TIP3    H116920   1.245   4.128   1.857
 5638TIP3    H216921   1.262   4.264   1.921
 5639TIP3   OH216922   5.120   4.499   4.267
 5639TIP3    H116923   5.076   4.576   4.301
 5639TIP3    H216924   5.174   4.531   4.195
 5640TIP3   OH216925   6.059   2.881   2.434
 5640TIP3    H116926   5.985   2.905   2.489
 5640TIP3    H216927   6.031   2.905   2.345
 5641TIP3   OH216928   5.226   4.415   0.852
 5641TIP3    H116929   5.246   4.448   0.940
 5641TIP3    H216930   5.279   4.336   0.845
 5642TIP3   OH216931   5.910   0.570   1.195
 5642TIP3    H116932   5.982   0.610   1.145
 5642TIP3    H216933   5.857   0.644   1.224
 5643TIP3   OH216934   2.450   5.050   0.495
 5643TIP3    H116935   2.411   5.008   0.419
 5643TIP3    H216936   2.532   5.002   0.510
 5644TIP3   OH216937   3.999   0.507   4.559
 5644TIP3    H116938   3.995   0.455   4.639
 5644TIP3    H216939   4.037   0.591   4.586
 5645TIP3   OH216940   0.195   1.189   3.346
 5645TIP3    H116941   0.260   1.257   3.363
 5645TIP3    H216942   0.216   1.157   3.258
 5646TIP3   OH216943   0.275   5.919   1.423
 5646TIP3    H116944   0.213   5.985   1.454
 5646TIP3    H216945   0.350   5.970   1.391
 5647TIP3   OH216946   0.249   5.112   5.073
 5647TIP3    H116947   0.337   5.141   5.096
 5647TIP3    H216948   0.260   5.066   4.990
 5648TIP3   OH216949   0.578   1.659   4.016
 5648TIP3    H116950   0.544   1.656   3.927
 5648TIP3    H216951   0.590   1.567   4.040
 5649TIP3   OH216952   3.787   0.782   1.157
 5649TIP3    H116953   3.876   0.817   1.160
 5649TIP3    H216954   3.779   0.731   1.238
 5650TIP3   OH216955   0.257   1.039   4.348
 5650TIP3    H116956   0.248   1.125   4.388
 5650TIP3    H216957   0.181   0.990   4.380
 5651TIP3   OH216958   3.509   2.938   2.323
 5651TIP3    H116959   3.588   2.939   2.377
 5651TIP3    H216960   3.499   2.846   2.297
 5652TIP3   OH216961   0.441   4.429   4.008
 5652TIP3    H116962   0.406   4.501   3.955
 5652TIP3    H216963   0.380   4.422   4.082
 5653TIP3   OH216964   5.186   5.552   2.603
 5653TIP3    H116965   5.165   5.573   2.694
 5653TIP3    H216966   5.281   5.561   2.598
 5654TIP3   OH216967   5.503   5.013   2.647
 5654TIP3    H116968   5.452   4.933   2.651
 5654TIP3    H216969   5.459   5.067   2.582
 5655TIP3   OH216970   2.206   4.251   1.126
 5655TIP3    H116971   2.253   4.210   1.198
 5655TIP3    H216972   2.273   4.294   1.073
 5656TIP3   OH216973   5.878   5.082   2.454
 5656TIP3    H116974   5.966   5.045   2.462
 5656TIP3    H216975   5.833   5.022   2.395
 5657TIP3   OH216976   5.585   2.631   0.021
 5657TIP3    H116977   5.607   2.702   0.081
 5657TIP3    H216978   5.597   2.551   0.072
 5658TIP3   OH216979   3.651   1.506   3.813
 5658TIP3    H116980   3.624   1.589   3.851
 5658TIP3    H216981   3.743   1.497   3.839
 5659TIP3   OH216982   3.151   3.186   2.067
 5659TIP3    H116983   3.157   3.260   2.007
 5659TIP3    H216984   3.235   3.141   2.058
 5660TIP3   OH216985   2.978   4.036   4.211
 5660TIP3    H116986   3.060   4.083   4.222
 5660TIP3    H216987   2.986   3.993   4.126
 5661TIP3   OH216988   2.421   5.347   4.470
 5661TIP3    H116989   2.360   5.371   4.400
 5661TIP3    H216990   2.380   5.382   4.550
 5662TIP3   OH216991   3.890   1.955   1.790
 5662TIP3    H116992   3.837   2.013   1.736
 5662TIP3    H216993   3.920   2.011   1.862
 5663TIP3   OH216994   0.730   2.266   1.651
 5663TIP3    H116995   0.713   2.178   1.618
 5663TIP3    H216996   0.804   2.255   1.711
 5664TIP3   OH216997   0.884   1.442   4.805
 5664TIP3    H116998   0.830   1.491   4.743
 5664TIP3    H216999   0.835   1.446   4.888
 5665TIP3   OH217000   0.193   4.568   0.411
 5665TIP3    H117001   0.170   4.653   0.374
 5665TIP3    H217002   0.110   4.531   0.440
 5666TIP3   OH217003   0.588   0.181   0.729
 5666TIP3    H117004   0.662   0.215   0.679
 5666TIP3    H217005   0.550   0.258   0.771
 5667TIP3   OH217006   1.591   4.179   2.351
 5667TIP3    H117007   1.678   4.169   2.391
 5667TIP3    H217008   1.604   4.243   2.282
 5668TIP3   OH217009   2.359   4.304   0.892
 5668TIP3    H117010   2.381   4.380   0.837
 5668TIP3    H217011   2.440   4.253   0.895
 5669TIP3   OH217012   2.183   2.551   1.285
 5669TIP3    H117013   2.264   2.528   1.332
 5669TIP3    H217014   2.154   2.632   1.326
 5670TIP3   OH217015   2.070   4.355   3.294
 5670TIP3    H117016   2.003   4.419   3.318
 5670TIP3    H217017   2.059   4.344   3.199
 5671TIP3   OH217018   5.080   2.820   4.659
 5671TIP3    H117019   5.132   2.848   4.735
 5671TIP3    H217020   5.016   2.759   4.695
 5672TIP3   OH217021   4.438   2.124   5.132
 5672TIP3    H117022   4.407   2.042   5.170
 5672TIP3    H217023   4.412   2.119   5.040
 5673TIP3   OH217024   1.869   1.879   5.122
 5673TIP3    H117025   1.949   1.892   5.172
 5673TIP3    H217026   1.799   1.913   5.178
 5674TIP3   OH217027   2.767   1.161   4.648
 5674TIP3    H117028   2.810   1.109   4.580
 5674TIP3    H217029   2.730   1.236   4.602
 5675TIP3   OH217030   5.514   2.446   3.677
 5675TIP3    H117031   5.581   2.475   3.614
 5675TIP3    H217032   5.485   2.526   3.720
 5676TIP3   OH217033   1.626   5.340   3.580
 5676TIP3    H117034   1.634   5.312   3.489
 5676TIP3    H217035   1.622   5.259   3.631
 5677TIP3   OH217036   4.409   3.498   0.971
 5677TIP3    H117037   4.334   3.496   1.030
 5677TIP3    H217038   4.371   3.510   0.884
 5678TIP3   OH217039   6.238   4.145   0.265
 5678TIP3    H117040   6.292   4.108   0.336
 5678TIP3    H217041   6.302   4.171   0.198
 5679TIP3   OH217042   2.147   3.839   3.526
 5679TIP3    H117043   2.081   3.771   3.515
 5679TIP3    H217044   2.109   3.917   3.486
 5680TIP3   OH217045   1.824   2.257   3.553
 5680TIP3    H117046   1.817   2.352   3.545
 5680TIP3    H217047   1.744   2.225   3.511
 5681TIP3   OH217048   5.145   1.087   0.254
 5681TIP3    H117049   5.192   1.163   0.218
 5681TIP3    H217050   5.055   1.119   0.267
 5682TIP3   OH217051   5.014   4.186   4.794
 5682TIP3    H117052   4.938   4.210   4.848
 5682TIP3    H217053   5.070   4.264   4.797
 5683TIP3   OH217054   0.276   1.338   0.365
 5683TIP3    H117055   0.194   1.357   0.411
 5683TIP3    H217056   0.267   1.247   0.337
 5684TIP3   OH217057   3.130   5.594   3.177
 5684TIP3    H117058   3.095   5.659   3.116
 5684TIP3    H217059   3.146   5.642   3.258
 5685TIP3   OH217060   2.784   2.282   0.238
 5685TIP3    H117061   2.785   2.295   0.333
 5685TIP3    H217062   2.818   2.194   0.225
 5686TIP3   OH217063   5.286   1.709   3.053
 5686TIP3    H117064   5.365   1.723   3.106
 5686TIP3    H217065   5.314   1.726   2.963
 5687TIP3   OH217066   4.350   4.867   0.677
 5687TIP3    H117067   4.341   4.906   0.590
 5687TIP3    H217068   4.260   4.852   0.706
 5688TIP3   OH217069   0.763   0.600   4.788
 5688TIP3    H117070   0.766   0.666   4.719
 5688TIP3    H217071   0.804   0.642   4.863
 5689TIP3   OH217072   2.379   3.678   3.508
 5689TIP3    H117073   2.313   3.746   3.524
 5689TIP3    H217074   2.460   3.717   3.540
 5690TIP3   OH217075   0.743   5.889   3.714
 5690TIP3    H117076   0.663   5.885   3.767
 5690TIP3    H217077   0.812   5.861   3.774
 5691TIP3   OH217078   3.684   2.319   4.233
 5691TIP3    H117079   3.610   2.362   4.189
 5691TIP3    H217080   3.762   2.362   4.195
 5692TIP3   OH217081   0.429   0.715   0.774
 5692TIP3    H117082   0.512   0.672   0.791
 5692TIP3    H217083   0.393   0.670   0.697
 5693TIP3   OH217084   1.858   4.361   1.729
 5693TIP3    H117085   1.796   4.289   1.741
 5693TIP3    H217086   1.943   4.319   1.720
 5694TIP3   OH217087   3.904   2.061   4.662
 5694TIP3    H117088   3.913   2.056   4.567
 5694TIP3    H217089   3.972   2.122   4.690
 5695TIP3   OH217090   6.161   4.564   1.212
 5695TIP3    H117091   6.081   4.544   1.163
 5695TIP3    H217092   6.199   4.479   1.233
 5696TIP3   OH217093   2.166   3.521   1.176
 5696TIP3    H117094   2.131   3.590   1.232
 5696TIP3    H217095   2.260   3.520   1.195
 5697TIP3   OH217096   5.189   3.268   0.053
 5697TIP3    H117097   5.159   3.346   0.098
 5697TIP3    H217098   5.247   3.300  -0.016
 5698TIP3   OH217099   1.906   0.277   3.986
 5698TIP3    H117100   1.915   0.247   3.896
 5698TIP3    H217101   1.995   0.302   4.012
 5699TIP3   OH217102   0.818   0.941   3.299
 5699TIP3    H117103   0.874   0.901   3.366
 5699TIP3    H217104   0.857   1.027   3.284
 5700TIP3   OH217105   2.962   2.977   4.799
 5700TIP3    H117106   3.038   2.939   4.755
 5700TIP3    H217107   2.993   2.998   4.887
 5701TIP3   OH217108   3.254   1.474   0.700
 5701TIP3    H117109   3.349   1.461   0.696
 5701TIP3    H217110   3.243   1.549   0.758
 5702TIP3   OH217111   1.300   3.462   2.028
 5702TIP3    H117112   1.247   3.456   1.949
 5702TIP3    H217113   1.247   3.512   2.090
 5703TIP3   OH217114   3.901   5.853   4.348
 5703TIP3    H117115   3.870   5.773   4.392
 5703TIP3    H217116   3.853   5.854   4.265
 5704TIP3   OH217117   5.279   0.710   5.001
 5704TIP3    H117118   5.219   0.776   5.036
 5704TIP3    H217119   5.260   0.631   5.052
 5705TIP3   OH217120   4.410   5.245   4.107
 5705TIP3    H117121   4.361   5.317   4.146
 5705TIP3    H217122   4.499   5.279   4.096
 5706TIP3   OH217123   6.368   0.494   0.039
 5706TIP3    H117124   6.283   0.527   0.067
 5706TIP3    H217125   6.400   0.560  -0.023
 5707TIP3   OH217126   0.840   0.241   3.439
 5707TIP3    H117127   0.908   0.191   3.484
 5707TIP3    H217128   0.866   0.240   3.347
 5708TIP3   OH217129   1.819   2.707   0.084
 5708TIP3    H117130   1.885   2.767   0.116
 5708TIP3    H217131   1.761   2.692   0.159
 5709TIP3   OH217132   4.280   1.243   2.197
 5709TIP3    H117133   4.224   1.165   2.195
 5709TIP3    H217134   4.369   1.208   2.198
 5710TIP3   OH217135   3.484   4.156   0.458
 5710TIP3    H117136   3.421   4.198   0.400
 5710TIP3    H217137   3.442   4.156   0.544
 5711TIP3   OH217138   0.456   3.191   3.957
 5711TIP3    H117139   0.483   3.188   4.049
 5711TIP3    H217140   0.366   3.161   3.957
 5712TIP3   OH217141   0.379   1.615   0.723
 5712TIP3    H117142   0.396   1.560   0.647
 5712TIP3    H217143   0.381   1.556   0.798
 5713TIP3   OH217144   2.171   0.879   4.175
 5713TIP3    H117145   2.194   0.795   4.213
 5713TIP3    H217146   2.222   0.884   4.094
 5714TIP3   OH217147   3.869   5.552   4.718
 5714TIP3    H117148   3.950   5.507   4.694
 5714TIP3    H217149   3.818   5.487   4.767
 5715TIP3   OH217150   2.648   0.813   2.608
 5715TIP3    H117151   2.688   0.900   2.610
 5715TIP3    H217152   2.568   0.825   2.557
 5716TIP3   OH217153   1.054   2.070   3.057
 5716TIP3    H117154   1.040   2.145   3.001
 5716TIP3    H217155   1.124   2.097   3.117
 5717TIP3   OH217156   2.022   0.880   1.928
 5717TIP3    H117157   2.037   0.965   1.887
 5717TIP3    H217158   2.025   0.817   1.856
 5718TIP3   OH217159   5.968   3.004   3.193
 5718TIP3    H117160   6.041   3.036   3.246
 5718TIP3    H217161   5.991   2.914   3.170
 5719TIP3   OH217162   5.759   5.035   0.183
 5719TIP3    H117163   5.737   5.122   0.149
 5719TIP3    H217164   5.741   4.975   0.111
 5720TIP3   OH217165   4.545   1.647   4.064
 5720TIP3    H117166   4.546   1.683   3.976
 5720TIP3    H217167   4.454   1.653   4.093
 5721TIP3   OH217168   6.274   1.957   2.921
 5721TIP3    H117169   6.221   2.030   2.890
 5721TIP3    H217170   6.210   1.887   2.939
 5722TIP3   OH217171   4.061   5.770   0.990
 5722TIP3    H117172   3.966   5.766   0.981
 5722TIP3    H217173   4.092   5.687   0.952
 5723TIP3   OH217174   4.659   1.451   4.729
 5723TIP3    H117175   4.575   1.464   4.771
 5723TIP3    H217176   4.714   1.412   4.797
 5724TIP3   OH217177   1.352   0.143   4.276
 5724TIP3    H117178   1.280   0.188   4.321
 5724TIP3    H217179   1.430   0.169   4.324
 5725TIP3   OH217180   4.770   2.045   4.454
 5725TIP3    H117181   4.682   2.007   4.451
 5725TIP3    H217182   4.801   2.041   4.363
 5726TIP3   OH217183   6.219   1.010   2.184
 5726TIP3    H117184   6.304   0.987   2.148
 5726TIP3    H217185   6.157   0.998   2.112
 5727TIP3   OH217186   5.556   5.811   0.385
 5727TIP3    H117187   5.635   5.858   0.361
 5727TIP3    H217188   5.551   5.738   0.322
 5728TIP3   OH217189   6.009   4.227   3.503
 5728TIP3    H117190   6.083   4.195   3.451
 5728TIP3    H217191   5.982   4.152   3.555
 5729TIP3   OH217192   3.215   5.463   4.983
 5729TIP3    H117193   3.130   5.478   5.023
 5729TIP3    H217194   3.199   5.396   4.917
 5730TIP3   OH217195   6.154   1.525   0.036
 5730TIP3    H117196   6.110   1.452   0.080
 5730TIP3    H217197   6.084   1.574  -0.006
 5731TIP3   OH217198   5.088   3.019   3.113
 5731TIP3    H117199   5.141   3.081   3.164
 5731TIP3    H217200   5.121   2.933   3.139
 5732TIP3   OH217201   1.347   3.019   4.656
 5732TIP3    H117202   1.372   2.929   4.673
 5732TIP3    H217203   1.263   3.030   4.702
 5733TIP3   OH217204   4.551   5.251   3.758
 5733TIP3    H117205   4.505   5.282   3.679
 5733TIP3    H217206   4.577   5.331   3.804
 5734TIP3   OH217207   5.023   4.756   4.309
 5734TIP3    H117208   5.066   4.840   4.324
 5734TIP3    H217209   4.982   4.736   4.393
 5735TIP3   OH217210   6.360   5.906   1.743
 5735TIP3    H117211   6.346   5.949   1.827
 5735TIP3    H217212   6.323   5.967   1.679
 5736TIP3   OH217213   4.537   3.248   5.152
 5736TIP3    H117214   4.582   3.328   5.177
 5736TIP3    H217215   4.497   3.268   5.067
 5737TIP3   OH217216   3.713   5.773   3.357
 5737TIP3    H117217   3.705   5.816   3.272
 5737TIP3    H217218   3.642   5.810   3.409
 5738TIP3   OH217219   0.858   2.566   0.743
 5738TIP3    H117220   0.857   2.660   0.725
 5738TIP3    H217221   0.770   2.536   0.718
 5739TIP3   OH217222   5.891   2.457   3.288
 5739TIP3    H117223   5.892   2.366   3.317
 5739TIP3    H217224   5.839   2.456   3.207
 5740TIP3   OH217225   4.291   5.189   2.015
 5740TIP3    H117226   4.349   5.216   1.945
 5740TIP3    H217227   4.348   5.176   2.091
 5741TIP3   OH217228   3.999   5.839   3.417
 5741TIP3    H117229   3.989   5.823   3.323
 5741TIP3    H217230   3.929   5.787   3.457
 5742TIP3   OH217231   5.381   5.419   3.475
 5742TIP3    H117232   5.439   5.354   3.436
 5742TIP3    H217233   5.423   5.503   3.455
 5743TIP3   OH217234   3.128   4.210   2.511
 5743TIP3    H117235   3.109   4.239   2.422
 5743TIP3    H217236   3.049   4.163   2.538
 5744TIP3   OH217237   0.886   4.547   3.558
 5744TIP3    H117238   0.875   4.469   3.504
 5744TIP3    H217239   0.952   4.523   3.623
 5745TIP3   OH217240   3.484   2.402   4.081
 5745TIP3    H117241   3.513   2.447   4.002
 5745TIP3    H217242   3.438   2.324   4.049
 5746TIP3   OH217243   4.754   1.208   2.776
 5746TIP3    H117244   4.761   1.294   2.736
 5746TIP3    H217245   4.724   1.151   2.705
 5747TIP3   OH217246   1.978   4.946   1.533
 5747TIP3    H117247   1.972   4.972   1.625
 5747TIP3    H217248   2.047   5.002   1.497
 5748TIP3   OH217249   2.865   0.659   2.521
 5748TIP3    H117250   2.793   0.666   2.584
 5748TIP3    H217251   2.869   0.566   2.499
 5749TIP3   OH217252   0.827   0.338   0.623
 5749TIP3    H117253   0.841   0.361   0.531
 5749TIP3    H217254   0.890   0.267   0.639
 5750TIP3   OH217255   1.334   2.483   4.594
 5750TIP3    H117256   1.338   2.476   4.689
 5750TIP3    H217257   1.420   2.451   4.564
 5751TIP3   OH217258   3.988   4.304   1.485
 5751TIP3    H117259   4.069   4.299   1.535
 5751TIP3    H217260   3.923   4.261   1.540
 5752TIP3   OH217261   2.568   3.675   0.465
 5752TIP3    H117262   2.632   3.633   0.406
 5752TIP3    H217263   2.613   3.753   0.497
 5753TIP3   OH217264   5.371   4.155   2.537
 5753TIP3    H117265   5.392   4.189   2.450
 5753TIP3    H217266   5.357   4.233   2.591
 5754TIP3   OH217267   2.974   3.620   0.981
 5754TIP3    H117268   3.038   3.632   0.910
 5754TIP3    H217269   3.003   3.540   1.025
 5755TIP3   OH217270   3.910   0.722   1.403
 5755TIP3    H117271   3.993   0.689   1.439
 5755TIP3    H217272   3.845   0.702   1.470
 5756TIP3   OH217273   4.124   4.520   2.799
 5756TIP3    H117274   4.148   4.441   2.750
 5756TIP3    H217275   4.070   4.570   2.738
 5757TIP3   OH217276   4.779   0.457   3.154
 5757TIP3    H117277   4.787   0.472   3.060
 5757TIP3    H217278   4.686   0.472   3.173
 5758TIP3   OH217279   4.522   2.004   1.403
 5758TIP3    H117280   4.605   2.036   1.368
 5758TIP3    H217281   4.519   1.911   1.378
 5759TIP3   OH217282   2.605   1.094   0.739
 5759TIP3    H117283   2.604   1.106   0.834
 5759TIP3    H217284   2.622   1.001   0.727
 5760TIP3   OH217285   3.590   5.074   0.240
 5760TIP3    H117286   3.616   5.151   0.289
 5760TIP3    H217287   3.515   5.039   0.288
 5761TIP3   OH217288   6.013   5.186   1.184
 5761TIP3    H117289   5.923   5.178   1.216
 5761TIP3    H217290   6.054   5.102   1.206
 5762TIP3   OH217291   1.391   2.044   2.181
 5762TIP3    H117292   1.339   1.964   2.189
 5762TIP3    H217293   1.473   2.024   2.226
 5763TIP3   OH217294   0.876   0.985   5.046
 5763TIP3    H117295   0.958   0.994   4.998
 5763TIP3    H217296   0.846   0.896   5.025
 5764TIP3   OH217297   3.968   4.576   1.444
 5764TIP3    H117298   4.041   4.622   1.485
 5764TIP3    H217299   3.971   4.488   1.481
 5765TIP3   OH217300   3.847   2.282   3.342
 5765TIP3    H117301   3.911   2.310   3.407
 5765TIP3    H217302   3.764   2.320   3.372
 5766TIP3   OH217303   1.305   5.506   1.793
 5766TIP3    H117304   1.307   5.434   1.856
 5766TIP3    H217305   1.394   5.508   1.756
 5767TIP3   OH217306   0.262   1.877   0.534
 5767TIP3    H117307   0.309   1.956   0.561
 5767TIP3    H217308   0.201   1.908   0.467
 5768TIP3   OH217309   1.970   0.807   4.929
 5768TIP3    H117310   1.912   0.808   4.853
 5768TIP3    H217311   1.918   0.768   4.999
 5769TIP3   OH217312   0.592   4.046   3.841
 5769TIP3    H117313   0.643   4.125   3.822
 5769TIP3    H217314   0.623   3.982   3.778
 5770TIP3   OH217315   2.211   4.560   1.278
 5770TIP3    H117316   2.295   4.551   1.233
 5770TIP3    H217317   2.235   4.587   1.367
 5771TIP3   OH217318   5.658   0.260   4.935
 5771TIP3    H117319   5.687   0.290   4.848
 5771TIP3    H217320   5.711   0.182   4.952
 5772TIP3   OH217321   3.005   2.633   2.658
 5772TIP3    H117322   3.052   2.606   2.737
 5772TIP3    H217323   2.994   2.552   2.608
 5773TIP3   OH217324   4.859   2.384   0.222
 5773TIP3    H117325   4.920   2.378   0.149
 5773TIP3    H217326   4.913   2.404   0.298
 5774TIP3   OH217327   4.047   0.871   1.172
 5774TIP3    H117328   4.040   0.778   1.190
 5774TIP3    H217329   4.103   0.876   1.094
 5775TIP3   OH217330   1.234   5.240   1.426
 5775TIP3    H117331   1.170   5.215   1.360
 5775TIP3    H217332   1.183   5.273   1.499
 5776TIP3   OH217333   3.508   2.112   3.733
 5776TIP3    H117334   3.431   2.103   3.676
 5776TIP3    H217335   3.472   2.106   3.822
 5777TIP3   OH217336   3.897   2.980   3.966
 5777TIP3    H117337   3.815   2.957   4.011
 5777TIP3    H217338   3.960   2.992   4.037
 5778TIP3   OH217339   2.470   5.364   2.128
 5778TIP3    H117340   2.384   5.332   2.099
 5778TIP3    H217341   2.451   5.444   2.176
 5779TIP3   OH217342   4.577   3.384   2.934
 5779TIP3    H117343   4.482   3.383   2.926
 5779TIP3    H217344   4.596   3.462   2.986
 5780TIP3   OH217345   5.956   2.225   0.543
 5780TIP3    H117346   5.927   2.255   0.629
 5780TIP3    H217347   5.991   2.303   0.501
 5781TIP3   OH217348   3.569   0.547   1.796
 5781TIP3    H117349   3.605   0.463   1.770
 5781TIP3    H217350   3.542   0.588   1.714
 5782TIP3   OH217351   0.744   2.501   3.056
 5782TIP3    H117352   0.789   2.476   3.137
 5782TIP3    H217353   0.797   2.571   3.019
 5783TIP3   OH217354   2.222   4.057   2.681
 5783TIP3    H117355   2.307   4.094   2.657
 5783TIP3    H217356   2.215   3.976   2.630
 5784TIP3   OH217357   3.486   2.826   0.536
 5784TIP3    H117358   3.545   2.751   0.518
 5784TIP3    H217359   3.495   2.881   0.458
 5785TIP3   OH217360   0.519   1.720   3.053
 5785TIP3    H117361   0.450   1.772   3.093
 5785TIP3    H217362   0.473   1.653   3.003
 5786TIP3   OH217363   5.119   4.810   3.251
 5786TIP3    H117364   5.030   4.822   3.218
 5786TIP3    H217365   5.134   4.887   3.306
 5787TIP3   OH217366   0.056   4.231   3.260
 5787TIP3    H117367   0.125   4.164   3.252
 5787TIP3    H217368   0.083   4.300   3.200
 5788TIP3   OH217369   1.320   5.199   2.532
 5788TIP3    H117370   1.300   5.143   2.457
 5788TIP3    H217371   1.320   5.288   2.497
 5789TIP3   OH217372   0.168   3.693   3.244
 5789TIP3    H117373   0.259   3.711   3.223
 5789TIP3    H217374   0.170   3.615   3.299
 5790TIP3   OH217375   5.278   3.632   3.789
 5790TIP3    H117376   5.206   3.673   3.740
 5790TIP3    H217377   5.292   3.549   3.744
 5791TIP3   OH217378   1.696   1.501   3.307
 5791TIP3    H117379   1.621   1.555   3.283
 5791TIP3    H217380   1.691   1.494   3.403
 5792TIP3   OH217381   1.407   0.703   4.583
 5792TIP3    H117382   1.400   0.765   4.510
 5792TIP3    H217383   1.404   0.617   4.541
 5793TIP3   OH217384   3.612   5.799   4.597
 5793TIP3    H117385   3.589   5.746   4.674
 5793TIP3    H217386   3.699   5.833   4.617
 5794TIP3   OH217387   2.151   5.760   3.618
 5794TIP3    H117388   2.069   5.807   3.628
 5794TIP3    H217389   2.206   5.790   3.690
 5795TIP3   OH217390   1.120   4.414   1.182
 5795TIP3    H117391   1.122   4.319   1.169
 5795TIP3    H217392   1.150   4.450   1.098
 5796TIP3   OH217393   4.321   1.861   1.844
 5796TIP3    H117394   4.231   1.859   1.876
 5796TIP3    H217395   4.345   1.954   1.848
 5797TIP3   OH217396   4.644   3.788   4.448
 5797TIP3    H117397   4.717   3.777   4.387
 5797TIP3    H217398   4.686   3.802   4.533
 5798TIP3   OH217399   1.184   1.724   0.237
 5798TIP3    H117400   1.144   1.638   0.228
 5798TIP3    H217401   1.168   1.766   0.153
 5799TIP3   OH217402   1.555   4.843   5.009
 5799TIP3    H117403   1.511   4.926   5.026
 5799TIP3    H217404   1.502   4.803   4.939
 5800TIP3   OH217405   5.988   5.724   3.903
 5800TIP3    H117406   5.981   5.691   3.813
 5800TIP3    H217407   5.999   5.818   3.894
 5801TIP3   OH217408   3.584   3.802   3.981
 5801TIP3    H117409   3.605   3.712   4.006
 5801TIP3    H217410   3.632   3.857   4.043
 5802TIP3   OH217411   3.080   3.550   3.040
 5802TIP3    H117412   3.164   3.594   3.051
 5802TIP3    H217413   3.058   3.562   2.947
 5803TIP3   OH217414   3.768   4.860   1.736
 5803TIP3    H117415   3.816   4.841   1.656
 5803TIP3    H217416   3.700   4.921   1.709
 5804TIP3   OH217417   4.395   3.081   3.189
 5804TIP3    H117418   4.442   3.162   3.205
 5804TIP3    H217419   4.449   3.013   3.230
 5805TIP3   OH217420   6.115   5.689   1.384
 5805TIP3    H117421   6.200   5.715   1.418
 5805TIP3    H217422   6.116   5.593   1.387
 5806TIP3   OH217423   5.643   1.566   0.917
 5806TIP3    H117424   5.645   1.574   0.822
 5806TIP3    H217425   5.674   1.650   0.950
 5807TIP3   OH217426   3.847   5.543   4.036
 5807TIP3    H117427   3.863   5.457   4.074
 5807TIP3    H217428   3.914   5.553   3.969
 5808TIP3   OH217429   5.924   5.473   4.346
 5808TIP3    H117430   5.952   5.526   4.271
 5808TIP3    H217431   5.882   5.396   4.307
 5809TIP3   OH217432   2.877   3.799   2.570
 5809TIP3    H117433   2.955   3.809   2.515
 5809TIP3    H217434   2.824   3.733   2.526
 5810TIP3   OH217435   0.227   2.077   1.341
 5810TIP3    H117436   0.198   1.990   1.366
 5810TIP3    H217437   0.227   2.127   1.423
 5811TIP3   OH217438   2.327   4.318   5.140
 5811TIP3    H117439   2.281   4.371   5.075
 5811TIP3    H217440   2.260   4.294   5.204
 5812TIP3   OH217441   1.402   3.492   2.726
 5812TIP3    H117442   1.412   3.480   2.632
 5812TIP3    H217443   1.478   3.545   2.751
 5813TIP3   OH217444   2.080   5.325   3.857
 5813TIP3    H117445   2.164   5.308   3.813
 5813TIP3    H217446   2.014   5.293   3.796
 5814TIP3   OH217447   2.821   3.210   0.890
 5814TIP3    H117448   2.795   3.291   0.935
 5814TIP3    H217449   2.846   3.238   0.802
 5815TIP3   OH217450   5.253   2.309   4.889
 5815TIP3    H117451   5.258   2.368   4.964
 5815TIP3    H217452   5.218   2.363   4.818
 5816TIP3   OH217453   2.524   4.910   2.052
 5816TIP3    H117454   2.455   4.877   2.110
 5816TIP3    H217455   2.478   4.971   1.993
 5817TIP3   OH217456   3.694   5.658   1.250
 5817TIP3    H117457   3.635   5.721   1.291
 5817TIP3    H217458   3.780   5.701   1.254
 5818TIP3   OH217459   1.119   5.494   5.053
 5818TIP3    H117460   1.108   5.545   4.973
 5818TIP3    H217461   1.195   5.533   5.096
 5819TIP3   OH217462   3.804   4.189   1.642
 5819TIP3    H117463   3.720   4.155   1.613
 5819TIP3    H217464   3.782   4.254   1.709
 5820TIP3   OH217465   1.529   0.598   2.494
 5820TIP3    H117466   1.553   0.532   2.429
 5820TIP3    H217467   1.486   0.667   2.444
 5821TIP3   OH217468   0.100   1.581   0.510
 5821TIP3    H117469   0.098   1.645   0.440
 5821TIP3    H217470   0.014   1.538   0.506
 5822TIP3   OH217471   3.898   3.889   3.418
 5822TIP3    H117472   3.964   3.878   3.350
 5822TIP3    H217473   3.930   3.962   3.471
 5823TIP3   OH217474   1.960   1.716   1.839
 5823TIP3    H117475   1.933   1.789   1.895
 5823TIP3    H217476   1.899   1.719   1.766
 5824TIP3   OH217477   4.604   4.390   3.898
 5824TIP3    H117478   4.609   4.352   3.810
 5824TIP3    H217479   4.536   4.458   3.891
 5825TIP3   OH217480   5.419   1.128   1.028
 5825TIP3    H117481   5.323   1.135   1.026
 5825TIP3    H217482   5.444   1.175   1.108
 5826TIP3   OH217483   4.927   0.873   4.913
 5826TIP3    H117484   4.842   0.899   4.950
 5826TIP3    H217485   4.987   0.876   4.988
 5827TIP3   OH217486   1.077   5.144   3.184
 5827TIP3    H117487   1.078   5.213   3.250
 5827TIP3    H217488   1.047   5.188   3.104
 5828TIP3   OH217489   2.768   1.978   2.325
 5828TIP3    H117490   2.721   1.915   2.380
 5828TIP3    H217491   2.741   1.957   2.236
 5829TIP3   OH217492   2.768   2.103   1.793
 5829TIP3    H117493   2.741   2.168   1.858
 5829TIP3    H217494   2.812   2.154   1.725
 5830TIP3   OH217495   4.329   5.087   3.877
 5830TIP3    H117496   4.411   5.116   3.838
 5830TIP3    H217497   4.330   5.123   3.965
 5831TIP3   OH217498   4.291   1.025   5.113
 5831TIP3    H117499   4.267   1.110   5.150
 5831TIP3    H217500   4.332   0.978   5.185
 5832TIP3   OH217501   5.723   0.934   3.160
 5832TIP3    H117502   5.659   0.999   3.191
 5832TIP3    H217503   5.800   0.949   3.215
 5833TIP3   OH217504   5.768   4.385   0.350
 5833TIP3    H117505   5.731   4.299   0.370
 5833TIP3    H217506   5.701   4.447   0.380
 5834TIP3   OH217507   5.842   4.865   4.883
 5834TIP3    H117508   5.914   4.901   4.831
 5834TIP3    H217509   5.772   4.849   4.820
 5835TIP3   OH217510   6.255   0.321   3.131
 5835TIP3    H117511   6.262   0.257   3.202
 5835TIP3    H217512   6.246   0.269   3.052
 5836TIP3   OH217513   2.160   4.422   4.262
 5836TIP3    H117514   2.215   4.491   4.296
 5836TIP3    H217515   2.210   4.384   4.190
 5837TIP3   OH217516   3.287   3.240   3.151
 5837TIP3    H117517   3.269   3.276   3.064
 5837TIP3    H217518   3.291   3.145   3.138
 5838TIP3   OH217519   5.265   2.955   2.326
 5838TIP3    H117520   5.203   3.028   2.326
 5838TIP3    H217521   5.211   2.878   2.345
 5839TIP3   OH217522   5.779   5.651   2.185
 5839TIP3    H117523   5.813   5.720   2.242
 5839TIP3    H217524   5.711   5.694   2.133
 5840TIP3   OH217525   0.834   0.702   1.673
 5840TIP3    H117526   0.910   0.710   1.730
 5840TIP3    H217527   0.805   0.792   1.658
 5841TIP3   OH217528   4.127   4.163   0.347
 5841TIP3    H117529   4.167   4.249   0.358
 5841TIP3    H217530   4.200   4.101   0.359
 5842TIP3   OH217531   3.292   3.133   1.611
 5842TIP3    H117532   3.219   3.193   1.628
 5842TIP3    H217533   3.344   3.177   1.543
 5843TIP3   OH217534   0.452   1.262   0.116
 5843TIP3    H117535   0.502   1.227   0.041
 5843TIP3    H217536   0.374   1.301   0.076
 5844TIP3   OH217537   4.007   1.075   2.192
 5844TIP3    H117538   4.012   1.046   2.101
 5844TIP3    H217539   4.008   0.994   2.243
 5845TIP3   OH217540   3.380   5.618   0.109
 5845TIP3    H117541   3.403   5.635   0.200
 5845TIP3    H217542   3.291   5.653   0.100
 5846TIP3   OH217543   2.162   0.346   4.079
 5846TIP3    H117544   2.227   0.282   4.110
 5846TIP3    H217545   2.193   0.372   3.992
 5847TIP3   OH217546   3.382   3.835   4.568
 5847TIP3    H117547   3.292   3.834   4.535
 5847TIP3    H217548   3.435   3.800   4.495
 5848TIP3   OH217549   5.590   3.132   2.176
 5848TIP3    H117550   5.607   3.113   2.269
 5848TIP3    H217551   5.510   3.184   2.176
 5849TIP3   OH217552   1.365   5.515   4.066
 5849TIP3    H117553   1.291   5.576   4.069
 5849TIP3    H217554   1.414   5.541   3.988
 5850TIP3   OH217555   3.835   5.601   5.022
 5850TIP3    H117556   3.876   5.640   5.099
 5850TIP3    H217557   3.816   5.511   5.048
 5851TIP3   OH217558   4.684   2.140   0.201
 5851TIP3    H117559   4.751   2.200   0.234
 5851TIP3    H217560   4.697   2.138   0.106
 5852TIP3   OH217561   2.312   4.509   3.113
 5852TIP3    H117562   2.270   4.430   3.146
 5852TIP3    H217563   2.358   4.481   3.034
 5853TIP3   OH217564   1.489   5.570   3.502
 5853TIP3    H117565   1.528   5.625   3.570
 5853TIP3    H217566   1.518   5.481   3.522
 5854TIP3   OH217567   1.645   4.033   3.412
 5854TIP3    H117568   1.639   3.968   3.342
 5854TIP3    H217569   1.660   4.116   3.367
 5855TIP3   OH217570   0.260   1.114   3.747
 5855TIP3    H117571   0.274   1.106   3.841
 5855TIP3    H217572   0.291   1.031   3.711
 5856TIP3   OH217573   2.667   4.006   3.866
 5856TIP3    H117574   2.620   4.022   3.948
 5856TIP3    H217575   2.751   3.970   3.893
 5857TIP3   OH217576   1.054   2.194   1.234
 5857TIP3    H117577   1.101   2.215   1.315
 5857TIP3    H217578   0.975   2.148   1.264
 5858TIP3   OH217579   3.502   1.933   2.478
 5858TIP3    H117580   3.451   1.973   2.549
 5858TIP3    H217581   3.445   1.940   2.401
 5859TIP3   OH217582   1.237   2.993   0.168
 5859TIP3    H117583   1.327   3.025   0.162
 5859TIP3    H217584   1.212   2.972   0.078
 5860TIP3   OH217585   6.290   0.557   1.351
 5860TIP3    H117586   6.240   0.585   1.275
 5860TIP3    H217587   6.362   0.505   1.314
 5861TIP3   OH217588   5.281   1.954   0.632
 5861TIP3    H117589   5.250   1.867   0.656
 5861TIP3    H217590   5.375   1.945   0.625
 5862TIP3   OH217591   3.012   1.558   4.065
 5862TIP3    H117592   3.051   1.484   4.019
 5862TIP3    H217593   3.037   1.635   4.014
 5863TIP3   OH217594   6.359   0.518   2.314
 5863TIP3    H117595   6.314   0.558   2.388
 5863TIP3    H217596   6.387   0.592   2.260
 5864TIP3   OH217597   0.340   4.430   2.822
 5864TIP3    H117598   0.266   4.423   2.762
 5864TIP3    H217599   0.300   4.436   2.909
 5865TIP3   OH217600   5.147   3.765   4.519
 5865TIP3    H117601   5.226   3.757   4.572
 5865TIP3    H217602   5.148   3.855   4.488
 5866TIP3   OH217603   2.853   5.218   1.968
 5866TIP3    H117604   2.803   5.300   1.972
 5866TIP3    H217605   2.845   5.189   1.877
 5867TIP3   OH217606   2.197   2.949   0.820
 5867TIP3    H117607   2.142   2.926   0.745
 5867TIP3    H217608   2.214   2.866   0.864
 5868TIP3   OH217609   0.383   3.545   3.695
 5868TIP3    H117610   0.350   3.589   3.773
 5868TIP3    H217611   0.406   3.616   3.635
 5869TIP3   OH217612   6.183   0.598   3.102
 5869TIP3    H117613   6.220   0.616   3.188
 5869TIP3    H217614   6.194   0.504   3.091
 5870TIP3   OH217615   4.895   5.283   2.565
 5870TIP3    H117616   4.907   5.359   2.622
 5870TIP3    H217617   4.843   5.222   2.617
 5871TIP3   OH217618   1.721   3.874   2.636
 5871TIP3    H117619   1.762   3.947   2.589
 5871TIP3    H217620   1.769   3.870   2.719
 5872TIP3   OH217621   2.350   5.582   2.261
 5872TIP3    H117622   2.381   5.657   2.210
 5872TIP3    H217623   2.333   5.618   2.348
 5873TIP3   OH217624   6.217   5.351   0.610
 5873TIP3    H117625   6.191   5.283   0.672
 5873TIP3    H217626   6.270   5.305   0.545
 5874TIP3   OH217627   3.357   0.978   2.066
 5874TIP3    H117628   3.271   1.019   2.064
 5874TIP3    H217629   3.341   0.888   2.039
 5875TIP3   OH217630   0.082   0.359   3.860
 5875TIP3    H117631   0.021   0.379   3.789
 5875TIP3    H217632   0.026   0.348   3.937
 5876TIP3   OH217633   6.083   5.121   1.602
 5876TIP3    H117634   6.097   5.209   1.639
 5876TIP3    H217635   6.169   5.095   1.569
 5877TIP3   OH217636   2.899   4.816   2.900
 5877TIP3    H117637   2.921   4.836   2.809
 5877TIP3    H217638   2.878   4.722   2.899
 5878TIP3   OH217639   4.697   3.258   4.126
 5878TIP3    H117640   4.635   3.213   4.069
 5878TIP3    H217641   4.666   3.349   4.128
 5879TIP3   OH217642   3.746   2.538   0.951
 5879TIP3    H117643   3.728   2.630   0.936
 5879TIP3    H217644   3.763   2.502   0.864
 5880TIP3   OH217645   4.535   2.061   3.790
 5880TIP3    H117646   4.592   2.093   3.720
 5880TIP3    H217647   4.494   2.141   3.826
 5881TIP3   OH217648   5.609   5.978   0.966
 5881TIP3    H117649   5.588   5.943   1.053
 5881TIP3    H217650   5.691   5.934   0.942
 5882TIP3   OH217651   4.801   0.013   2.116
 5882TIP3    H117652   4.793   0.021   2.211
 5882TIP3    H217653   4.747   0.086   2.083
 5883TIP3   OH217654   2.286   2.143   0.670
 5883TIP3    H117655   2.204   2.176   0.706
 5883TIP3    H217656   2.339   2.122   0.747
 5884TIP3   OH217657   2.077   3.342   0.966
 5884TIP3    H117658   2.085   3.424   1.015
 5884TIP3    H217659   2.165   3.328   0.929
 5885TIP3   OH217660   5.879   5.049   2.924
 5885TIP3    H117661   5.900   4.995   2.848
 5885TIP3    H217662   5.958   5.047   2.978
 5886TIP3   OH217663   6.009   1.007   1.146
 5886TIP3    H117664   6.055   1.066   1.206
 5886TIP3    H217665   5.968   1.064   1.082
 5887TIP3   OH217666   2.187   2.715   4.017
 5887TIP3    H117667   2.224   2.803   4.015
 5887TIP3    H217668   2.129   2.715   4.094
 5888TIP3   OH217669   5.188   4.409   4.783
 5888TIP3    H117670   5.172   4.467   4.858
 5888TIP3    H217671   5.183   4.467   4.707
 5889TIP3   OH217672   5.566   1.276   1.884
 5889TIP3    H117673   5.616   1.357   1.881
 5889TIP3    H217674   5.625   1.210   1.847
 5890TIP3   OH217675   3.609   3.582   2.504
 5890TIP3    H117676   3.592   3.631   2.424
 5890TIP3    H217677   3.627   3.493   2.474
 5891TIP3   OH217678   4.589   2.670   3.441
 5891TIP3    H117679   4.544   2.607   3.497
 5891TIP3    H217680   4.613   2.742   3.500
 5892TIP3   OH217681   2.871   4.265   1.689
 5892TIP3    H117682   2.799   4.318   1.724
 5892TIP3    H217683   2.900   4.212   1.764
 5893TIP3   OH217684   5.725   2.575   3.540
 5893TIP3    H117685   5.754   2.537   3.457
 5893TIP3    H217686   5.805   2.581   3.592
 5894TIP3   OH217687   5.493   1.264   4.572
 5894TIP3    H117688   5.566   1.247   4.513
 5894TIP3    H217689   5.441   1.331   4.528
 5895TIP3   OH217690   3.106   4.919   4.268
 5895TIP3    H117691   3.042   4.878   4.326
 5895TIP3    H217692   3.062   4.928   4.184
 5896TIP3   OH217693   5.528   3.073   1.239
 5896TIP3    H117694   5.469   3.142   1.209
 5896TIP3    H217695   5.515   3.002   1.176
 5897TIP3   OH217696   2.181   1.314   0.969
 5897TIP3    H117697   2.266   1.299   0.928
 5897TIP3    H217698   2.201   1.342   1.058
 5898TIP3   OH217699   5.121   5.525   1.824
 5898TIP3    H117700   5.123   5.610   1.780
 5898TIP3    H217701   5.147   5.463   1.756
 5899TIP3   OH217702   1.702   3.834   1.341
 5899TIP3    H117703   1.685   3.905   1.403
 5899TIP3    H217704   1.624   3.831   1.286
 5900TIP3   OH217705   5.234   3.254   4.287
 5900TIP3    H117706   5.155   3.257   4.235
 5900TIP3    H217707   5.289   3.324   4.253
 5901TIP3   OH217708   1.114   3.028   3.577
 5901TIP3    H117709   1.038   2.977   3.607
 5901TIP3    H217710   1.109   3.110   3.625
 5902TIP3   OH217711   1.033   1.760   2.072
 5902TIP3    H117712   0.960   1.739   2.129
 5902TIP3    H217713   1.108   1.771   2.131
 5903TIP3   OH217714   4.552   0.167   3.588
 5903TIP3    H117715   4.476   0.205   3.544
 5903TIP3    H217716   4.624   0.225   3.564
 5904TIP3   OH217717   5.644   0.324   2.658
 5904TIP3    H117718   5.561   0.290   2.692
 5904TIP3    H217719   5.644   0.416   2.684
 5905TIP3   OH217720   4.799   5.632   4.274
 5905TIP3    H117721   4.788   5.593   4.360
 5905TIP3    H217722   4.892   5.623   4.255
 5906TIP3   OH217723   1.945   3.847   1.017
 5906TIP3    H117724   1.941   3.890   0.932
 5906TIP3    H217725   1.969   3.917   1.078
 5907TIP3   OH217726   2.660   4.704   0.893
 5907TIP3    H117727   2.739   4.687   0.842
 5907TIP3    H217728   2.603   4.629   0.877
 5908TIP3   OH217729   1.654   0.311   0.034
 5908TIP3    H117730   1.672   0.322   0.128
 5908TIP3    H217731   1.588   0.242   0.031
 5909TIP3   OH217732   2.069   1.156   0.329
 5909TIP3    H117733   2.104   1.106   0.255
 5909TIP3    H217734   2.079   1.097   0.404
 5910TIP3   OH217735   3.798   3.769   0.441
 5910TIP3    H117736   3.835   3.712   0.508
 5910TIP3    H217737   3.838   3.854   0.457
 5911TIP3   OH217738   3.287   2.081   2.673
 5911TIP3    H117739   3.279   2.099   2.767
 5911TIP3    H217740   3.198   2.060   2.645
 5912TIP3   OH217741   0.174   2.918   1.932
 5912TIP3    H117742   0.087   2.913   1.972
 5912TIP3    H217743   0.174   2.849   1.866
 5913TIP3   OH217744   3.945   5.383   2.472
 5913TIP3    H117745   4.006   5.370   2.400
 5913TIP3    H217746   3.863   5.408   2.430
 5914TIP3   OH217747   4.215   2.725   1.432
 5914TIP3    H117748   4.289   2.779   1.460
 5914TIP3    H217749   4.231   2.639   1.471
 5915TIP3   OH217750   4.885   2.261   4.943
 5915TIP3    H117751   4.866   2.167   4.941
 5915TIP3    H217752   4.915   2.277   5.033
 5916TIP3   OH217753   3.377   3.474   2.112
 5916TIP3    H117754   3.386   3.455   2.205
 5916TIP3    H217755   3.351   3.566   2.109
 5917TIP3   OH217756   1.122   5.356   1.651
 5917TIP3    H117757   1.173   5.430   1.683
 5917TIP3    H217758   1.064   5.332   1.723
 5918TIP3   OH217759   2.757   4.042   2.940
 5918TIP3    H117760   2.696   4.043   3.014
 5918TIP3    H217761   2.701   4.050   2.863
 5919TIP3   OH217762   2.002   1.492   4.767
 5919TIP3    H117763   1.953   1.457   4.693
 5919TIP3    H217764   1.973   1.583   4.774
 5920TIP3   OH217765   6.128   4.960   3.500
 5920TIP3    H117766   6.219   4.985   3.516
 5920TIP3    H217767   6.078   5.039   3.519
 5921TIP3   OH217768   0.061   5.209   0.486
 5921TIP3    H117769   0.064   5.205   0.391
 5921TIP3    H217770   0.072   5.119   0.515
 5922TIP3   OH217771   4.298   1.269   2.651
 5922TIP3    H117772   4.204   1.289   2.653
 5922TIP3    H217773   4.305   1.192   2.595
 5923TIP3   OH217774   3.978   5.546   0.131
 5923TIP3    H117775   3.940   5.471   0.177
 5923TIP3    H217776   3.918   5.562   0.058
 5924TIP3   OH217777   0.729   0.840   3.594
 5924TIP3    H117778   0.738   0.935   3.605
 5924TIP3    H217779   0.687   0.810   3.674
 5925TIP3   OH217780   4.560   0.335   1.220
 5925TIP3    H117781   4.621   0.329   1.294
 5925TIP3    H217782   4.615   0.360   1.146
 5926TIP3   OH217783   3.829   5.007   0.602
 5926TIP3    H117784   3.900   4.966   0.553
 5926TIP3    H217785   3.849   5.101   0.598
 5927TIP3   OH217786   5.060   4.540   0.182
 5927TIP3    H117787   5.087   4.630   0.161
 5927TIP3    H217788   5.140   4.497   0.211
 5928TIP3   OH217789   1.605   0.173   2.172
 5928TIP3    H117790   1.516   0.186   2.139
 5928TIP3    H217791   1.644   0.110   2.111
 5929TIP3   OH217792   3.729   0.818   4.306
 5929TIP3    H117793   3.668   0.851   4.241
 5929TIP3    H217794   3.809   0.798   4.256
 5930TIP3   OH217795   6.130   4.930   4.202
 5930TIP3    H117796   6.150   4.837   4.199
 5930TIP3    H217797   6.122   4.956   4.110
 5931TIP3   OH217798   0.035   1.624   0.196
 5931TIP3    H117799   0.041   1.713   0.162
 5931TIP3    H217800  -0.056   1.598   0.180
 5932TIP3   OH217801   3.299   3.721   1.345
 5932TIP3    H117802   3.253   3.798   1.377
 5932TIP3    H217803   3.257   3.647   1.389
 5933TIP3   OH217804   2.828   2.460   1.250
 5933TIP3    H117805   2.847   2.408   1.328
 5933TIP3    H217806   2.887   2.424   1.183
 5934TIP3   OH217807   5.689   3.488   2.336
 5934TIP3    H117808   5.605   3.478   2.292
 5934TIP3    H217809   5.667   3.523   2.422
 5935TIP3   OH217810   0.417   1.617   4.440
 5935TIP3    H117811   0.461   1.701   4.448
 5935TIP3    H217812   0.479   1.562   4.391
 5936TIP3   OH217813   4.677   0.123   0.365
 5936TIP3    H117814   4.773   0.119   0.365
 5936TIP3    H217815   4.653   0.143   0.455
 5937TIP3   OH217816   0.465   0.682   2.636
 5937TIP3    H117817   0.484   0.733   2.557
 5937TIP3    H217818   0.498   0.594   2.616
 5938TIP3   OH217819   3.761   4.218   4.929
 5938TIP3    H117820   3.821   4.226   4.855
 5938TIP3    H217821   3.816   4.233   5.006
 5939TIP3   OH217822   0.048   0.239   2.426
 5939TIP3    H117823   0.037   0.334   2.425
 5939TIP3    H217824   0.047   0.214   2.334
 5940TIP3   OH217825   5.697   1.194   0.560
 5940TIP3    H117826   5.674   1.171   0.650
 5940TIP3    H217827   5.620   1.239   0.527
 5941TIP3   OH217828   5.929   4.820   3.838
 5941TIP3    H117829   5.900   4.885   3.774
 5941TIP3    H217830   5.869   4.829   3.912
 5942TIP3   OH217831   4.337   2.257   3.826
 5942TIP3    H117832   4.294   2.185   3.870
 5942TIP3    H217833   4.266   2.315   3.799
 5943TIP3   OH217834   3.583   5.247   2.734
 5943TIP3    H117835   3.663   5.281   2.775
 5943TIP3    H217836   3.521   5.240   2.807
 5944TIP3   OH217837   2.330   2.909   2.302
 5944TIP3    H117838   2.391   2.838   2.320
 5944TIP3    H217839   2.271   2.910   2.377
 5945TIP3   OH217840   5.204   1.217   1.563
 5945TIP3    H117841   5.113   1.244   1.553
 5945TIP3    H217842   5.227   1.244   1.652
 5946TIP3   OH217843   2.401   2.501   1.985
 5946TIP3    H117844   2.365   2.577   1.938
 5946TIP3    H217845   2.343   2.429   1.961
 5947TIP3   OH217846   3.382   1.778   1.238
 5947TIP3    H117847   3.477   1.776   1.235
 5947TIP3    H217848   3.355   1.690   1.213
 5948TIP3   OH217849   0.432   0.509   4.548
 5948TIP3    H117850   0.441   0.417   4.575
 5948TIP3    H217851   0.462   0.559   4.624
 5949TIP3   OH217852   5.216   3.499   5.150
 5949TIP3    H117853   5.210   3.404   5.166
 5949TIP3    H217854   5.166   3.538   5.221
 5950TIP3   OH217855   0.341   0.116   0.461
 5950TIP3    H117856   0.314   0.054   0.394
 5950TIP3    H217857   0.350   0.063   0.541
 5951TIP3   OH217858   1.402   3.316   5.185
 5951TIP3    H117859   1.397   3.314   5.089
 5951TIP3    H217860   1.349   3.391   5.210
 5952TIP3   OH217861   1.601   2.454   1.329
 5952TIP3    H117862   1.673   2.499   1.285
 5952TIP3    H217863   1.595   2.496   1.414
 5953TIP3   OH217864   5.089   4.182   0.595
 5953TIP3    H117865   5.075   4.087   0.588
 5953TIP3    H217866   5.058   4.216   0.511
 5954TIP3   OH217867   0.140   3.197   4.844
 5954TIP3    H117868   0.100   3.255   4.908
 5954TIP3    H217869   0.093   3.215   4.762
 5955TIP3   OH217870   0.167   2.069   0.742
 5955TIP3    H117871   0.086   2.118   0.725
 5955TIP3    H217872   0.229   2.136   0.773
 5956TIP3   OH217873   4.642   2.067   0.713
 5956TIP3    H117874   4.584   2.039   0.784
 5956TIP3    H217875   4.677   2.151   0.742
 5957TIP3   OH217876   3.145   4.277   2.233
 5957TIP3    H117877   3.077   4.306   2.173
 5957TIP3    H217878   3.208   4.350   2.236
 5958TIP3   OH217879   4.093   1.084   4.495
 5958TIP3    H117880   4.001   1.086   4.466
 5958TIP3    H217881   4.125   0.999   4.466
 5959TIP3   OH217882   3.413   0.726   0.710
 5959TIP3    H117883   3.460   0.648   0.741
 5959TIP3    H217884   3.448   0.797   0.764
 5960TIP3   OH217885   3.085   4.491   3.556
 5960TIP3    H117886   3.142   4.565   3.533
 5960TIP3    H217887   3.108   4.422   3.495
 5961TIP3   OH217888   0.282   2.410   1.186
 5961TIP3    H117889   0.245   2.324   1.205
 5961TIP3    H217890   0.364   2.392   1.141
 5962TIP3   OH217891   0.354   4.831   0.434
 5962TIP3    H117892   0.419   4.886   0.478
 5962TIP3    H217893   0.357   4.748   0.481
 5963TIP3   OH217894   0.181   4.443   3.071
 5963TIP3    H117895   0.089   4.463   3.053
 5963TIP3    H217896   0.219   4.527   3.099
 5964TIP3   OH217897   5.341   3.451   1.394
 5964TIP3    H117898   5.361   3.467   1.302
 5964TIP3    H217899   5.246   3.460   1.400
 5965TIP3   OH217900   3.108   4.251   3.717
 5965TIP3    H117901   3.058   4.177   3.682
 5965TIP3    H217902   3.086   4.324   3.659
 5966TIP3   OH217903   1.449   4.591   0.753
 5966TIP3    H117904   1.463   4.626   0.665
 5966TIP3    H217905   1.537   4.568   0.783
 5967TIP3   OH217906   4.521   3.233   0.869
 5967TIP3    H117907   4.480   3.158   0.910
 5967TIP3    H217908   4.482   3.309   0.912
 5968TIP3   OH217909   2.454   1.959   4.533
 5968TIP3    H117910   2.538   1.943   4.576
 5968TIP3    H217911   2.390   1.952   4.603
 5969TIP3   OH217912   1.936   1.902   0.883
 5969TIP3    H117913   1.913   1.962   0.955
 5969TIP3    H217914   2.022   1.933   0.854
 5970TIP3   OH217915   5.468   0.431   1.618
 5970TIP3    H117916   5.403   0.460   1.682
 5970TIP3    H217917   5.552   0.444   1.661
 5971TIP3   OH217918   2.954   4.730   4.990
 5971TIP3    H117919   2.861   4.735   4.969
 5971TIP3    H217920   2.992   4.809   4.950
 5972TIP3   OH217921   4.046   5.053   4.373
 5972TIP3    H117922   4.019   4.990   4.440
 5972TIP3    H217923   4.141   5.046   4.371
 5973TIP3   OH217924   0.721   1.716   3.230
 5973TIP3    H117925   0.651   1.734   3.167
 5973TIP3    H217926   0.777   1.653   3.186
 5974TIP3   OH217927   1.524   3.904   5.137
 5974TIP3    H117928   1.493   3.928   5.050
 5974TIP3    H217929   1.560   3.816   5.125
 5975TIP3   OH217930   2.424   2.977   2.037
 5975TIP3    H117931   2.520   2.978   2.043
 5975TIP3    H217932   2.395   2.948   2.123
 5976TIP3   OH217933   5.497   2.487   4.173
 5976TIP3    H117934   5.485   2.401   4.133
 5976TIP3    H217935   5.408   2.522   4.182
 5977TIP3   OH217936   3.343   0.277   1.324
 5977TIP3    H117937   3.300   0.191   1.325
 5977TIP3    H217938   3.437   0.257   1.322
 5978TIP3   OH217939   3.558   2.394   4.497
 5978TIP3    H117940   3.602   2.357   4.420
 5978TIP3    H217941   3.557   2.323   4.561
 5979TIP3   OH217942   3.975   2.369   4.437
 5979TIP3    H117943   4.032   2.327   4.501
 5979TIP3    H217944   4.031   2.381   4.360
 5980TIP3   OH217945   6.361   4.826   4.846
 5980TIP3    H117946   6.408   4.748   4.876
 5980TIP3    H217947   6.309   4.795   4.771
 5981TIP3   OH217948   5.508   3.762   3.927
 5981TIP3    H117949   5.423   3.738   3.890
 5981TIP3    H217950   5.572   3.739   3.859
 5982TIP3   OH217951   3.735   0.110   4.123
 5982TIP3    H117952   3.813   0.083   4.172
 5982TIP3    H217953   3.681   0.156   4.187
 5983TIP3   OH217954   0.470   3.971   4.616
 5983TIP3    H117955   0.392   3.925   4.648
 5983TIP3    H217956   0.526   3.980   4.693
 5984TIP3   OH217957   0.718   1.803   0.303
 5984TIP3    H117958   0.623   1.797   0.318
 5984TIP3    H217959   0.747   1.712   0.300
 5985TIP3   OH217960   4.986   3.069   1.948
 5985TIP3    H117961   5.067   3.050   1.899
 5985TIP3    H217962   4.978   2.996   2.010
 5986TIP3   OH217963   4.576   2.877   3.608
 5986TIP3    H117964   4.666   2.863   3.639
 5986TIP3    H217965   4.540   2.943   3.668
 5987TIP3   OH217966   4.246   1.903   1.012
 5987TIP3    H117967   4.158   1.929   0.983
 5987TIP3    H217968   4.238   1.895   1.107
 5988TIP3   OH217969   1.283   4.802   2.181
 5988TIP3    H117970   1.270   4.781   2.089
 5988TIP3    H217971   1.200   4.780   2.223
 5989TIP3   OH217972   3.316   5.538   1.380
 5989TIP3    H117973   3.363   5.496   1.308
 5989TIP3    H217974   3.384   5.564   1.442
 5990TIP3   OH217975   3.576   5.877   1.373
 5990TIP3    H117976   3.483   5.880   1.392
 5990TIP3    H217977   3.618   5.877   1.459
 5991TIP3   OH217978   0.131   5.649   2.342
 5991TIP3    H117979   0.198   5.674   2.406
 5991TIP3    H217980   0.126   5.724   2.283
 5992TIP3   OH217981   1.805   2.518   3.194
 5992TIP3    H117982   1.712   2.542   3.199
 5992TIP3    H217983   1.805   2.431   3.154
 5993TIP3   OH217984   0.446   0.479   3.669
 5993TIP3    H117985   0.427   0.422   3.595
 5993TIP3    H217986   0.373   0.541   3.672
 5994TIP3   OH217987   2.815   3.458   3.580
 5994TIP3    H117988   2.910   3.457   3.572
 5994TIP3    H217989   2.799   3.468   3.674
 5995TIP3   OH217990   5.827   1.302   1.211
 5995TIP3    H117991   5.802   1.229   1.268
 5995TIP3    H217992   5.831   1.378   1.269
 5996TIP3   OH217993   0.575   0.788   3.374
 5996TIP3    H117994   0.655   0.783   3.426
 5996TIP3    H217995   0.551   0.880   3.376
 5997TIP3   OH217996   5.076   3.971   3.783
 5997TIP3    H117997   5.054   4.051   3.736
 5997TIP3    H217998   5.072   3.902   3.717
 5998TIP3   OH217999   3.239   2.892   0.324
 5998TIP3    H118000   3.227   2.915   0.416
 5998TIP3    H218001   3.151   2.895   0.286
 5999TIP3   OH218002   5.608   1.702   0.340
 5999TIP3    H118003   5.554   1.713   0.418
 5999TIP3    H218004   5.688   1.658   0.371
 6000TIP3   OH218005   1.466   3.284   2.151
 6000TIP3    H118006   1.413   3.346   2.101
 6000TIP3    H218007   1.475   3.209   2.092
 6001TIP3   OH218008   5.145   1.416   0.246
 6001TIP3    H118009   5.193   1.365   0.180
 6001TIP3    H218010   5.054   1.387   0.237
 6002TIP3   OH218011   2.249   1.945   0.474
 6002TIP3    H118012   2.278   1.998   0.400
 6002TIP3    H218013   2.262   2.000   0.551
 6003TIP3   OH218014   4.959   2.341   2.758
 6003TIP3    H118015   4.916   2.427   2.759
 6003TIP3    H218016   4.984   2.329   2.666
 6004TIP3   OH218017   1.585   3.590   0.976
 6004TIP3    H118018   1.579   3.494   0.977
 6004TIP3    H218019   1.679   3.608   0.985
 6005TIP3   OH218020   1.470   1.843   3.797
 6005TIP3    H118021   1.564   1.855   3.782
 6005TIP3    H218022   1.434   1.826   3.710
 6006TIP3   OH218023   2.475   4.010   2.232
 6006TIP3    H118024   2.429   3.987   2.151
 6006TIP3    H218025   2.405   4.025   2.296
 6007TIP3   OH218026   2.091   1.097   1.788
 6007TIP3    H118027   2.041   1.178   1.780
 6007TIP3    H218028   2.182   1.125   1.791
 6008TIP3   OH218029   2.155   2.488   1.623
 6008TIP3    H118030   2.134   2.580   1.605
 6008TIP3    H218031   2.070   2.446   1.635
 6009TIP3   OH218032   4.848   1.286   4.918
 6009TIP3    H118033   4.930   1.320   4.880
 6009TIP3    H218034   4.846   1.322   5.007
 6010TIP3   OH218035   3.583   1.449   2.835
 6010TIP3    H118036   3.540   1.513   2.893
 6010TIP3    H218037   3.624   1.386   2.895
 6011TIP3   OH218038   1.984   3.228   4.542
 6011TIP3    H118039   2.050   3.169   4.579
 6011TIP3    H218040   1.928   3.251   4.616
 6012TIP3   OH218041   4.735   3.534   1.760
 6012TIP3    H118042   4.797   3.461   1.752
 6012TIP3    H218043   4.660   3.496   1.806
 6013TIP3   OH218044   0.260   3.008   0.123
 6013TIP3    H118045   0.342   3.056   0.107
 6013TIP3    H218046   0.270   2.974   0.212
 6014TIP3   OH218047   3.672   2.084   0.591
 6014TIP3    H118048   3.733   2.011   0.589
 6014TIP3    H218049   3.590   2.048   0.556
 6015TIP3   OH218050   4.843   3.060   3.283
 6015TIP3    H118051   4.888   3.006   3.218
 6015TIP3    H218052   4.897   3.053   3.361
 6016TIP3   OH218053   0.348   4.847   2.539
 6016TIP3    H118054   0.330   4.936   2.570
 6016TIP3    H218055   0.414   4.813   2.599
 6017TIP3   OH218056   2.651   1.685   0.051
 6017TIP3    H118057   2.664   1.595   0.021
 6017TIP3    H218058   2.590   1.723  -0.012
 6018TIP3   OH218059   4.913   2.977   2.863
 6018TIP3    H118060   4.950   2.912   2.923
 6018TIP3    H218061   4.870   3.041   2.919
 6019TIP3   OH218062   4.751   3.649   2.683
 6019TIP3    H118063   4.716   3.569   2.721
 6019TIP3    H218064   4.752   3.633   2.588
 6020TIP3   OH218065   4.734   1.126   3.233
 6020TIP3    H118066   4.818   1.129   3.278
 6020TIP3    H218067   4.718   1.216   3.205
 6021TIP3   OH218068   1.502   5.804   0.363
 6021TIP3    H118069   1.507   5.719   0.407
 6021TIP3    H218070   1.442   5.855   0.416
 6022TIP3   OH218071   3.584   2.105   4.624
 6022TIP3    H118072   3.589   2.018   4.586
 6022TIP3    H218073   3.675   2.133   4.632
 6023TIP3   OH218074   0.311   2.999   1.506
 6023TIP3    H118075   0.282   2.915   1.540
 6023TIP3    H218076   0.334   2.982   1.415
 6024TIP3   OH218077   5.360   3.443   4.097
 6024TIP3    H118078   5.358   3.529   4.138
 6024TIP3    H218079   5.438   3.444   4.041
 6025TIP3   OH218080   3.629   3.073   0.695
 6025TIP3    H118081   3.554   3.083   0.636
 6025TIP3    H218082   3.682   3.004   0.655
 6026TIP3   OH218083   2.095   4.981   3.420
 6026TIP3    H118084   2.161   5.050   3.434
 6026TIP3    H218085   2.146   4.903   3.399
 6027TIP3   OH218086   2.206   1.733   5.026
 6027TIP3    H118087   2.256   1.652   5.038
 6027TIP3    H218088   2.184   1.761   5.115
 6028TIP3   OH218089   3.181   3.526   3.955
 6028TIP3    H118090   3.235   3.454   3.987
 6028TIP3    H218091   3.243   3.582   3.908
 6029TIP3   OH218092   3.962   3.361   4.109
 6029TIP3    H118093   4.041   3.400   4.072
 6029TIP3    H218094   3.900   3.358   4.037
 6030TIP3   OH218095   0.573   3.500   2.236
 6030TIP3    H118096   0.529   3.442   2.298
 6030TIP3    H218097   0.557   3.588   2.269
 6031TIP3   OH218098   0.829   2.951   1.209
 6031TIP3    H118099   0.750   2.903   1.233
 6031TIP3    H218100   0.901   2.893   1.234
 6032TIP3   OH218101   2.046   2.654   2.370
 6032TIP3    H118102   1.998   2.661   2.452
 6032TIP3    H218103   2.068   2.744   2.347
 6033TIP3   OH218104   4.992   5.599   2.401
 6033TIP3    H118105   5.078   5.556   2.400
 6033TIP3    H218106   5.008   5.685   2.440
 6034TIP3   OH218107   4.971   1.813   4.303
 6034TIP3    H118108   4.876   1.803   4.291
 6034TIP3    H218109   5.006   1.813   4.214
 6035TIP3   OH218110   3.855   3.217   0.585
 6035TIP3    H118111   3.845   3.162   0.508
 6035TIP3    H218112   3.784   3.189   0.644
 6036TIP3   OH218113   0.891   3.018   0.714
 6036TIP3    H118114   0.947   2.941   0.725
 6036TIP3    H218115   0.866   3.043   0.803
 6037TIP3   OH218116   5.335   0.029   2.471
 6037TIP3    H118117   5.325   0.110   2.521
 6037TIP3    H218118   5.366  -0.035   2.535
 6038TIP3   OH218119   4.264   1.780   3.371
 6038TIP3    H118120   4.222   1.819   3.448
 6038TIP3    H218121   4.308   1.853   3.329
 6039TIP3   OH218122   3.855   0.246   1.855
 6039TIP3    H118123   3.850   0.316   1.790
 6039TIP3    H218124   3.862   0.292   1.939
 6040TIP3   OH218125   4.328   1.758   2.437
 6040TIP3    H118126   4.330   1.811   2.357
 6040TIP3    H218127   4.315   1.668   2.405
 6041TIP3   OH218128   3.605   4.618   2.846
 6041TIP3    H118129   3.548   4.612   2.769
 6041TIP3    H218130   3.684   4.661   2.814
 6042TIP3   OH218131   2.367   2.515   5.101
 6042TIP3    H118132   2.359   2.440   5.160
 6042TIP3    H218133   2.447   2.497   5.051
 6043TIP3   OH218134   1.364   0.399   1.459
 6043TIP3    H118135   1.420   0.403   1.381
 6043TIP3    H218136   1.280   0.434   1.431
 6044TIP3   OH218137   6.049   2.622   4.102
 6044TIP3    H118138   6.102   2.675   4.162
 6044TIP3    H218139   6.112   2.561   4.062
 6045TIP3   OH218140   1.802   3.695   5.014
 6045TIP3    H118141   1.765   3.680   4.926
 6045TIP3    H218142   1.870   3.762   5.000
 6046TIP3   OH218143   2.167   3.094   4.673
 6046TIP3    H118144   2.229   3.023   4.657
 6046TIP3    H218145   2.216   3.158   4.724
 6047TIP3   OH218146   0.716   2.432   2.477
 6047TIP3    H118147   0.674   2.515   2.500
 6047TIP3    H218148   0.798   2.433   2.527
 6048TIP3   OH218149   5.433   0.990   0.296
 6048TIP3    H118150   5.476   1.072   0.274
 6048TIP3    H218151   5.339   1.012   0.296
 6049TIP3   OH218152   3.176   5.291   0.600
 6049TIP3    H118153   3.159   5.279   0.693
 6049TIP3    H218154   3.092   5.278   0.557
 6050TIP3   OH218155   3.902   2.162   1.199
 6050TIP3    H118156   3.806   2.157   1.198
 6050TIP3    H218157   3.922   2.242   1.150
 6051TIP3   OH218158   0.743   5.493   3.338
 6051TIP3    H118159   0.703   5.462   3.419
 6051TIP3    H218160   0.704   5.579   3.324
 6052TIP3   OH218161   1.938   5.312   4.324
 6052TIP3    H118162   1.874   5.310   4.253
 6052TIP3    H218163   1.886   5.320   4.404
 6053TIP3   OH218164   0.024   4.943   3.920
 6053TIP3    H118165   0.116   4.968   3.928
 6053TIP3    H218166   0.026   4.863   3.867
 6054TIP3   OH218167   2.674   4.396   0.382
 6054TIP3    H118168   2.697   4.477   0.426
 6054TIP3    H218169   2.749   4.376   0.326
 6055TIP3   OH218170   5.115   0.733   1.808
 6055TIP3    H118171   5.144   0.761   1.894
 6055TIP3    H218172   5.020   0.746   1.809
 6056TIP3   OH218173   4.716   3.906   2.737
 6056TIP3    H118174   4.738   3.814   2.745
 6056TIP3    H218175   4.632   3.907   2.691
 6057TIP3   OH218176   1.754   1.027   0.368
 6057TIP3    H118177   1.670   1.006   0.326
 6057TIP3    H218178   1.762   1.121   0.360
 6058TIP3   OH218179   5.554   4.566   3.033
 6058TIP3    H118180   5.479   4.623   3.051
 6058TIP3    H218181   5.555   4.559   2.937
 6059TIP3   OH218182   1.691   3.603   2.743
 6059TIP3    H118183   1.697   3.637   2.654
 6059TIP3    H218184   1.687   3.508   2.733
 6060TIP3   OH218185   0.631   3.115   1.398
 6060TIP3    H118186   0.696   3.047   1.382
 6060TIP3    H218187   0.610   3.150   1.311
 6061TIP3   OH218188   5.648   3.256   0.920
 6061TIP3    H118189   5.716   3.208   0.873
 6061TIP3    H218190   5.693   3.296   0.994
 6062TIP3   OH218191   2.451   5.429   0.220
 6062TIP3    H118192   2.396   5.483   0.277
 6062TIP3    H218193   2.440   5.468   0.133
 6063TIP3   OH218194   0.632   3.449   1.298
 6063TIP3    H118195   0.686   3.428   1.222
 6063TIP3    H218196   0.681   3.413   1.372
 6064TIP3   OH218197   0.171   2.197   1.599
 6064TIP3    H118198   0.139   2.286   1.591
 6064TIP3    H218199   0.169   2.179   1.693
 6065TIP3   OH218200   6.049   2.437   4.572
 6065TIP3    H118201   6.096   2.408   4.651
 6065TIP3    H218202   6.094   2.393   4.500
 6066TIP3   OH218203   6.080   0.683   4.727
 6066TIP3    H118204   6.123   0.626   4.791
 6066TIP3    H218205   6.012   0.728   4.777
 6067TIP3   OH218206   5.563   3.049   5.034
 6067TIP3    H118207   5.554   2.973   4.976
 6067TIP3    H218208   5.642   3.093   5.003
 6068TIP3   OH218209   3.128   2.921   1.745
 6068TIP3    H118210   3.172   2.991   1.697
 6068TIP3    H218211   3.063   2.887   1.683
 6069TIP3   OH218212   0.851   2.257   4.004
 6069TIP3    H118213   0.909   2.325   4.036
 6069TIP3    H218214   0.811   2.219   4.082
 6070TIP3   OH218215   1.524   1.287   5.015
 6070TIP3    H118216   1.516   1.239   4.932
 6070TIP3    H218217   1.553   1.374   4.989
 6071TIP3   OH218218   1.924   5.756   4.592
 6071TIP3    H118219   1.921   5.835   4.537
 6071TIP3    H218220   1.876   5.780   4.671
 6072TIP3   OH218221   0.834   4.077   0.156
 6072TIP3    H118222   0.818   4.121   0.240
 6072TIP3    H218223   0.793   4.134   0.091
 6073TIP3   OH218224   3.984   1.474   4.972
 6073TIP3    H118225   3.981   1.562   5.010
 6073TIP3    H218226   3.984   1.488   4.878
 6074TIP3   OH218227   6.232   0.020   4.445
 6074TIP3    H118228   6.221   0.095   4.387
 6074TIP3    H218229   6.155  -0.034   4.430
 6075TIP3   OH218230   0.839   5.944   1.813
 6075TIP3    H118231   0.774   5.989   1.759
 6075TIP3    H218232   0.856   6.005   1.885
 6076TIP3   OH218233   3.058   2.599   2.957
 6076TIP3    H118234   3.050   2.694   2.964
 6076TIP3    H218235   2.979   2.565   3.000
 6077TIP3   OH218236   5.469   3.611   1.183
 6077TIP3    H118237   5.423   3.689   1.152
 6077TIP3    H218238   5.560   3.625   1.158
 6078TIP3   OH218239   3.762   5.183   3.470
 6078TIP3    H118240   3.855   5.168   3.450
 6078TIP3    H218241   3.753   5.161   3.563
 6079TIP3   OH218242   3.937   0.921   0.916
 6079TIP3    H118243   3.879   0.950   0.846
 6079TIP3    H218244   3.921   0.827   0.924
 6080TIP3   OH218245   2.731   1.656   4.431
 6080TIP3    H118246   2.646   1.677   4.392
 6080TIP3    H218247   2.777   1.606   4.364
 6081TIP3   OH218248   4.445   5.157   1.590
 6081TIP3    H118249   4.507   5.086   1.576
 6081TIP3    H218250   4.447   5.172   1.685
 6082TIP3   OH218251   4.318   1.549   0.746
 6082TIP3    H118252   4.316   1.459   0.779
 6082TIP3    H218253   4.307   1.540   0.652
 6083TIP3   OH218254   3.073   3.757   3.439
 6083TIP3    H118255   3.156   3.795   3.409
 6083TIP3    H218256   3.072   3.669   3.402
 6084TIP3   OH218257   0.965   2.054   4.300
 6084TIP3    H118258   0.982   2.143   4.329
 6084TIP3    H218259   1.025   2.041   4.226
 6085TIP3   OH218260   0.543   3.836   0.938
 6085TIP3    H118261   0.481   3.864   1.005
 6085TIP3    H218262   0.606   3.907   0.931
 6086TIP3   OH218263   0.519   4.248   0.773
 6086TIP3    H118264   0.485   4.248   0.862
 6086TIP3    H218265   0.614   4.240   0.784
 6087TIP3   OH218266   0.391   1.478   2.926
 6087TIP3    H118267   0.310   1.528   2.929
 6087TIP3    H218268   0.448   1.528   2.867
 6088TIP3   OH218269   2.985   0.797   0.781
 6088TIP3    H118270   3.038   0.839   0.849
 6088TIP3    H218271   3.049   0.756   0.722
 6089TIP3   OH218272   0.082   2.279   2.210
 6089TIP3    H118273   0.175   2.290   2.190
 6089TIP3    H218274   0.068   2.334   2.288
 6090TIP3   OH218275   5.346   1.063   3.497
 6090TIP3    H118276   5.430   1.061   3.544
 6090TIP3    H218277   5.285   1.102   3.560
 6091TIP3   OH218278   6.246   0.241   1.373
 6091TIP3    H118279   6.231   0.335   1.389
 6091TIP3    H218280   6.158   0.203   1.372
 6092TIP3   OH218281   0.475   2.012   3.634
 6092TIP3    H118282   0.486   2.069   3.557
 6092TIP3    H218283   0.385   2.026   3.661
 6093TIP3   OH218284   1.812   4.366   1.156
 6093TIP3    H118285   1.776   4.350   1.243
 6093TIP3    H218286   1.771   4.301   1.100
 6094TIP3   OH218287   4.613   4.711   4.217
 6094TIP3    H118288   4.624   4.746   4.306
 6094TIP3    H218289   4.553   4.637   4.228
 6095TIP3   OH218290   1.477   0.581   3.669
 6095TIP3    H118291   1.569   0.609   3.675
 6095TIP3    H218292   1.473   0.503   3.724
 6096TIP3   OH218293   1.043   0.751   2.285
 6096TIP3    H118294   0.990   0.767   2.207
 6096TIP3    H218295   1.122   0.804   2.272
 6097TIP3   OH218296   2.853   3.180   1.755
 6097TIP3    H118297   2.775   3.230   1.779
 6097TIP3    H218298   2.926   3.237   1.780
 6098TIP3   OH218299   4.980   4.527   1.500
 6098TIP3    H118300   4.907   4.519   1.561
 6098TIP3    H218301   4.938   4.531   1.414
 6099TIP3   OH218302   2.892   5.891   0.961
 6099TIP3    H118303   2.947   5.844   0.898
 6099TIP3    H218304   2.861   5.968   0.912
 6100TIP3   OH218305   1.556   5.729   4.715
 6100TIP3    H118306   1.517   5.729   4.802
 6100TIP3    H218307   1.644   5.765   4.729
 6101TIP3   OH218308   5.491   1.279   1.269
 6101TIP3    H118309   5.559   1.331   1.312
 6101TIP3    H218310   5.471   1.209   1.332
 6102TIP3   OH218311   1.389   4.074   3.091
 6102TIP3    H118312   1.301   4.036   3.091
 6102TIP3    H218313   1.443   4.009   3.045
 6103TIP3   OH218314   0.932   1.568   0.071
 6103TIP3    H118315   0.929   1.486   0.120
 6103TIP3    H218316   0.850   1.569   0.021
 6104TIP3   OH218317   1.247   0.471   4.755
 6104TIP3    H118318   1.230   0.402   4.691
 6104TIP3    H218319   1.164   0.482   4.801
 6105TIP3   OH218320   0.055   3.181   1.436
 6105TIP3    H118321   0.100   3.148   1.359
 6105TIP3    H218322  -0.028   3.216   1.403
 6106TIP3   OH218323   6.028   3.334   2.913
 6106TIP3    H118324   6.055   3.326   2.821
 6106TIP3    H218325   5.936   3.307   2.914
 6107TIP3   OH218326   3.604   0.897   4.066
 6107TIP3    H118327   3.528   0.924   4.014
 6107TIP3    H218328   3.657   0.846   4.005
 6108TIP3   OH218329   1.005   1.678   3.962
 6108TIP3    H118330   1.057   1.689   4.042
 6108TIP3    H218331   0.965   1.592   3.972
 6109TIP3   OH218332   4.689   1.085   5.016
 6109TIP3    H118333   4.602   1.100   4.979
 6109TIP3    H218334   4.749   1.132   4.957
 6110TIP3   OH218335   1.077   5.008   3.455
 6110TIP3    H118336   1.036   4.978   3.535
 6110TIP3    H218337   1.028   5.087   3.431
 6111TIP3   OH218338   2.175   3.775   1.292
 6111TIP3    H118339   2.131   3.800   1.373
 6111TIP3    H218340   2.134   3.829   1.224
 6112TIP3   OH218341   3.955   1.488   0.337
 6112TIP3    H118342   3.951   1.496   0.432
 6112TIP3    H218343   4.003   1.567   0.308
 6113TIP3   OH218344   0.491   3.127   3.698
 6113TIP3    H118345   0.479   3.156   3.788
 6113TIP3    H218346   0.543   3.196   3.657
 6114TIP3   OH218347   4.955   5.837   1.501
 6114TIP3    H118348   4.933   5.875   1.416
 6114TIP3    H218349   4.945   5.743   1.488
 6115TIP3   OH218350   2.910   2.236   1.601
 6115TIP3    H118351   2.997   2.267   1.626
 6115TIP3    H218352   2.925   2.187   1.520
 6116TIP3   OH218353   0.326   2.593   5.171
 6116TIP3    H118354   0.349   2.648   5.245
 6116TIP3    H218355   0.285   2.652   5.108
 6117TIP3   OH218356   4.970   2.937   1.512
 6117TIP3    H118357   4.906   2.908   1.576
 6117TIP3    H218358   4.960   2.878   1.438
 6118TIP3   OH218359   3.485   2.344   2.025
 6118TIP3    H118360   3.463   2.277   2.091
 6118TIP3    H218361   3.405   2.395   2.016
 6119TIP3   OH218362   3.267   0.388   2.108
 6119TIP3    H118363   3.328   0.425   2.172
 6119TIP3    H218364   3.315   0.314   2.069
 6120TIP3   OH218365   2.019   4.031   1.218
 6120TIP3    H118366   1.977   4.038   1.304
 6120TIP3    H218367   2.036   4.121   1.192
 6121TIP3   OH218368   1.107   2.391   3.038
 6121TIP3    H118369   1.042   2.336   2.995
 6121TIP3    H218370   1.175   2.404   2.972
 6122TIP3   OH218371   0.324   0.104   1.547
 6122TIP3    H118372   0.261   0.147   1.490
 6122TIP3    H218373   0.409   0.124   1.509
 6123TIP3   OH218374   4.587   2.723   4.968
 6123TIP3    H118375   4.682   2.733   4.959
 6123TIP3    H218376   4.551   2.803   4.930
 6124TIP3   OH218377   2.638   5.549   4.447
 6124TIP3    H118378   2.573   5.614   4.474
 6124TIP3    H218379   2.722   5.593   4.460
 6125TIP3   OH218380   2.408   4.902   1.350
 6125TIP3    H118381   2.366   4.857   1.277
 6125TIP3    H218382   2.344   4.968   1.377
 6126TIP3   OH218383   1.895   2.142   0.323
 6126TIP3    H118384   1.825   2.105   0.269
 6126TIP3    H218385   1.879   2.236   0.322
 6127TIP3   OH218386   0.424   0.276   4.281
 6127TIP3    H118387   0.363   0.254   4.351
 6127TIP3    H218388   0.372   0.330   4.220
 6128TIP3   OH218389   0.759   4.004   1.863
 6128TIP3    H118390   0.754   3.919   1.821
 6128TIP3    H218391   0.669   4.023   1.889
 6129TIP3   OH218392   4.863   3.788   4.948
 6129TIP3    H118393   4.952   3.823   4.948
 6129TIP3    H218394   4.835   3.792   4.857
 6130TIP3   OH218395   4.169   1.750   4.646
 6130TIP3    H118396   4.238   1.813   4.669
 6130TIP3    H218397   4.193   1.719   4.559
 6131TIP3   OH218398   1.117   0.331   1.339
 6131TIP3    H118399   1.054   0.267   1.307
 6131TIP3    H218400   1.068   0.385   1.401
 6132TIP3   OH218401   4.134   4.608   3.052
 6132TIP3    H118402   4.063   4.669   3.029
 6132TIP3    H218403   4.165   4.575   2.968
 6133TIP3   OH218404   2.859   1.641   4.906
 6133TIP3    H118405   2.788   1.704   4.921
 6133TIP3    H218406   2.937   1.683   4.942
 6134TIP3   OH218407   0.844   5.974   1.279
 6134TIP3    H118408   0.749   5.984   1.276
 6134TIP3    H218409   0.875   6.013   1.198
 6135TIP3   OH218410   3.965   0.214   3.828
 6135TIP3    H118411   3.986   0.121   3.820
 6135TIP3    H218412   4.027   0.246   3.893
 6136TIP3   OH218413   3.897   1.943   0.896
 6136TIP3    H118414   3.881   1.866   0.951
 6136TIP3    H218415   3.917   1.907   0.810
 6137TIP3   OH218416   3.745   3.497   0.233
 6137TIP3    H118417   3.657   3.489   0.197
 6137TIP3    H218418   3.732   3.500   0.328
 6138TIP3   OH218419   2.760   3.544   1.439
 6138TIP3    H118420   2.832   3.604   1.415
 6138TIP3    H218421   2.772   3.469   1.381
 6139TIP3   OH218422   0.239   0.144   2.873
 6139TIP3    H118423   0.272   0.054   2.881
 6139TIP3    H218424   0.276   0.189   2.949
 6140TIP3   OH218425   0.152   2.248   0.199
 6140TIP3    H118426   0.216   2.179   0.181
 6140TIP3    H218427   0.197   2.307   0.260
 6141TIP3   OH218428   2.851   0.362   1.891
 6141TIP3    H118429   2.899   0.281   1.908
 6141TIP3    H218430   2.760   0.334   1.883
 6142TIP3   OH218431   0.337   1.462   1.532
 6142TIP3    H118432   0.418   1.506   1.555
 6142TIP3    H218433   0.364   1.383   1.485
 6143TIP3   OH218434   1.809   5.403   5.223
 6143TIP3    H118435   1.840   5.445   5.143
 6143TIP3    H218436   1.716   5.426   5.229
 6144TIP3   OH218437   3.888   5.277   4.860
 6144TIP3    H118438   3.982   5.270   4.872
 6144TIP3    H218439   3.870   5.231   4.779
 6145TIP3   OH218440   3.638   3.596   3.200
 6145TIP3    H118441   3.728   3.567   3.186
 6145TIP3    H218442   3.644   3.661   3.270
 6146TIP3   OH218443   5.536   5.583   0.028
 6146TIP3    H118444   5.494   5.623  -0.049
 6146TIP3    H218445   5.475   5.601   0.100
 6147TIP3   OH218446   3.886   4.698   2.789
 6147TIP3    H118447   3.902   4.722   2.880
 6147TIP3    H218448   3.935   4.762   2.738
 6148TIP3   OH218449   2.792   5.933   0.427
 6148TIP3    H118450   2.885   5.937   0.450
 6148TIP3    H218451   2.776   5.840   0.409
 6149TIP3   OH218452   5.316   4.472   2.578
 6149TIP3    H118453   5.320   4.567   2.591
 6149TIP3    H218454   5.238   4.459   2.523
 6150TIP3   OH218455   2.139   3.556   3.778
 6150TIP3    H118456   2.101   3.505   3.706
 6150TIP3    H218457   2.127   3.647   3.752
 6151TIP3   OH218458   0.264   0.176   4.507
 6151TIP3    H118459   0.198   0.195   4.574
 6151TIP3    H218460   0.345   0.214   4.542
 6152TIP3   OH218461   3.490   2.695   1.084
 6152TIP3    H118462   3.563   2.736   1.038
 6152TIP3    H218463   3.421   2.761   1.083
 6153TIP3   OH218464   1.998   5.583   1.540
 6153TIP3    H118465   2.033   5.663   1.578
 6153TIP3    H218466   2.070   5.521   1.544
 6154TIP3   OH218467   0.623   1.785   0.886
 6154TIP3    H118468   0.543   1.755   0.928
 6154TIP3    H218469   0.606   1.779   0.792
 6155TIP3   OH218470   0.704   0.199   1.412
 6155TIP3    H118471   0.613   0.218   1.387
 6155TIP3    H218472   0.714   0.105   1.398
 6156TIP3   OH218473   4.921   4.910   0.683
 6156TIP3    H118474   4.923   5.005   0.694
 6156TIP3    H218475   4.941   4.896   0.591
 6157TIP3   OH218476   1.819   3.047   0.141
 6157TIP3    H118477   1.809   3.141   0.158
 6157TIP3    H218478   1.908   3.039   0.105
 6158TIP3   OH218479   2.979   4.534   3.840
 6158TIP3    H118480   3.007   4.510   3.751
 6158TIP3    H218481   2.961   4.451   3.883
 6159TIP3   OH218482   4.118   5.570   1.317
 6159TIP3    H118483   4.123   5.613   1.231
 6159TIP3    H218484   4.196   5.514   1.320
 6160TIP3   OH218485   4.629   5.633   5.097
 6160TIP3    H118486   4.714   5.628   5.055
 6160TIP3    H218487   4.604   5.541   5.111
 6161TIP3   OH218488   0.707   4.382   4.158
 6161TIP3    H118489   0.798   4.364   4.182
 6161TIP3    H218490   0.705   4.476   4.139
 6162TIP3   OH218491   4.533   5.163   2.154
 6162TIP3    H118492   4.557   5.135   2.242
 6162TIP3    H218493   4.600   5.228   2.130
 6163TIP3   OH218494   2.296   2.977   1.361
 6163TIP3    H118495   2.235   3.041   1.325
 6163TIP3    H218496   2.243   2.898   1.372
 6164TIP3   OH218497   4.334   2.674   0.250
 6164TIP3    H118498   4.373   2.652   0.166
 6164TIP3    H218499   4.301   2.591   0.284
 6165TIP3   OH218500   3.986   2.770   4.218
 6165TIP3    H118501   3.895   2.785   4.244
 6165TIP3    H218502   4.028   2.856   4.224
 6166TIP3   OH218503   3.400   2.509   2.533
 6166TIP3    H118504   3.438   2.551   2.610
 6166TIP3    H218505   3.327   2.457   2.566
 6167TIP3   OH218506   3.738   1.305   3.031
 6167TIP3    H118507   3.757   1.217   3.000
 6167TIP3    H218508   3.817   1.356   3.011
 6168TIP3   OH218509   2.550   2.500   4.137
 6168TIP3    H118510   2.467   2.513   4.184
 6168TIP3    H218511   2.530   2.522   4.047
 6169TIP3   OH218512   0.072   5.732   3.408
 6169TIP3    H118513   0.104   5.669   3.344
 6169TIP3    H218514   0.094   5.694   3.493
 6170TIP3   OH218515   6.289   0.886   2.438
 6170TIP3    H118516   6.302   0.929   2.354
 6170TIP3    H218517   6.378   0.874   2.472
 6171TIP3   OH218518   2.732   5.002   5.145
 6171TIP3    H118519   2.771   5.016   5.058
 6171TIP3    H218520   2.805   5.014   5.206
 6172TIP3   OH218521   2.482   3.768   3.776
 6172TIP3    H118522   2.445   3.852   3.805
 6172TIP3    H218523   2.504   3.783   3.684
 6173TIP3   OH218524   0.250   4.801   3.629
 6173TIP3    H118525   0.305   4.726   3.605
 6173TIP3    H218526   0.189   4.810   3.556
 6174TIP3   OH218527   1.925   3.103   1.044
 6174TIP3    H118528   1.922   3.165   0.971
 6174TIP3    H218529   1.987   3.143   1.105
 6175TIP3   OH218530   1.361   5.871   3.944
 6175TIP3    H118531   1.351   5.934   4.015
 6175TIP3    H218532   1.402   5.921   3.873
 6176TIP3   OH218533   2.159   5.307   4.657
 6176TIP3    H118534   2.126   5.342   4.575
 6176TIP3    H218535   2.095   5.335   4.723
 6177TIP3   OH218536   6.233   3.198   3.238
 6177TIP3    H118537   6.204   3.228   3.324
 6177TIP3    H218538   6.262   3.278   3.193
 6178TIP3   OH218539   0.359   4.614   0.611
 6178TIP3    H118540   0.296   4.599   0.540
 6178TIP3    H218541   0.334   4.551   0.679
 6179TIP3   OH218542   3.974   1.566   4.712
 6179TIP3    H118543   3.973   1.526   4.625
 6179TIP3    H218544   4.033   1.640   4.703
 6180TIP3   OH218545   1.259   3.458   0.090
 6180TIP3    H118546   1.240   3.441   0.182
 6180TIP3    H218547   1.244   3.551   0.079
 6181TIP3   OH218548   2.422   1.019   4.973
 6181TIP3    H118549   2.328   1.013   4.993
 6181TIP3    H218550   2.462   0.950   5.026
 6182TIP3   OH218551   0.341   3.739   2.587
 6182TIP3    H118552   0.256   3.772   2.557
 6182TIP3    H218553   0.394   3.732   2.507
 6183TIP3   OH218554   1.511   3.158   3.738
 6183TIP3    H118555   1.534   3.250   3.726
 6183TIP3    H218556   1.467   3.133   3.656
 6184TIP3   OH218557   6.089   2.272   0.906
 6184TIP3    H118558   6.004   2.307   0.879
 6184TIP3    H218559   6.090   2.182   0.873
 6185TIP3   OH218560  -0.018   2.264   3.766
 6185TIP3    H118561  -0.047   2.201   3.700
 6185TIP3    H218562   0.077   2.258   3.764
 6186TIP3   OH218563   5.995   4.078   4.114
 6186TIP3    H118564   5.929   4.079   4.183
 6186TIP3    H218565   5.950   4.117   4.038
 6187TIP3   OH218566   3.659   0.142   3.830
 6187TIP3    H118567   3.660   0.146   3.926
 6187TIP3    H218568   3.751   0.139   3.805
 6188TIP3   OH218569   1.011   3.084   1.529
 6188TIP3    H118570   1.055   2.999   1.540
 6188TIP3    H218571   0.954   3.091   1.606
 6189TIP3   OH218572   2.706   4.941   4.004
 6189TIP3    H118573   2.749   4.856   3.997
 6189TIP3    H218574   2.730   4.986   3.923
 6190TIP3   OH218575   1.036   0.798   4.298
 6190TIP3    H118576   0.942   0.779   4.298
 6190TIP3    H218577   1.042   0.892   4.282
 6191TIP3   OH218578   5.739   3.965   1.325
 6191TIP3    H118579   5.834   3.972   1.336
 6191TIP3    H218580   5.725   3.962   1.231
 6192TIP3   OH218581   4.577   3.971   1.640
 6192TIP3    H118582   4.662   3.944   1.605
 6192TIP3    H218583   4.513   3.943   1.574
 6193TIP3   OH218584   1.638   2.958   1.720
 6193TIP3    H118585   1.646   3.053   1.718
 6193TIP3    H218586   1.579   2.937   1.648
 6194TIP3   OH218587   2.983   2.865   0.204
 6194TIP3    H118588   2.978   2.811   0.125
 6194TIP3    H218589   2.893   2.895   0.217
 6195TIP3   OH218590   2.863   2.294   2.342
 6195TIP3    H118591   2.938   2.307   2.400
 6195TIP3    H218592   2.842   2.382   2.311
 6196TIP3   OH218593   3.952   2.166   1.952
 6196TIP3    H118594   3.991   2.195   2.034
 6196TIP3    H218595   3.887   2.234   1.931
 6197TIP3   OH218596   1.133   3.897   1.926
 6197TIP3    H118597   1.118   3.987   1.952
 6197TIP3    H218598   1.138   3.900   1.830
 6198TIP3   OH218599   1.490   5.765   0.902
 6198TIP3    H118600   1.555   5.746   0.969
 6198TIP3    H218601   1.418   5.704   0.920
 6199TIP3   OH218602   1.499   2.161   1.329
 6199TIP3    H118603   1.508   2.256   1.330
 6199TIP3    H218604   1.490   2.137   1.422
 6200TIP3   OH218605   5.826   0.275   0.323
 6200TIP3    H118606   5.830   0.241   0.413
 6200TIP3    H218607   5.772   0.354   0.330
 6201TIP3   OH218608   0.888   3.445   4.985
 6201TIP3    H118609   0.863   3.446   4.893
 6201TIP3    H218610   0.945   3.369   4.994
 6202TIP3   OH218611   5.253   5.611   4.985
 6202TIP3    H118612   5.241   5.599   5.079
 6202TIP3    H218613   5.333   5.562   4.965
 6203TIP3   OH218614   1.845   1.723   4.778
 6203TIP3    H118615   1.778   1.686   4.721
 6203TIP3    H218616   1.832   1.679   4.862
 6204TIP3   OH218617   2.955   3.626   4.588
 6204TIP3    H118618   2.870   3.644   4.628
 6204TIP3    H218619   2.957   3.531   4.577
 6205TIP3   OH218620   0.749   3.946   0.645
 6205TIP3    H118621   0.776   3.987   0.727
 6205TIP3    H218622   0.666   3.988   0.623
 6206TIP3   OH218623   4.419   2.187   3.439
 6206TIP3    H118624   4.391   2.110   3.489
 6206TIP3    H218625   4.507   2.165   3.408
 6207TIP3   OH218626   5.707   4.233   0.995
 6207TIP3    H118627   5.740   4.272   1.075
 6207TIP3    H218628   5.785   4.217   0.942
 6208TIP3   OH218629   3.432   5.546   2.856
 6208TIP3    H118630   3.468   5.564   2.769
 6208TIP3    H218631   3.365   5.480   2.842
 6209TIP3   OH218632   5.285   3.845   1.089
 6209TIP3    H118633   5.240   3.920   1.048
 6209TIP3    H218634   5.317   3.879   1.172
 6210TIP3   OH218635   0.676   3.120   4.342
 6210TIP3    H118636   0.739   3.062   4.386
 6210TIP3    H218637   0.667   3.083   4.254
 6211TIP3   OH218638   4.629   0.196   2.040
 6211TIP3    H118639   4.565   0.263   2.065
 6211TIP3    H218640   4.613   0.182   1.947
 6212TIP3   OH218641   6.248   4.143   2.011
 6212TIP3    H118642   6.331   4.146   2.059
 6212TIP3    H218643   6.237   4.231   1.975
 6213TIP3   OH218644   3.019   2.312   1.105
 6213TIP3    H118645   3.097   2.367   1.099
 6213TIP3    H218646   3.020   2.260   1.025
 6214TIP3   OH218647   5.458   0.571   0.414
 6214TIP3    H118648   5.385   0.557   0.354
 6214TIP3    H218649   5.438   0.516   0.490
 6215TIP3   OH218650   2.186   2.181   1.086
 6215TIP3    H118651   2.099   2.143   1.075
 6215TIP3    H218652   2.217   2.147   1.170
 6216TIP3   OH218653   1.420   3.165   3.998
 6216TIP3    H118654   1.413   3.254   4.031
 6216TIP3    H218655   1.467   3.174   3.915
 6217TIP3   OH218656   0.416   1.962   2.562
 6217TIP3    H118657   0.464   2.035   2.523
 6217TIP3    H218658   0.480   1.890   2.564
 6218TIP3   OH218659   3.080   1.775   3.911
 6218TIP3    H118660   3.128   1.769   3.828
 6218TIP3    H218661   3.071   1.869   3.926
 6219TIP3   OH218662   5.564   4.286   0.762
 6219TIP3    H118663   5.602   4.267   0.848
 6219TIP3    H218664   5.613   4.361   0.729
 6220TIP3   OH218665   2.060   2.362   4.847
 6220TIP3    H118666   2.108   2.285   4.815
 6220TIP3    H218667   2.125   2.432   4.848
 6221TIP3   OH218668   4.031   1.472   4.192
 6221TIP3    H118669   4.093   1.402   4.171
 6221TIP3    H218670   3.973   1.435   4.258
 6222TIP3   OH218671   6.346   2.816   3.872
 6222TIP3    H118672   6.320   2.807   3.963
 6222TIP3    H218673   6.331   2.729   3.834
 6223TIP3   OH218674   4.376   5.962   2.605
 6223TIP3    H118675   4.412   5.876   2.627
 6223TIP3    H218676   4.298   5.943   2.553
 6224TIP3   OH218677   5.984   5.855   0.460
 6224TIP3    H118678   5.912   5.914   0.437
 6224TIP3    H218679   6.063   5.903   0.435
 6225TIP3   OH218680   0.543   3.158   1.643
 6225TIP3    H118681   0.587   3.139   1.560
 6225TIP3    H218682   0.490   3.081   1.661
 6226TIP3   OH218683   5.339   4.598   2.259
 6226TIP3    H118684   5.252   4.639   2.258
 6226TIP3    H218685   5.378   4.625   2.176
 6227TIP3   OH218686   4.447   5.074   3.443
 6227TIP3    H118687   4.361   5.038   3.461
 6227TIP3    H218688   4.430   5.156   3.397
 6228TIP3   OH218689   2.970   5.882   3.720
 6228TIP3    H118690   2.994   5.951   3.658
 6228TIP3    H218691   3.037   5.815   3.708
 6229TIP3   OH218692   2.879   3.777   3.139
 6229TIP3    H118693   2.914   3.689   3.157
 6229TIP3    H218694   2.904   3.795   3.049
 6230TIP3   OH218695   4.752   4.831   0.315
 6230TIP3    H118696   4.818   4.813   0.383
 6230TIP3    H218697   4.776   4.773   0.243
 6231TIP3   OH218698   0.558   3.123   1.115
 6231TIP3    H118699   0.508   3.197   1.079
 6231TIP3    H218700   0.647   3.136   1.083
 6232TIP3   OH218701   5.344   4.212   0.057
 6232TIP3    H118702   5.435   4.208   0.083
 6232TIP3    H218703   5.346   4.252  -0.030
 6233TIP3   OH218704   3.462   1.292   4.929
 6233TIP3    H118705   3.377   1.248   4.920
 6233TIP3    H218706   3.442   1.384   4.912
 6234TIP3   OH218707   1.879   4.512   3.830
 6234TIP3    H118708   1.918   4.454   3.895
 6234TIP3    H218709   1.952   4.565   3.797
 6235TIP3   OH218710   1.794   3.470   1.680
 6235TIP3    H118711   1.806   3.378   1.657
 6235TIP3    H218712   1.774   3.469   1.773
 6236TIP3   OH218713   0.133   2.692   1.416
 6236TIP3    H118714   0.052   2.687   1.367
 6236TIP3    H218715   0.200   2.710   1.350
 6237TIP3   OH218716   5.694   4.526   0.689
 6237TIP3    H118717   5.782   4.497   0.664
 6237TIP3    H218718   5.709   4.605   0.740
 6238TIP3   OH218719   0.534   0.807   0.291
 6238TIP3    H118720   0.612   0.765   0.254
 6238TIP3    H218721   0.560   0.897   0.307
 6239TIP3   OH218722   2.638   5.582   2.925
 6239TIP3    H118723   2.680   5.565   3.009
 6239TIP3    H218724   2.624   5.676   2.923
 6240TIP3   OH218725   1.581   2.157   4.889
 6240TIP3    H118726   1.666   2.190   4.917
 6240TIP3    H218727   1.601   2.094   4.820
 6241TIP3   OH218728   5.487   2.790   1.859
 6241TIP3    H118729   5.432   2.712   1.866
 6241TIP3    H218730   5.473   2.836   1.942
 6242TIP3   OH218731   4.403   4.601   1.296
 6242TIP3    H118732   4.385   4.510   1.322
 6242TIP3    H218733   4.362   4.610   1.210
 6243TIP3   OH218734   4.736   5.515   0.175
 6243TIP3    H118735   4.735   5.434   0.124
 6243TIP3    H218736   4.666   5.503   0.239
 6244TIP3   OH218737   2.212   2.226   2.468
 6244TIP3    H118738   2.263   2.145   2.474
 6244TIP3    H218739   2.270   2.287   2.423
 6245TIP3   OH218740   0.622   5.385   3.551
 6245TIP3    H118741   0.649   5.452   3.615
 6245TIP3    H218742   0.535   5.358   3.581
 6246TIP3   OH218743   2.320   0.100   1.116
 6246TIP3    H118744   2.340   0.060   1.031
 6246TIP3    H218745   2.401   0.146   1.140
 6247TIP3   OH218746   0.209   0.397   4.171
 6247TIP3    H118747   0.169   0.483   4.184
 6247TIP3    H218748   0.250   0.403   4.085
 6248TIP3   OH218749   2.772   5.415   1.704
 6248TIP3    H118750   2.732   5.438   1.788
 6248TIP3    H218751   2.862   5.392   1.725
 6249TIP3   OH218752   1.645   3.563   1.440
 6249TIP3    H118753   1.676   3.521   1.520
 6249TIP3    H218754   1.699   3.642   1.432
 6250TIP3   OH218755   2.292   1.041   2.858
 6250TIP3    H118756   2.258   1.062   2.771
 6250TIP3    H218757   2.222   1.069   2.918
 6251TIP3   OH218758   5.705   2.825   4.715
 6251TIP3    H118759   5.629   2.834   4.773
 6251TIP3    H218760   5.780   2.849   4.770
 6252TIP3   OH218761   0.630   4.128   1.275
 6252TIP3    H118762   0.583   4.051   1.244
 6252TIP3    H218763   0.594   4.145   1.362
 6253TIP3   OH218764   4.356   3.592   3.478
 6253TIP3    H118765   4.284   3.539   3.446
 6253TIP3    H218766   4.341   3.679   3.442
 6254TIP3   OH218767   4.923   1.509   4.125
 6254TIP3    H118768   4.967   1.428   4.148
 6254TIP3    H218769   4.954   1.573   4.190
 6255TIP3   OH218770   5.561   5.602   3.664
 6255TIP3    H118771   5.602   5.527   3.621
 6255TIP3    H218772   5.604   5.608   3.749
 6256TIP3   OH218773   5.787   1.442   5.007
 6256TIP3    H118774   5.853   1.511   5.017
 6256TIP3    H218775   5.837   1.363   4.989
 6257TIP3   OH218776   5.322   3.869   5.163
 6257TIP3    H118777   5.259   3.924   5.117
 6257TIP3    H218778   5.353   3.924   5.236
 6258TIP3   OH218779   5.695   2.517   3.946
 6258TIP3    H118780   5.635   2.447   3.923
 6258TIP3    H218781   5.685   2.528   4.040
 6259TIP3   OH218782   1.692   2.959   2.618
 6259TIP3    H118783   1.664   2.896   2.684
 6259TIP3    H218784   1.785   2.973   2.634
 6260TIP3   OH218785   2.445   5.521   1.609
 6260TIP3    H118786   2.500   5.449   1.638
 6260TIP3    H218787   2.489   5.556   1.532
 6261TIP3   OH218788   2.038   0.803   4.571
 6261TIP3    H118789   2.010   0.714   4.592
 6261TIP3    H218790   2.131   0.805   4.595
 6262TIP3   OH218791   3.490   1.093   3.476
 6262TIP3    H118792   3.583   1.088   3.456
 6262TIP3    H218793   3.456   1.006   3.456
 6263TIP3   OH218794   4.760   4.401   0.383
 6263TIP3    H118795   4.754   4.333   0.449
 6263TIP3    H218796   4.821   4.465   0.420
 6264TIP3   OH218797   0.273   4.971   3.827
 6264TIP3    H118798   0.361   5.008   3.823
 6264TIP3    H218799   0.262   4.924   3.745
 6265TIP3   OH218800   3.995   4.881   2.627
 6265TIP3    H118801   3.965   4.817   2.563
 6265TIP3    H218802   3.947   4.961   2.605
 6266TIP3   OH218803   4.291   2.412   3.349
 6266TIP3    H118804   4.344   2.356   3.405
 6266TIP3    H218805   4.294   2.370   3.264
 6267TIP3   OH218806   5.938   5.914   4.524
 6267TIP3    H118807   5.995   5.841   4.550
 6267TIP3    H218808   5.926   5.902   4.430
 6268TIP3   OH218809   5.666   0.056   3.871
 6268TIP3    H118810   5.698   0.133   3.917
 6268TIP3    H218811   5.571   0.059   3.885
 6269TIP3   OH218812   3.303   1.902   4.525
 6269TIP3    H118813   3.310   1.997   4.535
 6269TIP3    H218814   3.225   1.889   4.472
 6270TIP3   OH218815   5.862   0.598   5.034
 6270TIP3    H118816   5.773   0.611   5.066
 6270TIP3    H218817   5.886   0.682   4.996
 6271TIP3   OH218818   1.004   0.284   2.066
 6271TIP3    H118819   1.004   0.366   2.114
 6271TIP3    H218820   0.948   0.225   2.118
 6272TIP3   OH218821   3.120   1.117   2.295
 6272TIP3    H118822   3.060   1.065   2.348
 6272TIP3    H218823   3.091   1.103   2.204
 6273TIP3   OH218824   1.695   1.012   4.328
 6273TIP3    H118825   1.683   0.982   4.238
 6273TIP3    H218826   1.790   1.012   4.340
 6274TIP3   OH218827   3.231   3.156   1.184
 6274TIP3    H118828   3.276   3.122   1.261
 6274TIP3    H218829   3.302   3.181   1.124
 6275TIP3   OH218830   1.096   1.716   3.644
 6275TIP3    H118831   1.181   1.680   3.618
 6275TIP3    H218832   1.059   1.650   3.702
 6276TIP3   OH218833   1.485   2.328   2.487
 6276TIP3    H118834   1.456   2.315   2.397
 6276TIP3    H218835   1.506   2.241   2.519
 6277TIP3   OH218836   2.646   3.165   3.860
 6277TIP3    H118837   2.590   3.227   3.908
 6277TIP3    H218838   2.590   3.133   3.789
 6278TIP3   OH218839   3.018   5.985   2.850
 6278TIP3    H118840   2.991   6.025   2.767
 6278TIP3    H218841   3.100   5.941   2.830
 6279TIP3   OH218842   2.678   1.334   3.484
 6279TIP3    H118843   2.656   1.304   3.572
 6279TIP3    H218844   2.669   1.256   3.429
 6280TIP3   OH218845   1.691   4.591   4.755
 6280TIP3    H118846   1.612   4.644   4.761
 6280TIP3    H218847   1.690   4.555   4.666
 6281TIP3   OH218848   1.085   5.887   1.942
 6281TIP3    H118849   1.009   5.903   1.886
 6281TIP3    H218850   1.160   5.900   1.884
 6282TIP3   OH218851   5.614   5.535   0.982
 6282TIP3    H118852   5.548   5.556   0.916
 6282TIP3    H218853   5.696   5.527   0.932
 6283TIP3   OH218854   1.674   0.838   2.862
 6283TIP3    H118855   1.673   0.929   2.833
 6283TIP3    H218856   1.661   0.787   2.782
 6284TIP3   OH218857   5.055   0.990   1.271
 6284TIP3    H118858   5.070   1.077   1.232
 6284TIP3    H218859   5.008   0.942   1.203
 6285TIP3   OH218860   1.189   2.019   0.044
 6285TIP3    H118861   1.165   1.927   0.038
 6285TIP3    H218862   1.170   2.055  -0.042
 6286TIP3   OH218863   2.156   1.238   2.261
 6286TIP3    H118864   2.084   1.267   2.318
 6286TIP3    H218865   2.232   1.286   2.292
 6287TIP3   OH218866   5.268   2.476   4.641
 6287TIP3    H118867   5.299   2.435   4.561
 6287TIP3    H218868   5.177   2.450   4.648
 6288TIP3   OH218869   4.403   4.492   1.631
 6288TIP3    H118870   4.361   4.480   1.717
 6288TIP3    H218871   4.342   4.547   1.582
 6289TIP3   OH218872   0.480   1.477   2.234
 6289TIP3    H118873   0.489   1.572   2.238
 6289TIP3    H218874   0.472   1.458   2.141
 6290TIP3   OH218875   0.427   1.737   1.430
 6290TIP3    H118876   0.338   1.723   1.398
 6290TIP3    H218877   0.415   1.776   1.517
 6291TIP3   OH218878   0.297   0.712   0.345
 6291TIP3    H118879   0.293   0.635   0.289
 6291TIP3    H218880   0.389   0.739   0.343
 6292TIP3   OH218881   0.264   5.098   1.199
 6292TIP3    H118882   0.287   5.012   1.233
 6292TIP3    H218883   0.223   5.081   1.115
 6293TIP3   OH218884   5.983   4.543   1.899
 6293TIP3    H118885   5.914   4.497   1.852
 6293TIP3    H218886   6.025   4.597   1.832
 6294TIP3   OH218887   5.658   3.483   4.092
 6294TIP3    H118888   5.702   3.543   4.033
 6294TIP3    H218889   5.722   3.466   4.161
 6295TIP3   OH218890   2.912   3.192   4.484
 6295TIP3    H118891   2.828   3.171   4.525
 6295TIP3    H218892   2.892   3.262   4.422
 6296TIP3   OH218893   0.349   5.600   4.011
 6296TIP3    H118894   0.360   5.626   4.103
 6296TIP3    H218895   0.340   5.683   3.964
 6297TIP3   OH218896   6.035   1.574   3.941
 6297TIP3    H118897   6.028   1.621   3.858
 6297TIP3    H218898   5.952   1.593   3.986
 6298TIP3   OH218899   3.734   3.134   1.569
 6298TIP3    H118900   3.712   3.217   1.613
 6298TIP3    H218901   3.780   3.161   1.490
 6299TIP3   OH218902   3.487   4.942   4.192
 6299TIP3    H118903   3.459   4.934   4.282
 6299TIP3    H218904   3.412   4.981   4.146
 6300TIP3   OH218905   4.958   3.305   2.109
 6300TIP3    H118906   4.983   3.216   2.085
 6300TIP3    H218907   4.881   3.294   2.164
 6301TIP3   OH218908   3.598   6.003   1.119
 6301TIP3    H118909   3.600   5.985   1.213
 6301TIP3    H218910   3.578   5.919   1.078
 6302TIP3   OH218911   3.031   2.868   2.937
 6302TIP3    H118912   3.074   2.923   2.871
 6302TIP3    H218913   2.945   2.848   2.900
 6303TIP3   OH218914   4.455   2.712   1.800
 6303TIP3    H118915   4.445   2.800   1.764
 6303TIP3    H218916   4.366   2.676   1.802
 6304TIP3   OH218917   0.558   0.168   4.085
 6304TIP3    H118918   0.506   0.177   4.165
 6304TIP3    H218919   0.511   0.104   4.033
 6305TIP3   OH218920   2.715   1.689   1.118
 6305TIP3    H118921   2.796   1.667   1.073
 6305TIP3    H218922   2.703   1.783   1.101
 6306TIP3   OH218923   1.632   5.199   1.080
 6306TIP3    H118924   1.712   5.191   1.132
 6306TIP3    H218925   1.650   5.148   1.001
 6307TIP3   OH218926   2.848   5.892   1.778
 6307TIP3    H118927   2.861   5.874   1.871
 6307TIP3    H218928   2.893   5.822   1.733
 6308TIP3   OH218929   3.866   0.302   0.738
 6308TIP3    H118930   3.839   0.257   0.818
 6308TIP3    H218931   3.939   0.249   0.704
 6309TIP3   OH218932   5.298   5.391   0.837
 6309TIP3    H118933   5.356   5.448   0.787
 6309TIP3    H218934   5.217   5.441   0.845
 6310TIP3   OH218935   0.655   1.899   4.087
 6310TIP3    H118936   0.741   1.911   4.046
 6310TIP3    H218937   0.618   1.822   4.043
 6311TIP3   OH218938   5.629   1.029   3.615
 6311TIP3    H118939   5.689   1.016   3.542
 6311TIP3    H218940   5.654   0.963   3.679
 6312TIP3   OH218941   5.089   5.941   3.721
 6312TIP3    H118942   5.053   5.852   3.717
 6312TIP3    H218943   5.035   5.985   3.786
 6313TIP3   OH218944   2.989   1.019   1.790
 6313TIP3    H118945   2.943   0.943   1.824
 6313TIP3    H218946   2.965   1.022   1.697
 6314TIP3   OH218947   0.398   5.671   0.987
 6314TIP3    H118948   0.308   5.676   0.954
 6314TIP3    H218949   0.392   5.615   1.064
 6315TIP3   OH218950   2.671   3.519   3.822
 6315TIP3    H118951   2.626   3.441   3.855
 6315TIP3    H218952   2.600   3.580   3.802
 6316TIP3   OH218953   3.395   0.533   2.987
 6316TIP3    H118954   3.330   0.465   2.969
 6316TIP3    H218955   3.345   0.606   3.021
 6317TIP3   OH218956   4.387   3.225   4.308
 6317TIP3    H118957   4.324   3.178   4.363
 6317TIP3    H218958   4.471   3.186   4.329
 6318TIP3   OH218959   0.635   4.981   1.254
 6318TIP3    H118960   0.630   5.049   1.186
 6318TIP3    H218961   0.616   5.028   1.335
 6319TIP3   OH218962   2.704   0.090   0.782
 6319TIP3    H118963   2.671   0.069   0.869
 6319TIP3    H218964   2.708   0.006   0.736
 6320TIP3   OH218965   3.135   0.968   0.425
 6320TIP3    H118966   3.228   0.985   0.418
 6320TIP3    H218967   3.094   1.054   0.423
 6321TIP3   OH218968   4.809   5.443   0.768
 6321TIP3    H118969   4.762   5.394   0.700
 6321TIP3    H218970   4.742   5.499   0.808
 6322TIP3   OH218971   0.474   5.932   2.259
 6322TIP3    H118972   0.417   5.985   2.314
 6322TIP3    H218973   0.520   5.995   2.204
 6323TIP3   OH218974   3.551   1.446   4.211
 6323TIP3    H118975   3.487   1.478   4.275
 6323TIP3    H218976   3.630   1.499   4.227
 6324TIP3   OH218977   1.701   5.495   4.864
 6324TIP3    H118978   1.609   5.468   4.873
 6324TIP3    H218979   1.696   5.589   4.848
 6325TIP3   OH218980   2.928   4.809   1.954
 6325TIP3    H118981   2.835   4.822   1.933
 6325TIP3    H218982   2.929   4.739   2.019
 6326TIP3   OH218983   0.767   4.750   1.937
 6326TIP3    H118984   0.759   4.726   2.029
 6326TIP3    H218985   0.797   4.841   1.938
 6327TIP3   OH218986   1.561   0.247   5.099
 6327TIP3    H118987   1.471   0.265   5.074
 6327TIP3    H218988   1.572   0.153   5.084
 6328TIP3   OH218989   1.116   3.200   0.609
 6328TIP3    H118990   1.065   3.123   0.634
 6328TIP3    H218991   1.066   3.274   0.643
 6329TIP3   OH218992   3.850   5.704   2.607
 6329TIP3    H118993   3.854   5.647   2.530
 6329TIP3    H218994   3.900   5.781   2.582
 6330TIP3   OH218995   5.272   0.684   4.702
 6330TIP3    H118996   5.299   0.594   4.685
 6330TIP3    H218997   5.255   0.687   4.797
 6331TIP3   OH218998   5.969   2.639   3.678
 6331TIP3    H118999   5.996   2.571   3.741
 6331TIP3    H219000   6.040   2.642   3.614
 6332TIP3   OH219001   3.289   2.428   0.662
 6332TIP3    H119002   3.300   2.421   0.757
 6332TIP3    H219003   3.363   2.380   0.626
 6333TIP3   OH219004   4.187   2.207   1.320
 6333TIP3    H119005   4.210   2.170   1.405
 6333TIP3    H219006   4.094   2.189   1.309
 6334TIP3   OH219007   5.838   0.705   1.543
 6334TIP3    H119008   5.871   0.789   1.511
 6334TIP3    H219009   5.909   0.643   1.527
 6335TIP3   OH219010   3.913   3.345   2.662
 6335TIP3    H119011   3.910   3.298   2.745
 6335TIP3    H219012   3.982   3.302   2.612
 6336TIP3   OH219013   2.321   4.638   4.628
 6336TIP3    H119014   2.298   4.666   4.540
 6336TIP3    H219015   2.317   4.542   4.626
 6337TIP3   OH219016   4.474   0.292   1.564
 6337TIP3    H119017   4.462   0.387   1.571
 6337TIP3    H219018   4.452   0.272   1.473
 6338TIP3   OH219019   1.420   3.752   2.479
 6338TIP3    H119020   1.481   3.679   2.490
 6338TIP3    H219021   1.461   3.809   2.415
 6339TIP3   OH219022   3.667   3.740   3.437
 6339TIP3    H119023   3.681   3.654   3.476
 6339TIP3    H219024   3.749   3.787   3.450
 6340TIP3   OH219025   4.268   4.129   1.451
 6340TIP3    H119026   4.328   4.058   1.428
 6340TIP3    H219027   4.323   4.206   1.459
 6341TIP3   OH219028   5.182   4.108   2.310
 6341TIP3    H119029   5.134   4.030   2.337
 6341TIP3    H219030   5.192   4.159   2.390
 6342TIP3   OH219031   3.134   5.551   1.041
 6342TIP3    H119032   3.215   5.599   1.059
 6342TIP3    H219033   3.115   5.570   0.949
 6343TIP3   OH219034   4.455   0.725   0.522
 6343TIP3    H119035   4.434   0.812   0.556
 6343TIP3    H219036   4.370   0.690   0.493
 6344TIP3   OH219037   3.106  -0.003   5.128
 6344TIP3    H119038   3.053   0.000   5.049
 6344TIP3    H219039   3.102   0.086   5.163
 6345TIP3   OH219040   2.394   0.836   4.037
 6345TIP3    H119041   2.386   0.747   4.002
 6345TIP3    H219042   2.393   0.892   3.959
 6346TIP3   OH219043   0.000   1.243   1.531
 6346TIP3    H119044   0.092   1.267   1.519
 6346TIP3    H219045  -0.045   1.327   1.540
 6347TIP3   OH219046   5.105   3.352   1.140
 6347TIP3    H119047   5.065   3.436   1.117
 6347TIP3    H219048   5.033   3.290   1.142
 6348TIP3   OH219049   3.711   2.033   3.578
 6348TIP3    H119050   3.657   2.008   3.503
 6348TIP3    H219051   3.650   2.071   3.641
 6349TIP3   OH219052   4.717   4.305   3.485
 6349TIP3    H119053   4.701   4.394   3.516
 6349TIP3    H219054   4.674   4.249   3.549
 6350TIP3   OH219055   5.531   1.676   3.521
 6350TIP3    H119056   5.474   1.647   3.592
 6350TIP3    H219057   5.472   1.686   3.446
 6351TIP3   OH219058   1.351   1.892   4.934
 6351TIP3    H119059   1.383   1.863   4.848
 6351TIP3    H219060   1.326   1.811   4.978
 6352TIP3   OH219061   1.609   3.138   4.623
 6352TIP3    H119062   1.575   3.062   4.671
 6352TIP3    H219063   1.690   3.161   4.668
 6353TIP3   OH219064   3.083   2.723   0.663
 6353TIP3    H119065   3.004   2.687   0.622
 6353TIP3    H219066   3.089   2.678   0.748
 6354TIP3   OH219067   4.016   2.887   2.276
 6354TIP3    H119068   4.061   2.924   2.351
 6354TIP3    H219069   3.948   2.831   2.314
 6355TIP3   OH219070   3.889   4.470   2.644
 6355TIP3    H119071   3.950   4.513   2.586
 6355TIP3    H219072   3.880   4.529   2.719
 6356TIP3   OH219073   0.142   1.473   3.976
 6356TIP3    H119074   0.104   1.534   4.040
 6356TIP3    H219075   0.149   1.524   3.896
 6357TIP3   OH219076   0.460   1.969   1.644
 6357TIP3    H119077   0.433   2.026   1.717
 6357TIP3    H219078   0.413   1.887   1.660
 6358TIP3   OH219079   5.080   3.145   2.329
 6358TIP3    H119080   4.998   3.156   2.280
 6358TIP3    H219081   5.058   3.172   2.418
 6359TIP3   OH219082   0.138   3.983   1.770
 6359TIP3    H119083   0.047   3.954   1.766
 6359TIP3    H219084   0.178   3.947   1.691
 6360TIP3   OH219085   0.681   3.425   2.677
 6360TIP3    H119086   0.732   3.373   2.616
 6360TIP3    H219087   0.744   3.453   2.744
 6361TIP3   OH219088   1.584   4.683   2.040
 6361TIP3    H119089   1.623   4.624   1.975
 6361TIP3    H219090   1.523   4.628   2.089
 6362TIP3   OH219091   5.935   1.684   4.231
 6362TIP3    H119092   5.861   1.657   4.177
 6362TIP3    H219093   5.949   1.610   4.291
 6363TIP3   OH219094   0.160   2.769   0.475
 6363TIP3    H119095   0.171   2.758   0.570
 6363TIP3    H219096   0.229   2.830   0.449
 6364TIP3   OH219097   3.065   0.394   2.665
 6364TIP3    H119098   3.157   0.370   2.650
 6364TIP3    H219099   3.022   0.378   2.581
 6365TIP3   OH219100   1.685   1.285   4.310
 6365TIP3    H119101   1.659   1.198   4.339
 6365TIP3    H219102   1.685   1.279   4.214
 6366TIP3   OH219103   5.903   0.352   2.947
 6366TIP3    H119104   5.895   0.279   3.008
 6366TIP3    H219105   5.877   0.316   2.862
 6367TIP3   OH219106   3.494   3.057   3.593
 6367TIP3    H119107   3.466   3.017   3.511
 6367TIP3    H219108   3.423   3.037   3.654
 6368TIP3   OH219109   5.078   2.760   2.365
 6368TIP3    H119110   4.995   2.781   2.408
 6368TIP3    H219111   5.138   2.740   2.437
 6369TIP3   OH219112   0.936   4.082   1.383
 6369TIP3    H119113   0.842   4.066   1.392
 6369TIP3    H219114   0.974   3.996   1.363
 6370TIP3   OH219115   6.268   1.253   2.318
 6370TIP3    H119116   6.204   1.283   2.384
 6370TIP3    H219117   6.237   1.166   2.293
 6371TIP3   OH219118   3.607   4.687   2.515
 6371TIP3    H119119   3.678   4.717   2.458
 6371TIP3    H219120   3.570   4.767   2.552
 6372TIP3   OH219121   4.508   1.625   3.432
 6372TIP3    H119122   4.450   1.555   3.464
 6372TIP3    H219123   4.452   1.702   3.430
 6373TIP3   OH219124   3.733   2.130   2.218
 6373TIP3    H119125   3.748   2.043   2.183
 6373TIP3    H219126   3.813   2.151   2.266
 6374TIP3   OH219127   1.911   3.130   4.036
 6374TIP3    H119128   1.995   3.151   3.997
 6374TIP3    H219129   1.924   3.143   4.130
 6375TIP3   OH219130   2.909   2.445   1.829
 6375TIP3    H119131   2.903   2.539   1.845
 6375TIP3    H219132   2.832   2.409   1.872
 6376TIP3   OH219133   1.974   0.294   3.710
 6376TIP3    H119134   1.914   0.355   3.667
 6376TIP3    H219135   1.969   0.215   3.656
 6377TIP3   OH219136   2.955   5.593   4.949
 6377TIP3    H119137   2.872   5.567   4.909
 6377TIP3    H219138   2.929   5.651   5.021
 6378TIP3   OH219139   5.377   0.203   3.355
 6378TIP3    H119140   5.472   0.212   3.350
 6378TIP3    H219141   5.349   0.271   3.416
 6379TIP3   OH219142   5.053   0.298   0.873
 6379TIP3    H119143   4.973   0.258   0.840
 6379TIP3    H219144   5.070   0.252   0.955
 6380TIP3   OH219145   3.626   5.227   4.910
 6380TIP3    H119146   3.718   5.235   4.933
 6380TIP3    H219147   3.621   5.150   4.853
 6381TIP3   OH219148   3.912   0.396   3.617
 6381TIP3    H119149   3.925   0.311   3.658
 6381TIP3    H219150   3.910   0.378   3.523
 6382TIP3   OH219151   2.261   5.636   4.978
 6382TIP3    H119152   2.269   5.602   4.888
 6382TIP3    H219153   2.297   5.725   4.973
 6383TIP3   OH219154   3.029   2.324   2.859
 6383TIP3    H119155   2.968   2.398   2.855
 6383TIP3    H219156   2.980   2.254   2.901
 6384TIP3   OH219157   0.916   5.642   0.411
 6384TIP3    H119158   1.009   5.637   0.431
 6384TIP3    H219159   0.907   5.600   0.325
 6385TIP3   OH219160   3.050   4.702   1.706
 6385TIP3    H119161   3.025   4.628   1.651
 6385TIP3    H219162   2.979   4.710   1.770
 6386TIP3   OH219163   5.431   0.734   2.660
 6386TIP3    H119164   5.376   0.770   2.590
 6386TIP3    H219165   5.388   0.763   2.741
 6387TIP3   OH219166   1.739   4.139   0.416
 6387TIP3    H119167   1.757   4.046   0.404
 6387TIP3    H219168   1.774   4.159   0.503
 6388TIP3   OH219169   1.862   4.174   3.609
 6388TIP3    H119170   1.855   4.269   3.598
 6388TIP3    H219171   1.777   4.141   3.579
 6389TIP3   OH219172   5.811   2.962   2.530
 6389TIP3    H119173   5.827   2.978   2.623
 6389TIP3    H219174   5.719   2.985   2.517
 6390TIP3   OH219175   0.049   4.458   0.973
 6390TIP3    H119176   0.127   4.493   0.929
 6390TIP3    H219177   0.065   4.473   1.066
 6391TIP3   OH219178   1.049   3.131   2.961
 6391TIP3    H119179   1.080   3.049   3.000
 6391TIP3    H219180   1.025   3.107   2.872
 6392TIP3   OH219181   2.684   4.360   3.081
 6392TIP3    H119182   2.644   4.277   3.107
 6392TIP3    H219183   2.643   4.426   3.136
 6393TIP3   OH219184   3.345   0.552   2.684
 6393TIP3    H119185   3.259   0.589   2.669
 6393TIP3    H219186   3.363   0.568   2.776
 6394TIP3   OH219187   3.844   5.190   2.031
 6394TIP3    H119188   3.784   5.179   1.957
 6394TIP3    H219189   3.878   5.103   2.048
 6395TIP3   OH219190   5.175   5.141   1.110
 6395TIP3    H119191   5.255   5.157   1.060
 6395TIP3    H219192   5.173   5.211   1.174
 6396TIP3   OH219193   0.275   2.724   4.446
 6396TIP3    H119194   0.254   2.734   4.539
 6396TIP3    H219195   0.326   2.802   4.425
 6397TIP3   OH219196   2.288   1.536   0.615
 6397TIP3    H119197   2.262   1.564   0.527
 6397TIP3    H219198   2.206   1.528   0.663
 6398TIP3   OH219199   3.962   1.708   1.047
 6398TIP3    H119200   3.938   1.773   1.113
 6398TIP3    H219201   3.913   1.630   1.072
 6399TIP3   OH219202   5.261   2.425   2.641
 6399TIP3    H119203   5.221   2.440   2.727
 6399TIP3    H219204   5.187   2.413   2.581
 6400TIP3   OH219205   3.377   3.967   1.671
 6400TIP3    H119206   3.290   3.988   1.706
 6400TIP3    H219207   3.360   3.938   1.582
 6401TIP3   OH219208   5.856   4.406   0.095
 6401TIP3    H119209   5.803   4.396   0.174
 6401TIP3    H219210   5.795   4.437   0.028
 6402TIP3   OH219211   2.222   4.860   3.868
 6402TIP3    H119212   2.270   4.876   3.949
 6402TIP3    H219213   2.280   4.893   3.799
 6403TIP3   OH219214   4.123   0.643   3.882
 6403TIP3    H119215   4.141   0.571   3.942
 6403TIP3    H219216   4.033   0.629   3.855
 6404TIP3   OH219217   3.443   1.934   1.950
 6404TIP3    H119218   3.433   2.001   2.018
 6404TIP3    H219219   3.474   1.982   1.873
 6405TIP3   OH219220   5.874   1.184   4.441
 6405TIP3    H119221   5.854   1.101   4.399
 6405TIP3    H219222   5.890   1.245   4.369
 6406TIP3   OH219223   6.293   3.221   0.580
 6406TIP3    H119224   6.246   3.187   0.503
 6406TIP3    H219225   6.259   3.310   0.592
 6407TIP3   OH219226   2.322   0.946   4.401
 6407TIP3    H119227   2.274   0.929   4.320
 6407TIP3    H219228   2.335   0.859   4.439
 6408TIP3   OH219229   1.635   0.468   0.551
 6408TIP3    H119230   1.617   0.456   0.644
 6408TIP3    H219231   1.557   0.511   0.516
 6409TIP3   OH219232   1.089   3.486   1.844
 6409TIP3    H119233   1.100   3.391   1.847
 6409TIP3    H219234   1.112   3.510   1.754
 6410TIP3   OH219235   1.564   5.766   2.312
 6410TIP3    H119236   1.651   5.804   2.307
 6410TIP3    H219237   1.533   5.765   2.221
 6411TIP3   OH219238   1.668   2.317  -0.015
 6411TIP3    H119239   1.648   2.380   0.054
 6411TIP3    H219240   1.590   2.263  -0.023
 6412TIP3   OH219241   1.727   3.855   3.244
 6412TIP3    H119242   1.690   3.767   3.237
 6412TIP3    H219243   1.821   3.841   3.249
 6413TIP3   OH219244   5.150   4.563   1.988
 6413TIP3    H119245   5.115   4.633   1.933
 6413TIP3    H219246   5.074   4.528   2.034
 6414TIP3   OH219247   2.602   4.176   0.941
 6414TIP3    H119248   2.607   4.159   1.035
 6414TIP3    H219249   2.693   4.194   0.916
 6415TIP3   OH219250   4.161   5.467   1.672
 6415TIP3    H119251   4.208   5.466   1.588
 6415TIP3    H219252   4.155   5.375   1.697
 6416TIP3   OH219253   5.732   4.510   2.490
 6416TIP3    H119254   5.772   4.509   2.577
 6416TIP3    H219255   5.806   4.519   2.430
 6417TIP3   OH219256   0.693   2.171   2.819
 6417TIP3    H119257   0.641   2.093   2.802
 6417TIP3    H219258   0.633   2.230   2.866
 6418TIP3   OH219259   2.889   4.677   0.759
 6418TIP3    H119260   2.944   4.622   0.815
 6418TIP3    H219261   2.951   4.715   0.696
 6419TIP3   OH219262   2.689   5.334   4.653
 6419TIP3    H119263   2.639   5.370   4.580
 6419TIP3    H219264   2.648   5.372   4.731
 6420TIP3   OH219265   5.340   1.585   3.719
 6420TIP3    H119266   5.302   1.504   3.686
 6420TIP3    H219267   5.339   1.576   3.814
 6421TIP3   OH219268   3.705   3.184   2.678
 6421TIP3    H119269   3.759   3.248   2.633
 6421TIP3    H219270   3.672   3.230   2.755
 6422TIP3   OH219271   3.847   5.067   2.371
 6422TIP3    H119272   3.933   5.102   2.347
 6422TIP3    H219273   3.785   5.134   2.343
 6423TIP3   OH219274   6.179   2.308   4.016
 6423TIP3    H119275   6.198   2.247   3.945
 6423TIP3    H219276   6.261   2.355   4.029
 6424TIP3   OH219277   4.660   2.671   0.793
 6424TIP3    H119278   4.688   2.580   0.784
 6424TIP3    H219279   4.607   2.688   0.716
 6425TIP3   OH219280   1.824   2.842   1.355
 6425TIP3    H119281   1.907   2.834   1.308
 6425TIP3    H219282   1.757   2.815   1.292
 6426TIP3   OH219283   5.412   0.138   0.620
 6426TIP3    H119284   5.344   0.081   0.585
 6426TIP3    H219285   5.436   0.098   0.704
 6427TIP3   OH219286   0.620   4.389   1.939
 6427TIP3    H119287   0.534   4.429   1.949
 6427TIP3    H219288   0.604   4.295   1.952
 6428TIP3   OH219289   2.894   1.619   2.133
 6428TIP3    H119290   2.937   1.542   2.170
 6428TIP3    H219291   2.919   1.619   2.041
 6429TIP3   OH219292   5.846   0.977   3.452
 6429TIP3    H119293   5.902   0.904   3.478
 6429TIP3    H219294   5.900   1.028   3.391
 6430TIP3   OH219295   3.038   5.945   4.355
 6430TIP3    H119296   2.960   5.983   4.314
 6430TIP3    H219297   3.030   5.851   4.337
 6431TIP3   OH219298   1.099   3.901   4.991
 6431TIP3    H119299   1.109   3.809   5.016
 6431TIP3    H219300   1.069   3.944   5.071
 6432TIP3   OH219301   6.051   2.854   2.910
 6432TIP3    H119302   6.084   2.781   2.964
 6432TIP3    H219303   6.091   2.932   2.949
 6433TIP3   OH219304   5.200   0.304   4.219
 6433TIP3    H119305   5.208   0.371   4.286
 6433TIP3    H219306   5.278   0.249   4.230
 6434TIP3   OH219307   5.586   1.366   3.374
 6434TIP3    H119308   5.531   1.366   3.452
 6434TIP3    H219309   5.531   1.404   3.306
 6435TIP3   OH219310   2.409   3.107   0.603
 6435TIP3    H119311   2.482   3.163   0.580
 6435TIP3    H219312   2.371   3.148   0.681
 6436TIP3   OH219313   5.963   2.618   4.991
 6436TIP3    H119314   6.005   2.538   4.959
 6436TIP3    H219315   5.888   2.588   5.041
 6437TIP3   OH219316   4.495   5.293   1.140
 6437TIP3    H119317   4.530   5.205   1.135
 6437TIP3    H219318   4.501   5.327   1.051
 6438TIP3   OH219319   2.512   4.263   3.816
 6438TIP3    H119320   2.506   4.319   3.894
 6438TIP3    H219321   2.582   4.201   3.836
 6439TIP3   OH219322   4.251   4.163   2.844
 6439TIP3    H119323   4.346   4.166   2.853
 6439TIP3    H219324   4.217   4.196   2.927
 6440TIP3   OH219325   4.706   4.938   0.870
 6440TIP3    H119326   4.746   5.010   0.920
 6440TIP3    H219327   4.777   4.905   0.815
 6441TIP3   OH219328   6.133   5.671   3.405
 6441TIP3    H119329   6.082   5.751   3.396
 6441TIP3    H219330   6.224   5.701   3.407
 6442TIP3   OH219331   0.438   4.841   1.863
 6442TIP3    H119332   0.374   4.798   1.807
 6442TIP3    H219333   0.523   4.813   1.828
 6443TIP3   OH219334   5.337   0.191   1.672
 6443TIP3    H119335   5.373   0.278   1.654
 6443TIP3    H219336   5.244   0.198   1.648
 6444TIP3   OH219337   1.343   1.170   0.325
 6444TIP3    H119338   1.261   1.185   0.372
 6444TIP3    H219339   1.408   1.224   0.370
 6445TIP3   OH219340   2.065   5.877   4.072
 6445TIP3    H119341   2.063   5.790   4.111
 6445TIP3    H219342   2.152   5.884   4.033
 6446TIP3   OH219343   1.347   2.153   4.682
 6446TIP3    H119344   1.349   2.058   4.668
 6446TIP3    H219345   1.334   2.190   4.595
 6447TIP3   OH219346   1.931   0.852   2.746
 6447TIP3    H119347   1.977   0.781   2.789
 6447TIP3    H219348   1.875   0.809   2.682
 6448TIP3   OH219349   1.866   0.054   1.167
 6448TIP3    H119350   1.790   0.002   1.141
 6448TIP3    H219351   1.831   0.121   1.226
 6449TIP3   OH219352   4.847   3.294   0.007
 6449TIP3    H119353   4.872   3.301   0.099
 6449TIP3    H219354   4.785   3.220   0.005
 6450TIP3   OH219355   1.932   4.390   2.033
 6450TIP3    H119356   1.844   4.423   2.052
 6450TIP3    H219357   1.969   4.455   1.973
 6451TIP3   OH219358   4.949   0.896   2.783
 6451TIP3    H119359   5.017   0.958   2.760
 6451TIP3    H219360   4.939   0.840   2.706
 6452TIP3   OH219361   1.327   5.372   0.360
 6452TIP3    H119362   1.350   5.281   0.341
 6452TIP3    H219363   1.356   5.421   0.283
 6453TIP3   OH219364   5.238   3.470   0.597
 6453TIP3    H119365   5.245   3.563   0.574
 6453TIP3    H219366   5.209   3.428   0.516
 6454TIP3   OH219367   5.948   1.722   2.233
 6454TIP3    H119368   6.034   1.715   2.192
 6454TIP3    H219369   5.947   1.653   2.299
 6455TIP3   OH219370   5.297   5.635   2.242
 6455TIP3    H119371   5.230   5.588   2.193
 6455TIP3    H219372   5.365   5.570   2.259
 6456TIP3   OH219373   3.572   0.868   0.949
 6456TIP3    H119374   3.618   0.831   0.874
 6456TIP3    H219375   3.626   0.845   1.024
 6457TIP3   OH219376   0.265   5.949   4.271
 6457TIP3    H119377   0.179   5.911   4.249
 6457TIP3    H219378   0.276   5.930   4.364
 6458TIP3   OH219379   2.769   1.538   4.180
 6458TIP3    H119380   2.858   1.546   4.146
 6458TIP3    H219381   2.753   1.444   4.184
 6459TIP3   OH219382   5.441   0.014   2.240
 6459TIP3    H119383   5.443   0.106   2.213
 6459TIP3    H219384   5.390   0.014   2.321
 6460TIP3   OH219385   4.859   3.717   1.910
 6460TIP3    H119386   4.825   3.652   1.848
 6460TIP3    H219387   4.923   3.669   1.963
 6461TIP3   OH219388   0.582   4.612   4.581
 6461TIP3    H119389   0.610   4.599   4.491
 6461TIP3    H219390   0.621   4.695   4.608
 6462TIP3   OH219391   2.835   3.011   3.533
 6462TIP3    H119392   2.829   3.019   3.438
 6462TIP3    H219393   2.749   3.038   3.565
 6463TIP3   OH219394   2.566   0.241   1.897
 6463TIP3    H119395   2.518   0.324   1.899
 6463TIP3    H219396   2.506   0.180   1.855
 6464TIP3   OH219397   2.428   2.654   3.147
 6464TIP3    H119398   2.365   2.687   3.083
 6464TIP3    H219399   2.458   2.570   3.111
 6465TIP3   OH219400   1.938   5.189   2.062
 6465TIP3    H119401   1.896   5.264   2.019
 6465TIP3    H219402   1.934   5.210   2.156
 6466TIP3   OH219403   3.174   1.075   1.397
 6466TIP3    H119404   3.130   0.990   1.396
 6466TIP3    H219405   3.248   1.065   1.337
 6467TIP3   OH219406   5.128   1.645   3.955
 6467TIP3    H119407   5.136   1.691   3.871
 6467TIP3    H219408   5.045   1.598   3.948
 6468TIP3   OH219409   3.297   4.399   1.155
 6468TIP3    H119410   3.242   4.467   1.194
 6468TIP3    H219411   3.386   4.422   1.182
 6469TIP3   OH219412   5.986   5.044   0.377
 6469TIP3    H119413   5.999   5.138   0.390
 6469TIP3    H219414   5.903   5.037   0.330
 6470TIP3   OH219415   3.233   1.484   0.330
 6470TIP3    H119416   3.260   1.546   0.396
 6470TIP3    H219417   3.197   1.538   0.259
 6471TIP3   OH219418   5.865   4.122   4.770
 6471TIP3    H119419   5.817   4.196   4.733
 6471TIP3    H219420   5.955   4.152   4.774
 6472TIP3   OH219421   3.625   4.441   3.904
 6472TIP3    H119422   3.682   4.503   3.948
 6472TIP3    H219423   3.671   4.357   3.910
 6473TIP3   OH219424   0.501   3.897   2.736
 6473TIP3    H119425   0.448   3.838   2.682
 6473TIP3    H219426   0.523   3.845   2.813
 6474TIP3   OH219427   2.973   5.285   0.405
 6474TIP3    H119428   2.885   5.287   0.444
 6474TIP3    H219429   2.959   5.243   0.319
 6475TIP3   OH219430   2.860   2.545   3.191
 6475TIP3    H119431   2.836   2.497   3.112
 6475TIP3    H219432   2.838   2.486   3.262
 6476TIP3   OH219433   0.047   1.474   5.103
 6476TIP3    H119434   0.132   1.500   5.137
 6476TIP3    H219435  -0.005   1.451   5.180
 6477TIP3   OH219436   3.156   5.459   2.727
 6477TIP3    H119437   3.106   5.526   2.680
 6477TIP3    H219438   3.095   5.387   2.739
 6478TIP3   OH219439   3.509   4.361   4.557
 6478TIP3    H119440   3.494   4.270   4.530
 6478TIP3    H219441   3.435   4.380   4.615
 6479TIP3   OH219442   4.839   0.818   3.361
 6479TIP3    H119443   4.794   0.780   3.286
 6479TIP3    H219444   4.884   0.895   3.326
 6480TIP3   OH219445   3.117   0.128   3.053
 6480TIP3    H119446   3.068   0.070   2.994
 6480TIP3    H219447   3.191   0.076   3.082
 6481TIP3   OH219448   0.465   1.123   4.614
 6481TIP3    H119449   0.387   1.068   4.616
 6481TIP3    H219450   0.535   1.065   4.645
 6482TIP3   OH219451   5.808   1.143   3.013
 6482TIP3    H119452   5.748   1.071   3.031
 6482TIP3    H219453   5.752   1.219   3.002
 6483TIP3   OH219454   1.830   0.935   4.023
 6483TIP3    H119455   1.903   0.996   4.012
 6483TIP3    H219456   1.828   0.885   3.942
 6484TIP3   OH219457   5.274   5.141   1.475
 6484TIP3    H119458   5.300   5.052   1.500
 6484TIP3    H219459   5.326   5.161   1.398
 6485TIP3   OH219460   1.904   5.747  -0.013
 6485TIP3    H119461   1.814   5.760  -0.043
 6485TIP3    H219462   1.899   5.673   0.047
 6486TIP3   OH219463   2.740   2.481   3.590
 6486TIP3    H119464   2.672   2.461   3.653
 6486TIP3    H219465   2.724   2.572   3.565
 6487TIP3   OH219466   1.169   2.084   4.111
 6487TIP3    H119467   1.172   2.015   4.044
 6487TIP3    H219468   1.204   2.162   4.066
 6488TIP3   OH219469   3.649   0.902   2.130
 6488TIP3    H119470   3.727   0.871   2.084
 6488TIP3    H219471   3.579   0.843   2.100
 6489TIP3   OH219472   0.350   2.804   4.093
 6489TIP3    H119473   0.371   2.817   4.000
 6489TIP3    H219474   0.324   2.712   4.098
 6490TIP3   OH219475   3.206   0.333   5.026
 6490TIP3    H119476   3.176   0.421   5.003
 6490TIP3    H219477   3.204   0.284   4.943
 6491TIP3   OH219478   2.841   5.729   4.461
 6491TIP3    H119479   2.908   5.714   4.527
 6491TIP3    H219480   2.888   5.731   4.378
 6492TIP3   OH219481   5.915   0.626   3.011
 6492TIP3    H119482   6.010   0.634   3.005
 6492TIP3    H219483   5.898   0.533   2.995
 6493TIP3   OH219484   2.457   4.874   4.667
 6493TIP3    H119485   2.408   4.792   4.664
 6493TIP3    H219486   2.391   4.941   4.649
 6494TIP3   OH219487   1.027   3.689   3.184
 6494TIP3    H119488   0.995   3.693   3.274
 6494TIP3    H219489   1.066   3.602   3.177
 6495TIP3   OH219490   0.117   4.042   3.943
 6495TIP3    H119491   0.194   4.098   3.935
 6495TIP3    H219492   0.135   3.988   4.020
 6496TIP3   OH219493   4.638   1.345   4.328
 6496TIP3    H119494   4.677   1.430   4.346
 6496TIP3    H219495   4.655   1.329   4.235
 6497TIP3   OH219496   0.831   0.176   4.800
 6497TIP3    H119497   0.776   0.241   4.843
 6497TIP3    H219498   0.842   0.107   4.865
 6498TIP3   OH219499   1.622   5.559   2.525
 6498TIP3    H119500   1.702   5.540   2.477
 6498TIP3    H219501   1.619   5.655   2.529
 6499TIP3   OH219502   4.336   1.308   0.880
 6499TIP3    H119503   4.269   1.240   0.875
 6499TIP3    H219504   4.319   1.352   0.963
 6500TIP3   OH219505   5.516   5.350   0.449
 6500TIP3    H119506   5.423   5.343   0.425
 6500TIP3    H219507   5.533   5.270   0.499
 6501TIP3   OH219508   6.163   3.368   4.768
 6501TIP3    H119509   6.185   3.275   4.763
 6501TIP3    H219510   6.132   3.390   4.680
 6502TIP3   OH219511   1.202   1.264   1.501
 6502TIP3    H119512   1.250   1.346   1.513
 6502TIP3    H219513   1.202   1.224   1.588
 6503TIP3   OH219514   3.377   5.352   4.549
 6503TIP3    H119515   3.310   5.420   4.553
 6503TIP3    H219516   3.334   5.278   4.507
 6504TIP3   OH219517   4.998   5.773   2.074
 6504TIP3    H119518   4.926   5.745   2.017
 6504TIP3    H219519   5.030   5.691   2.112
 6505TIP3   OH219520   3.982   3.357   1.641
 6505TIP3    H119521   4.010   3.448   1.643
 6505TIP3    H219522   3.923   3.351   1.565
 6506TIP3   OH219523   2.881   3.754   3.642
 6506TIP3    H119524   2.939   3.770   3.567
 6506TIP3    H219525   2.891   3.661   3.661
 6507TIP3   OH219526   0.142   1.374   2.321
 6507TIP3    H119527   0.155   1.398   2.413
 6507TIP3    H219528   0.063   1.320   2.322
 6508TIP3   OH219529   4.275   0.873   2.247
 6508TIP3    H119530   4.249   0.794   2.293
 6508TIP3    H219531   4.299   0.843   2.159
 6509TIP3   OH219532   1.249   2.129   1.066
 6509TIP3    H119533   1.239   2.206   1.011
 6509TIP3    H219534   1.186   2.142   1.137
 6510TIP3   OH219535   4.783   5.322   1.361
 6510TIP3    H119536   4.725   5.254   1.326
 6510TIP3    H219537   4.865   5.277   1.380
 6511TIP3   OH219538   2.484   1.582   1.023
 6511TIP3    H119539   2.431   1.643   1.075
 6511TIP3    H219540   2.574   1.605   1.042
 6512TIP3   OH219541   5.223   2.983   1.816
 6512TIP3    H119542   5.288   2.951   1.879
 6512TIP3    H219543   5.192   2.904   1.772
 6513TIP3   OH219544   4.524   5.225   1.853
 6513TIP3    H119545   4.556   5.266   1.933
 6513TIP3    H219546   4.591   5.243   1.788
 6514TIP3   OH219547   3.827   2.588   0.228
 6514TIP3    H119548   3.879   2.560   0.153
 6514TIP3    H219549   3.888   2.587   0.302
 6515TIP3   OH219550   5.138   0.251   0.418
 6515TIP3    H119551   5.204   0.189   0.449
 6515TIP3    H219552   5.126   0.313   0.490
 6516TIP3   OH219553   0.681   4.372   0.326
 6516TIP3    H119554   0.619   4.412   0.265
 6516TIP3    H219555   0.767   4.395   0.293
 6517TIP3   OH219556   5.484   5.534   0.679
 6517TIP3    H119557   5.495   5.483   0.599
 6517TIP3    H219558   5.572   5.543   0.715
 6518TIP3   OH219559   4.332   0.687   2.617
 6518TIP3    H119560   4.335   0.779   2.644
 6518TIP3    H219561   4.313   0.639   2.698
 6519TIP3   OH219562   2.183   0.534   1.452
 6519TIP3    H119563   2.104   0.584   1.432
 6519TIP3    H219564   2.156   0.442   1.447
 6520TIP3   OH219565   5.730   4.454   1.795
 6520TIP3    H119566   5.787   4.382   1.771
 6520TIP3    H219567   5.650   4.412   1.827
 6521TIP3   OH219568   5.250   2.979   4.298
 6521TIP3    H119569   5.260   3.074   4.290
 6521TIP3    H219570   5.312   2.954   4.367
 6522TIP3   OH219571   5.148   0.012   4.783
 6522TIP3    H119572   5.235   0.003   4.823
 6522TIP3    H219573   5.147   0.102   4.751
 6523TIP3   OH219574   4.544   2.234   1.664
 6523TIP3    H119575   4.594   2.298   1.614
 6523TIP3    H219576   4.610   2.180   1.707
 6524TIP3   OH219577   4.151   5.985   1.183
 6524TIP3    H119578   4.126   5.918   1.119
 6524TIP3    H219579   4.068   6.016   1.218
 6525TIP3   OH219580   1.713   5.472   4.408
 6525TIP3    H119581   1.694   5.559   4.445
 6525TIP3    H219582   1.652   5.463   4.335
 6526TIP3   OH219583   2.110   5.758   0.689
 6526TIP3    H119584   2.081   5.802   0.769
 6526TIP3    H219585   2.101   5.824   0.620
 6527TIP3   OH219586   2.117   3.208   1.231
 6527TIP3    H119587   2.103   3.298   1.199
 6527TIP3    H219588   2.185   3.173   1.173
 6528TIP3   OH219589   4.943   2.062   0.324
 6528TIP3    H119590   4.986   2.125   0.383
 6528TIP3    H219591   4.880   2.017   0.380
 6529TIP3   OH219592   0.924   2.600   4.348
 6529TIP3    H119593   0.887   2.688   4.340
 6529TIP3    H219594   1.001   2.611   4.404
 6530TIP3   OH219595   5.722   3.234   1.170
 6530TIP3    H119596   5.725   3.289   1.248
 6530TIP3    H219597   5.652   3.172   1.187
 6531TIP3   OH219598   3.253   4.680   3.464
 6531TIP3    H119599   3.293   4.744   3.522
 6531TIP3    H219600   3.190   4.730   3.412
 6532TIP3   OH219601   4.234   0.632   1.835
 6532TIP3    H119602   4.170   0.635   1.907
 6532TIP3    H219603   4.264   0.722   1.826
 6533TIP3   OH219604   5.981   2.683   1.838
 6533TIP3    H119605   6.073   2.657   1.843
 6533TIP3    H219606   5.980   2.756   1.776
 6534TIP3   OH219607   2.906   2.506   0.068
 6534TIP3    H119608   2.876   2.417   0.085
 6534TIP3    H219609   2.981   2.517   0.127
 6535TIP3   OH219610   1.118   0.673   1.054
 6535TIP3    H119611   1.080   0.760   1.044
 6535TIP3    H219612   1.091   0.625   0.976
 6536TIP3   OH219613   0.969   5.363   1.882
 6536TIP3    H119614   0.945   5.287   1.936
 6536TIP3    H219615   0.982   5.434   1.945
 6537TIP3   OH219616   2.874   4.263   1.396
 6537TIP3    H119617   2.967   4.251   1.379
 6537TIP3    H219618   2.869   4.282   1.490
 6538TIP3   OH219619   2.385   1.214   4.289
 6538TIP3    H119620   2.314   1.191   4.229
 6538TIP3    H219621   2.392   1.138   4.347
 6539TIP3   OH219622   4.758   1.448   2.657
 6539TIP3    H119623   4.732   1.523   2.711
 6539TIP3    H219624   4.773   1.485   2.570
 6540TIP3   OH219625   2.898   3.238   3.800
 6540TIP3    H119626   2.812   3.199   3.815
 6540TIP3    H219627   2.908   3.240   3.705
 6541TIP3   OH219628   4.290   1.475   3.484
 6541TIP3    H119629   4.223   1.427   3.435
 6541TIP3    H219630   4.244   1.548   3.523
 6542TIP3   OH219631   2.023   5.352   0.641
 6542TIP3    H119632   1.964   5.371   0.714
 6542TIP3    H219633   1.987   5.403   0.568
 6543TIP3   OH219634   1.477   3.672   3.391
 6543TIP3    H119635   1.458   3.613   3.318
 6543TIP3    H219636   1.391   3.690   3.430
 6544TIP3   OH219637   3.413   4.334   4.169
 6544TIP3    H119638   3.389   4.412   4.219
 6544TIP3    H219639   3.494   4.304   4.209
 6545TIP3   OH219640   0.997   5.766   0.001
 6545TIP3    H119641   0.930   5.820   0.042
 6545TIP3    H219642   1.077   5.785   0.050
 6546TIP3   OH219643   0.096   5.884   2.167
 6546TIP3    H119644   0.144   5.967   2.156
 6546TIP3    H219645   0.029   5.886   2.099
 6547TIP3   OH219646   4.196   2.400   5.133
 6547TIP3    H119647   4.204   2.336   5.063
 6547TIP3    H219648   4.252   2.473   5.106
 6548TIP3   OH219649   3.554   0.278   4.300
 6548TIP3    H119650   3.568   0.298   4.393
 6548TIP3    H219651   3.527   0.362   4.262
 6549TIP3   OH219652   0.394   2.519   4.743
 6549TIP3    H119653   0.342   2.599   4.753
 6549TIP3    H219654   0.369   2.465   4.818
 6550TIP3   OH219655   6.343   1.282   0.140
 6550TIP3    H119656   6.275   1.216   0.158
 6550TIP3    H219657   6.301   1.365   0.161
 6551TIP3   OH219658   1.572   5.169   4.434
 6551TIP3    H119659   1.614   5.214   4.507
 6551TIP3    H219660   1.553   5.239   4.371
 6552TIP3   OH219661   4.945   2.121   3.425
 6552TIP3    H119662   4.913   2.060   3.358
 6552TIP3    H219663   4.867   2.147   3.473
 6553TIP3   OH219664   2.528   2.161   2.075
 6553TIP3    H119665   2.433   2.171   2.065
 6553TIP3    H219666   2.546   2.182   2.166
 6554TIP3   OH219667   1.237   0.042   0.712
 6554TIP3    H119668   1.209  -0.039   0.670
 6554TIP3    H219669   1.256   0.017   0.802
 6555TIP3   OH219670   1.016   3.614   0.463
 6555TIP3    H119671   0.949   3.673   0.428
 6555TIP3    H219672   0.976   3.527   0.457
 6556TIP3   OH219673   0.014   4.786   1.728
 6556TIP3    H119674   0.107   4.787   1.707
 6556TIP3    H219675   0.011   4.793   1.823
 6557TIP3   OH219676   1.699   4.682   5.148
 6557TIP3    H119677   1.655   4.750   5.097
 6557TIP3    H219678   1.726   4.726   5.229
 6558TIP3   OH219679   2.921   4.607   3.150
 6558TIP3    H119680   2.869   4.565   3.081
 6558TIP3    H219681   2.980   4.539   3.181
 6559TIP3   OH219682   4.962   2.026   1.608
 6559TIP3    H119683   5.040   1.975   1.630
 6559TIP3    H219684   4.938   1.997   1.520
 6560TIP3   OH219685   3.918   0.262   2.876
 6560TIP3    H119686   3.991   0.253   2.938
 6560TIP3    H219687   3.845   0.216   2.918
 6561TIP3   OH219688   5.938   4.670   0.873
 6561TIP3    H119689   6.015   4.678   0.818
 6561TIP3    H219690   5.949   4.735   0.942
 6562TIP3   OH219691   5.670   4.871   0.445
 6562TIP3    H119692   5.688   4.936   0.378
 6562TIP3    H219693   5.736   4.888   0.513
 6563TIP3   OH219694   2.384   3.121   0.254
 6563TIP3    H119695   2.395   3.074   0.337
 6563TIP3    H219696   2.293   3.150   0.256
 6564TIP3   OH219697   1.575   0.433   0.826
 6564TIP3    H119698   1.504   0.383   0.867
 6564TIP3    H219699   1.639   0.448   0.895
 6565TIP3   OH219700   3.455   2.214   3.115
 6565TIP3    H119701   3.546   2.230   3.088
 6565TIP3    H219702   3.417   2.302   3.121
 6566TIP3   OH219703   0.583   5.305   3.173
 6566TIP3    H119704   0.620   5.387   3.141
 6566TIP3    H219705   0.652   5.240   3.159
 6567TIP3   OH219706   5.474   4.594   3.744
 6567TIP3    H119707   5.456   4.502   3.726
 6567TIP3    H219708   5.388   4.633   3.757
 6568TIP3   OH219709   1.458   1.112   3.502
 6568TIP3    H119710   1.526   1.119   3.435
 6568TIP3    H219711   1.468   1.024   3.538
 6569TIP3   OH219712   2.677   3.721   4.660
 6569TIP3    H119713   2.636   3.651   4.710
 6569TIP3    H219714   2.603   3.772   4.627
 6570TIP3   OH219715   2.391   5.864   0.319
 6570TIP3    H119716   2.386   5.959   0.306
 6570TIP3    H219717   2.443   5.853   0.398
 6571TIP3   OH219718   4.579   3.265   2.600
 6571TIP3    H119719   4.665   3.248   2.560
 6571TIP3    H219720   4.559   3.355   2.576
 6572TIP3   OH219721   5.320   3.384   3.660
 6572TIP3    H119722   5.287   3.332   3.733
 6572TIP3    H219723   5.345   3.320   3.594
 6573TIP3   OH219724   4.691   1.318   0.286
 6573TIP3    H119725   4.640   1.297   0.364
 6573TIP3    H219726   4.730   1.403   0.304
 6574TIP3   OH219727   5.306   1.488   4.101
 6574TIP3    H119728   5.250   1.462   4.175
 6574TIP3    H219729   5.258   1.559   4.058
 6575TIP3   OH219730   1.978   3.829   4.199
 6575TIP3    H119731   1.887   3.800   4.210
 6575TIP3    H219732   2.027   3.782   4.267
 6576TIP3   OH219733   3.596   3.951   1.853
 6576TIP3    H119734   3.535   3.971   1.781
 6576TIP3    H219735   3.559   3.998   1.928
 6577TIP3   OH219736   5.093   0.150   2.264
 6577TIP3    H119737   5.117   0.118   2.177
 6577TIP3    H219738   5.159   0.111   2.323
 6578TIP3   OH219739   3.356   4.498   3.832
 6578TIP3    H119740   3.373   4.487   3.738
 6578TIP3    H219741   3.440   4.481   3.874
 6579TIP3   OH219742   1.756   2.008   3.701
 6579TIP3    H119743   1.766   1.998   3.796
 6579TIP3    H219744   1.815   2.080   3.678
 6580TIP3   OH219745   1.055   5.327   0.394
 6580TIP3    H119746   1.050   5.345   0.488
 6580TIP3    H219747   1.144   5.353   0.369
 6581TIP3   OH219748   0.626   2.440   1.483
 6581TIP3    H119749   0.628   2.371   1.550
 6581TIP3    H219750   0.681   2.407   1.412
 6582TIP3   OH219751   4.276   1.743   0.149
 6582TIP3    H119752   4.270   1.715   0.241
 6582TIP3    H219753   4.357   1.792   0.144
 6583TIP3   OH219754   1.652   3.425   4.891
 6583TIP3    H119755   1.644   3.449   4.983
 6583TIP3    H219756   1.573   3.374   4.872
 6584TIP3   OH219757   0.547   5.909   1.013
 6584TIP3    H119758   0.527   5.816   1.021
 6584TIP3    H219759   0.534   5.944   1.101
 6585TIP3   OH219760   2.781   2.641   5.110
 6585TIP3    H119761   2.703   2.585   5.114
 6585TIP3    H219762   2.746   2.730   5.102
 6586TIP3   OH219763   1.289   4.758   1.524
 6586TIP3    H119764   1.355   4.693   1.550
 6586TIP3    H219765   1.229   4.710   1.467
 6587TIP3   OH219766   3.402   5.443   1.134
 6587TIP3    H119767   3.456   5.420   1.058
 6587TIP3    H219768   3.386   5.537   1.124
 6588TIP3   OH219769   5.271   4.250   2.028
 6588TIP3    H119770   5.263   4.197   2.108
 6588TIP3    H219771   5.209   4.322   2.041
 6589TIP3   OH219772   6.032   0.601   2.724
 6589TIP3    H119773   6.001   0.563   2.641
 6589TIP3    H219774   5.970   0.569   2.789
 6590TIP3   OH219775   6.015   2.138   2.048
 6590TIP3    H119776   6.076   2.152   2.121
 6590TIP3    H219777   6.061   2.172   1.971
 6591TIP3   OH219778   3.166   0.682   3.505
 6591TIP3    H119779   3.246   0.655   3.550
 6591TIP3    H219780   3.098   0.678   3.572
 6592TIP3   OH219781   5.055   1.371   3.834
 6592TIP3    H119782   5.148   1.350   3.842
 6592TIP3    H219783   5.013   1.287   3.815
 6593TIP3   OH219784   0.056   4.387   2.612
 6593TIP3    H119785   0.024   4.447   2.680
 6593TIP3    H219786   0.090   4.445   2.543
 6594TIP3   OH219787   4.384   3.184   4.732
 6594TIP3    H119788   4.441   3.260   4.725
 6594TIP3    H219789   4.295   3.220   4.737
 6595TIP3   OH219790   5.689   5.523   1.762
 6595TIP3    H119791   5.628   5.466   1.715
 6595TIP3    H219792   5.649   5.609   1.757
 6596TIP3   OH219793   1.042   0.325   3.874
 6596TIP3    H119794   1.067   0.234   3.885
 6596TIP3    H219795   1.115   0.375   3.911
 6597TIP3   OH219796   3.418   5.442   5.156
 6597TIP3    H119797   3.364   5.432   5.078
 6597TIP3    H219798   3.418   5.536   5.174
 6598TIP3   OH219799   0.358   2.405   2.363
 6598TIP3    H119800   0.351   2.378   2.271
 6598TIP3    H219801   0.348   2.324   2.413
 6599TIP3   OH219802   5.161   4.114   4.075
 6599TIP3    H119803   5.180   4.191   4.021
 6599TIP3    H219804   5.164   4.147   4.165
 6600TIP3   OH219805   4.709   0.159   3.004
 6600TIP3    H119806   4.669   0.103   3.070
 6600TIP3    H219807   4.800   0.168   3.031
 6601TIP3   OH219808   6.013   4.004   1.315
 6601TIP3    H119809   6.069   4.061   1.368
 6601TIP3    H219810   6.062   3.921   1.310
 6602TIP3   OH219811   2.407   1.836   3.125
 6602TIP3    H119812   2.347   1.813   3.196
 6602TIP3    H219813   2.382   1.925   3.100
 6603TIP3   OH219814   2.304   4.652   4.345
 6603TIP3    H119815   2.276   4.730   4.298
 6603TIP3    H219816   2.388   4.629   4.306
 6604TIP3   OH219817   4.292   4.114   2.228
 6604TIP3    H119818   4.289   4.039   2.287
 6604TIP3    H219819   4.263   4.188   2.282
 6605TIP3   OH219820   2.309   4.068   3.199
 6605TIP3    H119821   2.235   4.105   3.151
 6605TIP3    H219822   2.308   3.975   3.177
 6606TIP3   OH219823   5.606   4.578   2.778
 6606TIP3    H119824   5.668   4.637   2.735
 6606TIP3    H219825   5.645   4.491   2.768
 6607TIP3   OH219826   2.671   2.823   2.076
 6607TIP3    H119827   2.682   2.748   2.018
 6607TIP3    H219828   2.737   2.886   2.045
 6608TIP3   OH219829   2.401   5.875   4.974
 6608TIP3    H119830   2.340   5.904   5.042
 6608TIP3    H219831   2.435   5.956   4.936
 6609TIP3   OH219832   4.371   0.505   1.131
 6609TIP3    H119833   4.444   0.449   1.156
 6609TIP3    H219834   4.293   0.458   1.161
 6610TIP3   OH219835   2.459   5.452   3.286
 6610TIP3    H119836   2.391   5.502   3.241
 6610TIP3    H219837   2.419   5.427   3.369
 6611TIP3   OH219838   1.669   2.206   3.317
 6611TIP3    H119839   1.684   2.208   3.223
 6611TIP3    H219840   1.672   2.113   3.340
 6612TIP3   OH219841   4.475   2.104   2.586
 6612TIP3    H119842   4.415   2.131   2.516
 6612TIP3    H219843   4.470   2.174   2.650
 6613TIP3   OH219844   0.464   0.381   0.513
 6613TIP3    H119845   0.543   0.379   0.458
 6613TIP3    H219846   0.411   0.309   0.479
 6614TIP3   OH219847   0.763   1.269   1.605
 6614TIP3    H119848   0.791   1.298   1.692
 6614TIP3    H219849   0.794   1.338   1.546
 6615TIP3   OH219850   3.312   0.367   2.472
 6615TIP3    H119851   3.352   0.414   2.545
 6615TIP3    H219852   3.383   0.356   2.408
 6616TIP3   OH219853   3.823   0.397   4.065
 6616TIP3    H119854   3.794   0.306   4.074
 6616TIP3    H219855   3.867   0.417   4.147
 6617TIP3   OH219856   0.865   5.232   4.376
 6617TIP3    H119857   0.958   5.213   4.390
 6617TIP3    H219858   0.843   5.187   4.295
 6618TIP3   OH219859   4.739   3.491   2.114
 6618TIP3    H119860   4.833   3.481   2.129
 6618TIP3    H219861   4.732   3.566   2.055
 6619TIP3   OH219862   1.632   2.487   5.031
 6619TIP3    H119863   1.722   2.500   5.003
 6619TIP3    H219864   1.608   2.568   5.076
 6620TIP3   OH219865   1.327   2.629   3.514
 6620TIP3    H119866   1.339   2.591   3.427
 6620TIP3    H219867   1.329   2.724   3.499
 6621TIP3   OH219868   5.436   2.528   1.337
 6621TIP3    H119869   5.376   2.470   1.384
 6621TIP3    H219870   5.521   2.483   1.341
 6622TIP3   OH219871   4.907   3.372   0.293
 6622TIP3    H119872   4.811   3.378   0.297
 6622TIP3    H219873   4.935   3.377   0.384
 6623TIP3   OH219874   0.734   3.667   4.644
 6623TIP3    H119875   0.806   3.711   4.689
 6623TIP3    H219876   0.757   3.574   4.649
 6624TIP3   OH219877   5.750   1.496   1.902
 6624TIP3    H119878   5.740   1.556   1.828
 6624TIP3    H219879   5.844   1.485   1.912
 6625TIP3   OH219880   1.534   0.098   3.322
 6625TIP3    H119881   1.569   0.103   3.232
 6625TIP3    H219882   1.439   0.099   3.310
 6626TIP3   OH219883   2.598   0.259   0.257
 6626TIP3    H119884   2.577   0.337   0.207
 6626TIP3    H219885   2.550   0.269   0.339
 6627TIP3   OH219886   5.755   2.718   3.139
 6627TIP3    H119887   5.732   2.711   3.046
 6627TIP3    H219888   5.679   2.683   3.186
 6628TIP3   OH219889   0.162   3.611   0.335
 6628TIP3    H119890   0.147   3.557   0.412
 6628TIP3    H219891   0.189   3.548   0.267
 6629TIP3   OH219892   5.224   4.637   1.401
 6629TIP3    H119893   5.295   4.576   1.379
 6629TIP3    H219894   5.152   4.581   1.430
 6630TIP3   OH219895   1.573   0.259   3.535
 6630TIP3    H119896   1.558   0.193   3.467
 6630TIP3    H219897   1.485   0.285   3.563
 6631TIP3   OH219898   5.754   1.013   2.068
 6631TIP3    H119899   5.832   0.998   2.120
 6631TIP3    H219900   5.681   0.996   2.128
 6632TIP3   OH219901   0.904   5.404   2.287
 6632TIP3    H119902   0.951   5.477   2.328
 6632TIP3    H219903   0.889   5.343   2.358
 6633TIP3   OH219904   5.888   1.920   2.709
 6633TIP3    H119905   5.864   1.999   2.661
 6633TIP3    H219906   5.966   1.887   2.665
 6634TIP3   OH219907   3.578   2.641   4.625
 6634TIP3    H119908   3.551   2.564   4.575
 6634TIP3    H219909   3.651   2.610   4.679
 6635TIP3   OH219910   2.023   2.189   3.358
 6635TIP3    H119911   1.970   2.216   3.433
 6635TIP3    H219912   2.091   2.134   3.396
 6636TIP3   OH219913   1.562   1.235   2.937
 6636TIP3    H119914   1.638   1.187   2.970
 6636TIP3    H219915   1.489   1.173   2.945
 6637TIP3   OH219916   5.582   0.652   3.446
 6637TIP3    H119917   5.593   0.584   3.380
 6637TIP3    H219918   5.520   0.713   3.408
 6638TIP3   OH219919   1.682   4.528   1.837
 6638TIP3    H119920   1.754   4.480   1.797
 6638TIP3    H219921   1.606   4.507   1.783
 6639TIP3   OH219922   3.002   0.752   3.905
 6639TIP3    H119923   2.926   0.735   3.961
 6639TIP3    H219924   3.052   0.818   3.952
 6640TIP3   OH219925   3.633   1.765   4.032
 6640TIP3    H119926   3.613   1.830   3.964
 6640TIP3    H219927   3.558   1.770   4.091
   6.35371   5.99033   5.18778   0.00000   0.00000  -2.11790   0.00000  -2.11790  -2.99517
